/*--------------------------------*- C++ -*----------------------------------*\
| =========                 |                                                 |
| \\      /  F ield         | OpenFOAM: The Open Source CFD Toolbox           |
|  \\    /   O peration     | Version:  v2106                                 |
|   \\  /    A nd           | Website:  www.openfoam.com                      |
|    \\/     M anipulation  |                                                 |
\*---------------------------------------------------------------------------*/
FoamFile
{
    version     2.0;
    format      ascii;
    arch        "LSB;label=32;scalar=64";
    class       volVectorField;
    location    "50";
    object      flux;
}
// * * * * * * * * * * * * * * * * * * * * * * * * * * * * * * * * * * * * * //

dimensions      [0 1 -1 1 0 0 0];

internalField   nonuniform List<vector> 
4000
(
(3.7085957e-07 3.7085958e-07 1.8761534)
(5.3652636e-07 3.2100059e-07 1.8761548)
(2.6004281e-07 3.1001754e-07 1.8761554)
(1.3528527e-07 3.0591778e-07 1.8761558)
(3.6162687e-08 3.035768e-07 1.876156)
(-4.9227861e-08 3.014947e-07 1.8761559)
(-1.2145123e-07 2.9872416e-07 1.8761558)
(-1.7351747e-07 2.9374415e-07 1.8761554)
(-1.8329508e-07 2.8258207e-07 1.876155)
(-8.674758e-08 2.5387588e-07 1.8761546)
(3.2100058e-07 5.3652637e-07 1.8761548)
(4.7568435e-07 4.756843e-07 1.876156)
(2.4496e-07 4.5762115e-07 1.8761566)
(1.2884455e-07 4.4899703e-07 1.8761569)
(3.1739602e-08 4.4325984e-07 1.8761571)
(-5.4080516e-08 4.3796428e-07 1.876157)
(-1.2920178e-07 4.3138272e-07 1.8761568)
(-1.8965957e-07 4.2102188e-07 1.8761565)
(-2.2316336e-07 4.0186298e-07 1.8761561)
(-1.1545376e-07 3.6319263e-07 1.8761555)
(3.1001752e-07 2.6004282e-07 1.8761554)
(4.5762115e-07 2.4496002e-07 1.8761566)
(2.3335551e-07 2.3335547e-07 1.8761571)
(1.2092396e-07 2.2479636e-07 1.8761575)
(2.512995e-08 2.1777948e-07 1.8761576)
(-6.1104975e-08 2.1098048e-07 1.8761576)
(-1.3839363e-07 2.0324725e-07 1.8761573)
(-2.0303723e-07 1.9331573e-07 1.876157)
(-2.4112433e-07 1.8014346e-07 1.8761565)
(-1.2541791e-07 1.6569499e-07 1.8761559)
(3.0591778e-07 1.3528529e-07 1.8761558)
(4.4899699e-07 1.2884457e-07 1.8761569)
(2.2479637e-07 1.2092401e-07 1.8761575)
(1.1326857e-07 1.1326852e-07 1.8761578)
(1.7923692e-08 1.0602348e-07 1.8761579)
(-6.8612746e-08 9.8864502e-08 1.8761578)
(-1.4686653e-07 9.1254634e-08 1.8761576)
(-2.1276335e-07 8.2922115e-08 1.8761572)
(-2.5078412e-07 7.4212424e-08 1.8761567)
(-1.2990223e-07 6.7268717e-08 1.8761562)
(3.035768e-07 3.6162661e-08 1.876156)
(4.4325984e-07 3.1739585e-08 1.8761571)
(2.1777943e-07 2.5129976e-08 1.8761576)
(1.0602344e-07 1.7923666e-08 1.8761579)
(1.0725934e-08 1.0725856e-08 1.876158)
(-7.5873795e-08 3.6067763e-09 1.8761579)
(-1.54336e-07 -3.4917815e-09 1.8761577)
(-2.2007946e-07 -1.0549079e-08 1.8761573)
(-2.5677775e-07 -1.6886223e-08 1.8761568)
(-1.3236159e-07 -2.1053064e-08 1.8761562)
(3.0149471e-07 -4.9227879e-08 1.8761559)
(4.3796433e-07 -5.4080551e-08 1.876157)
(2.1098046e-07 -6.1104993e-08 1.8761576)
(9.886445e-08 -6.8612676e-08 1.8761578)
(3.6067937e-09 -7.587383e-08 1.8761579)
(-8.2830409e-08 -8.2830401e-08 1.8761578)
(-1.6102237e-07 -8.9518185e-08 1.8761576)
(-2.2615777e-07 -9.5802246e-08 1.8761572)
(-2.6128809e-07 -1.0118371e-07 1.8761567)
(-1.340691e-07 -1.0449114e-07 1.8761561)
(2.987241e-07 -1.2145117e-07 1.8761558)
(4.3138273e-07 -1.2920175e-07 1.8761568)
(2.0324731e-07 -1.3839369e-07 1.8761573)
(9.1254608e-08 -1.4686654e-07 1.8761576)
(-3.4917902e-09 -1.5433598e-07 1.8761577)
(-8.951815e-08 -1.6102236e-07 1.8761576)
(-1.6730788e-07 -1.6730786e-07 1.8761573)
(-2.3174501e-07 -1.7327787e-07 1.8761569)
(-2.6546661e-07 -1.7856915e-07 1.8761564)
(-1.3566902e-07 -1.8209692e-07 1.8761558)
(2.9374415e-07 -1.7351751e-07 1.8761554)
(4.2102183e-07 -1.8965955e-07 1.8761565)
(1.9331568e-07 -2.0303725e-07 1.876157)
(8.2922141e-08 -2.1276338e-07 1.8761572)
(-1.0549018e-08 -2.2007947e-07 1.8761573)
(-9.5802281e-08 -2.2615779e-07 1.8761572)
(-1.7327788e-07 -2.3174501e-07 1.8761569)
(-2.3741906e-07 -2.3741908e-07 1.8761565)
(-2.7010716e-07 -2.432058e-07 1.8761559)
(-1.3759688e-07 -2.4794088e-07 1.8761553)
(2.8258207e-07 -1.8329508e-07 1.876155)
(4.0186296e-07 -2.2316335e-07 1.8761561)
(1.8014347e-07 -2.4112434e-07 1.8761565)
(7.4212398e-08 -2.5078405e-07 1.8761567)
(-1.6886206e-08 -2.5677772e-07 1.8761568)
(-1.0118369e-07 -2.6128814e-07 1.8761567)
(-1.7856915e-07 -2.6546659e-07 1.8761564)
(-2.4320581e-07 -2.7010717e-07 1.8761559)
(-2.7598841e-07 -2.7598839e-07 1.8761554)
(-1.4040409e-07 -2.8273392e-07 1.8761547)
(2.5387586e-07 -8.6747536e-08 1.8761546)
(3.6319257e-07 -1.1545375e-07 1.8761555)
(1.6569498e-07 -1.2541794e-07 1.8761559)
(6.7268769e-08 -1.2990223e-07 1.8761562)
(-2.1053107e-08 -1.3236156e-07 1.8761562)
(-1.0449115e-07 -1.3406914e-07 1.8761561)
(-1.820969e-07 -1.3566902e-07 1.8761558)
(-2.4794086e-07 -1.3759688e-07 1.8761553)
(-2.8273391e-07 -1.4040407e-07 1.8761547)
(-1.4434242e-07 -1.4434239e-07 1.8761541)
(1.0011894e-06 1.0011894e-06 1.8761469)
(1.4659716e-06 8.5684627e-07 1.876148)
(7.3564887e-07 8.2593018e-07 1.8761486)
(3.8785052e-07 8.143092e-07 1.8761489)
(9.8835306e-08 8.0745165e-07 1.8761491)
(-1.5592673e-07 8.0124558e-07 1.876149)
(-3.7628727e-07 7.9288247e-07 1.8761488)
(-5.4589886e-07 7.7751419e-07 1.8761485)
(-6.1539055e-07 7.4129809e-07 1.8761481)
(-3.080008e-07 6.3739476e-07 1.8761475)
(8.5684627e-07 1.4659716e-06 1.876148)
(1.2907124e-06 1.2907124e-06 1.876149)
(6.9311179e-07 1.2399379e-06 1.8761495)
(3.69372e-07 1.2152387e-06 1.8761499)
(8.5771668e-08 1.1983578e-06 1.87615)
(-1.7049591e-07 1.182562e-06 1.87615)
(-4.0001864e-07 1.1627585e-06 1.8761497)
(-5.9748325e-07 1.1311467e-06 1.8761494)
(-7.5551001e-07 1.0706426e-06 1.8761489)
(-4.1190414e-07 9.3761316e-07 1.8761482)
(8.259302e-07 7.3564892e-07 1.8761486)
(1.2399379e-06 6.9311185e-07 1.8761495)
(6.601752e-07 6.6017519e-07 1.87615)
(3.4627041e-07 6.3522037e-07 1.8761503)
(6.615858e-08 6.1443976e-07 1.8761505)
(-1.9152601e-07 5.9414324e-07 1.8761504)
(-4.2770259e-07 5.7095862e-07 1.8761502)
(-6.3801475e-07 5.4104487e-07 1.8761498)
(-8.0892404e-07 5.0123481e-07 1.8761493)
(-4.4103024e-07 4.5877751e-07 1.8761486)
(8.1430918e-07 3.8785058e-07 1.8761489)
(1.2152387e-06 3.6937198e-07 1.8761499)
(6.3522031e-07 3.462704e-07 1.8761503)
(3.2363657e-07 3.2363661e-07 1.8761506)
(4.4694561e-08 3.0207968e-07 1.8761507)
(-2.1397706e-07 2.8066975e-07 1.8761507)
(-4.5311701e-07 2.578836e-07 1.8761504)
(-6.6720707e-07 2.3287755e-07 1.87615)
(-8.377774e-07 2.0673671e-07 1.8761495)
(-4.5436144e-07 1.8605448e-07 1.8761488)
(8.0745161e-07 9.8835246e-08 1.8761491)
(1.1983577e-06 8.5771589e-08 1.87615)
(6.1443981e-07 6.615858e-08 1.8761505)
(3.020797e-07 4.4694587e-08 1.8761507)
(2.3191735e-08 2.3191778e-08 1.8761508)
(-2.357221e-07 1.8971803e-09 1.8761507)
(-4.7549478e-07 -1.9403246e-08 1.8761505)
(-6.8916164e-07 -4.0575278e-08 1.8761501)
(-8.5574711e-07 -5.962732e-08 1.8761495)
(-4.6171247e-07 -7.2146924e-08 1.8761488)
(8.0124555e-07 -1.5592676e-07 1.876149)
(1.182562e-06 -1.7049587e-07 1.87615)
(5.941433e-07 -1.9152601e-07 1.8761504)
(2.8066975e-07 -2.1397702e-07 1.8761507)
(1.897137e-09 -2.357221e-07 1.8761507)
(-2.5657206e-07 -2.5657205e-07 1.8761506)
(-4.9558946e-07 -2.7665994e-07 1.8761504)
(-7.0743114e-07 -2.9562758e-07 1.8761499)
(-8.6934903e-07 -3.1192485e-07 1.8761494)
(-4.6688105e-07 -3.2202413e-07 1.8761486)
(7.9288249e-07 -3.7628726e-07 1.8761488)
(1.1627585e-06 -4.0001862e-07 1.8761497)
(5.7095866e-07 -4.2770259e-07 1.8761502)
(2.578836e-07 -4.5311702e-07 1.8761504)
(-1.9403316e-08 -4.7549477e-07 1.8761505)
(-2.7665994e-07 -4.9558948e-07 1.8761504)
(-5.1455034e-07 -5.1455029e-07 1.8761501)
(-7.2442654e-07 -5.327297e-07 1.8761497)
(-8.8214364e-07 -5.4916243e-07 1.8761491)
(-4.7181173e-07 -5.6044751e-07 1.8761483)
(7.7751419e-07 -5.4589889e-07 1.8761485)
(1.1311467e-06 -5.9748331e-07 1.8761494)
(5.410449e-07 -6.3801478e-07 1.8761498)
(2.3287758e-07 -6.6720715e-07 1.87615)
(-4.0575304e-08 -6.8916162e-07 1.8761501)
(-2.9562758e-07 -7.0743115e-07 1.8761499)
(-5.3272969e-07 -7.2442654e-07 1.8761497)
(-7.4204328e-07 -7.4204325e-07 1.8761492)
(-8.9706687e-07 -7.6091871e-07 1.8761486)
(-4.7816614e-07 -7.780712e-07 1.8761478)
(7.4129806e-07 -6.1539056e-07 1.8761481)
(1.0706426e-06 -7.5551e-07 1.8761489)
(5.0123482e-07 -8.0892406e-07 1.8761493)
(2.0673675e-07 -8.3777744e-07 1.8761495)
(-5.962732e-08 -8.5574717e-07 1.8761495)
(-3.1192487e-07 -8.6934906e-07 1.8761494)
(-5.4916242e-07 -8.8214368e-07 1.8761491)
(-7.6091872e-07 -8.9706686e-07 1.8761486)
(-9.1817156e-07 -9.1817158e-07 1.876148)
(-4.8896423e-07 -9.5090474e-07 1.8761472)
(6.3739474e-07 -3.080008e-07 1.8761475)
(9.3761316e-07 -4.1190412e-07 1.8761482)
(4.5877745e-07 -4.4103025e-07 1.8761486)
(1.8605449e-07 -4.5436151e-07 1.8761488)
(-7.2146898e-08 -4.6171248e-07 1.8761488)
(-3.2202413e-07 -4.6688109e-07 1.8761486)
(-5.6044748e-07 -4.7181176e-07 1.8761483)
(-7.7807118e-07 -4.7816614e-07 1.8761478)
(-9.5090474e-07 -4.8896422e-07 1.8761472)
(-5.1089931e-07 -5.1089931e-07 1.8761464)
(1.5158645e-06 1.5158645e-06 1.8761333)
(2.2389446e-06 1.2964011e-06 1.8761343)
(1.1497264e-06 1.249234e-06 1.8761348)
(6.0729531e-07 1.2309862e-06 1.8761351)
(1.3971327e-07 1.2198821e-06 1.8761352)
(-2.8203876e-07 1.2096498e-06 1.8761351)
(-6.5656563e-07 1.1956843e-06 1.8761349)
(-9.6426317e-07 1.1697474e-06 1.8761345)
(-1.1487991e-06 1.1078165e-06 1.876134)
(-5.999986e-07 9.2774875e-07 1.8761334)
(1.2964012e-06 2.2389446e-06 1.8761343)
(1.972314e-06 1.9723141e-06 1.8761351)
(1.0843114e-06 1.8941807e-06 1.8761356)
(5.7794344e-07 1.8550288e-06 1.8761359)
(1.1837689e-07 1.8275749e-06 1.876136)
(-3.0623654e-07 1.8015053e-06 1.8761359)
(-6.9646801e-07 1.7685163e-06 1.8761357)
(-1.052131e-06 1.7154539e-06 1.8761353)
(-1.3907978e-06 1.6129606e-06 1.8761347)
(-7.8006634e-07 1.3854607e-06 1.876134)
(1.249234e-06 1.1497263e-06 1.8761348)
(1.8941807e-06 1.0843114e-06 1.8761356)
(1.0324411e-06 1.0324411e-06 1.876136)
(5.4068947e-07 9.9222596e-07 1.8761363)
(8.6189701e-08 9.5821274e-07 1.8761364)
(-3.4109738e-07 9.2466577e-07 1.8761363)
(-7.4261698e-07 8.8613839e-07 1.8761361)
(-1.1198189e-06 8.3626849e-07 1.8761357)
(-1.4787923e-06 7.6993374e-07 1.8761351)
(-8.2749849e-07 7.006612e-07 1.8761343)
(1.2309862e-06 6.0729529e-07 1.8761351)
(1.8550288e-06 5.7794342e-07 1.8761359)
(9.9222591e-07 5.4068947e-07 1.8761363)
(5.0371506e-07 5.0371507e-07 1.8761365)
(5.0816677e-08 4.6821617e-07 1.8761366)
(-3.7831088e-07 4.3276317e-07 1.8761365)
(-7.8486528e-07 3.9491285e-07 1.8761363)
(-1.1683356e-06 3.533025e-07 1.8761358)
(-1.5264051e-06 3.0985753e-07 1.8761352)
(-8.4933889e-07 2.7584973e-07 1.8761344)
(1.2198821e-06 1.3971332e-07 1.8761352)
(1.8275749e-06 1.1837685e-07 1.876136)
(9.5821271e-07 8.6189684e-08 1.8761364)
(4.6821619e-07 5.0816712e-08 1.8761366)
(1.523782e-08 1.5237828e-08 1.8761367)
(-4.1440072e-07 -2.0099408e-08 1.8761366)
(-8.2207765e-07 -5.5547875e-08 1.8761363)
(-1.2048742e-06 -9.0849403e-08 1.8761359)
(-1.5562451e-06 -1.2265319e-07 1.8761352)
(-8.6150627e-07 -1.4350849e-07 1.8761344)
(1.2096498e-06 -2.8203875e-07 1.8761351)
(1.8015052e-06 -3.0623657e-07 1.8761359)
(9.2466578e-07 -3.4109739e-07 1.8761363)
(4.3276319e-07 -3.7831087e-07 1.8761365)
(-2.0099452e-08 -4.1440071e-07 1.8761366)
(-4.4909658e-07 -4.4909656e-07 1.8761365)
(-8.5561526e-07 -4.8264096e-07 1.8761362)
(-1.235441e-06 -5.1450171e-07 1.8761357)
(-1.5790642e-06 -5.4206692e-07 1.8761351)
(-8.701942e-07 -5.593136e-07 1.8761343)
(1.1956843e-06 -6.5656568e-07 1.8761349)
(1.7685162e-06 -6.96468e-07 1.8761357)
(8.8613843e-07 -7.4261697e-07 1.8761361)
(3.9491287e-07 -7.8486532e-07 1.8761363)
(-5.5547858e-08 -8.2207767e-07 1.8761363)
(-4.8264095e-07 -8.5561524e-07 1.8761362)
(-8.8748281e-07 -8.8748278e-07 1.8761359)
(-1.2643002e-06 -9.1845622e-07 1.8761354)
(-1.601057e-06 -9.4715754e-07 1.8761348)
(-8.7875294e-07 -9.6766593e-07 1.8761339)
(1.1697474e-06 -9.6426315e-07 1.8761345)
(1.7154539e-06 -1.052131e-06 1.8761353)
(8.3626847e-07 -1.1198188e-06 1.8761357)
(3.5330248e-07 -1.1683357e-06 1.8761358)
(-9.0849368e-08 -1.2048742e-06 1.8761359)
(-5.1450169e-07 -1.235441e-06 1.8761357)
(-9.1845622e-07 -1.2643001e-06 1.8761354)
(-1.2951157e-06 -1.2951157e-06 1.8761349)
(-1.6282739e-06 -1.3301619e-06 1.8761343)
(-8.907026e-07 -1.3657231e-06 1.8761334)
(1.1078164e-06 -1.1487991e-06 1.876134)
(1.6129606e-06 -1.3907978e-06 1.8761347)
(7.6993374e-07 -1.4787924e-06 1.8761351)
(3.0985751e-07 -1.5264051e-06 1.8761352)
(-1.2265313e-07 -1.5562451e-06 1.8761352)
(-5.4206689e-07 -1.5790642e-06 1.8761351)
(-9.4715756e-07 -1.601057e-06 1.8761348)
(-1.3301619e-06 -1.6282739e-06 1.8761343)
(-1.6716643e-06 -1.6716644e-06 1.8761336)
(-9.143141e-07 -1.7571576e-06 1.8761327)
(9.2774876e-07 -5.9999864e-07 1.8761334)
(1.3854607e-06 -7.8006632e-07 1.876134)
(7.0066116e-07 -8.2749851e-07 1.8761343)
(2.7584973e-07 -8.4933889e-07 1.8761344)
(-1.4350843e-07 -8.6150628e-07 1.8761344)
(-5.5931358e-07 -8.701942e-07 1.8761343)
(-9.6766595e-07 -8.7875299e-07 1.8761339)
(-1.3657231e-06 -8.9070258e-07 1.8761334)
(-1.7571576e-06 -9.1431415e-07 1.8761327)
(-9.7619579e-07 -9.7619585e-07 1.8761318)
(1.9851715e-06 1.9851716e-06 1.8761124)
(2.937698e-06 1.6974438e-06 1.8761133)
(1.5151245e-06 1.6357403e-06 1.8761138)
(7.9284261e-07 1.6114543e-06 1.876114)
(1.5535754e-07 1.5963432e-06 1.8761141)
(-4.3012764e-07 1.5821944e-06 1.876114)
(-9.6071764e-07 1.5626799e-06 1.8761138)
(-1.4130889e-06 1.5261715e-06 1.8761134)
(-1.7173901e-06 1.4384282e-06 1.8761129)
(-9.0977829e-07 1.1817547e-06 1.8761123)
(1.6974438e-06 2.9376979e-06 1.8761133)
(2.5882668e-06 2.5882668e-06 1.8761141)
(1.429135e-06 2.4855342e-06 1.8761145)
(7.5344551e-07 2.4330982e-06 1.8761148)
(1.2609754e-07 2.3956106e-06 1.8761149)
(-4.6379094e-07 2.3595438e-06 1.8761148)
(-1.0167405e-06 2.3135282e-06 1.8761145)
(-1.5373405e-06 2.239107e-06 1.8761141)
(-2.061807e-06 2.0946702e-06 1.8761135)
(-1.1664518e-06 1.7726694e-06 1.8761128)
(1.6357403e-06 1.5151245e-06 1.8761138)
(2.4855342e-06 1.429135e-06 1.8761145)
(1.359956e-06 1.359956e-06 1.8761149)
(7.0291909e-07 1.3054697e-06 1.8761152)
(8.1803123e-08 1.2587786e-06 1.8761152)
(-5.1221013e-07 1.2123132e-06 1.8761151)
(-1.0811545e-06 1.1586627e-06 1.8761149)
(-1.6319468e-06 1.0890312e-06 1.8761144)
(-2.1838276e-06 9.9645845e-07 1.8761138)
(-1.231779e-06 9.010185e-07 1.876113)
(1.6114544e-06 7.9284258e-07 1.876114)
(2.4330983e-06 7.5344549e-07 1.8761148)
(1.3054697e-06 7.0291909e-07 1.8761152)
(6.522681e-07 6.5226811e-07 1.8761154)
(3.2941089e-08 6.0327647e-07 1.8761154)
(-5.6390686e-07 5.5407274e-07 1.8761153)
(-1.1400225e-06 5.0136523e-07 1.876115)
(-1.6995447e-06 4.4332397e-07 1.8761146)
(-2.2498197e-06 3.8278112e-07 1.876114)
(-1.2618918e-06 3.3576621e-07 1.8761131)
(1.5963433e-06 1.5535754e-07 1.8761141)
(2.3956107e-06 1.2609749e-07 1.8761149)
(1.2587786e-06 8.1803097e-08 1.8761152)
(6.0327643e-07 3.2941115e-08 1.8761154)
(-1.6392243e-08 -1.6392261e-08 1.8761155)
(-6.1412135e-07 -6.5548565e-08 1.8761153)
(-1.1919033e-06 -1.1501913e-07 1.876115)
(-1.7505309e-06 -1.6437845e-07 1.8761146)
(-2.2913854e-06 -2.0889979e-07 1.8761139)
(-1.2787939e-06 -2.3803807e-07 1.8761131)
(1.5821943e-06 -4.3012757e-07 1.876114)
(2.3595438e-06 -4.6379092e-07 1.8761148)
(1.2123133e-06 -5.1221017e-07 1.8761151)
(5.5407274e-07 -5.6390678e-07 1.8761153)
(-6.55486e-08 -6.1412135e-07 1.8761153)
(-6.6253373e-07 -6.6253375e-07 1.8761152)
(-1.2388524e-06 -7.0952226e-07 1.8761149)
(-1.7934254e-06 -7.5440104e-07 1.8761144)
(-2.3234793e-06 -7.9345979e-07 1.8761138)
(-1.2910301e-06 -8.1806695e-07 1.8761129)
(1.5626799e-06 -9.607177e-07 1.8761138)
(2.3135281e-06 -1.0167404e-06 1.8761145)
(1.1586627e-06 -1.0811545e-06 1.8761149)
(5.0136527e-07 -1.1400225e-06 1.876115)
(-1.1501922e-07 -1.1919033e-06 1.876115)
(-7.0952227e-07 -1.2388524e-06 1.8761149)
(-1.2837706e-06 -1.2837706e-06 1.8761146)
(-1.8344685e-06 -1.3279499e-06 1.8761141)
(-2.3550513e-06 -1.3696265e-06 1.8761134)
(-1.3034011e-06 -1.4000848e-06 1.8761126)
(1.5261716e-06 -1.4130889e-06 1.8761134)
(2.239107e-06 -1.5373406e-06 1.8761141)
(1.0890312e-06 -1.6319468e-06 1.8761144)
(4.4332397e-07 -1.6995448e-06 1.8761146)
(-1.6437845e-07 -1.7505309e-06 1.8761146)
(-7.5440108e-07 -1.7934254e-06 1.8761144)
(-1.3279499e-06 -1.8344685e-06 1.8761141)
(-1.8792812e-06 -1.8792813e-06 1.8761136)
(-2.3956142e-06 -1.9320103e-06 1.8761129)
(-1.3214885e-06 -1.9877933e-06 1.876112)
(1.4384282e-06 -1.7173901e-06 1.8761129)
(2.0946702e-06 -2.061807e-06 1.8761135)
(9.9645848e-07 -2.1838276e-06 1.8761138)
(3.8278112e-07 -2.2498197e-06 1.876114)
(-2.0889981e-07 -2.2913854e-06 1.8761139)
(-7.9345983e-07 -2.3234793e-06 1.8761138)
(-1.3696265e-06 -2.3550513e-06 1.8761134)
(-1.9320103e-06 -2.3956142e-06 1.8761129)
(-2.4635633e-06 -2.4635634e-06 1.8761122)
(-1.3591841e-06 -2.6042626e-06 1.8761113)
(1.1817547e-06 -9.0977829e-07 1.8761123)
(1.7726695e-06 -1.1664518e-06 1.8761128)
(9.0101845e-07 -1.231779e-06 1.876113)
(3.3576619e-07 -1.2618919e-06 1.8761131)
(-2.38038e-07 -1.278794e-06 1.8761131)
(-8.1806695e-07 -1.29103e-06 1.8761129)
(-1.4000848e-06 -1.3034011e-06 1.8761126)
(-1.9877933e-06 -1.3214884e-06 1.876112)
(-2.6042626e-06 -1.3591841e-06 1.8761113)
(-1.4621877e-06 -1.4621878e-06 1.8761103)
(2.4291467e-06 2.4291467e-06 1.8760846)
(3.5906126e-06 2.0759087e-06 1.8760855)
(1.843301e-06 2.0005044e-06 1.8760859)
(9.4861332e-07 1.9705473e-06 1.8760861)
(1.4750908e-07 1.9516251e-06 1.8760861)
(-5.9765783e-07 1.9336759e-06 1.8760861)
(-1.2824204e-06 1.9087195e-06 1.8760858)
(-1.87844e-06 1.8617965e-06 1.8760854)
(-2.2985618e-06 1.7486227e-06 1.8760849)
(-1.2241536e-06 1.4166297e-06 1.8760842)
(2.0759088e-06 3.5906126e-06 1.8760855)
(3.1619703e-06 3.1619703e-06 1.8760862)
(1.7379396e-06 3.0361236e-06 1.8760866)
(8.9973405e-07 2.9711906e-06 1.8760868)
(1.1063767e-07 2.924137e-06 1.8760868)
(-6.4056344e-07 2.8783745e-06 1.8760867)
(-1.3542998e-06 2.8195955e-06 1.8760865)
(-2.0385368e-06 2.7241668e-06 1.8760861)
(-2.7437286e-06 2.5384647e-06 1.8760855)
(-1.5561465e-06 2.1236767e-06 1.8760847)
(2.0005044e-06 1.843301e-06 1.8760859)
(3.0361236e-06 1.7379396e-06 1.8760866)
(1.6525213e-06 1.6525214e-06 1.8760869)
(8.3662667e-07 1.5845313e-06 1.8760871)
(5.4692943e-08 1.5256849e-06 1.8760872)
(-7.0219927e-07 1.4666846e-06 1.8760871)
(-1.4366281e-06 1.3982373e-06 1.8760868)
(-2.1595708e-06 1.309205e-06 1.8760863)
(-2.8990519e-06 1.190894e-06 1.8760857)
(-1.6389416e-06 1.069925e-06 1.8760849)
(1.9705473e-06 9.4861335e-07 1.8760861)
(2.9711906e-06 8.9973402e-07 1.8760868)
(1.5845312e-06 8.3662667e-07 1.8760871)
(7.7289762e-07 7.7289767e-07 1.8760873)
(-7.2090077e-09 7.1087936e-07 1.8760873)
(-7.6801109e-07 6.482842e-07 1.8760872)
(-1.5117795e-06 5.8102707e-07 1.8760869)
(-2.2458801e-06 5.0684464e-07 1.8760865)
(-2.9830086e-06 4.2951961e-07 1.8760858)
(-1.6771155e-06 3.6980472e-07 1.876085)
(1.9516251e-06 1.4750904e-07 1.8760861)
(2.9241369e-06 1.1063761e-07 1.8760868)
(1.525685e-06 5.4692926e-08 1.8760872)
(7.1087937e-07 -7.209025e-09 1.8760873)
(-6.9920502e-08 -6.9920476e-08 1.8760874)
(-8.3205158e-07 -1.3259249e-07 1.8760872)
(-1.5780676e-06 -1.958579e-07 1.8760869)
(-2.3110782e-06 -2.5908999e-07 1.8760864)
(-3.0360919e-06 -3.1617983e-07 1.8760858)
(-1.6986565e-06 -3.5348427e-07 1.876085)
(1.9336759e-06 -5.9765785e-07 1.8760861)
(2.8783745e-06 -6.4056341e-07 1.8760867)
(1.4666846e-06 -7.0219925e-07 1.8760871)
(6.4828419e-07 -7.6801111e-07 1.8760872)
(-1.3259246e-07 -8.3205156e-07 1.8760872)
(-8.939485e-07 -8.9394847e-07 1.8760871)
(-1.638277e-06 -9.5424505e-07 1.8760867)
(-2.366202e-06 -1.0120967e-06 1.8760863)
(-3.0774028e-06 -1.0626649e-06 1.8760856)
(-1.71442e-06 -1.094659e-06 1.8760848)
(1.9087195e-06 -1.2824204e-06 1.8760858)
(2.8195955e-06 -1.3542998e-06 1.8760865)
(1.3982373e-06 -1.436628e-06 1.8760868)
(5.8102705e-07 -1.5117795e-06 1.8760869)
(-1.9585786e-07 -1.5780677e-06 1.8760869)
(-9.5424507e-07 -1.638277e-06 1.8760867)
(-1.6962158e-06 -1.6962158e-06 1.8760864)
(-2.419498e-06 -1.7537145e-06 1.8760859)
(-3.1186542e-06 -1.8085813e-06 1.8760852)
(-1.7306506e-06 -1.8491622e-06 1.8760844)
(1.8617965e-06 -1.87844e-06 1.8760854)
(2.7241669e-06 -2.0385369e-06 1.8760861)
(1.309205e-06 -2.1595708e-06 1.8760863)
(5.0684452e-07 -2.2458801e-06 1.8760865)
(-2.5908994e-07 -2.3110782e-06 1.8760864)
(-1.0120966e-06 -2.366202e-06 1.8760863)
(-1.7537145e-06 -2.419498e-06 1.8760859)
(-2.4785675e-06 -2.4785675e-06 1.8760854)
(-3.1728506e-06 -2.5493694e-06 1.8760847)
(-1.7550009e-06 -2.625568e-06 1.8760839)
(1.7486226e-06 -2.2985618e-06 1.8760849)
(2.5384647e-06 -2.7437286e-06 1.8760855)
(1.1908941e-06 -2.899052e-06 1.8760857)
(4.2951964e-07 -2.9830085e-06 1.8760858)
(-3.1617979e-07 -3.0360918e-06 1.8760858)
(-1.0626649e-06 -3.0774029e-06 1.8760856)
(-1.8085813e-06 -3.1186543e-06 1.8760852)
(-2.5493695e-06 -3.1728507e-06 1.8760847)
(-3.2656547e-06 -3.2656547e-06 1.876084)
(-1.8068492e-06 -3.4606775e-06 1.8760831)
(1.4166297e-06 -1.2241536e-06 1.8760842)
(2.1236767e-06 -1.5561465e-06 1.8760847)
(1.069925e-06 -1.6389415e-06 1.8760849)
(3.6980469e-07 -1.6771155e-06 1.876085)
(-3.5348432e-07 -1.6986565e-06 1.876085)
(-1.0946591e-06 -1.71442e-06 1.8760848)
(-1.8491622e-06 -1.7306507e-06 1.8760844)
(-2.625568e-06 -1.7550009e-06 1.8760839)
(-3.4606775e-06 -1.8068492e-06 1.8760831)
(-1.9500237e-06 -1.9500238e-06 1.8760821)
(2.8518615e-06 2.8518614e-06 1.87605)
(4.2060015e-06 2.4354741e-06 1.8760508)
(2.1412926e-06 2.3469817e-06 1.8760512)
(1.0793e-06 2.3116361e-06 1.8760514)
(1.1995321e-07 2.2890669e-06 1.8760514)
(-7.8003021e-07 2.267448e-06 1.8760513)
(-1.6146475e-06 2.237201e-06 1.8760511)
(-2.3497401e-06 2.1801272e-06 1.8760507)
(-2.8794682e-06 2.0421772e-06 1.8760501)
(-1.5365396e-06 1.636875e-06 1.8760495)
(2.4354741e-06 4.2060015e-06 1.8760508)
(3.7011218e-06 3.7011218e-06 1.8760515)
(2.0174547e-06 3.5532574e-06 1.8760519)
(1.0213853e-06 3.4764487e-06 1.8760521)
(7.5765037e-08 3.420241e-06 1.8760521)
(-8.3189606e-07 3.3651178e-06 1.876052)
(-1.7019683e-06 3.2939347e-06 1.8760517)
(-2.544764e-06 3.1780443e-06 1.8760513)
(-3.4227204e-06 2.9521554e-06 1.8760507)
(-1.9418418e-06 2.4471046e-06 1.8760499)
(2.3469817e-06 2.1412927e-06 1.8760512)
(3.5532574e-06 2.0174548e-06 1.8760519)
(1.9166195e-06 1.9166195e-06 1.8760522)
(9.4628355e-07 1.835775e-06 1.8760524)
(8.622339e-09 1.76527e-06 1.8760524)
(-9.063365e-07 1.6941567e-06 1.8760523)
(-1.801721e-06 1.6113353e-06 1.876052)
(-2.6915194e-06 1.5034154e-06 1.8760515)
(-3.6104079e-06 1.3600575e-06 1.8760509)
(-2.0415903e-06 1.2143112e-06 1.8760501)
(2.3116362e-06 1.0793e-06 1.8760514)
(3.4764486e-06 1.0213853e-06 1.8760521)
(1.835775e-06 9.4628355e-07 1.8760524)
(8.700358e-07 8.7003576e-07 1.8760525)
(-6.5853278e-08 7.9548009e-07 1.8760526)
(-9.8583084e-07 7.199104e-07 1.8760524)
(-1.8927096e-06 6.3850774e-07 1.8760521)
(-2.7960417e-06 5.4859539e-07 1.8760517)
(-3.7118246e-06 4.5492263e-07 1.876051)
(-2.0875882e-06 3.8286884e-07 1.8760502)
(2.289067e-06 1.1995325e-07 1.8760514)
(3.420241e-06 7.5765019e-08 1.8760521)
(1.76527e-06 8.622391e-09 1.8760524)
(7.9548009e-07 -6.585333e-08 1.8760526)
(-1.4150297e-07 -1.4150299e-07 1.8760526)
(-1.0633089e-06 -2.1731112e-07 1.8760524)
(-1.973036e-06 -2.9403287e-07 1.8760521)
(-2.8751045e-06 -3.7082887e-07 1.8760516)
(-3.7761344e-06 -4.4021611e-07 1.876051)
(-2.1136441e-06 -4.854963e-07 1.8760501)
(2.267448e-06 -7.8003022e-07 1.8760513)
(3.3651178e-06 -8.3189611e-07 1.876052)
(1.6941567e-06 -9.0633655e-07 1.8760523)
(7.1991042e-07 -9.8583083e-07 1.8760524)
(-2.173111e-07 -1.0633089e-06 1.8760524)
(-1.1383607e-06 -1.1383607e-06 1.8760522)
(-2.0462273e-06 -1.2116975e-06 1.8760519)
(-2.942225e-06 -1.2823086e-06 1.8760514)
(-3.826492e-06 -1.3442224e-06 1.8760508)
(-2.1328684e-06 -1.3834966e-06 1.8760499)
(2.2372011e-06 -1.6146475e-06 1.8760511)
(3.2939346e-06 -1.7019684e-06 1.8760517)
(1.6113353e-06 -1.8017209e-06 1.876052)
(6.3850774e-07 -1.8927095e-06 1.8760521)
(-2.940328e-07 -1.973036e-06 1.8760521)
(-1.2116975e-06 -2.0462273e-06 1.8760519)
(-2.1169839e-06 -2.1169839e-06 1.8760516)
(-3.0076295e-06 -2.1876618e-06 1.8760511)
(-3.8773224e-06 -2.2556103e-06 1.8760504)
(-2.1529183e-06 -2.306212e-06 1.8760496)
(2.1801272e-06 -2.3497401e-06 1.8760507)
(3.1780443e-06 -2.544764e-06 1.8760513)
(1.5034155e-06 -2.6915194e-06 1.8760515)
(5.4859542e-07 -2.7960417e-06 1.8760517)
(-3.7082887e-07 -2.8751045e-06 1.8760516)
(-1.2823086e-06 -2.942225e-06 1.8760514)
(-2.1876618e-06 -3.0076294e-06 1.8760511)
(-3.0808514e-06 -3.0808514e-06 1.8760505)
(-3.9450423e-06 -3.1695773e-06 1.8760499)
(-2.1834701e-06 -3.2658868e-06 1.876049)
(2.0421772e-06 -2.8794682e-06 1.8760501)
(2.9521553e-06 -3.4227203e-06 1.8760507)
(1.3600576e-06 -3.6104079e-06 1.8760509)
(4.5492271e-07 -3.7118246e-06 1.876051)
(-4.4021616e-07 -3.7761345e-06 1.876051)
(-1.3442224e-06 -3.8264921e-06 1.8760508)
(-2.2556103e-06 -3.8773225e-06 1.8760504)
(-3.1695773e-06 -3.9450424e-06 1.8760499)
(-4.0623579e-06 -4.0623579e-06 1.8760492)
(-2.2492278e-06 -4.3104861e-06 1.8760483)
(1.636875e-06 -1.5365396e-06 1.8760495)
(2.4471046e-06 -1.9418418e-06 1.8760499)
(1.2143112e-06 -2.0415903e-06 1.8760501)
(3.8286884e-07 -2.0875882e-06 1.8760502)
(-4.8549631e-07 -2.1136441e-06 1.8760501)
(-1.3834966e-06 -2.1328683e-06 1.8760499)
(-2.3062121e-06 -2.1529183e-06 1.8760496)
(-3.2658868e-06 -2.1834702e-06 1.876049)
(-4.3104861e-06 -2.2492278e-06 1.8760483)
(-2.4315984e-06 -2.4315984e-06 1.8760473)
(3.2533887e-06 3.2533887e-06 1.8760089)
(4.7859006e-06 2.7764658e-06 1.8760097)
(2.413075e-06 2.675481e-06 1.87601)
(1.1888633e-06 2.6350074e-06 1.8760102)
(7.6801239e-08 2.6089561e-06 1.8760102)
(-9.7229577e-07 2.5838055e-06 1.8760101)
(-1.9509514e-06 2.5484545e-06 1.8760099)
(-2.8189286e-06 2.4815724e-06 1.8760094)
(-3.4515785e-06 2.3196834e-06 1.8760089)
(-1.8428045e-06 1.8435651e-06 1.8760083)
(2.7764658e-06 4.7859006e-06 1.8760097)
(4.2079929e-06 4.2079929e-06 1.8760104)
(2.2716166e-06 4.0391447e-06 1.8760107)
(1.1223384e-06 3.9510327e-06 1.8760108)
(2.5599418e-08 3.8860837e-06 1.8760109)
(-1.0327973e-06 3.8219657e-06 1.8760107)
(-2.0531846e-06 3.7388174e-06 1.8760105)
(-3.0476997e-06 3.6031648e-06 1.87601)
(-4.0895857e-06 3.3384588e-06 1.8760095)
(-2.3189228e-06 2.7462535e-06 1.8760087)
(2.675481e-06 2.413075e-06 1.87601)
(4.0391447e-06 2.2716166e-06 1.8760107)
(2.1561148e-06 2.1561148e-06 1.876011)
(1.0358022e-06 2.0630279e-06 1.8760111)
(-5.2265779e-08 1.9813702e-06 1.8760111)
(-1.119562e-06 1.8986205e-06 1.876011)
(-2.1697523e-06 1.8019345e-06 1.8760107)
(-3.2192872e-06 1.6757771e-06 1.8760103)
(-4.3084898e-06 1.5082373e-06 1.8760097)
(-2.4350097e-06 1.3386111e-06 1.8760089)
(2.6350074e-06 1.1888633e-06 1.8760102)
(3.9510327e-06 1.1223384e-06 1.8760108)
(2.0630278e-06 1.0358022e-06 1.8760111)
(9.4759383e-07 9.4759381e-07 1.8760113)
(-1.3880799e-07 8.6101482e-07 1.8760113)
(-1.2122331e-06 7.7295762e-07 1.8760111)
(-2.2760279e-06 6.7789994e-07 1.8760108)
(-3.3413968e-06 5.7278453e-07 1.8760104)
(-4.4267517e-06 4.6331505e-07 1.8760097)
(-2.488549e-06 3.7935804e-07 1.876009)
(2.6089561e-06 7.6801256e-08 1.8760102)
(3.8860837e-06 2.5599384e-08 1.8760109)
(1.9813702e-06 -5.2265726e-08 1.8760111)
(8.6101481e-07 -1.3880796e-07 1.8760113)
(-2.2690197e-07 -2.2690188e-07 1.8760113)
(-1.3026769e-06 -3.1538256e-07 1.8760111)
(-2.3699254e-06 -4.0512156e-07 1.8760108)
(-3.4338721e-06 -4.9505823e-07 1.8760103)
(-4.5019163e-06 -5.7636194e-07 1.8760097)
(-2.5189668e-06 -6.2936061e-07 1.8760089)
(2.5838056e-06 -9.7229573e-07 1.8760101)
(3.8219657e-06 -1.0327974e-06 1.8760107)
(1.8986205e-06 -1.119562e-06 1.876011)
(7.7295764e-07 -1.2122331e-06 1.8760111)
(-3.153826e-07 -1.3026769e-06 1.8760111)
(-1.3904527e-06 -1.3904527e-06 1.8760109)
(-2.4557036e-06 -1.4764411e-06 1.8760106)
(-3.5126372e-06 -1.5594578e-06 1.8760101)
(-4.5610541e-06 -1.6324125e-06 1.8760095)
(-2.5415477e-06 -1.6787668e-06 1.8760087)
(2.5484545e-06 -1.9509514e-06 1.8760099)
(3.7388174e-06 -2.0531846e-06 1.8760105)
(1.8019345e-06 -2.1697523e-06 1.8760107)
(6.7789996e-07 -2.2760279e-06 1.8760108)
(-4.0512158e-07 -2.3699254e-06 1.8760108)
(-1.4764412e-06 -2.4557036e-06 1.8760106)
(-2.5389305e-06 -2.5389305e-06 1.8760102)
(-3.5898434e-06 -2.622467e-06 1.8760097)
(-4.6212253e-06 -2.7031855e-06 1.8760091)
(-2.565321e-06 -2.7635591e-06 1.8760083)
(2.4815724e-06 -2.8189286e-06 1.8760094)
(3.6031648e-06 -3.0476996e-06 1.87601)
(1.6757771e-06 -3.2192872e-06 1.8760103)
(5.7278456e-07 -3.3413968e-06 1.8760104)
(-4.9505823e-07 -3.433872e-06 1.8760103)
(-1.5594578e-06 -3.5126372e-06 1.8760101)
(-2.622467e-06 -3.5898434e-06 1.8760097)
(-3.6768923e-06 -3.6768922e-06 1.8760092)
(-4.7021462e-06 -3.7831135e-06 1.8760086)
(-2.6019212e-06 -3.8990012e-06 1.8760077)
(2.3196835e-06 -3.4515784e-06 1.8760089)
(3.3384587e-06 -4.0895857e-06 1.8760095)
(1.5082374e-06 -4.3084898e-06 1.8760097)
(4.6331512e-07 -4.4267517e-06 1.8760097)
(-5.76362e-07 -4.5019163e-06 1.8760097)
(-1.6324125e-06 -4.5610541e-06 1.8760095)
(-2.7031855e-06 -4.6212252e-06 1.8760091)
(-3.7831136e-06 -4.7021462e-06 1.8760086)
(-4.8433343e-06 -4.8433343e-06 1.8760079)
(-2.6812087e-06 -5.1430482e-06 1.876007)
(1.8435651e-06 -1.8428045e-06 1.8760083)
(2.7462535e-06 -2.3189228e-06 1.8760087)
(1.3386111e-06 -2.4350098e-06 1.8760089)
(3.7935804e-07 -2.4885491e-06 1.876009)
(-6.2936061e-07 -2.5189668e-06 1.8760089)
(-1.6787667e-06 -2.5415477e-06 1.8760087)
(-2.7635591e-06 -2.565321e-06 1.8760083)
(-3.8990013e-06 -2.6019213e-06 1.8760077)
(-5.1430482e-06 -2.6812087e-06 1.876007)
(-2.9016351e-06 -2.9016351e-06 1.8760061)
(3.6325613e-06 3.6325613e-06 1.8759616)
(5.3299376e-06 3.0980538e-06 1.8759623)
(2.6607913e-06 2.9852177e-06 1.8759626)
(1.2803279e-06 2.9398814e-06 1.8759628)
(2.1780338e-08 2.9105207e-06 1.8759628)
(-1.1698818e-06 2.881998e-06 1.8759627)
(-2.2857657e-06 2.8417602e-06 1.8759624)
(-3.2796136e-06 2.7654784e-06 1.875962)
(-4.0085015e-06 2.5806452e-06 1.8759615)
(-2.1399044e-06 2.0366449e-06 1.8759609)
(3.0980539e-06 5.3299376e-06 1.8759623)
(4.682594e-06 4.682594e-06 1.8759629)
(2.5026189e-06 4.4938552e-06 1.8759632)
(1.205631e-06 4.3950235e-06 1.8759634)