/*--------------------------------*- C++ -*----------------------------------*\
| =========                 |                                                 |
| \\      /  F ield         | OpenFOAM: The Open Source CFD Toolbox           |
|  \\    /   O peration     | Version:  v2106                                 |
|   \\  /    A nd           | Website:  www.openfoam.com                      |
|    \\/     M anipulation  |                                                 |
\*---------------------------------------------------------------------------*/
FoamFile
{
    version     2.0;
    format      ascii;
    arch        "LSB;label=32;scalar=64";
    class       volScalarField;
    location    "50";
    object      gradTz;
}
// * * * * * * * * * * * * * * * * * * * * * * * * * * * * * * * * * * * * * //

dimensions      [0 -1 0 1 0 0 0];

internalField   nonuniform List<scalar> 
4000
(
749.30794
749.30712
749.30674
749.30652
749.30642
749.30644
749.30655
749.30674
749.30698
749.30722
749.30712
749.30641
749.30606
749.30585
749.30576
749.30578
749.30589
749.30609
749.30636
749.30668
749.30674
749.30606
749.30572
749.30552
749.30544
749.30546
749.30559
749.3058
749.30609
749.30643
749.30652
749.30585
749.30552
749.30533
749.30526
749.30529
749.30543
749.30565
749.30596
749.30631
749.30642
749.30576
749.30544
749.30526
749.30519
749.30524
749.30538
749.30562
749.30593
749.30628
749.30644
749.30578
749.30546
749.30529
749.30524
749.30529
749.30544
749.30568
749.306
749.30636
749.30655
749.30589
749.30559
749.30543
749.30538
749.30544
749.3056
749.30585
749.30617
749.30654
749.30674
749.30609
749.3058
749.30565
749.30562
749.30568
749.30585
749.30611
749.30644
749.30681
749.30698
749.30636
749.30609
749.30596
749.30593
749.306
749.30617
749.30644
749.30678
749.30715
749.30722
749.30668
749.30643
749.30631
749.30628
749.30636
749.30654
749.30681
749.30715
749.30755
749.31186
749.31117
749.31083
749.31063
749.31055
749.31057
749.31069
749.31089
749.31117
749.31147
749.31117
749.31058
749.31027
749.31008
749.31
749.31003
749.31015
749.31037
749.31067
749.31107
749.31083
749.31027
749.30997
749.30979
749.30972
749.30975
749.30989
749.31012
749.31044
749.31086
749.31063
749.31008
749.30979
749.30962
749.30956
749.3096
749.30974
749.30998
749.31032
749.31075
749.31055
749.31
749.30972
749.30956
749.3095
749.30955
749.30971
749.30995
749.3103
749.31073
749.31057
749.31003
749.30975
749.3096
749.30955
749.30961
749.30977
749.31003
749.31038
749.31082
749.31069
749.31015
749.30989
749.30974
749.30971
749.30977
749.30994
749.31021
749.31056
749.31101
749.31089
749.31037
749.31012
749.30998
749.30995
749.31003
749.31021
749.31048
749.31084
749.31129
749.31117
749.31067
749.31044
749.31032
749.3103
749.31038
749.31056
749.31084
749.31121
749.31168
749.31147
749.31107
749.31086
749.31075
749.31073
749.31082
749.31101
749.31129
749.31168
749.31218
749.32001
749.31942
749.31913
749.31896
749.31889
749.31892
749.31905
749.31927
749.31957
749.31993
749.31942
749.31892
749.31865
749.31848
749.31842
749.31845
749.31859
749.31882
749.31916
749.31961
749.31913
749.31865
749.31838
749.31823
749.31817
749.31822
749.31836
749.31861
749.31896
749.31943
749.31896
749.31848
749.31823
749.31808
749.31803
749.31808
749.31824
749.3185
749.31886
749.31934
749.31889
749.31842
749.31817
749.31803
749.31799
749.31805
749.31822
749.31848
749.31885
749.31934
749.31892
749.31845
749.31822
749.31808
749.31805
749.31812
749.3183
749.31857
749.31895
749.31944
749.31905
749.31859
749.31836
749.31824
749.31822
749.3183
749.31848
749.31876
749.31914
749.31964
749.31927
749.31882
749.31861
749.3185
749.31848
749.31857
749.31876
749.31905
749.31944
749.31995
749.31957
749.31916
749.31896
749.31886
749.31885
749.31895
749.31914
749.31944
749.31984
749.32037
749.31993
749.31961
749.31943
749.31934
749.31934
749.31944
749.31964
749.31995
749.32037
749.32094
749.33254
749.33199
749.33173
749.33157
749.33152
749.33157
749.33171
749.33195
749.33226
749.33263
749.33199
749.33152
749.33128
749.33113
749.33108
749.33114
749.33128
749.33153
749.33188
749.33234
749.33173
749.33128
749.33104
749.3309
749.33086
749.33092
749.33108
749.33134
749.33171
749.33219
749.33157
749.33113
749.3309
749.33078
749.33074
749.33081
749.33098
749.33125
749.33162
749.33212
749.33152
749.33108
749.33086
749.33074
749.33072
749.33079
749.33097
749.33125
749.33163
749.33214
749.33157
749.33114
749.33092
749.33081
749.33079
749.33088
749.33106
749.33135
749.33174
749.33225
749.33171
749.33128
749.33108
749.33098
749.33097
749.33106
749.33125
749.33155
749.33195
749.33246
749.33195
749.33153
749.33134
749.33125
749.33125
749.33135
749.33155
749.33185
749.33226
749.33277
749.33226
749.33188
749.33171
749.33162
749.33163
749.33174
749.33195
749.33226
749.33268
749.33321
749.33263
749.33234
749.33219
749.33212
749.33214
749.33225
749.33246
749.33277
749.33321
749.3338
749.34924
749.34872
749.34848
749.34835
749.34831
749.34837
749.34852
749.34876
749.34908
749.34946
749.34872
749.34828
749.34805
749.34793
749.34789
749.34796
749.34811
749.34837
749.34872
749.34918
749.34848
749.34805
749.34784
749.34772
749.34769
749.34776
749.34793
749.3482
749.34857
749.34905
749.34835
749.34793
749.34772
749.34761
749.34759
749.34767
749.34784
749.34812
749.3485
749.349
749.34831
749.34789
749.34769
749.34759
749.34758
749.34766
749.34785
749.34813
749.34852
749.34902
749.34837
749.34796
749.34776
749.34767
749.34766
749.34776
749.34795
749.34824
749.34864
749.34914
749.34852
749.34811
749.34793
749.34784
749.34785
749.34795
749.34815
749.34845
749.34885
749.34936
749.34876
749.34837
749.3482
749.34812
749.34813
749.34824
749.34845
749.34876
749.34917
749.34969
749.34908
749.34872
749.34857
749.3485
749.34852
749.34864
749.34885
749.34917
749.3496
749.35013
749.34946
749.34918
749.34905
749.349
749.34902
749.34914
749.34936
749.34969
749.35013
749.35071
749.36999
749.3695
749.36927
749.36916
749.36913
749.3692
749.36936
749.3696
749.36992
749.37029
749.3695
749.36908
749.36887
749.36876
749.36874
749.36881
749.36897
749.36923
749.36958
749.37003
749.36927
749.36887
749.36867
749.36857
749.36855
749.36863
749.3688
749.36907
749.36944
749.36992
749.36916
749.36876
749.36857
749.36847
749.36846
749.36855
749.36873
749.36901
749.36939
749.36987
749.36913
749.36874
749.36855
749.36846
749.36846
749.36856
749.36875
749.36903
749.36942
749.36991
749.3692
749.36881
749.36863
749.36855
749.36856
749.36866
749.36885
749.36915
749.36954
749.37004
749.36936
749.36897
749.3688
749.36873
749.36875
749.36885
749.36906
749.36936
749.36976
749.37026
749.3696
749.36923
749.36907
749.36901
749.36903
749.36915
749.36936
749.36967
749.37008
749.37059
749.36992
749.36958
749.36944
749.36939
749.36942
749.36954
749.36976
749.37008
749.3705
749.37103
749.37029
749.37003
749.36992
749.36987
749.36991
749.37004
749.37026
749.37059
749.37103
749.3716
749.39465
749.39418
749.39397
749.39387
749.39385
749.39393
749.39409
749.39433
749.39465
749.39501
749.39418
749.39378
749.39359
749.39349
749.39348
749.39356
749.39372
749.39398
749.39432
749.39477
749.39397
749.39359
749.39341
749.39332
749.39331
749.3934
749.39357
749.39384
749.3942
749.39466
749.39387
749.39349
749.39332
749.39323
749.39323
749.39333
749.39351
749.39378
749.39416
749.39463
749.39385
749.39348
749.39331
749.39323
749.39324
749.39334
749.39353
749.39382
749.3942
749.39467
749.39393
749.39356
749.3934
749.39333
749.39334
749.39345
749.39365
749.39394
749.39432
749.39481
749.39409
749.39372
749.39357
749.39351
749.39353
749.39365
749.39385
749.39415
749.39454
749.39503
749.39433
749.39398
749.39384
749.39378
749.39382
749.39394
749.39415
749.39446
749.39486
749.39535
749.39465
749.39432
749.3942
749.39416
749.3942
749.39432
749.39454
749.39486
749.39527
749.39578
749.39501
749.39477
749.39466
749.39463
749.39467
749.39481
749.39503
749.39535
749.39578
749.39633
749.42305
749.42261
749.42242
749.42233
749.42232
749.4224
749.42256
749.4228
749.4231
749.42345
749.42261
749.42224
749.42206
749.42197
749.42197
749.42205
749.42222
749.42247
749.4228
749.42323
749.42242
749.42206
749.4219
749.42181
749.42182
749.42191
749.42208
749.42234
749.42269
749.42314
749.42233
749.42197
749.42181
749.42174
749.42175
749.42184
749.42203
749.4223
749.42266
749.42311
749.42232
749.42197
749.42182
749.42175
749.42177
749.42187
749.42206
749.42233
749.4227
749.42316
749.4224
749.42205
749.42191
749.42184
749.42187
749.42198
749.42217
749.42246
749.42283
749.4233
749.42256
749.42222
749.42208
749.42203
749.42206
749.42217
749.42238
749.42267
749.42305
749.42352
749.4228
749.42247
749.42234
749.4223
749.42233
749.42246
749.42267
749.42297
749.42335
749.42383
749.4231
749.4228
749.42269
749.42266
749.4227
749.42283
749.42305
749.42335
749.42375
749.42424
749.42345
749.42323
749.42314
749.42311
749.42316
749.4233
749.42352
749.42383
749.42424
749.42478
749.45502
749.45461
749.45444
749.45436
749.45436
749.45444
749.4546
749.45483
749.45512
749.45545
749.45461
749.45427
749.45411
749.45403
749.45403
749.45412
749.45428
749.45452
749.45484
749.45525
749.45444
749.45411
749.45395
749.45388
749.45389
749.45398
749.45415
749.4544
749.45474
749.45517
749.45436
749.45403
749.45388
749.45382
749.45383
749.45393
749.45411
749.45437
749.45471
749.45515
749.45436
749.45403
749.45389
749.45383
749.45386
749.45396
749.45414
749.45441
749.45476
749.4552
749.45444
749.45412
749.45398
749.45393
749.45396
749.45407
749.45426
749.45453
749.45489
749.45533
749.4546
749.45428
749.45415
749.45411
749.45414
749.45426
749.45446
749.45474
749.4551
749.45555
749.45483
749.45452
749.4544
749.45437
749.45441
749.45453
749.45474
749.45503
749.4554
749.45585
749.45512
749.45484
749.45474
749.45471
749.45476
749.45489
749.4551
749.4554
749.45578
749.45625
749.45545
749.45525
749.45517
749.45515
749.4552
749.45533
749.45555
749.45585
749.45625
749.45676
749.49036
749.48999
749.48983
749.48976
749.48976
749.48984
749.49
749.49022
749.4905
749.49081
749.48999
749.48967
749.48952
749.48945
749.48946
749.48955
749.4897
749.48993
749.49024
749.49063
749.48983
749.48952
749.48938
749.48932
749.48934
749.48943
749.48959
749.48983
749.49015
749.49055
749.48976
749.48945
749.48932
749.48927
749.48929
749.48938
749.48955
749.4898
749.49013
749.49054
749.48976
749.48946
749.48934
749.48929
749.48931
749.48941
749.48959
749.48985
749.49018
749.4906
749.48984
749.48955
749.48943
749.48938
749.48941
749.48952
749.48971
749.48997
749.49031
749.49073
749.49
749.4897
749.48959
749.48955
749.48959
749.48971
749.4899
749.49017
749.49051
749.49093
749.49022
749.48993
749.48983
749.4898
749.48985
749.48997
749.49017
749.49044
749.49079
749.49122
749.4905
749.49024
749.49015
749.49013
749.49018
749.49031
749.49051
749.49079
749.49116
749.4916
749.49081
749.49063
749.49055
749.49054
749.4906
749.49073
749.49093
749.49122
749.4916
749.49208
749.52885
749.52851
749.52837
749.52831
749.52832
749.5284
749.52854
749.52875
749.52901
749.52931
749.52851
749.52822
749.52809
749.52803
749.52804
749.52813
749.52828
749.5285
749.52878
749.52914
749.52837
749.52809
749.52796
749.52791
749.52793
749.52802
749.52818
749.5284
749.5287
749.52908
749.52831
749.52803
749.52791
749.52787
749.52789
749.52798
749.52815
749.52838
749.52869
749.52907
749.52832
749.52804
749.52793
749.52789
749.52792
749.52802
749.52819
749.52843
749.52874
749.52913
749.5284
749.52813
749.52802
749.52798
749.52802
749.52812
749.5283
749.52855
749.52887
749.52926
749.52854
749.52828
749.52818
749.52815
749.52819
749.5283
749.52848
749.52873
749.52906
749.52945
749.52875
749.5285
749.5284
749.52838
749.52843
749.52855
749.52873
749.52899
749.52932
749.52972
749.52901
749.52878
749.5287
749.52869
749.52874
749.52887
749.52906
749.52932
749.52966
749.53008
749.52931
749.52914
749.52908
749.52907
749.52913
749.52926
749.52945
749.52972
749.53008
749.53053
749.57025
749.56994
749.56982
749.56977
749.56978
749.56986
749.57
749.57019
749.57044
749.57071
749.56994
749.56968
749.56957
749.56952
749.56954
749.56962
749.56976
749.56996
749.57023
749.57056
749.56982
749.56957
749.56946
749.56942
749.56944
749.56952
749.56967
749.56988
749.57016
749.57051
749.56977
749.56952
749.56942
749.56938
749.56941
749.5695
749.56965
749.56987
749.57015
749.57051
749.56978
749.56954
749.56944
749.56941
749.56944
749.56953
749.56969
749.56992
749.57021
749.57057
749.56986
749.56962
749.56952
749.5695
749.56953
749.56963
749.5698
749.57003
749.57032
749.57068
749.57
749.56976
749.56967
749.56965
749.56969
749.5698
749.56997
749.5702
749.5705
749.57087
749.57019
749.56996
749.56988
749.56987
749.56992
749.57003
749.5702
749.57045
749.57075
749.57112
749.57044
749.57023
749.57016
749.57015
749.57021
749.57032
749.5705
749.57075
749.57107
749.57145
749.57071
749.57056
749.57051
749.57051
749.57057
749.57068
749.57087
749.57112
749.57145
749.57186
749.6143
749.61403
749.61392
749.61388
749.6139
749.61397
749.6141
749.61428
749.61451
749.61476
749.61403
749.6138
749.6137
749.61366
749.61368
749.61376
749.6139
749.61408
749.61432
749.61463
749.61392
749.6137
749.61361
749.61358
749.6136
749.61368
749.61382
749.61402
749.61427
749.61459
749.61388
749.61366
749.61358
749.61355
749.61358
749.61366
749.61381
749.61401
749.61427
749.61459
749.6139
749.61368
749.6136
749.61358
749.61361
749.6137
749.61385
749.61406
749.61432
749.61465
749.61397
749.61376
749.61368
749.61366
749.6137
749.6138
749.61395
749.61416
749.61443
749.61476
749.6141
749.6139
749.61382
749.61381
749.61385
749.61395
749.61411
749.61432
749.6146
749.61493
749.61428
749.61408
749.61402
749.61401
749.61406
749.61416
749.61432
749.61454
749.61482
749.61516
749.61451
749.61432
749.61427
749.61427
749.61432
749.61443
749.6146
749.61482
749.61511
749.61546
749.61476
749.61463
749.61459
749.61459
749.61465
749.61476
749.61493
749.61516
749.61546
749.61583
749.66073
749.6605
749.66041
749.66038
749.6604
749.66047
749.66059
749.66075
749.66095
749.66118
749.6605
749.6603
749.66022
749.66019
749.66022
749.66029
749.66041
749.66058
749.6608
749.66107
749.66041
749.66022
749.66015
749.66012
749.66015
749.66022
749.66035
749.66053
749.66076
749.66104
749.66038
749.66019
749.66012
749.6601
749.66013
749.66021
749.66034
749.66053
749.66076
749.66105
749.6604
749.66022
749.66015
749.66013
749.66017
749.66025
749.66039
749.66057
749.66081
749.6611
749.66047
749.66029
749.66022
749.66021
749.66025
749.66034
749.66048
749.66067
749.66091
749.66121
749.66059
749.66041
749.66035
749.66034
749.66039
749.66048
749.66062
749.66082
749.66106
749.66136
749.66075
749.66058
749.66053
749.66053
749.66057
749.66067
749.66082
749.66102
749.66127
749.66157
749.66095
749.6608
749.66076
749.66076
749.66081
749.66091
749.66106
749.66127
749.66153
749.66184
749.66118
749.66107
749.66104
749.66105
749.6611
749.66121
749.66136
749.66157
749.66184
749.66217
749.70925
749.70906
749.70899
749.70897
749.70899
749.70906
749.70917
749.70931
749.70949
749.70969
749.70906
749.7089
749.70884
749.70882
749.70884
749.70891
749.70902
749.70917
749.70937
749.7096
749.70899
749.70884
749.70878
749.70876
749.70879
749.70886
749.70898
749.70913
749.70933
749.70958
749.70897
749.70882
749.70876
749.70875
749.70878
749.70886
749.70898
749.70914
749.70934
749.70959
749.70899
749.70884
749.70879
749.70878
749.70882
749.7089
749.70902
749.70918
749.70939
749.70965
749.70906
749.70891
749.70886
749.70886
749.7089
749.70898
749.7091
749.70927
749.70948
749.70974
749.70917
749.70902
749.70898
749.70898
749.70902
749.7091
749.70923
749.7094
749.70962
749.70988
749.70931
749.70917
749.70913
749.70914
749.70918
749.70927
749.7094
749.70958
749.7098
749.71006
749.70949
749.70937
749.70933
749.70934
749.70939
749.70948
749.70962
749.7098
749.71003
749.7103
749.70969
749.7096
749.70958
749.70959
749.70965
749.70974
749.70988
749.71006
749.7103
749.71059
749.75957
749.75942
749.75937
749.75936
749.75938
749.75945
749.75954
749.75967
749.75982
749.75999
749.75942
749.75929
749.75925
749.75924
749.75927
749.75933
749.75943
749.75956
749.75972
749.75993
749.75937
749.75925
749.75921
749.7592
749.75923
749.75929
749.7594
749.75953
749.7597
749.75991
749.75936
749.75924
749.7592
749.7592
749.75923
749.7593
749.7594
749.75954
749.75972
749.75993
749.75938
749.75927
749.75923
749.75923
749.75926
749.75933
749.75944
749.75958
749.75976
749.75998
749.75945
749.75933
749.75929
749.7593
749.75933
749.75941
749.75952
749.75966
749.75985
749.76006
749.75954
749.75943
749.7594
749.7594
749.75944
749.75952
749.75963
749.75978
749.75997
749.76019
749.75967
749.75956
749.75953
749.75954
749.75958
749.75966
749.75978
749.75993
749.76012
749.76034
749.75982
749.75972
749.7597
749.75972
749.75976
749.75985
749.75997
749.76012
749.76032
749.76055
749.75999
749.75993
749.75991
749.75993
749.75998
749.76006
749.76019
749.76034
749.76055
749.7608
749.81137
749.81126
749.81123
749.81123
749.81126
749.81131
749.8114
749.8115
749.81163
749.81177
749.81126
749.81117
749.81114
749.81115
749.81117
749.81123
749.81132
749.81143
749.81156
749.81173
749.81123
749.81114
749.81112
749.81112
749.81115
749.81121
749.8113
749.81141
749.81155
749.81173
749.81123
749.81115
749.81112
749.81113
749.81116
749.81122
749.81131
749.81143
749.81157
749.81175
749.81126
749.81117
749.81115
749.81116
749.81119
749.81126
749.81135
749.81147
749.81162
749.81179
749.81131
749.81123
749.81121
749.81122
749.81126
749.81132
749.81142
749.81154
749.81169
749.81187
749.8114
749.81132
749.8113
749.81131
749.81135
749.81142
749.81151
749.81164
749.81179
749.81197
749.8115
749.81143
749.81141
749.81143
749.81147
749.81154
749.81164
749.81176
749.81192
749.8121
749.81163
749.81156
749.81155
749.81157
749.81162
749.81169
749.81179
749.81192
749.81208
749.81227
749.81177
749.81173
749.81173
749.81175
749.81179
749.81187
749.81197
749.8121
749.81227
749.81247
749.86434
749.86427
749.86426
749.86427
749.8643
749.86435
749.86441
749.8645
749.8646
749.86471
749.86427
749.86422
749.86421
749.86422
749.86425
749.8643
749.86437
749.86446
749.86456
749.86469
749.86426
749.86421
749.8642
749.86421
749.86424
749.86429
749.86436
749.86445
749.86457
749.8647
749.86427
749.86422
749.86421
749.86422
749.86426
749.86431
749.86438
749.86447
749.86459
749.86472
749.8643
749.86425
749.86424
749.86426
749.86429
749.86434
749.86442
749.86451
749.86463
749.86477
749.86435
749.8643
749.86429
749.86431
749.86434
749.8644
749.86448
749.86457
749.86469
749.86483
749.86441
749.86437
749.86436
749.86438
749.86442
749.86448
749.86456
749.86466
749.86477
749.86491
749.8645
749.86446
749.86445
749.86447
749.86451
749.86457
749.86466
749.86476
749.86488
749.86502
749.8646
749.86456
749.86457
749.86459
749.86463
749.86469
749.86477
749.86488
749.865
749.86515
749.86471
749.86469
749.8647
749.86472
749.86477
749.86483
749.86491
749.86502
749.86515
749.86531
749.91814
749.91812
749.91812
749.91814
749.91817
749.91821
749.91827
749.91833
749.91841
749.91848
749.91812
749.9181
749.91811
749.91813
749.91816
749.9182
749.91826
749.91832
749.9184
749.91849
749.91812
749.91811
749.91811
749.91813
749.91817
749.91821
749.91827
749.91833
749.91841
749.91851
749.91814
749.91813
749.91813
749.91815
749.91819
749.91823
749.91829
749.91836
749.91844
749.91853
749.91817
749.91816
749.91817
749.91819
749.91822
749.91827
749.91833
749.9184
749.91848
749.91857
749.91821
749.9182
749.91821
749.91823
749.91827
749.91831
749.91837
749.91845
749.91853
749.91862
749.91827
749.91826
749.91827
749.91829
749.91833
749.91837
749.91843
749.91851
749.91859
749.91869
749.91833
749.91832
749.91833
749.91836
749.9184
749.91845
749.91851
749.91858
749.91867
749.91876
749.91841
749.9184
749.91841
749.91844
749.91848
749.91853
749.91859
749.91867
749.91876
749.91886
749.91848
749.91849
749.91851
749.91853
749.91857
749.91862
749.91869
749.91876
749.91886
749.91897
749.97244
749.97247
749.97249
749.97252
749.97255
749.97259
749.97263
749.97267
749.97272
749.97276
749.97247
749.97249
749.97251
749.97254
749.97257
749.97261
749.97265
749.97269
749.97274
749.97279
749.97249
749.97251
749.97254
749.97256
749.9726
749.97263
749.97267
749.97272
749.97276
749.97282
749.97252
749.97254
749.97256
749.97259
749.97262
749.97266
749.9727
749.97275
749.97279
749.97285
749.97255
749.97257
749.9726
749.97262
749.97266
749.97269
749.97274
749.97278
749.97283
749.97288
749.97259
749.97261
749.97263
749.97266
749.97269
749.97273
749.97277
749.97282
749.97287
749.97292
749.97263
749.97265
749.97267
749.9727
749.97274
749.97277
749.97281
749.97286
749.97291
749.97296
749.97267
749.97269
749.97272
749.97275
749.97278
749.97282
749.97286
749.97291
749.97296
749.97301
749.97272
749.97274
749.97276
749.97279
749.97283
749.97287
749.97291
749.97296
749.97301
749.97307
749.97276
749.97279
749.97282
749.97285
749.97288
749.97292
749.97296
749.97301
749.97307
749.97313
750.02692
750.02699
750.02703
750.02707
750.0271
750.02713
750.02715
750.02717
750.02719
750.02721
750.02699
750.02704
750.02709
750.02712
750.02716
750.02718
750.02721
750.02723
750.02724
750.02726
750.02703
750.02709
750.02713
750.02716
750.0272
750.02722
750.02725
750.02727
750.02728
750.02729
750.02707
750.02712
750.02716
750.0272
750.02723
750.02726
750.02728
750.0273
750.02732
750.02733
750.0271
750.02716
750.0272
750.02723
750.02726
750.02729
750.02731
750.02733
750.02735
750.02736
750.02713
750.02718
750.02722
750.02726
750.02729
750.02732
750.02734
750.02736
750.02737
750.02738
750.02715
750.02721
750.02725
750.02728
750.02731
750.02734
750.02736
750.02738
750.0274
750.02741
750.02717
750.02723
750.02727
750.0273
750.02733
750.02736
750.02738
750.0274
750.02742
750.02743
750.02719
750.02724
750.02728
750.02732
750.02735
750.02737
750.0274
750.02742
750.02743
750.02744
750.02721
750.02726
750.02729
750.02733
750.02736
750.02738
750.02741
750.02743
750.02744
750.02745
750.08123
750.08134
750.0814
750.08145
750.08148
750.0815
750.08151
750.08151
750.0815
750.08148
750.08134
750.08143
750.08149
750.08154
750.08157
750.08159
750.0816
750.0816
750.08158
750.08156
750.0814
750.08149
750.08155
750.0816
750.08163
750.08165
750.08165
750.08165
750.08163
750.0816
750.08145
750.08154
750.0816
750.08164
750.08167
750.08169
750.08169
750.08169
750.08167
750.08164
750.08148
750.08157
750.08163
750.08167
750.0817
750.08172
750.08172
750.08172
750.0817
750.08166
750.0815
750.08159
750.08165
750.08169
750.08172
750.08173
750.08174
750.08173
750.08171
750.08168
750.08151
750.0816
750.08165
750.08169
750.08172
750.08174
750.08174
750.08173
750.08171
750.08168
750.08151
750.0816
750.08165
750.08169
750.08172
750.08173
750.08173
750.08172
750.0817
750.08167
750.0815
750.08158
750.08163
750.08167
750.0817
750.08171
750.08171
750.0817
750.08168
750.08165
750.08148
750.08156
750.0816
750.08164
750.08166
750.08168
750.08168
750.08167
750.08165
750.08161
750.13504
750.13519
750.13527
750.13533
750.13536
750.13538
750.13537
750.13535
750.13531
750.13526
750.13519
750.13532
750.1354
750.13545
750.13549
750.1355
750.13549
750.13547
750.13542
750.13535
750.13527
750.1354
750.13547
750.13552
750.13556
750.13557
750.13556
750.13553
750.13548
750.13541
750.13533
750.13545
750.13552
750.13557
750.1356
750.13561
750.1356
750.13557
750.13552
750.13545
750.13536
750.13549
750.13556
750.1356
750.13563
750.13564
750.13563
750.13559
750.13554
750.13547
750.13538
750.1355
750.13557
750.13561
750.13564
750.13565
750.13563
750.1356
750.13554
750.13547
750.13537
750.13549
750.13556
750.1356
750.13563
750.13563
750.13562
750.13558
750.13552
750.13545
750.13535
750.13547
750.13553
750.13557
750.13559
750.1356
750.13558
750.13554
750.13549
750.13541
750.13531
750.13542
750.13548
750.13552
750.13554
750.13554
750.13552
750.13549
750.13543
750.13535
750.13526
750.13535
750.13541
750.13545
750.13547
750.13547
750.13545
750.13541
750.13535
750.13526
750.18802
750.18821
750.18831
750.18838
750.18841
750.18842
750.1884
750.18835
750.18828
750.1882
750.18821
750.18838
750.18847
750.18853
750.18857
750.18857
750.18855
750.1885
750.18842
750.18832
750.18831
750.18847
750.18856
750.18862
750.18865
750.18865
750.18863
750.18857
750.18849
750.18838
750.18838
750.18853
750.18862
750.18868
750.1887
750.1887
750.18868
750.18862
750.18853
750.18842
750.18841
750.18857
750.18865
750.1887
750.18873
750.18873
750.1887
750.18864
750.18855
750.18843
750.18842
750.18857
750.18865
750.1887
750.18873
750.18872
750.18869
750.18863
750.18854
750.18842
750.1884
750.18855
750.18863
750.18868
750.1887
750.18869
750.18865
750.18859
750.1885
750.18838
750.18835
750.1885
750.18857
750.18862
750.18864
750.18863
750.18859
750.18853
750.18843
750.18831
750.18828
750.18842
750.18849
750.18853
750.18855
750.18854
750.1885
750.18843
750.18834
750.18822
750.1882
750.18832
750.18838
750.18842
750.18843
750.18842
750.18838
750.18831
750.18822
750.18808
750.23984
750.24008
750.24019
750.24026
750.2403
750.24029
750.24026
750.24019
750.24009
750.23998
750.24008
750.24027
750.24038
750.24045
750.24048
750.24048
750.24044
750.24037
750.24026
750.24012
750.24019
750.24038
750.24048
750.24055
750.24058
750.24057
750.24053
750.24045
750.24034
750.24019
750.24026
750.24045
750.24055
750.24061
750.24064
750.24063
750.24058
750.2405
750.24039
750.24023
750.2403
750.24048
750.24058
750.24064
750.24066
750.24065
750.2406
750.24052
750.2404
750.24024
750.24029
750.24048
750.24057
750.24063
750.24065
750.24063
750.24058
750.2405
750.24037
750.24022
750.24026
750.24044
750.24053
750.24058
750.2406
750.24058
750.24053
750.24044
750.24031
750.24015
750.24019
750.24037
750.24045
750.2405
750.24052
750.2405
750.24044
750.24035
750.24022
750.24006
750.24009
750.24026
750.24034
750.24039
750.2404
750.24037
750.24031
750.24022
750.24009
750.23992
750.23998
750.24012
750.24019
750.24023
750.24024
750.24022
750.24015
750.24006
750.23992
750.23974
750.29019
750.29046
750.29059
750.29067
750.2907
750.29069
750.29064
750.29055
750.29042
750.29028
750.29046
750.29069
750.29081
750.29089
750.29092
750.2909
750.29085
750.29075
750.29062
750.29044
750.29059
750.29081
750.29093
750.291
750.29103
750.29101
750.29095
750.29085
750.29071
750.29052
750.29067
750.29089
750.291
750.29107
750.29109
750.29107
750.29101
750.2909
750.29076
750.29056
750.2907
750.29092
750.29103
750.29109
750.29111
750.29109
750.29102
750.29091
750.29076
750.29056
750.29069
750.2909
750.29101
750.29107
750.29109
750.29106
750.29099
750.29088
750.29073
750.29053
750.29064
750.29085
750.29095
750.29101
750.29102
750.29099
750.29092
750.2908
750.29065
750.29045
750.29055
750.29075
750.29085
750.2909
750.29091
750.29088
750.2908
750.29069
750.29052
750.29032
750.29042
750.29062
750.29071
750.29076
750.29076
750.29073
750.29065
750.29052
750.29036
750.29015
750.29028
750.29044
750.29052
750.29056
750.29056
750.29053
750.29045
750.29032
750.29015
750.28992
750.33874
750.33905
750.3392
750.33928
750.33931
750.33929
750.33923
750.33912
750.33897
750.33879
750.33905
750.33931
750.33945
750.33953
750.33956
750.33954
750.33947
750.33935
750.33919
750.33897
750.3392
750.33945
750.33958
750.33966
750.33968
750.33966
750.33958
750.33946
750.33928
750.33905
750.33928
750.33953
750.33966
750.33973
750.33975
750.33972
750.33964
750.33951
750.33933
750.3391
750.33931
750.33956
750.33968
750.33975
750.33977
750.33973
750.33965
750.33952
750.33933
750.3391
750.33929
750.33954
750.33966
750.33972
750.33973
750.3397
750.33961
750.33947
750.33928
750.33905
750.33923
750.33947
750.33958
750.33964
750.33965
750.33961
750.33952
750.33938
750.33918
750.33894
750.33912
750.33935
750.33946
750.33951
750.33952
750.33947
750.33938
750.33923
750.33903
750.33879
750.33897
750.33919
750.33928
750.33933
750.33933
750.33928
750.33918
750.33903
750.33883
750.33858
750.33879
750.33897
750.33905
750.3391
750.3391
750.33905
750.33894
750.33879
750.33858
750.33831
750.38521
750.38555
750.38571
750.3858
750.38583
750.38581
750.38573
750.38559
750.38542
750.38522
750.38555
750.38584
750.38599
750.38608
750.38611
750.38608
750.38599
750.38585
750.38566
750.38541
750.38571
750.38599
750.38614
750.38622
750.38624
750.38621
750.38612
750.38597
750.38577
750.3855
750.3858
750.38608
750.38622
750.3863
750.38631
750.38628
750.38618
750.38603
750.38582
750.38555
750.38583
750.38611
750.38624
750.38631
750.38633
750.38629
750.38618
750.38603
750.38581
750.38554
750.38581
750.38608
750.38621
750.38628
750.38629
750.38624
750.38613
750.38597
750.38575
750.38547
750.38573
750.38599
750.38612
750.38618
750.38618
750.38613
750.38602
750.38585
750.38563
750.38535
750.38559
750.38585
750.38597
750.38603
750.38603
750.38597
750.38585
750.38568
750.38545
750.38517
750.38542
750.38566
750.38577
750.38582
750.38581
750.38575
750.38563
750.38545
750.38522
750.38493
750.38522
750.38541
750.3855
750.38555
750.38554
750.38547
750.38535
750.38517
750.38493
750.38461
750.42931
750.42968
750.42985
750.42995
750.42998
750.42994
750.42985
750.42969
750.42949
750.42926
750.42968
750.43
750.43016
750.43025
750.43028
750.43024
750.43014
750.42998
750.42976
750.42947
750.42985
750.43016
750.43032
750.4304
750.43042
750.43038
750.43027
750.4301
750.42987
750.42957
750.42995
750.43025
750.4304
750.43048
750.4305
750.43045
750.43034
750.43016
750.42992
750.42961
750.42998
750.43028
750.43042
750.4305
750.43051
750.43045
750.43034
750.43015
750.42991
750.4296
750.42994
750.43024
750.43038
750.43045
750.43045
750.43039
750.43027
750.43008
750.42983
750.42952
750.42985
750.43014
750.43027
750.43034
750.43034
750.43027
750.43014
750.42995
750.4297
750.42938
750.42969
750.42998
750.4301
750.43016
750.43015
750.43008
750.42995
750.42975
750.4295
750.42917
750.42949
750.42976
750.42987
750.42992
750.42991
750.42983
750.4297
750.4295
750.42923
750.4289
750.42926
750.42947
750.42957
750.42961
750.4296
750.42952
750.42938
750.42917
750.4289
750.42854
750.47076
750.47116
750.47135
750.47145
750.47147
750.47143
750.47132
750.47115
750.47092
750.47067
750.47116
750.47151
750.47168
750.47178
750.4718
750.47175
750.47163
750.47145
750.47121
750.47089
750.47135
750.47168
750.47184
750.47193
750.47195
750.4719
750.47177
750.47158
750.47132
750.47099
750.47145
750.47178
750.47193
750.47202
750.47203
750.47197
750.47184
750.47164
750.47137
750.47103