/*--------------------------------*- C++ -*----------------------------------*\
| =========                 |                                                 |
| \\      /  F ield         | OpenFOAM: The Open Source CFD Toolbox           |
|  \\    /   O peration     | Version:  v2106                                 |
|   \\  /    A nd           | Website:  www.openfoam.com                      |
|    \\/     M anipulation  |                                                 |
\*---------------------------------------------------------------------------*/
FoamFile
{
    version     2.0;
    format      ascii;
    arch        "LSB;label=32;scalar=64";
    class       volScalarField;
    location    "50";
    object      gradTz;
}
// * * * * * * * * * * * * * * * * * * * * * * * * * * * * * * * * * * * * * //

dimensions      [0 -1 0 1 0 0 0];

internalField   nonuniform List<scalar> 
4000
(
750.46137
750.46192
750.46217
750.46232
750.46238
750.46237
750.4623
750.46218
750.46201
750.46186
750.46192
750.46239
750.46263
750.46277
750.46283
750.46282
750.46274
750.4626
750.46242
750.46221
750.46217
750.46263
750.46285
750.46299
750.46304
750.46302
750.46294
750.4628
750.4626
750.46238
750.46232
750.46277
750.46299
750.46311
750.46316
750.46314
750.46305
750.4629
750.4627
750.46246
750.46238
750.46283
750.46304
750.46316
750.4632
750.46317
750.46308
750.46292
750.46271
750.46248
750.46237
750.46282
750.46302
750.46314
750.46317
750.46314
750.46304
750.46288
750.46266
750.46242
750.4623
750.46274
750.46294
750.46305
750.46308
750.46304
750.46293
750.46277
750.46255
750.46231
750.46218
750.4626
750.4628
750.4629
750.46292
750.46288
750.46277
750.46259
750.46237
750.46213
750.46201
750.46242
750.4626
750.4627
750.46271
750.46266
750.46255
750.46237
750.46215
750.4619
750.46186
750.46221
750.46238
750.46246
750.46248
750.46242
750.46231
750.46213
750.4619
750.46163
750.45876
750.45922
750.45944
750.45958
750.45963
750.45962
750.45954
750.4594
750.45922
750.45902
750.45922
750.45961
750.45982
750.45995
750.46
750.45998
750.4599
750.45975
750.45955
750.45929
750.45944
750.45982
750.46002
750.46014
750.46019
750.46016
750.46007
750.45992
750.45971
750.45943
750.45958
750.45995
750.46014
750.46025
750.46029
750.46027
750.46017
750.46001
750.45979
750.4595
750.45963
750.46
750.46019
750.46029
750.46033
750.4603
750.46019
750.46003
750.4598
750.45951
750.45962
750.45998
750.46016
750.46027
750.4603
750.46026
750.46015
750.45998
750.45975
750.45945
750.45954
750.4599
750.46007
750.46017
750.46019
750.46015
750.46004
750.45986
750.45962
750.45933
750.4594
750.45975
750.45992
750.46001
750.46003
750.45998
750.45986
750.45968
750.45944
750.45914
750.45922
750.45955
750.45971
750.45979
750.4598
750.45975
750.45962
750.45944
750.45919
750.45888
750.45902
750.45929
750.45943
750.4595
750.45951
750.45945
750.45933
750.45914
750.45888
750.45855
750.45332
750.45372
750.45391
750.45403
750.45407
750.45405
750.45396
750.45382
750.45362
750.45338
750.45372
750.45405
750.45424
750.45435
750.45439
750.45436
750.45427
750.45412
750.4539
750.45359
750.45391
750.45424
750.45441
750.45452
750.45455
750.45452
750.45442
750.45426
750.45403
750.45371
750.45403
750.45435
750.45452
750.45461
750.45465
750.45461
750.45451
750.45434
750.45409
750.45377
750.45407
750.45439
750.45455
750.45465
750.45467
750.45463
750.45452
750.45434
750.4541
750.45377
750.45405
750.45436
750.45452
750.45461
750.45463
750.45458
750.45447
750.45429
750.45403
750.4537
750.45396
750.45427
750.45442
750.45451
750.45452
750.45447
750.45435
750.45416
750.4539
750.45357
750.45382
750.45412
750.45426
750.45434
750.45434
750.45429
750.45416
750.45397
750.45371
750.45337
750.45362
750.4539
750.45403
750.45409
750.4541
750.45403
750.4539
750.45371
750.45344
750.45309
750.45338
750.45359
750.45371
750.45377
750.45377
750.4537
750.45357
750.45337
750.45309
750.45271
750.44497
750.44534
750.44551
750.44562
750.44565
750.44562
750.44552
750.44537
750.44516
750.44491
750.44534
750.44565
750.44581
750.44591
750.44594
750.44591
750.44581
750.44565
750.44542
750.4451
750.44551
750.44581
750.44597
750.44606
750.44609
750.44605
750.44594
750.44577
750.44553
750.4452
750.44562
750.44591
750.44606
750.44615
750.44617
750.44613
750.44601
750.44583
750.44558
750.44525
750.44565
750.44594
750.44609
750.44617
750.44619
750.44614
750.44602
750.44583
750.44558
750.44524
750.44562
750.44591
750.44605
750.44613
750.44614
750.44608
750.44596
750.44577
750.44551
750.44517
750.44552
750.44581
750.44594
750.44601
750.44602
750.44596
750.44583
750.44563
750.44537
750.44503
750.44537
750.44565
750.44577
750.44583
750.44583
750.44577
750.44563
750.44543
750.44516
750.44482
750.44516
750.44542
750.44553
750.44558
750.44558
750.44551
750.44537
750.44516
750.44488
750.44452
750.44491
750.4451
750.4452
750.44525
750.44524
750.44517
750.44503
750.44482
750.44452
750.44413
750.43384
750.43418
750.43435
750.43443
750.43446
750.43442
750.43432
750.43416
750.43395
750.43369
750.43418
750.43448
750.43463
750.43471
750.43474
750.43469
750.43459
750.43442
750.43419
750.43388
750.43435
750.43463
750.43477
750.43485
750.43487
750.43482
750.43471
750.43453
750.43429
750.43396
750.43443
750.43471
750.43485
750.43493
750.43494
750.43489
750.43477
750.43459
750.43433
750.434
750.43446
750.43474
750.43487
750.43494
750.43495
750.43489
750.43477
750.43458
750.43432
750.43398
750.43442
750.43469
750.43482
750.43489
750.43489
750.43483
750.4347
750.4345
750.43424
750.4339
750.43432
750.43459
750.43471
750.43477
750.43477
750.4347
750.43457
750.43437
750.4341
750.43376
750.43416
750.43442
750.43453
750.43459
750.43458
750.4345
750.43437
750.43416
750.43389
750.43354
750.43395
750.43419
750.43429
750.43433
750.43432
750.43424
750.4341
750.43389
750.4336
750.43325
750.43369
750.43388
750.43396
750.434
750.43398
750.4339
750.43376
750.43354
750.43325
750.43286
750.42
750.42033
750.42048
750.42056
750.42058
750.42053
750.42043
750.42027
750.42005
750.41981
750.42033
750.42061
750.42075
750.42083
750.42084
750.42079
750.42068
750.42051
750.42028
750.41998
750.42048
750.42075
750.42088
750.42095
750.42096
750.42091
750.4208
750.42062
750.42037
750.42005
750.42056
750.42083
750.42095
750.42102
750.42102
750.42097
750.42085
750.42066
750.42041
750.42008
750.42058
750.42084
750.42096
750.42102
750.42102
750.42096
750.42084
750.42064
750.42039
750.42006
750.42053
750.42079
750.42091
750.42097
750.42096
750.42089
750.42076
750.42057
750.4203
750.41997
750.42043
750.42068
750.4208
750.42085
750.42084
750.42076
750.42063
750.42043
750.42016
750.41982
750.42027
750.42051
750.42062
750.42066
750.42064
750.42057
750.42043
750.42022
750.41995
750.41961
750.42005
750.42028
750.42037
750.42041
750.42039
750.4203
750.42016
750.41995
750.41966
750.41931
750.41981
750.41998
750.42005
750.42008
750.42006
750.41997
750.41982
750.41961
750.41931
750.41893
750.40357
750.40388
750.40402
750.40409
750.4041
750.40405
750.40394
750.40378
750.40357
750.40333
750.40388
750.40414
750.40427
750.40434
750.40435
750.40429
750.40418
750.40401
750.40378
750.40349
750.40402
750.40427
750.40439
750.40445
750.40446
750.4044
750.40429
750.40411
750.40387
750.40356
750.40409
750.40434
750.40445
750.40451
750.40451
750.40445
750.40433
750.40414
750.4039
750.40358
750.4041
750.40435
750.40446
750.40451
750.4045
750.40444
750.40431
750.40412
750.40387
750.40355
750.40405
750.40429
750.4044
750.40445
750.40444
750.40437
750.40423
750.40404
750.40378
750.40346
750.40394
750.40418
750.40429
750.40433
750.40431
750.40423
750.4041
750.4039
750.40364
750.40331
750.40378
750.40401
750.40411
750.40414
750.40412
750.40404
750.4039
750.4037
750.40343
750.4031
750.40357
750.40378
750.40387
750.4039
750.40387
750.40378
750.40364
750.40343
750.40315
750.40281
750.40333
750.40349
750.40356
750.40358
750.40355
750.40346
750.40331
750.4031
750.40281
750.40244
750.38463
750.38492
750.38505
750.38511
750.38512
750.38507
750.38496
750.3848
750.3846
750.38436
750.38492
750.38517
750.38529
750.38535
750.38535
750.3853
750.38519
750.38502
750.3848
750.38451
750.38505
750.38529
750.3854
750.38546
750.38545
750.3854
750.38528
750.38511
750.38487
750.38457
750.38511
750.38535
750.38546
750.38551
750.3855
750.38544
750.38532
750.38514
750.3849
750.38459
750.38512
750.38535
750.38545
750.3855
750.38549
750.38542
750.38529
750.38511
750.38486
750.38456
750.38507
750.3853
750.3854
750.38544
750.38542
750.38535
750.38522
750.38503
750.38478
750.38447
750.38496
750.38519
750.38528
750.38532
750.38529
750.38522
750.38508
750.38489
750.38463
750.38432
750.3848
750.38502
750.38511
750.38514
750.38511
750.38503
750.38489
750.38469
750.38443
750.38411
750.3846
750.3848
750.38487
750.3849
750.38486
750.38478
750.38463
750.38443
750.38416
750.38384
750.38436
750.38451
750.38457
750.38459
750.38456
750.38447
750.38432
750.38411
750.38384
750.38348
750.36332
750.36359
750.36371
750.36376
750.36376
750.36371
750.3636
750.36345
750.36325
750.36303
750.36359
750.36382
750.36393
750.36398
750.36398
750.36392
750.36381
750.36365
750.36344
750.36317
750.36371
750.36393
750.36403
750.36408
750.36407
750.36401
750.3639
750.36373
750.36351
750.36322
750.36376
750.36398
750.36408
750.36412
750.36411
750.36405
750.36393
750.36375
750.36352
750.36323
750.36376
750.36398
750.36407
750.36411
750.3641
750.36403
750.3639
750.36373
750.36349
750.3632
750.36371
750.36392
750.36401
750.36405
750.36403
750.36395
750.36383
750.36364
750.3634
750.36311
750.3636
750.36381
750.3639
750.36393
750.3639
750.36383
750.36369
750.36351
750.36326
750.36297
750.36345
750.36365
750.36373
750.36375
750.36373
750.36364
750.36351
750.36332
750.36307
750.36277
750.36325
750.36344
750.36351
750.36352
750.36349
750.3634
750.36326
750.36307
750.36281
750.3625
750.36303
750.36317
750.36322
750.36323
750.3632
750.36311
750.36297
750.36277
750.3625
750.36216
750.33976
750.34001
750.34011
750.34016
750.34016
750.3401
750.34
750.33985
750.33967
750.33946
750.34001
750.34022
750.34032
750.34036
750.34036
750.3403
750.3402
750.34004
750.33984
750.33958
750.34011
750.34032
750.34041
750.34045
750.34044
750.34038
750.34027
750.34011
750.3399
750.33963
750.34016
750.34036
750.34045
750.34049
750.34047
750.34041
750.3403
750.34013
750.33991
750.33964
750.34016
750.34036
750.34044
750.34047
750.34046
750.34039
750.34027
750.3401
750.33988
750.3396
750.3401
750.3403
750.34038
750.34041
750.34039
750.34032
750.34019
750.34002
750.33979
750.33951
750.34
750.3402
750.34027
750.3403
750.34027
750.34019
750.34007
750.33989
750.33966
750.33938
750.33985
750.34004
750.34011
750.34013
750.3401
750.34002
750.33989
750.33971
750.33947
750.33919
750.33967
750.33984
750.3399
750.33991
750.33988
750.33979
750.33966
750.33947
750.33923
750.33893
750.33946
750.33958
750.33963
750.33964
750.3396
750.33951
750.33938
750.33919
750.33893
750.33861
750.3141
750.31433
750.31442
750.31446
750.31446
750.3144
750.3143
750.31417
750.31399
750.31379
750.31433
750.31452
750.31461
750.31465
750.31464
750.31458
750.31448
750.31434
750.31415
750.3139
750.31442
750.31461
750.31469
750.31472
750.31471
750.31465
750.31455
750.3144
750.3142
750.31395
750.31446
750.31465
750.31472
750.31475
750.31474
750.31468
750.31457
750.31441
750.31421
750.31395
750.31446
750.31464
750.31471
750.31474
750.31472
750.31465
750.31454
750.31438
750.31417
750.31391
750.3144
750.31458
750.31465
750.31468
750.31465
750.31458
750.31447
750.3143
750.31409
750.31383
750.3143
750.31448
750.31455
750.31457
750.31454
750.31447
750.31435
750.31418
750.31396
750.3137
750.31417
750.31434
750.3144
750.31441
750.31438
750.3143
750.31418
750.314
750.31378
750.31352
750.31399
750.31415
750.3142
750.31421
750.31417
750.31409
750.31396
750.31378
750.31356
750.31328
750.31379
750.3139
750.31395
750.31395
750.31391
750.31383
750.3137
750.31352
750.31328
750.31298
750.2865
750.28671
750.28679
750.28682
750.28681
750.28676
750.28667
750.28654
750.28638
750.28619
750.28671
750.28688
750.28696
750.28699
750.28698
750.28692
750.28683
750.28669
750.28651
750.28629
750.28679
750.28696
750.28703
750.28706
750.28704
750.28698
750.28688
750.28674
750.28656
750.28633
750.28682
750.28699
750.28706
750.28708
750.28706
750.287
750.2869
750.28675
750.28656
750.28633
750.28681
750.28698
750.28704
750.28706
750.28704
750.28698
750.28687
750.28672
750.28653
750.28629
750.28676
750.28692
750.28698
750.287
750.28698
750.28691
750.2868
750.28665
750.28645
750.28621
750.28667
750.28683
750.28688
750.2869
750.28687
750.2868
750.28669
750.28653
750.28633
750.28609
750.28654
750.28669
750.28674
750.28675
750.28672
750.28665
750.28653
750.28637
750.28616
750.28592
750.28638
750.28651
750.28656
750.28656
750.28653
750.28645
750.28633
750.28616
750.28595
750.2857
750.28619
750.28629
750.28633
750.28633
750.28629
750.28621
750.28609
750.28592
750.2857
750.28543
750.25713
750.25731
750.25739
750.25741
750.2574
750.25735
750.25726
750.25714
750.25699
750.25683
750.25731
750.25747
750.25753
750.25756
750.25754
750.25749
750.2574
750.25728
750.25712
750.25691
750.25739
750.25753
750.25759
750.25761
750.2576
750.25754
750.25745
750.25732
750.25715
750.25694
750.25741
750.25756
750.25761
750.25763
750.25761
750.25756
750.25746
750.25733
750.25715
750.25694
750.2574
750.25754
750.2576
750.25761
750.25759
750.25753
750.25743
750.2573
750.25712
750.2569
750.25735
750.25749
750.25754
750.25756
750.25753
750.25747
750.25737
750.25723
750.25705
750.25683
750.25726
750.2574
750.25745
750.25746
750.25743
750.25737
750.25726
750.25712
750.25693
750.25671
750.25714
750.25728
750.25732
750.25733
750.2573
750.25723
750.25712
750.25697
750.25678
750.25656
750.25699
750.25712
750.25715
750.25715
750.25712
750.25705
750.25693
750.25678
750.25659
750.25636
750.25683
750.25691
750.25694
750.25694
750.2569
750.25683
750.25671
750.25656
750.25636
750.25611
750.22618
750.22634
750.22639
750.22641
750.2264
750.22635
750.22627
750.22616
750.22603
750.22588
750.22634
750.22647
750.22652
750.22654
750.22652
750.22647
750.22639
750.22628
750.22613
750.22595
750.22639
750.22652
750.22657
750.22659
750.22657
750.22652
750.22643
750.22631
750.22616
750.22597
750.22641
750.22654
750.22659
750.2266
750.22658
750.22652
750.22644
750.22632
750.22616
750.22597
750.2264
750.22652
750.22657
750.22658
750.22656
750.2265
750.22641
750.22628
750.22613
750.22593
750.22635
750.22647
750.22652
750.22652
750.2265
750.22644
750.22635
750.22622
750.22606
750.22586
750.22627
750.22639
750.22643
750.22644
750.22641
750.22635
750.22625
750.22612
750.22596
750.22576
750.22616
750.22628
750.22631
750.22632
750.22628
750.22622
750.22612
750.22599
750.22582
750.22562
750.22603
750.22613
750.22616
750.22616
750.22613
750.22606
750.22596
750.22582
750.22565
750.22544
750.22588
750.22595
750.22597
750.22597
750.22593
750.22586
750.22576
750.22562
750.22544
750.22522
750.19383
750.19396
750.19401
750.19402
750.194
750.19396
750.19389
750.19379
750.19367
750.19354
750.19396
750.19407
750.19411
750.19412
750.1941
750.19406
750.19398
750.19388
750.19376
750.1936
750.19401
750.19411
750.19415
750.19416
750.19414
750.19409
750.19402
750.19391
750.19378
750.19361
750.19402
750.19412
750.19416
750.19417
750.19414
750.19409
750.19402
750.19391
750.19377
750.1936
750.194
750.1941
750.19414
750.19414
750.19412
750.19407
750.19399
750.19388
750.19374
750.19357
750.19396
750.19406
750.19409
750.19409
750.19407
750.19401
750.19393
750.19382
750.19368
750.19351
750.19389
750.19398
750.19402
750.19402
750.19399
750.19393
750.19385
750.19373
750.19359
750.19341
750.19379
750.19388
750.19391
750.19391
750.19388
750.19382
750.19373
750.19361
750.19347
750.19329
750.19367
750.19376
750.19378
750.19377
750.19374
750.19368
750.19359
750.19347
750.19331
750.19313
750.19354
750.1936
750.19361
750.1936
750.19357
750.19351
750.19341
750.19329
750.19313
750.19294
750.16029
750.16039
750.16042
750.16043
750.16041
750.16037
750.16031
750.16022
750.16012
750.16001
750.16039
750.16047
750.1605
750.16051
750.16049
750.16045
750.16038
750.16029
750.16018
750.16005
750.16042
750.1605
750.16053
750.16053
750.16051
750.16047
750.1604
750.16031
750.1602
750.16006
750.16043
750.16051
750.16053
750.16054
750.16051
750.16047
750.1604
750.16031
750.16019
750.16005
750.16041
750.16049
750.16051
750.16051
750.16049
750.16044
750.16037
750.16028
750.16016
750.16001
750.16037
750.16045
750.16047
750.16047
750.16044
750.16039
750.16032
750.16022
750.1601
750.15996
750.16031
750.16038
750.1604
750.1604
750.16037
750.16032
750.16025
750.16015
750.16002
750.15988
750.16022
750.16029
750.16031
750.16031
750.16028
750.16022
750.16015
750.16004
750.15992
750.15977
750.16012
750.16018
750.1602
750.16019
750.16016
750.1601
750.16002
750.15992
750.15979
750.15964
750.16001
750.16005
750.16006
750.16005
750.16001
750.15996
750.15988
750.15977
750.15964
750.15947
750.12575
750.12582
750.12585
750.12585
750.12583
750.12579
750.12574
750.12566
750.12558
750.12549
750.12582
750.12588
750.1259
750.1259
750.12588
750.12585
750.12579
750.12572
750.12563
750.12551
750.12585
750.1259
750.12592
750.12592
750.1259
750.12586
750.1258
750.12573
750.12563
750.12552
750.12585
750.1259
750.12592
750.12592
750.12589
750.12585
750.12579
750.12572
750.12562
750.1255
750.12583
750.12588
750.1259
750.12589
750.12587
750.12583
750.12577
750.12569
750.12559
750.12547
750.12579
750.12585
750.12586
750.12585
750.12583
750.12578
750.12572
750.12564
750.12554
750.12542
750.12574
750.12579
750.1258
750.12579
750.12577
750.12572
750.12566
750.12557
750.12547
750.12535
750.12566
750.12572
750.12573
750.12572
750.12569
750.12564
750.12557
750.12549
750.12539
750.12526
750.12558
750.12563
750.12563
750.12562
750.12559
750.12554
750.12547
750.12539
750.12528
750.12515
750.12549
750.12551
750.12552
750.1255
750.12547
750.12542
750.12535
750.12526
750.12515
750.12502
750.09044
750.09049
750.09049
750.09049
750.09047
750.09044
750.09039
750.09033
750.09027
750.09019
750.09049
750.09052
750.09053
750.09052
750.0905
750.09047
750.09042
750.09036
750.09029
750.09021
750.09049
750.09053
750.09053
750.09053
750.09051
750.09047
750.09042
750.09036
750.09029
750.0902
750.09049
750.09052
750.09053
750.09052
750.0905
750.09046
750.09041
750.09035
750.09027
750.09018
750.09047
750.0905
750.09051
750.0905
750.09047
750.09044
750.09039
750.09032
750.09025
750.09016
750.09044
750.09047
750.09047
750.09046
750.09044
750.0904
750.09035
750.09028
750.09021
750.09011
750.09039
750.09042
750.09042
750.09041
750.09039
750.09035
750.0903
750.09023
750.09015
750.09006
750.09033
750.09036
750.09036
750.09035
750.09032
750.09028
750.09023
750.09016
750.09008
750.08999
750.09027
750.09029
750.09029
750.09027
750.09025
750.09021
750.09015
750.09008
750.09
750.0899
750.09019
750.09021
750.0902
750.09018
750.09016
750.09011
750.09006
750.08999
750.0899
750.0898
750.05458
750.05459
750.05459
750.05457
750.05455
750.05452
750.05449
750.05444
750.0544
750.05434
750.05459
750.0546
750.0546
750.05458
750.05456
750.05453
750.0545
750.05445
750.0544
750.05434
750.05459
750.0546
750.05459
750.05458
750.05456
750.05453
750.05449
750.05444
750.05439
750.05433
750.05457
750.05458
750.05458
750.05456
750.05454
750.05451
750.05447
750.05443
750.05437
750.05431
750.05455
750.05456
750.05456
750.05454
750.05452
750.05449
750.05445
750.0544
750.05435
750.05428
750.05452
750.05453
750.05453
750.05451
750.05449
750.05446
750.05442
750.05437
750.05431
750.05425
750.05449
750.0545
750.05449
750.05447
750.05445
750.05442
750.05438
750.05433
750.05427
750.05421
750.05444
750.05445
750.05444
750.05443
750.0544
750.05437
750.05433
750.05428
750.05422
750.05416
750.0544
750.0544
750.05439
750.05437
750.05435
750.05431
750.05427
750.05422
750.05416
750.0541
750.05434
750.05434
750.05433
750.05431
750.05428
750.05425
750.05421
750.05416
750.0541
750.05402
750.01837
750.01836
750.01834
750.01832
750.0183
750.01828
750.01825
750.01822
750.01819
750.01816
750.01836
750.01834
750.01833
750.01831
750.01829
750.01826
750.01824
750.01821
750.01817
750.01814
750.01834
750.01833
750.01831
750.01829
750.01827
750.01825
750.01822
750.01819
750.01816
750.01812
750.01832
750.01831
750.01829
750.01827
750.01825
750.01823
750.0182
750.01817
750.01814
750.0181
750.0183
750.01829
750.01827
750.01825
750.01823
750.0182
750.01818
750.01815
750.01811
750.01808
750.01828
750.01826
750.01825
750.01823
750.0182
750.01818
750.01815
750.01812
750.01809
750.01805
750.01825
750.01824
750.01822
750.0182
750.01818
750.01815
750.01812
750.01809
750.01806
750.01802
750.01822
750.01821
750.01819
750.01817
750.01815
750.01812
750.01809
750.01806
750.01803
750.01799
750.01819
750.01817
750.01816
750.01814
750.01811
750.01809
750.01806
750.01803
750.01799
750.01796
750.01816
750.01814
750.01812
750.0181
750.01808
750.01805
750.01802
750.01799
750.01796
750.01791
749.98205
749.98201
749.98198
749.98195
749.98193
749.98191
749.9819
749.98188
749.98187
749.98186
749.98201
749.98197
749.98194
749.98192
749.9819
749.98188
749.98186
749.98185
749.98184
749.98183
749.98198
749.98194
749.98192
749.98189
749.98187
749.98185
749.98184
749.98182
749.98181
749.9818
749.98195
749.98192
749.98189
749.98187
749.98185
749.98183
749.98181
749.9818
749.98179
749.98178
749.98193
749.9819
749.98187
749.98185
749.98183
749.98181
749.98179
749.98178
749.98177
749.98176
749.98191
749.98188
749.98185
749.98183
749.98181
749.98179
749.98177
749.98176
749.98175
749.98174
749.9819
749.98186
749.98184
749.98181
749.98179
749.98177
749.98176
749.98175
749.98174
749.98173
749.98188
749.98185
749.98182
749.9818
749.98178
749.98176
749.98175
749.98173
749.98172
749.98172
749.98187
749.98184
749.98181
749.98179
749.98177
749.98175
749.98174
749.98172
749.98171
749.98171
749.98186
749.98183
749.9818
749.98178
749.98176
749.98174
749.98173
749.98172
749.98171
749.9817
749.94585
749.94577
749.94573
749.9457
749.94568
749.94566
749.94566
749.94566
749.94567
749.94568
749.94577
749.94571
749.94567
749.94564
749.94562
749.9456
749.9456
749.9456
749.94561
749.94563
749.94573
749.94567
749.94563
749.9456
749.94558
749.94557
749.94556
749.94557
749.94558
749.9456
749.9457
749.94564
749.9456
749.94557
749.94555
749.94554
749.94554
749.94554
749.94555
749.94557
749.94568
749.94562
749.94558
749.94555
749.94553
749.94552
749.94552
749.94552
749.94554
749.94556
749.94566
749.9456
749.94557
749.94554
749.94552
749.94551
749.94551
749.94551
749.94553
749.94555
749.94566
749.9456
749.94556
749.94554
749.94552
749.94551
749.94551
749.94551
749.94553
749.94555
749.94566
749.9456
749.94557
749.94554
749.94552
749.94551
749.94551
749.94552
749.94553
749.94555
749.94567
749.94561
749.94558
749.94555
749.94554
749.94553
749.94553
749.94553
749.94555
749.94557
749.94568
749.94563
749.9456
749.94557
749.94556
749.94555
749.94555
749.94555
749.94557
749.94559
749.90997
749.90987
749.90982
749.90978
749.90976
749.90975
749.90975
749.90977
749.90979
749.90983
749.90987
749.90978
749.90973
749.9097
749.90968
749.90967
749.90967
749.90969
749.90972
749.90976
749.90982
749.90973
749.90969
749.90965
749.90963
749.90962
749.90963
749.90965
749.90968
749.90973
749.90978
749.9097
749.90965
749.90962
749.9096
749.90959
749.9096
749.90962
749.90965
749.9097
749.90976
749.90968
749.90963
749.9096
749.90958
749.90957
749.90958
749.9096
749.90964
749.90969
749.90975
749.90967
749.90962
749.90959
749.90957
749.90957
749.90958
749.9096
749.90964
749.90969
749.90975
749.90967
749.90963
749.9096
749.90958
749.90958
749.90959
749.90961
749.90965
749.9097
749.90977
749.90969
749.90965
749.90962
749.9096
749.9096
749.90961
749.90964
749.90968
749.90973
749.90979
749.90972
749.90968
749.90965
749.90964
749.90964
749.90965
749.90968
749.90972
749.90977
749.90983
749.90976
749.90973
749.9097
749.90969
749.90969
749.9097
749.90973
749.90977
749.90982
749.87465
749.87452
749.87446
749.87442
749.87439
749.87439
749.8744
749.87443
749.87448
749.87453
749.87452
749.87441
749.87435
749.87431
749.87429
749.87429
749.8743
749.87434
749.87439
749.87446
749.87446
749.87435
749.87429
749.87425
749.87423
749.87423
749.87425
749.87429
749.87434
749.87441
749.87442
749.87431
749.87425
749.87422
749.8742
749.8742
749.87422
749.87425
749.87431
749.87439
749.87439
749.87429
749.87423
749.8742
749.87418
749.87418
749.8742
749.87424
749.8743
749.87438
749.87439
749.87429
749.87423
749.8742
749.87418
749.87419
749.87421
749.87425
749.87431
749.87439
749.8744
749.8743
749.87425
749.87422
749.8742
749.87421
749.87423
749.87427
749.87433
749.87441
749.87443
749.87434
749.87429
749.87425
749.87424
749.87425
749.87427
749.87432
749.87438
749.87446
749.87448
749.87439
749.87434
749.87431
749.8743
749.87431
749.87433
749.87438
749.87444
749.87452
749.87453
749.87446
749.87441
749.87439
749.87438
749.87439
749.87441
749.87446
749.87452
749.87461
749.8401
749.83995
749.83987
749.83983
749.8398
749.8398
749.83983
749.83987
749.83994
749.84001
749.83995
749.83982
749.83975
749.8397
749.83968
749.83968
749.83971
749.83976
749.83983
749.83992
749.83987
749.83975
749.83968
749.83963
749.83961
749.83962
749.83965
749.8397
749.83977
749.83987
749.83983
749.8397
749.83963
749.83959
749.83957
749.83958
749.83961
749.83966
749.83974
749.83985
749.8398
749.83968
749.83961
749.83957
749.83956
749.83957
749.8396
749.83966
749.83974
749.83984
749.8398
749.83968
749.83962
749.83958
749.83957
749.83958
749.83961
749.83967
749.83975
749.83986
749.83983
749.83971
749.83965
749.83961
749.8396
749.83961
749.83965
749.83971
749.83979
749.8399
749.83987
749.83976
749.8397
749.83966
749.83966
749.83967
749.83971
749.83977
749.83985
749.83996
749.83994
749.83983
749.83977
749.83974
749.83974
749.83975
749.83979
749.83985
749.83994
749.84005
749.84001
749.83992
749.83987
749.83985
749.83984
749.83986
749.8399
749.83996
749.84005
749.84017
749.80654
749.80636
749.80627
749.80622
749.8062
749.80621
749.80624
749.8063
749.80638
749.80648
749.80636
749.80621
749.80613
749.80608
749.80606
749.80606
749.8061
749.80616
749.80625
749.80638
749.80627
749.80613
749.80605
749.806
749.80598
749.80599
749.80603
749.8061
749.8062
749.80632
749.80622
749.80608
749.806
749.80596
749.80594
749.80595
749.80599
749.80606
749.80616
749.80629
749.8062
749.80606
749.80598
749.80594
749.80593
749.80594
749.80598
749.80606
749.80616
749.80629
749.80621
749.80606
749.80599
749.80595
749.80594
749.80596
749.806
749.80608
749.80618
749.80632
749.80624
749.8061
749.80603
749.80599
749.80598
749.806
749.80605
749.80613
749.80624
749.80637
749.8063
749.80616
749.8061
749.80606
749.80606
749.80608
749.80613
749.80621
749.80632
749.80645
749.80638
749.80625
749.8062
749.80616
749.80616
749.80618
749.80624
749.80632
749.80643
749.80657
749.80648
749.80638
749.80632
749.80629
749.80629
749.80632
749.80637
749.80645
749.80657
749.80672
749.77417
749.77397
749.77387
749.77381
749.77379
749.7738
749.77385
749.77392
749.77402
749.77414
749.77397
749.77379
749.7737
749.77365
749.77363
749.77364
749.77369
749.77377
749.77388
749.77402
749.77387
749.7737
749.77361
749.77356
749.77355
749.77356
749.77361
749.7737
749.77381
749.77396
749.77381
749.77365
749.77356
749.77351
749.7735
749.77352
749.77357
749.77366
749.77378
749.77393
749.77379
749.77363
749.77355
749.7735
749.77349
749.77351
749.77357
749.77366
749.77378
749.77394
749.7738
749.77364
749.77356
749.77352
749.77351
749.77354
749.77359
749.77369
749.77381
749.77397
749.77385
749.77369
749.77361
749.77357
749.77357
749.77359
749.77366
749.77375
749.77388
749.77404
749.77392
749.77377
749.7737
749.77366
749.77366
749.77369
749.77375
749.77385
749.77398
749.77414
749.77402
749.77388
749.77381
749.77378
749.77378
749.77381
749.77388
749.77398
749.77411
749.77428
749.77414
749.77402
749.77396
749.77393
749.77394
749.77397
749.77404
749.77414
749.77428
749.77446
749.74319
749.74297
749.74286
749.7428
749.74278
749.7428
749.74285
749.74294
749.74306
749.74319
749.74297
749.74277
749.74267
749.74261
749.74259
749.74261
749.74267
749.74276
749.74289
749.74306
749.74286
749.74267
749.74258
749.74252
749.74251
749.74253
749.74259
749.74269
749.74282
749.743
749.7428
749.74261
749.74252
749.74247
749.74246
749.74248
749.74255
749.74265
749.74279
749.74297
749.74278
749.74259
749.74251
749.74246
749.74245
749.74248
749.74254
749.74265
749.74279
749.74298
749.7428
749.74261
749.74253
749.74248
749.74248
749.74251
749.74258
749.74269
749.74283
749.74302
749.74285
749.74267
749.74259
749.74255
749.74254
749.74258
749.74265
749.74276
749.74291
749.7431
749.74294
749.74276
749.74269
749.74265
749.74265
749.74269
749.74276
749.74288
749.74303
749.74322
749.74306
749.74289
749.74282
749.74279
749.74279
749.74283
749.74291
749.74303
749.74319
749.74338
749.74319
749.74306
749.743
749.74297
749.74298
749.74302
749.7431
749.74322
749.74338
749.74359
749.7138
749.71355
749.71343
749.71337
749.71335
749.71337
749.71344
749.71354
749.71367
749.71382
749.71355
749.71333
749.71323
749.71316
749.71315
749.71317
749.71324
749.71335
749.7135
749.71369
749.71343
749.71323
749.71312
749.71307
749.71305
749.71308
749.71315
749.71327
749.71342
749.71362
749.71337
749.71316
749.71307
749.71301
749.713
749.71303
749.71311
749.71323
749.71339
749.71359
749.71335
749.71315
749.71305
749.713
749.713
749.71303
749.71311
749.71323
749.71339
749.7136
749.71337
749.71317
749.71308
749.71303
749.71303
749.71307
749.71315
749.71328
749.71344
749.71365
749.71344
749.71324
749.71315
749.71311
749.71311
749.71315
749.71324
749.71337
749.71354
749.71375
749.71354
749.71335
749.71327
749.71323
749.71323
749.71328
749.71337
749.7135
749.71367
749.71388
749.71367
749.7135
749.71342
749.71339
749.71339
749.71344
749.71354
749.71367
749.71385
749.71407
749.71382
749.71369
749.71362
749.71359
749.7136
749.71365
749.71375
749.71388
749.71407
749.71431
749.68616
749.68589
749.68577
749.6857
749.68568
749.68571
749.68579
749.6859
749.68605
749.68622
749.68589
749.68566
749.68555
749.68548
749.68547
749.6855
749.68558
749.6857
749.68586
749.68608
749.68577
749.68555
749.68544
749.68538
749.68537
749.6854
749.68548
749.68561
749.68578
749.68601
749.6857
749.68548
749.68538
749.68532
749.68532
749.68535
749.68544
749.68557
749.68575
749.68598
749.68568
749.68547
749.68537
749.68532