/*--------------------------------*- C++ -*----------------------------------*\
| =========                 |                                                 |
| \\      /  F ield         | OpenFOAM: The Open Source CFD Toolbox           |
|  \\    /   O peration     | Version:  v2106                                 |
|   \\  /    A nd           | Website:  www.openfoam.com                      |
|    \\/     M anipulation  |                                                 |
\*---------------------------------------------------------------------------*/
FoamFile
{
    version     2.0;
    format      ascii;
    arch        "LSB;label=32;scalar=64";
    class       volScalarField;
    location    "50";
    object      gradTy;
}
// * * * * * * * * * * * * * * * * * * * * * * * * * * * * * * * * * * * * * //

dimensions      [0 -1 0 1 0 0 0];

internalField   nonuniform List<scalar> 
4000
(
0.00014834383
0.00012840023
0.00012400702
0.00012236711
0.00012143072
0.00012059788
0.00011948966
0.00011749766
0.00011303283
0.00010155035
0.00021461055
0.00019027372
0.00018304846
0.00017959881
0.00017730394
0.00017518571
0.00017255309
0.00016840875
0.00016074519
0.00014527705
0.00010401713
9.798401e-05
9.3342188e-05
8.9918545e-05
8.7111793e-05
8.4392191e-05
8.1298902e-05
7.7326291e-05
7.2057384e-05
6.6277997e-05
5.4114116e-05
5.153783e-05
4.8369603e-05
4.5307407e-05
4.2409392e-05
3.9545801e-05
3.6501854e-05
3.3168846e-05
2.968497e-05
2.6907487e-05
1.4465065e-05
1.2695834e-05
1.005199e-05
7.1694664e-06
4.2903424e-06
1.4427105e-06
-1.3967126e-06
-4.2196316e-06
-6.7544893e-06
-8.4212255e-06
-1.9691151e-05
-2.163222e-05
-2.4441997e-05
-2.7445071e-05
-3.0349532e-05
-3.313216e-05
-3.5807274e-05
-3.8320899e-05
-4.0473486e-05
-4.1796455e-05
-4.858047e-05
-5.1680701e-05
-5.5357476e-05
-5.8746615e-05
-6.1734392e-05
-6.4408943e-05
-6.6923144e-05
-6.9311147e-05
-7.1427659e-05
-7.283877e-05
-6.9407004e-05
-7.5863819e-05
-8.1214899e-05
-8.5105353e-05
-8.8031787e-05
-9.0463116e-05
-9.2698002e-05
-9.4967631e-05
-9.7282321e-05
-9.9176351e-05
-7.3318032e-05
-8.9265342e-05
-9.6449737e-05
-0.00010031362
-0.00010271109
-0.00010451525
-0.00010618664
-0.00010804287
-0.00011039536
-0.00011309357
-3.4699014e-05
-4.61815e-05
-5.0167176e-05
-5.196089e-05
-5.2944624e-05
-5.3627658e-05
-5.4267608e-05
-5.5038751e-05
-5.6161627e-05
-5.7736958e-05
0.00040047577
0.00034273851
0.00033037207
0.00032572368
0.00032298066
0.00032049823
0.00031715299
0.00031100568
0.00029651924
0.0002549579
0.00058638864
0.00051628496
0.00049597516
0.00048609548
0.00047934311
0.0004730248
0.0004651034
0.00045245866
0.00042825704
0.00037504527
0.00029425957
0.00027724474
0.00026407007
0.00025408815
0.0002457759
0.0002376573
0.00022838345
0.00021641795
0.00020049392
0.00018351101
0.00015514023
0.00014774879
0.00013850816
0.00012945464
0.00012083187
0.0001122679
0.00010315344
9.3151018e-05
8.2694684e-05
7.4421792e-05
3.9534098e-05
3.4308636e-05
2.6463432e-05
1.7877835e-05
9.2767113e-06
7.5887213e-07
-7.7612985e-06
-1.6230111e-05
-2.3850928e-05
-2.885877e-05
-6.2370702e-05
-6.8198346e-05
-7.6610402e-05
-8.5590809e-05
-9.4288841e-05
-0.00010262882
-0.00011066398
-0.00011825103
-0.00012476994
-0.00012880965
-0.0001505149
-0.00016000745
-0.00017108103
-0.00018124681
-0.00019019791
-0.00019823579
-0.00020582012
-0.00021309188
-0.00021966497
-0.00022417901
-0.00021835956
-0.00023899333
-0.00025520591
-0.00026688286
-0.00027566465
-0.00028297246
-0.00028977062
-0.0002968173
-0.00030436748
-0.00031122848
-0.00024615622
-0.000302204
-0.00032356962
-0.00033511098
-0.00034229887
-0.00034773963
-0.00035285747
-0.00035882674
-0.00036726863
-0.00038036189
-0.00012320032
-0.00016476165
-0.0001764121
-0.0001817446
-0.00018468499
-0.00018675244
-0.0001887247
-0.00019126646
-0.00019558569
-0.00020435972
0.00060634579
0.00051856046
0.0004996936
0.00049239446
0.00048795284
0.00048385991
0.00047827372
0.00046789896
0.00044312659
0.0003710995
0.00089557782
0.00078892564
0.0007576723
0.00074201153
0.00073102996
0.00072060211
0.00070740651
0.00068618157
0.00064518424
0.00055418429
0.00045989054
0.00043372457
0.00041297644
0.00039689039
0.00038328509
0.00036986631
0.00035445536
0.00033450739
0.0003079735
0.00028026448
0.00024291812
0.00023117737
0.00021627579
0.00020148603
0.00018728647
0.00017310527
0.00015796514
0.000141321
0.00012394301
0.00011033989
5.5885328e-05
4.7350741e-05
3.4475874e-05
2.0326685e-05
6.0951313e-06
-8.0397633e-06
-2.221915e-05
-3.6339761e-05
-4.9061276e-05
-5.7403395e-05
-0.0001128155
-0.00012249463
-0.00013643896
-0.00015132435
-0.00016576028
-0.00017963862
-0.00019305638
-0.00020580068
-0.00021682677
-0.00022372544
-0.00026262627
-0.0002785872
-0.00029704679
-0.00031394613
-0.00032883107
-0.0003422461
-0.00035499311
-0.00036738249
-0.00037886302
-0.00038706637
-0.00038570526
-0.00042085241
-0.00044792753
-0.00046733428
-0.00048194969
-0.00049417638
-0.00050572006
-0.00051804628
-0.00053206477
-0.00054628923
-0.00045951965
-0.00055631912
-0.00059151694
-0.00061056204
-0.00062249804
-0.00063162566
-0.00064042279
-0.00065130955
-0.00066866576
-0.00070286304
-0.00023999945
-0.00031202653
-0.0003309994
-0.00033973556
-0.00034460251
-0.00034807768
-0.0003515012
-0.00035628103
-0.00036572566
-0.00039047834
0.00079406863
0.00067897753
0.00065429614
0.00064458174
0.00063853729
0.00063287774
0.00062507197
0.00061046862
0.0005753713
0.00047270188
0.0011750792
0.0010353067
0.00099421367
0.0009732393
0.00095824426
0.00094381754
0.00092541126
0.0008956428
0.00083786808
0.00070906777
0.00060604981
0.00057165402
0.00054398241
0.00052218789
0.00050351144
0.00048492529
0.00046346508
0.00043561247
0.00039858338
0.0003604074
0.00031713703
0.0003013782
0.00028116764
0.00026090724
0.00024131059
0.0002216291
0.00020054609
0.00017732959
0.00015311245
0.00013430648
6.2143016e-05
5.0438997e-05
3.2721239e-05
1.3176446e-05
-6.5569043e-06
-2.6219426e-05
-4.6007653e-05
-6.575138e-05
-8.3559916e-05
-9.5215228e-05
-0.00017205103
-0.00018551637
-0.00020488407
-0.00022556271
-0.00024564854
-0.0002650135
-0.0002838089
-0.00030176042
-0.00031738391
-0.00032722678
-0.00038428708
-0.00040669616
-0.0004324618
-0.00045600902
-0.00047676131
-0.00049554096
-0.00051350825
-0.00053117995
-0.00054785058
-0.00056003393
-0.00056523555
-0.00061493622
-0.00065277871
-0.00067981793
-0.00070021236
-0.00071737016
-0.00073378739
-0.00075171252
-0.00077280413
-0.00079511732
-0.00068695604
-0.0008247228
-0.00087353105
-0.00089992789
-0.00091655417
-0.00092939171
-0.00094202052
-0.00095824568
-0.00098542535
-0.001041705
-0.00036391132
-0.00046658074
-0.00049271161
-0.00050475674
-0.0005115176
-0.00051641201
-0.00052136045
-0.00052859537
-0.00054367364
-0.00058487511
0.00097165868
0.00083036349
0.00080020176
0.00078821894
0.00078065004
0.00077347037
0.0007634878
0.00074471859
0.00069944908
0.00056665189
0.001436245
0.0012647881
0.0012144494
0.0011884762
0.0011696548
0.0011513498
0.0011278382
0.0010896667
0.0010153859
0.00084947069
0.00073732041
0.00069517585
0.00066100855
0.00063381252
0.00061027397
0.00058667385
0.00055929491
0.00052368198
0.00047635761
0.00042797001
0.00037944534
0.00035989361
0.00033465067
0.00030915907
0.00028435174
0.00025931368
0.00023241083
0.00020273786
0.00017180784
0.00014792189
5.9003618e-05
4.4255044e-05
2.187717e-05
-2.88361e-06
-2.796819e-05
-5.3036995e-05
-7.8343158e-05
-0.000103636
-0.00012647193
-0.00014139371
-0.00023906314
-0.00025622536
-0.0002808797
-0.00030720444
-0.00033282063
-0.00035757939
-0.00038169802
-0.00040483866
-0.00042506595
-0.00043786362
-0.00051296815
-0.00054171993
-0.00057465121
-0.00060471179
-0.00063122708
-0.00065531078
-0.00067848633
-0.00070148578
-0.00072343252
-0.00073966489
-0.00075137599
-0.00081541474
-0.00086382833
-0.00089835203
-0.00092443128
-0.00094648081
-0.00096779921
-0.00099142701
-0.0010197478
-0.0010502272
-0.00091942473
-0.0010974914
-0.0011596208
-0.0011932034
-0.0012144367
-0.0012309612
-0.0012474617
-0.0012691403
-0.0013062619
-0.001384271
-0.00048966144
-0.0006224586
-0.00065557661
-0.00067084621
-0.0006794626
-0.00068576801
-0.00069226027
-0.00070200038
-0.00072273968
-0.0007800095
0.0011407446
0.00097418963
0.00093879268
0.00092465446
0.00091562676
0.00090697919
0.00089488042
0.00087205087
0.00081687088
0.00065474999
0.0016824006
0.0014804487
0.001421303
0.0013905795
0.0013680964
0.0013460471
0.0013175739
0.0012712177
0.0011808621
0.00097884185
0.00085651707
0.00080698191
0.00076664781
0.00073431002
0.00070610802
0.00067766268
0.00064453411
0.00060136618
0.00054402301
0.00048572447
0.00043172001
0.00040855411
0.00037851342
0.0003480143
0.00031819204
0.00028796416
0.00025540309
0.00021943816
0.00018196905
0.00015314754
4.7981299e-05
3.0306008e-05
3.4489564e-06
-2.6341332e-05
-5.6601196e-05
-8.6924447e-05
-0.00011761315
-0.00014833155
-0.00017608644
-0.00019419852
-0.00031201209
-0.00033275845
-0.00036253462
-0.00039433233
-0.00042532357
-0.00045534427
-0.00048467899
-0.00051292343
-0.00053768896
-0.00055339863
-0.00064585901
-0.00068078734
-0.00072068838
-0.00075708382
-0.00078921438
-0.00081849093
-0.00084679355
-0.0008750647
-0.00090224411
-0.00092248481
-0.00093989604
-0.0010179056
-0.0010766078
-0.0011184167
-0.0011500418
-0.00117689
-0.0012030518
-0.0012323406
-0.0012678309
-0.0013063547
-0.0011517873
-0.0013690881
-0.0014441632
-0.0014847299
-0.0015104538
-0.0015305968
-0.001550929
-0.0015780169
-0.0016249431
-0.0017241945
-0.00061461585
-0.00077673671
-0.00081663611
-0.00083503528
-0.00084545765
-0.00085314734
-0.00086116733
-0.00087338806
-0.00089969113
-0.00097263936
0.0013013555
0.0011105863
0.0010701924
0.001054003
0.0010435824
0.0010335222
0.0010193818
0.00099262895
0.00092787338
0.00073742604
0.0019143602
0.0016831972
0.0016156579
0.0015804131
0.0015544335
0.0015287863
0.001495527
0.0014412659
0.0013353835
0.0010985014
0.00096523001
0.00090864666
0.00086244591
0.00082521116
0.0007925481
0.0007594482
0.00072077379
0.00067031084
0.00060329493
0.00053544445
0.0004755453
0.00044893535
0.00041432088
0.00037903752
0.00034440593
0.00030918305
0.00027115998
0.00022911381
0.00018532602
0.00015174322
3.0720503e-05
1.0239753e-05
-2.0906291e-05
-5.5523183e-05
-9.0760753e-05
-0.00012615303
-0.00016204862
-0.00019802329
-0.00023054478
-0.00025174424
-0.00038891829
-0.00041311894
-0.00044782482
-0.00048489323
-0.00052107076
-0.00055618107
-0.00059057646
-0.00062378311
-0.00065296501
-0.00067150671
-0.00078038057
-0.00082127384
-0.00086790093
-0.00091041118
-0.00094797017
-0.00098228144
-0.0010155722
-0.0010489868
-0.0010812742
-0.0011054236
-0.0011275714
-0.0012190798
-0.0012877149
-0.0013365587
-0.0013735488
-0.0014050549
-0.0014359374
-0.0014707569
-0.0015132454
-0.0015596005
-0.0013806314
-0.0016358343
-0.0017233959
-0.0017707007
-0.0018007665
-0.0018244216
-0.0018484901
-0.0018808585
-0.0019373337
-0.0020572193
-0.00073712179
-0.00092756911
-0.00097400391
-0.00099541962
-0.0010075867
-0.0010166191
-0.0010261284
-0.0010407685
-0.0010724835
-0.0011606541
0.0014530245
0.0012392215
0.0011940871
0.0011759526
0.0011642083
0.0011527992
0.0011367041
0.0011061913
0.0010322581
0.00081465796
0.0021319751
0.0018730376
0.0017975421
0.0017580094
0.0017287056
0.001699624
0.0016617839
0.0015999494
0.00147919
0.0012089057
0.0010643166
0.0010010476
0.00094928834
0.00090740808
0.00087049962
0.00083295639
0.00078897525
0.00073152459
0.00065524534
0.00057826086
0.00051213117
0.0004822524
0.00044329469
0.00040346369
0.00036424767
0.00032425114
0.00028099826
0.00023312383
0.00018328164
0.00014514309
8.7121213e-06
-1.4441268e-05
-4.9673321e-05
-8.8892962e-05
-0.00012888582
-0.00016913093
-0.00021001981
-0.00025104073
-0.00028813883
-0.00031229895
-0.00046795274
-0.00049545695
-0.00053487437
-0.00057698131
-0.00061812378
-0.00065811529
-0.00069737376
-0.00073535527
-0.00076879006
-0.00079005645
-0.00091430632
-0.00096091416
-0.0010139809
-0.0010623459
-0.0011051082
-0.0011442557
-0.0011823482
-0.0012207231
-0.0012579398
-0.001285859
-0.0013118454
-0.0014162915
-0.0014944394
-0.0015500214
-0.001592156
-0.0016281404
-0.0016635723
-0.001703732
-0.0017529772
-0.0018068871
-0.0016034006
-0.001894934
-0.0019944444
-0.0020481977
-0.002082425
-0.002109456
-0.0021371262
-0.0021745919
-0.0022402813
-0.0023800644
-0.00085596178
-0.0010735619
-0.0011262461
-0.0011505464
-0.0011643846
-0.0011747065
-0.001185651
-0.0012026257
-0.0012395609
-0.0013424088
0.0015951128
0.0013595951
0.0013100002
0.0012900356
0.0012770415
0.0012643545
0.001246404
0.0012123187
0.0011296627
0.00088625134
0.0023346806
0.0020495679
0.0019665891
0.00192302
0.0018905782
0.0018582436
0.0018160566
0.0017470285
0.0016121353
0.0013101152
0.0011542019
0.0010846424
0.001027654
0.00098139558
0.0009404768
0.0008987247
0.0008497081
0.00078562236
0.0007005481
0.00061490418
0.00054236941
0.0005094108
0.00046635844
0.00042223362
0.00037868098
0.00033415919
0.00028594132
0.00023253033
0.00017693822
0.00013447835
-1.6791235e-05
-4.2472324e-05
-8.1567593e-05
-0.00012514325
-0.00016964199
-0.00021449315
-0.0002601275
-0.00030594787
-0.00034739874
-0.00037437223
-0.00054752458
-0.00057816217
-0.00062204609
-0.00066893087
-0.00071478574
-0.00075941636
-0.00080330441
-0.00084583534
-0.00088332498
-0.00090718783
-0.0010457379
-0.0010977738
-0.0011569531
-0.0012108761
-0.0012585819
-0.0013023308
-0.0013450009
-0.0013881104
-0.0014300365
-0.0014615572
-0.0014906106
-0.0016073519
-0.001694532
-0.0017565119
-0.0018035351
-0.0018437831
-0.0018835556
-0.0019288187
-0.0019845256
-0.0020456612
-0.0018180013
-0.0021440686
-0.0022549146
-0.0023147868
-0.0023529666
-0.0023832111
-0.0024143191
-0.0024566579
-0.0025311616
-0.0026899807
-0.00097013052
-0.0012135419
-0.0012721506
-0.0012991858
-0.0013146105
-0.0013261593
-0.0013384734
-0.0013576801
-0.0013996089
-0.0015164991
0.0017269292
0.0014711493
0.0014174001
0.0013957293
0.0013815662
0.0013676794
0.0013479837
0.0013105357
0.0012196664
0.00095194422
0.0025217348
0.0022122057
0.0021222579
0.0020749238
0.0020395463
0.0020041592
0.0019578849
0.0018820881
0.0017338922
0.0014019985
0.001235054
0.0011596339
0.001097772
0.0010474251
0.0010027514
0.00095704959
0.00090329968
0.00083297329
0.00073962775
0.000645853
0.0005669056
0.00053107176
0.000484194
0.00043605117
0.00038843274
0.00033966123
0.00028677453
0.00022815438
0.00016715371
0.00012063446
-4.4763374e-05
-7.2813255e-05
-0.00011552801
-0.00016318873
-0.00021191796
-0.00026109976
-0.00031120025
-0.00036154144
-0.00040709153
-0.00043671246
-0.00062628445
-0.00065986697
-0.00070794581
-0.00075931873
-0.00080960403
-0.00085860105
-0.00090685188
-0.00095367474
-0.00099499133
-0.0010213044
-0.0011730563
-0.0012301999
-0.0012951273
-0.0013542762
-0.0014066342
-0.0014547179
-0.0015017079
-0.0015492916
-0.0015956725
-0.0016306016
-0.0016620725
-0.0017903899
-0.0018860652
-0.0019540618
-0.002005686
-0.0020499531
-0.0020938255
-0.0021439177
-0.0022057465
-0.0022737316
-0.0020226295
-0.002381221
-0.0025027191
-0.0025683413
-0.002610239
-0.0026435124
-0.0026778686
-0.0027248223
-0.0028076825
-0.0029845575
-0.0010787495
-0.0013464716
-0.0014106432
-0.0014402464
-0.0014571624
-0.0014698673
-0.0014834755
-0.0015047963
-0.0015514606
-0.0016816713
0.0018477842
0.0015733184
0.0015157464
0.0014925032
0.0014772585
0.0014622576
0.0014409379
0.0014003578
0.0013018353
0.0010114529
0.0026923331
0.0023602953
0.0022639339
0.0022131277
0.0021750332
0.0021368119
0.0020867356
0.0020046367
0.0018440517
0.0014843307
0.0013068903
0.0012260751
0.0011597227
0.0011055995
0.0010574478
0.0010080784
0.00094992647
0.0008737927
0.00077275091
0.00067142394
0.00058620419
0.00054771625
0.00049730345
0.00044544134
0.00039405164
0.00034133164
0.00028410149
0.00022063312
0.00015459926
0.00010430803
-7.4372217e-05
-0.00010461787
-0.00015068803
-0.00020213896
-0.00025479774
-0.00030800787
-0.0003622667
-0.00041681985
-0.00046618937
-0.00049827476
-0.0007030912
-0.00073941189
-0.00079138874
-0.00084693322
-0.00090133889
-0.00095440217
-0.0010067201
-0.0010575484
-0.0011024387
-0.0011310395
-0.0012948726
-0.0013567723
-0.0014270478
-0.001491058
-0.0015477463
-0.00159987
-0.0016508925
-0.0017026595
-0.0017532109
-0.0017913327
-0.0018246738
-0.0019637764
-0.0020673577
-0.002140952
-0.0021968599
-0.0022448747
-0.0022925785
-0.002347193
-0.0024147637
-0.0024891787
-0.0022156875
-0.0026045924
-0.0027359935
-0.0028069611
-0.0028523186
-0.002888416
-0.0029258096
-0.0029770893
-0.0030677953
-0.0032616346
-0.00118103
-0.0014714123
-0.001540751
-0.0015727393
-0.0015910422
-0.0016048246
-0.001619643
-0.0016429465
-0.0016940581
-0.0018367858
0.001957019
0.0016655588
0.001604519
0.0015798466
0.0015636141
0.0015475913
0.0015247788
0.0014813167
0.0013757483
0.0010644961
0.0028456693
0.0024931693
0.0023909884
0.0023370238
0.0022964471
0.0022556273
0.0022020576
0.0021141624
0.0019421784
0.0015568481
0.0013696412
0.001283929
0.0012134957
0.0011559303
0.0011045982
0.0010518657
0.00098967016
0.00090819809
0.00080008313
0.00069182897
0.00060060287
0.00055969808
0.00050606161
0.00045080063
0.00039595672
0.00033961353
0.00027839212
0.00021046663
0.00013980661
8.6053935e-05
-0.00010494026
-0.00013719553
-0.00018633678
-0.00024126024
-0.00029752387
-0.00035443422
-0.0004125176
-0.00047094692
-0.00052383176
-0.00055818324
-0.0007769782
-0.00081581359
-0.00087136773
-0.00093074168
-0.00098893232
-0.0010457354
-0.0011017988
-0.0011563201
-0.0012045077
-0.0012352194
-0.0014099852
-0.0014762598
-0.00155145
-0.0016199273
-0.0016805969
-0.0017364401
-0.0017911816
-0.0018468135
-0.0019012242
-0.0019423034
-0.0019770466
-0.0021260771
-0.0022369258
-0.0023156641
-0.0023755113
-0.0024269783
-0.0024782202
-0.0025370209
-0.0026099169
-0.0026903026
-0.0023957444
-0.002812565
-0.0029530588
-0.0030289341
-0.0030774715
-0.0031161705
-0.0031563708
-0.0032116603
-0.0033096525
-0.0035192598
-0.001276257
-0.0015875092
-0.0016615873
-0.0016957633
-0.00171534
-0.0017301148
-0.0017460518
-0.001771194
-0.0018264374
-0.0019808013
0.0020540216
0.0017473635
0.001683232
0.0016572824
0.0016401621
0.0016232162
0.001599051
0.0015529748
0.0014410113
0.0011108082
0.002980976
0.0026101864
0.0025028158
0.0024460254
0.0024032166
0.0023600497
0.0023033166
0.002210167
0.0020278442
0.0016192804
0.0014231924
0.0013331113
0.0012590314
0.0011983789
0.0011441832
0.0010884125
0.001022557
0.00093624881
0.00082172735
0.00070721379
0.00061035079
0.00056728089
0.00051075161
0.00045243271
0.00039447275
0.0003348538
0.00027001847
0.0001980545
0.00012320409
6.632183e-05
-0.00013590869
-0.00016997491
-0.00022188443
-0.00027994141
-0.00033946333
-0.00039972312
-0.00046127323
-0.00052321871
-0.00057929268
-0.00061569792
-0.0008471213
-0.00088823236
-0.00094702126
-0.0010098586
-0.0010714755
-0.0011316685
-0.0011911321
-0.0012490105
-0.0013001982
-0.001332831
-0.0015173496
-0.001587591
-0.0016672323
-0.0017397547
-0.0018040317
-0.0018632503
-0.0019213736
-0.0019805278
-0.0020384622
-0.0020822448
-0.0021179822
-0.002276022
-0.0023934547
-0.0024768516
-0.0025402691
-0.0025948711
-0.0026493352
-0.0027119596
-0.0027897313
-0.0028755913
-0.0025615152
-0.0030036817
-0.0031524017
-0.0032327167
-0.0032841344
-0.003325196
-0.0033679549
-0.0034269129
-0.0035315866
-0.0037556687
-0.0013637828
-0.0016939858
-0.0017723465
-0.0018084993
-0.0018292288
-0.0018449046
-0.0018618616
-0.0018886872
-0.0019477215
-0.0021127693
0.0021382386
0.0018182728
0.0017514448
0.0017243778
0.001706475
0.0016887105
0.0016633415
0.0016149352
0.0014972668
0.0011501488
0.0030975486
0.0027107548
0.0025988562
0.0025395901
0.0024948129
0.0024495649
0.0023900181
0.0022921881
0.0021006506
0.0016713725
0.0014674147
0.0013735197
0.0012962501
0.0012328843
0.0011761592
0.0011176939
0.0010485845
0.00095797228
0.00083775048
0.0007176839
0.00061563828
0.00057066848
0.00051159492
0.00045057759
0.00038985911
0.00032733183
0.00025928237
0.00018372359
0.00010514443
4.5483756e-05
-0.00016681084
-0.00020247816
-0.00025683609
-0.00031766857
-0.00038008181
-0.0004433196
-0.00050795703
-0.00057303671
-0.00063195396
-0.00067018803
-0.00091281262
-0.00095594606
-0.0010176074
-0.0010835207
-0.0011481842
-0.0012113959
-0.0012738932
-0.0013347718
-0.0013886439
-0.001422996
-0.0016160552
-0.0016898305
-0.0017734319
-0.0018495521
-0.0019170402
-0.0019792692
-0.0020404161
-0.0021027277
-0.0021638283
-0.0022100439
-0.0022464129
-0.0024124876
-0.0025357803
-0.0026233216
-0.0026899183
-0.0027473186
-0.002804669
-0.0028707308
-0.0029528983
-0.0030437026
-0.0027118491
-0.0031766354
-0.0033326647
-0.0034169239
-0.0034709045
-0.0035140751
-0.0035591287
-0.0036213913
-0.0037321005
-0.0039692751
-0.0014430231
-0.0017901411
-0.0018723012
-0.0019102077
-0.0019319619
-0.0019484418
-0.001966314
-0.0019946574
-0.0020571183
-0.002231832
0.0022091837
0.0018778825
0.0018087699
0.0017807523
0.0017621772
0.0017437035
0.001717287
0.0016668489
0.0015442011
0.0011823083
0.003194764
0.0027943503
0.0026786133
0.0026172368
0.002570767
0.0025237168
0.0024617232
0.002359816
0.0021602448
0.001712899
0.0015021843
0.001405054
0.0013250708
0.0012593823
0.0012004774
0.0011396781
0.0010677408
0.00097338332
0.0008482025
0.0007233233
0.00061661937
0.00057002659
0.00050877301
0.00044543325
0.00038233057
0.00031728051
0.00024643644
0.00016774878
8.5925538e-05
2.3854599e-05
-0.00019725036
-0.00023429917
-0.00029077041
-0.00035400333
-0.0004189231
-0.000484749
-0.00055207516
-0.00061988776
-0.00068128475
-0.00072111152
-0.00097344167
-0.0010183318
-0.0010824855
-0.0011510684
-0.0012183796
-0.0012842205
-0.0013493661
-0.0014128694
-0.0014690934
-0.0015049526
-0.0017053074
-0.0017821619
-0.0018692082
-0.0019484568
-0.0020187399
-0.0020835955
-0.0021473888
-0.0022124735
-0.0022763633
-0.0023247265
-0.0023613989
-0.0025344848
-0.0026628773
-0.0027540232
-0.0028233882
-0.0028832327
-0.0029431156
-0.0030122072
-0.0030982636
-0.003193452
-0.0028457239
-0.0033302645
-0.0034926408
-0.0035803245
-0.0036365351
-0.0036815483
-0.0037286183
-0.0037938013
-0.003909863
-0.0041586672
-0.0015134565
-0.0018753494
-0.0019608022
-0.0020002286
-0.0020228732
-0.0020400553
-0.0020587324
-0.0020884185
-0.0021539207
-0.0023372227
0.0022664438
0.0019258497
0.0018548786
0.0018260829
0.0018069499
0.0017878808
0.0017605797
0.0017084207
0.0015815497
0.0012071131
0.003272094
0.0028605288
0.0027416668
0.0026785582
0.0026306821
0.0025821196
0.0025180614
0.0024127052
0.0022063307
0.0017436755
0.0015273975
0.0014276307
0.0013454269
0.0012778206
0.0012170992
0.0011543406
0.0010800189
0.00098249788
0.00085313
0.0007242083
0.0006134274
0.00056549865
0.00050244265
0.00043717096
0.00037207312
0.00030490133
0.00023169944
0.00015036815
6.5805437e-05
1.7071761e-06
-0.00022688525
-0.00026508733
-0.00032332383
-0.00038856737
-0.0004555934
-0.00052360156
-0.00059320131
-0.00066332856
-0.00072682659
-0.00076800014
-0.0010284806
-0.0010748508
-0.0011411013
-0.001211931
-0.001281475
-0.0013495389
-0.001416931
-0.0014826674
-0.0015408965
-0.0015780413
-0.001784417
-0.0018638771
-0.0019538314
-0.0020357198
-0.0021083646
-0.0021754468
-0.0022414931
-0.0023089494
-0.0023752343
-0.0024254464
-0.0024621208
-0.0026411508
-0.0027738515
-0.0028680397
-0.0029397455
-0.003001665
-0.003063711
-0.0031354062
-0.0032248206
-0.0033238056
-0.0029622432
-0.0034635508
-0.003631273
-0.0037218403
-0.0037799339
-0.003826512
-0.0038753079
-0.003943009
-0.0040637073
-0.0043226066
-0.0015746241
-0.0019490607
-0.0020372794
-0.0020779824
-0.0021013777
-0.002119156
-0.0021385225
-0.0021693682
-0.0022375075
-0.0024282675
0.0023096844
0.0019618969
0.0018895049
0.0018601085
0.0018405355
0.0018209885
0.001792971
0.0017394127
0.0016091007
0.001224429
0.0033291156
0.002908936
0.0027876817
0.0027232299
0.0026742426
0.0026244672
0.0025587392
0.0024505837
0.0022386783
0.001763566
0.0015429827
0.0014411943
0.0013572766
0.0012881694
0.0012260056
0.0011616747
0.0010854269
0.00098534363
0.00085258637
0.00072041718
0.00060618733
0.00055721797
0.00049274827
0.00042594702
0.0003592554
0.00029037602
0.00021526766
0.00013179424
4.5013583e-05
-2.0716588e-05
-0.00025541624
-0.00029453617
-0.00035417889
-0.00042103084
-0.0004897499
-0.00055952091
-0.00063096509
-0.00070297452
-0.00076818193
-0.00081044821
-0.0010774735
-0.0011250379
-0.0011929768
-0.0012656166
-0.0013369646
-0.0014068319
-0.0014760549
-0.0015436189
-0.0016034939
-0.001641695
-0.0018527911
-0.0019343669
-0.0020266747
-0.002110698
-0.0021852564
-0.0022541516
-0.0023220435
-0.0023914554
-0.0024597263
-0.0025114777
-0.0025478741
-0.0027317444
-0.0028679351
-0.002964585
-0.0030381891
-0.0031018018
-0.0031656281
-0.0032394847
-0.0033317055
-0.0034338767
-0.003060635
-0.0035756187
-0.0037476526
-0.0038405452
-0.0039001635
-0.0039480188
-0.0039982396
-0.0040680411
-0.0041926316
-0.0044600295
-0.0016261305
-0.0020108022
-0.0021012428
-0.0021429714
-0.002166973
-0.0021852377
-0.0022051741
-0.002236989
-0.0023073453
-0.002504387
0.002338653
0.0019858161
0.0019124494
0.0018826336
0.0018627413
0.0018428369
0.0018142757
0.0017596482
0.0016266986
0.0012341634
0.0033655181
0.0029393146
0.0028164154
0.0027510177
0.0027012212
0.0026505398
0.0025835472
0.0024732591
0.0022571293
0.0017724892
0.001548908
0.0014457255
0.0013606112
0.0012904291
0.0012272062
0.0011616997
0.0010839958
0.00098196738
0.00084663927
0.00071203758
0.00059502474
0.00054531655
0.00047983057
0.00041191159
0.00034403736
0.00027387509
0.00019732343
0.00011222259
2.3759134e-05
-4.3197584e-05
-0.00028257782
-0.00032237451
-0.00038305577
-0.00045110393
-0.00052109228
-0.00059219602
-0.00066504405
-0.00073849158
-0.00080500621
-0.00084810443
-0.0011200286
-0.0011684942
-0.0012377026
-0.0013117047
-0.0013844166
-0.0014556565
-0.0015262835
-0.0015952584
-0.00165641
-0.0016954317
-0.0019099274
-0.001993116
-0.0020872081
-0.0021728482
-0.0022488606
-0.0023191438
-0.0023884626
-0.0024594019
-0.0025292379
-0.0025822091
-0.0026180658
-0.0028056429
-0.0029444838
-0.0030429995
-0.0031180481
-0.0031829616
-0.0032481746
-0.0033237369
-0.0034181953
-0.0035229226
-0.0031402513
-0.0036657362
-0.0038410211
-0.003935666
-0.0039964413
-0.0040452788
-0.0040966145
-0.004168086
-0.0042958002
-0.0045700479
-0.0016676438
-0.002060179
-0.0021522838
-0.0021947807
-0.0022192405
-0.0022378789
-0.0022582623
-0.0022908501
-0.0023629895
-0.0025650978
0.0023531819
0.001997471
0.0019235819
0.0018935304
0.0018734413
0.0018533022
0.0018243735
0.0017690137
0.0016342461
0.0012362675
0.0033811096
0.0029515097
0.0028277233
0.002761783
0.0027114842
0.0026602091
0.002592365
0.0024806243
0.0022616025
0.0017704228
0.0015451876
0.0014412471
0.0013554609
0.0012846365
0.0012207444
0.0011544661
0.0010757852
0.00097244075
0.00083537621
0.00069917196
0.00058007231
0.00052993172
0.00046383322
0.00039521524
0.00032657685
0.00025556429
0.00017804132
9.1837815e-05
2.2370925e-06
-6.5533259e-05
-0.00030813173
-0.0003483599
-0.00040970553
-0.00047853033
-0.00054935653
-0.00062135445
-0.00069515721
-0.00076958993
-0.00083700154
-0.00088066585
-0.001155813
-0.0012048809
-0.0012749322
-0.0013498401
-0.0014234677
-0.0014956408
-0.0015672364
-0.0016371969
-0.0016992478
-0.0017388494
-0.0019554096
-0.0020396981
-0.0021349945
-0.0022217235
-0.0022987209
-0.0023699589
-0.0024402771
-0.0025123063
-0.0025832766
-0.002637141
-0.0026722127
-0.0028623401
-0.0030029752
-0.0031027491
-0.0031787794
-0.0032445934
-0.0033107908
-0.003387593
-0.0034837066
-0.003590344
-0.0032005688
-0.0037333151
-0.0039107703
-0.0040065839
-0.0040681414
-0.0041176598
-0.0041697939
-0.0042424944
-0.0043725449
-0.0046519513
-0.0016988969
-0.0020968755
-0.0021900766
-0.0022330798
-0.002257847
-0.0022767441
-0.0022974486
-0.0023306084
-0.002404086
-0.0026100149
0.0023531908
0.0019967988
0.0019228429
0.0018927411
0.0018725791
0.0018523295
0.0018232114
0.0017674607
0.001631706
0.0012307376
0.0033758207
0.0029454729
0.0028215625
0.002755486
0.0027049951
0.0026534426
0.0025851652
0.0024726608
0.0022520976
0.0017574063
0.0015318862
0.0014278284
0.0013418993
0.0012708693
0.0012067019
0.0011400604
0.0010608877
0.00095686438
0.00081890847
0.00068194147
0.00056147491
0.00051121108
0.00044490755
0.00037601366
0.00030703434
0.00023560931
0.00015759307
7.0818406e-05
-1.9367168e-05
-8.7533182e-05
-0.00033186192
-0.00037227354
-0.00043390539
-0.0005030825
-0.00057430972
-0.00064675795
-0.0007210603
-0.00079601924
-0.00086391216
-0.00090787329
-0.0011845474
-0.0012339151
-0.0013043773
-0.0013797293
-0.0014538186
-0.0015264799
-0.0015986026
-0.0016691172
-0.0017316848
-0.0017716221
-0.0019889047
-0.0020737735
-0.0021696865
-0.0022569695
-0.0023344774
-0.0024062308
-0.0024771147
-0.0025497898
-0.0026214568
-0.002675882
-0.0027099389
-0.0029014444
-0.0030430066
-0.0031434236
-0.0032199669
-0.0032862755
-0.0033530491
-0.0034306174
-0.0035277935
-0.0036356835
-0.0032411887
-0.0037779118
-0.0039564432
-0.0040528348
-0.0041147948
-0.0041646888
-0.0042172997
-0.004290781
-0.0044223658
-0.0047052083
-0.0017196877
-0.0021206561
-0.002214379
-0.0022576231
-0.002282545
-0.0023015843
-0.0023224822
-0.0023560095
-0.0024303723
-0.002638852
0.0023386876
0.0019838119
0.0019102452
0.0018802785
0.001860168
0.0018399326
0.0018108049
0.0017550068
0.0016191021
0.001217616
0.0033497075
0.0029212651
0.0027979946
0.0027321894
0.0026818177
0.0026303055
0.0025620159
0.0024494414
0.0022286965
0.0017335437
0.0015091226
0.0014055892
0.0013200469
0.0012492493
0.0011852022
0.0011186084
0.0010394321
0.00093537128
0.00079737458
0.00066048928
0.00053939368
0.00048931649
0.00042321676
0.00035447176
0.00028557685
0.00021417976
0.0001361513
4.9340546e-05
-4.0873797e-05
-0.00010901521
-0.00035357066
-0.00039391653
-0.00045545455
-0.00052455745
-0.00059574657
-0.00066819841
-0.00074254216
-0.00081756515
-0.00088552066
-0.00092950753
-0.0012060032
-0.0012553664
-0.001325805
-0.0014011365
-0.0014752306
-0.0015479321
-0.0016201371
-0.0016907711
-0.0017534696
-0.0017934962
-0.0020101597
-0.0020950855
-0.0021910238
-0.0022783227
-0.002355863
-0.0024276894
-0.0024987021
-0.0025715747
-0.0026434965
-0.0026981471
-0.0027309751
-0.0029226779
-0.0030642945
-0.0031647353
-0.0032413195
-0.0033077139
-0.0033746521
-0.0034525083
-0.0035501476
-0.003658625
-0.003261837
-0.0037992279
-0.0039777347
-0.0040741099
-0.0041360905