/*--------------------------------*- C++ -*----------------------------------*\
| =========                 |                                                 |
| \\      /  F ield         | OpenFOAM: The Open Source CFD Toolbox           |
|  \\    /   O peration     | Version:  v2106                                 |
|   \\  /    A nd           | Website:  www.openfoam.com                      |
|    \\/     M anipulation  |                                                 |
\*---------------------------------------------------------------------------*/
FoamFile
{
    version     2.0;
    format      ascii;
    arch        "LSB;label=32;scalar=64";
    class       volScalarField;
    location    "50";
    object      laplacianT;
}
// * * * * * * * * * * * * * * * * * * * * * * * * * * * * * * * * * * * * * //

dimensions      [0 -2 0 1 0 0 0];

internalField   nonuniform List<scalar> 
4000
(
-0.068392201
-0.12737625
-0.12012019
-0.12000316
-0.12002508
-0.12003066
-0.12001937
-0.11999282
-0.11995536
-0.1199167
-0.12737625
-0.17174401
-0.16569384
-0.16563849
-0.16566432
-0.1656664
-0.16564251
-0.16560169
-0.1655454
-0.15943363
-0.1201202
-0.16569383
-0.15974865
-0.15969478
-0.15971656
-0.15971628
-0.15969641
-0.15964889
-0.15959201
-0.1535254
-0.12000315
-0.16563849
-0.15969477
-0.15963479
-0.15966084
-0.15965557
-0.15962959
-0.15958813
-0.15952007
-0.15341664
-0.12002509
-0.16566432
-0.15971658
-0.15966081
-0.15967226
-0.15967759
-0.15964495
-0.15959638
-0.15953618
-0.15342168
-0.12003065
-0.1656664
-0.15971629
-0.15965555
-0.15967757
-0.15966213
-0.15964292
-0.15958733
-0.15951985
-0.15341161
-0.12001938
-0.16564249
-0.15969642
-0.15962961
-0.15964494
-0.15964294
-0.15960216
-0.15955963
-0.15948718
-0.15337456
-0.11999283
-0.1656017
-0.15964888
-0.15958811
-0.15959638
-0.15958733
-0.15955961
-0.15949796
-0.15943527
-0.15332098
-0.11995535
-0.1655454
-0.15959201
-0.15952007
-0.15953616
-0.15951986
-0.15948718
-0.15943527
-0.15935883
-0.15325156
-0.1199167
-0.15943364
-0.15352538
-0.15341665
-0.15342168
-0.1534116
-0.15337456
-0.15332098
-0.15325157
-0.14714281
-0.23431569
-0.37812325
-0.35646261
-0.35584654
-0.35588788
-0.35589495
-0.35585435
-0.35576894
-0.35565014
-0.34493303
-0.37812325
-0.47913846
-0.46135592
-0.46101774
-0.46107109
-0.46106923
-0.46099439
-0.46087138
-0.46070106
-0.42203963
-0.3564626
-0.46135592
-0.44412413
-0.44381304
-0.44385747
-0.44384673
-0.44378253
-0.44364446
-0.44346929
-0.40674084
-0.35584656
-0.46101776
-0.44381304
-0.44348251
-0.44353871
-0.44351587
-0.44343726
-0.44330877
-0.44311145
-0.40624993
-0.35588789
-0.46107107
-0.44385746
-0.44353873
-0.44356152
-0.44355771
-0.44346504
-0.44332052
-0.44313416
-0.40624378
-0.35589495
-0.46106921
-0.44384674
-0.44351588
-0.44355771
-0.44351503
-0.44344323
-0.44328697
-0.44308631
-0.40620385
-0.35585435
-0.46099441
-0.44378253
-0.44343729
-0.44346504
-0.44344323
-0.44333326
-0.44319477
-0.4429856
-0.40610005
-0.35576894
-0.46087138
-0.44364446
-0.44330878
-0.44332053
-0.44328695
-0.4431948
-0.44302612
-0.44282815
-0.40594648
-0.35565014
-0.46070105
-0.44346929
-0.44311145
-0.44313417
-0.44308631
-0.4429856
-0.44282814
-0.44260992
-0.40574637
-0.34493302
-0.42203963
-0.40674084
-0.40624992
-0.40624378
-0.40620383
-0.40610005
-0.40594648
-0.40574637
-0.36534728
-0.45080471
-0.65668312
-0.62305658
-0.6220677
-0.62212861
-0.6221269
-0.62204457
-0.62188264
-0.62165797
-0.58539021
-0.65668312
-0.79933156
-0.77196852
-0.77142727
-0.77150212
-0.77148985
-0.77134971
-0.77112995
-0.77082056
-0.68571547
-0.62305658
-0.77196852
-0.74550413
-0.74501715
-0.74507677
-0.74504843
-0.74492689
-0.74468081
-0.74436084
-0.66344224
-0.62206769
-0.77142729
-0.74501715
-0.74448871
-0.74457214
-0.74452334
-0.74437737
-0.74414646
-0.74379348
-0.66269675
-0.62212859
-0.77150213
-0.74507676
-0.74457214
-0.74459774
-0.74457972
-0.74441266
-0.74415472
-0.74381641
-0.66267566
-0.62212692
-0.77148986
-0.74504842
-0.74452334
-0.74457972
-0.7444992
-0.74436233
-0.74408707
-0.7437275
-0.66259751
-0.62204456
-0.77134971
-0.74492688
-0.74437736
-0.74441265
-0.74436234
-0.74416989
-0.74391727
-0.74354513
-0.66241681
-0.62188264
-0.77112996
-0.74468081
-0.74414645
-0.74415472
-0.74408707
-0.74391727
-0.74362307
-0.74326307
-0.66214926
-0.62165798
-0.77082054
-0.74436085
-0.74379346
-0.7438164
-0.74372751
-0.74354514
-0.74326307
-0.74287459
-0.66179558
-0.5853902
-0.68571548
-0.66344223
-0.66269674
-0.66267565
-0.66259752
-0.66241681
-0.66214927
-0.66179556
-0.56478628
-0.65886911
-0.92533921
-0.8804987
-0.87917278
-0.87924885
-0.879233
-0.87910561
-0.87886137
-0.87852219
-0.81846814
-0.92533921
-1.1093887
-1.0729796
-1.07225
-1.0723397
-1.0723104
-1.0721025
-1.0717767
-1.0713192
-0.9412723
-0.8804987
-1.0729796
-1.0377659
-1.0371169
-1.0371839
-1.037132
-1.0369507
-1.036591
-1.0361168
-0.91260946
-0.87917278
-1.07225
-1.0371169
-1.0364068
-1.036508
-1.0364281
-1.0362115
-1.0358696
-1.0353529
-0.91164126
-0.87924884
-1.0723397
-1.0371839
-1.036508
-1.0365308
-1.0364906
-1.0362476
-1.0358708
-1.0353697
-0.91160266
-0.87923301
-1.0723104
-1.0371319
-1.0364281
-1.0364906
-1.03637
-1.0361615
-1.0357628
-1.0352353
-0.91148151
-0.87910562
-1.0721025
-1.0369507
-1.0362116
-1.0362476
-1.0361615
-1.0358858
-1.035511
-1.0349671
-0.9112203
-0.87886137
-1.0717767
-1.036591
-1.0358696
-1.0358708
-1.0357628
-1.035511
-1.0350869
-1.0345541
-0.91083276
-0.87852218
-1.0713192
-1.0361168
-1.0353529
-1.0353697
-1.0352353
-1.0349671
-1.0345541
-1.0339858
-0.9103149
-0.81846814
-0.9412723
-0.91260946
-0.91164125
-0.91160265
-0.91148152
-0.9112203
-0.91083277
-0.91031489
-0.75963808
-0.8619773
-1.1876834
-1.1319729
-1.1303171
-1.1304033
-1.1303685
-1.1301908
-1.1298613
-1.1294027
-1.045891
-1.1876834
-1.4122291
-1.3670313
-1.3661108
-1.3662118
-1.3661581
-1.3658778
-1.3654428
-1.3648316
-1.190599
-1.1319729
-1.3670313
-1.323314
-1.3224978
-1.3225709
-1.3224879
-1.3222398
-1.3217644
-1.3211309
-1.1557782
-1.1303172
-1.3661108
-1.3224978
-1.3216027
-1.3217181
-1.3216026
-1.3213109
-1.320854
-1.3201703
-1.1545926
-1.1304033
-1.3662117
-1.3225709
-1.3217181
-1.3217368
-1.3216657
-1.3213423
-1.3208433
-1.3201749
-1.1545325
-1.1303685
-1.3661581
-1.3224879
-1.3216026
-1.3216657
-1.3215024
-1.3212153
-1.3206906
-1.3199909
-1.1543643
-1.1301908
-1.3658778
-1.3222398
-1.3213109
-1.3213423
-1.3212153
-1.3208517
-1.3203508
-1.3196317
-1.1540189
-1.1298613
-1.3654427
-1.3217644
-1.320854
-1.3208433
-1.3206906
-1.3203508
-1.3197935
-1.3190837
-1.1535079
-1.1294027
-1.3648316
-1.3211308
-1.3201703
-1.3201749
-1.3199909
-1.3196317
-1.3190837
-1.3183311
-1.1528228
-1.045891
-1.190599
-1.1557783
-1.1545926
-1.1545325
-1.1543643
-1.1540189
-1.1535079
-1.1528228
-0.94971646
-1.0597255
-1.4426982
-1.376463
-1.3744846
-1.3745744
-1.3745183
-1.3742859
-1.3738681
-1.3732897
-1.2668121
-1.4426981
-1.7063765
-1.6526645
-1.6515567
-1.6516594
-1.6515798
-1.6512237
-1.650676
-1.6499118
-1.432554
-1.376463
-1.6526645
-1.6007114
-1.5997294
-1.5998002
-1.5996852
-1.5993656
-1.5987723
-1.5979797
-1.3917922
-1.3744846
-1.6515567
-1.5997293
-1.5986541
-1.5987724
-1.5986199
-1.5982498
-1.5976743
-1.5968245
-1.390393
-1.3745744
-1.6516594
-1.5998002
-1.5987724
-1.598782
-1.5986762
-1.5982705
-1.5976464
-1.5968113
-1.3903077
-1.3745183
-1.6515798
-1.5996852
-1.5986199
-1.5986762
-1.5984675
-1.5980987
-1.5974452
-1.5965741
-1.3900896
-1.3742858
-1.6512237
-1.5993656
-1.5982498
-1.5982705
-1.5980987
-1.5976455
-1.5970155
-1.5961213
-1.3896576
-1.3738681
-1.650676
-1.5987723
-1.5976743
-1.5976464
-1.5974452
-1.5970155
-1.5963224
-1.5954364
-1.389022
-1.3732897
-1.6499118
-1.5979796
-1.5968246
-1.5968113
-1.5965741
-1.5961213
-1.5954364
-1.5944993
-1.3881705
-1.2668121
-1.432554
-1.3917922
-1.3903931
-1.3903077
-1.3900896
-1.3896576
-1.389022
-1.3881705
-1.1339131
-1.2509572
-1.6888406
-1.6124858
-1.6101935
-1.6102837
-1.6102019
-1.6099141
-1.6094071
-1.6087094
-1.4799188
-1.6888406
-1.9900302
-1.9281297
-1.9268386
-1.9269403
-1.9268273
-1.9263961
-1.925735
-1.9248186
-1.6656735
-1.6124858
-1.9281297
-1.8682565
-1.8671103
-1.8671775
-1.8670251
-1.8666334
-1.8659228
-1.864972
-1.6192199
-1.6101935
-1.9268386
-1.8671103
-1.8658595
-1.8659768
-1.865783
-1.8653336
-1.8646402
-1.8636259
-1.617613
-1.6102837
-1.9269403
-1.8671775
-1.8659768
-1.865975
-1.8658295
-1.8653406
-1.8645922
-1.8635917
-1.6174998
-1.6102019
-1.9268273
-1.8670251
-1.865783
-1.8658295
-1.8655719
-1.8651204
-1.8643392
-1.8632985
-1.6172299
-1.6099141
-1.9263961
-1.8666333
-1.8653336
-1.8653406
-1.8651204
-1.8645764
-1.8638186
-1.8627512
-1.6167107
-1.6094071
-1.925735
-1.8659228
-1.8646402
-1.8645923
-1.8643392
-1.8638186
-1.8629899
-1.8619304
-1.6159513
-1.6087094
-1.9248186
-1.864972
-1.8636259
-1.8635917
-1.8632985
-1.8627512
-1.8619304
-1.8608114
-1.6149362
-1.4799188
-1.6656736
-1.6192199
-1.617613
-1.6174998
-1.6172299
-1.6167107
-1.6159513
-1.6149362
-1.3111015
-1.4344922
-1.9245887
-1.8385834
-1.8359881
-1.8360754
-1.8359669
-1.8356215
-1.8350268
-1.8342121
-1.6839009
-1.9245887
-2.2614327
-2.1917235
-2.190253
-2.1903507
-2.1902032
-2.1896951
-2.1889228
-2.1878583
-1.8885223
-1.8385834
-2.1917235
-2.1243
-2.1229911
-2.1230515
-2.1228607
-2.122395
-2.1215692
-2.1204646
-1.8366615
-1.8359881
-2.190253
-2.1229911
-2.1215691
-2.1216818
-2.1214462
-2.1209164
-2.1201069
-2.1189327
-1.8348546
-1.8360754
-2.1903507
-2.1230515
-2.1216818
-2.1216656
-2.1214793
-2.1209065
-2.1200362
-2.1188751
-1.8347116
-1.8359669
-2.1902032
-2.1228607
-2.1214462
-2.1214793
-2.1211723
-2.1206373
-2.1197303
-2.1185244
-1.8343893
-1.8356215
-2.1896951
-2.122395
-2.1209164
-2.1209065
-2.1206373
-2.1200019
-2.1191191
-2.1178831
-1.8337837
-1.8350268
-2.1889228
-2.1215692
-2.1201069
-2.1200362
-2.1197303
-2.1191191
-2.1181571
-2.1169287
-1.8329031
-1.8342121
-2.1878583
-2.1204646
-2.1189327
-2.1188751
-2.1185244
-2.117883
-2.1169287
-2.1156327
-1.831729
-1.6839009
-1.8885223
-1.8366615
-1.8348546
-1.8347116
-1.8343893
-1.8337837
-1.8329032
-1.8317291
-1.4801942
-1.609195
-2.1484845
-2.053357
-2.0504738
-2.0505548
-2.0504184
-2.0500159
-2.0493347
-2.0484071
-1.8775014
-2.1484845
-2.5189073
-2.4418159
-2.440175
-2.4402644
-2.4400811
-2.4394979
-2.4386164
-2.437409
-2.099727
-2.053357
-2.4418159
-2.3672556
-2.3657915
-2.3658418
-2.3656113
-2.3650733
-2.3641348
-2.3628821
-2.0427776
-2.0504738
-2.4401749
-2.3657915
-2.3642062
-2.3643105
-2.364032
-2.3634237
-2.3625006
-2.3611721
-2.0407801
-2.0505548
-2.4402644
-2.3658418
-2.3643105
-2.3642774
-2.3640491
-2.3633943
-2.3624048
-2.3610893
-2.0406064
-2.0504184
-2.4400811
-2.3656113
-2.364032
-2.3640491
-2.3636917
-2.3630755
-2.3620459
-2.360681
-2.0402318
-2.0500159
-2.439498
-2.3650733
-2.3634237
-2.3633943
-2.3630755
-2.3623501
-2.3613459
-2.3599473
-2.0395416
-2.0493347
-2.4386164
-2.3641348
-2.3625006
-2.3624048
-2.3620459
-2.3613459
-2.3602545
-2.3588634
-2.0385438
-2.0484071
-2.437409
-2.3628821
-2.3611721
-2.3610893
-2.360681
-2.3599473
-2.3588634
-2.3573969
-2.0372168
-1.8775014
-2.099727
-2.0427776
-2.04078
-2.0406064
-2.0402318
-2.0395416
-2.0385438
-2.0372168
-1.6401519
-1.7739851
-2.3591439
-2.2554795
-2.2523246
-2.2523979
-2.2522323
-2.2517739
-2.2510095
-2.2499734
-2.0595264
-2.3591439
-2.7608632
-2.676863
-2.6750598
-2.6751396
-2.6749192
-2.6742627
-2.6732766
-2.6719323
-2.2979856
-2.2554795
-2.676863
-2.595624
-2.5940119
-2.594051
-2.5937801
-2.5931713
-2.592125
-2.5907306
-2.2362978
-2.2523246
-2.6750598
-2.5940119
-2.5922711
-2.5923657
-2.5920438
-2.591359
-2.5903276
-2.5888513
-2.2341208
-2.2523979
-2.6751396
-2.594051
-2.5923657
-2.5923146
-2.592044
-2.5913091
-2.5902055
-2.5887425
-2.2339161
-2.2522323
-2.6749192
-2.5937801
-2.5920438
-2.592044
-2.5916359
-2.5909412
-2.5897938
-2.5882774
-2.23349
-2.2517739
-2.6742627
-2.5931713
-2.591359
-2.5913091
-2.5909412
-2.5901286
-2.5890078
-2.5874542
-2.2327183
-2.2510095
-2.6732766
-2.5921249
-2.5903276
-2.5902055
-2.5897938
-2.5890078
-2.5877924
-2.5862461
-2.2316082
-2.2499734
-2.6719323
-2.5907305
-2.5888513
-2.5887425
-2.5882774
-2.5874542
-2.5862461
-2.5846172
-2.2301358
-2.0595264
-2.2979856
-2.2362978
-2.2341208
-2.2339161
-2.23349
-2.2327183
-2.2316082
-2.2301358
-1.7899908
-1.9278446
-2.5552657
-2.4437029
-2.4402945
-2.4403585
-2.440164
-2.4396511
-2.4388072
-2.4376684
-2.2288537
-2.5552657
-2.9858047
-2.895413
-2.8934573
-2.8935255
-2.8932688
-2.8925414
-2.8914557
-2.8899824
-2.482076
-2.4437028
-2.895413
-2.8079958
-2.8062443
-2.8062704
-2.8059601
-2.8052828
-2.8041336
-2.8026057
-2.4160294
-2.4402945
-2.8934573
-2.8062443
-2.8043577
-2.8044405
-2.8040762
-2.8033176
-2.8021832
-2.8005678
-2.4136856
-2.4403585
-2.8935255
-2.8062704
-2.8044404
-2.8043698
-2.8040583
-2.8032463
-2.8020344
-2.8004322
-2.4134501
-2.440164
-2.8932688
-2.8059601
-2.8040762
-2.8040583
-2.8036006
-2.8028304
-2.8015713
-2.799912
-2.4129741
-2.4396511
-2.8925414
-2.8052828
-2.8033176
-2.8032463
-2.8028304
-2.8019343
-2.8007029
-2.7990032
-2.4121246
-2.4388072
-2.8914557
-2.8041336
-2.8021832
-2.8020344
-2.8015713
-2.8007029
-2.7993699
-2.7976771
-2.4109082
-2.4376684
-2.8899824
-2.8026057
-2.8005678
-2.8004322
-2.799912
-2.7990032
-2.7976772
-2.7958951
-2.4092989
-2.2288537
-2.482076
-2.4160294
-2.4136856
-2.4134501
-2.4129741
-2.4121246
-2.4109082
-2.4092989
-1.928789
-2.069823
-2.735639
-2.6168646
-2.6132234
-2.6132767
-2.6130535
-2.6124888
-2.6115697
-2.6103347
-2.3844396
-2.735639
-3.1923435
-3.0961167
-3.0940202
-3.0940754
-3.0937826
-3.0929882
-3.0918087
-3.0902147
-2.6508634
-2.6168646
-3.0961167
-3.0030592
-3.0011788
-3.0011906
-3.0008416
-3.0000997
-2.9988537
-2.9972012
-2.5808647
-2.6132234
-3.0940202
-3.0011788
-2.9991572
-2.9992271
-2.9988214
-2.9979929
-2.9967616
-2.9950164
-2.5783678
-2.6132767
-3.0940754
-3.0011906
-2.9992271
-2.9991361
-2.9987847
-2.9978997
-2.9965862
-2.9948541
-2.5781022
-2.6130535
-3.0937826
-3.0008416
-2.9988214
-2.9987847
-2.9982792
-2.9974374
-2.9960736
-2.994281
-2.5775785
-2.6124888
-3.0929882
-3.0000997
-2.997993
-2.9978997
-2.9974374
-2.9964625
-2.9951272
-2.9932913
-2.5766557
-2.6115697
-3.0918087
-2.9988537
-2.9967616
-2.9965862
-2.9960736
-2.9951272
-2.9936842
-2.9918549
-2.5753399
-2.6103347
-3.0902148
-2.9972012
-2.9950164
-2.9948541
-2.994281
-2.9932913
-2.9918549
-2.9899301
-2.5736032
-2.3844396
-2.6508634
-2.5808647
-2.5783678
-2.5781022
-2.5775785
-2.5766557
-2.5753399
-2.5736032
-2.055692
-2.1990437
-2.8991502
-2.773896
-2.7700438
-2.7700856
-2.7698344
-2.7692207
-2.7682317
-2.7669077
-2.5253246
-2.8991502
-3.3792048
-3.2777357
-3.2755104
-3.2755517
-3.2752241
-3.2743665
-3.2731002
-3.271395
-2.8033072
-2.773896
-3.2777357
-3.179611
-3.1776127
-3.1776095
-3.1772232
-3.1764206
-3.1750851
-3.1733177
-2.7297876
-2.7700438
-3.2755104
-3.1776127
-3.1754676
-3.1755239
-3.1750784
-3.1741847
-3.1728636
-3.1709989
-2.7271525
-2.7700857
-3.2755517
-3.1776095
-3.1755239
-3.1754124
-3.1750225
-3.1740694
-3.1726619
-3.1708102
-2.7268579
-2.7698344
-3.2752241
-3.1772232
-3.1750784
-3.1750225
-3.1744717
-3.1735628
-3.1721022
-3.170187
-2.7262892
-2.7692207
-3.2743665
-3.1764206
-3.1741847
-3.1740694
-3.1735628
-3.1725145
-3.1710831
-3.1691219
-2.7252982
-2.7682317
-3.2731002
-3.1750851
-3.1728635
-3.1726619
-3.1721022
-3.1710831
-3.1695382
-3.1675833
-2.7238907
-2.7669077
-3.271395
-3.1733177
-3.1709989
-3.1708102
-3.170187
-3.1691219
-3.1675833
-3.1655273
-2.7220369
-2.5253246
-2.8033072
-2.7297876
-2.7271525
-2.7268579
-2.7262892
-2.7252982
-2.7238907
-2.7220369
-2.1699184
-2.3147092
-3.0447902
-2.9138282
-2.9097883
-2.9098179
-2.9095397
-2.9088803
-2.9078272
-2.906422
-2.6506402
-3.0447902
-3.5452353
-3.4391491
-3.4368083
-3.4368348
-3.4364742
-3.4355581
-3.4342124
-3.4324062
-2.9384676
-2.9138281
-3.4391491
-3.3365619
-3.3344577
-3.3344388
-3.3340172
-3.3331582
-3.331741
-3.3298694
-2.8618801
-2.9097883
-3.4368082
-3.3344577
-3.3322018
-3.3322437
-3.3317607
-3.3308066
-3.3294034
-3.3274305
-2.8591227
-2.9098179
-3.4368348
-3.3344388
-3.3322437
-3.3321118
-3.3316854
-3.3306695
-3.3291762
-3.327216
-2.8588006
-2.9095397
-3.4364742
-3.3340172
-3.3317607
-3.3316854
-3.3310921
-3.3301213
-3.3285724
-3.3265461
-2.8581898
-2.9088803
-3.4355581
-3.3331582
-3.3308066
-3.3306695
-3.3301213
-3.3290055
-3.3274863
-3.3254117
-2.8571364
-2.9078272
-3.4342124
-3.331741
-3.3294034
-3.3291762
-3.3285724
-3.3274863
-3.3258489
-3.32378
-2.8556456
-2.906422
-3.4324061
-3.3298694
-3.3274305
-3.327216
-3.3265461
-3.3254117
-3.32378
-3.3216052
-2.8536859
-2.6506402
-2.9384676
-2.8618801
-2.8591227
-2.8588006
-2.8581898
-2.8571364
-2.8556456
-2.8536859
-2.2707647
-2.4161057
-3.1716603
-3.0357975
-3.0315946
-3.0316116
-3.0313078
-3.0306065
-3.0294953
-3.0280175
-2.7596139
-3.1716603
-3.6894105
-3.5793611
-3.5769189
-3.5769301
-3.5765382
-3.575569
-3.5741518
-3.5722554
-3.0555114
-3.0357975
-3.5793611
-3.4729433
-3.4707461
-3.4707114
-3.4702566
-3.4693463
-3.4678558
-3.4658913
-2.976328
-3.0315946
-3.5769189
-3.4707461
-3.468393
-3.4684198
-3.4679019
-3.4668931
-3.4654161
-3.463347
-2.973465
-3.0316116
-3.5769301
-3.4707114
-3.4684198
-3.468268
-3.4678074
-3.4667347
-3.4651645
-3.4631077
-2.973117
-3.0313078
-3.5765382
-3.4702566
-3.4679019
-3.4678074
-3.467175
-3.4661478
-3.4645199
-3.4623948
-2.9724677
-3.0306065
-3.575569
-3.4693463
-3.4668931
-3.4667347
-3.4661478
-3.464971
-3.4633732
-3.4611977
-2.9713581
-3.0294953
-3.5741518
-3.4678558
-3.4654161
-3.4651645
-3.4645199
-3.4633732
-3.4616529
-3.4594827
-2.9697928
-3.0280175
-3.5722555
-3.4658912
-3.463347
-3.4631077
-3.4623948
-3.4611977
-3.4594827
-3.4572022
-2.9677392
-2.7596139
-3.0555114
-2.976328
-2.973465
-2.973117
-2.9724677
-2.9713581
-2.9697928
-2.9677392
-2.3576095
-2.5026075
-3.2789777
-3.1390516
-3.1347114
-3.1347154
-3.1343876
-3.1336485
-3.132486
-3.1309445
-2.8515737
-3.2789777
-3.8108411
-3.6975068
-3.6949779
-3.6949736
-3.6945524
-3.6935359
-3.6920557
-3.6900807
-3.1537169
-3.1390516
-3.6975068
-3.5879143
-3.5856374
-3.5855867
-3.5851014
-3.584145
-3.5825902
-3.5805447
-3.0724257
-3.1347114
-3.6949779
-3.5856374
-3.5832013
-3.5832126
-3.5826628
-3.5816051
-3.5800633
-3.5779105
-3.0694746
-3.1347154
-3.6949736
-3.5855867
-3.5832127
-3.5830416
-3.5825493
-3.5814261
-3.5797885
-3.5776476
-3.0691026
-3.1343876
-3.6945524
-3.5851013
-3.5826627
-3.5825493
-3.5818813
-3.5808039
-3.5791069
-3.5768959
-3.0684186
-3.1336485
-3.6935359
-3.584145
-3.5816051
-3.5814261
-3.580804
-3.5795732
-3.5779064
-3.5756432
-3.0672594
-3.132486
-3.6920557
-3.5825902
-3.5800632
-3.5797885
-3.5791069
-3.5779064
-3.5761136
-3.5738553
-3.0656292
-3.1309445
-3.6900807
-3.5805447
-3.5779105
-3.5776476
-3.5768959
-3.5756432
-3.5738553
-3.571483
-3.0634942
-2.8515737
-3.1537169
-3.0724257
-3.0694746
-3.0691026
-3.0684185
-3.0672594
-3.0656292
-3.0634942
-2.429918
-2.5736809
-3.3660804
-3.2229535
-3.2185026
-3.2184935
-3.2181434
-3.2173709
-3.2161641
-3.2145683
-2.9259527
-3.3660804
-3.9087778
-3.7928573
-3.7902571
-3.790237
-3.7897891
-3.7887312
-3.787197
-3.7851556
-3.2324788
-3.2229535
-3.7928573
-3.6807656
-3.6784228
-3.6783563
-3.6778432
-3.6768465
-3.6752368
-3.6731229
-3.1495808
-3.2185026
-3.7902571
-3.6784228
-3.6759186
-3.6759143
-3.6753355
-3.6742355
-3.6726381
-3.6704148
-3.1465597
-3.2184935
-3.7902371
-3.6783563
-3.6759143
-3.6757249
-3.6752037
-3.6740367
-3.6723417
-3.6701298
-3.1461658
-3.2181434
-3.7897891
-3.6778432
-3.6753356
-3.6752037
-3.6745041
-3.673383
-3.671627
-3.6693437
-3.1454511
-3.2173709
-3.7887312
-3.6768465
-3.6742355
-3.6740367
-3.673383
-3.6721056
-3.6703799
-3.6680429
-3.1442494
-3.2161641
-3.787197
-3.6752368
-3.6726381
-3.6723417
-3.671627
-3.6703799
-3.6685255
-3.666193
-3.1425641
-3.2145683
-3.7851556
-3.6731228
-3.6704148
-3.6701299
-3.6693437
-3.6680429
-3.666193
-3.6637434
-3.1403609
-2.9259527
-3.2324788
-3.1495808
-3.1465597
-3.1461658
-3.1454511
-3.1442494
-3.1425641
-3.1403609
-2.4872446
-2.6288876
-3.4324311
-3.2869855
-3.2824514
-3.282429
-3.2820588
-3.2812575
-3.2800137
-3.2783734
-2.9822923
-3.432431
-3.9826166
-3.8648244
-3.8621689
-3.8621331
-3.8616609
-3.8605681
-3.8589893
-3.8568938
-3.2913115
-3.2869856
-3.8648244
-3.7509244
-3.7485302
-3.7484481
-3.7479103
-3.7468793
-3.7452246
-3.7430551
-3.2073178
-3.2824513
-3.8621689
-3.7485302
-3.7459732
-3.7459531
-3.745349
-3.7442131
-3.7425699
-3.7402898
-3.2042451
-3.282429
-3.862133
-3.7484481
-3.7459531
-3.7457464
-3.7451994
-3.7439957
-3.7422536
-3.7399843
-3.2038317
-3.2820588
-3.8616609
-3.7479103
-3.745349
-3.7451994
-3.7444724
-3.7433142
-3.7415101
-3.7391684
-3.2030906
-3.2812575
-3.8605681
-3.7468793
-3.7442131
-3.7439957
-3.7433142
-3.7419981
-3.740224
-3.7378275
-3.2018536
-3.2800137
-3.8589893
-3.7452246
-3.7425699
-3.7422536
-3.7415101
-3.740224
-3.7383193
-3.7359268
-3.2001236
-3.2783734
-3.8568938
-3.7430551
-3.7402898
-3.7399843
-3.7391684
-3.7378275
-3.7359268
-3.733415
-3.1978656
-2.9822923
-3.2913115
-3.2073178
-3.2042451
-3.2038317
-3.2030906
-3.2018536
-3.2001236
-3.1978656
-2.529236
-2.6678869
-3.4776202
-3.3307529
-3.3261632
-3.3261277
-3.3257396
-3.3249144
-3.3236411
-3.3219663
-3.0202453
-3.4776202
-4.0319019
-3.9129641
-3.9102696
-3.9102182
-3.9097247
-3.9086036
-3.9069898
-3.9048532
-3.3298523
-3.3307529
-3.9129642
-3.7979582
-3.7955271
-3.7954299
-3.7948705
-3.7938115
-3.7921219
-3.7899102
-3.2452806
-3.3261632
-3.9102696
-3.7955271
-3.7929331
-3.7928971
-3.7922713
-3.7911065
-3.7894276
-3.7871046
-3.2421753
-3.3261277
-3.9102182
-3.7954299
-3.7928971
-3.7926743
-3.7921049
-3.7908718
-3.7890932
-3.7867804
-3.2417448
-3.3257396
-3.9097247
-3.7948705
-3.7922713
-3.7921048
-3.7913548
-3.7901666
-3.7883255
-3.7859398
-3.2409818
-3.3249144
-3.9086036
-3.7938115
-3.7911065
-3.7908718
-3.7901666
-3.7888197
-3.7870082
-3.7845669
-3.2397171
-3.3236411
-3.9069898
-3.7921219
-3.7894277
-3.7890932
-3.7883255
-3.7870081
-3.7850649
-3.7826271
-3.2379531
-3.3219663
-3.9048532
-3.7899102
-3.7871046
-3.7867804
-3.7859398
-3.7845669
-3.7826271
-3.7800685
-3.2356541
-3.0202453
-3.3298523
-3.2452805
-3.2421752
-3.2417448
-3.2409818
-3.2397171
-3.237953
-3.2356541
-2.5556337
-2.6904381
-3.5013692
-3.3539854
-3.3493685
-3.34932
-3.3489163
-3.3480722
-3.3467774
-3.3450784
-3.0395775
-3.5013692
-4.0563297
-3.9369796
-3.9342626
-3.9341958
-3.9336839
-3.9325415
-3.9309026
-3.928738
-3.3478635
-3.3539854
-3.9369796
-3.8215766
-3.8191237
-3.8190119
-3.8184344
-3.8173538
-3.8156396
-3.8133994
-3.2632352
-3.3493685
-3.9342626
-3.8191237
-3.8165085
-3.8164569
-3.8158132
-3.8146267
-3.8129224
-3.8105708
-3.2601164
-3.34932
-3.9341958
-3.8190119
-3.8164569
-3.8162193
-3.8156308
-3.814376
-3.8125719
-3.8102298
-3.2596715
-3.3489163
-3.9336839
-3.8184344
-3.8158132
-3.8156308
-3.8148623
-3.8136515
-3.8117845
-3.8093695
-3.2588912
-3.3480722
-3.9325415
-3.8173539
-3.8146266
-3.814376
-3.8136515
-3.812282
-3.8104441
-3.8079731
-3.2576066
-3.3467774
-3.9309026
-3.8156396
-3.8129224
-3.8125719
-3.8117845
-3.8104441
-3.8084742
-3.8060061
-3.2558193
-3.3450784
-3.928738
-3.8133994
-3.8105708
-3.8102298
-3.8093695
-3.8079731
-3.8060061
-3.8034165
-3.2534936
-3.0395775
-3.3478635
-3.2632352
-3.2601164
-3.2596715
-3.2588912
-3.2576066
-3.2558193
-3.2534936
-2.566275
-2.6964021
-3.5035313
-3.3565397
-3.3519241
-3.3518629
-3.351446
-3.3505883
-3.3492798
-3.3475672
-3.0401699
-3.5035313
-4.055749
-3.9367226
-3.9339998
-3.933918
-3.933391
-3.9322341
-3.9305802
-3.928401
-3.3452341
-3.3565397
-3.9367226
-3.8216339
-3.8191743
-3.8190486
-3.8184565
-3.8173611
-3.8156328
-3.8133778
-3.261071
-3.3519241
-3.9339998
-3.8191743
-3.8165541
-3.8164872
-3.8158295
-3.8146285
-3.8129093
-3.8105436
-3.2579579
-3.3518629
-3.933918
-3.8190486
-3.8164872
-3.8162363
-3.8156323
-3.8143634
-3.8125449
-3.810188
-3.2575013
-3.351446
-3.9333909
-3.8184565
-3.8158295
-3.8156323
-3.81485
-3.813624
-3.8117427
-3.8093134
-3.2567086
-3.3505883
-3.9322341
-3.8173611
-3.8146285
-3.8143634
-3.813624
-3.8122405
-3.8103875
-3.807902
-3.2554119
-3.3492798
-3.9305802
-3.8156329
-3.8129093
-3.8125449
-3.8117428
-3.8103874
-3.8084031
-3.8059199
-3.2536124
-3.3475671
-3.928401
-3.8133778
-3.8105436
-3.810188
-3.8093134
-3.807902
-3.8059199
-3.8033152
-3.2512743
-3.0401699
-3.3452341
-3.261071
-3.2579579
-3.2575013
-3.2567086
-3.2554119
-3.2536124
-3.2512743
-2.5610944
-2.685742
-3.484093
-3.3383999
-3.333814
-3.3337405
-3.3333131
-3.332447
-3.3311329
-3.3294171
-3.0220187
-3.484093
-4.0301634
-3.9121944
-3.9094827
-3.9093865
-3.9088474
-3.9076833
-3.9060247
-3.9038442
-3.3219805
-3.3383999
-3.9121944
-3.7981297
-3.7956785
-3.7955397
-3.7949367
-3.7938331
-3.7921016
-3.7898457
-3.2388014
-3.333814
-3.9094827
-3.7956785
-3.7930694
-3.7929877
-3.7923201
-3.791112
-3.7893886
-3.7870234
-3.2357132
-3.3337405
-3.9093865
-3.7955397
-3.7929877
-3.792725
-3.7921093
-3.7908342
-3.7890125
-3.7866553
-3.2352478
-3.3333131
-3.9088474
-3.7949367
-3.7923201
-3.7921093
-3.7913181
-3.7900845
-3.7882005
-3.7857717
-3.2344475
-3.3324469
-3.9076833
-3.7938331
-3.791112
-3.7908341
-3.7900845
-3.7886954
-3.7868387
-3.7843541
-3.2331468
-3.331133
-3.9060247
-3.7921016
-3.7893885
-3.7890125
-3.7882005
-3.7868388
-3.7848521
-3.7823691
-3.2313462
-3.3294171
-3.9038442
-3.7898457
-3.7870234
-3.7866553
-3.7857717
-3.7843541
-3.7823691
-3.7797655
-3.2290101
-3.0220187
-3.3219805
-3.2388014
-3.2357132
-3.2352478
-3.2344475
-3.2331468
-3.2313461
-3.2290101
-2.540124
-2.6585233
-3.443174
-3.2996777
-3.2951498
-3.2950644
-3.2946291
-3.29376
-3.2924486
-3.2907403
-2.9852359
-3.443174
-3.9797304
-3.863546
-3.8608622
-3.8607522
-3.8602045
-3.8590405
-3.8573873
-3.8552191
-3.2782458
-3.2996777
-3.863546
-3.7512087
-3.7487811
-3.74863
-3.7480199
-3.746915
-3.7451909
-3.7429481
-3.1965637
-3.2951498
-3.8608622
-3.7487811
-3.7461993
-3.7461032
-3.7454298
-3.7442222
-3.7425051
-3.7401551
-3.1935195
-3.2950644
-3.8607522
-3.74863
-3.7461032
-3.7458303
-3.7452069
-3.7439334
-3.7421197
-3.7397769
-3.1930481
-3.2946291
-3.8602045
-3.7480199
-3.7454298
-3.7452068
-3.7444117
-3.743178
-3.741303
-3.7388898
-3.1922453
-3.29376
-3.8590405
-3.746915
-3.7442223
-3.7439333
-3.743178
-3.741792
-3.7399432
-3.7374748
-3.1909486
-3.2924486
-3.8573873
-3.7451909
-3.7425051
-3.7421197
-3.7413031
-3.7399432
-3.7379667
-3.7354992
-3.189158
-3.2907403
-3.8552191
-3.7429481
-3.7401551
-3.7397768
-3.7388898
-3.7374748
-3.7354993
-3.7329126
-3.1868383
-2.9852359
-3.2782458
-3.1965637
-3.1935195
-3.1930481
-3.1922453
-3.1909486
-3.189158
-3.1868383
-2.5034933
-2.6149138
-3.3810264
-3.2406116
-3.2361697
-3.2360731
-3.2356326
-3.234766
-3.2334653
-3.231775
-2.9300483
-3.3810264
-3.9047606
-3.7910774
-3.788438
-3.7883149
-3.7877622
-3.7866054
-3.784968
-3.7828255
-3.2142999
-3.2406116
-3.7910774
-3.68116
-3.6787709
-3.6786087
-3.6779953
-3.6768961
-3.67519
-3.6729741
-3.1346183
-3.2361697
-3.788438
-3.6787709
-3.6762324
-3.6761227
-3.6754479
-3.6742482
-3.6725482
-3.6702278
-3.1316369
-3.236073
-3.7883149
-3.6786087
-3.6761227
-3.6758415
-3.6752141
-3.6739502
-3.6721559
-3.6698418
-3.1311625
-3.2356327
-3.7877622
-3.6779953
-3.6754478
-3.6752141
-3.6744199
-3.673194
-3.6713396
-3.668957
-3.1303622
-3.234766
-3.7866054
-3.676896
-3.6742482
-3.6739502
-3.673194
-3.6718197
-3.6699902
-3.6675533
-3.1290776
-3.2334653
-3.784968
-3.67519
-3.6725482
-3.672156
-3.6713396
-3.6699902
-3.668036
-3.6655994
-3.1273081
-3.231775
-3.7828255
-3.6729741
-3.6702278
-3.6698418
-3.6689569
-3.6675532
-3.6655994
-3.6630458
-3.1250192
-2.9300483
-3.2142999
-3.1346183
-3.1316369
-3.1311625
-3.1303622
-3.1290776
-3.1273081
-3.1250192
-2.4514283
-2.555182
-3.298033
-3.1615655
-3.1572371
-3.1571299
-3.1566872
-3.1558284
-3.1545466
-3.1528849
-2.856796
-3.298033
-3.805716
-3.6952349
-3.6926563
-3.6925211
-3.6919668
-3.6908245
-3.6892131
-3.6871096
-3.1305369
-3.1615655
-3.6952349
-3.5884152
-3.5860796
-3.5859073
-3.5852945
-3.5842078
-3.5825305
-3.5803553
-3.0533472
-3.1572371
-3.6926563
-3.5860796
-3.5836001
-3.5834775
-3.5828055
-3.5816214
-3.579949
-3.5776726
-3.0504471
-3.1571299
-3.6925211
-3.5859073
-3.5834775
-3.5831898
-3.5825625
-3.5813162
-3.5795524
-3.5772814
-3.0499728
-3.1566872
-3.6919668
-3.5852946
-3.5828055
-3.5825626
-3.5817744
-3.5805639
-3.5787417
-3.5764043
-3.04918
-3.1558284
-3.6908246
-3.5842078
-3.5816214
-3.5813162
-3.5805639
-3.5792098
-3.5774112
-3.5750207
-3.0479155
-3.1545466
-3.6892131
-3.5825305
-3.579949
-3.5795524
-3.5787417
-3.5774112
-3.5754914
-3.5731007
-3.0461781
-3.1528849
-3.6871096
-3.5803553
-3.5776726
-3.5772814
-3.5764043
-3.5750207
-3.5731007
-3.5705961
-3.0439343
-2.856796
-3.1305369
-3.0533472
-3.0504471
-3.0499728
-3.04918
-3.0479155
-3.0461781
-3.0439343
-2.3842502
-2.479696
-3.1947052
-3.0630266
-3.0588384
-3.0587215
-3.0582795
-3.057434
-3.0561791
-3.0545562
-2.7659308
-3.1947052
-3.6832068
-3.5766092
-3.5741075
-3.5739612
-3.5734089
-3.5722884
-3.5707131
-3.5686616
-3.0274732
-3.0630266
-3.5766092
-3.4735459
-3.4712783
-3.4710972
-3.470489
-3.4694217
-3.4677836
-3.4656627
-2.9532514
-3.0588384
-3.5741075
-3.4712784
-3.4688733
-3.4687388
-3.4680739
-3.4669128
-3.4652785
-3.4630604
-2.9504507
-3.0587215
-3.5739612
-3.4710972
-3.4687388
-3.4684466
-3.4678234
-3.4666025
-3.4648803
-3.4626665
-2.9499795
-3.0582795
-3.5734089
-3.470489
-3.4680739
-3.4678235
-3.4670465
-3.4658589
-3.4640803
-3.4618027
-2.9491993
-3.057434
-3.5722884
-3.4694217
-3.4669128
-3.4666025
-3.4658589
-3.4645337
-3.462777
-3.460448
-2.947963
-3.0561791
-3.5707131
-3.4677836
-3.4652785
-3.4648803
-3.4640803
-3.462777
-3.4609036
-3.4585738
-2.9462686
-3.0545562
-3.5686616
-3.4656627
-3.4630604
-3.4626665
-3.4618027
-3.4604481
-3.4585738
-3.4561337
-2.9440836
-2.7659308
-3.0274732
-2.9532514
-2.9504506
-2.9499795
-2.9491993
-2.947963
-2.9462686
-2.9440836
-2.3023734
-2.3889209
-3.0716797
-2.9456019
-2.94158
-2.9414544
-2.9410158
-2.9401891
-2.9389691
-2.9373953
-2.6580128
-3.0716797
-3.5379879
-3.4359311
-3.433522
-3.4333658
-3.4328192
-3.4317277
-3.4301984
-3.4282118
-2.9057445
-2.9456019
-3.4359311
-3.33726
-3.3350746
-3.334886
-3.3342865
-3.3332454
-3.3316568
-3.3296034
-2.8349483
-2.94158
-3.433522
-3.3350746
-3.332759
-3.3326137
-3.3319603
-3.3308297
-3.3292437
-3.3270977
-2.8322642