/*--------------------------------*- C++ -*----------------------------------*\
| =========                 |                                                 |
| \\      /  F ield         | OpenFOAM: The Open Source CFD Toolbox           |
|  \\    /   O peration     | Version:  v2106                                 |
|   \\  /    A nd           | Website:  www.openfoam.com                      |
|    \\/     M anipulation  |                                                 |
\*---------------------------------------------------------------------------*/
FoamFile
{
    version     2.0;
    format      ascii;
    arch        "LSB;label=32;scalar=64";
    class       volVectorField;
    location    "5";
    object      flux;
}
// * * * * * * * * * * * * * * * * * * * * * * * * * * * * * * * * * * * * * //

dimensions      [0 1 -1 1 0 0 0];

internalField   nonuniform List<vector> 
500
(
(-1.8439126e-08 -1.8439124e-08 0.13158913)
(5.947868e-10 1.0609632e-07 0.13158894)
(-5.0887785e-07 -1.1875486e-07 0.13158882)
(-7.5991715e-07 -1.1477347e-07 0.13158683)
(-1.4852389e-07 -1.0002377e-07 0.13158602)
(1.0609632e-07 5.947868e-10 0.13158894)
(-1.4987882e-07 -1.4987881e-07 0.13158927)
(-8.4018253e-07 -4.6931136e-07 0.13158807)
(-7.3182053e-07 -3.6153772e-07 0.13158613)
(-1.337742e-07 -2.8894873e-07 0.13158542)
(-1.1875486e-07 -5.0887785e-07 0.13158882)
(-4.6931136e-07 -8.4018253e-07 0.13158807)
(-7.2053676e-07 -7.2053675e-07 0.13158698)
(-5.7955453e-07 -4.4107864e-07 0.13158545)
(-1.0013123e-07 -2.6138819e-07 0.13158494)
(-1.1477347e-07 -7.5991717e-07 0.13158683)
(-3.6153772e-07 -7.3182053e-07 0.13158613)
(-4.4107864e-07 -5.7955452e-07 0.13158545)
(-2.7267197e-07 -2.7267196e-07 0.13158459)
(-1.3980563e-08 -1.009489e-07 0.13158455)
(-1.0002377e-07 -1.485239e-07 0.13158602)
(-2.8894872e-07 -1.337742e-07 0.13158542)
(-2.6138819e-07 -1.0013123e-07 0.13158494)
(-1.0094891e-07 -1.3980561e-08 0.13158455)
(1.4350809e-08 1.4350811e-08 0.13158463)
(-1.4066963e-07 -1.4066964e-07 0.15016706)
(-4.7197072e-07 1.4596729e-08 0.15016661)
(-1.6244223e-06 -3.9446137e-07 0.15016594)
(-1.9184105e-06 -3.6324305e-07 0.15016443)
(-3.6996968e-07 -3.0348431e-07 0.1501639)
(1.4596731e-08 -4.7197072e-07 0.15016661)
(-8.5265832e-07 -8.5265833e-07 0.15016629)
(-2.191182e-06 -1.3524091e-06 0.15016522)
(-1.781945e-06 -9.9909957e-07 0.1501638)
(-3.1021094e-07 -7.4988938e-07 0.1501634)
(-3.9446137e-07 -1.6244223e-06 0.15016594)
(-1.3524091e-06 -2.191182e-06 0.15016522)
(-1.7708635e-06 -1.7708635e-06 0.15016443)
(-1.3158908e-06 -9.879371e-07 0.15016345)
(-2.0382955e-07 -5.2105951e-07 0.15016325)
(-3.6324305e-07 -1.9184105e-06 0.15016443)
(-9.9909956e-07 -1.781945e-06 0.1501638)
(-9.8793709e-07 -1.3158908e-06 0.15016345)
(-5.3214092e-07 -5.3214092e-07 0.15016303)
(1.0407839e-09 -1.5997131e-07 0.15016313)
(-3.0348431e-07 -3.6996968e-07 0.1501639)
(-7.4988937e-07 -3.1021094e-07 0.1501634)
(-5.210595e-07 -2.0382955e-07 0.15016325)
(-1.5997131e-07 1.040784e-09 0.15016313)
(4.4283523e-08 4.4283523e-08 0.15016326)
(-3.2093401e-07 -3.2093401e-07 0.18539406)
(-1.1172823e-06 -1.0523791e-07 0.18539353)
(-2.6890016e-06 -6.012984e-07 0.1853929)
(-2.8020562e-06 -5.3152886e-07 0.1853916)
(-4.9929057e-07 -4.3746513e-07 0.18539125)
(-1.0523791e-07 -1.1172823e-06 0.18539353)
(-1.5378289e-06 -1.5378289e-06 0.18539322)
(-3.328438e-06 -1.9830573e-06 0.18539236)
(-2.5563063e-06 -1.3399184e-06 0.1853912)
(-4.0522683e-07 -9.3810513e-07 0.18539096)
(-6.0129839e-07 -2.6890016e-06 0.1853929)
(-1.9830573e-06 -3.328438e-06 0.18539236)
(-2.4910912e-06 -2.4910911e-06 0.18539191)
(-1.7571041e-06 -1.2103367e-06 0.18539122)
(-2.3141506e-07 -5.3191914e-07 0.18539115)
(-5.3152886e-07 -2.8020562e-06 0.1853916)
(-1.3399184e-06 -2.5563063e-06 0.1853912)
(-1.2103367e-06 -1.7571041e-06 0.18539122)
(-5.971343e-07 -5.9713429e-07 0.18539104)
(4.7051532e-08 -9.7664361e-08 0.18539113)
(-4.3746513e-07 -4.9929057e-07 0.18539125)
(-9.3810512e-07 -4.0522684e-07 0.18539096)
(-5.3191913e-07 -2.3141506e-07 0.18539115)
(-9.7664366e-08 4.7051537e-08 0.18539113)
(1.0156489e-07 1.015649e-07 0.1853913)
(-4.932894e-07 -4.932894e-07 0.24038005)
(-1.6319446e-06 -1.9066072e-07 0.2403796)
(-3.5552759e-06 -7.5127312e-07 0.24037921)
(-3.5660851e-06 -6.2587023e-07 0.24037807)
(-6.018798e-07 -4.9529865e-07 0.2403778)
(-1.9066072e-07 -1.6319446e-06 0.2403796)
(-2.0189202e-06 -2.0189202e-06 0.24037943)
(-4.2080902e-06 -2.3418191e-06 0.24037885)
(-3.1821234e-06 -1.3802556e-06 0.24037787)
(-4.7130822e-07 -8.5151876e-07 0.24037772)
(-7.5127313e-07 -3.5552759e-06 0.24037921)
(-2.3418191e-06 -4.2080902e-06 0.24037885)
(-2.9166114e-06 -2.9166114e-06 0.24037873)
(-2.0757848e-06 -1.1551417e-06 0.24037823)
(-2.4938855e-07 -3.5242527e-07 0.2403782)
(-6.2587022e-07 -3.5660851e-06 0.24037807)
(-1.3802556e-06 -3.1821234e-06 0.24037787)
(-1.1551418e-06 -2.0757848e-06 0.24037823)
(-6.1793731e-07 -6.1793731e-07 0.24037822)
(6.38361e-08 -5.343202e-09 0.24037826)
(-4.9529865e-07 -6.018798e-07 0.2403778)
(-8.5151875e-07 -4.7130823e-07 0.24037772)
(-3.5242526e-07 -2.4938855e-07 0.2403782)
(-5.343202e-09 6.3836099e-08 0.24037826)
(1.5900752e-07 1.5900752e-07 0.24037843)
(-6.1903328e-07 -6.1903327e-07 0.31744307)
(-1.9580301e-06 -2.1834567e-07 0.31744276)
(-4.2280925e-06 -8.4169714e-07 0.31744257)
(-4.2087745e-06 -6.5921333e-07 0.31744155)
(-6.734415e-07 -4.9608248e-07 0.31744137)
(-2.1834568e-07 -1.9580301e-06 0.31744276)
(-2.2920259e-06 -2.2920259e-06 0.31744274)
(-4.889394e-06 -2.4654136e-06 0.31744237)
(-3.6903526e-06 -1.1740726e-06 0.31744153)
(-5.1031065e-07 -5.4053325e-07 0.31744144)
(-8.4169714e-07 -4.2280925e-06 0.31744257)
(-2.4654136e-06 -4.8893939e-06 0.31744237)
(-3.1101392e-06 -3.1101392e-06 0.31744252)
(-2.2838942e-06 -8.6082516e-07 0.31744217)
(-2.5108192e-07 1.3176154e-08 0.31744219)
(-6.5921332e-07 -4.2087745e-06 0.31744155)
(-1.1740726e-06 -3.6903526e-06 0.31744153)
(-8.6082516e-07 -2.2838942e-06 0.31744217)
(-5.6703721e-07 -5.6703721e-07 0.31744232)
(7.2356886e-08 1.3165231e-07 0.31744234)
(-4.9608248e-07 -6.7344149e-07 0.31744137)
(-5.4053324e-07 -5.1031065e-07 0.31744144)
(1.3176148e-08 -2.5108192e-07 0.31744219)
(1.3165231e-07 7.2356886e-08 0.31744234)
(2.1471109e-07 2.1471109e-07 0.31744251)
(-7.0558012e-07 -7.0558012e-07 0.419241)
(-2.1390427e-06 -1.9975212e-07 0.4192408)
(-4.7651312e-06 -8.7990172e-07 0.41924077)
(-4.7675129e-06 -6.3883847e-07 0.41923985)
(-7.2203619e-07 -4.4776519e-07 0.41923974)
(-1.9975212e-07 -2.1390427e-06 0.4192408)
(-2.4005251e-06 -2.4005251e-06 0.41924091)
(-5.4237607e-06 -2.3890613e-06 0.41924073)
(-4.1193081e-06 -7.5250941e-07 0.41924)
(-5.3096292e-07 -3.1760652e-08 0.41923996)
(-8.7990171e-07 -4.7651312e-06 0.41924077)
(-2.3890613e-06 -5.4237607e-06 0.41924073)
(-3.1171155e-06 -3.1171155e-06 0.41924113)
(-2.4102122e-06 -3.6101381e-07 0.41924092)
(-2.4153702e-07 5.5262815e-07 0.41924096)
(-6.3883846e-07 -4.7675129e-06 0.41923985)
(-7.5250941e-07 -4.1193081e-06 0.41924)
(-3.6101381e-07 -2.4102122e-06 0.41924092)
(-4.4956451e-07 -4.495645e-07 0.4192412)
(7.8131724e-08 3.180336e-07 0.41924121)
(-4.4776519e-07 -7.2203619e-07 0.41923974)
(-3.176065e-08 -5.3096292e-07 0.41923996)
(5.5262816e-07 -2.4153701e-07 0.41924096)
(3.180336e-07 7.8131728e-08 0.41924121)
(2.7019505e-07 2.7019506e-07 0.41924138)
(-7.5716074e-07 -7.5716074e-07 0.54839779)
(-2.1941051e-06 -1.4265825e-07 0.54839769)
(-5.1713834e-06 -8.6394293e-07 0.54839781)
(-5.233339e-06 -5.6227762e-07 0.54839704)
(-7.4687971e-07 -3.4867995e-07 0.54839701)
(-1.4265825e-07 -2.1941051e-06 0.54839769)
(-2.3542783e-06 -2.3542783e-06 0.54839791)
(-5.8008124e-06 -2.1065818e-06 0.54839795)
(-4.4604445e-06 -1.1138152e-07 0.54839736)
(-5.3328204e-07 6.7610614e-07 0.54839739)
(-8.6394293e-07 -5.1713834e-06 0.54839781)
(-2.1065818e-06 -5.8008124e-06 0.54839795)
(-2.9284866e-06 -2.9284866e-06 0.5483986)
(-2.4506511e-06 3.4499307e-07 0.54839856)
(-2.2188793e-07 1.2622364e-06 0.54839863)
(-5.6227762e-07 -5.233339e-06 0.54839704)
(-1.1138153e-07 -4.4604445e-06 0.54839736)
(3.4499307e-07 -2.4506511e-06 0.54839856)
(-2.697216e-07 -2.6972161e-07 0.54839899)
(7.8213486e-08 5.4834811e-07 0.54839898)
(-3.4867996e-07 -7.468797e-07 0.54839701)
(6.7610613e-07 -5.3328204e-07 0.54839739)
(1.2622364e-06 -2.2188793e-07 0.54839863)
(5.4834812e-07 7.8213484e-08 0.54839898)
(3.2349188e-07 3.2349188e-07 0.54839913)
(-7.7296757e-07 -7.7296756e-07 0.7070473)
(-2.1215641e-06 -5.1184317e-08 0.70704731)
(-5.4152747e-06 -7.8680955e-07 0.70704758)
(-5.5647556e-06 -4.2322475e-07 0.70704703)
(-7.4106241e-07 -1.9390558e-07 0.70704711)
(-5.1184321e-08 -2.1215641e-06 0.70704731)
(-2.1423271e-06 -2.1423271e-06 0.70704763)
(-5.9733354e-06 -1.5933438e-06 0.70704791)
(-4.6753996e-06 7.6385407e-07 0.70704755)
(-5.1174324e-07 1.5907192e-06 0.70704766)
(-7.8680955e-07 -5.4152747e-06 0.70704758)
(-1.5933438e-06 -5.9733354e-06 0.70704791)
(-2.5090935e-06 -2.5090935e-06 0.70704886)
(-2.3806926e-06 1.2689704e-06 0.70704902)
(-1.89819e-07 2.1390905e-06 0.70704914)
(-4.2322475e-07 -5.5647556e-06 0.70704703)
(7.6385408e-07 -4.6753996e-06 0.70704755)
(1.2689704e-06 -2.3806926e-06 0.70704902)
(-2.721554e-08 -2.7215541e-08 0.70704962)
(6.8336825e-08 8.1420512e-07 0.70704957)
(-1.9390559e-07 -7.4106241e-07 0.70704711)
(1.5907192e-06 -5.1174324e-07 0.70704766)
(2.1390905e-06 -1.8981901e-07 0.70704914)
(8.1420512e-07 6.8336821e-08 0.70704957)
(3.711281e-07 3.711281e-07 0.7070497)
(-7.5041516e-07 -7.5041516e-07 0.89631987)
(-1.9128318e-06 7.0757791e-08 0.89632)
(-5.448888e-06 -6.4158176e-07 0.89632043)
(-5.704292e-06 -2.1661025e-07 0.89632019)
(-6.9507533e-07 2.0101858e-08 0.8963204)
(7.0757793e-08 -1.9128318e-06 0.89632)
(-1.7495817e-06 -1.7495817e-06 0.8963204)
(-5.8799401e-06 -8.2680769e-07 0.89632097)
(-4.7117666e-06 1.878717e-06 0.89632091)
(-4.5836323e-07 2.7096536e-06 0.89632113)
(-6.4158176e-07 -5.4488881e-06 0.89632043)
(-8.2680768e-07 -5.8799401e-06 0.89632097)
(-1.8205894e-06 -1.8205894e-06 0.89632222)
(-2.1678307e-06 2.4151175e-06 0.89632265)
(-1.411176e-07 3.1707217e-06 0.89632282)
(-2.1661025e-07 -5.704292e-06 0.89632019)
(1.878717e-06 -4.7117666e-06 0.89632091)
(2.4151175e-06 -2.1678308e-06 0.89632265)
(2.7954451e-07 2.7954451e-07 0.89632341)
(4.5372927e-08 1.1058043e-06 0.89632332)
(2.0101855e-08 -6.9507533e-07 0.8963204)
(2.7096536e-06 -4.5836323e-07 0.89632113)
(3.1707217e-06 -1.4111761e-07 0.89632282)
(1.1058043e-06 4.5372923e-08 0.89632332)
(4.0972223e-07 4.0972222e-07 0.89632342)
(-6.8786852e-07 -6.8786852e-07 1.1158151)
(-1.5628394e-06 2.1709493e-07 1.1158153)
(-5.223451e-06 -4.2526061e-07 1.1158159)
(-5.5918986e-06 5.776237e-08 1.1158161)
(-5.9965618e-07 2.9230039e-07 1.1158164)
(2.1709493e-07 -1.5628395e-06 1.1158153)
(-1.1689276e-06 -1.1689276e-06 1.1158158)
(-5.4624498e-06 1.9888775e-07 1.1158167)
(-4.5155571e-06 3.216608e-06 1.115817)
(-3.6511816e-07 4.0094058e-06 1.1158173)
(-4.2526061e-07 -5.223451e-06 1.1158159)
(1.9888776e-07 -5.4624498e-06 1.1158167)
(-8.3791535e-07 -8.3791535e-07 1.1158182)
(-1.7813805e-06 3.7673306e-06 1.1158189)
(-7.1124341e-08 4.3269736e-06 1.1158192)
(5.7762372e-08 -5.5918986e-06 1.1158161)
(3.2166081e-06 -4.5155571e-06 1.115817)
(3.7673306e-06 -1.7813805e-06 1.1158189)
(6.4933189e-07 6.4933189e-07 1.1158198)
(7.9772064e-09 1.4108837e-06 1.1158197)
(2.9230038e-07 -5.9965617e-07 1.1158164)
(4.0094058e-06 -3.6511817e-07 1.1158173)
(4.3269736e-06 -7.1124343e-08 1.1158192)
(1.4108837e-06 7.9772027e-09 1.1158197)
(4.3657689e-07 4.3657689e-07 1.1158198)
(-5.8660128e-07 -5.8660129e-07 1.3631209)
(-1.0773721e-06 3.7831715e-07 1.3631212)
(-4.7021114e-06 -1.4154679e-07 1.363122)
(-5.1770719e-06 3.9265794e-07 1.3631226)
(-4.4828707e-07 6.1483469e-07 1.3631231)
(3.7831716e-07 -1.0773721e-06 1.3631212)
(-4.0979033e-07 -4.0979034e-07 1.3631217)
(-4.6806002e-06 1.4624881e-06 1.3631229)
(-4.0424996e-06 4.7302458e-06 1.3631237)
(-2.2611032e-07 5.438442e-06 1.3631242)
(-1.4154679e-07 -4.7021114e-06 1.363122)
(1.4624881e-06 -4.6806002e-06 1.3631229)
(4.3792469e-07 4.3792469e-07 1.3631247)
(-1.201118e-06 5.2805908e-06 1.3631257)
(2.3843751e-08 5.5547683e-06 1.363126)
(3.9265794e-07 -5.1770719e-06 1.3631226)
(4.7302458e-06 -4.0424997e-06 1.3631237)
(5.2805908e-06 -1.201118e-06 1.3631257)
(1.074344e-06 1.074344e-06 1.3631268)
(-4.3325298e-08 1.7132325e-06 1.3631266)
(6.1483469e-07 -4.4828707e-07 1.3631231)
(5.438442e-06 -2.2611032e-07 1.3631242)
(5.5547683e-06 2.3843753e-08 1.363126)
(1.7132325e-06 -4.3325296e-08 1.3631266)
(4.4976942e-07 4.4976942e-07 1.3631266)
(-4.5212694e-07 -4.5212695e-07 1.6334525)
(-4.781758e-07 5.4102753e-07 1.6334529)
(-3.8713074e-06 1.9727907e-07 1.6334538)
(-4.4305993e-06 7.71798e-07 1.6334549)
(-2.395182e-07 9.7164288e-07 1.6334556)
(5.4102753e-07 -4.781758e-07 1.6334529)
(4.9593322e-07 4.9593322e-07 1.6334534)
(-3.5251517e-06 2.9086354e-06 1.6334548)
(-3.2690536e-06 6.3370537e-06 1.6334561)
(-3.9673313e-08 6.9138027e-06 1.6334567)
(1.9727906e-07 -3.8713074e-06 1.6334538)
(2.9086354e-06 -3.5251517e-06 1.6334548)
(1.969813e-06 1.969813e-06 1.6334568)
(-4.2543209e-07 6.8758009e-06 1.6334581)
(1.4498116e-07 6.7756804e-06 1.6334585)
(7.71798e-07 -4.4305993e-06 1.6334549)
(6.3370536e-06 -3.2690536e-06 1.6334561)
(6.8758009e-06 -4.2543208e-07 1.6334581)
(1.5368137e-06 1.5368137e-06 1.6334592)
(-1.0642031e-07 1.9911883e-06 1.633459)
(9.7164288e-07 -2.395182e-07 1.6334556)
(6.9138027e-06 -3.9673315e-08 1.6334567)
(6.7756804e-06 1.4498116e-07 1.6334585)
(1.9911883e-06 -1.0642031e-07 1.633459)
(4.4789754e-07 4.4789754e-07 1.633459)
(-2.9498856e-07 -2.9498856e-07 1.9194861)
(1.9358817e-07 6.8807044e-07 1.9194866)
(-2.751162e-06 5.6933251e-07 1.9194875)
(-3.3559926e-06 1.169144e-06 1.9194891)
(2.0826943e-08 1.3378171e-06 1.9194899)
(6.8807044e-07 1.9358818e-07 1.9194866)
(1.4900698e-06 1.4900698e-06 1.919487)
(-2.0295517e-06 4.444145e-06 1.9194886)
(-2.2032658e-06 7.9182187e-06 1.9194902)
(1.8950003e-07 8.3208913e-06 1.919491)
(5.6933251e-07 -2.751162e-06 1.9194875)
(4.444145e-06 -2.0295517e-06 1.9194886)
(3.676987e-06 3.676987e-06 1.9194905)
(5.2075364e-07 8.4376543e-06 1.9194921)
(2.892753e-07 7.8857603e-06 1.9194925)
(1.169144e-06 -3.3559926e-06 1.9194891)
(7.9182187e-06 -2.2032658e-06 1.9194902)
(8.4376543e-06 5.2075365e-07 1.9194921)
(2.0055075e-06 2.0055075e-06 1.9194932)
(-1.7842931e-07 2.215661e-06 1.919493)
(1.3378171e-06 2.0826943e-08 1.9194899)
(8.3208913e-06 1.8950003e-07 1.919491)
(7.8857603e-06 2.892753e-07 1.9194925)
(2.215661e-06 -1.7842931e-07 1.919493)
(4.2937762e-07 4.2937762e-07 1.9194929)
(-1.31001e-07 -1.31001e-07 2.211454)
(8.7518688e-07 7.9898331e-07 2.2114544)
(-1.4050922e-06 9.4279629e-07 2.2114553)
(-2.0005227e-06 1.548855e-06 2.2114573)
(3.1750524e-07 1.6794776e-06 2.2114582)
(7.9898331e-07 8.7518688e-07 2.2114544)
(2.4858828e-06 2.4858828e-06 2.2114547)
(-2.8028457e-07 5.936899e-06 2.2114563)
(-8.955007e-07 9.320468e-06 2.2114583)
(4.4812782e-07 9.5153982e-06 2.2114591)
(9.4279629e-07 -1.4050922e-06 2.2114553)
(5.936899e-06 -2.8028457e-07 2.2114563)
(5.429493e-06 5.429493e-06 2.211458)
(1.5779765e-06 9.8144896e-06 2.2114597)
(4.4745869e-07 8.7562994e-06 2.2114602)
(1.548855e-06 -2.0005227e-06 2.2114573)
(9.320468e-06 -8.9550069e-07 2.2114583)
(9.8144896e-06 1.5779765e-06 2.2114597)
(2.4313057e-06 2.4313057e-06 2.2114607)
(-2.573323e-07 2.3468352e-06 2.2114604)
(1.6794776e-06 3.1750525e-07 2.2114582)
(9.5153982e-06 4.4812783e-07 2.2114591)
(8.7562994e-06 4.4745869e-07 2.2114602)
(2.3468352e-06 -2.573323e-07 2.2114604)
(3.9114506e-07 3.9114506e-07 2.2114603)
(1.9429425e-08 1.9429425e-08 2.4975407)
(1.4818423e-06 8.5074464e-07 2.4975411)
(5.0953458e-08 1.2758385e-06 2.4975417)
(-4.6642124e-07 1.865331e-06 2.4975439)
(6.2354895e-07 1.9535996e-06 2.4975448)
(8.5074464e-07 1.4818423e-06 2.4975411)
(3.3664559e-06 3.3664559e-06 2.4975411)
(1.5728329e-06 7.2153654e-06 2.4975426)
(5.5022043e-07 1.0358101e-05 2.4975447)
(7.118176e-07 1.0325033e-05 2.4975454)
(1.2758385e-06 5.0953467e-08 2.4975417)
(7.2153654e-06 1.5728329e-06 2.4975426)
(7.0425989e-06 7.0425989e-06 2.4975438)
(2.6432459e-06 1.0817674e-05 2.4975454)
(6.0150315e-07 9.233197e-06 2.4975458)
(1.865331e-06 -4.6642123e-07 2.4975439)
(1.0358101e-05 5.5022044e-07 2.4975447)
(1.0817674e-05 2.6432459e-06 2.4975454)
(2.7408186e-06 2.7408186e-06 2.4975461)
(-3.4450054e-07 2.3288005e-06 2.4975458)
(1.9535996e-06 6.2354896e-07 2.4975448)
(1.0325033e-05 7.1181761e-07 2.4975454)
(9.233197e-06 6.0150315e-07 2.4975458)
(2.3288005e-06 -3.4450054e-07 2.4975458)
(3.2682446e-07 3.2682446e-07 2.4975456)
(1.3464504e-07 1.3464504e-07 2.7645834)
(1.911825e-06 8.2046695e-07 2.7645837)
(1.4394134e-06 1.5163775e-06 2.764584)
(1.0754452e-06 2.0626232e-06 2.7645862)
(8.9725952e-07 2.1072704e-06 2.7645868)
(8.2046695e-07 1.911825e-06 2.7645837)
(3.9844238e-06 3.9844238e-06 2.7645835)
(3.3026478e-06 8.0653732e-06 2.7645845)
(1.9617844e-06 1.0811434e-05 2.7645865)
(9.4190669e-07 1.0548174e-05 2.764587)
(1.5163775e-06 1.4394134e-06 2.764584)
(8.0653732e-06 3.3026478e-06 2.7645845)
(8.2664234e-06 8.2664233e-06 2.764585)
(3.5582455e-06 1.1216311e-05 2.7645862)
(7.2175272e-07 9.1322152e-06 2.7645865)
(2.0626232e-06 1.0754452e-06 2.7645862)
(1.0811434e-05 1.9617845e-06 2.7645865)
(1.1216311e-05 3.5582455e-06 2.7645862)
(2.8275763e-06 2.8275763e-06 2.7645864)
(-4.4749069e-07 2.08315e-06 2.764586)
(2.1072704e-06 8.9725952e-07 2.7645868)
(1.0548174e-05 9.419067e-07 2.764587)
(9.1322152e-06 7.2175273e-07 2.7645865)
(2.08315e-06 -4.4749069e-07 2.764586)
(2.2546852e-07 2.2546853e-07 2.7645857)
(2.0247209e-07 2.0247209e-07 2.9990313)
(2.0721014e-06 6.9883365e-07 2.9990314)
(2.517005e-06 1.604791e-06 2.9990313)
(2.3652758e-06 2.0756627e-06 2.999033)
(1.077776e-06 2.0796155e-06 2.9990333)
(6.9883365e-07 2.0721014e-06 2.9990314)
(4.1755798e-06 4.1755798e-06 2.999031)
(4.5822487e-06 8.2269082e-06 2.9990313)
(3.0775126e-06 1.0424505e-05 2.9990327)
(1.0817288e-06 9.9561789e-06 2.9990329)
(1.604791e-06 2.517005e-06 2.9990313)
(8.2269082e-06 4.5822487e-06 2.9990313)
(8.7659303e-06 8.7659303e-06 2.9990307)
(4.0945465e-06 1.072615e-05 2.9990312)
(7.6555856e-07 8.2350225e-06 2.9990311)
(2.0756627e-06 2.3652758e-06 2.999033)
(1.0424505e-05 3.0775125e-06 2.9990327)
(1.072615e-05 4.0945465e-06 2.9990312)
(2.5466047e-06 2.5466047e-06 2.9990305)
(-5.7902285e-07 1.5125415e-06 2.9990301)
(2.0796155e-06 1.077776e-06 2.9990333)
(9.9561789e-06 1.0817288e-06 2.9990329)
(8.2350225e-06 7.6555857e-07 2.9990311)
(1.5125415e-06 -5.7902284e-07 2.9990301)
(7.6183119e-08 7.6183124e-08 2.9990296)
(2.4094104e-07 2.4094104e-07 3.188072)
(1.9544509e-06 5.3954582e-07 3.1880721)
(3.0059063e-06 1.5019369e-06 3.1880716)
(3.0337464e-06 1.8553618e-06 3.1880723)
(1.0805863e-06 1.8306227e-06 3.1880719)
(5.3954583e-07 1.9544509e-06 3.1880721)
(3.8459448e-06 3.8459447e-06 3.1880719)
(4.9796303e-06 7.4475073e-06 3.1880712)
(3.5267751e-06 8.9620851e-06 3.1880714)
(1.0558472e-06 8.3720513e-06 3.188071)
(1.5019369e-06 3.0059063e-06 3.1880716)
(7.4475073e-06 4.9796303e-06 3.1880712)
(8.1220467e-06 8.1220467e-06 3.1880692)
(3.9582904e-06 9.0352272e-06 3.1880685)
(6.8723043e-07 6.3495013e-06 3.188068)
(1.8553618e-06 3.0337464e-06 3.1880723)
(8.9620851e-06 3.5267751e-06 3.1880714)
(9.0352272e-06 3.9582904e-06 3.1880685)
(1.7542296e-06 1.7542297e-06 3.1880668)
(-7.3463672e-07 5.7157725e-07 3.1880665)
(1.8306227e-06 1.0805863e-06 3.1880719)
(8.3720513e-06 1.0558472e-06 3.188071)
(6.3495013e-06 6.8723043e-07 3.188068)
(5.7157725e-07 -7.3463672e-07 3.1880665)
(-1.0120451e-07 -1.012045e-07 3.1880661)
(2.799784e-07 2.799784e-07 3.320797)
(1.6966103e-06 5.1921156e-07 3.3207968)
(2.7330044e-06 1.2898568e-06 3.3207959)
(2.6689786e-06 1.4752321e-06 3.3207952)
(8.0841126e-07 1.4515536e-06 3.3207939)
(5.1921155e-07 1.6966103e-06 3.3207968)
(3.2114279e-06 3.2114279e-06 3.3207965)
(4.1670352e-06 5.8002274e-06 3.3207946)
(2.9115237e-06 6.5572829e-06 3.3207934)
(7.8473273e-07 6.0654691e-06 3.3207921)
(1.2898568e-06 2.7330043e-06 3.3207959)
(5.8002274e-06 4.1670352e-06 3.3207946)
(6.0788594e-06 6.0788594e-06 3.3207912)
(2.9342202e-06 6.1142992e-06 3.3207891)
(4.8053534e-07 3.7262234e-06 3.3207881)
(1.4752321e-06 2.6689786e-06 3.3207952)
(6.557283e-06 2.9115237e-06 3.3207934)
(6.1142992e-06 2.9342202e-06 3.3207891)
(5.5888773e-07 5.5888774e-07 3.3207867)
(-8.0731782e-07 -4.0558074e-07 3.3207867)
(1.4515536e-06 8.0841125e-07 3.3207939)
(6.0654691e-06 7.8473272e-07 3.3207921)
(3.7262234e-06 4.8053534e-07 3.3207881)
(-4.0558074e-07 -8.0731782e-07 3.3207867)
(-1.6244365e-07 -1.6244364e-07 3.3207866)
(1.3471362e-07 1.3471362e-07 3.395051)
(8.7181145e-07 3.1359433e-07 3.3950504)
(1.3892651e-06 6.5479601e-07 3.3950482)
(1.0690539e-06 6.6361262e-07 3.3950458)
(2.3301984e-07 6.0701715e-07 3.3950442)
(3.1359434e-07 8.7181144e-07 3.3950504)
(1.651935e-06 1.651935e-06 3.3950489)
(1.9142926e-06 2.7208105e-06 3.3950449)
(9.9738559e-07 2.8483883e-06 3.3950423)
(1.7642438e-07 2.5238597e-06 3.395041)
(6.5479601e-07 1.3892651e-06 3.3950482)
(2.7208105e-06 1.9142925e-06 3.3950449)
(2.5857184e-06 2.5857184e-06 3.3950389)
(8.7210307e-07 2.3436432e-06 3.3950357)
(1.6667407e-08 9.4216006e-07 3.3950352)
(6.6361262e-07 1.0690539e-06 3.3950458)
(2.8483883e-06 9.9738558e-07 3.3950423)
(2.3436432e-06 8.7210308e-07 3.3950357)
(-6.4617274e-07 -6.4617274e-07 3.3950335)
(-7.5789768e-07 -8.9956422e-07 3.3950366)
(6.0701715e-07 2.3301985e-07 3.3950442)
(2.5238597e-06 1.7642438e-07 3.395041)
(9.4216008e-07 1.6667415e-08 3.3950352)
(-8.9956422e-07 -7.5789768e-07 3.3950366)
(-1.5226024e-07 -1.5226024e-07 3.3950372)
)
;

boundaryField
{
    wall_minX
    {
        type            calculated;
        value           nonuniform List<vector> 
100
(
(0 -1.8439124e-08 0.13158913)
(0 5.947868e-10 0.13158894)
(0 -5.0887785e-07 0.13158882)
(0 -7.5991717e-07 0.13158683)
(0 -1.485239e-07 0.13158602)
(0 -1.4066964e-07 0.15016706)
(0 -4.7197072e-07 0.15016661)
(0 -1.6244223e-06 0.15016594)
(0 -1.9184105e-06 0.15016443)
(0 -3.6996968e-07 0.1501639)
(0 -3.2093401e-07 0.18539406)
(0 -1.1172823e-06 0.18539353)
(0 -2.6890016e-06 0.1853929)
(0 -2.8020562e-06 0.1853916)
(0 -4.9929057e-07 0.18539125)
(0 -4.932894e-07 0.24038005)
(0 -1.6319446e-06 0.2403796)
(0 -3.5552759e-06 0.24037921)
(0 -3.5660851e-06 0.24037807)
(0 -6.018798e-07 0.2403778)
(0 -6.1903327e-07 0.31744307)
(0 -1.9580301e-06 0.31744276)
(0 -4.2280925e-06 0.31744257)
(0 -4.2087745e-06 0.31744155)
(0 -6.7344149e-07 0.31744137)
(0 -7.0558012e-07 0.419241)
(0 -2.1390427e-06 0.4192408)
(0 -4.7651312e-06 0.41924077)
(0 -4.7675129e-06 0.41923985)
(0 -7.2203619e-07 0.41923974)
(0 -7.5716074e-07 0.54839779)
(0 -2.1941051e-06 0.54839769)
(0 -5.1713834e-06 0.54839781)
(0 -5.233339e-06 0.54839704)
(0 -7.468797e-07 0.54839701)
(0 -7.7296756e-07 0.7070473)
(0 -2.1215641e-06 0.70704731)
(0 -5.4152747e-06 0.70704758)
(0 -5.5647556e-06 0.70704703)
(0 -7.4106241e-07 0.70704711)
(0 -7.5041516e-07 0.89631987)
(0 -1.9128318e-06 0.89632)
(0 -5.4488881e-06 0.89632043)
(0 -5.704292e-06 0.89632019)
(0 -6.9507533e-07 0.8963204)
(0 -6.8786852e-07 1.1158151)
(0 -1.5628395e-06 1.1158153)
(0 -5.223451e-06 1.1158159)
(0 -5.5918986e-06 1.1158161)
(0 -5.9965617e-07 1.1158164)
(0 -5.8660129e-07 1.3631209)
(0 -1.0773721e-06 1.3631212)
(0 -4.7021114e-06 1.363122)
(0 -5.1770719e-06 1.3631226)
(0 -4.4828707e-07 1.3631231)
(0 -4.5212695e-07 1.6334525)
(0 -4.781758e-07 1.6334529)
(0 -3.8713074e-06 1.6334538)
(0 -4.4305993e-06 1.6334549)
(0 -2.395182e-07 1.6334556)
(0 -2.9498856e-07 1.9194861)
(0 1.9358818e-07 1.9194866)
(0 -2.751162e-06 1.9194875)
(0 -3.3559926e-06 1.9194891)
(0 2.0826943e-08 1.9194899)
(0 -1.31001e-07 2.211454)
(0 8.7518688e-07 2.2114544)
(0 -1.4050922e-06 2.2114553)
(0 -2.0005227e-06 2.2114573)
(0 3.1750525e-07 2.2114582)
(0 1.9429425e-08 2.4975407)
(0 1.4818423e-06 2.4975411)
(0 5.0953467e-08 2.4975417)
(0 -4.6642123e-07 2.4975439)
(0 6.2354896e-07 2.4975448)
(0 1.3464504e-07 2.7645834)
(0 1.911825e-06 2.7645837)
(0 1.4394134e-06 2.764584)
(0 1.0754452e-06 2.7645862)
(0 8.9725952e-07 2.7645868)
(0 2.0247209e-07 2.9990313)
(0 2.0721014e-06 2.9990314)
(0 2.517005e-06 2.9990313)
(0 2.3652758e-06 2.999033)
(0 1.077776e-06 2.9990333)
(0 2.4094104e-07 3.188072)
(0 1.9544509e-06 3.1880721)
(0 3.0059063e-06 3.1880716)
(0 3.0337464e-06 3.1880723)
(0 1.0805863e-06 3.1880719)
(0 2.799784e-07 3.320797)
(0 1.6966103e-06 3.3207968)
(0 2.7330043e-06 3.3207959)
(0 2.6689786e-06 3.3207952)
(0 8.0841125e-07 3.3207939)
(0 1.3471362e-07 3.395051)
(0 8.7181144e-07 3.3950504)
(0 1.3892651e-06 3.3950482)
(0 1.0690539e-06 3.3950458)
(0 2.3301985e-07 3.3950442)
)
;
    }
    wall_maxX
    {
        type            calculated;
        value           nonuniform List<vector> 
100
(
(0 -1.0002377e-07 0.13158602)
(0 -2.8894873e-07 0.13158542)
(0 -2.6138819e-07 0.13158494)
(0 -1.009489e-07 0.13158455)
(0 1.4350811e-08 0.13158463)
(0 -3.0348431e-07 0.1501639)
(0 -7.4988938e-07 0.1501634)
(0 -5.2105951e-07 0.15016325)
(0 -1.5997131e-07 0.15016313)
(0 4.4283523e-08 0.15016326)
(0 -4.3746513e-07 0.18539125)
(0 -9.3810513e-07 0.18539096)
(0 -5.3191914e-07 0.18539115)
(0 -9.7664361e-08 0.18539113)
(0 1.015649e-07 0.1853913)
(0 -4.9529865e-07 0.2403778)
(0 -8.5151876e-07 0.24037772)
(0 -3.5242527e-07 0.2403782)
(0 -5.343202e-09 0.24037826)
(0 1.5900752e-07 0.24037843)
(0 -4.9608248e-07 0.31744137)
(0 -5.4053325e-07 0.31744144)
(0 1.3176154e-08 0.31744219)
(0 1.3165231e-07 0.31744234)
(0 2.1471109e-07 0.31744251)
(0 -4.4776519e-07 0.41923974)
(0 -3.1760652e-08 0.41923996)
(0 5.5262815e-07 0.41924096)
(0 3.180336e-07 0.41924121)
(0 2.7019506e-07 0.41924138)
(0 -3.4867995e-07 0.54839701)
(0 6.7610614e-07 0.54839739)
(0 1.2622364e-06 0.54839863)
(0 5.4834811e-07 0.54839898)
(0 3.2349188e-07 0.54839913)
(0 -1.9390558e-07 0.70704711)
(0 1.5907192e-06 0.70704766)
(0 2.1390905e-06 0.70704914)
(0 8.1420512e-07 0.70704957)
(0 3.711281e-07 0.7070497)
(0 2.0101858e-08 0.8963204)
(0 2.7096536e-06 0.89632113)
(0 3.1707217e-06 0.89632282)
(0 1.1058043e-06 0.89632332)
(0 4.0972222e-07 0.89632342)
(0 2.9230039e-07 1.1158164)
(0 4.0094058e-06 1.1158173)
(0 4.3269736e-06 1.1158192)
(0 1.4108837e-06 1.1158197)
(0 4.3657689e-07 1.1158198)
(0 6.1483469e-07 1.3631231)
(0 5.438442e-06 1.3631242)
(0 5.5547683e-06 1.363126)
(0 1.7132325e-06 1.3631266)
(0 4.4976942e-07 1.3631266)
(0 9.7164288e-07 1.6334556)
(0 6.9138027e-06 1.6334567)
(0 6.7756804e-06 1.6334585)
(0 1.9911883e-06 1.633459)
(0 4.4789754e-07 1.633459)
(0 1.3378171e-06 1.9194899)
(0 8.3208913e-06 1.919491)
(0 7.8857603e-06 1.9194925)
(0 2.215661e-06 1.919493)
(0 4.2937762e-07 1.9194929)
(0 1.6794776e-06 2.2114582)
(0 9.5153982e-06 2.2114591)
(0 8.7562994e-06 2.2114602)
(0 2.3468352e-06 2.2114604)
(0 3.9114506e-07 2.2114603)
(0 1.9535996e-06 2.4975448)
(0 1.0325033e-05 2.4975454)
(0 9.233197e-06 2.4975458)
(0 2.3288005e-06 2.4975458)
(0 3.2682446e-07 2.4975456)
(0 2.1072704e-06 2.7645868)
(0 1.0548174e-05 2.764587)
(0 9.1322152e-06 2.7645865)
(0 2.08315e-06 2.764586)
(0 2.2546853e-07 2.7645857)
(0 2.0796155e-06 2.9990333)
(0 9.9561789e-06 2.9990329)
(0 8.2350225e-06 2.9990311)
(0 1.5125415e-06 2.9990301)
(0 7.6183124e-08 2.9990296)
(0 1.8306227e-06 3.1880719)
(0 8.3720513e-06 3.188071)
(0 6.3495013e-06 3.188068)
(0 5.7157725e-07 3.1880665)
(0 -1.012045e-07 3.1880661)
(0 1.4515536e-06 3.3207939)
(0 6.0654691e-06 3.3207921)
(0 3.7262234e-06 3.3207881)
(0 -4.0558074e-07 3.3207867)
(0 -1.6244364e-07 3.3207866)
(0 6.0701715e-07 3.3950442)
(0 2.5238597e-06 3.395041)
(0 9.4216006e-07 3.3950352)
(0 -8.9956422e-07 3.3950366)
(0 -1.5226024e-07 3.3950372)
)
;
    }
    wall_minY
    {
        type            calculated;
        value           nonuniform List<vector> 
100
(
(-1.8439126e-08 0 0.13158913)
(-1.4066963e-07 0 0.15016706)
(-3.2093401e-07 0 0.18539406)
(-4.932894e-07 0 0.24038005)
(-6.1903328e-07 0 0.31744307)
(-7.0558012e-07 0 0.419241)
(-7.5716074e-07 0 0.54839779)
(-7.7296757e-07 0 0.7070473)
(-7.5041516e-07 0 0.89631987)
(-6.8786852e-07 0 1.1158151)
(-5.8660128e-07 0 1.3631209)
(-4.5212694e-07 0 1.6334525)
(-2.9498856e-07 0 1.9194861)
(-1.31001e-07 0 2.211454)
(1.9429425e-08 0 2.4975407)
(1.3464504e-07 0 2.7645834)
(2.0247209e-07 0 2.9990313)
(2.4094104e-07 0 3.188072)
(2.799784e-07 0 3.320797)
(1.3471362e-07 0 3.395051)
(5.947868e-10 0 0.13158894)
(-4.7197072e-07 0 0.15016661)
(-1.1172823e-06 0 0.18539353)
(-1.6319446e-06 0 0.2403796)
(-1.9580301e-06 0 0.31744276)
(-2.1390427e-06 0 0.4192408)
(-2.1941051e-06 0 0.54839769)
(-2.1215641e-06 0 0.70704731)
(-1.9128318e-06 0 0.89632)
(-1.5628394e-06 0 1.1158153)
(-1.0773721e-06 0 1.3631212)
(-4.781758e-07 0 1.6334529)
(1.9358817e-07 0 1.9194866)
(8.7518688e-07 0 2.2114544)
(1.4818423e-06 0 2.4975411)
(1.911825e-06 0 2.7645837)
(2.0721014e-06 0 2.9990314)
(1.9544509e-06 0 3.1880721)
(1.6966103e-06 0 3.3207968)
(8.7181145e-07 0 3.3950504)
(-5.0887785e-07 0 0.13158882)
(-1.6244223e-06 0 0.15016594)
(-2.6890016e-06 0 0.1853929)
(-3.5552759e-06 0 0.24037921)
(-4.2280925e-06 0 0.31744257)
(-4.7651312e-06 0 0.41924077)
(-5.1713834e-06 0 0.54839781)
(-5.4152747e-06 0 0.70704758)
(-5.448888e-06 0 0.89632043)
(-5.223451e-06 0 1.1158159)
(-4.7021114e-06 0 1.363122)
(-3.8713074e-06 0 1.6334538)
(-2.751162e-06 0 1.9194875)
(-1.4050922e-06 0 2.2114553)
(5.0953458e-08 0 2.4975417)
(1.4394134e-06 0 2.764584)
(2.517005e-06 0 2.9990313)
(3.0059063e-06 0 3.1880716)
(2.7330044e-06 0 3.3207959)
(1.3892651e-06 0 3.3950482)
(-7.5991715e-07 0 0.13158683)
(-1.9184105e-06 0 0.15016443)
(-2.8020562e-06 0 0.1853916)
(-3.5660851e-06 0 0.24037807)
(-4.2087745e-06 0 0.31744155)
(-4.7675129e-06 0 0.41923985)
(-5.233339e-06 0 0.54839704)
(-5.5647556e-06 0 0.70704703)
(-5.704292e-06 0 0.89632019)
(-5.5918986e-06 0 1.1158161)
(-5.1770719e-06 0 1.3631226)
(-4.4305993e-06 0 1.6334549)
(-3.3559926e-06 0 1.9194891)
(-2.0005227e-06 0 2.2114573)
(-4.6642124e-07 0 2.4975439)
(1.0754452e-06 0 2.7645862)
(2.3652758e-06 0 2.999033)
(3.0337464e-06 0 3.1880723)
(2.6689786e-06 0 3.3207952)
(1.0690539e-06 0 3.3950458)
(-1.4852389e-07 0 0.13158602)
(-3.6996968e-07 0 0.1501639)
(-4.9929057e-07 0 0.18539125)
(-6.018798e-07 0 0.2403778)
(-6.734415e-07 0 0.31744137)
(-7.2203619e-07 0 0.41923974)