/*--------------------------------*- C++ -*----------------------------------*\
| =========                 |                                                 |
| \\      /  F ield         | OpenFOAM: The Open Source CFD Toolbox           |
|  \\    /   O peration     | Version:  v2106                                 |
|   \\  /    A nd           | Website:  www.openfoam.com                      |
|    \\/     M anipulation  |                                                 |
\*---------------------------------------------------------------------------*/
FoamFile
{
    version     2.0;
    format      ascii;
    arch        "LSB;label=32;scalar=64";
    class       volScalarField;
    location    "5";
    object      gradTy;
}
// * * * * * * * * * * * * * * * * * * * * * * * * * * * * * * * * * * * * * //

dimensions      [0 -1 0 1 0 0 0];

internalField   nonuniform List<scalar> 
500
(
-9.219562e-06
5.3048161e-05
-5.9377429e-05
-5.7386733e-05
-5.0011887e-05
2.973934e-07
-7.4939406e-05
-0.00023465568
-0.00018076886
-0.00014447437
-0.00025443892
-0.00042009127
-0.00036026838
-0.00022053932
-0.0001306941
-0.00037995858
-0.00036591027
-0.00028977726
-0.00013633598
-5.0474452e-05
-7.4261949e-05
-6.6887099e-05
-5.0065615e-05
-6.9902806e-06
7.1754054e-06
-7.0334818e-05
7.2983643e-06
-0.00019723069
-0.00018162152
-0.00015174216
-0.00023598536
-0.00042632916
-0.00067620456
-0.00049954978
-0.00037494469
-0.00081221115
-0.001095591
-0.00088543177
-0.00049396855
-0.00026052975
-0.00095920527
-0.00089097248
-0.0006579454
-0.00026607046
-7.9985656e-05
-0.00018498484
-0.00015510547
-0.00010191477
5.2039199e-07
2.2141761e-05
-0.000160467
-5.2618954e-05
-0.0003006492
-0.00026576443
-0.00021873257
-0.00055864114
-0.00076891443
-0.00099152864
-0.0006699592
-0.00046905257
-0.0013445008
-0.001664219
-0.0012455456
-0.00060516835
-0.00026595957
-0.0014010281
-0.0012781532
-0.00087855203
-0.00029856714
-4.883218e-05
-0.00024964528
-0.00020261342
-0.00011570753
2.3525769e-05
5.0782448e-05
-0.0002466447
-9.5330362e-05
-0.00037563656
-0.00031293512
-0.00024764933
-0.00081597229
-0.0010094601
-0.0011709095
-0.00069012782
-0.00042575938
-0.001777638
-0.0021040451
-0.0014583057
-0.00057757087
-0.00017621263
-0.0017830426
-0.0015910617
-0.0010378924
-0.00030896865
-2.671601e-06
-0.0003009399
-0.00023565411
-0.00012469427
3.191805e-05
7.9503762e-05
-0.00030951664
-0.00010917284
-0.00042084857
-0.00032960666
-0.00024804124
-0.00097901504
-0.0011460129
-0.0012327068
-0.0005870363
-0.00027026663
-0.0021140462
-0.002444697
-0.0015550696
-0.00043041258
6.588077e-06
-0.0021043873
-0.0018451763
-0.0011419471
-0.00028351861
6.5826154e-05
-0.00033672075
-0.00025515533
-0.00012554096
3.6178443e-05
0.00010735554
-0.00035279006
-9.9876062e-05
-0.00043995086
-0.00031941923
-0.0002238826
-0.0010695214
-0.0012002626
-0.0011945307
-0.0003762547
-1.5880326e-05
-0.0023825656
-0.0027118803
-0.0015585577
-0.0001805069
0.00027631408
-0.0023837565
-0.0020596541
-0.0012051061
-0.00022478225
0.0001590168
-0.00036101809
-0.00026548146
-0.00012076851
3.9065864e-05
0.00013509753
-0.00037858037
-7.1329125e-05
-0.00043197146
-0.00028113881
-0.00017433998
-0.0010970525
-0.0011771392
-0.0010532909
-5.5690762e-05
0.00033805307
-0.0025856917
-0.0029004062
-0.0014642433
0.00017249654
0.00063111818
-0.0026166695
-0.0022302223
-0.0012253255
-0.0001348608
0.00027417406
-0.00037343985
-0.00026664102
-0.00011094397
3.9106742e-05
0.00016174594
-0.00038648378
-2.5592159e-05
-0.00039340478
-0.00021161238
-9.6952792e-05
-0.0010607821
-0.0010711636
-0.0007966719
0.00038192703
0.00079535959
-0.0027076374
-0.0029866677
-0.0012545468
0.00063448521
0.0010695453
-0.0027823778
-0.0023376998
-0.0011903463
-1.360777e-05
0.00040710256
-0.0003705312
-0.00025587162
-9.4909505e-05
3.416841e-05
0.00018556405
-0.00037520758
3.5378896e-05
-0.00032079088
-0.00010830512
1.0050929e-05
-0.00095641588
-0.00087479084
-0.00041340384
0.0009393585
0.0013548268
-0.002724444
-0.0029399701
-0.00091029469
0.0012075587
0.0015853609
-0.002852146
-0.0023558833
-0.0010839154
0.00013977225
0.00055290213
-0.00034753767
-0.00022918161
-7.0558803e-05
2.2686461e-05
0.00020486111
-0.00034393426
0.00010854746
-0.00021263031
2.8881185e-05
0.00014615019
-0.00078141973
-0.00058446379
9.9443876e-05
0.001608304
0.0020047029
-0.0026117255
-0.0027312249
-0.00041895767
0.0018836653
0.0021634868
-0.0027959493
-0.0022577785
-0.00089069027
0.00032466594
0.00070544187
-0.00029982809
-0.00018255908
-3.5562171e-05
3.9886013e-06
0.00021828844
-0.00029330064
0.00018915858
-7.0773395e-05
0.00019632897
0.00030741735
-0.00053868604
-0.00020489517
0.00073124405
0.0023651229
0.002719221
-0.0023510557
-0.0023403001
0.00021896235
0.0026402954
0.0027773841
-0.0025885359
-0.0020212498
-0.00060055899
0.00053717198
0.00085661623
-0.00022414354
-0.00011305516
1.1921876e-05
-2.1662648e-05
0.00022488471
-0.00022606347
0.00027051376
9.8639534e-05
0.000385899
0.00048582144
-0.0002390879
0.00024796661
0.0014543177
0.0031685268
0.0034569013
-0.0019356537
-0.0017625759
0.00098490651
0.0034379004
0.0033878402
-0.0022152997
-0.0016345268
-0.00021271604
0.00076840687
0.00099559416
-0.0001197591
-1.9836657e-05
7.2490582e-05
-5.3210155e-05
0.00022394877
-0.00014749428
0.00034403522
0.00028466626
0.00058457199
0.00066890853
9.6794088e-05
0.00074503489
0.0022220725
0.0039591094
0.0041604456
-0.001375581
-0.0010147758
0.0018384935
0.0042188271
0.0039428801
-0.0016779963
-0.0011016329
0.00026037683
0.0010027538
0.0011078305
1.0413472e-05
9.4750015e-05
0.00014463765
-8.9214655e-05
0.00021468881
-6.55005e-05
0.00039949165
0.00047139815
0.00077442752
0.0008397388
0.00043759344
0.0012429414
0.0029684495
0.004660234
0.0047576991
-0.00070254608
-0.00014014228
0.0027147465
0.0049072448
0.0043781497
-0.0010002613
-0.00044775034
0.00078898824
0.0012156528
0.0011734176
0.00015875263
0.00022406391
0.00022372934
-0.00012866615
0.00019557253
9.7147127e-06
0.00042537232
0.00063791925
0.00093266548
0.0009767998
0.00074092113
0.0016832279
0.0036076827
0.0051790506
0.0051625163
2.5476733e-05
0.00078641646
0.0035212994
0.0054088371
0.0046165985
-0.00023321062
0.00027511022
0.001321623
0.0013704093
0.0011644003
0.00031177448
0.00035590881
0.00030075157
-0.00017225027
0.00016341223
6.732252e-05
0.00041023348
0.00075818877
0.0010313116
0.0010536352
0.00095591251
0.0019922119
0.0040326866
0.0054057169
0.0052740868
0.00071970671
0.0016513239
0.0041332117
0.0056081556
0.0045661076
0.00053772262
0.00098089223
0.0017791228
0.0014137881
0.001041575
0.00044862976
0.00047095335
0.00036087637
-0.00022374535
0.00011273426
0.00010123605
0.00034941682
0.00080239551
0.0010378314
0.0010398078
0.0010360507
0.0020877899
0.0041134541
0.0052122526
0.0049780895
0.0012585025
0.0022911243
0.0043829652
0.005363075
0.0041175112
0.0011826379
0.0015387563
0.0020472733
0.0012733023
0.00075627076
0.00053888802
0.00054086441
0.00038277928
-0.00028951142
3.8091562e-05
0.00012047052
0.00026977291
0.00075096846
0.0009276809
0.00091531135
0.00097722547
0.0019229724
0.0037237536
0.0044810426
0.0041860257
0.0015029532
0.0024898151
0.0040610233
0.0045176136
0.0031747506
0.0015168732
0.0017633875
0.0019791452
0.00087711483
0.00028578863
0.00054029315
0.00052792361
0.00034361521
-0.00036731836
-5.060225e-05
0.0001399892
0.00025960578
0.00064492842
0.00073761606
0.0007257768
0.00084830513
0.001605714
0.0029001137
0.0032786415
0.0030327345
0.0013665022
0.0020835176
0.0030394297
0.0030571496
0.0018631117
0.0013344893
0.0014557619
0.0014671101
0.00027944387
-0.00020279037
0.00040420563
0.00039236636
0.00024026767
-0.00040365891
-8.1221822e-05
6.7356809e-05
0.00015679717
0.000327398
0.00033180631
0.00030350858
0.00043590572
0.00082596751
0.0013604052
0.0014241942
0.0012619298
0.00069463256
0.00095714627
0.0012928592
0.0011718216
0.00047108003
0.00053452694
0.00049869279
0.00043605154
-0.00032308637
-0.00044978211
0.00011650992
8.8212188e-05
8.3337075e-06
-0.00037894884
-7.6130119e-05
)
;

boundaryField
{
    wall_minX
    {
        type            calculated;
        value           nonuniform List<scalar> 
100
(
-9.219562e-06
2.973934e-07
-0.00025443892
-0.00037995858
-7.4261949e-05
-7.0334818e-05
-0.00023598536
-0.00081221115
-0.00095920527
-0.00018498484
-0.000160467
-0.00055864114
-0.0013445008
-0.0014010281
-0.00024964528
-0.0002466447
-0.00081597229
-0.001777638
-0.0017830426
-0.0003009399
-0.00030951664
-0.00097901504
-0.0021140462
-0.0021043873
-0.00033672075
-0.00035279006
-0.0010695214
-0.0023825656
-0.0023837565
-0.00036101809
-0.00037858037
-0.0010970525
-0.0025856917
-0.0026166695
-0.00037343985
-0.00038648378
-0.0010607821
-0.0027076374
-0.0027823778
-0.0003705312
-0.00037520758
-0.00095641588
-0.002724444
-0.002852146
-0.00034753767
-0.00034393426
-0.00078141973
-0.0026117255
-0.0027959493
-0.00029982809
-0.00029330064
-0.00053868604
-0.0023510557
-0.0025885359
-0.00022414354
-0.00022606347
-0.0002390879
-0.0019356537
-0.0022152997
-0.0001197591
-0.00014749428
9.6794088e-05
-0.001375581
-0.0016779963
1.0413472e-05
-6.55005e-05
0.00043759344
-0.00070254608
-0.0010002613
0.00015875263
9.7147127e-06
0.00074092113
2.5476733e-05
-0.00023321062
0.00031177448
6.732252e-05
0.00095591251
0.00071970671
0.00053772262
0.00044862976
0.00010123605
0.0010360507
0.0012585025
0.0011826379
0.00053888802
0.00012047052
0.00097722547
0.0015029532
0.0015168732
0.00054029315
0.0001399892
0.00084830513
0.0013665022
0.0013344893
0.00040420563
6.7356809e-05
0.00043590572
0.00069463256
0.00053452694
0.00011650992
)
;
    }
    wall_maxX
    {
        type            calculated;
        value           nonuniform List<scalar> 
100
(
-5.0011887e-05
-0.00014447437
-0.0001306941
-5.0474452e-05
7.1754054e-06
-0.00015174216
-0.00037494469
-0.00026052975
-7.9985656e-05
2.2141761e-05
-0.00021873257
-0.00046905257
-0.00026595957
-4.883218e-05
5.0782448e-05
-0.00024764933
-0.00042575938
-0.00017621263
-2.671601e-06
7.9503762e-05
-0.00024804124
-0.00027026663
6.588077e-06
6.5826154e-05
0.00010735554
-0.0002238826
-1.5880326e-05
0.00027631408
0.0001590168
0.00013509753
-0.00017433998
0.00033805307
0.00063111818
0.00027417406
0.00016174594
-9.6952792e-05
0.00079535959
0.0010695453
0.00040710256
0.00018556405
1.0050929e-05
0.0013548268
0.0015853609
0.00055290213
0.00020486111
0.00014615019
0.0020047029
0.0021634868
0.00070544187
0.00021828844
0.00030741735
0.002719221
0.0027773841
0.00085661623
0.00022488471
0.00048582144
0.0034569013
0.0033878402
0.00099559416
0.00022394877
0.00066890853
0.0041604456
0.0039428801
0.0011078305
0.00021468881
0.0008397388
0.0047576991
0.0043781497
0.0011734176
0.00019557253
0.0009767998
0.0051625163
0.0046165985
0.0011644003
0.00016341223
0.0010536352
0.0052740868
0.0045661076
0.001041575
0.00011273426
0.0010398078
0.0049780895
0.0041175112
0.00075627076
3.8091562e-05
0.00091531135
0.0041860257
0.0031747506
0.00028578863
-5.060225e-05
0.0007257768
0.0030327345
0.0018631117
-0.00020279037
-8.1221822e-05
0.00030350858
0.0012619298
0.00047108003
-0.00044978211
-7.6130119e-05
)
;
    }
    wall_minY
    {
        type            calculated;
        value           uniform 0;
    }
    wall_maxY
    {
        type            calculated;
        value           uniform 0;
    }
    inlet_minZ
    {
        type            calculated;
        value           nonuniform List<scalar> 
25
(
-9.219562e-06
2.973934e-07
-0.00025443892
-0.00037995858
-7.4261949e-05
5.3048161e-05
-7.4939406e-05
-0.00042009127
-0.00036591027
-6.6887099e-05
-5.9377429e-05
-0.00023465568
-0.00036026838
-0.00028977726
-5.0065615e-05
-5.7386733e-05
-0.00018076886
-0.00022053932
-0.00013633598
-6.9902806e-06
-5.0011887e-05
-0.00014447437
-0.0001306941
-5.0474452e-05
7.1754054e-06
)
;
    }
    outlet_maxZ
    {
        type            calculated;
        value           nonuniform List<scalar> 
25
(
6.7356809e-05
0.00043590572
0.00069463256
0.00053452694
0.00011650992
0.00015679717
0.00082596751
0.00095714627
0.00049869279
8.8212188e-05
0.000327398
0.0013604052
0.0012928592
0.00043605154
8.3337075e-06
0.00033180631
0.0014241942
0.0011718216
-0.00032308637
-0.00037894884
0.00030350858
0.0012619298
0.00047108003
-0.00044978211
-7.6130119e-05
)
;
    }
}


// ************************************************************************* //
