/*--------------------------------*- C++ -*----------------------------------*\
| =========                 |                                                 |
| \\      /  F ield         | OpenFOAM: The Open Source CFD Toolbox           |
|  \\    /   O peration     | Version:  v2106                                 |
|   \\  /    A nd           | Website:  www.openfoam.com                      |
|    \\/     M anipulation  |                                                 |
\*---------------------------------------------------------------------------*/
FoamFile
{
    version     2.0;
    format      ascii;
    arch        "LSB;label=32;scalar=64";
    class       volScalarField;
    location    "5";
    object      gradTz;
}
// * * * * * * * * * * * * * * * * * * * * * * * * * * * * * * * * * * * * * //

dimensions      [0 -1 0 1 0 0 0];

internalField   nonuniform List<scalar> 
500
(
65.794566
65.794468
65.794409
65.793417
65.793009
65.794468
65.794634
65.794034
65.793063
65.792708
65.794409
65.794034
65.793489
65.792723
65.792471
65.793417
65.793063
65.792723
65.792293
65.792273
65.793009
65.792708
65.792471
65.792273
65.792316
75.083531
75.083304
75.082972
75.082214
75.081951
75.083304
75.083146
75.08261
75.081902
75.081698
75.082972
75.08261
75.082215
75.081725
75.081627
75.082214
75.081902
75.081725
75.081517
75.081563
75.081951
75.081698
75.081627
75.081563
75.081628
92.697029
92.696764
92.696449
92.695799
92.695625
92.696764
92.69661
92.696181
92.695602
92.695481
92.696449
92.696181
92.695954
92.695608
92.695574
92.695799
92.695602
92.695608
92.695518
92.695565
92.695625
92.695481
92.695574
92.695565
92.695651
120.19003
120.1898
120.18961
120.18903
120.1889
120.1898
120.18972
120.18943
120.18894
120.18886
120.18961
120.18943
120.18936
120.18912
120.1891
120.18903
120.18894
120.18912
120.18911
120.18913
120.1889
120.18886
120.1891
120.18913
120.18922
158.72154
158.72138
158.72128
158.72077
158.72068
158.72138
158.72137
158.72119
158.72076
158.72072
158.72128
158.72119
158.72126
158.72109
158.72109
158.72077
158.72076
158.72109
158.72116
158.72117
158.72068
158.72072
158.72109
158.72117
158.72125
209.6205
209.6204
209.62038
209.61993
209.61987
209.6204
209.62046
209.62037
209.62
209.61998
209.62038
209.62037
209.62056
209.62046
209.62048
209.61993
209.62
209.62046
209.6206
209.62061
209.61987
209.61998
209.62048
209.62061
209.62069
274.1989
274.19884
274.1989
274.19852
274.19851
274.19884
274.19896
274.19897
274.19868
274.1987
274.1989
274.19897
274.1993
274.19928
274.19932
274.19852
274.19868
274.19928
274.1995
274.19949
274.19851
274.1987
274.19932
274.19949
274.19956
353.52365
353.52365
353.52379
353.52351
353.52355
353.52365
353.52381
353.52396
353.52377
353.52383
353.52379
353.52396
353.52443
353.52451
353.52457
353.52351
353.52377
353.52451
353.52481
353.52478
353.52355
353.52383
353.52457
353.52478
353.52485
448.15994
448.16
448.16022
448.1601
448.1602
448.16
448.1602
448.16049
448.16046
448.16057
448.16022
448.16049
448.16111
448.16132
448.16141
448.1601
448.16046
448.16132
448.16171
448.16166
448.1602
448.16057
448.16141
448.16166
448.16171
557.90753
557.90766
557.90795
557.90803
557.90821
557.90766
557.90789
557.90833
557.90849
557.90866
557.90795
557.90833
557.9091
557.90946
557.90958
557.90803
557.90849
557.90946
557.90992
557.90985
557.90821
557.90866
557.90958
557.90985
557.90988
681.56045
681.56062
681.56099
681.5613
681.56157
681.56062
681.56087
681.56146
681.56184
681.56208
681.56099
681.56146
681.56234
681.56286
681.56302
681.5613
681.56184
681.56286
681.56339
681.5633
681.56157
681.56208
681.56302
681.5633
681.56331
816.72625
816.72647
816.72689
816.72745
816.7278
816.72647
816.7267
816.72742
816.72803
816.72834
816.72689
816.72742
816.72838
816.72904
816.72924
816.72745
816.72803
816.72904
816.72961
816.72951
816.7278
816.72834
816.72924
816.72951
816.72949
959.74307
959.74331
959.74374
959.74454
959.74496
959.74331
959.7435
959.7443
959.74512
959.74549
959.74374
959.7443
959.74526
959.74603
959.74626
959.74454
959.74512
959.74603
959.74659
959.74648
959.74496
959.74549
959.74626
959.74648
959.74644
1105.727
1105.7272
1105.7276
1105.7286
1105.7291
1105.7272
1105.7273
1105.7282
1105.7291
1105.7295
1105.7276
1105.7282
1105.729
1105.7298
1105.7301
1105.7286
1105.7291
1105.7298
1105.7303
1105.7302
1105.7291
1105.7295
1105.7301
1105.7302
1105.7301
1248.7703
1248.7705
1248.7709
1248.772
1248.7724
1248.7705
1248.7706
1248.7713
1248.7723
1248.7727
1248.7709
1248.7713
1248.7719
1248.7727
1248.7729
1248.772
1248.7723
1248.7727
1248.773
1248.7729
1248.7724
1248.7727
1248.7729
1248.7729
1248.7728
1382.2917
1382.2918
1382.292
1382.2931
1382.2934
1382.2918
1382.2917
1382.2923
1382.2932
1382.2935
1382.292
1382.2923
1382.2925
1382.2931
1382.2932
1382.2931
1382.2932
1382.2931
1382.2932
1382.293
1382.2934
1382.2935
1382.2932
1382.293
1382.2928
1499.5156
1499.5157
1499.5157
1499.5165
1499.5166
1499.5157
1499.5155
1499.5157
1499.5164
1499.5164
1499.5157
1499.5157
1499.5154
1499.5156
1499.5156
1499.5165
1499.5164
1499.5156
1499.5153
1499.515
1499.5166
1499.5164
1499.5156
1499.515
1499.5148
1594.036
1594.0361
1594.0358
1594.0362
1594.036
1594.0361
1594.0359
1594.0356
1594.0357
1594.0355
1594.0358
1594.0356
1594.0346
1594.0342
1594.034
1594.0362
1594.0357
1594.0342
1594.0334
1594.0332
1594.036
1594.0355
1594.034
1594.0332
1594.0331
1660.3985
1660.3984
1660.3979
1660.3976
1660.397
1660.3984
1660.3982
1660.3973
1660.3967
1660.396
1660.3979
1660.3973
1660.3956
1660.3945
1660.394
1660.3976
1660.3967
1660.3945
1660.3934
1660.3933
1660.397
1660.396
1660.394
1660.3933
1660.3933
1697.5255
1697.5252
1697.5241
1697.5229
1697.5221
1697.5252
1697.5244
1697.5225
1697.5211
1697.5205
1697.5241
1697.5225
1697.5194
1697.5178
1697.5176
1697.5229
1697.5211
1697.5178
1697.5168
1697.5183
1697.5221
1697.5205
1697.5176
1697.5183
1697.5186
)
;

boundaryField
{
    wall_minX
    {
        type            calculated;
        value           nonuniform List<scalar> 
100
(
65.794566
65.794468
65.794409
65.793417
65.793009
75.083531
75.083304
75.082972
75.082214
75.081951
92.697029
92.696764
92.696449
92.695799
92.695625
120.19003
120.1898
120.18961
120.18903
120.1889
158.72154
158.72138
158.72128
158.72077
158.72068
209.6205
209.6204
209.62038
209.61993
209.61987
274.1989
274.19884
274.1989
274.19852
274.19851
353.52365
353.52365
353.52379
353.52351
353.52355
448.15994
448.16
448.16022
448.1601
448.1602
557.90753
557.90766
557.90795
557.90803
557.90821
681.56045
681.56062
681.56099
681.5613
681.56157
816.72625
816.72647
816.72689
816.72745
816.7278
959.74307
959.74331
959.74374
959.74454
959.74496
1105.727
1105.7272
1105.7276
1105.7286
1105.7291
1248.7703
1248.7705
1248.7709
1248.772
1248.7724
1382.2917
1382.2918
1382.292
1382.2931
1382.2934
1499.5156
1499.5157
1499.5157
1499.5165
1499.5166
1594.036
1594.0361
1594.0358
1594.0362
1594.036
1660.3985
1660.3984
1660.3979
1660.3976
1660.397
1697.5255
1697.5252
1697.5241
1697.5229
1697.5221
)
;
    }
    wall_maxX
    {
        type            calculated;
        value           nonuniform List<scalar> 
100
(
65.793009
65.792708
65.792471
65.792273
65.792316
75.081951
75.081698
75.081627
75.081563
75.081628
92.695625
92.695481
92.695574
92.695565
92.695651
120.1889
120.18886
120.1891
120.18913
120.18922
158.72068
158.72072
158.72109
158.72117
158.72125
209.61987
209.61998
209.62048
209.62061
209.62069
274.19851
274.1987
274.19932
274.19949
274.19956
353.52355
353.52383
353.52457
353.52478
353.52485
448.1602
448.16057
448.16141
448.16166
448.16171
557.90821
557.90866
557.90958
557.90985
557.90988
681.56157
681.56208
681.56302
681.5633
681.56331
816.7278
816.72834
816.72924
816.72951
816.72949
959.74496
959.74549
959.74626
959.74648
959.74644
1105.7291
1105.7295
1105.7301
1105.7302
1105.7301
1248.7724
1248.7727
1248.7729
1248.7729
1248.7728
1382.2934
1382.2935
1382.2932
1382.293
1382.2928
1499.5166
1499.5164
1499.5156
1499.515
1499.5148
1594.036
1594.0355
1594.034
1594.0332
1594.0331
1660.397
1660.396
1660.394
1660.3933
1660.3933
1697.5221
1697.5205
1697.5176
1697.5183
1697.5186
)
;
    }
    wall_minY
    {
        type            calculated;
        value           nonuniform List<scalar> 
100
(
65.794566
75.083531
92.697029
120.19003
158.72154
209.6205
274.1989
353.52365
448.15994
557.90753
681.56045
816.72625
959.74307
1105.727
1248.7703
1382.2917
1499.5156
1594.036
1660.3985
1697.5255
65.794468
75.083304
92.696764
120.1898
158.72138
209.6204
274.19884
353.52365
448.16
557.90766
681.56062
816.72647
959.74331
1105.7272
1248.7705
1382.2918
1499.5157
1594.0361
1660.3984
1697.5252
65.794409
75.082972
92.696449
120.18961
158.72128
209.62038
274.1989
353.52379
448.16022
557.90795
681.56099
816.72689
959.74374
1105.7276
1248.7709
1382.292
1499.5157
1594.0358
1660.3979
1697.5241
65.793417
75.082214
92.695799
120.18903
158.72077
209.61993
274.19852
353.52351
448.1601
557.90803
681.5613
816.72745
959.74454
1105.7286
1248.772
1382.2931
1499.5165
1594.0362
1660.3976
1697.5229
65.793009
75.081951
92.695625
120.1889
158.72068
209.61987
274.19851
353.52355
448.1602
557.90821
681.56157
816.7278
959.74496
1105.7291
1248.7724
1382.2934
1499.5166
1594.036
1660.397
1697.5221
)
;
    }
    wall_maxY
    {
        type            calculated;
        value           nonuniform List<scalar> 
100
(
65.793009
75.081951
92.695625
120.1889
158.72068
209.61987
274.19851
353.52355
448.1602
557.90821
681.56157
816.7278
959.74496
1105.7291
1248.7724
1382.2934
1499.5166
1594.036
1660.397
1697.5221
65.792708
75.081698
92.695481
120.18886
158.72072
209.61998
274.1987
353.52383
448.16057
557.90866
681.56208
816.72834
959.74549
1105.7295
1248.7727
1382.2935
1499.5164
1594.0355
1660.396
1697.5205
65.792471
75.081627
92.695574
120.1891
158.72109
209.62048
274.19932
353.52457
448.16141
557.90958
681.56302
816.72924
959.74626
1105.7301
1248.7729
1382.2932
1499.5156
1594.034
1660.394
1697.5176
65.792273
75.081563
92.695565
120.18913
158.72117
209.62061
274.19949
353.52478
448.16166
557.90985
681.5633
816.72951
959.74648
1105.7302
1248.7729
1382.293
1499.515
1594.0332
1660.3933
1697.5183
65.792316
75.081628
92.695651
120.18922
158.72125
209.62069
274.19956
353.52485
448.16171
557.90988
681.56331
816.72949
959.74644
1105.7301
1248.7728
1382.2928
1499.5148
1594.0331
1660.3933
1697.5186
)
;
    }
    inlet_minZ
    {
        type            calculated;
        value           nonuniform List<scalar> 
25
(
64.383081
64.383025
64.383082
64.382008
64.381562
64.383025
64.383344
64.382726
64.381663
64.381262
64.383082
64.382726
64.382143
64.381285
64.380984
64.382008
64.381663
64.381285
64.380781
64.380739
64.381562
64.381262
64.380984
64.380739
64.380782
)
;
    }
    outlet_maxZ
    {
        type            calculated;
        value           nonuniform List<scalar> 
25
(
1703.3203
1703.3199
1703.3186
1703.3171
1703.3164
1703.3199
1703.319
1703.3166
1703.3152
1703.3146
1703.3186
1703.3166
1703.3131
1703.3114
1703.3114
1703.3171
1703.3152
1703.3114
1703.3105
1703.3127
1703.3164
1703.3146
1703.3114
1703.3127
1703.3132
)
;
    }
}


// ************************************************************************* //
