/*--------------------------------*- C++ -*----------------------------------*\
| =========                 |                                                 |
| \\      /  F ield         | OpenFOAM: The Open Source CFD Toolbox           |
|  \\    /   O peration     | Version:  v2106                                 |
|   \\  /    A nd           | Website:  www.openfoam.com                      |
|    \\/     M anipulation  |                                                 |
\*---------------------------------------------------------------------------*/
FoamFile
{
    version     2.0;
    format      ascii;
    arch        "LSB;label=32;scalar=64";
    class       volScalarField;
    location    "5";
    object      laplacianT;
}
// * * * * * * * * * * * * * * * * * * * * * * * * * * * * * * * * * * * * * //

dimensions      [0 -2 0 1 0 0 0];

internalField   nonuniform List<scalar> 
500
(
211.71998
211.72709
211.66188
211.71856
211.72076
211.72709
211.64675
211.67943
211.7257
211.72745
211.66188
211.67943
211.68801
211.72657
211.7313
211.71856
211.7257
211.72657
211.74987
211.73827
211.72076
211.72745
211.7313
211.73827
211.72796
646.57848
646.59382
646.50623
646.61095
646.60967
646.59382
646.50345
646.56555
646.65088
646.64119
646.50623
646.56555
646.57862
646.64386
646.63702
646.61095
646.65088
646.64386
646.67354
646.6369
646.60967
646.64119
646.63702
646.6369
646.61774
1114.702
1114.7351
1114.6407
1114.786
1114.7673
1114.7351
1114.6311
1114.7236
1114.846
1114.8175
1114.6407
1114.7236
1114.7374
1114.8226
1114.7954
1114.786
1114.846
1114.8226
1114.8539
1114.7945
1114.7673
1114.8175
1114.7954
1114.7945
1114.7627
1634.4755
1634.5311
1634.414
1634.6038
1634.573
1634.5311
1634.4127
1634.5219
1634.6805
1634.6364
1634.414
1634.5219
1634.522
1634.6278
1634.5882
1634.6038
1634.6805
1634.6278
1634.6602
1634.5979
1634.573
1634.6364
1634.5882
1634.5979
1634.5546
2218.5088
2218.5832
2218.4373
2218.6713
2218.6264
2218.5832
2218.4443
2218.5678
2218.7635
2218.7024
2218.4373
2218.5678
2218.5484
2218.6742
2218.6221
2218.6713
2218.7635
2218.6742
2218.7041
2218.6457
2218.6264
2218.7024
2218.6221
2218.6457
2218.5932
2871.189
2871.2814
2871.105
2871.3862
2871.3264
2871.2814
2871.1202
2871.2566
2871.4927
2871.415
2871.105
2871.2566
2871.2136
2871.3606
2871.2975
2871.3862
2871.4927
2871.3606
2871.3869
2871.3369
2871.3264
2871.415
2871.2975
2871.3369
2871.2774
3586.4309
3586.5403
3586.3333
3586.6627
3586.5874
3586.5403
3586.3571
3586.5037
3586.7818
3586.6878
3586.3333
3586.5037
3586.4317
3586.6003
3586.5277
3586.6627
3586.7818
3586.6003
3586.6213
3586.5853
3586.5874
3586.6878
3586.5277
3586.5853
3586.5212
4345.8149
4345.9398
4345.7041
4346.0796
4345.9883
4345.9398
4345.7371
4345.889
4346.208
4346.0987
4345.7041
4345.889
4345.7821
4345.9704
4345.8905
4346.0796
4346.208
4345.9704
4345.9837
4345.9693
4345.9883
4346.0987
4345.8905
4345.9693
4345.9031
5117.5854
5117.7232
5117.4632
5117.8786
5117.7712
5117.7232
5117.5066
5117.6568
5118.0122
5117.8888
5117.4632
5117.6568
5117.5088
5117.7127
5117.6278
5117.8786
5118.0122
5117.7127
5117.7149
5117.731
5117.7712
5117.8888
5117.6278
5117.731
5117.6659
5856.9586
5857.106
5856.8286
5857.2735
5857.1506
5857.106
5856.8838
5857.0237
5857.4072
5857.2715
5856.8286
5857.0237
5856.8293
5857.042
5856.9547
5857.2735
5857.4072
5857.042
5857.0295
5857.0854
5857.1506
5857.2715
5856.9547
5857.0854
5857.0245
6508.1416
6508.2946
6508.0093
6508.4686
6508.3316
6508.2946
6508.0777
6508.1975
6508.5967
6508.4511
6508.0093
6508.1975
6507.9532
6508.1658
6508.0785
6508.4686
6508.5967
6508.1658
6508.1345
6508.2392
6508.3316
6508.4511
6508.0785
6508.2392
6508.1855
7008.2831
7008.4371
7008.1558
7008.6106
7008.4618
7008.4371
7008.2388
7008.3282
7008.7271
7008.5746
7008.1558
7008.3282
7008.0335
7008.2347
7008.1498
7008.6106
7008.7271
7008.2347
7008.1812
7008.3417
7008.4618
7008.5746
7008.1498
7008.3417
7008.2977
7293.2861
7293.4364
7293.1724
7293.6007
7293.4436
7293.4364
7293.2707
7293.3205
7293.6999
7293.5442
7293.1724
7293.3205
7292.9783
7293.156
7293.0754
7293.6007
7293.6999
7293.156
7293.0775
7293.298
7293.4436
7293.5442
7293.0754
7293.298
7293.2652
7305.0424
7305.1843
7304.9516
7305.3303
7305.1693
7305.1843
7305.0655
7305.0679
7305.4074
7305.2524
7304.9516
7305.0679
7304.686
7304.8275
7304.7526
7305.3303
7305.4074
7304.8275
7304.7227
7305.0031
7305.1693
7305.2524
7304.7526
7305.0031
7304.9818
6999.2756
6999.405
6999.2168
6999.5234
6999.364
6999.405
6999.3453
6999.2959
6999.5751
6999.425
6999.2168
6999.2959
6998.8864
6998.9804
6998.912
6999.5234
6999.5751
6998.9804
6998.8501
6999.1847
6999.364
6999.425
6998.912
6999.1847
6999.1745
6352.8848
6352.998
6352.8659
6353.0811
6352.9293
6352.998
6353.0065
6352.9053
6353.1061
6352.9656
6352.8659
6352.9053
6352.4852
6352.5229
6352.4616
6353.0811
6353.1061
6352.5229
6352.3703
6352.7484
6352.9293
6352.9656
6352.4616
6352.7484
6352.7477
5369.5592
5369.6523
5369.5843
5369.6963
5369.559
5369.6523
5369.7317
5369.5876
5369.698
5369.572
5369.5843
5369.5876
5369.1805
5369.1587
5369.1049
5369.6963
5369.698
5369.1587
5368.9913
5369.3971
5369.559
5369.572
5369.1049
5369.3971
5369.4043
4082.543
4082.609
4082.6035
4082.6184
4082.5045
4082.609
4082.7401
4082.5841
4082.6087
4082.5033
4082.6035
4082.5841
4082.2298
4082.1608
4082.1154
4082.6184
4082.6087
4082.1608
4081.9996
4082.4129
4082.5045
4082.5033
4082.1154
4082.4129
4082.4255
2553.7838
2553.8098
2553.8192
2553.7729
2553.7
2553.8098
2553.8795
2553.7434
2553.7208
2553.6435
2553.8192
2553.7434
2553.4767
2553.4059
2553.3515
2553.7729
2553.7208
2553.4059
2553.3016
2553.6653
2553.7
2553.6435
2553.3515
2553.6653
2553.6385
869.24115
869.25853
869.2266
869.17116
869.17614
869.25853
869.25112
869.13979
869.12069
869.14229
869.2266
869.13979
868.96774
868.93127
868.95731
869.17116
869.12069
868.93127
868.89263
869.24435
869.17614
869.14229
868.95731
869.24435
869.21028
)
;

boundaryField
{
    wall_minX
    {
        type            extrapolatedCalculated;
        value           nonuniform List<scalar> 
100
(
211.71998
211.72709
211.66188
211.71856
211.72076
646.57848
646.59382
646.50623
646.61095
646.60967
1114.702
1114.7351
1114.6407
1114.786
1114.7673
1634.4755
1634.5311
1634.414
1634.6038
1634.573
2218.5088
2218.5832
2218.4373
2218.6713
2218.6264
2871.189
2871.2814
2871.105
2871.3862
2871.3264
3586.4309
3586.5403
3586.3333
3586.6627
3586.5874
4345.8149
4345.9398
4345.7041
4346.0796
4345.9883
5117.5854
5117.7232
5117.4632
5117.8786
5117.7712
5856.9586
5857.106
5856.8286
5857.2735
5857.1506
6508.1416
6508.2946
6508.0093
6508.4686
6508.3316
7008.2831
7008.4371
7008.1558
7008.6106
7008.4618
7293.2861
7293.4364
7293.1724
7293.6007
7293.4436
7305.0424
7305.1843
7304.9516
7305.3303
7305.1693
6999.2756
6999.405
6999.2168
6999.5234
6999.364
6352.8848
6352.998
6352.8659
6353.0811
6352.9293
5369.5592
5369.6523
5369.5843
5369.6963
5369.559
4082.543
4082.609
4082.6035
4082.6184
4082.5045
2553.7838
2553.8098
2553.8192
2553.7729
2553.7
869.24115
869.25853
869.2266
869.17116
869.17614
)
;
    }
    wall_maxX
    {
        type            extrapolatedCalculated;
        value           nonuniform List<scalar> 
100
(
211.72076
211.72745
211.7313
211.73827
211.72796
646.60967
646.64119
646.63702
646.6369
646.61774
1114.7673
1114.8175
1114.7954
1114.7945
1114.7627
1634.573
1634.6364
1634.5882
1634.5979
1634.5546
2218.6264
2218.7024
2218.6221
2218.6457
2218.5932
2871.3264
2871.415
2871.2975
2871.3369
2871.2774
3586.5874
3586.6878
3586.5277
3586.5853
3586.5212
4345.9883
4346.0987
4345.8905
4345.9693
4345.9031
5117.7712
5117.8888
5117.6278
5117.731
5117.6659
5857.1506
5857.2715
5856.9547
5857.0854
5857.0245
6508.3316
6508.4511
6508.0785
6508.2392
6508.1855
7008.4618
7008.5746
7008.1498
7008.3417
7008.2977
7293.4436
7293.5442
7293.0754
7293.298
7293.2652
7305.1693
7305.2524
7304.7526
7305.0031
7304.9818
6999.364
6999.425
6998.912
6999.1847
6999.1745
6352.9293
6352.9656
6352.4616
6352.7484
6352.7477
5369.559
5369.572
5369.1049
5369.3971
5369.4043
4082.5045
4082.5033
4082.1154
4082.4129
4082.4255
2553.7
2553.6435
2553.3515
2553.6653
2553.6385
869.17614
869.14229
868.95731
869.24435
869.21028
)
;
    }
    wall_minY
    {
        type            extrapolatedCalculated;
        value           nonuniform List<scalar> 
100
(
211.71998
646.57848
1114.702
1634.4755
2218.5088
2871.189
3586.4309
4345.8149
5117.5854
5856.9586
6508.1416
7008.2831
7293.2861
7305.0424
6999.2756
6352.8848
5369.5592
4082.543
2553.7838
869.24115
211.72709
646.59382
1114.7351
1634.5311
2218.5832
2871.2814
3586.5403
4345.9398
5117.7232
5857.106
6508.2946
7008.4371
7293.4364
7305.1843
6999.405
6352.998
5369.6523
4082.609
2553.8098
869.25853
211.66188
646.50623
1114.6407
1634.414
2218.4373
2871.105
3586.3333
4345.7041
5117.4632
5856.8286
6508.0093
7008.1558
7293.1724
7304.9516
6999.2168
6352.8659
5369.5843
4082.6035
2553.8192
869.2266
211.71856
646.61095
1114.786
1634.6038
2218.6713
2871.3862
3586.6627
4346.0796
5117.8786
5857.2735
6508.4686
7008.6106
7293.6007
7305.3303
6999.5234
6353.0811
5369.6963
4082.6184
2553.7729
869.17116
211.72076
646.60967
1114.7673
1634.573
2218.6264
2871.3264
3586.5874
4345.9883
5117.7712
5857.1506
6508.3316
7008.4618
7293.4436
7305.1693
6999.364
6352.9293
5369.559
4082.5045
2553.7
869.17614
)
;
    }
    wall_maxY
    {
        type            extrapolatedCalculated;
        value           nonuniform List<scalar> 
100
(
211.72076
646.60967
1114.7673
1634.573
2218.6264
2871.3264
3586.5874
4345.9883
5117.7712
5857.1506
6508.3316
7008.4618
7293.4436
7305.1693
6999.364
6352.9293
5369.559
4082.5045
2553.7
869.17614
211.72745
646.64119
1114.8175
1634.6364
2218.7024
2871.415
3586.6878
4346.0987
5117.8888
5857.2715
6508.4511
7008.5746
7293.5442
7305.2524
6999.425
6352.9656
5369.572
4082.5033
2553.6435
869.14229
211.7313
646.63702
1114.7954
1634.5882
2218.6221
2871.2975
3586.5277
4345.8905
5117.6278
5856.9547
6508.0785
7008.1498
7293.0754
7304.7526
6998.912
6352.4616
5369.1049
4082.1154
2553.3515
868.95731
211.73827
646.6369
1114.7945
1634.5979
2218.6457
2871.3369
3586.5853
4345.9693
5117.731
5857.0854
6508.2392
7008.3417
7293.298
7305.0031
6999.1847
6352.7484
5369.3971
4082.4129
2553.6653
869.24435
211.72796
646.61774
1114.7627
1634.5546
2218.5932
2871.2774
3586.5212
4345.9031
5117.6659
5857.0245
6508.1855
7008.2977
7293.2652
7304.9818
6999.1745
6352.7477
5369.4043
4082.4255
2553.6385
869.21028
)
;
    }
    inlet_minZ
    {
        type            extrapolatedCalculated;
        value           nonuniform List<scalar> 
25
(
211.71998
211.72709
211.66188
211.71856
211.72076
211.72709
211.64675
211.67943
211.7257
211.72745
211.66188
211.67943
211.68801
211.72657
211.7313
211.71856
211.7257
211.72657
211.74987
211.73827
211.72076
211.72745
211.7313
211.73827
211.72796
)
;
    }
    outlet_maxZ
    {
        type            extrapolatedCalculated;
        value           nonuniform List<scalar> 
25
(
869.24115
869.25853
869.2266
869.17116
869.17614
869.25853
869.25112
869.13979
869.12069
869.14229
869.2266
869.13979
868.96774
868.93127
868.95731
869.17116
869.12069
868.93127
868.89263
869.24435
869.17614
869.14229
868.95731
869.24435
869.21028
)
;
    }
}


// ************************************************************************* //
