/*--------------------------------*- C++ -*----------------------------------*\
| =========                 |                                                 |
| \\      /  F ield         | OpenFOAM: The Open Source CFD Toolbox           |
|  \\    /   O peration     | Version:  v2106                                 |
|   \\  /    A nd           | Website:  www.openfoam.com                      |
|    \\/     M anipulation  |                                                 |
\*---------------------------------------------------------------------------*/
FoamFile
{
    version     2.0;
    format      ascii;
    arch        "LSB;label=32;scalar=64";
    class       volScalarField;
    location    "5";
    object      T;
}
// * * * * * * * * * * * * * * * * * * * * * * * * * * * * * * * * * * * * * //

dimensions      [0 0 0 1 0 0 0];

internalField   nonuniform List<scalar> 
500
(
273.64383
273.64383
273.64383
273.64382
273.64382
273.64383
273.64383
273.64383
273.64382
273.64381
273.64383
273.64383
273.64382
273.64381
273.64381
273.64382
273.64382
273.64381
273.64381
273.64381
273.64382
273.64381
273.64381
273.64381
273.64381
275.01618
275.01618
275.01617
275.01614
275.01613
275.01618
275.01618
275.01616
275.01613
275.01612
275.01617
275.01616
275.01615
275.01612
275.01612
275.01614
275.01613
275.01612
275.01611
275.01611
275.01613
275.01612
275.01612
275.01611
275.01612
276.64717
276.64716
276.64715
276.64711
276.64709
276.64716
276.64716
276.64713
276.64709
276.64708
276.64715
276.64713
276.64711
276.64708
276.64707
276.64711
276.64709
276.64708
276.64707
276.64707
276.64709
276.64708
276.64707
276.64707
276.64707
278.72406
278.72405
278.72403
278.72398
278.72396
278.72405
278.72404
278.72401
278.72396
278.72394
278.72403
278.72401
278.72398
278.72395
278.72394
278.72398
278.72396
278.72395
278.72393
278.72394
278.72396
278.72394
278.72394
278.72394
278.72394
281.45477
281.45475
281.45473
281.45467
281.45465
281.45475
281.45475
281.45471
281.45465
281.45463
281.45473
281.45471
281.45468
281.45465
281.45464
281.45467
281.45465
281.45465
281.45463
281.45464
281.45465
281.45463
281.45464
281.45464
281.45464
285.07292
285.0729
285.07288
285.07281
285.07279
285.0729
285.0729
285.07285
285.07279
285.07277
285.07288
285.07285
285.07283
285.07279
285.07279
285.07281
285.07279
285.07279
285.07278
285.07278
285.07279
285.07277
285.07279
285.07278
285.07279
289.83959
289.83957
289.83955
289.83947
289.83944
289.83957
289.83957
289.83952
289.83945
289.83943
289.83955
289.83952
289.83951
289.83946
289.83946
289.83947
289.83945
289.83946
289.83946
289.83946
289.83944
289.83943
289.83946
289.83946
289.83947
296.04088
296.04086
296.04084
296.04075
296.04073
296.04086
296.04086
296.04081
296.04074
296.04072
296.04084
296.04081
296.04081
296.04076
296.04076
296.04075
296.04074
296.04076
296.04076
296.04076
296.04073
296.04072
296.04076
296.04076
296.04077
303.98054
303.98052
303.9805
303.98041
303.98039
303.98052
303.98052
303.98048
303.9804
303.98039
303.9805
303.98048
303.98048
303.98045
303.98044
303.98041
303.9804
303.98045
303.98045
303.98045
303.98039
303.98039
303.98044
303.98045
303.98046
313.96728
313.96726
313.96725
313.96715
313.96713
313.96726
313.96726
313.96723
313.96715
313.96714
313.96725
313.96723
313.96725
313.96722
313.96721
313.96715
313.96715
313.96722
313.96723
313.96723
313.96713
313.96714
313.96721
313.96723
313.96724
326.29684
326.29682
326.29682
326.29673
326.29672
326.29682
326.29683
326.29681
326.29674
326.29673
326.29682
326.29681
326.29685
326.29682
326.29682
326.29673
326.29674
326.29682
326.29685
326.29684
326.29672
326.29673
326.29682
326.29684
326.29686
341.2297
341.22968
341.22969
341.2296
341.2296
341.22968
341.2297
341.22969
341.22963
341.22963
341.22969
341.22969
341.22974
341.22973
341.22974
341.2296
341.22963
341.22973
341.22976
341.22976
341.2296
341.22963
341.22974
341.22976
341.22978
358.96589
358.96588
358.96589
358.96583
358.96583
358.96588
358.9659
358.96591
358.96586
358.96587
358.96589
358.96591
358.96598
358.96599
358.96599
358.96583
358.96586
358.96599
358.96603
358.96603
358.96583
358.96587
358.96599
358.96603
358.96604
379.61942
379.61941
379.61944
379.61939
379.6194
379.61941
379.61944
379.61946
379.61943
379.61945
379.61944
379.61946
379.61955
379.61957
379.61959
379.61939
379.61943
379.61957
379.61963
379.61962
379.6194
379.61945
379.61959
379.61962
379.61963
403.19497
403.19497
403.195
403.19497
403.19499
403.19497
403.195
403.19504
403.19503
403.19505
403.195
403.19504
403.19514
403.19518
403.1952
403.19497
403.19503
403.19518
403.19524
403.19523
403.19499
403.19505
403.1952
403.19523
403.19524
429.57023
429.57024
429.57027
429.57026
429.57029
429.57024
429.57026
429.57032
429.57033
429.57035
429.57027
429.57032
429.57043
429.57048
429.5705
429.57026
429.57033
429.57048
429.57055
429.57054
429.57029
429.57035
429.5705
429.57054
429.57054
458.48664
458.48664
458.48668
458.48669
458.48673
458.48664
458.48667
458.48673
458.48676
458.48679
458.48668
458.48673
458.48684
458.4869
458.48693
458.48669
458.48676
458.4869
458.48697
458.48695
458.48673
458.48679
458.48693
458.48695
458.48696
489.55086
489.55086
489.5509
489.55092
489.55096
489.55086
489.55088
489.55094
489.55098
489.55101
489.5509
489.55094
489.55105
489.5511
489.55112
489.55092
489.55098
489.5511
489.55116
489.55114
489.55096
489.55101
489.55112
489.55114
489.55114
522.24808
522.24809
522.24811
522.24814
522.24817
522.24809
522.2481
522.24815
522.24819
522.24821
522.24811
522.24815
522.24823
522.24827
522.24829
522.24814
522.24819
522.24827
522.24831
522.24828
522.24817
522.24821
522.24829
522.24828
522.24828
555.9668
555.9668
555.96681
555.96683
555.96684
555.9668
555.96681
555.96683
555.96685
555.96685
555.96681
555.96683
555.96687
555.96689
555.96689
555.96683
555.96685
555.96689
555.9669
555.96687
555.96684
555.96685
555.96689
555.96687
555.96687
)
;

boundaryField
{
    wall_minX
    {
        type            zeroGradient;
    }
    wall_maxX
    {
        type            zeroGradient;
    }
    wall_minY
    {
        type            zeroGradient;
    }
    wall_maxY
    {
        type            zeroGradient;
    }
    inlet_minZ
    {
        type            fixedValue;
        value           uniform 273;
    }
    outlet_maxZ
    {
        type            fixedValue;
        value           uniform 573;
    }
}


// ************************************************************************* //
