/*--------------------------------*- C++ -*----------------------------------*\
| =========                 |                                                 |
| \\      /  F ield         | OpenFOAM: The Open Source CFD Toolbox           |
|  \\    /   O peration     | Version:  v2106                                 |
|   \\  /    A nd           | Website:  www.openfoam.com                      |
|    \\/     M anipulation  |                                                 |
\*---------------------------------------------------------------------------*/
FoamFile
{
    version     2.0;
    format      ascii;
    arch        "LSB;label=32;scalar=64";
    class       volVectorField;
    location    "80";
    object      flux;
}
// * * * * * * * * * * * * * * * * * * * * * * * * * * * * * * * * * * * * * //

dimensions      [0 1 -1 1 0 0 0];

internalField   nonuniform List<vector> 
4000
(
(-1.4475689e-07 -1.447569e-07 0.72406096)
(-3.1806094e-07 -1.2834376e-07 0.72405989)
(-1.6016503e-07 -1.245388e-07 0.72405938)
(-8.6785183e-08 -1.230611e-07 0.72405907)
(-2.7742556e-08 -1.2219429e-07 0.72405893)
(2.3616754e-08 -1.2140093e-07 0.72405893)
(6.7442719e-08 -1.2032059e-07 0.72405905)
(9.9445823e-08 -1.1833456e-07 0.72405929)
(1.0622256e-07 -1.1386179e-07 0.72405959)
(3.3603936e-08 -1.0298129e-07 0.72405987)
(-1.2834376e-07 -3.1806094e-07 0.72405989)
(-2.8773379e-07 -2.8773381e-07 0.72405895)
(-1.5224104e-07 -2.7821018e-07 0.72405847)
(-8.3268425e-08 -2.7350963e-07 0.72405817)
(-2.52523e-08 -2.7030737e-07 0.72405803)
(2.6427312e-08 -2.6728017e-07 0.72405804)
(7.2042276e-08 -2.6343334e-07 0.72405818)
(1.0913401e-07 -2.5727713e-07 0.72405843)
(1.2925247e-07 -2.4579808e-07 0.72405876)
(4.4484444e-08 -2.235528e-07 0.72405915)
(-1.245388e-07 -1.6016502e-07 0.72405938)
(-2.7821018e-07 -1.5224103e-07 0.72405847)
(-1.4594085e-07 -1.4594086e-07 0.724058)
(-7.888237e-08 -1.4121444e-07 0.72405772)
(-2.1513095e-08 -1.3726257e-07 0.72405759)
(3.049078e-08 -1.3337907e-07 0.72405761)
(7.744576e-08 -1.2889176e-07 0.72405776)
(1.1708109e-07 -1.2305338e-07 0.72405802)
(1.3994689e-07 -1.152605e-07 0.72405838)
(4.8434121e-08 -1.067415e-07 0.7240588)
(-1.230611e-07 -8.6785173e-08 0.72405907)
(-2.7350964e-07 -8.3268423e-08 0.72405817)
(-1.4121445e-07 -7.8882369e-08 0.72405772)
(-7.4590138e-08 -7.4590139e-08 0.72405745)
(-1.7416929e-08 -7.0495419e-08 0.72405733)
(3.479812e-08 -6.6401158e-08 0.72405736)
(8.2367974e-08 -6.2033773e-08 0.72405752)
(1.2276528e-07 -5.7205802e-08 0.7240578)
(1.4556435e-07 -5.2139267e-08 0.72405818)
(5.016378e-08 -4.8142342e-08 0.72405861)
(-1.221943e-07 -2.7742558e-08 0.72405893)
(-2.7030738e-07 -2.5252313e-08 0.72405803)
(-1.3726257e-07 -2.15131e-08 0.72405759)
(-7.049542e-08 -1.7416935e-08 0.72405733)
(-1.3324114e-08 -1.3324122e-08 0.72405723)
(3.8952427e-08 -9.2788003e-09 0.72405726)
(8.6641116e-08 -5.2277574e-09 0.72405743)
(1.2697559e-07 -1.2159075e-09 0.72405773)
(1.4901035e-07 2.3992967e-09 0.72405812)
(5.1098738e-08 4.7662701e-09 0.72405855)
(-1.2140094e-07 2.3616747e-08 0.72405893)
(-2.6728018e-07 2.6427322e-08 0.72405804)
(-1.3337907e-07 3.0490782e-08 0.72405761)
(-6.640116e-08 3.4798122e-08 0.72405736)
(-9.278794e-09 3.8952423e-08 0.72405726)
(4.2894484e-08 4.2894476e-08 0.72405731)
(9.0430867e-08 4.6655995e-08 0.72405749)
(1.3039233e-07 5.0176676e-08 0.72405779)
(1.5154653e-07 5.3154337e-08 0.72405819)
(5.1741762e-08 5.4979342e-08 0.72405863)
(-1.2032058e-07 6.7442723e-08 0.72405905)
(-2.6343334e-07 7.2042284e-08 0.72405818)
(-1.2889177e-07 7.7445765e-08 0.72405776)
(-6.2033779e-08 8.2367977e-08 0.72405752)
(-5.227761e-09 8.6641124e-08 0.72405743)
(4.6655999e-08 9.0430862e-08 0.72405749)
(9.3923316e-08 9.392331e-08 0.72405768)
(1.3347394e-07 9.7183873e-08 0.72405799)
(1.5381301e-07 1.0002976e-07 0.7240584)
(5.2315408e-08 1.0188578e-07 0.72405885)
(-1.1833457e-07 9.9445824e-08 0.72405929)
(-2.5727713e-07 1.0913402e-07 0.72405843)
(-1.2305338e-07 1.1708108e-07 0.72405802)
(-5.72058e-08 1.2276526e-07 0.7240578)
(-1.2159085e-09 1.269756e-07 0.72405773)
(5.0176669e-08 1.3039233e-07 0.72405779)
(9.7183878e-08 1.3347393e-07 0.72405799)
(1.3649878e-07 1.3649877e-07 0.72405831)
(1.5624844e-07 1.3949714e-07 0.72405872)
(5.2979113e-08 1.4188385e-07 0.72405918)
(-1.1386179e-07 1.0622255e-07 0.72405959)
(-2.4579808e-07 1.2925248e-07 0.72405876)
(-1.1526052e-07 1.3994688e-07 0.72405838)
(-5.2139261e-08 1.4556435e-07 0.72405818)
(2.3993138e-09 1.4901035e-07 0.72405812)
(5.3154332e-08 1.5154653e-07 0.72405819)
(1.0002975e-07 1.5381302e-07 0.7240584)
(1.3949714e-07 1.5624844e-07 0.72405872)
(1.5919809e-07 1.591981e-07 0.72405915)
(5.3906547e-08 1.6242756e-07 0.72405961)
(-1.0298128e-07 3.3603932e-08 0.72405987)
(-2.235528e-07 4.4484444e-08 0.72405915)
(-1.067415e-07 4.843412e-08 0.7240588)
(-4.8142337e-08 5.0163789e-08 0.72405861)
(4.7662691e-09 5.1098736e-08 0.72405855)
(5.4979343e-08 5.174176e-08 0.72405863)
(1.0188579e-07 5.231541e-08 0.72405885)
(1.4188386e-07 5.2979116e-08 0.72405918)
(1.6242756e-07 5.3906551e-08 0.72405961)
(5.5132088e-08 5.5132092e-08 0.72406008)
(-6.3588137e-07 -6.3588137e-07 1.0770584)
(-1.4252447e-06 -5.5589691e-07 1.077057)
(-7.5522877e-07 -5.3816666e-07 1.0770563)
(-4.1609177e-07 -5.3117847e-07 1.0770559)
(-1.310561e-07 -5.2696868e-07 1.0770557)
(1.2088256e-07 -5.230761e-07 1.0770557)
(3.3876072e-07 -5.1774153e-07 1.0770559)
(5.0433825e-07 -5.0775992e-07 1.0770563)
(5.6161893e-07 -4.8399223e-07 1.0770568)
(1.8425891e-07 -4.15539e-07 1.0770573)
(-5.5589691e-07 -1.4252447e-06 1.077057)
(-1.2786726e-06 -1.2786726e-06 1.0770559)
(-7.181511e-07 -1.2341897e-06 1.0770552)
(-3.992948e-07 -1.2117479e-06 1.0770548)
(-1.1890254e-07 -1.1961544e-06 1.0770546)
(1.3472328e-07 -1.1813038e-06 1.0770546)
(3.6173498e-07 -1.1623488e-06 1.0770548)
(5.549622e-07 -1.1316858e-06 1.0770552)
(6.9995032e-07 -1.0723479e-06 1.0770558)
(2.5271214e-07 -9.4119585e-07 1.0770565)
(-5.3816666e-07 -7.5522876e-07 1.0770563)
(-1.2341897e-06 -7.181511e-07 1.0770552)
(-6.8830411e-07 -6.8830413e-07 1.0770546)
(-3.7805646e-07 -6.6542572e-07 1.0770542)
(-1.0061197e-07 -6.4611203e-07 1.077054)
(1.5468812e-07 -6.2705651e-07 1.077054)
(3.883787e-07 -6.0499065e-07 1.0770543)
(5.9433917e-07 -5.7620859e-07 1.0770547)
(7.5210893e-07 -5.3764943e-07 1.0770553)
(2.7169362e-07 -4.9650418e-07 1.077056)
(-5.3117847e-07 -4.1609177e-07 1.0770559)
(-1.211748e-06 -3.9929479e-07 1.0770548)
(-6.6542572e-07 -3.7805646e-07 1.0770542)
(-3.571027e-07 -3.571027e-07 1.0770538)
(-8.0533334e-08 -3.370369e-07 1.0770536)
(1.7584466e-07 -3.1693458e-07 1.0770537)
(4.1258291e-07 -2.954678e-07 1.0770539)
(6.2230343e-07 -2.7172054e-07 1.0770544)
(7.7965472e-07 -2.4679854e-07 1.077055)
(2.801423e-07 -2.2723701e-07 1.0770558)
(-5.2696867e-07 -1.3105611e-07 1.0770557)
(-1.1961544e-06 -1.1890255e-07 1.0770546)
(-6.4611202e-07 -1.0061197e-07 1.077054)
(-3.370369e-07 -8.0533328e-08 1.0770536)
(-6.0443848e-08 -6.0443843e-08 1.0770535)
(1.9625722e-07 -4.0567471e-08 1.0770536)
(4.3359273e-07 -2.0646418e-08 1.0770538)
(6.4300844e-07 -9.04342e-10 1.0770543)
(7.9659246e-07 1.6893082e-08 1.0770549)
(2.8473464e-07 2.8541357e-08 1.0770557)
(-5.230761e-07 1.2088257e-07 1.0770557)
(-1.1813038e-06 1.3472329e-07 1.0770546)
(-6.270565e-07 1.5468811e-07 1.077054)
(-3.1693458e-07 1.7584465e-07 1.0770537)
(-4.0567476e-08 1.9625721e-07 1.0770536)
(2.1564209e-07 2.1564207e-07 1.0770537)
(4.5224603e-07 2.3416228e-07 1.0770539)
(6.5984293e-07 2.5153014e-07 1.0770544)
(8.0910042e-07 2.6626227e-07 1.077055)
(2.8790782e-07 2.7532659e-07 1.0770559)
(-5.1774152e-07 3.3876073e-07 1.0770559)
(-1.1623488e-06 3.6173499e-07 1.0770548)
(-6.0499065e-07 3.883787e-07 1.0770543)
(-2.954678e-07 4.125829e-07 1.0770539)
(-2.064643e-08 4.3359273e-07 1.0770538)
(2.3416228e-07 4.5224603e-07 1.0770539)
(4.694808e-07 4.694808e-07 1.0770542)
(6.7510842e-07 4.8565833e-07 1.0770547)
(8.203889e-07 4.9993106e-07 1.0770554)
(2.9077752e-07 5.0942244e-07 1.0770562)
(-5.0775992e-07 5.0433825e-07 1.0770563)
(-1.1316858e-06 5.5496221e-07 1.0770552)
(-5.7620859e-07 5.9433917e-07 1.0770547)
(-2.7172055e-07 6.2230343e-07 1.0770544)
(-9.0434068e-10 6.4300843e-07 1.0770543)
(2.5153015e-07 6.5984294e-07 1.0770544)
(4.8565833e-07 6.7510843e-07 1.0770547)
(6.9029319e-07 6.9029321e-07 1.0770552)
(8.3286453e-07 7.0581168e-07 1.0770559)
(2.942354e-07 7.1901419e-07 1.0770567)
(-4.8399222e-07 5.6161894e-07 1.0770568)
(-1.0723479e-06 6.9995033e-07 1.0770558)
(-5.3764944e-07 7.5210894e-07 1.0770553)
(-2.4679854e-07 7.7965474e-07 1.077055)
(1.6893084e-08 7.9659247e-07 1.0770549)
(2.6626228e-07 8.0910044e-07 1.077055)
(4.9993107e-07 8.2038891e-07 1.0770554)
(7.0581167e-07 8.3286453e-07 1.0770559)
(8.4910989e-07 8.4910991e-07 1.0770566)
(2.9957919e-07 8.7074998e-07 1.0770574)
(-4.15539e-07 1.8425891e-07 1.0770573)
(-9.4119585e-07 2.5271213e-07 1.0770565)
(-4.9650417e-07 2.7169362e-07 1.077056)
(-2.2723701e-07 2.8014231e-07 1.0770558)
(2.8541355e-08 2.8473464e-07 1.0770557)
(2.7532659e-07 2.8790782e-07 1.0770559)
(5.0942243e-07 2.9077752e-07 1.0770562)
(7.1901419e-07 2.942354e-07 1.0770567)
(8.7074997e-07 2.995792e-07 1.0770574)
(3.0866212e-07 3.0866212e-07 1.0770583)
(-1.0325848e-06 -1.0325848e-06 1.0770786)
(-2.3450214e-06 -9.0282762e-07 1.0770775)
(-1.2827818e-06 -8.735964e-07 1.0770769)
(-7.1116478e-07 -8.6168196e-07 1.0770765)
(-2.1247502e-07 -8.5430003e-07 1.0770763)
(2.3794113e-07 -8.4736521e-07 1.0770763)
(6.3765147e-07 -8.3777868e-07 1.0770766)
(9.641014e-07 -8.1968938e-07 1.077077)
(1.1539213e-06 -7.7613148e-07 1.0770775)
(4.0105487e-07 -6.4902354e-07 1.0770782)
(-9.0282762e-07 -2.3450214e-06 1.0770775)
(-2.1065387e-06 -2.1065388e-06 1.0770765)
(-1.2210634e-06 -2.0323987e-06 1.0770759)
(-6.8222024e-07 -1.9937684e-06 1.0770755)
(-1.9099989e-07 -1.9663148e-06 1.0770754)
(2.6272316e-07 -1.939847e-06 1.0770754)
(6.791652e-07 -1.90584e-06 1.0770756)
(1.0565722e-06 -1.8505144e-06 1.0770761)
(1.40992e-06 -1.7426632e-06 1.0770767)
(5.2816281e-07 -1.5021753e-06 1.0770775)
(-8.735964e-07 -1.2827818e-06 1.0770769)
(-2.0323987e-06 -1.2210634e-06 1.0770759)
(-1.1700115e-06 -1.1700115e-06 1.0770753)
(-6.4508091e-07 -1.1300386e-06 1.077075)
(-1.5855362e-07 -1.0958398e-06 1.0770748)
(2.9841588e-07 -1.0618438e-06 1.0770749)
(7.2698401e-07 -1.0223202e-06 1.0770752)
(1.1272782e-06 -9.7066547e-07 1.0770756)
(1.5022604e-06 -9.0154704e-07 1.0770763)
(5.6138015e-07 -8.2933493e-07 1.0770772)
(-8.6168196e-07 -7.1116478e-07 1.0770765)
(-1.9937684e-06 -6.8222022e-07 1.0770755)
(-1.1300386e-06 -6.450809e-07 1.077075)
(-6.0804856e-07 -6.0804857e-07 1.0770746)
(-1.2280504e-07 -5.7234492e-07 1.0770745)
(3.3624278e-07 -5.3642755e-07 1.0770746)
(7.7034351e-07 -4.9797945e-07 1.0770749)
(1.1773453e-06 -4.5540537e-07 1.0770753)
(1.5512506e-06 -4.1078799e-07 1.077076)
(5.7630422e-07 -3.7610288e-07 1.0770769)
(-8.5430003e-07 -2.1247502e-07 1.0770763)
(-1.9663148e-06 -1.909999e-07 1.0770754)
(-1.0958398e-06 -1.5855361e-07 1.0770748)
(-5.7234493e-07 -1.2280505e-07 1.0770745)
(-8.6932596e-08 -8.69326e-08 1.0770744)
(3.7278136e-07 -5.1355003e-08 1.0770745)
(8.0800619e-07 -1.5624346e-08 1.0770748)
(1.2144697e-06 1.9842752e-08 1.0770753)
(1.5815629e-06 5.1838808e-08 1.077076)
(5.8450356e-07 7.2742603e-08 1.0770769)
(-8.4736521e-07 2.3794113e-07 1.0770763)
(-1.939847e-06 2.6272314e-07 1.0770754)
(-1.0618438e-06 2.9841588e-07 1.0770749)
(-5.3642755e-07 3.3624278e-07 1.0770746)
(-5.1354997e-08 3.7278137e-07 1.0770745)
(4.0755103e-07 4.0755103e-07 1.0770746)
(8.4154127e-07 4.408729e-07 1.0770749)
(1.2448085e-06 4.7226562e-07 1.0770754)
(1.6041504e-06 4.9907395e-07 1.0770761)
(5.9024008e-07 5.1571404e-07 1.077077)
(-8.3777868e-07 6.3765146e-07 1.0770766)
(-1.90584e-06 6.791652e-07 1.0770756)
(-1.0223202e-06 7.26984e-07 1.0770752)
(-4.9797943e-07 7.7034352e-07 1.0770749)
(-1.5624349e-08 8.0800619e-07 1.0770748)
(4.4087288e-07 8.4154126e-07 1.0770749)
(8.7272079e-07 8.7272078e-07 1.0770752)
(1.2726707e-06 9.0235342e-07 1.0770757)
(1.6250113e-06 9.2912623e-07 1.0770765)
(5.9559695e-07 9.4771191e-07 1.0770774)
(-8.1968939e-07 9.6410141e-07 1.077077)
(-1.8505144e-06 1.0565722e-06 1.0770761)
(-9.7066547e-07 1.1272782e-06 1.0770756)
(-4.5540536e-07 1.1773453e-06 1.0770753)
(1.9842746e-08 1.2144696e-06 1.0770753)
(4.7226562e-07 1.2448085e-06 1.0770754)
(9.0235343e-07 1.2726707e-06 1.0770757)
(1.3012139e-06 1.3012139e-06 1.0770763)
(1.6495089e-06 1.3323184e-06 1.077077)
(6.0263053e-07 1.3625858e-06 1.0770779)
(-7.7613148e-07 1.1539213e-06 1.0770775)
(-1.7426632e-06 1.40992e-06 1.0770767)
(-9.0154705e-07 1.5022604e-06 1.0770763)
(-4.1078798e-07 1.5512506e-06 1.077076)
(5.1838813e-08 1.5815629e-06 1.077076)
(4.9907396e-07 1.6041504e-06 1.0770761)
(9.2912622e-07 1.6250113e-06 1.0770765)
(1.3323184e-06 1.6495089e-06 1.077077)
(1.6863832e-06 1.6863832e-06 1.0770777)
(6.157752e-07 1.7557593e-06 1.0770787)
(-6.4902354e-07 4.0105487e-07 1.0770782)
(-1.5021753e-06 5.281628e-07 1.0770775)
(-8.2933493e-07 5.6138015e-07 1.0770772)
(-3.7610287e-07 5.7630422e-07 1.0770769)
(7.2742603e-08 5.8450356e-07 1.0770769)
(5.1571404e-07 5.9024008e-07 1.077077)
(9.477119e-07 5.9559695e-07 1.0770774)
(1.3625858e-06 6.0263053e-07 1.0770779)
(1.7557593e-06 6.157752e-07 1.0770787)
(6.4888128e-07 6.4888128e-07 1.0770798)
(-1.3917907e-06 -1.3917907e-06 1.0771112)
(-3.1735821e-06 -1.2171382e-06 1.0771102)
(-1.7524376e-06 -1.17765e-06 1.0771096)
(-9.6752224e-07 -1.1612362e-06 1.0771093)
(-2.6564736e-07 -1.1508508e-06 1.0771091)
(3.798434e-07 -1.1409506e-06 1.0771092)
(9.6473544e-07 -1.1271515e-06 1.0771094)
(1.4624291e-06 -1.1009621e-06 1.0771099)
(1.7952841e-06 -1.0375529e-06 1.0771105)
(6.3538696e-07 -8.5152997e-07 1.0771112)
(-1.2171382e-06 -3.1735821e-06 1.0771102)
(-2.8523711e-06 -2.8523711e-06 1.0771092)
(-1.6685846e-06 -2.7516043e-06 1.0771087)
(-9.273234e-07 -2.6980356e-06 1.0771084)
(-2.3521898e-07 -2.6592852e-06 1.0771083)
(4.1539238e-07 -2.6214877e-06 1.0771083)
(1.0247182e-06 -2.5726035e-06 1.0771086)
(1.596827e-06 -2.4927333e-06 1.077109)
(2.1694324e-06 -2.3364434e-06 1.0771097)
(8.2140987e-07 -1.9866481e-06 1.0771106)
(-1.17765e-06 -1.7524376e-06 1.0771096)
(-2.7516043e-06 -1.6685847e-06 1.0771087)
(-1.5981021e-06 -1.5981021e-06 1.0771082)
(-8.7520316e-07 -1.5420602e-06 1.0771079)
(-1.890995e-07 -1.4935466e-06 1.0771078)
(4.6652511e-07 -1.4449509e-06 1.0771079)
(1.0934899e-06 -1.3882097e-06 1.0771081)
(1.6985892e-06 -1.3139064e-06 1.0771086)
(2.3013693e-06 -1.214548e-06 1.0771093)
(8.6858382e-07 -1.111916e-06 1.0771102)
(-1.1612362e-06 -9.6752223e-07 1.0771093)
(-2.6980356e-06 -9.273234e-07 1.0771084)
(-1.5420602e-06 -8.7520316e-07 1.0771079)
(-8.2276795e-07 -8.2276794e-07 1.0771076)
(-1.3810965e-07 -7.7187794e-07 1.0771075)
(5.207293e-07 -7.2044924e-07 1.0771076)
(1.1557626e-06 -6.65241e-07 1.0771079)
(1.7704887e-06 -6.0403302e-07 1.0771084)
(2.3714228e-06 -5.3994579e-07 1.0771091)
(8.8983126e-07 -4.9044133e-07 1.0771101)
(-1.1508508e-06 -2.6564736e-07 1.0771091)
(-2.6592852e-06 -2.3521898e-07 1.0771083)
(-1.4935466e-06 -1.8909949e-07 1.0771078)
(-7.7187794e-07 -1.3810965e-07 1.0771075)
(-8.6780792e-08 -8.6780793e-08 1.0771074)
(5.7316206e-07 -3.5728838e-08 1.0771075)
(1.2099061e-06 1.5669633e-08 1.0771078)
(1.8238844e-06 6.6786518e-08 1.0771084)
(2.414961e-06 1.1294165e-07 1.0771091)
(9.015868e-07 1.4305651e-07 1.07711)
(-1.1409506e-06 3.798434e-07 1.0771092)
(-2.6214877e-06 4.1539239e-07 1.0771083)
(-1.4449509e-06 4.6652512e-07 1.0771079)
(-7.2044925e-07 5.207293e-07 1.0771076)
(-3.5728848e-08 5.7316207e-07 1.0771075)
(6.2317973e-07 6.2317973e-07 1.0771077)
(1.258278e-06 6.7128602e-07 1.077108)
(1.8677607e-06 7.168258e-07 1.0771085)
(2.4476928e-06 7.5595503e-07 1.0771093)
(9.0990784e-07 7.8040944e-07 1.0771102)
(-1.1271515e-06 9.6473543e-07 1.0771094)
(-2.5726035e-06 1.0247182e-06 1.0771086)
(-1.3882097e-06 1.0934899e-06 1.0771081)
(-6.6524099e-07 1.1557626e-06 1.0771079)
(1.5669636e-08 1.2099061e-06 1.0771078)
(6.7128601e-07 1.258278e-06 1.077108)
(1.3035522e-06 1.3035522e-06 1.0771083)
(1.9085534e-06 1.3470787e-06 1.0771089)
(2.4785446e-06 1.3871299e-06 1.0771096)
(9.1788973e-07 1.4156565e-06 1.0771106)
(-1.1009621e-06 1.4624291e-06 1.0771099)
(-2.4927333e-06 1.596827e-06 1.077109)
(-1.3139064e-06 1.6985892e-06 1.0771086)
(-6.0403303e-07 1.7704887e-06 1.0771084)
(6.678652e-08 1.8238844e-06 1.0771084)
(7.1682581e-07 1.8677607e-06 1.0771085)
(1.3470787e-06 1.9085534e-06 1.0771089)
(1.9513384e-06 1.9513385e-06 1.0771094)
(2.5162705e-06 1.9997872e-06 1.0771102)
(9.2892552e-07 2.0494487e-06 1.0771112)
(-1.0375529e-06 1.7952841e-06 1.0771105)
(-2.3364434e-06 2.1694324e-06 1.0771097)
(-1.214548e-06 2.3013693e-06 1.0771093)
(-5.399458e-07 2.3714228e-06 1.0771091)
(1.1294166e-07 2.414961e-06 1.0771091)
(7.5595503e-07 2.4476928e-06 1.0771093)
(1.3871299e-06 2.4785446e-06 1.0771096)
(1.9997872e-06 2.5162705e-06 1.0771102)
(2.5766548e-06 2.5766548e-06 1.077111)
(9.509974e-07 2.6983849e-06 1.077112)
(-8.5152997e-07 6.3538696e-07 1.0771112)
(-1.9866481e-06 8.2140987e-07 1.0771106)
(-1.111916e-06 8.6858382e-07 1.0771102)
(-4.9044133e-07 8.8983126e-07 1.0771101)
(1.4305652e-07 9.015868e-07 1.07711)
(7.8040943e-07 9.0990783e-07 1.0771102)
(1.4156565e-06 9.1788973e-07 1.0771106)
(2.0494487e-06 9.2892552e-07 1.0771112)
(2.6983849e-06 9.509974e-07 1.077112)
(1.0100789e-06 1.0100789e-06 1.0771131)
(-1.7311705e-06 -1.7311705e-06 1.0771557)
(-3.9471949e-06 -1.5133027e-06 1.0771547)
(-2.1768116e-06 -1.4641541e-06 1.0771542)
(-1.1883837e-06 -1.4435154e-06 1.0771538)
(-2.9109172e-07 -1.4302662e-06 1.0771537)
(5.4492039e-07 -1.417487e-06 1.0771538)
(1.3135327e-06 -1.3995526e-06 1.0771541)
(1.9825783e-06 -1.3653786e-06 1.0771545)
(2.4550759e-06 -1.2823915e-06 1.0771551)
(8.7468626e-07 -1.0383478e-06 1.0771559)
(-1.5133027e-06 -3.9471949e-06 1.0771547)
(-3.5466703e-06 -3.5466703e-06 1.0771538)
(-2.0721306e-06 -3.4208946e-06 1.0771533)
(-1.1375518e-06 -3.3532622e-06 1.077153)
(-2.5204906e-07 -3.3037122e-06 1.0771529)
(5.9099076e-07 -3.2549139e-06 1.077153)
(1.3916952e-06 -3.1914447e-06 1.0771533)
(2.15832e-06 -3.0874149e-06 1.0771538)
(2.9456222e-06 -2.8834141e-06 1.0771544)
(1.11873e-06 -2.426084e-06 1.0771553)
(-1.4641541e-06 -2.1768116e-06 1.0771542)
(-3.4208946e-06 -2.0721306e-06 1.0771533)
(-1.9834035e-06 -1.9834035e-06 1.0771529)
(-1.0712013e-06 -1.9121251e-06 1.0771526)
(-1.9274339e-07 -1.8498551e-06 1.0771525)
(6.5718788e-07 -1.7870652e-06 1.0771526)
(1.4810317e-06 -1.7134616e-06 1.0771529)
(2.290609e-06 -1.6169067e-06 1.0771534)
(3.1164068e-06 -1.4878388e-06 1.0771541)
(1.179573e-06 -1.3554269e-06 1.077155)
(-1.4435154e-06 -1.1883837e-06 1.0771538)
(-3.3532622e-06 -1.1375518e-06 1.077153)
(-1.9121251e-06 -1.0712013e-06 1.0771526)
(-1.0040035e-06 -1.0040035e-06 1.0771523)
(-1.269891e-07 -9.384214e-07 1.0771522)
(7.2738426e-07 -8.7186665e-07 1.0771524)
(1.5618536e-06 -8.0022511e-07 1.0771527)
(2.3839428e-06 -7.206988e-07 1.0771532)
(3.207102e-06 -6.3747465e-07 1.0771539)
(1.2070046e-06 -5.7345318e-07 1.0771549)
(-1.4302662e-06 -2.9109171e-07 1.0771537)
(-3.3037122e-06 -2.5204906e-07 1.0771529)
(-1.8498551e-06 -1.9274339e-07 1.0771525)
(-9.384214e-07 -1.269891e-07 1.0771522)
(-6.0606589e-08 -6.060658e-08 1.0771522)
(7.9538417e-07 5.6006321e-09 1.0771523)
(1.6321995e-06 7.2420021e-08 1.0771526)
(2.4533594e-06 1.3899503e-07 1.0771532)
(3.2636525e-06 1.9915776e-07 1.0771539)
(1.222254e-06 2.3837497e-07 1.0771549)
(-1.417487e-06 5.4492039e-07 1.0771538)
(-3.2549139e-06 5.9099077e-07 1.077153)
(-1.7870652e-06 6.5718788e-07 1.0771526)
(-8.7186665e-07 7.2738425e-07 1.0771524)
(5.6006343e-09 7.9538418e-07 1.0771523)
(8.6041086e-07 8.6041087e-07 1.0771525)
(1.695248e-06 9.2316354e-07 1.0771528)
(2.5106806e-06 9.8281559e-07 1.0771534)
(3.3064819e-06 1.034312e-06 1.0771541)
(1.2331494e-06 1.0666395e-06 1.0771551)
(-1.3995526e-06 1.3135327e-06 1.0771541)
(-3.1914447e-06 1.3916952e-06 1.0771533)
(-1.7134617e-06 1.4810316e-06 1.0771529)
(-8.0022511e-07 1.5618536e-06 1.0771527)
(7.2420038e-08 1.6321995e-06 1.0771526)
(9.2316354e-07 1.695248e-06 1.0771528)
(1.7546042e-06 1.7546042e-06 1.0771532)
(2.5645079e-06 1.8121841e-06 1.0771537)
(3.3474764e-06 1.8658177e-06 1.0771545)
(1.2438057e-06 1.9045622e-06 1.0771555)
(-1.3653787e-06 1.9825783e-06 1.0771545)
(-3.0874149e-06 2.15832e-06 1.0771538)
(-1.6169067e-06 2.290609e-06 1.0771534)
(-7.206988e-07 2.3839429e-06 1.0771532)
(1.3899503e-07 2.4533594e-06 1.0771532)
(9.8281559e-07 2.5106806e-06 1.0771534)
(1.8121841e-06 2.5645079e-06 1.0771537)
(2.621894e-06 2.621894e-06 1.0771543)
(3.3988601e-06 2.6882851e-06 1.0771551)
(1.2589792e-06 2.7578376e-06 1.0771561)
(-1.2823915e-06 2.4550759e-06 1.0771551)
(-2.8834141e-06 2.9456222e-06 1.0771544)
(-1.4878388e-06 3.1164069e-06 1.0771541)
(-6.3747465e-07 3.207102e-06 1.0771539)
(1.9915775e-07 3.2636525e-06 1.0771539)
(1.034312e-06 3.3064819e-06 1.0771541)
(1.8658177e-06 3.3474764e-06 1.0771545)
(2.6882851e-06 3.3988601e-06 1.0771551)
(3.48342e-06 3.48342e-06 1.0771559)
(1.290174e-06 3.6574088e-06 1.0771569)
(-1.0383478e-06 8.7468626e-07 1.0771559)
(-2.426084e-06 1.11873e-06 1.0771553)
(-1.3554269e-06 1.179573e-06 1.077155)
(-5.7345318e-07 1.2070046e-06 1.0771549)
(2.3837497e-07 1.222254e-06 1.0771549)
(1.0666395e-06 1.2331494e-06 1.0771551)
(1.9045622e-06 1.2438057e-06 1.0771555)
(2.7578376e-06 1.2589792e-06 1.0771561)
(3.6574088e-06 1.290174e-06 1.0771569)
(1.3749717e-06 1.3749717e-06 1.077158)
(-2.0544976e-06 -2.0544976e-06 1.0772115)
(-4.6766921e-06 -1.7947708e-06 1.0772105)
(-2.564057e-06 -1.7363769e-06 1.0772101)
(-1.3785167e-06 -1.7117178e-06 1.0772098)
(-2.9237981e-07 -1.695727e-06 1.0772097)
(7.2851502e-07 -1.6801636e-06 1.0772098)
(1.6761561e-06 -1.6582038e-06 1.0772101)
(2.5117659e-06 -1.6162401e-06 1.0772106)
(3.1169942e-06 -1.5141553e-06 1.0772112)
(1.1132633e-06 -1.2135571e-06 1.0772119)
(-1.7947708e-06 -4.6766921e-06 1.0772105)
(-4.199511e-06 -4.199511e-06 1.0772097)
(-2.4394775e-06 -4.0498732e-06 1.0772093)
(-1.3175418e-06 -3.9688574e-06 1.077209)
(-2.450486e-07 -3.9089602e-06 1.0772089)
(7.8479988e-07 -3.8495254e-06 1.0772091)
(1.7720415e-06 -3.7718678e-06 1.0772093)
(2.7278386e-06 -3.6442812e-06 1.0772098)
(3.7210187e-06 -3.3937579e-06 1.0772105)
(1.4138615e-06 -2.8316574e-06 1.0772114)
(-1.7363769e-06 -2.564057e-06 1.0772101)
(-4.0498732e-06 -2.4394775e-06 1.0772093)
(-2.3334034e-06 -2.3334034e-06 1.0772089)
(-1.2376037e-06 -2.2475942e-06 1.0772086)
(-1.7304781e-07 -2.1721118e-06 1.0772085)
(8.6560742e-07 -2.0955878e-06 1.0772087)
(1.8814003e-06 -2.0055861e-06 1.077209)
(2.8898758e-06 -1.8873463e-06 1.0772095)
(3.929618e-06 -1.7293271e-06 1.0772102)
(1.487997e-06 -1.5679534e-06 1.0772111)
(-1.7117178e-06 -1.3785167e-06 1.0772098)
(-3.9688574e-06 -1.3175418e-06 1.077209)
(-2.2475942e-06 -1.2376037e-06 1.0772086)
(-1.1562502e-06 -1.1562502e-06 1.0772084)
(-9.3042147e-08 -1.0764997e-06 1.0772083)
(9.5132552e-07 -9.9527739e-07 1.0772085)
(1.9802829e-06 -9.0763641e-07 1.0772088)
(3.0040977e-06 -8.1024054e-07 1.0772093)
(4.0404116e-06 -7.0834818e-07 1.07721)
(1.521444e-06 -6.3019034e-07 1.077211)
(-1.695727e-06 -2.9237982e-07 1.0772097)
(-3.9089602e-06 -2.4504861e-07 1.0772089)
(-2.1721118e-06 -1.7304779e-07 1.0772085)
(-1.0764997e-06 -9.3042138e-08 1.0772083)
(-1.2075008e-08 -1.2075001e-08 1.0772083)
(1.0344707e-06 6.8876726e-08 1.0772084)
(2.0664371e-06 1.5075549e-07 1.0772088)
(3.0891641e-06 2.3246473e-07 1.0772093)
(4.1096682e-06 3.0635449e-07 1.0772101)
(1.5401022e-06 3.5448359e-07 1.077211)
(-1.6801636e-06 7.2851503e-07 1.0772098)
(-3.8495254e-06 7.847999e-07 1.0772091)
(-2.0955877e-06 8.6560743e-07 1.0772087)
(-9.9527739e-07 9.5132551e-07 1.0772085)
(6.8876717e-08 1.0344707e-06 1.0772084)
(1.114156e-06 1.114156e-06 1.0772086)
(2.1438709e-06 1.191279e-06 1.077209)
(3.1596967e-06 1.2648374e-06 1.0772095)
(4.1624304e-06 1.3285582e-06 1.0772103)
(1.55353e-06 1.3686746e-06 1.0772112)
(-1.6582038e-06 1.6761562e-06 1.0772101)
(-3.7718678e-06 1.7720415e-06 1.0772093)
(-2.0055862e-06 1.8814003e-06 1.077209)
(-9.0763642e-07 1.9802828e-06 1.0772088)
(1.5075549e-07 2.0664371e-06 1.0772088)
(1.191279e-06 2.1438709e-06 1.077209)
(2.2171185e-06 2.2171185e-06 1.0772093)
(3.2264432e-06 2.2886529e-06 1.0772099)
(4.2135054e-06 2.3558315e-06 1.0772107)
(1.5668465e-06 2.4047666e-06 1.0772116)
(-1.6162401e-06 2.5117659e-06 1.0772106)
(-3.6442812e-06 2.7278386e-06 1.0772098)
(-1.8873464e-06 2.8898758e-06 1.0772095)
(-8.1024055e-07 3.0040977e-06 1.0772093)
(2.3246473e-07 3.0891641e-06 1.0772093)
(1.2648374e-06 3.1596967e-06 1.0772095)
(2.2886529e-06 3.2264432e-06 1.0772099)
(3.2984096e-06 3.2984096e-06 1.0772105)
(4.2785441e-06 3.3827443e-06 1.0772112)
(1.5861535e-06 3.4720778e-06 1.0772122)
(-1.5141553e-06 3.1169942e-06 1.0772112)
(-3.3937579e-06 3.7210187e-06 1.0772105)
(-1.7293271e-06 3.929618e-06 1.0772102)
(-7.0834817e-07 4.0404116e-06 1.07721)
(3.0635449e-07 4.1096683e-06 1.0772101)
(1.3285582e-06 4.1624304e-06 1.0772103)
(2.3558315e-06 4.2135054e-06 1.0772107)
(3.3827443e-06 4.2785441e-06 1.0772112)
(4.3871736e-06 4.3871736e-06 1.077212)
(1.6264022e-06 4.6126951e-06 1.077213)
(-1.2135571e-06 1.1132633e-06 1.0772119)
(-2.8316574e-06 1.4138615e-06 1.0772114)
(-1.5679534e-06 1.487997e-06 1.0772111)
(-6.3019034e-07 1.521444e-06 1.077211)
(3.5448358e-07 1.5401022e-06 1.077211)
(1.3686746e-06 1.55353e-06 1.0772112)
(2.4047666e-06 1.5668465e-06 1.0772116)
(3.4720778e-06 1.5861535e-06 1.0772122)
(4.6126951e-06 1.6264022e-06 1.077213)
(1.7365011e-06 1.7365011e-06 1.0772141)
(-2.3619898e-06 -2.3619898e-06 1.0772782)
(-5.3647479e-06 -2.0619262e-06 1.0772774)
(-2.9187298e-06 -1.994681e-06 1.0772769)
(-1.5421605e-06 -1.9661871e-06 1.0772767)
(-2.7384661e-07 -1.9475741e-06 1.0772766)
(9.2521601e-07 -1.9293322e-06 1.0772767)
(2.0451942e-06 -1.9034844e-06 1.077277)
(3.0403034e-06 -1.8539876e-06 1.0772775)
(3.7705018e-06 -1.7334339e-06 1.0772781)
(1.3476827e-06 -1.3781517e-06 1.0772788)
(-2.0619262e-06 -5.3647479e-06 1.0772774)
(-4.8137848e-06 -4.8137848e-06 1.0772766)
(-2.7751212e-06 -4.6413456e-06 1.0772762)
(-1.4715e-06 -4.5475696e-06 1.0772759)
(-2.1856435e-07 -4.4777737e-06 1.0772759)
(9.913505e-07 -4.4081086e-06 1.077276)
(2.1582112e-06 -4.3167531e-06 1.0772763)
(3.2953792e-06 -4.1663924e-06 1.0772768)
(4.4842556e-06 -3.8708907e-06 1.0772774)
(1.7029649e-06 -3.207528e-06 1.0772783)
(-1.994681e-06 -2.9187298e-06 1.0772769)
(-4.6413456e-06 -2.7751212e-06 1.0772762)
(-2.6525146e-06 -2.6525146e-06 1.0772758)
(-1.3785886e-06 -2.552842e-06 1.0772756)
(-1.3438565e-07 -2.464705e-06 1.0772755)
(1.0862367e-06 -2.3749664e-06 1.0772756)
(2.2869105e-06 -2.2691352e-06 1.077276)
(3.4861657e-06 -2.1299344e-06 1.0772765)
(4.7293663e-06 -1.943934e-06 1.0772771)
(1.7899246e-06 -1.754613e-06 1.077278)
(-1.9661871e-06 -1.5421605e-06 1.0772767)
(-4.5475696e-06 -1.4715e-06 1.0772759)
(-2.552842e-06 -1.3785886e-06 1.0772756)
(-1.2836904e-06 -1.2836904e-06 1.0772753)
(-4.0688718e-08 -1.1903365e-06 1.0772753)
(1.1869202e-06 -1.0949801e-06 1.0772755)
(2.4032432e-06 -9.9187906e-07 1.0772758)
(3.6205805e-06 -8.7719343e-07 1.0772763)
(4.859577e-06 -7.5723988e-07 1.077277)
(1.8291789e-06 -6.6542326e-07 1.0772779)
(-1.9475741e-06 -2.7384662e-07 1.0772766)
(-4.4777737e-06 -2.1856435e-07 1.0772759)
(-2.464705e-06 -1.3438565e-07 1.0772755)
(-1.1903365e-06 -4.0688718e-08 1.0772753)
(5.4324609e-08 5.4324607e-08 1.0772753)
(1.2846941e-06 1.4951838e-07 1.0772755)
(2.5046972e-06 2.4598197e-07 1.0772758)
(3.7208049e-06 3.4237359e-07 1.0772763)
(4.9411364e-06 4.2958723e-07 1.0772771)
(1.8511357e-06 4.8635911e-07 1.077278)
(-1.9293322e-06 9.2521601e-07 1.0772767)
(-4.4081086e-06 9.9135052e-07 1.077276)
(-2.3749664e-06 1.0862367e-06 1.0772756)
(-1.0949801e-06 1.1869202e-06 1.0772755)
(1.4951838e-07 1.2846941e-06 1.0772755)
(1.3785776e-06 1.3785776e-06 1.0772756)
(2.5960984e-06 1.4696639e-06 1.077276)
(3.8041857e-06 1.5567714e-06 1.0772765)
(5.0035625e-06 1.632422e-06 1.0772773)
(1.8670268e-06 1.6801405e-06 1.0772782)
(-1.9034844e-06 2.0451942e-06 1.077277)
(-4.3167531e-06 2.1582112e-06 1.0772763)
(-2.2691353e-06 2.2869105e-06 1.077276)
(-9.9187906e-07 2.4032432e-06 1.0772758)
(2.4598198e-07 2.5046972e-06 1.0772758)
(1.4696639e-06 2.5960984e-06 1.077276)
(2.6828909e-06 2.6828909e-06 1.0772764)
(3.8835631e-06 2.7680834e-06 1.0772769)
(5.0645056e-06 2.8485474e-06 1.0772777)
(1.882948e-06 2.9074763e-06 1.0772786)
(-1.8539876e-06 3.0403034e-06 1.0772775)
(-4.1663924e-06 3.2953792e-06 1.0772768)
(-2.1299344e-06 3.4861657e-06 1.0772765)
(-8.7719346e-07 3.6205805e-06 1.0772763)
(3.4237359e-07 3.7208049e-06 1.0772763)
(1.5567714e-06 3.8041857e-06 1.0772765)
(2.7680834e-06 3.8835631e-06 1.0772769)
(3.9698423e-06 3.9698423e-06 1.0772775)
(5.1429555e-06 4.0718042e-06 1.0772783)
(1.9063127e-06 4.1805291e-06 1.0772792)
(-1.7334339e-06 3.7705018e-06 1.0772781)
(-3.8708908e-06 4.4842556e-06 1.0772774)
(-1.943934e-06 4.7293663e-06 1.0772771)
(-7.5723987e-07 4.859577e-06 1.077277)
(4.2958723e-07 4.9411364e-06 1.0772771)
(1.632422e-06 5.0035625e-06 1.0772773)
(2.8485475e-06 5.0645056e-06 1.0772777)
(4.0718042e-06 5.1429555e-06 1.0772783)
(5.2751924e-06 5.2751924e-06 1.077279)
(1.9554313e-06 5.5511144e-06 1.07728)
(-1.3781517e-06 1.3476827e-06 1.0772788)
(-3.207528e-06 1.7029649e-06 1.0772783)
(-1.754613e-06 1.7899246e-06 1.077278)
(-6.6542326e-07 1.8291789e-06 1.0772779)
(4.863591e-07 1.8511357e-06 1.077278)
(1.6801405e-06 1.8670268e-06 1.0772782)
(2.9074763e-06 1.882948e-06 1.0772786)
(4.1805291e-06 1.9063127e-06 1.0772792)
(5.5511144e-06 1.9554313e-06 1.07728)
(2.0902607e-06 2.0902607e-06 1.0772811)
(-2.6527461e-06 -2.6527461e-06 1.0773554)
(-6.0108824e-06 -2.314113e-06 1.0773545)
(-3.2431656e-06 -2.2384406e-06 1.0773541)
(-1.6825951e-06 -2.2063031e-06 1.0773539)
(-2.395694e-07 -2.1851934e-06 1.0773539)
(1.1298742e-06 -2.1643918e-06 1.077354)
(2.4141685e-06 -2.1348189e-06 1.0773543)
(3.5605467e-06 -2.0780985e-06 1.0773547)
(4.407801e-06 -1.9398323e-06 1.0773553)
(1.5754481e-06 -1.5321017e-06 1.077356)
(-2.314113e-06 -6.0108824e-06 1.0773545)
(-5.3894243e-06 -5.3894243e-06 1.0773538)
(-3.0814507e-06 -5.1953012e-06 1.0773534)
(-1.6027243e-06 -5.0894038e-06 1.0773532)
(-1.7670248e-07 -5.0101831e-06 1.0773532)