/*--------------------------------*- C++ -*----------------------------------*\
| =========                 |                                                 |
| \\      /  F ield         | OpenFOAM: The Open Source CFD Toolbox           |
|  \\    /   O peration     | Version:  v2106                                 |
|   \\  /    A nd           | Website:  www.openfoam.com                      |
|    \\/     M anipulation  |                                                 |
\*---------------------------------------------------------------------------*/
FoamFile
{
    version     2.0;
    format      ascii;
    arch        "LSB;label=32;scalar=64";
    class       volScalarField;
    location    "80";
    object      gradTy;
}
// * * * * * * * * * * * * * * * * * * * * * * * * * * * * * * * * * * * * * //

dimensions      [0 -1 0 1 0 0 0];

internalField   nonuniform List<scalar> 
4000
(
-0.0001135211
-0.00010064961
-9.7665689e-05
-9.6506852e-05
-9.5827084e-05
-9.5204915e-05
-9.4357688e-05
-9.2800208e-05
-8.929258e-05
-8.0759879e-05
-0.00024942943
-0.00022564631
-0.00021817771
-0.00021449144
-0.00021198017
-0.00020960618
-0.00020658943
-0.00020176161
-0.00019275952
-0.00017531435
-0.00012560444
-0.00011939031
-0.00011444959
-0.00011074305
-0.00010764391
-0.0001045984
-0.00010107937
-9.6500793e-05
-9.0389472e-05
-8.3708707e-05
-6.805858e-05
-6.5300677e-05
-6.1861051e-05
-5.8495002e-05
-5.5283846e-05
-5.2073048e-05
-4.8648062e-05
-4.4861876e-05
-4.0888602e-05
-3.7754138e-05
-2.1756241e-05
-1.9803343e-05
-1.6870981e-05
-1.3658691e-05
-1.0449029e-05
-7.2766113e-06
-4.0997065e-06
-9.5353776e-07
1.881574e-06
3.7377995e-06
1.8520701e-05
2.0724807e-05
2.391145e-05
2.7289348e-05
3.054723e-05
3.3638662e-05
3.6588517e-05
3.9349501e-05
4.168464e-05
4.3115843e-05
5.2889863e-05
5.6496926e-05
6.0734439e-05
6.4594531e-05
6.7945614e-05
7.0917599e-05
7.3656442e-05
7.6213438e-05
7.8445234e-05
7.9900766e-05
7.7987302e-05
8.5584966e-05
9.1817207e-05
9.6274847e-05
9.9576675e-05
0.00010225614
0.00010467279
0.00010704493
0.00010939631
0.00011126801
8.3301739e-05
0.00010136225
0.000109749
0.00011415433
0.00011685674
0.00011884567
0.00012062309
0.00012253299
0.00012484617
0.00012737877
2.6352841e-05
3.4885545e-05
3.7982956e-05
3.9339395e-05
4.0072599e-05
4.057687e-05
4.1026737e-05
4.1547228e-05
4.227454e-05
4.3235632e-05
-0.00049539964
-0.00043308571
-0.00041927251
-0.00041382818
-0.00041054843
-0.00040751582
-0.00040335979
-0.00039558336
-0.00037706653
-0.00032373629
-0.0011103733
-0.00099618261
-0.00096152708
-0.00094404326
-0.0009318947
-0.00092032498
-0.00090555761
-0.00088166882
-0.00083544009
-0.00073326271
-0.00058838029
-0.000559494
-0.00053624095
-0.00051841694
-0.00050337012
-0.00048852443
-0.00047133346
-0.00044891005
-0.00041886955
-0.00038681429
-0.00032416694
-0.00031108083
-0.00029453456
-0.00027821
-0.00026257723
-0.000246916
-0.00023019176
-0.00021169085
-0.00019227472
-0.00017703481
-0.00010210262
-9.2634072e-05
-7.8384329e-05
-6.2741552e-05
-4.7090323e-05
-3.1605127e-05
-1.6085121e-05
-7.0455079e-07
1.3160988e-05
2.2235874e-05
9.4176656e-05
0.00010495962
0.00012051374
0.00013699628
0.00015289921
0.00016800147
0.00018243012
0.00019596099
0.00020743843
0.00021450022
0.00026392021
0.0002818189
0.00030257637
0.00032143327
0.00033780152
0.00035233385
0.00036576104
0.00037836456
0.00038948409
0.00039687859
0.00039291762
0.00043235752
0.00046303515
0.00048482142
0.00050095218
0.00051406754
0.00052596051
0.00053779059
0.00054988065
0.0005601664
0.0004375436
0.00054531422
0.00058594972
0.00060740998
0.00062060576
0.00063035041
0.00063914498
0.00064886443
0.0006615208
0.00067838005
0.00014355162
0.00019688185
0.00021166987
0.00021825204
0.00022182981
0.00022430196
0.00022653767
0.00022923162
0.00023339484
0.00024047112
-0.00079925369
-0.00069881748
-0.00067619159
-0.00066696943
-0.00066125559
-0.00065588781
-0.00064846753
-0.00063446583
-0.00060075062
-0.000502365
-0.0018151216
-0.0016305285
-0.0015731417
-0.0015432406
-0.0015219906
-0.0015015037
-0.0014751812
-0.0014323574
-0.0013488772
-0.0011627318
-0.00099291422
-0.00094514215
-0.00090562637
-0.00087468612
-0.00084821512
-0.00082190112
-0.00079130858
-0.00075132618
-0.00069782629
-0.0006419318
-0.00055046432
-0.00052806031
-0.00049931329
-0.00047064908
-0.00044301332
-0.00041521212
-0.00038545205
-0.00035249835
-0.00031796306
-0.00029111567
-0.00016446247
-0.00014784004
-0.00012272557
-9.5055044e-05
-6.7288619e-05
-3.9750418e-05
-1.2093745e-05
1.5358926e-05
4.0124899e-05
5.6305105e-05
0.00018417405
0.00020335613
0.00023098345
0.00026026269
0.00028854473
0.00031545756
0.00034124975
0.00036554872
0.00038629923
0.00039917918
0.00049356265
0.00052569563
0.00056270891
0.00059627057
0.00062542269
0.00065137991
0.00067551385
0.00069845046
0.00071917347
0.00073355937
0.00074624536
0.00081782074
0.00087254944
0.00091130301
0.00094003842
0.00096352166
0.00098508791
0.0010071813
0.0010312571
0.001054685
0.00089317201
0.0010913233
0.0011627977
0.0012007176
0.0012241803
0.0012416638
0.0012578108
0.0012767727
0.0013053146
0.0013590139
0.00031042931
0.00040881492
0.00043452622
0.00044607793
0.00045242448
0.00045686473
0.00046101111
0.00046645533
0.00047662972
0.00050225488
-0.0010704054
-0.00093608275
-0.00090571301
-0.0008930894
-0.00088510213
-0.00087748807
-0.00086687534
-0.00084673351
-0.00079796639
-0.00065489894
-0.0024407545
-0.002193716
-0.0021162177
-0.0020750189
-0.0020452165
-0.0020161471
-0.0019785509
-0.0019171239
-0.0017969237
-0.0015279013
-0.0013477735
-0.0012832835
-0.0012290764
-0.0011859755
-0.0011486644
-0.0011112901
-0.0010676514
-0.0010105058
-0.00093409074
-0.00085515793
-0.00074410688
-0.00071319057
-0.00067310568
-0.00063277854
-0.00059363981
-0.00055408676
-0.00051162692
-0.00046455277
-0.00041526424
-0.00037719109
-0.00020430541
-0.00018090341
-0.0001454336
-0.00010621807
-6.6741812e-05
-2.7478516e-05
1.2051281e-05
5.1364513e-05
8.6861736e-05
0.00011002262
0.00029213188
0.00031947208
0.0003587975
0.00040048513
0.00044081039
0.00047927823
0.00051627606
0.00055130001
0.00058139371
0.00060020122
0.00074196359
0.00078809543
0.00084098673
0.00088887978
0.00093052072
0.00096772282
0.0010025425
0.0010360181
0.0010668209
0.0010887602
0.0011247323
0.0012280958
0.0013063596
0.0013616564
0.0014027223
0.0014364668
0.0014678399
0.0015007452
0.0015380064
0.0015762003
0.0013807261
0.001668478
0.0017699487
0.0018238258
0.0018573104
0.0018824839
0.0019062116
0.001935226
0.0019816667
0.0020752874
0.00048866659
0.00063173403
0.00066801482
0.00068435591
0.00069339692
0.0006997965
0.00070593526
0.0007144227
0.00073139785
0.00077683653
-0.001323015
-0.0011565136
-0.0011189527
-0.00110318
-0.0010930545
-0.0010832883
-0.0010695823
-0.0010434654
-0.00098004402
-0.00079353808
-0.0030165707
-0.0027104773
-0.0026143556
-0.0025626688
-0.0025248011
-0.0024875079
-0.0024390027
-0.0023594999
-0.002203596
-0.0018540898
-0.001663588
-0.0015835876
-0.0015157795
-0.0014613064
-0.0014137177
-0.0013657316
-0.0013094815
-0.0012356911
-0.0011370533
-0.0010358599
-0.00090820028
-0.000869353
-0.00081864581
-0.00076729114
-0.00071717126
-0.00066630802
-0.00061155729
-0.00055078077
-0.00048717824
-0.000438251
-0.00022246147
-0.00019262385
-0.00014730058
-9.7049083e-05
-4.6317462e-05
4.2801798e-06
5.5345666e-05
0.00010622439
0.00015220264
0.00018217367
0.00041644535
0.0004516538
0.00050224372
0.00055589
0.0006078577
0.00065755315
0.00070551072
0.00075109869
0.00079045389
0.00081515955
0.0010038431
0.0010635774
0.0011318511
0.0011936179
0.0012473784
0.0012955621
0.0013409239
0.0013849283
0.0014259167
0.0014555265
0.0015151489
0.0016494562
0.0017505556
0.0018218844
0.0018749347
0.0019187413
0.0019598779
0.0020037341
0.0020544722
0.0021076264
0.0018762463
0.0022511373
0.0023816564
0.0024509685
0.0024941862
0.0025269178
0.002558247
0.002597516
0.0026621393
0.002795107
0.0006684628
0.00085496874
0.0009014669
0.00092243098
0.00093408505
0.00094241167
0.00095055549
0.00096215154
0.00098599159
0.0010507967
-0.0015603262
-0.0013630719
-0.0013187237
-0.0012999958
-0.0012878513
-0.0012760314
-0.0012593536
-0.0012274835
-0.0011499533
-0.00092165837
-0.0035518004
-0.0031893965
-0.0030757514
-0.0030142224
-0.0029687324
-0.0029235935
-0.002864615
-0.002767717
-0.0025774523
-0.0021505546
-0.0019473206
-0.0018527064
-0.0017721465
-0.0017069772
-0.0016496507
-0.0015915331
-0.0015231797
-0.0014333802
-0.0013133695
-0.0011908113
-0.0010469401
-0.0010006316
-0.00093992111
-0.0008781357
-0.00081756772
-0.00075588192
-0.00068932134
-0.00061535222
-0.00053796817
-0.00047860974
-0.00022205328
-0.00018610671
-0.00013142436
-7.0662581e-05
-9.170584e-06
5.230971e-05
0.00011449406
0.00017654966
0.0002326666
0.00026921913
0.00055328426
0.00059603086
0.00065740165
0.00072250184
0.00078564802
0.00084616649
0.000904739
0.00096060426
0.0010089981
0.0010394653
0.0012729879
0.0013458098
0.0014288644
0.0015039626
0.0015693941
0.0016282026
0.0016838319
0.00173816
0.0017891799
0.0018263446
0.0019076072
0.0020717076
0.0021947698
0.0022815178
0.002346123
0.0023996903
0.0024503822
0.0025050384
0.0025690878
0.0026369337
0.002367259
0.0028259966
0.0029844213
0.0030685656
0.0031211638
0.003161235
0.0032000248
0.0032494196
0.0033319202
0.0035031966
0.00084548842
0.0010737833
0.0011300869
0.0011554888
0.0011696592
0.0011798572
0.0011899706
0.0012046336
0.0012352012
0.0013188179
-0.0017828138
-0.0015563279
-0.0015055718
-0.0014840647
-0.0014700158
-0.001456247
-0.0014367372
-0.0013993773
-0.0013083841
-0.0010402195
-0.0040492753
-0.0036334123
-0.0035032564
-0.003432475
-0.0033797935
-0.0033272108
-0.0032582562
-0.0031447649
-0.0029217222
-0.0024210204
-0.0022030375
-0.0020946428
-0.0020021002
-0.001926868
-0.0018603428
-0.0017926087
-0.001712728
-0.0016076601
-0.0014672682
-0.00132437
-0.0011640123
-0.0011106783
-0.0010405494
-0.0009689209
-0.00089845802
-0.00082648366
-0.00074866366
-0.0006620997
-0.00057155955
-0.00050225697
-0.00020669758
-0.0001649709
-0.00010143339
-3.0711572e-05
4.100385e-05
0.00011285547
0.00018566554
0.00025842129
0.00032424955
0.00036710056
0.0006983468
0.0007482647
0.00081988414
0.00089587944
0.0009696785
0.0010405411
0.0011092924
0.0011750406
0.0012321411
0.0012681587
0.0015436988
0.0016290033
0.0017261447
0.0018139519
0.0018905286
0.0019595177
0.002025028
0.0020893307
0.0021500644
0.0021945434
0.0022948004
0.00248733
0.0026313344
0.0027327898
0.0028084385
0.0028713738
0.0029312872
0.0029964101
0.0030733702
0.0031554349
0.0028459492
0.0033846858
0.0035696937
0.003667976
0.0037295365
0.0037766553
0.0038226546
0.003881868
0.0039816794
0.0041899433
0.0010172217
0.0012853863
0.001351023
0.0013806518
0.0013972247
0.0014092192
0.0014212364
0.0014388719
0.0014759462
0.0015777145
-0.0019900978
-0.0017360543
-0.0016792847
-0.0016551751
-0.0016393385
-0.0016237331
-0.0016015474
-0.0015589956
-0.0014552679
-0.0011493871
-0.0045093815
-0.0040431619
-0.0038975303
-0.0038180859
-0.0037586542
-0.0036990584
-0.0036206805
-0.0034915004
-0.0032374633
-0.0026669787
-0.0024330323
-0.0023117135
-0.0022079562
-0.0021232973
-0.0020481313
-0.0019713349
-0.0018805664
-0.0017610641
-0.0016014083
-0.0014393151
-0.0012622878
-0.0012023685
-0.0011234117
-0.0010425435
-0.00096276981
-0.00088108881
-0.00079262506
-0.00069414437
-0.00059115852
-0.00051246037
-0.00017972567
-0.00013256274
-6.0698159e-05
1.9399633e-05
0.00010075653
0.00018241071
0.00026528357
0.00034818499
0.00042322383
0.00047204366
0.00084763491
0.00090432155
0.00098560864
0.0010718864
0.0011557534
0.0012364134
0.0013148284
0.0013899778
0.0014553703
0.0014966738
0.0018111163
0.0019082225
0.0020186742
0.0021184934
0.0022056187
0.0022842676
0.0023591831
0.0024330063
0.0025030274
0.0025545024
0.0026711325
0.0028905519
0.0030543497
0.00316971
0.0032558162
0.0033276503
0.0033963581
0.0034714946
0.0035608221
0.0036565045
0.0033067451
0.0039211578
0.0041312667
0.0042429068
0.0043129508
0.0043667655
0.0044196468
0.0044882616
0.0046046568
0.0048483363
0.0011819057
0.0014877865
0.0015622288
0.0015958486
0.0016146943
0.0016283952
0.0016422299
0.0016627118
0.0017060182
0.0018251649
-0.0021815174
-0.001901746
-0.0018393836
-0.0018128559
-0.0017953546
-0.0017780333
-0.0017533425
-0.0017059266
-0.0015902658
-0.0012490359
-0.0049315002
-0.0044182996
-0.0042582859
-0.0041707924
-0.0041050739
-0.0040389272
-0.0039517302
-0.0038078563
-0.0035247871
-0.0028889356
-0.0026385739
-0.0025052386
-0.0023910667
-0.0022976425
-0.0022144236
-0.0021291609
-0.0020282032
-0.0018951844
-0.0017174942
-0.0015374599
-0.00134391
-0.0012778664
-0.001190698
-0.0011012234
-0.0010127605
-0.0009220028
-0.0008235714
-0.0007139241
-0.00059927882
-0.00051178926
-0.00014394679
-9.1712839e-05
-1.2081558e-05
7.6768796e-05
0.00016713899
0.00025797265
0.00035028293
0.00044270811
0.00052639433
0.0005808137
0.00099770254
0.0010607207
0.0011510463
0.0012469411
0.0013402354
0.001430085
0.0015175814
0.0016015794
0.0016747843
0.0017210687
0.002071189
0.002179349
0.0023022599
0.0024133255
0.0025103386
0.0025980609
0.002681833
0.0027646431
0.0028434465
0.0029015426
0.0030321471
0.003276762
0.0034590902
0.003587471
0.0036833827
0.0037635824
0.0038405857
0.0039251959
0.0040262462
0.0041348463
0.0037452891
0.0044306251
0.0046642099
0.0047883496
0.0048663447
0.0049264552
0.004985834
0.0050633547
0.0051954844
0.0054727818
0.0013381613
0.0016793912
0.0017620624
0.0017994141
0.0018203887
0.0018356937
0.001851245
0.0018744244
0.0019236451
0.0020592894
-0.0023563416
-0.0020528183
-0.0019853118
-0.0019565611
-0.0019375249
-0.0019186168
-0.0018916052
-0.0018396802
-0.0017129539
-0.001338936
-0.0053146168
-0.0047580721
-0.0045848382
-0.0044899426
-0.0044184273
-0.0043462237
-0.0042508589
-0.0040933678
-0.003783389
-0.0030869448
-0.0028203437
-0.0026759577
-0.0025522142
-0.0024507212
-0.0023600719
-0.00226698
-0.0021565864
-0.0020110444
-0.0018166499
-0.0016200265
-0.0014104615
-0.0013387811
-0.0012440506
-0.0011466389
-0.0010501482
-0.00095099013
-0.00084332238
-0.00072332284
-0.00059787155
-0.00050224431
-0.00010164524
-4.4728886e-05
4.207367e-05
0.00013901233
0.0002377224
0.00033706223
0.00043812895
0.00053939755
0.00063111438
0.00069073007
0.0011456718
0.0012145514
0.0013132402
0.0014180368
0.001520066
0.0016184434
0.0017143811
0.0018066163
0.0018871011
0.001938028
0.002320555
0.0024389598
0.0025734109
0.0026948954
0.0028010782
0.0028972307
0.0029892511
0.0030804507
0.0031674689
0.0032317661
0.0033741912
0.0036421683
0.0038416611
0.0039821048
0.004087112
0.0041750902
0.0042598319
0.004353308
0.0044653549
0.0045860893
0.0041579863
0.0049091027
0.0051644093
0.0053001206
0.0053854879
0.0054514531
0.0055168995
0.0056027684
0.0057496808
0.0060585925
0.0014848368
0.0018588547
0.0019491329
0.0019899369
0.0020128844
0.0020296807
0.0020468357
0.0020725455
0.0021273252
0.0022784866
-0.0025138584
-0.0021886922
-0.0021165171
-0.002085749
-0.0020653154
-0.0020449575
-0.0020158218
-0.0019597666
-0.0018229012
-0.0014188312
-0.0056576059
-0.0050615941
-0.004876368
-0.004774752
-0.004697957
-0.0046202208
-0.0045173824
-0.0043474234
-0.004012801
-0.0032608603
-0.0029786913
-0.0028242765
-0.0026918492
-0.0025830204
-0.0024855981
-0.0023853532
-0.0022663268
-0.002109322
-0.0018996427
-0.0016878694
-0.0014631181
-0.0013863154
-0.0012847071
-0.0011800643
-0.001076246
-0.000969407
-0.00085328388
-0.00072380334
-0.00058845875
-0.00048539136
-5.4657152e-05
6.5300554e-06
9.9874002e-05
0.00020419721
0.00031053135
0.00041765849
0.00052675161
0.00063613244
0.00073521677
0.00079959621
0.0012891664
0.0013634069
0.0014697411
0.0015826782
0.0016927032
0.0017988985
0.0019025879
0.0020023987
0.0020895862
0.0021447893
0.0025564198
0.0026842061
0.0028292172
0.0029602373
0.0030748209
0.0031787113
0.0032783211
0.0033772599
0.0034718732
0.0035419132
0.0036942175
0.0039835984
0.0041987989
0.0043502825
0.004463624
0.0045587477
0.0046506223
0.0047522998
0.0048745483
0.0050065599
0.0045417921
0.0053531952
0.0056283552
0.0057746478
0.0058667672
0.0059381115
0.0060091578
0.0061027648
0.0062634179
0.0066017527
0.0016209439
0.0020250138
0.0021222377
0.002166196
0.0021909493
0.0022091156
0.0022277514
0.0022558089
0.0023157591
0.0024813654
-0.0026534175
-0.002308836
-0.0022324921
-0.0021999221
-0.0021782351
-0.0021565719
-0.0021255194
-0.0020657344
-0.0019197087
-0.0014884774
-0.0059593788
-0.0053279907
-0.0051320612
-0.0050244387
-0.0049429067
-0.0048601897
-0.0047506101
-0.0045693966
-0.0042125235
-0.0034104671
-0.0031137884
-0.0029504176
-0.0028102364
-0.0026948395
-0.0025913342
-0.0024846483
-0.002357836
-0.0021904882
-0.0019670221
-0.0017416148
-0.0015027713
-0.0014213858
-0.0013136169
-0.0012024837
-0.0010920738
-0.00097831203
-0.00085455843
-0.000716518
-0.00057224461
-0.00046247283
-4.4613051e-06
6.0564068e-05
0.00015978766
0.00027075535
0.00038395931
0.00049811439
0.00061446093
0.00073117873
0.0008369275
0.00090561271
0.0014262277
0.0015053013
0.0016185244
0.0017387995
0.0018560398
0.0019693011
0.0020800095
0.0021866916
0.0022799667
0.0023390559
0.002776455
0.0029127111
0.0030672481
0.0032068712
0.0033290422
0.0034399355
0.0035464326
0.0036524151
0.0037539597
0.0038292508
0.0039896626
0.0042983787
0.0045277492
0.0046891927
0.004810063
0.0049116592
0.0050100201
0.0051191863
0.0052507813
0.0053931474
0.0048941046
0.0057599902
0.0060530341
0.0062088635
0.0063070793
0.0063832975
0.0064594436
0.0065601332
0.0067334047
0.0070988014
0.001745629
0.0021768603
0.0022803333
0.0023271317
0.0023535145
0.0023729219
0.0023929073
0.0024231159
0.002487818
0.0026667137
-0.002774454
-0.0024127877
-0.0023327956
-0.0022986481
-0.0022758578
-0.0022530399
-0.0022202877
-0.0021571917
-0.0020030296
-0.001547662
-0.0062189675
-0.0055564799
-0.0053511884
-0.0052383019
-0.0051525983
-0.0050654765
-0.0049499213
-0.0047587223
-0.004382101
-0.0035355561
-0.0032257268
-0.0030545174
-0.0029075488
-0.0027863827
-0.0026775133
-0.0025651295
-0.0024314169
-0.0022548969
-0.0020192099
-0.0017817503
-0.0015301203
-0.0014447135
-0.0013315302
-0.001214678
-0.0010984444
-0.00097855205
-0.00084803096
-0.00070239463
-0.00055020144
-0.00043449395
4.7739836e-05
0.00011615204
0.00022056528
0.00033740532
0.00045669123
0.00057707964
0.00069986958
0.00082311134
0.00093478722
0.0010072985
0.0015552381
0.0016385931
0.0017579151
0.0018846895
0.0020083285
0.0021278679
0.002244826
0.0023576383
0.0024563533
0.0025189178
0.0029787193
0.0031224916
0.0032854735
0.0034327242
0.0035616309
0.0036787559
0.0037914013
0.0039036934
0.004011467
0.0040914886
0.0042583689
0.004584256
0.0048261892
0.0049964631
0.0051240187
0.0052313807
0.0053355461
0.0054514464
0.0055914805
0.0057432204
0.0052127046
0.0061269992
0.0064358708
0.0066001458
0.0067037715
0.0067843329
0.006865051
0.0069721281
0.007156825
0.0075467698
0.0018581578
0.0023135254
0.0024225211
0.0024718318
0.0024996594
0.0025201727
0.0025413691
0.0025735204
0.002642529
0.0028334837
-0.0028765019
-0.0025001682
-0.0024170663
-0.0023815727
-0.0023578344
-0.0023340181
-0.002299791
-0.0022338183
-0.0020725821
-0.0015962164
-0.0064355751
-0.0057464217
-0.0055331538
-0.0054157701
-0.0053264793
-0.0052355492
-0.005114812
-0.0049149433
-0.0045211684
-0.0036359699
-0.0033145827
-0.0031366894
-0.0029839311
-0.0028578208
-0.0027443309
-0.0026270188
-0.0024873239
-0.0023028455
-0.0020565603
-0.0018086849
-0.001545739
-0.0014568911
-0.0013390645
-0.0012172909
-0.0010960283
-0.00097082649
-0.00083443301
-0.00068220085
-0.00052313417
-0.00040228714
0.0001009547
0.00017228662
0.00028117562
0.00040308864
0.00052764003
0.00065343748
0.00078182969
0.00091075065
0.0010275876
0.0011034269
0.0016748582
0.0017619232
0.0018865256
0.0020189302
0.0021481208
0.0022731198
0.0023955273
0.0025136982
0.0026171779
0.0026827894
0.0031615985
0.0033118981
0.0034822043
0.0036360715
0.00377083
0.0038933847
0.0040114083
0.0041292435
0.004242511
0.0043267178
0.0044985318
0.0048393452
0.0050921754
0.0052701088
0.0054034742
0.0055158667
0.0056251248
0.0057469693
0.0058944896
0.0060545718
0.0054957191
0.006452122
0.0067746926
0.0069462825
0.0070546063
0.0071389587
0.0072236975
0.007336433
0.0075313
0.0079431447
0.0019579073
0.002434273
0.0025480396
0.0025995232
0.0026286043
0.0026500827
0.0026723453
0.0027062206
0.0027790668
0.0029807838
-0.0029592026
-0.0025706898
-0.0024850303
-0.0024484279
-0.0024239009
-0.0023992467
-0.0023637764
-0.0022953739
-0.0021281566
-0.0016340233
-0.0066086089
-0.0058973504
-0.0056775267
-0.0055564317
-0.0054641538
-0.0053700284
-0.0052449257
-0.005037741
-0.0046294818
-0.0037116328
-0.0033804608
-0.0031970679
-0.0030395421
-0.0029093339
-0.0027919869
-0.0026705378
-0.0025258045
-0.0023346163
-0.0020794016
-0.0018227909
-0.001550126
-0.0014584321
-0.0013367531
-0.0012108769
-0.0010854019
-0.00095573501
-0.00081439027
-0.00065659152
-0.00049172785
-0.00036655954
0.00015435261
0.00022812435
0.00034075585
0.00046692043
0.00059589768
0.00072625569
0.00085938371
0.00099311333
0.0011143218
0.0011929763
0.001783979
0.0018741658
0.0020032071
0.0021403482
0.0022742187
0.0024038342
0.0025308655
0.0026535981
0.0027611446
0.0028293606
0.0033237613
0.0034795706
0.0036560487
0.0038154921
0.0039551922
0.0040823497
0.0042049561
0.0043275408
0.0044455399
0.0045333652
0.0047086629
0.0050620925
0.0053241067
0.0055084953
0.0056467691
0.0057634335
0.0058770483
0.0060040172
0.0061580323
0.0063253816
0.0057415982
0.006733624
0.0070677065
0.0072454494
0.0073577385
0.0074453124
0.0075335009
0.0076511368
0.0078548653
0.0082858457
0.0020443604
0.0025384937
0.0026562598
0.0027095675
0.0027397053
0.0027620038
0.0027851826
0.002820554
0.0028967488
0.0031078743
-0.0030223102
-0.0026241608
-0.0025365062
-0.0024990367
-0.0024738836
-0.0024485553
-0.0024120781
-0.0023417023
-0.0021696209
-0.0016610212
-0.0067377009
-0.0060089949
-0.0057840619
-0.0056600557
-0.0055654023
-0.0054687075
-0.0053400728
-0.0051269547
-0.0047069377
-0.0037625696
-0.0034235239
-0.0032358377
-0.0030745847
-0.0029411404
-0.0028207149
-0.0026959363
-0.0025471287
-0.0023505059
-0.0020880651
-0.0018244324
-0.0015437398
-0.0014498058
-0.0013250802
-0.0011959359
-0.0010670818
-0.00093381217
-0.00078845718
-0.00062614348
-0.00045658227
-0.00032792765
0.00020722617
0.00028294823
0.00039857434
0.00052815231
0.00066069809
0.00079474966
0.00093172753
0.0010693753
0.0011941479
0.0012750933
0.0018816842
0.0019743925
0.0021070138
0.0022479787
0.0023856385
0.0025190082
0.0026498181
0.0027762959
0.0028871935
0.0029575598
0.0034641255
0.003624405
0.0038058783
0.0039698354
0.0041135469
0.0042444611
0.0043708346
0.0044973536
0.0046193
0.00471016
0.0048875632
0.0052512489
0.0055206982
0.0057103125
0.0058525731
0.0059727328
0.0060899486
0.0062211982
0.006380685
0.00655419
0.0059490982
0.0069701199
0.0073134833
0.0074961934
0.0076116992
0.0077019114
0.0077929631
0.0079147177
0.0081259549
0.0085732095
0.0021171025
0.0026257023
0.0027466813
0.0028014574
0.002832451
0.002855421
0.0028793618
0.0029159944
0.0029950318
0.0032141641
-0.0030656945
-0.0026604888
-0.0025714084
-0.002533316
-0.0025077012
-0.0024818651
-0.0024446207
-0.0023727349
-0.0021969228
-0.001677207
-0.0068227211
-0.006081292
-0.0058527127
-0.0057266044
-0.0056301948
-0.0055315649
-0.0054002438
-0.0051825948
-0.0047535858
-0.003788919
-0.0034440137
-0.0032532545
-0.0030893261
-0.0029535176
-0.0028308021
-0.0027035128
-0.0025516087
-0.0023508446
-0.0020829051
-0.0018139855
-0.0015270239
-0.0014314631
-0.0013045061
-0.0011729392
-0.0010415505
-0.00090555254
-0.00075714216
-0.00059138061
-0.00041823719
-0.00028694259
0.00025896342
0.00033613985
0.00045400288
0.00058614467
0.00072138948
0.0008582547
0.00099818275
0.0011388442
0.0012663606
0.0013490646
0.0019672236
0.0020618444
0.0021971747
0.0023410379
0.002481583
0.0026178311
0.0027515605
0.0028809525
0.0029944726
0.0030665265
0.0035818333
0.0037455285
0.0039308034
0.0040981967
0.0042449754
0.0043787862
0.0045080967
0.004637719
0.0047628112
0.0048561089
0.0050343036
0.0054058504
0.0056809615
0.005874554
0.0060198665
0.0061427318
0.0062627785
0.0063974463
0.0065613569
0.0067398774
0.0061172693
0.0071605611
0.0075109451
0.0076974202
0.0078153832
0.0079076406
0.0080009572
0.0081260306
0.0083433882
0.0088039776
0.002175819
0.0026955347
0.0028189302
0.0028748144
0.0029064599
0.0029299504
0.0029544959
0.0029921489
0.0030735096
0.0032992084
-0.0030893422
-0.0026796815
-0.0025897478
-0.0025512779
-0.0025253669
-0.0024991902
-0.0024614205
-0.0023884917
-0.0022100914
-0.0016826381
-0.0068637851
-0.0061143935
-0.0058836379
-0.0057562406
-0.0056586979
-0.0055587719
-0.0054256164
-0.0052048501
-0.0047696367
-0.0037909407
-0.003442264
-0.0032496587
-0.0030841111
-0.0029468152
-0.0028226035
-0.002693628
-0.0025396128
-0.0023360108
-0.0020643126
-0.0017918523
-0.0015004257
-0.0014038544
-0.0012754858
-0.0011423468
-0.001009274
-0.00087142897
-0.00072092576
-0.00055279217
-0.00037719063
-0.00024410835
0.00030902736
0.00038715892
0.00050649609
0.00064034616
0.00077741388
0.00091620552
0.0010581762
0.0012009384
0.0013303707
0.0014142964
0.0020399912
0.0021359109
0.0022730728
0.0024189016
0.002561421
0.0026996639
0.0028354451
0.0029669114
0.0030823167
0.0031555902
0.0036762323
0.0038422801
0.0040301541
0.0041998973
0.0043487909
0.0044846301
0.0046160384
0.0047479219
0.0048753473
0.004970476
0.0051482087
0.0055252022
0.0058041883
0.0060005024
0.0061479235
0.006272697
0.006394795
0.0065320059
0.0066992743
0.0068816488
0.0062454453
0.0073042257
0.0076593548
0.0078483843
0.0079680386
0.0080617423
0.0081567174
0.0082842963
0.0085063603
0.0089772861
0.0022202924
0.0027477457
0.0028727564
0.002929386
0.002961478
0.0029853364
0.003010327
0.0030487555
0.0031319099
0.003362706
-0.003093357
-0.0026818473
-0.0025916322
-0.0025530299
-0.0025269881
-0.0025006384
-0.0024625853
-0.0023890814
-0.0022092377
-0.0016774321
-0.0068612565
-0.0061086694
-0.0058772058
-0.0057493314
-0.0056512787
-0.0055506959
-0.0054165593
-0.0051940916
-0.0047554657
-0.0037690201
-0.0034187098
-0.0032254838
-0.0030593718
-0.0029214645
-0.0027965503
-0.002666714
-0.0025115745
-0.0023064399
-0.0020327251
-0.0017584701
-0.0014644087
-0.0013674426
-0.0012384816
-0.001104621
-0.00097071506
-0.00083190553
-0.0006802738
-0.00051084592
-0.00033391208
-0.00019989512
0.00035694055
0.00043552781
0.00055557612
0.00069027828
0.00082829158
0.00096812073
0.0011112241
0.0012551717
0.0013856898
0.0014702988
0.0020995097
0.0021961139
0.002334229
0.0024810897
0.0026246703
0.0027640221
0.0029009845
0.0030336815
0.003150231
0.0032242536
0.0037468598
0.0039141953
0.004103464
0.0042744694
0.0044245237
0.0045615204
0.004694183
0.0048274808
0.0049564199
0.0050527674
0.0052288444
0.0056088659
0.005889938
0.0060877153
0.0062362998
0.0063621811
0.0064855462
0.0066244179
0.0067939671
0.00697902
0.0063332348
0.0074007088
0.0077583063
0.0079486786
0.0080692571
0.0081638058
0.0082598292
0.0083890924
0.0086144312
0.009092656
0.0022504006
0.0027822063
0.002908031
0.002965043
0.0029973757
0.0030214489
0.003046724
0.0030856806
0.0031700926
0.0034044971
-0.003077958
-0.0026671939
-0.0025772654
-0.0025387739
-0.0025127657
-0.0024864096
-0.0024483142
-0.0023747007
-0.0021945535
-0.0016617669
-0.0068157475
-0.0060647086
-0.0058339941
-0.0057064485
-0.0056085046
-0.0055079013
-0.005373633
-0.0051508729
-0.0047116139
-0.0037236698
-0.0033738927
-0.0031812627
-0.0030156326
-0.0028779835
-0.0027531558
-0.0026232801
-0.0024679984
-0.0022626303
-0.0019886324
-0.0017143181
-0.0014194618
-0.0013227122
-0.0011939723
-0.0010602355
-0.0009263429
-0.00078744709
-0.00063564688
-0.00046599787
-0.00028885239
-0.00015474922
0.0004022736
0.00048081998
0.00060082081
0.00073552343
0.00087360922
0.0010135907
0.0011569201
0.0013011408
0.0014319175
0.0015166734
0.0021454176
0.0022420948
0.0023802893
0.0025272523
0.0026709853
0.0028105632
0.0029478385
0.0030809241
0.0031978778
0.003272179
0.00379343
0.0039609933
0.0041504583
0.0043216431
0.0044719075
0.0046091932
0.0047422684
0.0048761332
0.0050057654
0.0051027177
0.0052760064
0.0056566474
0.0059380255
0.0061360134
0.00628482
0.0064110107
0.0065348593
0.0066745077
0.0068452562
0.0070318057
0.0063805122
0.0074499129
0.0078077153
0.0079982251
0.0081189639
0.0082137577
0.0083102188
0.0084403423
0.0086675169
0.0091499833
0.0022661142
0.0027989008
0.0029247436
0.002981777
0.0030141457
0.003038281
0.0030636798
0.0031029159
0.0031880462
0.0034245602
-0.0030434783
-0.0026360267
-0.0025469454
-0.0025088044
-0.0024829922
-0.0024567945
-0.0024188951
-0.0023456331
-0.0021663104
-0.0016358799
-0.0067281151
-0.0059833158
-0.005754788
-0.005628366
-0.0055311424
-0.0054311474
-0.0052975874
-0.0050759295
-0.0046387869
-0.0036555296
-0.003308463
-0.0031176295
-0.002953513
-0.0028169807
-0.0026930192
-0.0025639159
-0.0024094635
-0.0022051471
-0.0019325805
-0.0016599213
-0.001366106
-0.0012701761
-0.0011424604
-0.0010096822
-0.00087663969
-0.00073852634
-0.00058750771
-0.00041869957
-0.00024245127
-0.00010910072
0.00044463568
0.00052265056
0.00064185423
0.00077571543
0.00091301011
0.0010522677
0.0011949256
0.0013385157
0.0014687312
0.0015531031
0.002177458
0.0022736036
0.002411013
0.0025571592
0.002700145
0.0028390747
0.002975802
0.003108441
0.0032250642
0.003299177
0.0038158232
0.0039825653
0.0041710411
0.0043413341
0.0044908679
0.0046275821
0.0047602342
0.0048938241
0.0050233325
0.0051202778
0.0052897095
0.0056685865
0.00594851
0.0061454695
0.0062935664
0.0064192751
0.0065428286
0.0066823733
0.0068532422
0.0070401074
0.0063874087
0.0074520385
0.0078078086
0.0079972642
0.0081174074
0.0082118517
0.0083081434
0.0084383053
0.0086658775
0.0091495274
0.0022674939
0.0027979245
0.0029229988
0.0029796972
0.0030118992
0.0030359452
0.0030613077
0.0031005754
0.0031858846
0.0034230086
-0.0029903612
-0.0025887464
-0.002501062
-0.0024635066
-0.0024380496
-0.0024121723
-0.0023747034
-0.002302246
-0.0021248576
-0.0016000661
-0.0065994571
-0.0058655082
-0.0056405761
-0.0055160569
-0.0054201538
-0.0053213851
-0.0051893595
-0.0049701745
-0.0045378526
-0.0035653644
-0.0032231813
-0.0030353216
-0.00287373
-0.0027391564
-0.0026168263
-0.0024892935
-0.0023366257
-0.0021346246
-0.0018651743
-0.0015958538
-0.0013048989
-0.0012103804
-0.0010844766
-0.00095347671
-0.00082210632
-0.00068562956
-0.00053632689