/*--------------------------------*- C++ -*----------------------------------*\
| =========                 |                                                 |
| \\      /  F ield         | OpenFOAM: The Open Source CFD Toolbox           |
|  \\    /   O peration     | Version:  v2106                                 |
|   \\  /    A nd           | Website:  www.openfoam.com                      |
|    \\/     M anipulation  |                                                 |
\*---------------------------------------------------------------------------*/
FoamFile
{
    version     2.0;
    format      ascii;
    arch        "LSB;label=32;scalar=64";
    class       volVectorField;
    location    "80";
    object      gradT;
}
// * * * * * * * * * * * * * * * * * * * * * * * * * * * * * * * * * * * * * //

dimensions      [0 -1 0 1 0 0 0];

internalField   nonuniform List<vector> 
4000
(
(-0.0001135211 -0.0001135211 567.82234)
(-0.00024942942 -0.00010064961 567.82151)
(-0.00012560445 -9.7665689e-05 567.8211)
(-6.8058587e-05 -9.6506852e-05 567.82086)
(-2.1756239e-05 -9.5827084e-05 567.82075)
(1.8520706e-05 -9.5204915e-05 567.82075)
(5.288986e-05 -9.4357688e-05 567.82085)
(7.7987301e-05 -9.2800208e-05 567.82103)
(8.3301746e-05 -8.929258e-05 567.82127)
(2.6352844e-05 -8.0759879e-05 567.82149)
(-0.00010064961 -0.00024942943 567.82151)
(-0.0002256463 -0.00022564631 567.82077)
(-0.00011939031 -0.00021817771 567.82039)
(-6.5300679e-05 -0.00021449144 567.82016)
(-1.9803333e-05 -0.00021198017 567.82005)
(2.07248e-05 -0.00020960618 567.82006)
(5.649692e-05 -0.00020658943 567.82016)
(8.5584963e-05 -0.00020176161 567.82036)
(0.00010136224 -0.00019275952 567.82062)
(3.4885545e-05 -0.00017531435 567.82093)
(-9.7665691e-05 -0.00012560444 567.8211)
(-0.0002181777 -0.00011939031 567.82039)
(-0.00011444958 -0.00011444959 567.82003)
(-6.1861052e-05 -0.00011074305 567.8198)
(-1.6870978e-05 -0.00010764391 567.81971)
(2.3911449e-05 -0.0001045984 567.81972)
(6.0734435e-05 -0.00010107937 567.81983)
(9.1817211e-05 -9.6500793e-05 567.82004)
(0.000109749 -9.0389472e-05 567.82033)
(3.7982957e-05 -8.3708707e-05 567.82065)
(-9.6506852e-05 -6.805858e-05 567.82086)
(-0.00021449145 -6.5300677e-05 567.82016)
(-0.00011074305 -6.1861051e-05 567.8198)
(-5.8495002e-05 -5.8495002e-05 567.81959)
(-1.3658686e-05 -5.5283846e-05 567.8195)
(2.7289346e-05 -5.2073048e-05 567.81952)
(6.4594528e-05 -4.8648062e-05 567.81965)
(9.6274859e-05 -4.4861876e-05 567.81987)
(0.00011415433 -4.0888602e-05 567.82016)
(3.9339388e-05 -3.7754138e-05 567.8205)
(-9.5827089e-05 -2.1756241e-05 567.82075)
(-0.00021198017 -1.9803343e-05 567.82005)
(-0.00010764391 -1.6870981e-05 567.81971)
(-5.5283847e-05 -1.3658691e-05 567.8195)
(-1.0449023e-05 -1.0449029e-05 567.81942)
(3.0547233e-05 -7.2766113e-06 567.81945)
(6.7945607e-05 -4.0997065e-06 567.81958)
(9.957667e-05 -9.5353776e-07 567.81981)
(0.00011685674 1.881574e-06 567.82012)
(4.00726e-05 3.7377995e-06 567.82046)
(-9.520492e-05 1.8520701e-05 567.82075)
(-0.00020960619 2.0724807e-05 567.82006)
(-0.0001045984 2.391145e-05 567.81972)
(-5.207305e-05 2.7289348e-05 567.81952)
(-7.2766064e-06 3.054723e-05 567.81945)
(3.3638668e-05 3.3638662e-05 567.81949)
(7.0917602e-05 3.6588517e-05 567.81963)
(0.00010225614 3.9349501e-05 567.81986)
(0.00011884566 4.168464e-05 567.82018)
(4.0576872e-05 4.3115843e-05 567.82052)
(-9.4357685e-05 5.2889863e-05 567.82085)
(-0.00020658943 5.6496926e-05 567.82016)
(-0.00010107937 6.0734439e-05 567.81983)
(-4.8648067e-05 6.4594531e-05 567.81965)
(-4.0997094e-06 6.7945614e-05 567.81958)
(3.658852e-05 7.0917599e-05 567.81963)
(7.3656447e-05 7.3656442e-05 567.81978)
(0.00010467279 7.6213438e-05 567.82002)
(0.00012062308 7.8445234e-05 567.82034)
(4.1026736e-05 7.9900766e-05 567.82069)
(-9.2800212e-05 7.7987302e-05 567.82103)
(-0.00020176161 8.5584966e-05 567.82036)
(-9.6500795e-05 9.1817207e-05 567.82004)
(-4.4861874e-05 9.6274847e-05 567.81987)
(-9.5353856e-07 9.9576675e-05 567.81981)
(3.9349497e-05 0.00010225614 567.81986)
(7.6213442e-05 0.00010467279 567.82002)
(0.00010704493 0.00010704493 567.82027)
(0.00012253299 0.00010939631 567.82059)
(4.1547226e-05 0.00011126801 567.82095)
(-8.9292576e-05 8.3301739e-05 567.82127)
(-0.00019275952 0.00010136225 567.82062)
(-9.0389489e-05 0.000109749 567.82033)
(-4.0888598e-05 0.00011415433 567.82016)
(1.8815874e-06 0.00011685674 567.82012)
(4.1684636e-05 0.00011884567 567.82018)
(7.8445229e-05 0.00012062309 567.82034)
(0.00010939631 0.00012253299 567.82059)
(0.00012484617 0.00012484617 567.82092)
(4.2274537e-05 0.00012737877 567.82128)
(-8.0759872e-05 2.6352841e-05 567.82149)
(-0.00017531435 3.4885545e-05 567.82093)
(-8.3708713e-05 3.7982956e-05 567.82065)
(-3.7754134e-05 3.9339395e-05 567.8205)
(3.7377987e-06 4.0072599e-05 567.82046)
(4.3115844e-05 4.057687e-05 567.82052)
(7.9900767e-05 4.1026737e-05 567.82069)
(0.00011126801 4.1547228e-05 567.82095)
(0.00012737877 4.227454e-05 567.82128)
(4.3235629e-05 4.3235632e-05 567.82165)
(-0.00049539964 -0.00049539964 839.10986)
(-0.0011103733 -0.00043308571 839.10883)
(-0.0005883803 -0.00041927251 839.10829)
(-0.00032416694 -0.00041382818 839.10796)
(-0.00010210261 -0.00041054843 839.10781)
(9.4176653e-05 -0.00040751582 839.10782)
(0.00026392021 -0.00040335979 839.10797)
(0.00039291762 -0.00039558336 839.10826)
(0.0004375436 -0.00037706653 839.10864)
(0.00014355162 -0.00032373629 839.10907)
(-0.00043308571 -0.0011103733 839.10883)
(-0.00099618261 -0.00099618261 839.10793)
(-0.000559494 -0.00096152708 839.10742)
(-0.00031108083 -0.00094404326 839.1071)
(-9.263407e-05 -0.0009318947 839.10696)
(0.00010495962 -0.00092032498 839.10698)
(0.0002818189 -0.00090555761 839.10714)
(0.00043235751 -0.00088166882 839.10745)
(0.00054531421 -0.00083544009 839.10788)
(0.00019688186 -0.00073326271 839.10844)
(-0.00041927251 -0.00058838029 839.10829)
(-0.00096152708 -0.000559494 839.10742)
(-0.00053624094 -0.00053624095 839.10694)
(-0.00029453456 -0.00051841694 839.10663)
(-7.8384334e-05 -0.00050337012 839.1065)
(0.00012051374 -0.00048852443 839.10653)
(0.00030257637 -0.00047133346 839.10671)
(0.00046303515 -0.00044891005 839.10703)
(0.00058594971 -0.00041886955 839.10749)
(0.00021166987 -0.00038681429 839.10808)
(-0.00041382818 -0.00032416694 839.10796)
(-0.00094404327 -0.00031108083 839.1071)
(-0.00051841694 -0.00029453456 839.10663)
(-0.00027821 -0.00027821 839.10634)
(-6.2741556e-05 -0.00026257723 839.10622)
(0.00013699629 -0.000246916 839.10626)
(0.00032143328 -0.00023019176 839.10645)
(0.00048482142 -0.00021169085 839.10679)
(0.00060740997 -0.00019227472 839.10727)
(0.00021825203 -0.00017703481 839.10788)
(-0.00041054843 -0.00010210262 839.10781)
(-0.00093189469 -9.2634072e-05 839.10696)
(-0.00050337011 -7.8384329e-05 839.1065)
(-0.00026257723 -6.2741552e-05 839.10622)
(-4.7090327e-05 -4.7090323e-05 839.10611)
(0.00015289921 -3.1605127e-05 839.10616)
(0.00033780152 -1.6085121e-05 839.10637)
(0.00050095219 -7.0455079e-07 839.10672)
(0.00062060575 1.3160988e-05 839.10721)
(0.00022182981 2.2235874e-05 839.10783)
(-0.00040751582 9.4176656e-05 839.10782)
(-0.00092032498 0.00010495962 839.10698)
(-0.00048852442 0.00012051374 839.10653)
(-0.000246916 0.00013699628 839.10626)
(-3.1605131e-05 0.00015289921 839.10616)
(0.00016800149 0.00016800147 839.10623)
(0.00035233385 0.00018243012 839.10644)
(0.00051406753 0.00019596099 839.10681)
(0.0006303504 0.00020743843 839.10731)
(0.00022430196 0.00021450022 839.10793)
(-0.00040335978 0.00026392021 839.10797)
(-0.00090555761 0.0002818189 839.10714)
(-0.00047133346 0.00030257637 839.10671)
(-0.00023019176 0.00032143327 839.10645)
(-1.608513e-05 0.00033780152 839.10637)
(0.00018243012 0.00035233385 839.10644)
(0.00036576104 0.00036576104 839.10667)
(0.0005259605 0.00037836456 839.10705)
(0.00063914498 0.00038948409 839.10755)
(0.00022653767 0.00039687859 839.10818)
(-0.00039558336 0.00039291762 839.10826)
(-0.00088166882 0.00043235752 839.10745)
(-0.00044891005 0.00046303515 839.10703)
(-0.00021169085 0.00048482142 839.10679)
(-7.0454976e-07 0.00050095218 839.10672)
(0.00019596101 0.00051406754 839.10681)
(0.00037836456 0.00052596051 839.10705)
(0.00053779058 0.00053779059 839.10743)
(0.00064886443 0.00054988065 839.10795)
(0.00022923162 0.0005601664 839.10858)
(-0.00037706652 0.0004375436 839.10864)
(-0.00083544008 0.00054531422 839.10788)
(-0.00041886956 0.00058594972 839.10749)
(-0.00019227472 0.00060740998 839.10727)
(1.3160989e-05 0.00062060576 839.10721)
(0.00020743845 0.00063035041 839.10731)
(0.0003894841 0.00063914498 839.10755)
(0.00054988065 0.00064886443 839.10795)
(0.00066152079 0.0006615208 839.10848)
(0.00023339483 0.00067838005 839.10913)
(-0.00032373629 0.00014355162 839.10907)
(-0.00073326271 0.00019688185 839.10844)
(-0.00038681428 0.00021166987 839.10808)
(-0.00017703481 0.00021825204 839.10788)
(2.2235873e-05 0.00022182981 839.10783)
(0.00021450023 0.00022430196 839.10793)
(0.00039687858 0.00022653767 839.10818)
(0.0005601664 0.00022923162 839.10858)
(0.00067838005 0.00023339484 839.10913)
(0.00024047112 0.00024047112 839.10982)
(-0.00079925369 -0.00079925369 833.69331)
(-0.0018151216 -0.00069881748 833.69245)
(-0.00099291422 -0.00067619159 833.69198)
(-0.00055046432 -0.00066696943 833.69169)
(-0.00016446247 -0.00066125559 833.69156)
(0.00018417406 -0.00065588781 833.69158)
(0.00049356266 -0.00064846753 833.69176)
(0.00074624536 -0.00063446583 833.69206)
(0.00089317201 -0.00060075062 833.69249)
(0.00031042931 -0.000502365 833.69301)
(-0.00069881748 -0.0018151216 833.69245)
(-0.0016305285 -0.0016305285 833.69169)
(-0.00094514215 -0.0015731417 833.69125)
(-0.00052806032 -0.0015432406 833.69097)
(-0.00014784004 -0.0015219906 833.69085)
(0.00020335614 -0.0015015037 833.69088)
(0.00052569563 -0.0014751812 833.69106)
(0.00081782072 -0.0014323574 833.69139)
(0.0010913233 -0.0013488772 833.69186)
(0.00040881493 -0.0011627318 833.69251)
(-0.00067619159 -0.00099291422 833.69198)
(-0.0015731417 -0.00094514215 833.69125)
(-0.00090562635 -0.00090562637 833.69082)
(-0.00049931329 -0.00087468612 833.69056)
(-0.00012272558 -0.00084821512 833.69044)
(0.00023098346 -0.00082190112 833.69049)
(0.00056270892 -0.00079130858 833.69068)
(0.00087254944 -0.00075132618 833.69103)
(0.0011627977 -0.00069782629 833.69153)
(0.00043452622 -0.0006419318 833.69221)
(-0.00066696944 -0.00055046432 833.69169)
(-0.0015432406 -0.00052806031 833.69097)
(-0.00087468612 -0.00049931329 833.69056)
(-0.00047064908 -0.00047064908 833.6903)
(-9.505504e-05 -0.00044301332 833.6902)
(0.00026026269 -0.00041521212 833.69026)
(0.00059627057 -0.00038545205 833.69046)
(0.00091130301 -0.00035249835 833.69082)
(0.0012007176 -0.00031796306 833.69134)
(0.00044607792 -0.00029111567 833.69204)
(-0.00066125558 -0.00016446247 833.69156)
(-0.0015219906 -0.00014784004 833.69085)
(-0.00084821513 -0.00012272557 833.69044)
(-0.00044301332 -9.5055044e-05 833.6902)
(-6.7288616e-05 -6.7288619e-05 833.69011)
(0.00028854472 -3.9750418e-05 833.69018)
(0.00062542269 -1.2093745e-05 833.6904)
(0.00094003843 1.5358926e-05 833.69077)
(0.0012241803 4.0124899e-05 833.6913)
(0.00045242448 5.6305105e-05 833.69201)
(-0.00065588782 0.00018417405 833.69158)
(-0.0015015037 0.00020335613 833.69088)
(-0.00082190112 0.00023098345 833.69049)
(-0.00041521212 0.00026026269 833.69026)
(-3.9750414e-05 0.00028854473 833.69018)
(0.00031545756 0.00031545756 833.69026)
(0.00065137991 0.00034124975 833.69049)
(0.00096352165 0.00036554872 833.69088)
(0.0012416638 0.00038629923 833.69141)
(0.00045686473 0.00039917918 833.69213)
(-0.00064846753 0.00049356265 833.69176)
(-0.0014751812 0.00052569563 833.69106)
(-0.00079130857 0.00056270891 833.69068)
(-0.00038545204 0.00059627057 833.69046)
(-1.2093747e-05 0.00062542269 833.6904)
(0.00034124974 0.00065137991 833.69049)
(0.00067551386 0.00067551385 833.69074)
(0.00098508791 0.00069845046 833.69113)
(0.0012578108 0.00071917347 833.69168)
(0.00046101111 0.00073355937 833.6924)
(-0.00063446584 0.00074624536 833.69206)
(-0.0014323575 0.00081782074 833.69139)
(-0.00075132617 0.00087254944 833.69103)
(-0.00035249834 0.00091130301 833.69082)
(1.5358921e-05 0.00094003842 833.69077)
(0.00036554872 0.00096352166 833.69088)
(0.00069845046 0.00098508791 833.69113)
(0.0010071813 0.0010071813 833.69153)
(0.0012767727 0.0010312571 833.69209)
(0.00046645533 0.001054685 833.69282)
(-0.00060075062 0.00089317201 833.69249)
(-0.0013488772 0.0010913233 833.69186)
(-0.0006978263 0.0011627977 833.69153)
(-0.00031796306 0.0012007176 833.69134)
(4.0124903e-05 0.0012241803 833.6913)
(0.00038629923 0.0012416638 833.69141)
(0.00071917346 0.0012578108 833.69168)
(0.0010312571 0.0012767727 833.69209)
(0.0013053146 0.0013053146 833.69267)
(0.00047662972 0.0013590139 833.69341)
(-0.000502365 0.00031042931 833.69301)
(-0.0011627318 0.00040881492 833.69251)
(-0.0006419318 0.00043452622 833.69221)
(-0.00029111567 0.00044607793 833.69204)
(5.6305105e-05 0.00045242448 833.69201)
(0.00039917918 0.00045686473 833.69213)
(0.00073355936 0.00046101111 833.6924)
(0.001054685 0.00046645533 833.69282)
(0.0013590139 0.00047662972 833.69341)
(0.00050225488 0.00050225488 833.69422)
(-0.0010704054 -0.0010704054 828.39008)
(-0.0024407545 -0.00093608275 828.3893)
(-0.0013477735 -0.00090571301 828.38888)
(-0.00074410688 -0.0008930894 828.38862)
(-0.00020430541 -0.00088510213 828.38852)
(0.00029213188 -0.00087748807 828.38857)
(0.00074196359 -0.00086687534 828.38875)
(0.0011247323 -0.00084673351 828.38908)
(0.0013807261 -0.00079796639 828.38952)
(0.00048866659 -0.00065489894 828.39006)
(-0.00093608275 -0.0024407545 828.3893)
(-0.002193716 -0.002193716 828.38861)
(-0.0012832835 -0.0021162177 828.38822)
(-0.00071319057 -0.0020750189 828.38797)
(-0.0001809034 -0.0020452165 828.38787)
(0.00031947208 -0.0020161471 828.38793)
(0.00078809543 -0.0019785509 828.38812)
(0.0012280958 -0.0019171239 828.38846)
(0.001668478 -0.0017969237 828.38895)
(0.00063173404 -0.0015279013 828.38962)
(-0.00090571301 -0.0013477735 828.38888)
(-0.0021162177 -0.0012832835 828.38822)
(-0.0012290764 -0.0012290764 828.38784)
(-0.00067310568 -0.0011859755 828.38761)
(-0.0001454336 -0.0011486644 828.38752)
(0.0003587975 -0.0011112901 828.38758)
(0.00084098674 -0.0010676514 828.38779)
(0.0013063596 -0.0010105058 828.38815)
(0.0017699487 -0.00093409074 828.38867)
(0.00066801482 -0.00085515793 828.38937)
(-0.00089308941 -0.00074410688 828.38862)
(-0.0020750189 -0.00071319057 828.38797)
(-0.0011859755 -0.00067310568 828.38761)
(-0.00063277855 -0.00063277854 828.38738)
(-0.00010621807 -0.00059363981 828.38731)
(0.00040048513 -0.00055408676 828.38738)
(0.00088887979 -0.00051162692 828.3876)
(0.0013616564 -0.00046455277 828.38798)
(0.0018238258 -0.00041526424 828.38851)
(0.00068435591 -0.00037719109 828.38923)
(-0.00088510214 -0.00020430541 828.38852)
(-0.0020452165 -0.00018090341 828.38787)
(-0.0011486644 -0.0001454336 828.38752)
(-0.0005936398 -0.00010621807 828.38731)
(-6.6741812e-05 -6.6741812e-05 828.38724)
(0.00044081038 -2.7478516e-05 828.38733)
(0.00093052072 1.2051281e-05 828.38756)
(0.0014027223 5.1364513e-05 828.38795)
(0.0018573104 8.6861736e-05 828.3885)
(0.00069339692 0.00011002262 828.38922)
(-0.00087748807 0.00029213188 828.38857)
(-0.0020161471 0.00031947208 828.38793)
(-0.0011112901 0.0003587975 828.38758)
(-0.00055408677 0.00040048513 828.38738)
(-2.7478524e-05 0.00044081039 828.38733)
(0.00047927822 0.00047927823 828.38743)
(0.00096772281 0.00051627606 828.38767)
(0.0014364668 0.00055130001 828.38807)
(0.0018824839 0.00058139371 828.38863)
(0.0006997965 0.00060020122 828.38936)
(-0.00086687534 0.00074196359 828.38875)
(-0.0019785509 0.00078809543 828.38812)
(-0.0010676514 0.00084098673 828.38779)
(-0.00051162691 0.00088887978 828.3876)
(1.2051283e-05 0.00093052072 828.38756)
(0.00051627605 0.00096772282 828.38767)
(0.0010025425 0.0010025425 828.38793)
(0.0014678399 0.0010360181 828.38834)
(0.0019062116 0.0010668209 828.3889)
(0.00070593526 0.0010887602 828.38964)
(-0.00084673351 0.0011247323 828.38908)
(-0.0019171239 0.0012280958 828.38846)
(-0.0010105058 0.0013063596 828.38815)
(-0.00046455278 0.0013616564 828.38798)
(5.1364515e-05 0.0014027223 828.38795)
(0.00055130002 0.0014364668 828.38807)
(0.0010360181 0.0014678399 828.38834)
(0.0015007452 0.0015007452 828.38876)
(0.001935226 0.0015380064 828.38933)
(0.00071442271 0.0015762003 828.39008)
(-0.00079796639 0.0013807261 828.38952)
(-0.0017969237 0.001668478 828.38895)
(-0.00093409074 0.0017699487 828.38867)
(-0.00041526425 0.0018238258 828.38851)
(8.6861743e-05 0.0018573104 828.3885)
(0.00058139371 0.0018824839 828.38863)
(0.0010668209 0.0019062116 828.3889)
(0.0015380064 0.001935226 828.38933)
(0.0019816667 0.0019816667 828.38993)
(0.00073139785 0.0020752874 828.39069)
(-0.00065489895 0.00048866659 828.39006)
(-0.0015279013 0.00063173403 828.38962)
(-0.00085515793 0.00066801482 828.38937)
(-0.00037719109 0.00068435591 828.38923)
(0.00011002263 0.00069339692 828.38922)
(0.00060020121 0.0006997965 828.38936)
(0.0010887602 0.00070593526 828.38964)
(0.0015762003 0.0007144227 828.39008)
(0.0020752874 0.00073139785 828.39069)
(0.00077683653 0.00077683653 828.39151)
(-0.001323015 -0.001323015 823.19627)
(-0.0030165707 -0.0011565136 823.19554)
(-0.001663588 -0.0011189527 823.19516)
(-0.00090820029 -0.00110318 823.19494)
(-0.00022246147 -0.0010930545 823.19486)
(0.00041644534 -0.0010832883 823.19492)
(0.0010038431 -0.0010695823 823.19512)
(0.0015151489 -0.0010434654 823.19545)
(0.0018762463 -0.00098004402 823.1959)
(0.0006684628 -0.00079353808 823.19644)
(-0.0011565136 -0.0030165707 823.19554)
(-0.0027104773 -0.0027104773 823.1949)
(-0.0015835876 -0.0026143556 823.19454)
(-0.000869353 -0.0025626688 823.19433)
(-0.00019262385 -0.0025248011 823.19425)
(0.00045165379 -0.0024875079 823.19432)
(0.0010635774 -0.0024390027 823.19453)
(0.0016494562 -0.0023594999 823.19488)
(0.0022511373 -0.002203596 823.19537)
(0.00085496874 -0.0018540898 823.19604)
(-0.0011189527 -0.001663588 823.19516)
(-0.0026143556 -0.0015835876 823.19454)
(-0.0015157795 -0.0015157795 823.1942)
(-0.00081864581 -0.0014613064 823.194)
(-0.00014730059 -0.0014137177 823.19393)
(0.00050224373 -0.0013657316 823.19401)
(0.0011318511 -0.0013094815 823.19423)
(0.0017505556 -0.0012356911 823.1946)
(0.0023816564 -0.0011370533 823.19512)
(0.00090146689 -0.0010358599 823.19581)
(-0.00110318 -0.00090820028 823.19494)
(-0.0025626688 -0.000869353 823.19433)
(-0.0014613064 -0.00081864581 823.194)
(-0.00076729114 -0.00076729114 823.19381)
(-9.7049082e-05 -0.00071717126 823.19375)
(0.00055589002 -0.00066630802 823.19384)
(0.0011936179 -0.00061155729 823.19407)
(0.0018218844 -0.00055078077 823.19446)
(0.0024509685 -0.00048717824 823.19499)
(0.00092243098 -0.000438251 823.1957)
(-0.0010930546 -0.00022246147 823.19486)
(-0.0025248011 -0.00019262385 823.19425)
(-0.0014137177 -0.00014730058 823.19393)
(-0.00071717126 -9.7049083e-05 823.19375)
(-4.6317469e-05 -4.6317462e-05 823.19371)
(0.0006078577 4.2801798e-06 823.19381)
(0.0012473784 5.5345666e-05 823.19406)
(0.0018749347 0.00010622439 823.19445)
(0.0024941862 0.00015220264 823.195)
(0.00093408505 0.00018217367 823.19571)
(-0.0010832883 0.00041644535 823.19492)
(-0.0024875079 0.0004516538 823.19432)
(-0.0013657316 0.00050224372 823.19401)
(-0.00066630802 0.00055589 823.19384)
(4.2801815e-06 0.0006078577 823.19381)
(0.00065755314 0.00065755315 823.19392)
(0.0012955621 0.00070551072 823.19418)
(0.0019187413 0.00075109869 823.19458)
(0.0025269178 0.00079045389 823.19514)
(0.00094241167 0.00081515955 823.19586)
(-0.0010695823 0.0010038431 823.19512)
(-0.0024390028 0.0010635774 823.19453)
(-0.0013094815 0.0011318511 823.19423)
(-0.00061155729 0.0011936179 823.19407)
(5.5345679e-05 0.0012473784 823.19406)
(0.00070551071 0.0012955621 823.19418)
(0.0013409239 0.0013409239 823.19444)
(0.0019598779 0.0013849283 823.19486)
(0.002558247 0.0014259167 823.19543)
(0.0009505555 0.0014555265 823.19615)
(-0.0010434654 0.0015151489 823.19545)
(-0.0023594999 0.0016494562 823.19488)
(-0.0012356911 0.0017505556 823.1946)
(-0.00055078077 0.0018218844 823.19446)
(0.00010622439 0.0018749347 823.19445)
(0.00075109869 0.0019187413 823.19458)
(0.0013849283 0.0019598779 823.19486)
(0.0020037341 0.0020037341 823.19528)
(0.002597516 0.0020544722 823.19586)
(0.00096215154 0.0021076264 823.1966)
(-0.00098004403 0.0018762463 823.1959)
(-0.002203596 0.0022511373 823.19537)
(-0.0011370533 0.0023816564 823.19512)
(-0.00048717823 0.0024509685 823.19499)
(0.00015220263 0.0024941862 823.195)
(0.00079045389 0.0025269178 823.19514)
(0.0014259167 0.002558247 823.19543)
(0.0020544722 0.002597516 823.19586)
(0.0026621393 0.0026621393 823.19646)
(0.00098599159 0.002795107 823.19721)
(-0.00079353808 0.0006684628 823.19644)
(-0.0018540898 0.00085496874 823.19604)
(-0.0010358599 0.0009014669 823.19581)
(-0.000438251 0.00092243098 823.1957)
(0.00018217367 0.00093408505 823.19571)
(0.00081515954 0.00094241167 823.19586)
(0.0014555265 0.00095055549 823.19615)
(0.0021076264 0.00096215154 823.1966)
(0.002795107 0.00098599159 823.19721)
(0.0010507967 0.0010507967 823.19803)
(-0.0015603262 -0.0015603262 818.10819)
(-0.0035518004 -0.0013630719 818.1075)
(-0.0019473207 -0.0013187237 818.10716)
(-0.0010469401 -0.0012999958 818.10696)
(-0.00022205327 -0.0012878513 818.1069)
(0.00055328424 -0.0012760314 818.10698)
(0.0012729879 -0.0012593536 818.10719)
(0.0019076072 -0.0012274835 818.10752)
(0.002367259 -0.0011499533 818.10797)
(0.00084548842 -0.00092165837 818.10849)
(-0.0013630719 -0.0035518004 818.1075)
(-0.0031893965 -0.0031893965 818.1069)
(-0.0018527064 -0.0030757514 818.10658)
(-0.0010006316 -0.0030142224 818.10639)
(-0.00018610671 -0.0029687324 818.10634)
(0.00059603085 -0.0029235935 818.10642)
(0.0013458098 -0.002864615 818.10664)
(0.0020717077 -0.002767717 818.10699)
(0.0028259966 -0.0025774523 818.10747)
(0.0010737833 -0.0021505546 818.10812)
(-0.0013187236 -0.0019473206 818.10716)
(-0.0030757514 -0.0018527064 818.10658)
(-0.0017721465 -0.0017721465 818.10627)
(-0.00093992111 -0.0017069772 818.10609)
(-0.00013142437 -0.0016496507 818.10605)
(0.00065740164 -0.0015915331 818.10614)
(0.0014288644 -0.0015231797 818.10637)
(0.0021947698 -0.0014333802 818.10673)
(0.0029844213 -0.0013133695 818.10725)
(0.0011300869 -0.0011908113 818.10792)
(-0.0012999958 -0.0010469401 818.10696)
(-0.0030142224 -0.0010006316 818.10639)
(-0.0017069772 -0.00093992111 818.10609)
(-0.0008781357 -0.0008781357 818.10593)
(-7.0662588e-05 -0.00081756772 818.10589)
(0.00072250185 -0.00075588192 818.10599)
(0.0015039626 -0.00068932134 818.10623)
(0.0022815178 -0.00061535222 818.10661)
(0.0030685655 -0.00053796817 818.10714)
(0.0011554888 -0.00047860974 818.10783)
(-0.0012878513 -0.00022205328 818.1069)
(-0.0029687324 -0.00018610671 818.10634)
(-0.0016496506 -0.00013142436 818.10605)
(-0.00081756772 -7.0662581e-05 818.10589)
(-9.1705897e-06 -9.170584e-06 818.10587)
(0.00078564803 5.230971e-05 818.10598)
(0.0015693941 0.00011449406 818.10623)
(0.002346123 0.00017654966 818.10662)
(0.0031211638 0.0002326666 818.10716)
(0.0011696592 0.00026921913 818.10786)
(-0.0012760314 0.00055328426 818.10698)
(-0.0029235935 0.00059603086 818.10642)
(-0.0015915331 0.00065740165 818.10614)
(-0.00075588192 0.00072250184 818.10599)
(5.2309703e-05 0.00078564802 818.10598)
(0.00084616649 0.00084616649 818.1061)
(0.0016282026 0.000904739 818.10636)
(0.0023996903 0.00096060426 818.10677)
(0.003161235 0.0010089981 818.10732)
(0.0011798572 0.0010394653 818.10802)
(-0.0012593536 0.0012729879 818.10719)
(-0.002864615 0.0013458098 818.10664)
(-0.0015231797 0.0014288644 818.10637)
(-0.00068932135 0.0015039626 818.10623)
(0.00011449406 0.0015693941 818.10623)
(0.000904739 0.0016282026 818.10636)
(0.0016838319 0.0016838319 818.10663)
(0.0024503822 0.00173816 818.10705)
(0.0032000248 0.0017891799 818.10761)
(0.0011899706 0.0018263446 818.10831)
(-0.0012274835 0.0019076072 818.10752)
(-0.002767717 0.0020717076 818.10699)
(-0.0014333802 0.0021947698 818.10673)
(-0.00061535224 0.0022815178 818.10661)
(0.00017654966 0.002346123 818.10662)
(0.00096060427 0.0023996903 818.10677)
(0.00173816 0.0024503822 818.10705)
(0.0025050383 0.0025050384 818.10747)
(0.0032494196 0.0025690878 818.10804)
(0.0012046336 0.0026369337 818.10875)
(-0.0011499533 0.002367259 818.10797)
(-0.0025774524 0.0028259966 818.10747)
(-0.0013133695 0.0029844213 818.10725)
(-0.00053796817 0.0030685656 818.10714)
(0.0002326666 0.0031211638 818.10716)
(0.0010089982 0.003161235 818.10732)
(0.0017891799 0.0032000248 818.10761)
(0.0025690878 0.0032494196 818.10804)
(0.0033319202 0.0033319202 818.10862)
(0.0012352012 0.0035031966 818.10936)
(-0.00092165837 0.00084548842 818.10849)
(-0.0021505546 0.0010737833 818.10812)
(-0.0011908113 0.0011300869 818.10792)
(-0.00047860974 0.0011554888 818.10783)
(0.00026921913 0.0011696592 818.10786)
(0.0010394653 0.0011798572 818.10802)
(0.0018263446 0.0011899706 818.10831)
(0.0026369337 0.0012046336 818.10875)
(0.0035031966 0.0012352012 818.10936)
(0.0013188179 0.0013188179 818.11015)
(-0.0017828138 -0.0017828138 813.12229)
(-0.0040492753 -0.0015563279 813.12165)
(-0.0022030375 -0.0015055718 813.12133)
(-0.0011640123 -0.0014840647 813.12116)
(-0.00020669758 -0.0014700158 813.12112)
(0.0006983468 -0.001456247 813.1212)
(0.0015436988 -0.0014367372 813.12141)
(0.0022948004 -0.0013993773 813.12174)
(0.0028459492 -0.0013083841 813.12218)
(0.0010172217 -0.0010402195 813.12268)
(-0.0015563279 -0.0040492753 813.12165)
(-0.0036334123 -0.0036334123 813.12109)
(-0.0020946428 -0.0035032564 813.12079)
(-0.0011106783 -0.003432475 813.12063)
(-0.0001649709 -0.0033797935 813.12059)
(0.00074826469 -0.0033272108 813.12068)
(0.0016290033 -0.0032582562 813.1209)
(0.00248733 -0.0031447649 813.12124)
(0.0033846858 -0.0029217222 813.12172)
(0.0012853863 -0.0024210204 813.12234)
(-0.0015055718 -0.0022030375 813.12133)
(-0.0035032564 -0.0020946428 813.12079)
(-0.0020021002 -0.0020021002 813.12051)
(-0.0010405494 -0.001926868 813.12036)
(-0.00010143339 -0.0018603428 813.12033)
(0.00081988414 -0.0017926087 813.12043)
(0.0017261447 -0.001712728 813.12066)
(0.0026313344 -0.0016076601 813.12102)
(0.0035696937 -0.0014672682 813.12152)
(0.001351023 -0.00132437 813.12216)
(-0.0014840647 -0.0011640123 813.12116)
(-0.003432475 -0.0011106783 813.12063)
(-0.001926868 -0.0010405494 813.12036)
(-0.0009689209 -0.0009689209 813.12021)
(-3.0711572e-05 -0.00089845802 813.12019)
(0.00089587945 -0.00082648366 813.1203)
(0.0018139519 -0.00074866366 813.12054)
(0.0027327898 -0.0006620997 813.12092)
(0.003667976 -0.00057155955 813.12143)
(0.0013806518 -0.00050225697 813.12209)
(-0.0014700158 -0.00020669758 813.12112)
(-0.0033797935 -0.0001649709 813.12059)
(-0.0018603428 -0.00010143339 813.12033)
(-0.00089845802 -3.0711572e-05 813.12019)
(4.1003851e-05 4.100385e-05 813.12018)
(0.0009696785 0.00011285547 813.1203)
(0.0018905286 0.00018566554 813.12055)
(0.0028084385 0.00025842129 813.12094)
(0.0037295365 0.00032424955 813.12146)
(0.0013972247 0.00036710056 813.12213)
(-0.0014562469 0.0006983468 813.1212)
(-0.0033272108 0.0007482647 813.12068)
(-0.0017926087 0.00081988414 813.12043)
(-0.00082648366 0.00089587944 813.1203)
(0.00011285547 0.0009696785 813.1203)
(0.0010405411 0.0010405411 813.12043)
(0.0019595177 0.0011092924 813.12069)
(0.0028713738 0.0011750406 813.12109)
(0.0037766553 0.0012321411 813.12162)
(0.0014092192 0.0012681587 813.12229)
(-0.0014367372 0.0015436988 813.12141)
(-0.0032582562 0.0016290033 813.1209)
(-0.0017127281 0.0017261447 813.12066)
(-0.00074866366 0.0018139519 813.12054)
(0.00018566554 0.0018905286 813.12055)
(0.0011092924 0.0019595177 813.12069)
(0.002025028 0.002025028 813.12096)
(0.0029312872 0.0020893307 813.12137)
(0.0038226546 0.0021500644 813.12191)
(0.0014212364 0.0021945434 813.12259)
(-0.0013993773 0.0022948004 813.12174)
(-0.0031447649 0.00248733 813.12124)
(-0.0016076601 0.0026313344 813.12102)
(-0.00066209972 0.0027327898 813.12092)
(0.00025842128 0.0028084385 813.12094)
(0.0011750406 0.0028713738 813.12109)
(0.0020893307 0.0029312872 813.12137)
(0.0029964101 0.0029964101 813.12178)
(0.003881868 0.0030733702 813.12233)
(0.0014388719 0.0031554349 813.12302)
(-0.0013083841 0.0028459492 813.12218)
(-0.0029217222 0.0033846858 813.12172)
(-0.0014672682 0.0035696937 813.12152)
(-0.00057155955 0.003667976 813.12143)
(0.00032424955 0.0037295365 813.12146)
(0.0012321411 0.0037766553 813.12162)
(0.0021500644 0.0038226546 813.12191)
(0.0030733702 0.003881868 813.12233)
(0.0039816794 0.0039816794 813.1229)
(0.0014759462 0.0041899433 813.12361)
(-0.0010402195 0.0010172217 813.12268)
(-0.0024210204 0.0012853863 813.12234)
(-0.00132437 0.001351023 813.12216)
(-0.00050225698 0.0013806518 813.12209)
(0.00036710056 0.0013972247 813.12213)
(0.0012681587 0.0014092192 813.12229)
(0.0021945434 0.0014212364 813.12259)
(0.0031554349 0.0014388719 813.12302)
(0.0041899433 0.0014759462 813.12361)
(0.0015777145 0.0015777145 813.12437)
(-0.0019900978 -0.0019900978 808.23512)
(-0.0045093815 -0.0017360543 808.23452)
(-0.0024330323 -0.0016792847 808.23423)
(-0.0012622878 -0.0016551751 808.23408)
(-0.00017972567 -0.0016393385 808.23405)
(0.00084763491 -0.0016237331 808.23414)
(0.0018111163 -0.0016015474 808.23435)
(0.0026711325 -0.0015589956 808.23467)
(0.0033067451 -0.0014552679 808.23509)
(0.0011819057 -0.0011493871 808.23557)
(-0.0017360543 -0.0045093815 808.23452)
(-0.0040431619 -0.0040431619 808.234)
(-0.0023117135 -0.0038975303 808.23373)
(-0.0012023685 -0.0038180859 808.23359)
(-0.00013256273 -0.0037586542 808.23357)
(0.00090432155 -0.0036990584 808.23366)
(0.0019082225 -0.0036206805 808.23388)
(0.0028905519 -0.0034915004 808.23421)
(0.0039211578 -0.0032374633 808.23467)
(0.0014877864 -0.0026669787 808.23526)
(-0.0016792847 -0.0024330323 808.23423)
(-0.0038975303 -0.0023117135 808.23373)
(-0.0022079562 -0.0022079562 808.23348)
(-0.0011234117 -0.0021232973 808.23334)
(-6.0698155e-05 -0.0020481313 808.23333)
(0.00098560864 -0.0019713349 808.23343)
(0.0020186742 -0.0018805664 808.23366)
(0.0030543497 -0.0017610641 808.23401)
(0.0041312667 -0.0016014083 808.23449)
(0.0015622288 -0.0014393151 808.2351)
(-0.0016551751 -0.0012622878 808.23408)