/*--------------------------------*- C++ -*----------------------------------*\
| =========                 |                                                 |
| \\      /  F ield         | OpenFOAM: The Open Source CFD Toolbox           |
|  \\    /   O peration     | Version:  v2106                                 |
|   \\  /    A nd           | Website:  www.openfoam.com                      |
|    \\/     M anipulation  |                                                 |
\*---------------------------------------------------------------------------*/
FoamFile
{
    version     2.0;
    format      ascii;
    arch        "LSB;label=32;scalar=64";
    class       volScalarField;
    location    "80";
    object      gradTz;
}
// * * * * * * * * * * * * * * * * * * * * * * * * * * * * * * * * * * * * * //

dimensions      [0 -1 0 1 0 0 0];

internalField   nonuniform List<scalar> 
4000
(
567.82234
567.82151
567.8211
567.82086
567.82075
567.82075
567.82085
567.82103
567.82127
567.82149
567.82151
567.82077
567.82039
567.82016
567.82005
567.82006
567.82016
567.82036
567.82062
567.82093
567.8211
567.82039
567.82003
567.8198
567.81971
567.81972
567.81983
567.82004
567.82033
567.82065
567.82086
567.82016
567.8198
567.81959
567.8195
567.81952
567.81965
567.81987
567.82016
567.8205
567.82075
567.82005
567.81971
567.8195
567.81942
567.81945
567.81958
567.81981
567.82012
567.82046
567.82075
567.82006
567.81972
567.81952
567.81945
567.81949
567.81963
567.81986
567.82018
567.82052
567.82085
567.82016
567.81983
567.81965
567.81958
567.81963
567.81978
567.82002
567.82034
567.82069
567.82103
567.82036
567.82004
567.81987
567.81981
567.81986
567.82002
567.82027
567.82059
567.82095
567.82127
567.82062
567.82033
567.82016
567.82012
567.82018
567.82034
567.82059
567.82092
567.82128
567.82149
567.82093
567.82065
567.8205
567.82046
567.82052
567.82069
567.82095
567.82128
567.82165
839.10986
839.10883
839.10829
839.10796
839.10781
839.10782
839.10797
839.10826
839.10864
839.10907
839.10883
839.10793
839.10742
839.1071
839.10696
839.10698
839.10714
839.10745
839.10788
839.10844
839.10829
839.10742
839.10694
839.10663
839.1065
839.10653
839.10671
839.10703
839.10749
839.10808
839.10796
839.1071
839.10663
839.10634
839.10622
839.10626
839.10645
839.10679
839.10727
839.10788
839.10781
839.10696
839.1065
839.10622
839.10611
839.10616
839.10637
839.10672
839.10721
839.10783
839.10782
839.10698
839.10653
839.10626
839.10616
839.10623
839.10644
839.10681
839.10731
839.10793
839.10797
839.10714
839.10671
839.10645
839.10637
839.10644
839.10667
839.10705
839.10755
839.10818
839.10826
839.10745
839.10703
839.10679
839.10672
839.10681
839.10705
839.10743
839.10795
839.10858
839.10864
839.10788
839.10749
839.10727
839.10721
839.10731
839.10755
839.10795
839.10848
839.10913
839.10907
839.10844
839.10808
839.10788
839.10783
839.10793
839.10818
839.10858
839.10913
839.10982
833.69331
833.69245
833.69198
833.69169
833.69156
833.69158
833.69176
833.69206
833.69249
833.69301
833.69245
833.69169
833.69125
833.69097
833.69085
833.69088
833.69106
833.69139
833.69186
833.69251
833.69198
833.69125
833.69082
833.69056
833.69044
833.69049
833.69068
833.69103
833.69153
833.69221
833.69169
833.69097
833.69056
833.6903
833.6902
833.69026
833.69046
833.69082
833.69134
833.69204
833.69156
833.69085
833.69044
833.6902
833.69011
833.69018
833.6904
833.69077
833.6913
833.69201
833.69158
833.69088
833.69049
833.69026
833.69018
833.69026
833.69049
833.69088
833.69141
833.69213
833.69176
833.69106
833.69068
833.69046
833.6904
833.69049
833.69074
833.69113
833.69168
833.6924
833.69206
833.69139
833.69103
833.69082
833.69077
833.69088
833.69113
833.69153
833.69209
833.69282
833.69249
833.69186
833.69153
833.69134
833.6913
833.69141
833.69168
833.69209
833.69267
833.69341
833.69301
833.69251
833.69221
833.69204
833.69201
833.69213
833.6924
833.69282
833.69341
833.69422
828.39008
828.3893
828.38888
828.38862
828.38852
828.38857
828.38875
828.38908
828.38952
828.39006
828.3893
828.38861
828.38822
828.38797
828.38787
828.38793
828.38812
828.38846
828.38895
828.38962
828.38888
828.38822
828.38784
828.38761
828.38752
828.38758
828.38779
828.38815
828.38867
828.38937
828.38862
828.38797
828.38761
828.38738
828.38731
828.38738
828.3876
828.38798
828.38851
828.38923
828.38852
828.38787
828.38752
828.38731
828.38724
828.38733
828.38756
828.38795
828.3885
828.38922
828.38857
828.38793
828.38758
828.38738
828.38733
828.38743
828.38767
828.38807
828.38863
828.38936
828.38875
828.38812
828.38779
828.3876
828.38756
828.38767
828.38793
828.38834
828.3889
828.38964
828.38908
828.38846
828.38815
828.38798
828.38795
828.38807
828.38834
828.38876
828.38933
828.39008
828.38952
828.38895
828.38867
828.38851
828.3885
828.38863
828.3889
828.38933
828.38993
828.39069
828.39006
828.38962
828.38937
828.38923
828.38922
828.38936
828.38964
828.39008
828.39069
828.39151
823.19627
823.19554
823.19516
823.19494
823.19486
823.19492
823.19512
823.19545
823.1959
823.19644
823.19554
823.1949
823.19454
823.19433
823.19425
823.19432
823.19453
823.19488
823.19537
823.19604
823.19516
823.19454
823.1942
823.194
823.19393
823.19401
823.19423
823.1946
823.19512
823.19581
823.19494
823.19433
823.194
823.19381
823.19375
823.19384
823.19407
823.19446
823.19499
823.1957
823.19486
823.19425
823.19393
823.19375
823.19371
823.19381
823.19406
823.19445
823.195
823.19571
823.19492
823.19432
823.19401
823.19384
823.19381
823.19392
823.19418
823.19458
823.19514
823.19586
823.19512
823.19453
823.19423
823.19407
823.19406
823.19418
823.19444
823.19486
823.19543
823.19615
823.19545
823.19488
823.1946
823.19446
823.19445
823.19458
823.19486
823.19528
823.19586
823.1966
823.1959
823.19537
823.19512
823.19499
823.195
823.19514
823.19543
823.19586
823.19646
823.19721
823.19644
823.19604
823.19581
823.1957
823.19571
823.19586
823.19615
823.1966
823.19721
823.19803
818.10819
818.1075
818.10716
818.10696
818.1069
818.10698
818.10719
818.10752
818.10797
818.10849
818.1075
818.1069
818.10658
818.10639
818.10634
818.10642
818.10664
818.10699
818.10747
818.10812
818.10716
818.10658
818.10627
818.10609
818.10605
818.10614
818.10637
818.10673
818.10725
818.10792
818.10696
818.10639
818.10609
818.10593
818.10589
818.10599
818.10623
818.10661
818.10714
818.10783
818.1069
818.10634
818.10605
818.10589
818.10587
818.10598
818.10623
818.10662
818.10716
818.10786
818.10698
818.10642
818.10614
818.10599
818.10598
818.1061
818.10636
818.10677
818.10732
818.10802
818.10719
818.10664
818.10637
818.10623
818.10623
818.10636
818.10663
818.10705
818.10761
818.10831
818.10752
818.10699
818.10673
818.10661
818.10662
818.10677
818.10705
818.10747
818.10804
818.10875
818.10797
818.10747
818.10725
818.10714
818.10716
818.10732
818.10761
818.10804
818.10862
818.10936
818.10849
818.10812
818.10792
818.10783
818.10786
818.10802
818.10831
818.10875
818.10936
818.11015
813.12229
813.12165
813.12133
813.12116
813.12112
813.1212
813.12141
813.12174
813.12218
813.12268
813.12165
813.12109
813.12079
813.12063
813.12059
813.12068
813.1209
813.12124
813.12172
813.12234
813.12133
813.12079
813.12051
813.12036
813.12033
813.12043
813.12066
813.12102
813.12152
813.12216
813.12116
813.12063
813.12036
813.12021
813.12019
813.1203
813.12054
813.12092
813.12143
813.12209
813.12112
813.12059
813.12033
813.12019
813.12018
813.1203
813.12055
813.12094
813.12146
813.12213
813.1212
813.12068
813.12043
813.1203
813.1203
813.12043
813.12069
813.12109
813.12162
813.12229
813.12141
813.1209
813.12066
813.12054
813.12055
813.12069
813.12096
813.12137
813.12191
813.12259
813.12174
813.12124
813.12102
813.12092
813.12094
813.12109
813.12137
813.12178
813.12233
813.12302
813.12218
813.12172
813.12152
813.12143
813.12146
813.12162
813.12191
813.12233
813.1229
813.12361
813.12268
813.12234
813.12216
813.12209
813.12213
813.12229
813.12259
813.12302
813.12361
813.12437
808.23512
808.23452
808.23423
808.23408
808.23405
808.23414
808.23435
808.23467
808.23509
808.23557
808.23452
808.234
808.23373
808.23359
808.23357
808.23366
808.23388
808.23421
808.23467
808.23526
808.23423
808.23373
808.23348
808.23334
808.23333
808.23343
808.23366
808.23401
808.23449
808.2351
808.23408
808.23359
808.23334
808.23322
808.23321
808.23333
808.23356
808.23392
808.23442
808.23505
808.23405
808.23357
808.23333
808.23321
808.23321
808.23334
808.23358
808.23396
808.23446
808.23509
808.23414
808.23366
808.23343
808.23333
808.23334
808.23347
808.23373
808.23411
808.23462
808.23526
808.23435
808.23388
808.23366
808.23356
808.23358
808.23373
808.23399
808.23438
808.2349
808.23555
808.23467
808.23421
808.23401
808.23392
808.23396
808.23411
808.23438
808.23478
808.23531
808.23597
808.23509
808.23467
808.23449
808.23442
808.23446
808.23462
808.2349
808.23531
808.23585
808.23653
808.23557
808.23526
808.2351
808.23505
808.23509
808.23526
808.23555
808.23597
808.23653
808.23725
803.44332
803.44277
803.44251
803.44238
803.44236
803.44246
803.44266
803.44297
803.44337
803.44382
803.44277
803.44229
803.44205
803.44193
803.44192
803.44202
803.44223
803.44255
803.44298
803.44354
803.44251
803.44205
803.44183
803.44171
803.44171
803.44181
803.44203
803.44237
803.44282
803.4434
803.44238
803.44193
803.44171
803.4416
803.44161
803.44172
803.44195
803.4423
803.44276
803.44336
803.44236
803.44192
803.44171
803.44161
803.44162
803.44174
803.44198
803.44234
803.44281
803.44341
803.44246
803.44202
803.44181
803.44172
803.44174
803.44188
803.44212
803.44249
803.44297
803.44357
803.44266
803.44223
803.44203
803.44195
803.44198
803.44212
803.44238
803.44275
803.44324
803.44385
803.44297
803.44255
803.44237
803.4423
803.44234
803.44249
803.44275
803.44314
803.44364
803.44425
803.44337
803.44298
803.44282
803.44276
803.44281
803.44297
803.44324
803.44364
803.44415
803.44478
803.44382
803.44354
803.4434
803.44336
803.44341
803.44357
803.44385
803.44425
803.44478
803.44546
798.74364
798.74315
798.74292
798.74281
798.7428
798.74289
798.74309
798.74338
798.74375
798.74418
798.74315
798.74272
798.7425
798.7424
798.74239
798.74249
798.7427
798.743
798.7434
798.74392
798.74292
798.7425
798.7423
798.7422
798.74221
798.74231
798.74252
798.74284
798.74326
798.7438
798.74281
798.7424
798.7422
798.74211
798.74212
798.74224
798.74246
798.74278
798.74322
798.74377
798.7428
798.74239
798.74221
798.74212
798.74214
798.74227
798.74249
798.74283
798.74327
798.74383
798.74289
798.74249
798.74231
798.74224
798.74227
798.7424
798.74263
798.74298
798.74343
798.74399
798.74309
798.7427
798.74252
798.74246
798.74249
798.74263
798.74288
798.74323
798.74369
798.74425
798.74338
798.743
798.74284
798.74278
798.74283
798.74298
798.74323
798.74359
798.74406
798.74463
798.74375
798.7434
798.74326
798.74322
798.74327
798.74343
798.74369
798.74406
798.74454
798.74513
798.74418
798.74392
798.7438
798.74377
798.74383
798.74399
798.74425
798.74463
798.74513
798.74576
794.13293
794.13248
794.13228
794.13219
794.13219
794.13229
794.13247
794.13274
794.13309
794.13348
794.13248
794.1321
794.13191
794.13183
794.13183
794.13193
794.13212
794.1324
794.13278
794.13325
794.13228
794.13191
794.13174
794.13166
794.13167
794.13177
794.13197
794.13227
794.13266
794.13316
794.13219
794.13183
794.13166
794.13158
794.1316
794.13171
794.13192
794.13222
794.13263
794.13313
794.13219
794.13183
794.13167
794.1316
794.13163
794.13175
794.13196
794.13227
794.13268
794.1332
794.13229
794.13193
794.13177
794.13171
794.13175
794.13187
794.1321
794.13242
794.13283
794.13335
794.13247
794.13212
794.13197
794.13192
794.13196
794.1321
794.13233
794.13265
794.13308
794.1336
794.13274
794.1324
794.13227
794.13222
794.13227
794.13242
794.13265
794.13299
794.13342
794.13395
794.13309
794.13278
794.13266
794.13263
794.13268
794.13283
794.13308
794.13342
794.13386
794.1344
794.13348
794.13325
794.13316
794.13313
794.1332
794.13335
794.1336
794.13395
794.1344
794.13499
789.6081
789.60771
789.60754
789.60746
789.60747
789.60756
789.60774
789.60799
789.6083
789.60866
789.60771
789.60737
789.60721
789.60714
789.60716
789.60725
789.60743
789.60769
789.60803
789.60846
789.60754
789.60721
789.60706
789.607
789.60702
789.60712
789.6073
789.60757
789.60793
789.60838
789.60746
789.60714
789.607
789.60694
789.60696
789.60707
789.60727
789.60754
789.60791
789.60837
789.60747
789.60716
789.60702
789.60696
789.60699
789.60711
789.60731
789.6076
789.60797
789.60843
789.60756
789.60725
789.60712
789.60707
789.60711
789.60723
789.60744
789.60773
789.60811
789.60858
789.60774
789.60743
789.6073
789.60727
789.60731
789.60744
789.60765
789.60795
789.60834
789.60881
789.60799
789.60769
789.60757
789.60754
789.6076
789.60773
789.60795
789.60826
789.60865
789.60913
789.6083
789.60803
789.60793
789.60791
789.60797
789.60811
789.60834
789.60865
789.60905
789.60954
789.60866
789.60846
789.60838
789.60837
789.60843
789.60858
789.60881
789.60913
789.60954
789.61007
785.16617
785.16583
785.16569
785.16563
785.16565
785.16574
785.1659
785.16612
785.16641
785.16672
785.16583
785.16555
785.16541
785.16536
785.16538
785.16547
785.16564
785.16587
785.16618
785.16656
785.16569
785.16541
785.16529
785.16524
785.16527
785.16536
785.16553
785.16578
785.1661
785.1665
785.16563
785.16536
785.16524
785.1652
785.16523
785.16533
785.16551
785.16576
785.16609
785.1665
785.16565
785.16538
785.16527
785.16523
785.16526
785.16537
785.16555
785.16581
785.16615
785.16656
785.16574
785.16547
785.16536
785.16533
785.16537
785.16548
785.16567
785.16594
785.16628
785.16669
785.1659
785.16564
785.16553
785.16551
785.16555
785.16567
785.16587
785.16614
785.16648
785.1669
785.16612
785.16587
785.16578
785.16576
785.16581
785.16594
785.16614
785.16642
785.16677
785.16719
785.16641
785.16618
785.1661
785.16609
785.16615
785.16628
785.16648
785.16677
785.16713
785.16756
785.16672
785.16656
785.1665
785.1665
785.16656
785.16669
785.1669
785.16719
785.16756
785.16804
780.80423
780.80396
780.80385
780.8038
780.80383
780.80391
780.80405
780.80425
780.8045
780.80478
780.80396
780.80372
780.80362
780.80358
780.8036
780.80369
780.80384
780.80405
780.80432
780.80465
780.80385
780.80362
780.80352
780.80348
780.80351
780.8036
780.80376
780.80398
780.80426
780.80461
780.8038
780.80358
780.80348
780.80346
780.80349
780.80358
780.80374
780.80397
780.80426
780.80461
780.80383
780.8036
780.80351
780.80349
780.80353
780.80363
780.80379
780.80402
780.80432
780.80468
780.80391
780.80369
780.8036
780.80358
780.80363
780.80373
780.8039
780.80414
780.80444
780.8048
780.80405
780.80384
780.80376
780.80374
780.80379
780.8039
780.80408
780.80432
780.80462
780.80499
780.80425
780.80405
780.80398
780.80397
780.80402
780.80414
780.80432
780.80456
780.80487
780.80524
780.8045
780.80432
780.80426
780.80426
780.80432
780.80444
780.80462
780.80487
780.80519
780.80557
780.80478
780.80465
780.80461
780.80461
780.80468
780.8048
780.80499
780.80524
780.80557
780.80598
776.51948
776.51927
776.51918
776.51916
776.51918
776.51926
776.51939
776.51957
776.51978
776.52002
776.51927
776.51908
776.519
776.51898
776.51901
776.51909
776.51922
776.5194
776.51963
776.51992
776.51918
776.519
776.51893
776.51891
776.51895
776.51903
776.51917
776.51935
776.51959
776.51989
776.51916
776.51898
776.51891
776.5189
776.51893
776.51902
776.51916
776.51936
776.5196
776.51991
776.51918
776.51901
776.51895
776.51893
776.51897
776.51907
776.51921
776.51941
776.51966
776.51997
776.51926
776.51909
776.51903
776.51902
776.51907
776.51916
776.51931
776.51951
776.51977
776.52008
776.51939
776.51922
776.51917
776.51916
776.51921
776.51931
776.51947
776.51967
776.51993
776.52024
776.51957
776.5194
776.51935
776.51936
776.51941
776.51951
776.51967
776.51988
776.52015
776.52046
776.51978
776.51963
776.51959
776.5196
776.51966
776.51977
776.51993
776.52015
776.52042
776.52074
776.52002
776.51992
776.51989
776.51991
776.51997
776.52008
776.52024
776.52046
776.52074
776.52109
772.30919
772.30903
772.30897
772.30896
772.309
772.30907
772.30918
772.30933
772.3095
772.3097
772.30903
772.30889
772.30884
772.30884
772.30887
772.30894
772.30906
772.30921
772.3094
772.30964
772.30897
772.30884
772.3088
772.30879
772.30883
772.30891
772.30902
772.30918
772.30938
772.30962
772.30896
772.30884
772.30879
772.30879
772.30883
772.30891
772.30903
772.30919
772.3094
772.30965
772.309
772.30887
772.30883
772.30883
772.30887
772.30896
772.30908
772.30925
772.30945
772.3097
772.30907
772.30894
772.30891
772.30891
772.30896
772.30904
772.30917
772.30934
772.30955
772.3098
772.30918
772.30906
772.30902
772.30903
772.30908
772.30917
772.3093
772.30947
772.30969
772.30994
772.30933
772.30921
772.30918
772.30919
772.30925
772.30934
772.30947
772.30965
772.30987
772.31012
772.3095
772.3094
772.30938
772.3094
772.30945
772.30955
772.30969
772.30987
772.31009
772.31036
772.3097
772.30964
772.30962
772.30965
772.3097
772.3098
772.30994
772.31012
772.31036
772.31064
768.17069
768.17059
768.17057
768.17057
768.17061
768.17068
768.17077
768.17089
768.17103
768.17118
768.17059
768.17051
768.17049
768.1705
768.17053
768.1706
768.1707
768.17082
768.17097
768.17115
768.17057
768.17049
768.17047
768.17048
768.17052
768.17059
768.17068
768.17081
768.17097
768.17116
768.17057
768.1705
768.17048
768.17049
768.17053
768.1706
768.1707
768.17083
768.17099
768.17119
768.17061
768.17053
768.17052
768.17053
768.17058
768.17065
768.17075
768.17088
768.17105
768.17124
768.17068
768.1706
768.17059
768.1706
768.17065
768.17072
768.17083
768.17096
768.17113
768.17132
768.17077
768.1707
768.17068
768.1707
768.17075
768.17083
768.17094
768.17107
768.17124
768.17144
768.17089
768.17082
768.17081
768.17083
768.17088
768.17096
768.17107
768.17122
768.17139
768.17158
768.17103
768.17097
768.17097
768.17099
768.17105
768.17113
768.17124
768.17139
768.17156
768.17177
768.17118
768.17115
768.17116
768.17119
768.17124
768.17132
768.17144
768.17158
768.17177
768.17199
764.10145
764.1014
764.10141
764.10143
764.10147
764.10153
764.1016
764.10169
764.1018
764.10191
764.1014
764.10137
764.10138
764.1014
764.10144
764.1015
764.10157
764.10167
764.10178
764.10191
764.10141
764.10138
764.10138
764.10141
764.10145
764.10151
764.10159
764.10168
764.10179
764.10193
764.10143
764.1014
764.10141
764.10143
764.10147
764.10154
764.10161
764.10171
764.10183
764.10196
764.10147
764.10144
764.10145
764.10147
764.10152
764.10158
764.10166
764.10176
764.10188
764.10202
764.10153
764.1015
764.10151
764.10154
764.10158
764.10165
764.10173
764.10183
764.10195
764.10208
764.1016
764.10157
764.10159
764.10161
764.10166
764.10173
764.10181
764.10191
764.10203
764.10217
764.10169
764.10167
764.10168
764.10171
764.10176
764.10183
764.10191
764.10202
764.10214
764.10228
764.1018
764.10178
764.10179
764.10183
764.10188
764.10195
764.10203
764.10214
764.10227
764.10241
764.10191
764.10191
764.10193
764.10196
764.10202
764.10208
764.10217
764.10228
764.10241
764.10257
760.09896
760.09898
760.09901
760.09905
760.09909
760.09914
760.0992
760.09926
760.09932
760.09939
760.09898
760.099
760.09903
760.09907
760.09911
760.09916
760.09922
760.09928
760.09935
760.09942
760.09901
760.09903
760.09906
760.0991
760.09914
760.09919
760.09925
760.09931
760.09938
760.09946
760.09905
760.09907
760.0991
760.09913
760.09918
760.09923
760.09929
760.09935
760.09942
760.0995
760.09909
760.09911
760.09914
760.09918
760.09922
760.09927
760.09933
760.0994
760.09947
760.09955
760.09914
760.09916
760.09919
760.09923
760.09927
760.09933
760.09939
760.09945
760.09952
760.0996
760.0992
760.09922
760.09925
760.09929
760.09933
760.09939
760.09945
760.09951
760.09959
760.09967
760.09926
760.09928
760.09931
760.09935
760.0994
760.09945
760.09951
760.09958
760.09965
760.09974
760.09932
760.09935
760.09938
760.09942
760.09947
760.09952
760.09959
760.09965
760.09973
760.09982
760.09939
760.09942
760.09946
760.0995
760.09955
760.0996
760.09967
760.09974
760.09982
760.09991
756.16085
756.16092
756.16098
756.16103
756.16108
756.16112
756.16116
756.16119
756.16122
756.16124
756.16092
756.16099
756.16105
756.1611
756.16114
756.16118
756.16122
756.16125
756.16128
756.1613
756.16098
756.16105
756.1611
756.16115
756.1612
756.16124
756.16127
756.16131
756.16133
756.16136
756.16103
756.1611
756.16115
756.1612
756.16125
756.16129
756.16132
756.16135
756.16138
756.1614
756.16108
756.16114
756.1612
756.16125
756.16129
756.16133
756.16137
756.1614
756.16142
756.16145
756.16112
756.16118
756.16124
756.16129
756.16133
756.16137
756.16141
756.16144
756.16146
756.16149
756.16116
756.16122
756.16127
756.16132
756.16137
756.16141
756.16144
756.16147
756.1615
756.16152
756.16119
756.16125
756.16131
756.16135
756.1614
756.16144
756.16147
756.1615
756.16153
756.16155
756.16122
756.16128
756.16133
756.16138
756.16142
756.16146
756.1615
756.16153
756.16156
756.16158
756.16124
756.1613
756.16136
756.1614
756.16145
756.16149
756.16152
756.16155
756.16158
756.16161
752.28479
752.28492
752.285
752.28507
752.28512
752.28515
752.28517
752.28517
752.28516
752.28515
752.28492
752.28504
752.28512
752.28518
752.28523
752.28526
752.28528
752.28528
752.28527
752.28524
752.285
752.28512
752.2852
752.28526
752.28531
752.28534
752.28535
752.28535
752.28534
752.2853
752.28507
752.28518
752.28526
752.28532
752.28537
752.2854
752.28541
752.28541
752.28539
752.28536
752.28512
752.28523
752.28531
752.28537
752.28541
752.28544
752.28545
752.28545
752.28543
752.28539
752.28515
752.28526
752.28534
752.2854
752.28544
752.28547
752.28548
752.28547
752.28545
752.28542
752.28517
752.28528
752.28535
752.28541
752.28545
752.28548
752.28549
752.28548
752.28546
752.28543
752.28517
752.28528
752.28535
752.28541
752.28545
752.28547
752.28548
752.28548
752.28546
752.28542
752.28516
752.28527
752.28534
752.28539
752.28543
752.28545
752.28546
752.28546
752.28544
752.2854
752.28515
752.28524
752.2853
752.28536
752.28539
752.28542
752.28543
752.28542
752.2854
752.28536
748.46856
748.46874
748.46885
748.46893
748.46898
748.46901
748.469
748.46898
748.46893
748.46887
748.46874
748.46891
748.46901
748.46909
748.46914
748.46916
748.46916
748.46913
748.46908
748.469
748.46885
748.46901
748.46912
748.46919
748.46924
748.46926
748.46925
748.46922
748.46916
748.46908
748.46893
748.46909
748.46919
748.46926
748.46931
748.46933
748.46932
748.46928
748.46922
748.46913
748.46898
748.46914
748.46924
748.46931
748.46935
748.46937
748.46936
748.46932
748.46926
748.46917
748.46901
748.46916
748.46926
748.46933
748.46937
748.46938
748.46937
748.46933
748.46927
748.46917
748.469
748.46916
748.46925
748.46932
748.46936
748.46937
748.46936
748.46932
748.46925
748.46916
748.46898
748.46913
748.46922
748.46928
748.46932
748.46933
748.46932
748.46927
748.46921
748.46911
748.46893
748.46908
748.46916
748.46922
748.46926
748.46927
748.46925
748.46921
748.46914
748.46904
748.46887
748.469
748.46908
748.46913
748.46917
748.46917
748.46916
748.46911
748.46904
748.46894
744.71001
744.71025
744.71038
744.71047
744.71053
744.71054
744.71052
744.71047
744.71038
744.71028
744.71025
744.71046
744.71059
744.71068
744.71073
744.71074
744.71072
744.71066
744.71056
744.71043
744.71038
744.71059
744.71071
744.7108
744.71084
744.71085
744.71083
744.71076
744.71066
744.71052
744.71047
744.71068
744.7108
744.71088
744.71092
744.71093
744.7109
744.71083
744.71073
744.71059
744.71053
744.71073
744.71084
744.71092
744.71097
744.71097
744.71094
744.71087
744.71076
744.71061
744.71054
744.71074
744.71085
744.71093
744.71097
744.71097
744.71094
744.71086
744.71075
744.71061
744.71052
744.71072
744.71083
744.7109
744.71094
744.71094
744.7109
744.71082
744.71071
744.71056
744.71047
744.71066
744.71076
744.71083
744.71087
744.71086
744.71082
744.71075
744.71063
744.71048
744.71038
744.71056
744.71066
744.71073
744.71076
744.71075
744.71071
744.71063
744.71052
744.71036
744.71028
744.71043
744.71052
744.71059
744.71061
744.71061
744.71056
744.71048
744.71036
744.7102
741.00708
741.00737
741.00753
741.00763
741.00768
741.00769
741.00765
741.00757
741.00745
741.00731
741.00737
741.00762
741.00777
741.00787
741.00793
741.00793
741.00789
741.0078
741.00767
741.00748
741.00753
741.00777
741.00792
741.00802
741.00806
741.00806
741.00802
741.00792
741.00778
741.00759
741.00763
741.00787
741.00802
741.00811
741.00815
741.00815
741.0081
741.008
741.00785
741.00765
741.00768
741.00793
741.00806
741.00815
741.00819
741.00818
741.00813
741.00803
741.00788
741.00768
741.00769
741.00793
741.00806
741.00815
741.00818
741.00817
741.00811
741.00801
741.00786
741.00766
741.00765
741.00789
741.00802
741.0081
741.00813
741.00811
741.00805
741.00794
741.00779
741.00759
741.00757
741.0078
741.00792
741.008
741.00803
741.00801
741.00794
741.00783
741.00767
741.00747
741.00745
741.00767
741.00778
741.00785
741.00788
741.00786
741.00779
741.00767
741.00751
741.0073
741.00731
741.00748
741.00759
741.00765
741.00768
741.00766
741.00759
741.00747
741.0073
741.00708
737.35779
737.35813
737.35831
737.35842
737.35848
737.35847
737.35841
737.3583
737.35815
737.35797
737.35813
737.35843
737.3586
737.35871
737.35876
737.35875
737.35869
737.35857
737.3584
737.35817
737.35831
737.3586
737.35876
737.35887
737.35891
737.3589
737.35884
737.35871
737.35853
737.35829
737.35842
737.35871
737.35887
737.35897
737.35901
737.35899
737.35892
737.35879
737.35861
737.35836
737.35848
737.35876
737.35891
737.35901
737.35905
737.35903
737.35895
737.35882
737.35863
737.35838
737.35847
737.35875
737.3589
737.35899
737.35903
737.359
737.35892
737.35879
737.35859
737.35834
737.35841
737.35869
737.35884
737.35892
737.35895
737.35892
737.35884
737.3587
737.3585
737.35824
737.3583
737.35857
737.35871
737.35879
737.35882
737.35879
737.3587
737.35855
737.35835
737.35809
737.35815
737.3584
737.35853
737.35861
737.35863
737.35859
737.3585
737.35835
737.35814
737.35788
737.35797
737.35817
737.35829
737.35836
737.35838
737.35834
737.35824
737.35809
737.35788
737.35759
733.76024
733.76063
733.76083
733.76095
733.76101
733.76099
733.76092
733.76078
733.76059
733.76038
733.76063
733.76097
733.76116
733.76128
733.76133
733.76131
733.76123
733.76108
733.76088
733.7606
733.76083
733.76116
733.76134
733.76145
733.7615
733.76148
733.76139
733.76124
733.76102
733.76073
733.76095
733.76128
733.76145
733.76156
733.7616
733.76157
733.76148
733.76132
733.7611
733.7608
733.76101
733.76133
733.7615
733.7616
733.76164
733.7616
733.76151
733.76134
733.76111
733.76081
733.76099
733.76131
733.76148
733.76157
733.7616
733.76157
733.76147
733.7613
733.76106
733.76076
733.76092
733.76123
733.76139
733.76148
733.76151
733.76147
733.76136
733.76118
733.76094
733.76064
733.76078
733.76108
733.76124
733.76132
733.76134
733.7613
733.76118
733.76101
733.76076
733.76045
733.76059
733.76088
733.76102
733.7611
733.76111
733.76106
733.76094
733.76076
733.76051
733.76019
733.76038
733.7606
733.76073
733.7608
733.76081
733.76076
733.76064
733.76045
733.76019
733.75986
730.21263
730.21306
730.21328
730.21341
730.21346
730.21344
730.21334
730.21318
730.21296
730.21271
730.21306
730.21343
730.21364
730.21377
730.21381
730.21379
730.21369
730.21352
730.21328
730.21296
730.21328
730.21364
730.21384
730.21396
730.214
730.21397
730.21386
730.21368
730.21343
730.21309
730.21341
730.21377
730.21396
730.21407
730.21411
730.21407
730.21396
730.21377
730.21351
730.21317
730.21346
730.21381
730.214
730.21411
730.21414
730.2141
730.21398
730.21379
730.21352
730.21317
730.21344
730.21379
730.21397
730.21407
730.2141
730.21405
730.21393
730.21373
730.21345
730.2131
730.21334
730.21369
730.21386
730.21396
730.21398
730.21393
730.2138
730.21359
730.21331
730.21296
730.21318
730.21352
730.21368
730.21377
730.21379
730.21373
730.21359
730.21338
730.2131
730.21274
730.21296
730.21328
730.21343
730.21351
730.21352
730.21345
730.21331
730.2131
730.21281
730.21244
730.21271
730.21296
730.21309
730.21317
730.21317
730.2131
730.21296
730.21274
730.21244
730.21205
726.71321
726.71368
726.71392
726.71406
726.71411
726.71407
726.71396
726.71378
726.71353
726.71324
726.71368
726.71409
726.71431
726.71445
726.71449
726.71446
726.71434
726.71414
726.71387
726.71351
726.71392
726.71431
726.71453
726.71465
726.71469
726.71465
726.71453
726.71432
726.71403
726.71365
726.71406
726.71445
726.71465
726.71477
726.71481
726.71476
726.71463
726.71441
726.71411
726.71373
726.71411
726.71449
726.71469
726.71481
726.71484
726.71478
726.71464
726.71442
726.71411
726.71372
726.71407
726.71446
726.71465
726.71476
726.71478
726.71472
726.71457
726.71435
726.71403
726.71364
726.71396
726.71434
726.71453
726.71463
726.71464
726.71457
726.71442
726.71419
726.71387
726.71347
726.71378
726.71414
726.71432
726.71441
726.71442
726.71435
726.71419
726.71395
726.71363
726.71322
726.71353
726.71387
726.71403
726.71411
726.71411
726.71403
726.71387
726.71363
726.71329
726.71288
726.71324
726.71351
726.71365
726.71373
726.71372
726.71364
726.71347
726.71322
726.71288
726.71244
723.26034
723.26085
723.2611
723.26124
723.26129
723.26125
723.26112
723.26091
723.26063
723.26031
723.26085
723.26129
723.26152
723.26166
723.26171
723.26166
723.26153
723.26131
723.261
723.2606
723.2611
723.26152
723.26175
723.26188
723.26192
723.26187
723.26173
723.26149
723.26117
723.26075
723.26124
723.26166
723.26188
723.26201
723.26204
723.26198
723.26183
723.26159
723.26125
723.26083
723.26129
723.26171
723.26192
723.26204
723.26206
723.262
723.26184
723.26159
723.26125
723.26082
723.26125
723.26166
723.26187
723.26198
723.262
723.26192
723.26176
723.2615
723.26116
723.26072
723.26112
723.26153
723.26173
723.26183
723.26184
723.26176
723.26159
723.26132
723.26097
723.26053
723.26091
723.26131
723.26149
723.26159
723.26159
723.2615
723.26132
723.26105
723.26069
723.26025
723.26063
723.261
723.26117
723.26125
723.26125
723.26116
723.26097
723.26069
723.26033
723.25987
723.26031
723.2606
723.26075
723.26083
723.26082
723.26072
723.26053
723.26025
723.25987
723.25938
719.85245
719.85299
719.85326
719.85341
719.85345
719.8534
719.85325
719.85302
719.85272
719.85237
719.85299
719.85346
719.85371
719.85385
719.85389
719.85384
719.85368
719.85344
719.8531
719.85267
719.85326
719.85371
719.85395
719.85408
719.85412
719.85405
719.85389
719.85364
719.85328
719.85282
719.85341
719.85385
719.85408
719.85421
719.85424
719.85417
719.854
719.85373
719.85336
719.8529