/*--------------------------------*- C++ -*----------------------------------*\
| =========                 |                                                 |
| \\      /  F ield         | OpenFOAM: The Open Source CFD Toolbox           |
|  \\    /   O peration     | Version:  v2106                                 |
|   \\  /    A nd           | Website:  www.openfoam.com                      |
|    \\/     M anipulation  |                                                 |
\*---------------------------------------------------------------------------*/
FoamFile
{
    version     2.0;
    format      ascii;
    arch        "LSB;label=32;scalar=64";
    class       volScalarField;
    location    "80";
    object      laplacianT;
}
// * * * * * * * * * * * * * * * * * * * * * * * * * * * * * * * * * * * * * //

dimensions      [0 -2 0 1 0 0 0];

internalField   nonuniform List<scalar> 
4000
(
41103.626
41103.635
41103.598
41103.581
41103.573
41103.573
41103.58
41103.593
41103.609
41103.624
41103.635
41103.638
41103.604
41103.587
41103.58
41103.58
41103.587
41103.601
41103.62
41103.635
41103.598
41103.604
41103.571
41103.555
41103.548
41103.549
41103.557
41103.572
41103.592
41103.608
41103.581
41103.587
41103.555
41103.54
41103.533
41103.535
41103.543
41103.559
41103.58
41103.597
41103.573
41103.58
41103.548
41103.533
41103.527
41103.529
41103.539
41103.555
41103.576
41103.594
41103.573
41103.58
41103.549
41103.535
41103.529
41103.532
41103.542
41103.559
41103.58
41103.598
41103.58
41103.587
41103.557
41103.543
41103.539
41103.542
41103.552
41103.57
41103.592
41103.61
41103.593
41103.601
41103.572
41103.559
41103.555
41103.559
41103.57
41103.587
41103.61
41103.628
41103.609
41103.62
41103.592
41103.58
41103.576
41103.58
41103.592
41103.61
41103.633
41103.652
41103.624
41103.635
41103.608
41103.597
41103.594
41103.598
41103.61
41103.628
41103.652
41103.671
-547.71921
-547.45332
-547.48728
-547.48745
-547.48713
-547.48712
-547.48741
-547.48797
-547.48872
-547.4995
-547.45332
-547.25732
-547.28534
-547.28521
-547.28488
-547.2849
-547.28524
-547.28588
-547.28678
-547.35149
-547.48728
-547.28534
-547.31279
-547.31266
-547.31236
-547.3124
-547.31277
-547.31344
-547.3144
-547.37542
-547.48745
-547.28521
-547.31266
-547.31257
-547.31229
-547.31236
-547.31276
-547.31347
-547.31446
-547.37564
-547.48713
-547.28488
-547.31236
-547.31229
-547.31205
-547.31214
-547.31257
-547.3133
-547.31433
-547.37553
-547.48712
-547.2849
-547.3124
-547.31236
-547.31214
-547.31226
-547.31271
-547.31347
-547.31452
-547.37574
-547.48741
-547.28524
-547.31277
-547.31276
-547.31257
-547.31271
-547.31319
-547.31397
-547.31503
-547.37626
-547.48797
-547.28588
-547.31344
-547.31347
-547.3133
-547.31347
-547.31397
-547.31478
-547.31586
-547.37709
-547.48872
-547.28678
-547.3144
-547.31446
-547.31433
-547.31452
-547.31503
-547.31586
-547.31697
-547.37821
-547.4995
-547.35149
-547.37542
-547.37564
-547.37553
-547.37574
-547.37626
-547.37709
-547.37821
-547.44172
-536.36725
-535.971
-536.02682
-536.02747
-536.0271
-536.02711
-536.02752
-536.02827
-536.02932
-536.09715
-535.971
-535.68298
-535.72868
-535.72879
-535.72841
-535.72847
-535.72895
-535.72983
-535.73108
-535.89925
-536.02682
-535.72868
-535.77333
-535.77344
-535.7731
-535.77318
-535.7737
-535.77462
-535.77595
-535.93552
-536.02747
-535.72879
-535.77344
-535.77359
-535.77328
-535.77339
-535.77395
-535.77492
-535.7763
-535.93605
-536.0271
-535.72841
-535.7731
-535.77328
-535.773
-535.77315
-535.77374
-535.77475
-535.77616
-535.93597
-536.02711
-535.72847
-535.77318
-535.77339
-535.77315
-535.77334
-535.77396
-535.775
-535.77644
-535.93627
-536.02752
-535.72895
-535.7737
-535.77395
-535.77374
-535.77396
-535.77461
-535.77568
-535.77715
-535.93698
-536.02827
-535.72983
-535.77462
-535.77492
-535.77475
-535.775
-535.77568
-535.77678
-535.77828
-535.93809
-536.02932
-535.73108
-535.77595
-535.7763
-535.77616
-535.77644
-535.77715
-535.77828
-535.77981
-535.93962
-536.09715
-535.89925
-535.93552
-535.93605
-535.93597
-535.93627
-535.93698
-535.93809
-535.93962
-536.1237
-525.4
-524.87893
-524.955
-524.95608
-524.95568
-524.95574
-524.95626
-524.95723
-524.95856
-525.07883
-524.87893
-524.50133
-524.56354
-524.56389
-524.56348
-524.56359
-524.56422
-524.56534
-524.56694
-524.83375
-524.955
-524.56354
-524.62432
-524.62465
-524.62428
-524.62442
-524.62509
-524.62627
-524.62796
-524.88118
-524.95608
-524.56389
-524.62465
-524.62502
-524.62469
-524.62488
-524.62559
-524.62682
-524.62858
-524.88199
-524.95568
-524.56348
-524.62428
-524.62469
-524.6244
-524.62463
-524.62538
-524.62667
-524.62847
-524.88194
-524.95574
-524.56359
-524.62442
-524.62488
-524.62463
-524.6249
-524.62569
-524.62701
-524.62885
-524.88234
-524.95626
-524.56422
-524.62509
-524.62559
-524.62538
-524.62569
-524.62653
-524.62789
-524.62975
-524.88324
-524.95723
-524.56534
-524.62627
-524.62682
-524.62667
-524.62701
-524.62789
-524.62928
-524.63118
-524.88464
-524.95856
-524.56694
-524.62796
-524.62858
-524.62847
-524.62885
-524.62975
-524.63118
-524.63313
-524.88656
-525.07883
-524.83375
-524.88118
-524.88199
-524.88194
-524.88234
-524.88324
-524.88464
-524.88656
-525.18448
-514.79792
-514.15598
-514.25158
-514.25309
-514.25267
-514.25277
-514.25343
-514.25459
-514.2562
-514.42744
-514.15598
-513.69174
-513.76989
-513.77047
-513.77004
-513.77022
-513.771
-513.77237
-513.7743
-514.13687
-514.25158
-513.76989
-513.84622
-513.84678
-513.84639
-513.8466
-513.84743
-513.84886
-513.8509
-514.195
-514.25309
-513.77047
-513.84678
-513.84738
-513.84705
-513.84731
-513.84818
-513.84968
-513.85179
-514.19609
-514.25267
-513.77004
-513.84639
-513.84705
-513.84676
-513.84706
-513.84799
-513.84954
-513.85171
-514.19608
-514.25277
-513.77022
-513.8466
-513.84731
-513.84706
-513.84742
-513.8484
-513.84999
-513.8522
-514.19659
-514.25343
-513.771
-513.84743
-513.84818
-513.84799
-513.8484
-513.84942
-513.85106
-513.8533
-514.19768
-514.25459
-513.77237
-513.84886
-513.84968
-513.84954
-513.84999
-513.85106
-513.85273
-513.85502
-514.19935
-514.2562
-513.7743
-513.8509
-513.85179
-513.85171
-513.8522
-513.8533
-513.85502
-513.85736
-514.20165
-514.42744
-514.13687
-514.195
-514.19609
-514.19608
-514.19659
-514.19768
-514.19935
-514.20165
-514.60957
-504.54777
-503.79021
-503.90458
-503.90651
-503.90608
-503.90624
-503.90702
-503.90838
-503.91024
-504.13083
-503.79021
-503.24321
-503.33669
-503.33751
-503.33707
-503.33731
-503.33825
-503.33985
-503.3421
-503.79707
-503.90458
-503.33669
-503.42797
-503.42876
-503.42837
-503.42866
-503.42963
-503.43131
-503.43368
-503.86545
-503.90651
-503.33751
-503.42876
-503.4296
-503.42927
-503.4296
-503.43064
-503.43239
-503.43485
-503.86681
-503.90608
-503.33707
-503.42837
-503.42927
-503.42899
-503.42938
-503.43048
-503.43228
-503.4348
-503.86685
-503.90624
-503.33731
-503.42866
-503.4296
-503.42938
-503.42983
-503.43098
-503.43284
-503.4354
-503.86747
-503.90702
-503.33825
-503.42963
-503.43064
-503.43048
-503.43098
-503.43218
-503.43409
-503.43669
-503.86874
-503.90838
-503.33985
-503.43131
-503.43239
-503.43228
-503.43284
-503.43409
-503.43605
-503.4387
-503.87069
-503.91024
-503.3421
-503.43368
-503.43485
-503.4348
-503.4354
-503.43669
-503.4387
-503.44142
-503.87334
-504.13083
-503.79707
-503.86545
-503.86681
-503.86685
-503.86747
-503.86874
-503.87069
-503.87334
-504.38746
-494.63864
-493.77145
-493.90373
-493.90607
-493.90565
-493.90586
-493.90676
-493.9083
-493.91041
-494.17839
-493.77145
-493.1461
-493.2542
-493.25526
-493.25482
-493.25513
-493.25622
-493.25804
-493.2606
-493.80403
-493.90373
-493.2542
-493.35975
-493.36077
-493.36038
-493.36074
-493.36187
-493.36377
-493.36646
-493.88216
-493.90607
-493.25526
-493.36077
-493.36184
-493.36151
-493.36193
-493.36313
-493.36511
-493.36789
-493.88379
-493.90565
-493.25482
-493.36038
-493.36151
-493.36125
-493.36173
-493.36299
-493.36504
-493.36788
-493.88388
-493.90586
-493.25513
-493.36074
-493.36193
-493.36173
-493.36227
-493.36359
-493.3657
-493.36859
-493.88461
-493.90676
-493.25622
-493.36187
-493.36313
-493.36299
-493.36359
-493.36497
-493.36714
-493.37008
-493.88606
-493.9083
-493.25804
-493.36377
-493.36511
-493.36504
-493.3657
-493.36714
-493.36936
-493.37235
-493.88825
-493.91041
-493.2606
-493.36646
-493.36789
-493.36788
-493.36859
-493.37008
-493.37235
-493.37542
-493.89123
-494.17839
-493.80403
-493.88216
-493.88379
-493.88388
-493.88461
-493.88606
-493.88825
-493.89123
-494.50715
-485.06014
-484.08996
-484.23918
-484.24192
-484.2415
-484.24177
-484.24279
-484.24451
-484.24685
-484.55998
-484.08996
-483.39111
-483.51305
-483.51434
-483.51391
-483.51429
-483.51552
-483.51755
-483.52039
-484.14783
-484.23918
-483.51305
-483.63208
-483.63332
-483.63295
-483.63338
-483.63466
-483.63677
-483.63975
-484.23516
-484.24192
-483.51434
-483.63332
-483.63462
-483.63431
-483.63481
-483.63616
-483.63837
-483.64145
-484.23705
-484.2415
-483.51391
-483.63295
-483.63431
-483.63407
-483.63463
-483.63606
-483.63834
-483.64149
-484.2372
-484.24177
-483.51429
-483.63338
-483.63481
-483.63463
-483.63527
-483.63675
-483.6391
-483.6423
-484.23803
-484.24279
-483.51552
-483.63466
-483.63616
-483.63606
-483.63675
-483.6383
-483.64071
-483.64396
-484.23964
-484.24451
-483.51755
-483.63677
-483.63837
-483.63834
-483.6391
-483.64071
-483.64317
-483.64649
-484.24207
-484.24685
-483.52039
-483.63975
-483.64145
-483.64149
-483.6423
-483.64396
-483.64649
-483.64989
-484.24536
-484.55998
-484.14783
-484.23516
-484.23705
-484.2372
-484.23803
-484.23964
-484.24207
-484.24536
-484.95808
-475.80227
-474.73629
-474.90139
-474.90452
-474.90411
-474.90443
-474.90556
-474.90745
-474.91
-475.26579
-474.73629
-473.96922
-474.10411
-474.10562
-474.10521
-474.10566
-474.10702
-474.10926
-474.11235
-474.81889
-474.90139
-474.10411
-474.23577
-474.23723
-474.23687
-474.23738
-474.23879
-474.24111
-474.24436
-474.9148
-474.90452
-474.10562
-474.23723
-474.23876
-474.23847
-474.23904
-474.24054
-474.24295
-474.24631
-474.91694
-474.90411
-474.10521
-474.23687
-474.23847
-474.23825
-474.2389
-474.24047
-474.24296
-474.24639
-474.91713
-474.90443
-474.10566
-474.23738
-474.23904
-474.2389
-474.23962
-474.24126
-474.24382
-474.24731
-474.91806
-474.90556
-474.10702
-474.23879
-474.24054
-474.24047
-474.24126
-474.24297
-474.24559
-474.24914
-474.91983
-474.90745
-474.10926
-474.24111
-474.24295
-474.24296
-474.24382
-474.24559
-474.24829
-474.2519
-474.92248
-474.91
-474.11235
-474.24436
-474.24631
-474.24639
-474.24731
-474.24914
-474.2519
-474.25561
-474.92605
-475.26579
-474.81889
-474.9148
-474.91694
-474.91713
-474.91806
-474.91983
-474.92248
-474.92605
-475.73002
-466.8553
-465.70127
-465.88109
-465.88458
-465.88419
-465.88456
-465.88579
-465.88783
-465.89057
-466.28629
-465.70127
-464.87159
-465.01849
-465.02022
-465.01982
-465.02035
-465.02183
-465.02425
-465.02758
-465.80784
-465.88109
-465.01849
-465.16185
-465.16353
-465.16319
-465.16376
-465.1653
-465.16781
-465.1713
-465.91167
-465.88458
-465.02022
-465.16353
-465.16527
-465.165
-465.16565
-465.16728
-465.16988
-465.17349
-465.91405
-465.88419
-465.01982
-465.16319
-465.165
-465.1648
-465.16553
-465.16724
-465.16993
-465.17362
-465.91429
-465.88456
-465.02035
-465.16376
-465.16565
-465.16553
-465.16634
-465.16812
-465.17089
-465.17464
-465.91532
-465.88579
-465.02183
-465.1653
-465.16728
-465.16724
-465.16812
-465.16998
-465.17281
-465.17662
-465.91723
-465.88783
-465.02425
-465.16781
-465.16988
-465.16993
-465.17089
-465.17281
-465.17572
-465.1796
-465.92007
-465.89057
-465.02758
-465.1713
-465.17349
-465.17362
-465.17464
-465.17662
-465.1796
-465.18358
-465.9239
-466.28629
-465.80784
-465.91167
-465.91405
-465.91429
-465.91532
-465.91723
-465.92007
-465.9239
-466.81306
-458.20979
-456.9759
-457.1692
-457.17304
-457.17266
-457.17309
-457.17441
-457.17659
-457.1795
-457.61219
-456.9759
-456.08958
-456.24746
-456.24941
-456.24903
-456.24962
-456.25122
-456.2538
-456.25734
-457.10556
-457.1692
-456.24746
-456.40153
-456.40341
-456.40309
-456.40373
-456.40539
-456.40806
-456.41177
-457.2166
-457.17304
-456.24941
-456.40341
-456.40535
-456.40511
-456.40583
-456.40758
-456.41036
-456.4142
-457.2192
-457.17266
-456.24903
-456.40309
-456.40511
-456.40494
-456.40575
-456.40758
-456.41045
-456.41437
-457.2195
-457.17309
-456.24962
-456.40373
-456.40583
-456.40575
-456.40663
-456.40854
-456.41149
-456.41548
-457.22061
-457.17441
-456.25122
-456.40539
-456.40758
-456.40758
-456.40854
-456.41053
-456.41356
-456.41761
-457.22265
-457.17659
-456.2538
-456.40806
-456.41036
-456.41045
-456.41149
-456.41356
-456.41665
-456.42078
-457.22567
-457.1795
-456.25734
-456.41177
-456.4142
-456.41437
-456.41548
-456.41761
-456.42078
-456.42501
-457.22972
-457.61219
-457.10556
-457.2166
-457.2192
-457.2195
-457.22061
-457.22265
-457.22567
-457.22972
-458.19754
-449.85652
-448.55139
-448.75684
-448.761
-448.76064
-448.76112
-448.76253
-448.76482
-448.76789
-449.23441
-448.55139
-447.61465
-447.78244
-447.78459
-447.78423
-447.78488
-447.78659
-447.78932
-447.79305
-448.7031
-448.75684
-447.78244
-447.94616
-447.94822
-447.94793
-447.94863
-447.9504
-447.95322
-447.95713
-448.8206
-448.761
-447.78459
-447.94822
-447.95036
-447.95014
-447.95093
-447.95279
-447.95573
-447.95977
-448.82341
-448.76064
-447.78423
-447.94793
-447.95014
-447.95001
-447.95088
-447.95283
-447.95586
-447.95999
-448.82375
-448.76112
-447.78488
-447.94863
-447.95093
-447.95088
-447.95184
-447.95387
-447.95698
-447.96117
-448.82494
-448.76253
-447.78659
-447.9504
-447.95279
-447.95283
-447.95387
-447.95598
-447.95917
-447.96343
-448.8271
-448.76482
-447.78932
-447.95322
-447.95573
-447.95586
-447.95698
-447.95917
-447.96244
-447.96678
-448.83028
-448.76789
-447.79305
-447.95713
-447.95977
-447.95999
-447.96117
-447.96343
-447.96678
-447.97122
-448.83452
-449.23441
-448.7031
-448.8206
-448.82341
-448.82375
-448.82494
-448.8271
-448.83028
-448.83452
-449.87405
-441.78647
-440.41906
-440.63527
-440.63973
-440.63939
-440.63991
-440.6414
-440.6438
-440.647
-441.14402
-440.41906
-439.43838
-439.61493
-439.61727
-439.61694
-439.61764
-439.61944
-439.6223
-439.6262
-440.59166
-440.63527
-439.61493
-439.78719
-439.78943
-439.78917
-439.78993
-439.79179
-439.79474
-439.79882
-440.71482
-440.63973
-439.61727
-439.78943
-439.79175
-439.79156
-439.79241
-439.79437
-439.79744
-439.80165
-440.71782
-440.63939
-439.61694
-439.78917
-439.79156
-439.79146
-439.7924
-439.79445
-439.79762
-439.80192
-440.71821
-440.63991
-439.61764
-439.78993
-439.79241
-439.7924
-439.79342
-439.79556
-439.79881
-439.80318
-440.71947
-440.6414
-439.61944
-439.79179
-439.79437
-439.79445
-439.79556
-439.79778
-439.80111
-439.80555
-440.72173
-440.6438
-439.6223
-439.79474
-439.79744
-439.79762
-439.79881
-439.80111
-439.80452
-439.80904
-440.72504
-440.647
-439.6262
-439.79882
-439.80165
-439.80192
-439.80318
-439.80555
-439.80904
-439.81368
-440.72946
-441.14402
-440.59166
-440.71482
-440.71782
-440.71821
-440.71947
-440.72173
-440.72504
-440.72946
-441.83337
-433.99078
-432.57034
-432.79587
-432.80059
-432.80028
-432.80085
-432.8024
-432.80489
-432.8082
-433.33225
-432.57034
-431.55238
-431.73653
-431.73904
-431.73873
-431.73949
-431.74137
-431.74434
-431.74837
-432.76253
-432.79587
-431.73653
-431.91617
-431.91858
-431.91834
-431.91916
-431.9211
-431.92416
-431.92838
-432.89055
-432.80059
-431.73904
-431.91858
-431.92106
-431.9209
-431.92181
-431.92385
-431.92704
-431.93139
-432.89372
-432.80028
-431.73873
-431.91834
-431.9209
-431.92084
-431.92183
-431.92397
-431.92725
-431.9317
-432.89415
-432.80085
-431.73949
-431.91916
-431.92181
-431.92183
-431.92292
-431.92514
-431.92851
-431.93303
-432.89547
-432.8024
-431.74137
-431.9211
-431.92385
-431.92397
-431.92514
-431.92745
-431.9309
-431.93549
-432.89782
-432.80489
-431.74434
-431.92416
-431.92704
-431.92725
-431.92851
-431.9309
-431.93444
-431.93912
-432.90125
-432.8082
-431.74837
-431.92838
-431.93139
-431.9317
-431.93303
-431.93549
-431.93912
-431.94391
-432.9058
-433.33225
-432.76253
-432.89055
-432.89372
-432.89415
-432.89547
-432.89782
-432.90125
-432.9058
-434.06646
-426.46074
-424.99675
-425.23011
-425.23507
-425.23479
-425.23539
-425.23701
-425.23957
-425.24296
-425.79044
-424.99675
-423.94834
-424.13886
-424.14152
-424.14125
-424.14206
-424.14401
-424.14707
-424.15121
-425.20714
-425.23011
-424.13886
-424.3247
-424.32725
-424.32704
-424.32791
-424.32992
-424.33308
-424.3374
-425.33917
-425.23507
-424.14152
-424.32725
-424.32988
-424.32976
-424.33071
-424.33283
-424.33611
-424.34057
-425.34249
-425.23479
-424.14125
-424.32704
-424.32976
-424.32972
-424.33077
-424.33298
-424.33636
-424.34092
-425.34297
-425.23539
-424.14206
-424.32791
-424.33071
-424.33077
-424.33191
-424.33421
-424.33767
-424.34231
-425.34434
-425.23701
-424.14401
-424.32992
-424.33283
-424.33298
-424.33421
-424.33659
-424.34014
-424.34486
-425.34676
-425.23957
-424.14707
-424.33308
-424.33611
-424.33636
-424.33767
-424.34014
-424.34378
-424.34858
-425.35027
-425.24296
-424.15121
-424.3374
-424.34057
-424.34092
-424.34231
-424.34486
-424.34858
-424.3535
-425.35494
-425.79044
-425.20714
-425.33917
-425.34249
-425.34297
-425.34434
-425.34676
-425.35027
-425.35494
-426.56444
-419.18779
-417.68988
-417.92955
-417.93471
-417.93446
-417.9351
-417.93675
-417.93937
-417.94283
-418.51003
-417.68988
-416.61794
-416.81359
-416.81639
-416.81614
-416.81699
-416.819
-416.82213
-416.82635
-417.91696
-417.92955
-416.81359
-417.0044
-417.00708
-417.00691
-417.00781
-417.00988
-417.01311
-417.01752
-418.05215
-417.93471
-416.81639
-417.00708
-417.00985
-417.00975
-417.01075
-417.01292
-417.01627
-417.02083
-418.0556
-417.93446
-416.81614
-417.00691
-417.00975
-417.00975
-417.01084
-417.01311
-417.01656
-417.02121
-418.05611
-417.9351
-416.81699
-417.00781
-417.01075
-417.01084
-417.01203
-417.01439
-417.01793
-417.02265
-418.05752
-417.93675
-416.819
-417.00988
-417.01292
-417.01311
-417.01439
-417.01683
-417.02046
-417.02526
-418.06
-417.93937
-416.82213
-417.01311
-417.01627
-417.01656
-417.01793
-417.02046
-417.02417
-417.02906
-418.06358
-417.94283
-416.82635
-417.01752
-417.02083
-417.02121
-417.02265
-417.02526
-417.02906
-417.03408
-418.06833
-418.51003
-417.91696
-418.05215
-418.0556
-418.05611
-418.05752
-418.06
-418.06358
-418.06833
-419.31855
-412.16343
-410.64137
-410.88578
-410.89111
-410.89089
-410.89156
-410.89325
-410.89591
-410.89941
-411.48255
-410.64137
-409.55289
-409.75238
-409.7553
-409.75509
-409.75597
-409.75803
-409.76121
-409.76548
-410.88354
-410.88578
-409.75238
-409.94693
-409.94973
-409.94958
-409.95053
-409.95264
-409.95591
-409.96038
-411.02101
-410.89111
-409.7553
-409.94973
-409.9526
-409.95254
-409.95358
-409.95579
-409.95919
-409.96381
-411.02456
-410.89089
-409.75509
-409.94958
-409.95254
-409.95257
-409.9537
-409.95601
-409.95952
-409.96423
-411.02511
-410.89156
-409.75597
-409.95053
-409.95358
-409.9537
-409.95492
-409.95733
-409.96092
-409.96571
-411.02656
-410.89325
-409.75803
-409.95264
-409.95579
-409.95601
-409.95733
-409.95982
-409.9635
-409.96836
-411.02907
-410.89591
-409.76121
-409.95591
-409.95919
-409.95952
-409.96092
-409.9635
-409.96727
-409.97222
-411.0327
-410.89941
-409.76548
-409.96038
-409.96381
-409.96423
-409.96571
-409.96836
-409.97222
-409.97729
-411.03749
-411.48255
-410.88354
-411.02101
-411.02456
-411.02511
-411.02656
-411.02907
-411.0327
-411.03749
-412.32016
-405.37931
-403.84287
-404.09046
-404.09593
-404.09574
-404.09643
-404.09815
-404.10083
-404.10435
-404.6996
-403.84287
-402.74485
-402.94692
-402.94993
-402.94975
-402.95067
-402.95275
-402.95596
-402.96027
-404.09846
-404.09046
-402.94692
-403.14395
-403.14684
-403.14673
-403.1477
-403.14984
-403.15315
-403.15765
-404.23733
-404.09593
-402.94993
-403.14684
-403.14981
-403.14978
-403.15085
-403.15309
-403.15652
-403.16116
-404.24097
-404.09574
-402.94975
-403.14673
-403.14978
-403.14985
-403.151
-403.15335
-403.15688
-403.16161
-404.24154
-404.09643
-402.95067
-403.1477
-403.15085
-403.151
-403.15225
-403.15469
-403.15831
-403.16312
-404.24302
-404.09815
-402.95275
-403.14984
-403.15309
-403.15335
-403.15469
-403.15721
-403.16092
-403.16581
-404.24556
-404.10083
-402.95596
-403.15315
-403.15652
-403.15688
-403.15831
-403.16092
-403.16472
-403.1697
-404.24921
-404.10435
-402.96027
-403.15765
-403.16116
-403.16161
-403.16312
-403.16581
-403.1697
-403.1748
-404.25402
-404.6996
-404.09846
-404.23733
-404.24097
-404.24154
-404.24302
-404.24556
-404.24921
-404.25402
-405.56075
-398.82714
-397.28609
-397.53527
-397.54085
-397.54069
-397.5414
-397.54313
-397.54582
-397.54934
-398.15283
-397.28609
-396.18551
-396.38885
-396.39195
-396.39181
-396.39275
-396.39485
-396.39807
-396.40238
-397.55335
-397.53527
-396.38885
-396.58712
-396.59008
-396.59
-396.591
-396.59316
-396.59647
-396.60097
-397.69275
-397.54085
-396.39195
-396.59008
-396.59313
-396.59313
-396.59422
-396.59648
-396.59992
-396.60456
-397.69644
-397.54069
-396.39181
-396.59
-396.59313
-396.59323
-396.59441
-396.59676
-396.6003
-396.60504
-397.69704
-397.5414
-396.39275
-396.591
-396.59422
-396.59441
-396.59568
-396.59813
-396.60176
-396.60657
-397.69854
-397.54313
-396.39485
-396.59316
-396.59648
-396.59676
-396.59813
-396.60067
-396.60438
-396.60927
-397.70108
-397.54582
-396.39807
-396.59647
-396.59992
-396.6003
-396.60176
-396.60438
-396.60818
-396.61316
-397.70473
-397.54934
-396.40238
-396.60097
-396.60456
-396.60504
-396.60657
-396.60927
-396.61316
-396.61827
-397.70953
-398.15283
-397.55335
-397.69275
-397.69644
-397.69704
-397.69854
-397.70108
-397.70473
-397.70953
-399.03189
-392.49871
-390.96274
-391.21194
-391.21758
-391.21745
-391.21818
-391.21992
-391.22259
-391.22609
-391.83396
-390.96274
-389.86651
-390.06985
-390.073
-390.07289
-390.07386
-390.07596
-390.07917
-390.08346
-391.23987
-391.21194
-390.06985
-390.26809
-390.27111
-390.27106
-390.27208
-390.27423
-390.27753
-390.28201
-391.37891
-391.21758
-390.073
-390.27111
-390.27421
-390.27424
-390.27535
-390.27761
-390.28103
-390.28564
-391.38264
-391.21745
-390.07289
-390.27106
-390.27424
-390.27437
-390.27556
-390.27792
-390.28144
-390.28615
-391.38326
-391.21818
-390.07386
-390.27208
-390.27535
-390.27556
-390.27685
-390.2793
-390.28291
-390.28769
-391.38476
-391.21992
-390.07596
-390.27423
-390.27761
-390.27792
-390.2793
-390.28183
-390.28553
-390.29039
-391.3873
-391.22259
-390.07917
-390.27753
-390.28103
-390.28144
-390.28291
-390.28553
-390.28932
-390.29426
-391.39092
-391.22609
-390.08346
-390.28201
-390.28564
-390.28615
-390.28769
-390.29039
-390.29426
-390.29933
-391.39569
-391.83396
-391.23987
-391.37891
-391.38264
-391.38326
-391.38476
-391.3873
-391.39092
-391.39569
-392.72524
-386.38588
-384.86455
-385.11221
-385.11787
-385.11777
-385.11852
-385.12024
-385.12289
-385.12635
-385.73474
-384.86455
-383.77947
-383.98153
-383.98472
-383.98464
-383.98562
-383.98771
-383.9909
-383.99514
-385.14971
-385.11221
-383.98153
-384.1785
-384.18156
-384.18154
-384.18257
-384.18471
-384.18798
-384.1924
-385.28752
-385.11787
-383.98472
-384.18156
-384.18469
-384.18475
-384.18587
-384.18811
-384.19151
-384.19606
-385.29126
-385.11778
-383.98464
-384.18154
-384.18475
-384.18491
-384.18611
-384.18845
-384.19194
-384.19659
-385.2919
-385.11852
-383.98562
-384.18257
-384.18587
-384.18611
-384.1874
-384.18983
-384.19341
-384.19813
-385.2934
-385.12024
-383.98771
-384.18471
-384.18811
-384.18845
-384.18983
-384.19235
-384.19601
-384.20081
-385.29591
-385.12289
-383.9909
-384.18798
-384.1915
-384.19194
-384.19341
-384.19601
-384.19976
-384.20464
-385.29949
-385.12635
-383.99514
-384.1924
-384.19606
-384.19659
-384.19813
-384.20081
-384.20464
-384.20965
-385.30419
-385.73474
-385.14971
-385.28752
-385.29126
-385.2919
-385.2934
-385.29591
-385.29949
-385.30419
-386.63254
-380.4806
-378.98326
-379.22783
-379.23349
-379.23342
-379.23417
-379.23588
-379.23849
-379.24189
-379.84699
-378.98326
-377.91598
-378.11551
-378.11872
-378.11867
-378.11966
-378.12173
-378.12486
-378.12903
-379.27457
-379.22783
-378.11551
-378.30999
-378.31306
-378.31307
-378.3141
-378.31623
-378.31945
-378.32379
-379.41031
-379.23349
-378.11872
-378.31306
-378.3162
-378.3163
-378.31741
-378.31964
-378.32297
-378.32744
-379.41403
-379.23342
-378.11867
-378.31307
-378.3163
-378.31648
-378.31768
-378.31999
-378.32343
-378.32799
-379.41468
-379.23417
-378.11966
-378.3141
-378.31741
-378.31768
-378.31897
-378.32137
-378.32489
-378.32953
-379.41617
-379.23588
-378.12173
-378.31623
-378.31964
-378.31999
-378.32137
-378.32386
-378.32746
-378.33217
-379.41865
-379.23849
-378.12486
-378.31945
-378.32297
-378.32343
-378.32489
-378.32746
-378.33114
-378.33594
-379.42216
-379.24189
-378.12903
-378.32379
-378.32744
-378.32799
-378.32953
-378.33217
-378.33594
-378.34085
-379.42676
-379.84699
-379.27457
-379.41031
-379.41403
-379.41468
-379.41617
-379.41865
-379.42216
-379.42676
-380.74563
-374.77487
-373.31063
-373.55061
-373.55622
-373.55619
-373.55694
-373.55862
-373.56117
-373.56448
-374.16257
-373.31063
-372.26762
-372.46339
-372.46659
-372.46658
-372.46756
-372.4696
-372.47267
-372.47673
-373.6062
-373.55061
-372.46339
-372.65418
-372.65724
-372.65729
-372.65832
-372.6604
-372.66355
-372.66779
-373.73902
-373.55622
-372.46659
-372.65724
-372.66038
-372.6605
-372.66161
-372.66379
-372.66706
-372.67142
-373.74271
-373.55619
-372.46658
-372.65729
-372.6605
-372.66071
-372.6619
-372.66417
-372.66753
-372.67198
-373.74337
-373.55694
-372.46756
-372.65832
-372.66161
-372.6619
-372.66318
-372.66554
-372.66898
-372.6735
-373.74483
-373.55862
-372.4696
-372.6604
-372.66379
-372.66417
-372.66554
-372.66798
-372.67149
-372.67609
-373.74726
-373.56117
-372.47267
-372.66355
-372.66706
-372.66753
-372.66898
-372.67149
-372.67509
-372.67977
-373.75068
-373.56448
-372.47673
-372.66779
-372.67142
-372.67198
-372.6735
-372.67609
-372.67977
-372.68457
-373.75516
-374.16257
-373.6062
-373.73902
-373.74271
-373.74337
-373.74483
-373.74726
-373.75068
-373.75516
-375.05642
-369.26077
-367.83844
-368.07237
-368.07789
-368.07789
-368.07864
-368.08028
-368.08276
-368.08597
-368.67337
-367.83844
-366.82595
-367.01675
-367.01993
-367.01995
-367.02093
-367.02292
-367.0259
-367.02985
-368.13637
-368.07237
-367.01675
-367.20269
-367.20573
-367.2058
-367.20682
-367.20886
-367.21192
-367.21603
-368.26546
-368.07789
-367.01993
-367.20573
-367.20883
-367.20898
-367.21008
-367.21221
-367.21538
-367.21961
-368.26908
-368.07789
-367.01995
-367.2058
-367.20898
-367.20921
-367.21039
-367.21261
-367.21587
-367.22018
-368.26975
-368.07864
-367.02093
-367.20682
-367.21008
-367.21039
-367.21165
-367.21395
-367.21729
-367.22167
-368.27118
-368.08028
-367.02292
-367.20886
-367.21221
-367.21261
-367.21395
-367.21633
-367.21974
-367.2242
-368.27354
-368.08276
-367.0259
-367.21192
-367.21538
-367.21587
-367.21729
-367.21974
-367.22324
-367.22777
-368.27686
-368.08597
-367.02985
-367.21603
-367.21961
-367.22018
-367.22167
-367.2242
-367.22777
-367.23242
-368.2812
-368.67337
-368.13637
-368.26546
-368.26908
-368.26975
-368.27118
-368.27354
-368.27686
-368.2812
-369.55691
-363.93046
-362.55849
-362.78494
-362.79035
-362.79038
-362.79112
-362.79271
-362.7951
-362.79819
-363.37137
-362.55849
-361.58251
-361.76719
-361.77032
-361.77038
-361.77134
-361.77327
-361.77616
-361.77996
-362.85688
-362.78494
-361.76719
-361.94715
-361.95014
-361.95025
-361.95125
-361.95323
-361.95618
-361.96013
-362.98147
-362.79035
-361.77032
-361.95014
-361.9532
-361.95337
-361.95445
-361.95651
-361.95957
-361.96365
-362.985
-362.79038
-361.77038
-361.95025
-361.95337
-361.95362
-361.95478
-361.95692
-361.96007
-361.96422
-362.98566
-362.79112
-361.77134
-361.95125
-361.95445
-361.95478
-361.95601
-361.95824
-361.96146
-361.96568
-362.98706
-362.79271
-361.77327
-361.95323
-361.95651
-361.95692
-361.95824
-361.96054
-361.96383
-361.96812
-362.98934
-362.7951
-361.77616
-361.95618
-361.95957
-361.96007
-361.96146
-361.96383
-361.9672
-361.97157
-362.99253
-362.79819
-361.77996
-361.96013
-361.96365
-361.96422
-361.96568
-361.96812
-361.97157
-361.97604
-362.9967
-363.37137
-362.85688
-362.98147
-362.985
-362.98566
-362.98706
-362.98934
-362.99253
-362.9967
-364.23917
-358.77615
-357.46263
-357.68024
-357.68549
-357.68554
-357.68627
-357.6878
-357.6901
-357.69305
-358.24858
-357.46263
-356.52885
-356.7063
-356.70936
-356.70944
-356.71039
-356.71225
-356.71502
-356.71865
-357.75959
-357.68024
-356.7063
-356.8792
-356.88212
-356.88225
-356.88323
-356.88514
-356.88797
-356.89175
-357.87892
-357.68549
-356.70936
-356.88212
-356.88511
-356.8853
-356.88635
-356.88834
-356.89127
-356.89517
-357.88234
-357.68554
-356.70944
-356.88225
-356.8853
-356.88557
-356.8867
-356.88876
-356.89178
-356.89575
-357.883
-357.68627
-356.71039
-356.88323
-356.88635
-356.8867
-356.8879
-356.89004
-356.89312
-356.89715
-357.88435
-357.6878
-356.71225
-356.88514
-356.88834
-356.88876
-356.89004
-356.89225
-356.8954
-356.8995
-357.88653
-357.6901
-356.71502
-356.88797
-356.89127
-356.89178
-356.89312
-356.8954
-356.89863
-356.9028
-357.88958
-357.69305
-356.71865
-356.89175
-356.89517
-356.89575
-356.89715
-356.8995
-356.9028
-356.90708
-357.89355
-358.24858
-357.75959
-357.87892
-357.88234
-357.883
-357.88435
-357.88653
-357.88958
-357.89355
-359.09538
-353.79018
-352.54271
-352.75019
-352.75525
-352.75533
-352.75604
-352.75751
-352.75969
-352.76249
-353.29709
-352.54271
-351.65652
-351.82568
-351.82865
-351.82876
-351.82968
-351.83146
-351.83409
-351.83754
-352.8364
-352.75019
-351.82568
-351.99049
-351.99333
-351.99348
-351.99443
-351.99625
-351.99895
-352.00253
-352.94975
-352.75525
-351.82865
-351.99333
-351.99622
-351.99644
-351.99746
-351.99935
-352.00214
-352.00583
-352.95304
-352.75533
-351.82876
-351.99348
-351.99644
-351.99672
-351.99781
-351.99978
-352.00264
-352.00641
-352.95369
-352.75604
-351.82968
-351.99443
-351.99746
-351.99781
-351.99897
-352.00101
-352.00394
-352.00776
-352.95499
-352.75751
-351.83146
-351.99625
-351.99935
-351.99978
-352.00101
-352.00312
-352.00612
-352.01
-352.95706
-352.75969
-351.83409
-351.99895
-352.00214
-352.00264
-352.00394
-352.00612
-352.00918
-352.01314
-352.95995
-352.76249
-351.83754
-352.00253