/*--------------------------------*- C++ -*----------------------------------*\
| =========                 |                                                 |
| \\      /  F ield         | OpenFOAM: The Open Source CFD Toolbox           |
|  \\    /   O peration     | Version:  v2106                                 |
|   \\  /    A nd           | Website:  www.openfoam.com                      |
|    \\/     M anipulation  |                                                 |
\*---------------------------------------------------------------------------*/
FoamFile
{
    version     2.0;
    format      ascii;
    arch        "LSB;label=32;scalar=64";
    class       volScalarField;
    location    "80";
    object      T;
}
// * * * * * * * * * * * * * * * * * * * * * * * * * * * * * * * * * * * * * //

dimensions      [0 0 0 1 0 0 0];

internalField   nonuniform List<scalar> 
4000
(
275.15405
275.15405
275.15405
275.15404
275.15404
275.15404
275.15404
275.15404
275.15405
275.15405
275.15405
275.15404
275.15404
275.15404
275.15404
275.15404
275.15404
275.15404
275.15404
275.15404
275.15405
275.15404
275.15404
275.15404
275.15404
275.15404
275.15404
275.15404
275.15404
275.15404
275.15404
275.15404
275.15404
275.15404
275.15404
275.15404
275.15404
275.15404
275.15404
275.15404
275.15404
275.15404
275.15404
275.15404
275.15404
275.15404
275.15404
275.15404
275.15404
275.15404
275.15404
275.15404
275.15404
275.15404
275.15404
275.15404
275.15404
275.15404
275.15404
275.15404
275.15404
275.15404
275.15404
275.15404
275.15404
275.15404
275.15404
275.15404
275.15404
275.15404
275.15404
275.15404
275.15404
275.15404
275.15404
275.15404
275.15404
275.15404
275.15404
275.15404
275.15405
275.15404
275.15404
275.15404
275.15404
275.15404
275.15404
275.15404
275.15404
275.15405
275.15405
275.15404
275.15404
275.15404
275.15404
275.15404
275.15404
275.15404
275.15405
275.15405
283.57252
283.5725
283.5725
283.57249
283.57249
283.57249
283.57249
283.5725
283.5725
283.57251
283.5725
283.57249
283.57249
283.57248
283.57248
283.57248
283.57248
283.57248
283.57249
283.5725
283.5725
283.57249
283.57248
283.57247
283.57247
283.57247
283.57247
283.57248
283.57248
283.57249
283.57249
283.57248
283.57247
283.57247
283.57247
283.57247
283.57247
283.57248
283.57248
283.57249
283.57249
283.57248
283.57247
283.57247
283.57247
283.57247
283.57247
283.57247
283.57248
283.57249
283.57249
283.57248
283.57247
283.57247
283.57247
283.57247
283.57247
283.57248
283.57248
283.57249
283.57249
283.57248
283.57247
283.57247
283.57247
283.57247
283.57247
283.57248
283.57248
283.57249
283.5725
283.57248
283.57248
283.57248
283.57247
283.57248
283.57248
283.57248
283.57249
283.5725
283.5725
283.57249
283.57248
283.57248
283.57248
283.57248
283.57248
283.57249
283.5725
283.5725
283.57251
283.5725
283.57249
283.57249
283.57249
283.57249
283.57249
283.5725
283.5725
283.57251
291.93625
291.93622
291.93621
291.9362
291.9362
291.9362
291.9362
291.93621
291.93622
291.93623
291.93622
291.9362
291.93619
291.93618
291.93618
291.93618
291.93618
291.93619
291.9362
291.93621
291.93621
291.93619
291.93618
291.93617
291.93617
291.93617
291.93617
291.93618
291.93619
291.9362
291.9362
291.93618
291.93617
291.93617
291.93616
291.93616
291.93617
291.93618
291.93619
291.9362
291.9362
291.93618
291.93617
291.93616
291.93616
291.93616
291.93617
291.93617
291.93619
291.9362
291.9362
291.93618
291.93617
291.93616
291.93616
291.93616
291.93617
291.93618
291.93619
291.9362
291.9362
291.93618
291.93617
291.93617
291.93617
291.93617
291.93617
291.93618
291.93619
291.93621
291.93621
291.93619
291.93618
291.93618
291.93617
291.93618
291.93618
291.93619
291.9362
291.93622
291.93622
291.9362
291.93619
291.93619
291.93619
291.93619
291.93619
291.9362
291.93621
291.93623
291.93623
291.93621
291.9362
291.9362
291.9362
291.9362
291.93621
291.93622
291.93623
291.93624
300.24639
300.24635
300.24634
300.24633
300.24632
300.24632
300.24633
300.24634
300.24635
300.24637
300.24635
300.24633
300.24631
300.2463
300.2463
300.2463
300.2463
300.24631
300.24633
300.24635
300.24634
300.24631
300.24629
300.24629
300.24628
300.24628
300.24629
300.2463
300.24631
300.24633
300.24633
300.2463
300.24629
300.24628
300.24627
300.24627
300.24628
300.24629
300.24631
300.24633
300.24632
300.2463
300.24628
300.24627
300.24627
300.24627
300.24628
300.24629
300.24631
300.24633
300.24632
300.2463
300.24628
300.24627
300.24627
300.24627
300.24628
300.24629
300.24631
300.24633
300.24633
300.2463
300.24629
300.24628
300.24628
300.24628
300.24629
300.2463
300.24632
300.24634
300.24634
300.24631
300.2463
300.24629
300.24629
300.24629
300.2463
300.24631
300.24633
300.24635
300.24635
300.24633
300.24631
300.24631
300.24631
300.24631
300.24632
300.24633
300.24635
300.24637
300.24637
300.24635
300.24633
300.24633
300.24633
300.24633
300.24634
300.24635
300.24637
300.24639
308.50405
308.50401
308.50399
308.50398
308.50397
308.50397
308.50398
308.50399
308.50401
308.50403
308.50401
308.50397
308.50395
308.50394
308.50394
308.50394
308.50395
308.50396
308.50398
308.50401
308.50399
308.50395
308.50394
308.50392
308.50392
308.50392
308.50393
308.50394
308.50396
308.50399
308.50398
308.50394
308.50392
308.50391
308.50391
308.50391
308.50392
308.50394
308.50396
308.50398
308.50397
308.50394
308.50392
308.50391
308.50391
308.50391
308.50392
308.50393
308.50396
308.50398
308.50397
308.50394
308.50392
308.50391
308.50391
308.50391
308.50392
308.50394
308.50396
308.50399
308.50398
308.50395
308.50393
308.50392
308.50392
308.50392
308.50393
308.50395
308.50397
308.504
308.50399
308.50396
308.50394
308.50394
308.50393
308.50394
308.50395
308.50397
308.50399
308.50402
308.50401
308.50398
308.50396
308.50396
308.50396
308.50396
308.50397
308.50399
308.50401
308.50404
308.50403
308.50401
308.50399
308.50398
308.50398
308.50399
308.504
308.50402
308.50404
308.50407
316.71031
316.71026
316.71024
316.71023
316.71022
316.71022
316.71023
316.71025
316.71027
316.71029
316.71026
316.71022
316.7102
316.71019
316.71018
316.71018
316.71019
316.71021
316.71023
316.71027
316.71024
316.7102
316.71018
316.71017
316.71016
316.71016
316.71017
316.71019
316.71022
316.71025
316.71023
316.71019
316.71017
316.71015
316.71015
316.71015
316.71016
316.71018
316.71021
316.71024
316.71022
316.71018
316.71016
316.71015
316.71014
316.71015
316.71016
316.71018
316.71021
316.71024
316.71022
316.71018
316.71016
316.71015
316.71015
316.71015
316.71016
316.71018
316.71021
316.71025
316.71023
316.71019
316.71017
316.71016
316.71016
316.71016
316.71018
316.7102
316.71023
316.71026
316.71025
316.71021
316.71019
316.71018
316.71018
316.71018
316.7102
316.71022
316.71025
316.71028
316.71027
316.71023
316.71022
316.71021
316.71021
316.71021
316.71023
316.71025
316.71028
316.71031
316.71029
316.71027
316.71025
316.71024
316.71024
316.71025
316.71026
316.71028
316.71031
316.71035
324.86621
324.86616
324.86613
324.86612
324.86611
324.86611
324.86612
324.86614
324.86617
324.8662
324.86616
324.86611
324.86609
324.86607
324.86606
324.86607
324.86608
324.8661
324.86613
324.86617
324.86613
324.86609
324.86606
324.86605
324.86604
324.86604
324.86606
324.86608
324.86611
324.86615
324.86612
324.86607
324.86605
324.86603
324.86603
324.86603
324.86605
324.86607
324.8661
324.86614
324.86611
324.86606
324.86604
324.86603
324.86602
324.86603
324.86604
324.86607
324.8661
324.86614
324.86611
324.86607
324.86604
324.86603
324.86603
324.86603
324.86605
324.86607
324.86611
324.86615
324.86612
324.86608
324.86606
324.86605
324.86604
324.86605
324.86606
324.86609
324.86612
324.86617
324.86614
324.8661
324.86608
324.86607
324.86607
324.86607
324.86609
324.86611
324.86615
324.86619
324.86617
324.86613
324.86611
324.8661
324.8661
324.86611
324.86612
324.86615
324.86618
324.86623
324.8662
324.86617
324.86615
324.86614
324.86614
324.86615
324.86617
324.86619
324.86623
324.86628
332.97276
332.9727
332.97267
332.97265
332.97264
332.97265
332.97266
332.97268
332.97271
332.97275
332.9727
332.97265
332.97262
332.9726
332.97259
332.9726
332.97261
332.97263
332.97267
332.97271
332.97267
332.97262
332.97259
332.97257
332.97257
332.97257
332.97259
332.97261
332.97265
332.97269
332.97265
332.9726
332.97257
332.97256
332.97255
332.97256
332.97257
332.9726
332.97264
332.97268
332.97264
332.97259
332.97257
332.97255
332.97255
332.97255
332.97257
332.9726
332.97264
332.97268
332.97265
332.9726
332.97257
332.97256
332.97255
332.97256
332.97258
332.97261
332.97264
332.97269
332.97266
332.97261
332.97259
332.97257
332.97257
332.97258
332.9726
332.97263
332.97266
332.97271
332.97268
332.97263
332.97261
332.9726
332.9726
332.97261
332.97263
332.97266
332.9727
332.97274
332.97271
332.97267
332.97265
332.97264
332.97264
332.97264
332.97266
332.9727
332.97274
332.97279
332.97275
332.97271
332.97269
332.97268
332.97268
332.97269
332.97271
332.97274
332.97279
332.97284
341.03092
341.03085
341.03082
341.0308
341.03079
341.03079
341.03081
341.03084
341.03087
341.03091
341.03085
341.03079
341.03076
341.03074
341.03074
341.03074
341.03076
341.03078
341.03082
341.03087
341.03082
341.03076
341.03073
341.03071
341.03071
341.03071
341.03073
341.03076
341.0308
341.03085
341.0308
341.03074
341.03071
341.0307
341.03069
341.0307
341.03072
341.03075
341.03079
341.03084
341.03079
341.03074
341.03071
341.03069
341.03069
341.03069
341.03071
341.03074
341.03079
341.03084
341.03079
341.03074
341.03071
341.0307
341.03069
341.0307
341.03072
341.03076
341.0308
341.03085
341.03081
341.03076
341.03073
341.03072
341.03071
341.03072
341.03074
341.03078
341.03082
341.03088
341.03084
341.03078
341.03076
341.03075
341.03074
341.03076
341.03078
341.03081
341.03086
341.03091
341.03087
341.03082
341.0308
341.03079
341.03079
341.0308
341.03082
341.03086
341.0309
341.03096
341.03091
341.03087
341.03085
341.03084
341.03084
341.03085
341.03088
341.03091
341.03096
341.03102
349.04162
349.04155
349.04152
349.0415
349.04149
349.04149
349.04151
349.04154
349.04158
349.04162
349.04155
349.04149
349.04146
349.04144
349.04143
349.04144
349.04146
349.04149
349.04153
349.04158
349.04152
349.04146
349.04143
349.04141
349.0414
349.04141
349.04143
349.04146
349.0415
349.04156
349.0415
349.04144
349.04141
349.04139
349.04138
349.04139
349.04141
349.04145
349.04149
349.04155
349.04149
349.04143
349.0414
349.04138
349.04138
349.04139
349.04141
349.04144
349.04149
349.04155
349.04149
349.04144
349.04141
349.04139
349.04139
349.0414
349.04142
349.04146
349.0415
349.04157
349.04151
349.04146
349.04143
349.04141
349.04141
349.04142
349.04144
349.04148
349.04153
349.04159
349.04154
349.04149
349.04146
349.04145
349.04144
349.04146
349.04148
349.04152
349.04157
349.04163
349.04158
349.04153
349.0415
349.04149
349.04149
349.0415
349.04153
349.04157
349.04162
349.04168
349.04162
349.04158
349.04156
349.04155
349.04155
349.04157
349.04159
349.04163
349.04168
349.04175
357.00579
357.00571
357.00567
357.00565
357.00565
357.00565
357.00567
357.0057
357.00575
357.00579
357.00571
357.00565
357.00561
357.00559
357.00558
357.00559
357.00561
357.00564
357.00569
357.00575
357.00567
357.00561
357.00558
357.00556
357.00555
357.00556
357.00558
357.00562
357.00566
357.00573
357.00565
357.00559
357.00556
357.00554
357.00553
357.00554
357.00557
357.0056
357.00565
357.00572
357.00565
357.00558
357.00555
357.00553
357.00553
357.00554
357.00556
357.0056
357.00565
357.00572
357.00565
357.00559
357.00556
357.00554
357.00554
357.00555
357.00558
357.00561
357.00567
357.00573
357.00567
357.00561
357.00558
357.00557
357.00556
357.00558
357.0056
357.00564
357.00569
357.00576
357.0057
357.00564
357.00562
357.0056
357.0056
357.00561
357.00564
357.00568
357.00574
357.0058
357.00575
357.00569
357.00566
357.00565
357.00565
357.00567
357.00569
357.00574
357.00579
357.00586
357.00579
357.00575
357.00573
357.00572
357.00572
357.00573
357.00576
357.0058
357.00586
357.00594
364.92428
364.9242
364.92416
364.92414
364.92413
364.92414
364.92416
364.9242
364.92424
364.92429
364.9242
364.92413
364.9241
364.92407
364.92407
364.92408
364.9241
364.92413
364.92418
364.92425
364.92416
364.9241
364.92406
364.92404
364.92403
364.92404
364.92407
364.9241
364.92416
364.92423
364.92414
364.92407
364.92404
364.92402
364.92402
364.92403
364.92405
364.92409
364.92414
364.92421
364.92413
364.92407
364.92403
364.92402
364.92401
364.92402
364.92405
364.92409
364.92415
364.92422
364.92414
364.92408
364.92404
364.92403
364.92402
364.92404
364.92406
364.9241
364.92416
364.92423
364.92416
364.9241
364.92407
364.92405
364.92405
364.92406
364.92409
364.92413
364.92419
364.92426
364.9242
364.92413
364.9241
364.92409
364.92409
364.9241
364.92413
364.92418
364.92424
364.92431
364.92424
364.92418
364.92416
364.92414
364.92415
364.92416
364.92419
364.92424
364.9243
364.92437
364.92429
364.92425
364.92423
364.92421
364.92422
364.92423
364.92426
364.92431
364.92437
364.92445
372.79795
372.79787
372.79783
372.7978
372.79779
372.7978
372.79783
372.79786
372.79791
372.79797
372.79787
372.79779
372.79776
372.79773
372.79773
372.79774
372.79776
372.7978
372.79785
372.79792
372.79783
372.79776
372.79772
372.7977
372.79769
372.7977
372.79773
372.79777
372.79782
372.7979
372.7978
372.79773
372.7977
372.79768
372.79767
372.79768
372.79771
372.79775
372.79781
372.79788
372.79779
372.79773
372.79769
372.79767
372.79767
372.79768
372.79771
372.79775
372.79781
372.79789
372.7978
372.79774
372.7977
372.79768
372.79768
372.7977
372.79772
372.79777
372.79783
372.79791
372.79783
372.79776
372.79773
372.79771
372.79771
372.79772
372.79775
372.7978
372.79786
372.79794
372.79786
372.7978
372.79777
372.79775
372.79775
372.79777
372.7978
372.79785
372.79791
372.79799
372.79791
372.79785
372.79782
372.79781
372.79781
372.79783
372.79786
372.79791
372.79797
372.79805
372.79797
372.79792
372.7979
372.79788
372.79789
372.79791
372.79794
372.79799
372.79805
372.79814
380.62761
380.62752
380.62748
380.62745
380.62745
380.62745
380.62748
380.62752
380.62757
380.62763
380.62752
380.62744
380.6274
380.62738
380.62738
380.62738
380.62741
380.62745
380.62751
380.62758
380.62748
380.6274
380.62737
380.62734
380.62734
380.62735
380.62738
380.62742
380.62748
380.62756
380.62745
380.62738
380.62734
380.62732
380.62732
380.62733
380.62736
380.62741
380.62747
380.62754
380.62745
380.62738
380.62734
380.62732
380.62732
380.62733
380.62736
380.62741
380.62747
380.62755
380.62745
380.62738
380.62735
380.62733
380.62733
380.62735
380.62738
380.62742
380.62749
380.62757
380.62748
380.62741
380.62738
380.62736
380.62736
380.62738
380.62741
380.62746
380.62752
380.6276
380.62752
380.62745
380.62742
380.62741
380.62741
380.62742
380.62746
380.62751
380.62757
380.62765
380.62757
380.62751
380.62748
380.62747
380.62747
380.62749
380.62752
380.62757
380.62764
380.62772
380.62763
380.62758
380.62756
380.62754
380.62755
380.62757
380.6276
380.62765
380.62772
380.62781
388.41403
388.41395
388.4139
388.41388
388.41387
388.41388
388.41391
388.41395
388.414
388.41406
388.41395
388.41387
388.41383
388.4138
388.4138
388.41381
388.41384
388.41388
388.41394
388.41401
388.4139
388.41383
388.41379
388.41377
388.41376
388.41377
388.4138
388.41385
388.41391
388.41399
388.41388
388.4138
388.41377
388.41375
388.41374
388.41376
388.41379
388.41383
388.4139
388.41398
388.41387
388.4138
388.41376
388.41374
388.41374
388.41375
388.41379
388.41383
388.4139
388.41398
388.41388
388.41381
388.41377
388.41376
388.41375
388.41377
388.4138
388.41385
388.41392
388.414
388.41391
388.41384
388.4138
388.41379
388.41379
388.4138
388.41384
388.41389
388.41395
388.41404
388.41395
388.41388
388.41385
388.41383
388.41383
388.41385
388.41389
388.41394
388.41401
388.41409
388.414
388.41394
388.41391
388.4139
388.4139
388.41392
388.41395
388.41401
388.41408
388.41416
388.41406
388.41401
388.41399
388.41398
388.41398
388.414
388.41404
388.41409
388.41416
388.41426
396.158
396.1579
396.15786
396.15784
396.15783
396.15784
396.15787
396.15791
396.15796
396.15803
396.1579
396.15783
396.15778
396.15776
396.15776
396.15777
396.15779
396.15784
396.1579
396.15798
396.15786
396.15778
396.15774
396.15772
396.15772
396.15773
396.15776
396.15781
396.15787
396.15795
396.15784
396.15776
396.15772
396.1577
396.1577
396.15771
396.15774
396.15779
396.15786
396.15794
396.15783
396.15776
396.15772
396.1577
396.1577
396.15771
396.15774
396.15779
396.15786
396.15795
396.15784
396.15777
396.15773
396.15771
396.15771
396.15773
396.15776
396.15781
396.15788
396.15797
396.15787
396.15779
396.15776
396.15774
396.15774
396.15776
396.1578
396.15785
396.15792
396.15801
396.15791
396.15784
396.15781
396.15779
396.15779
396.15781
396.15785
396.1579
396.15797
396.15806
396.15796
396.1579
396.15787
396.15786
396.15786
396.15788
396.15792
396.15797
396.15805
396.15814
396.15803
396.15798
396.15795
396.15794
396.15795
396.15797
396.15801
396.15806
396.15814
396.15823
403.86022
403.86013
403.86008
403.86006
403.86005
403.86006
403.86009
403.86013
403.86019
403.86026
403.86013
403.86005
403.86
403.85998
403.85998
403.85999
403.86002
403.86006
403.86013
403.86021
403.86008
403.86
403.85996
403.85994
403.85994
403.85995
403.85998
403.86003
403.8601
403.86018
403.86006
403.85998
403.85994
403.85992
403.85992
403.85993
403.85997
403.86002
403.86008
403.86017
403.86005
403.85998
403.85994
403.85992
403.85992
403.85993
403.85997
403.86002
403.86009
403.86018
403.86006
403.85999
403.85995
403.85993
403.85993
403.85995
403.85999
403.86004
403.86011
403.8602
403.86009
403.86002
403.85998
403.85997
403.85997
403.85999
403.86002
403.86008
403.86015
403.86024
403.86013
403.86006
403.86003
403.86002
403.86002
403.86004
403.86008
403.86013
403.8602
403.86029
403.86019
403.86013
403.8601
403.86008
403.86009
403.86011
403.86015
403.8602
403.86028
403.86037
403.86026
403.86021
403.86018
403.86017
403.86018
403.8602
403.86024
403.86029
403.86037
403.86047
411.52141
411.52132
411.52127
411.52125
411.52124
411.52125
411.52128
411.52133
411.52139
411.52145
411.52132
411.52124
411.52119
411.52117
411.52117
411.52118
411.52121
411.52126
411.52132
411.5214
411.52127
411.52119
411.52115
411.52113
411.52113
411.52114
411.52117
411.52122
411.52129
411.52138
411.52125
411.52117
411.52113
411.52111
411.52111
411.52112
411.52116
411.52121
411.52128
411.52137
411.52124
411.52117
411.52113
411.52111
411.52111
411.52113
411.52116
411.52121
411.52128
411.52137
411.52125
411.52118
411.52114
411.52112
411.52113
411.52114
411.52118
411.52123
411.5213
411.52139
411.52128
411.52121
411.52117
411.52116
411.52116
411.52118
411.52122
411.52127
411.52134
411.52143
411.52133
411.52126
411.52122
411.52121
411.52121
411.52123
411.52127
411.52133
411.5214
411.52149
411.52139
411.52132
411.52129
411.52128
411.52128
411.5213
411.52134
411.5214
411.52148
411.52157
411.52145
411.5214
411.52138
411.52137
411.52137
411.52139
411.52143
411.52149
411.52157
411.52167
419.14225
419.14215
419.14211
419.14209
419.14208
419.14209
419.14212
419.14217
419.14223
419.14229
419.14215
419.14207
419.14203
419.14201
419.142
419.14202
419.14205
419.1421
419.14216
419.14224
419.14211
419.14203
419.14199
419.14197
419.14197
419.14198
419.14201
419.14206
419.14213
419.14222
419.14209
419.14201
419.14197
419.14195
419.14195
419.14196
419.142
419.14205
419.14212
419.14221
419.14208
419.142
419.14197
419.14195
419.14195
419.14197
419.142
419.14205
419.14213
419.14222
419.14209
419.14202
419.14198
419.14196
419.14197
419.14198
419.14202
419.14208
419.14215
419.14224
419.14212
419.14205
419.14201
419.142
419.142
419.14202
419.14206
419.14211
419.14219
419.14228
419.14217
419.1421
419.14206
419.14205
419.14205
419.14208
419.14211
419.14217
419.14225
419.14234
419.14223
419.14216
419.14213
419.14212
419.14213
419.14215
419.14219
419.14225
419.14232
419.14242
419.14229
419.14224
419.14222
419.14221
419.14222
419.14224
419.14228
419.14234
419.14242
419.14252
426.72339
426.7233
426.72325
426.72323
426.72322
426.72324
426.72327
426.72331
426.72337
426.72344
426.7233
426.72322
426.72317
426.72315
426.72315
426.72316
426.72319
426.72324
426.72331
426.72339
426.72325
426.72317
426.72314
426.72311
426.72311
426.72313
426.72316
426.72321
426.72328
426.72337
426.72323
426.72315
426.72311
426.72309
426.72309
426.72311
426.72314
426.7232
426.72327
426.72336
426.72322
426.72315
426.72311
426.72309
426.72309
426.72311
426.72315
426.7232
426.72327
426.72336
426.72324
426.72316
426.72313
426.72311
426.72311
426.72313
426.72317
426.72322
426.7233
426.72339
426.72327
426.72319
426.72316
426.72314
426.72315
426.72317
426.72321
426.72326
426.72334
426.72343
426.72331
426.72324
426.72321
426.7232
426.7232
426.72322
426.72326
426.72332
426.7234
426.72349
426.72337
426.72331
426.72328
426.72327
426.72327
426.7233
426.72334
426.7234
426.72347
426.72357
426.72344
426.72339
426.72337
426.72336
426.72336
426.72339
426.72343
426.72349
426.72357
426.72367
434.26546
434.26537
434.26533
434.26531
434.2653
434.26532
434.26535
434.26539
434.26545
434.26552
434.26537
434.26529
434.26525
434.26523
434.26523
434.26524
434.26527
434.26532
434.26539
434.26547
434.26533
434.26525
434.26521
434.26519
434.26519
434.26521
434.26524
434.26529
434.26536
434.26545
434.26531
434.26523
434.26519
434.26518
434.26517
434.26519
434.26523
434.26528
434.26535
434.26544
434.2653
434.26523
434.26519
434.26517
434.26517
434.26519
434.26523
434.26528
434.26535
434.26544
434.26532
434.26524
434.26521
434.26519
434.26519
434.26521
434.26525
434.2653
434.26538
434.26547
434.26535
434.26527
434.26524
434.26523
434.26523
434.26525
434.26529
434.26534
434.26542
434.26551
434.26539
434.26532
434.26529
434.26528
434.26528
434.2653
434.26534
434.2654
434.26548
434.26557
434.26545
434.26539
434.26536
434.26535
434.26535
434.26538
434.26542
434.26548
434.26556
434.26565
434.26552
434.26547
434.26545
434.26544
434.26544
434.26547
434.26551
434.26557
434.26565
434.26575
441.76908
441.76899
441.76895
441.76893
441.76893
441.76894
441.76897
441.76902
441.76908
441.76914
441.76899
441.76892
441.76888
441.76886
441.76885
441.76887
441.7689
441.76895
441.76901
441.76909
441.76895
441.76888
441.76884
441.76882
441.76882
441.76883
441.76887
441.76892
441.76898
441.76907
441.76893
441.76886
441.76882
441.7688
441.7688
441.76882
441.76885
441.7689
441.76897
441.76906
441.76893
441.76885
441.76882
441.7688
441.7688
441.76882
441.76886
441.76891
441.76898
441.76907
441.76894
441.76887
441.76883
441.76882
441.76882
441.76884
441.76888
441.76893
441.769
441.76909
441.76897
441.7689
441.76887
441.76885
441.76886
441.76888
441.76892
441.76897
441.76905
441.76914
441.76902
441.76895
441.76892
441.7689
441.76891
441.76893
441.76897
441.76903
441.7691
441.7692
441.76908
441.76901
441.76898
441.76897
441.76898
441.769
441.76905
441.7691
441.76918
441.76928
441.76914
441.76909
441.76907
441.76906
441.76907
441.76909
441.76914
441.7692
441.76928
441.76938
449.23484
449.23475
449.23471
449.23469
449.23468
449.2347
449.23473
449.23477
449.23483
449.2349
449.23475
449.23467
449.23463
449.23461
449.23461
449.23463
449.23466
449.2347
449.23477
449.23485
449.23471
449.23463
449.2346
449.23458
449.23458
449.23459
449.23462
449.23467
449.23474
449.23483
449.23469
449.23461
449.23458
449.23456
449.23456
449.23458
449.23461
449.23466
449.23473
449.23482
449.23468
449.23461
449.23458
449.23456
449.23456
449.23458
449.23462
449.23467
449.23474
449.23483
449.2347
449.23463
449.23459
449.23458
449.23458
449.2346
449.23464
449.23469
449.23476
449.23485
449.23473
449.23466
449.23462
449.23461
449.23462
449.23464
449.23467
449.23473
449.2348
449.23489
449.23477
449.2347
449.23467
449.23466
449.23467
449.23469
449.23473
449.23479
449.23486
449.23495
449.23483
449.23477
449.23474
449.23473
449.23474
449.23476
449.2348
449.23486
449.23494
449.23503
449.2349
449.23485
449.23483
449.23482
449.23483
449.23485
449.23489
449.23495
449.23503
449.23513
456.66328
456.6632
456.66316
456.66314
456.66314
456.66315
456.66318
456.66323
456.66328
456.66335
456.6632
456.66313
456.66309
456.66307
456.66307
456.66308
456.66311
456.66316
456.66322
456.6633
456.66316
456.66309
456.66305
456.66304
456.66303
456.66305
456.66308
456.66313
456.6632
456.66328
456.66314
456.66307
456.66304
456.66302
456.66302
456.66304
456.66307
456.66312
456.66319
456.66327
456.66314
456.66307
456.66303
456.66302
456.66302
456.66304
456.66307
456.66313
456.6632
456.66328
456.66315
456.66308
456.66305
456.66304
456.66304
456.66306
456.6631
456.66315
456.66322
456.66331
456.66318
456.66311
456.66308
456.66307
456.66307
456.6631
456.66313
456.66319
456.66326
456.66335
456.66323
456.66316
456.66313
456.66312
456.66313
456.66315
456.66319
456.66324
456.66332
456.66341
456.66328
456.66322
456.6632
456.66319
456.6632
456.66322
456.66326
456.66332
456.66339
456.66348
456.66335
456.6633
456.66328
456.66327
456.66328
456.66331
456.66335
456.66341
456.66348
456.66358
464.05498
464.0549
464.05486
464.05484
464.05484
464.05485
464.05488
464.05492
464.05498
464.05504
464.0549
464.05482
464.05479
464.05477
464.05477
464.05478
464.05481
464.05486
464.05492
464.055
464.05486
464.05479
464.05476
464.05474
464.05474
464.05475
464.05479
464.05483
464.0549
464.05498
464.05484
464.05477
464.05474
464.05472
464.05472
464.05474
464.05477
464.05482
464.05489
464.05497
464.05484
464.05477
464.05474
464.05472
464.05472
464.05474
464.05478
464.05483
464.0549
464.05498
464.05485
464.05478
464.05475
464.05474
464.05474
464.05476
464.0548
464.05485
464.05492
464.05501
464.05488
464.05481
464.05479
464.05477
464.05478
464.0548
464.05484
464.05489
464.05496
464.05505
464.05492
464.05486
464.05483
464.05482
464.05483
464.05485
464.05489
464.05494
464.05502
464.0551
464.05498
464.05492
464.0549
464.05489
464.0549
464.05492
464.05496
464.05502
464.05509
464.05518
464.05504
464.055
464.05498
464.05497
464.05498
464.05501
464.05505
464.0551
464.05518
464.05527
471.41044
471.41036
471.41033
471.41031
471.41031
471.41032
471.41035
471.41039
471.41045
471.41051
471.41036
471.41029
471.41026
471.41024
471.41024
471.41026
471.41029
471.41033
471.41039
471.41047
471.41033
471.41026
471.41023
471.41021
471.41021
471.41023
471.41026
471.41031
471.41037
471.41045
471.41031
471.41024
471.41021
471.4102
471.4102
471.41022
471.41025
471.4103
471.41036
471.41044
471.41031
471.41024
471.41021
471.4102
471.4102
471.41022
471.41025
471.4103
471.41037
471.41045
471.41032
471.41026
471.41023
471.41022
471.41022
471.41024
471.41027
471.41032
471.41039
471.41047
471.41035
471.41029
471.41026
471.41025
471.41025
471.41027
471.41031
471.41036
471.41043
471.41051
471.41039
471.41033
471.41031
471.4103
471.4103
471.41032
471.41036
471.41041
471.41048
471.41057
471.41045
471.41039
471.41037
471.41036
471.41037
471.41039
471.41043
471.41048
471.41055
471.41064
471.41051
471.41047
471.41045
471.41044
471.41045
471.41047
471.41051
471.41057
471.41064
471.41073
478.73018
478.73011
478.73007
478.73006
478.73006
478.73007
478.7301
478.73014
478.73019
478.73025
478.73011
478.73004
478.73001
478.73
478.73
478.73001
478.73004
478.73008
478.73014
478.73021
478.73007
478.73001
478.72998
478.72997
478.72997
478.72998
478.73001
478.73006
478.73012
478.73019
478.73006
478.73
478.72997
478.72995
478.72996
478.72997
478.73
478.73005
478.73011
478.73019
478.73006
478.73
478.72997
478.72996
478.72996
478.72998
478.73001
478.73006
478.73012
478.7302
478.73007
478.73001
478.72998
478.72997
478.72998
478.72999
478.73003
478.73008
478.73014
478.73022
478.7301
478.73004
478.73001
478.73
478.73001
478.73003
478.73006
478.73011
478.73018
478.73026
478.73014
478.73008
478.73006
478.73005
478.73006
478.73008
478.73011
478.73016
478.73023
478.73031
478.73019
478.73014
478.73012
478.73011
478.73012
478.73014
478.73018
478.73023
478.7303
478.73038
478.73025
478.73021
478.73019
478.73019
478.7302
478.73022
478.73026
478.73031
478.73038
478.73047
486.01469
486.01462
486.01459
486.01458
486.01458
486.01459
486.01462
486.01465
486.01471
486.01476
486.01462
486.01456
486.01453
486.01452
486.01452
486.01453
486.01456
486.0146
486.01466
486.01473
486.01459
486.01453
486.01451
486.01449
486.01449
486.01451
486.01454
486.01458
486.01464
486.01471
486.01458
486.01452
486.01449
486.01448
486.01448
486.0145
486.01453
486.01457
486.01463
486.01471
486.01458
486.01452
486.01449
486.01448
486.01448
486.0145
486.01453
486.01458
486.01464
486.01471
486.01459
486.01453
486.01451
486.0145
486.0145
486.01452
486.01455
486.0146
486.01466
486.01474
486.01462
486.01456
486.01454
486.01453
486.01453
486.01455
486.01459
486.01463
486.0147
486.01477
486.01465
486.0146
486.01458
486.01457
486.01458
486.0146
486.01463
486.01468
486.01475
486.01482
486.01471
486.01466
486.01464
486.01463
486.01464
486.01466
486.0147
486.01475
486.01481
486.01489
486.01476
486.01473
486.01471
486.01471
486.01471
486.01474
486.01477
486.01482
486.01489
486.01498
493.26445
493.26438
493.26435
493.26434
493.26434
493.26435
493.26438
493.26441
493.26446
493.26452
493.26438
493.26433
493.2643
493.26429
493.26429
493.2643
493.26433
493.26436
493.26442
493.26448
493.26435
493.2643
493.26427
493.26426
493.26426
493.26428
493.2643
493.26434
493.2644
493.26447
493.26434
493.26429
493.26426
493.26425
493.26425
493.26427
493.2643
493.26434
493.26439
493.26446
493.26434
493.26429
493.26426
493.26425
493.26425
493.26427
493.2643
493.26434
493.2644
493.26447
493.26435
493.2643
493.26428
493.26427
493.26427
493.26429
493.26432
493.26436
493.26442
493.26449
493.26438
493.26433
493.2643
493.2643
493.2643
493.26432
493.26435
493.2644
493.26446
493.26453
493.26441
493.26436
493.26434
493.26434
493.26434
493.26436
493.2644
493.26444
493.2645
493.26458
493.26446
493.26442
493.2644
493.26439
493.2644
493.26442
493.26446
493.2645
493.26456
493.26464
493.26452
493.26448
493.26447
493.26446
493.26447
493.26449
493.26453
493.26458
493.26464
493.26472
500.4799
500.47984
500.47981
500.4798
500.4798
500.47981
500.47984
500.47987
500.47992
500.47997
500.47984
500.47979
500.47976
500.47975
500.47975
500.47977
500.47979
500.47983
500.47988
500.47994
500.47981
500.47976
500.47974
500.47973
500.47973
500.47975
500.47977
500.47981
500.47986
500.47992
500.4798
500.47975
500.47973
500.47972
500.47972
500.47974
500.47976
500.4798
500.47986
500.47992
500.4798
500.47975
500.47973