/*--------------------------------*- C++ -*----------------------------------*\
| =========                 |                                                 |
| \\      /  F ield         | OpenFOAM: The Open Source CFD Toolbox           |
|  \\    /   O peration     | Version:  v2106                                 |
|   \\  /    A nd           | Website:  www.openfoam.com                      |
|    \\/     M anipulation  |                                                 |
\*---------------------------------------------------------------------------*/
FoamFile
{
    version     2.0;
    format      ascii;
    arch        "LSB;label=32;scalar=64";
    class       volScalarField;
    location    "12.5";
    object      gradTx;
}
// * * * * * * * * * * * * * * * * * * * * * * * * * * * * * * * * * * * * * //

dimensions      [0 -1 0 1 0 0 0];

internalField   nonuniform List<scalar> 
4000
(
-1.4378294e-05
-0.00025975844
0.00016588289
0.00045074211
5.5901182e-06
-9.8736703e-05
-0.00011849103
-0.00011327011
-8.3149197e-05
-2.0474342e-05
-0.00022433911
-0.00017462604
0.00047975882
0.00033359187
-3.2479849e-05
-0.00011039408
-0.00012963008
-0.00011675876
-4.8155164e-05
7.8137911e-07
4.2376638e-05
0.00015222798
0.00036961704
0.00028656861
-4.5789222e-05
-0.00012080354
-0.00015680184
-0.0001627016
-6.3760707e-05
7.692521e-06
-1.5088504e-05
2.9108094e-05
0.00032011138
0.00027145568
-4.7323928e-05
-0.00012030421
-0.00016946377
-0.00021351995
-0.0001608679
-3.1277726e-05
-3.5723525e-05
-1.1945522e-05
0.00030748085
0.00027003941
-4.2917736e-05
-0.00011165156
-0.00015741132
-0.00020144936
-0.00015266593
-2.9394922e-05
-4.0468473e-05
-2.2271231e-05
0.00030526729
0.00027432716
-3.6030932e-05
-0.00010389342
-0.00014816281
-0.00019052409
-0.00014097947
-2.5498029e-05
-4.349511e-05
-3.4012364e-05
0.00029757071
0.00027919138
-2.6506939e-05
-9.6747448e-05
-0.00014284797
-0.00018626235
-0.0001376882
-2.4589521e-05
-4.7894512e-05
-6.0582059e-05
0.00026543361
0.00027371769
-1.4729978e-05
-8.9330072e-05
-0.00013983645
-0.00018566224
-0.00013833373
-2.4967752e-05
-4.5820879e-05
-8.3443859e-05
0.00020080954
0.00024044364
-3.5110932e-06
-8.1560452e-05
-0.00013798611
-0.00018550931
-0.00013643298
-2.3854657e-05
-2.4565158e-05
-4.1193562e-05
0.00015272088
0.00018481247
5.1584436e-06
-7.4352351e-05
-0.0001371907
-0.00018440701
-0.00012767738
-1.91307e-05
-4.9259864e-05
-0.00061083568
0.00095680894
0.0017260005
6.0696181e-05
-0.00044745824
-0.00057883963
-0.00056721249
-0.00044092274
-0.00011776076
-0.00041236496
-9.4123029e-05
0.0017554627
0.001357605
-7.3393159e-05
-0.00050039251
-0.00063734804
-0.00056383731
-0.00026266575
-2.3829229e-05
0.00029521524
0.00081740328
0.0014816177
0.0011903188
-0.0001331321
-0.00055471714
-0.00077756946
-0.00077520677
-0.00030633598
1.9736544e-05
0.00012007086
0.00043068569
0.0013041806
0.0011234346
-0.0001427817
-0.00055506821
-0.00084501175
-0.0010145652
-0.00071511075
-0.00013540281
4.9618215e-05
0.00028172155
0.0012474472
0.0011142313
-0.00012300878
-0.00051495155
-0.00079456535
-0.00097714956
-0.00070785324
-0.00013826968
3.0677977e-05
0.00023685741
0.001234792
0.0011335579
-8.9939766e-05
-0.00047725984
-0.00075113581
-0.00092968838
-0.00066219723
-0.00012395393
1.4328699e-05
0.00017446265
0.0011927715
0.0011539969
-4.5200417e-05
-0.0004427066
-0.00072586282
-0.00091054968
-0.0006494842
-0.00012099072
-8.3276385e-06
3.812757e-05
0.0010271283
0.001116562
3.9361676e-06
-0.00040855732
-0.00071210852
-0.00090803955
-0.00065237168
-0.00012266658
1.6578819e-05
-3.3531634e-05
0.00074204368
0.00095205407
3.9676369e-05
-0.00037610672
-0.000704214
-0.00090390744
-0.00062962622
-0.0001105068
0.00011051035
0.00017271433
0.00057468331
0.00071504473
5.6849689e-05
-0.00035018828
-0.00070228297
-0.00088818157
-0.0005507865
-7.0106775e-05
0.00019877262
-4.5808843e-05
0.0018495126
0.0025443775
5.5578548e-05
-0.00079427944
-0.0010650519
-0.0010431284
-0.00090763149
-0.0002870628
-0.00038659696
0.0003952154
0.0028074417
0.0020363554
-0.00013369185
-0.00089050929
-0.0012039512
-0.00099485881
-0.0004361895
-6.165934e-05
0.00049278878
0.0015204353
0.0024390392
0.0017994946
-0.00021836269
-0.00098066348
-0.0014831251
-0.0014372274
-0.00058773052
-8.6900197e-06
0.0002520224
0.00098474191
0.0021853652
0.0017016819
-0.00022560928
-0.00096865319
-0.0015842319
-0.0018192875
-0.0012125778
-0.00023833548
0.00015410733
0.00077555242
0.0021043657
0.0016920244
-0.00018825491
-0.00089682359
-0.0014990752
-0.0017644518
-0.0012109693
-0.00024604944
0.00012584214
0.00071080068
0.0020934478
0.0017317897
-0.00012880436
-0.00083089263
-0.0014262855
-0.0016902001
-0.0011457461
-0.00022674841
8.9954093e-05
0.00058916838
0.0020262218
0.0017758643
-5.0494342e-05
-0.00077230897
-0.0013864277
-0.0016645413
-0.0011366728
-0.00022708286
3.3242609e-05
0.00029272755
0.0017131672
0.0017158396
2.914197e-05
-0.00071824516
-0.001368486
-0.0016646429
-0.0011422947
-0.00022952446
0.00012213381
0.00019506935
0.0012017931
0.0014486399
7.8593041e-05
-0.00067239845
-0.0013608706
-0.0016442332
-0.0010451423
-0.00017966904
0.00034753727
0.00061262852
0.00093677889
0.0010926008
9.5973649e-05
-0.00064394859
-0.0013650346
-0.0015731125
-0.00087761598
-0.00011784024
0.00041081563
0.00040268722
0.00255894
0.0032098398
1.4353106e-05
-0.0011619623
-0.0016022986
-0.0015100139
-0.0012991709
-0.00043500252
-0.00033364971
0.00082206855
0.0036512405
0.0025892671
-0.00021291925
-0.0013019706
-0.0018724082
-0.0015054821
-0.00060558252
-9.6018038e-05
0.0006904032
0.0021207337
0.0031996448
0.0023018388
-0.00030699387
-0.0014113922
-0.0022747795
-0.0021483219
-0.00081136431
-1.3831026e-05
0.00039455063
0.0014627734
0.0028884229
0.0021855255
-0.00030392255
-0.0013808133
-0.0024054983
-0.002662556
-0.0016230146
-0.00030474416
0.00027668811
0.0012127328
0.0027959031
0.0021824752
-0.0002454746
-0.0012763695
-0.0022888021
-0.0025971475
-0.0016333153
-0.00031889848
0.00024303573
0.0011414264
0.0027974196
0.0022470448
-0.00015866884
-0.0011836888
-0.0021914442
-0.0025050939
-0.0015610853
-0.00029927568
0.0001833492
0.00096330287
0.0027170605
0.0023174979
-4.8350139e-05
-0.0011050022
-0.0021436865
-0.0024826794
-0.0015687576
-0.00030788608
6.2962637e-05
0.00046894548
0.0022643295
0.0022330221
5.5385336e-05
-0.0010385732
-0.00212974
-0.0024890794
-0.0015684873
-0.00030558905
0.00018637042
0.00032499483
0.0015599865
0.0018686724
0.00010911196
-0.00099053409
-0.0021276719
-0.0024223378
-0.0012852995
-0.00016340836
0.00052535491
0.00095675209
0.0012468974
0.0014110712
0.00011731467
-0.00097401549
-0.002137142
-0.0022056213
-0.0011050942
-0.00018545217
0.00054301389
0.0006650865
0.0031482204
0.0038047133
-4.6013386e-05
-0.0015471778
-0.0022103454
-0.0020894041
-0.0017444575
-0.00058086198
-0.00032490603
0.0011172503
0.0043824589
0.0030838045
-0.00029859383
-0.0017139664
-0.0025969329
-0.0021193598
-0.00084335821
-0.00014100908
0.00084445646
0.0025943179
0.0038567934
0.0027551908
-0.00039383951
-0.0018340449
-0.00311384
-0.0029449225
-0.0010833123
-2.5370059e-05
0.00049791965
0.0018258233
0.0034974625
0.0026278047
-0.00037512605
-0.0017812817
-0.0032730736
-0.0035879095
-0.0020719757
-0.00037351342
0.0003638506
0.0015447955
0.0034007936
0.0026364547
-0.0002926442
-0.0016434279
-0.0031271389
-0.0035166325
-0.0020985237
-0.00039528464
0.00032953268
0.0014779972
0.0034209303
0.002729
-0.00017758589
-0.001525317
-0.0030094477
-0.003414354
-0.0020291345
-0.00037884331
0.00025265815
0.0012579283
0.0033334784
0.0028270717
-3.6679494e-05
-0.0014304238
-0.0029611062
-0.0034067247
-0.002068993
-0.00040144307
7.1807691e-05
0.00057450252
0.0027447896
0.0027157012
8.6040048e-05
-0.0013592843
-0.0029627146
-0.0034326728
-0.0020693553
-0.00039451688
0.00023268767
0.0004024099
0.0018649286
0.0022553616
0.00013687608
-0.001320516
-0.0029794251
-0.0033096834
-0.0015013224
-0.00010498897
0.00067254058
0.0012356478
0.0015161721
0.0017004898
0.00012888123
-0.0013297536
-0.0030029354
-0.0028650022
-0.0012763616
-0.00024454303
0.00064555124
0.00085507334
0.0036781425
0.0043588766
-0.00011148725
-0.0019218825
-0.0028199518
-0.0026969347
-0.0022057125
-0.00072387659
-0.0003336564
0.0013548572
0.0050543084
0.0035436728
-0.00038370533
-0.0021078353
-0.003314274
-0.0027535152
-0.0011015966
-0.00018862104
0.00097874047
0.003009834
0.0044605609
0.0031794374
-0.00047538485
-0.0022339797
-0.0039413204
-0.0037543047
-0.0013709822
-4.0001946e-05
0.00058378754
0.0021372756
0.0040588563
0.0030457234
-0.00043741305
-0.0021564664
-0.004127775
-0.0045234614
-0.0025320062
-0.00044381859
0.00043527129
0.0018303949
0.0039626115
0.0030696036
-0.00032866456
-0.0019844183
-0.0039537135
-0.0044487199
-0.0025771092
-0.00047388612
0.00040230882
0.001773378
0.0040051486
0.0031924436
-0.00018454132
-0.001841672
-0.003818473
-0.0043410958
-0.0025167119
-0.00046277893
0.00031130275
0.0015182977
0.0039139803
0.003319165
-1.3870136e-05
-0.0017332777
-0.0037748279
-0.0043569287
-0.0026009461
-0.00050397733
7.2760688e-05
0.00065200934
0.0031916475
0.0031800506
0.00012476069
-0.0016627864
-0.0038012266
-0.0044165547
-0.0026189327
-0.0004982193
0.0002735824
0.00046092761
0.0021440341
0.0026247499
0.00016849553
-0.0016414865
-0.0038502868
-0.0042484252
-0.0017377909
-4.0626825e-05
0.00080883795
0.0014867396
0.0017612378
0.0019739236
0.00014005502
-0.0016866233
-0.0039034474
-0.0035533995
-0.0014408188
-0.00030023788
0.00073898891
0.001020396
0.0041717105
0.0048802199
-0.00017962907
-0.002280443
-0.0034090003
-0.0032948678
-0.0026620788
-0.00086387957
-0.0003459645
0.0015683662
0.0056843168
0.0039746715
-0.00046818276
-0.0024816099
-0.0040062183
-0.0033754694
-0.0013596984
-0.00023645857
0.0011043024
0.0033950796
0.0050261444
0.0035785921
-0.00055302112
-0.0026103388
-0.0047391053
-0.0045462027
-0.0016569907
-5.5766132e-05
0.00066243967
0.0024228001
0.0045859767
0.0034418546
-0.00049312346
-0.0025058178
-0.0049504984
-0.0054377784
-0.0029855348
-0.00051371922
0.00050060346
0.0020934518
0.0044933275
0.0034835391
-0.00035634323
-0.0022986985
-0.0047483986
-0.0053601659
-0.0030497023
-0.00055222531
0.00047007054
0.002049408
0.004561036
0.0036385324
-0.00018234524
-0.0021316063
-0.0045971169
-0.0052498124
-0.0030014123
-0.00054750287
0.00036649222
0.0017635559
0.0044691195
0.0037951795
1.7868339e-05
-0.0020112816
-0.0045613312
-0.0052941275
-0.0031367086
-0.00060975994
7.1925208e-05
0.0007193031
0.003616756
0.0036292391
0.0001710363
-0.0019445389
-0.0046180356
-0.005396243
-0.003184366
-0.00060965456
0.00031275784
0.00051222105
0.0024068105
0.0029812164
0.00020583428
-0.0019452432
-0.0047077617
-0.0051939049
-0.001990041
1.979307e-05
0.00094017885
0.0017243912
0.0019909196
0.0022365276
0.0001551588
-0.0020315452
-0.0048009893
-0.0042495754
-0.00161168
-0.00035741392
0.00082786767
0.0011729836
0.0046338065
0.005368397
-0.00025077612
-0.0026221643
-0.0039715364
-0.0038705031
-0.0031049668
-0.0010002564
-0.00035821958
0.0017657986
0.006274649
0.0043760243
-0.00055293225
-0.0028353155
-0.0046670821
-0.0039734182
-0.0016093453
-0.00028341956
0.0012230777
0.0037549631
0.0055547212
0.0039511516
-0.00062822253
-0.0029632869
-0.0055005499
-0.0053080456
-0.0019328542
-7.1380746e-05
0.00073567543
0.0026867133
0.005079226
0.0038140079
-0.00054418165
-0.002829506
-0.0057336492
-0.0063167334
-0.0034225388
-0.00058140817
0.00056149585
0.0023377176
0.0049927048
0.0038755868
-0.00037782121
-0.0025862893
-0.0055028613
-0.0062356022
-0.0035049853
-0.00062808807
0.000534238
0.0023092669
0.0050879766
0.0040644092
-0.00017305334
-0.0023947165
-0.0053361552
-0.006123726
-0.0034701975
-0.00063020406
0.00041939509
0.0019965951
0.0049985142
0.0042525843
5.6968375e-05
-0.0022632129
-0.0053100216
-0.0061993366
-0.0036599957
-0.00071471462
7.0540858e-05
0.00078025341
0.0040214095
0.0040620978
0.00022444065
-0.0022018767
-0.0054002627
-0.0063491834
-0.00374461
-0.00072300156
0.00035078502
0.00055905258
0.002655199
0.0033250276
0.00024997577
-0.0022269472
-0.005535479
-0.0061206316
-0.002244816
7.6370591e-05
0.0010676219
0.001952366
0.0022082161
0.0024899667
0.00017678194
-0.002356887
-0.0056746752
-0.0049340038
-0.0017848348
-0.00041634739
0.00091251709
0.0013144505
0.0050629904
0.0058202464
-0.00032532355
-0.0029457903
-0.0045037397
-0.0044172747
-0.0035286841
-0.0011317421
-0.00036969975
0.0019474725
0.0068221716
0.004744794
-0.00063835319
-0.003167633
-0.0052924372
-0.0045405212
-0.00184526
-0.00032836044
0.0013345318
0.0040877803
0.0060429631
0.0042940192
-0.00070153959
-0.0032913405
-0.0062201805
-0.006031609
-0.0021925976
-8.5604646e-05
0.00080308769
0.0029274452
0.0055350926
0.0041588437
-0.00059129626
-0.0031259355
-0.0064709799
-0.0071506512
-0.0038353849
-0.00064509283
0.0006175635
0.0025615532
0.0054570128
0.004242222
-0.0003938573
-0.0028454333
-0.0062103495
-0.0070645283
-0.0039344458
-0.00069940541
0.00059440127
0.0025512292
0.0055821495
0.004466526
-0.00015729178
-0.0026288978
-0.0060282222
-0.0069514744
-0.0039136218
-0.00070851156
0.00046966839
0.002216003
0.0054987104
0.0046881292
0.00010318036
-0.0024863742
-0.0060126442
-0.0070599463
-0.0041597609
-0.00081588226
6.8602958e-05
0.00083478837
0.0044036068
0.004476357
0.00028546595
-0.0024311924
-0.0061383493
-0.0072609299
-0.0042862128
-0.00083440527
0.00038750406
0.00060166869
0.0028885804
0.0036552099
0.00030235718
-0.0024817922
-0.0063220997
-0.0070124656
-0.0024909054
0.0001310452
0.0011908857
0.0021708749
0.0024134818
0.0027345088
0.0002072291
-0.0026565075
-0.0065109403
-0.0055920744
-0.0019525876
-0.00047552671
0.00099233718
0.0014438298
0.0054557929
0.0062317263
-0.0004032186
-0.0032489673
-0.0050012231
-0.0049296605
-0.0039283467
-0.0012569454
-0.00038032864
0.0021116934
0.0073220362
0.005077439
-0.00072420451
-0.0034759459
-0.0058771229
-0.0050708581
-0.0020632662
-0.00037025253
0.0014375796
0.0043901748
0.0064862156
0.0046037826
-0.00077268838
-0.0035916153
-0.0068918275
-0.0067095472
-0.0024314119
-9.7425106e-05
0.00086383358
0.0031421161
0.0059490512
0.004472947
-0.0006341936
-0.0033920751
-0.0071556779
-0.0079308827
-0.004217705
-0.00070325344
0.00066805477
0.0027622311
0.0058817235
0.0045800055
-0.00040414975
-0.0030729637
-0.0068637193
-0.0078377465
-0.004331113
-0.00076446845
0.00064984298
0.0027726463
0.0060390621
0.0048414856
-0.00013463009
-0.0028307262
-0.0066657701
-0.0077233373
-0.0043241924
-0.00078055629
0.00051673565
0.0024195831
0.0059655944
0.005098657
0.00015719914
-0.0026769335
-0.0066610756
-0.0078655096
-0.0046276958
-0.00091111426
6.5909732e-05
0.00088204187
0.0047605072
0.0048695938
0.0003552777
-0.0026280825
-0.0068234075
-0.0081201082
-0.0047998465
-0.00094136635
0.00042260391
0.00063969632
0.0031055698
0.0039704577
0.00036474453
-0.0027046966
-0.0070578465
-0.0078573838
-0.0027202545
0.00018536369
0.0013092967
0.0023789767
0.0026060685
0.0029698927
0.00024879026
-0.0029246653
-0.0072990616
-0.0062126668
-0.0021082037
-0.00053333249
0.0010664785
0.0015594153
0.005808069
0.0065985886
-0.00048394141
-0.0035285099
-0.0054588479
-0.005402047
-0.0042992861
-0.0013744904
-0.00039020678
0.0022561618
0.007768836
0.0053703486
-0.00080970725
-0.0037567533
-0.0064151787
-0.0055584462
-0.0022596172
-0.00040819215
0.0015309762
0.0046583189
0.0068794614
0.0048771015
-0.00084076758
-0.0038603147
-0.007508539
-0.0073344704
-0.0026450189
-0.00010602341
0.0009169712
0.0033275542
0.0063163728
0.0047530903
-0.00067192659
-0.0036239948
-0.0077802343
-0.0086488301
-0.0045637378
-0.00075459246
0.0007121495
0.0029368318
0.0062622031
0.0048857511
-0.00040770856
-0.0032648657
-0.0074552599
-0.0085462875
-0.0046887899
-0.00082184046
0.00069979396
0.002970728
0.0064541535
0.0051861493
-0.00010398754
-0.0029960202
-0.0072408398
-0.0084300324
-0.0046954045
-0.00084480803
0.00055998725
0.002605027
0.0063949616
0.0054812
0.00022026598
-0.0028304466
-0.0072469872
-0.0086062978
-0.0050568232
-0.000998723
6.2240116e-05
0.00092103699
0.0050890979
0.0052394283
0.000435407
-0.0027877475
-0.0074466408
-0.0089164976
-0.0052781399
-0.0010420905
0.00045572112
0.00067260367
0.0033045778
0.0042693829
0.00043906362
-0.0028904569
-0.0077334524
-0.0086450785
-0.0029268722
0.00024029821
0.0014220194
0.0025753042
0.0027849773
0.0031956574
0.00030374027
-0.0031557807
-0.0080293761
-0.0067865467
-0.002246384
-0.00058843171
0.001133969
0.0016591885
0.0061154686
0.0069166697
-0.00056653695
-0.0037806404
-0.0058708843
-0.0058285029
-0.0046367641
-0.0014829854
-0.00039953372
0.0023783237
0.0081570409
0.0056200768
-0.00089362603
-0.0040059567
-0.0069000248
-0.0059970076
-0.0024306272
-0.00044131586
0.0016133925
0.0048882181
0.0072176708
0.0051108655
-0.00090440225
-0.0040930589
-0.0080627548
-0.0078986967
-0.0028292647
-0.00011066003
0.00096151453
0.0034805259
0.006632392
0.004996318
-0.00070307458
-0.0038172245
-0.0083366027
-0.0092956635
-0.0048678887
-0.00079790539
0.00074899719
0.0030824138
0.0065939121
0.0051565531
-0.00040309532
-0.00341665
-0.0079768276
-0.0091810702
-0.0050015475
-0.00087020619
0.00074345515
0.0031426607
0.0068229435
0.0054976249
-6.3892273e-05
-0.0031202102
-0.0077451548
-0.0090622974
-0.0050211358
-0.0008998898
0.00059878634
0.0027699953
0.0067826443
0.0058329621
0.00029391891
-0.0029421926
-0.0077618656
-0.0092727524
-0.0054406916
-0.0010772179
5.7361497e-05
0.00095079025
0.0053863656
0.0055835521
0.00052755553
-0.0029052482
-0.007999228
-0.0096402466
-0.0057145016
-0.0011350758
0.00048644986
0.0006998015
0.0034839884
0.0045505886
0.00052728507
-0.0030338748
-0.0083398148
-0.0093658842
-0.0031058076
0.00029646312
0.0015281194
0.0027582896
0.0029491041
0.0034112694
0.00037430846
-0.0033443924
-0.0086925938
-0.0073053626
-0.0023627648
-0.00063971386
0.0011937477
0.0017409535
0.0063736729
0.0071820843
-0.00064962789
-0.0040011458
-0.0062311779
-0.0062027864
-0.0049358614
-0.0015809856
-0.00040859616
0.0024755041
0.0084812501
0.0058235059
-0.00097430926
-0.0042190443
-0.0073246466
-0.0063799676
-0.0025725085
-0.00046873781
0.0016834481
0.0050758566
0.0074960123
0.0053023145
-0.0009618207
-0.0042850972
-0.0085465034
-0.0083942514
-0.0029799332
-0.00011059685
0.0009964553
0.0035978435
0.0068926725
0.0052000246
-0.00072585406
-0.0039669878
-0.008816399
-0.0098623158
-0.0051245389
-0.00083200065
0.0007777292
0.0031960868
0.0068725309
0.0053898291
-0.00038855804
-0.0035235959
-0.0084200352
-0.0097328701
-0.0052635053
-0.0009082825
0.00078000107
0.0032856507
0.0071411277
0.0057732872
-1.2626733e-05
-0.0031985757
-0.008170286
-0.0096108141
-0.0052953769
-0.00094447232
0.00063246354
0.0029121353
0.0071245873
0.0061513305
0.00037985413
-0.003007387
-0.0081971304
-0.0098553356
-0.0057730136
-0.001145167
5.1021927e-05
0.00097032515
0.0056493753
0.0058997555
0.00063348627
-0.0029756709
-0.0084723617
-0.010281603
-0.0061025885
-0.0012189082
0.00051434273
0.00072067027
0.0036422391
0.0048127118
0.00063135584
-0.0031298525
-0.0088679195
-0.010010353
-0.0032525727
0.00035429364
0.0016265905
0.0029262533
0.0030973449
0.0036161834
0.00046264834
-0.0034851793
-0.0092795733
-0.0077611622
-0.0024534638
-0.00068616895
0.0012446876
0.001802422
0.0065785791
0.0073913963
-0.00073141683
-0.0041855025
-0.0065333163
-0.0065184465
-0.0051914874
-0.0016669862
-0.00041776202
0.002545008
0.0087364067
0.0059779971
-0.0010497111
-0.0043912364
-0.0076817835
-0.0067005577
-0.0026813475
-0.00048952636
0.0017397449
0.0052173326
0.0077100453
0.0054491622
-0.0010109006
-0.0044314774
-0.0089516166
-0.0088129903
-0.003092718
-0.00010506639
0.0010207897
0.0036764742
0.0070931716
0.0053620517
-0.00073818657
-0.0040683894
-0.0092111307
-0.010339622
-0.0053280363
-0.00085567474
0.00079747878
0.0032750985
0.0070940999
0.0055833956
-0.00036211425
-0.0035809452
-0.0087764783
-0.010192451
-0.0054688142
-0.00093479118
0.0008085935
0.0033969904
0.0074046961
0.0060108381
5.1682656e-05
-0.0032264353
-0.0085078624
-0.010066317
-0.0055121897
-0.00097723942
0.00066032286
0.0030291236
0.007416947
0.0064339278
0.00047983979
-0.0030213561
-0.0085443162
-0.010344598
-0.0060475784
-0.0012011472
4.2948697e-05
0.00097869015
0.0058753489
0.0061859764
0.00075495091
-0.0029942733
-0.0088573849
-0.010830917
-0.0064361351
-0.0012921824
0.00053891538
0.00073457979
0.0037778827
0.0050544674
0.00075314446
-0.0031735033
-0.0093089158
-0.010569171
-0.0033629009
0.00041414023
0.0017163753
0.0030774596
0.0032286602
0.0038098802
0.00057079745
-0.0035730374
-0.0097813303
-0.0081462394
-0.0025148413
-0.00072680936
0.0012856235
0.0018412997
0.0067264782
0.0075417863
-0.00080969258
-0.0043290048
-0.0067708177
-0.0067689849
-0.0053984685
-0.0017394411
-0.00042746951
0.0025842288
0.0089180124
0.0060815377
-0.0011174142
-0.004517634
-0.0079641451
-0.0069519872
-0.0027531666
-0.00050270864
0.0017809096
0.0053090072
0.0078559188
0.0055497249
-0.0010492101
-0.004527216
-0.0092699768
-0.0091468039
-0.0031632925
-9.3272284e-05
0.0010335533
0.0037136695
0.0072304184
0.0054807987
-0.00073775542
-0.0041165986
-0.0095124635
-0.010718553
-0.0054727976
-0.00086772305
0.0008074105
0.0033169458
0.0072551799
0.005735563
-0.00032161854
-0.0035840929
-0.0090380055
-0.010550799
-0.0056117613
-0.00094847098
0.00082840558
0.003474152
0.0076100772
0.0062083902
0.0001309929
-0.0031993364
-0.0087498344
-0.010419818
-0.005665802
-0.00099689689
0.00068165767
0.0031187347
0.0076562153
0.0066786861
0.0005956437
-0.0029797172
-0.0087953181
-0.010731379
-0.0062583212
-0.0012437457
3.2853993e-05
0.00097499287
0.0060617588
0.0064403616
0.00089362192
-0.002956649
-0.0091460094
-0.0112788
-0.0067089751
-0.0013534853
0.00055965616
0.00074091569
0.0038896494
0.0052746908
0.00089437827
-0.0031602968
-0.0096543
-0.011033259
-0.0034327007
0.00047630723
0.0017963886
0.0032101689
0.0033421278
0.0039918927
0.0007006175
-0.0036032089
-0.010189183
-0.0084531799
-0.0025434291
-0.00076063752
0.0013153863
0.0018553871
0.0068142367
0.0076312111
-0.00088185055
-0.0044269116
-0.0069373514
-0.0069480664
-0.0055516908
-0.0017967979
-0.00043820846
0.0025907726
0.0090223461
0.0061328832
-0.0011746654
-0.0045933857
-0.0081646632
-0.0071276679
-0.0027840425
-0.00050729328
0.0018056432
0.0053476711
0.0079305756
0.0056030464
-0.0010740583
-0.0045674852
-0.009493806
-0.0093878842
-0.0031874422
-7.4409392e-05
0.0010338645
0.0037071115
0.0073017018
0.0055553334
-0.00072206868
-0.0041070515
-0.0097125317
-0.010990518
-0.0055534815
-0.00086697272
0.00080675795
0.0033195064
0.0073530258
0.0058452358
-0.00026483403
-0.0035287939
-0.0091970338
-0.010799435
-0.0056869519
-0.00094811339
0.00083865458
0.0035149037
0.0077542985
0.0063645576
0.00022726803
-0.0031132623
-0.0088887861
-0.01066291
-0.0057507838
-0.001002207
0.00069577525
0.0031789328
0.0078393599
0.0068839272
0.00072895515
-0.0028785826
-0.0089426951
-0.011007097
-0.0063994871
-0.0012715898
2.0446739e-05
0.0009584492
0.00620643
0.0066613297
0.0010510136
-0.0028589236
-0.0093306024
-0.011616394
-0.0069151722
-0.0014014148
0.00057604093
0.000739115
0.0039765102
0.005472376
0.0010565627
-0.0030862441
-0.0098961793
-0.011394001
-0.0034581193
0.00054106017
0.0018655456
0.0033226978
0.0034369911
0.00416182
0.00085371126
-0.0035714588
-0.010494991
-0.0086750263
-0.0025359651
-0.00078664531
0.0013328453
0.0018426998
0.0068394832
0.0076585522
-0.00094493339
-0.0044746191
-0.0070269925
-0.0070497706
-0.0056462832
-0.0018375468
-0.00045049251
0.0025626007
0.0090466827
0.006131686
-0.0012184309
-0.0046138789
-0.0082767801
-0.0072214835
-0.0027702687
-0.00050230679
0.0018127793
0.0053307253
0.0079319564
0.0056090121
-0.0010825638
-0.0045478246
-0.0096159909
-0.0095290391
-0.0031612443
-4.7698302e-05
0.0010209738
0.0036550739
0.0073052583
0.0055854935
-0.00068853749
-0.0040356733
-0.0098042871
-0.011147715
-0.0055652113
-0.00085233071
0.00079486849
0.0032811851
0.0073857638
0.005912004
-0.00018951766
-0.0034113919
-0.0092469038
-0.010930774
-0.0056895427
-0.00093261418
0.00083864218
0.0035174436
0.0078351516
0.0064785396
0.00034238944
-0.002964863
-0.0089182902
-0.010788127
-0.0057622808
-0.0009920401
0.00070202863
0.0032079797
0.0079639694
0.0070484367
0.00088129258
-0.0027147875
-0.0089800195
-0.011164104
-0.0064658553
-0.0012833966
5.4504254e-06
0.00092844515
0.0063076447
0.0068476266
0.0012283864
-0.0026979787
-0.0094045262
-0.011835703
-0.0070492195
-0.0014346196
0.00058755339
0.00072871129
0.004037738
0.005646702
0.0012408809
-0.0029481177
-0.010027596
-0.011643539
-0.0034356747
0.00060861477
0.0019227934
0.003413484
0.0035127021
0.0043193282
0.0010313168
-0.0034742913
-0.010691465
-0.0088055221
-0.0024894973
-0.00080383462
0.0013369593
0.0018016054
0.0068007904
0.0076237429
-0.00099569591
-0.0044678584
-0.0070345068
-0.0070688794
-0.005677835
-0.0018602792
-0.00046482166
0.002498188
0.0089895025
0.006078602
-0.0012454738
-0.0045749565
-0.0082947688
-0.0072280965
-0.0027085522
-0.00048684121
0.0018013478
0.0052563727
0.0078591933
0.0055684406
-0.0010717436
-0.0044643733
-0.0096304413
-0.0095640471
-0.0030812847
-1.243175e-05
0.00099431972
0.0035565909
0.0072404515
0.0055719688
-0.00063457353
-0.0038991216
-0.0097818774
-0.011183528
-0.0055038354
-0.0008228437
0.00077125387
0.0032010704
0.0073525601
0.0059362184
-9.3522948e-05
-0.0032290666
-0.0091822637
-0.010938526
-0.0056155137
-0.00090103695
0.00082780115
0.0034805432
0.0078513517
0.0065501895
0.00047804974
-0.0027517037
-0.0088332925
-0.010789348
-0.0056962867
-0.00096543818
0.00069985513
0.0032045556
0.008028395
0.007171525
0.001053895
-0.0024861393
-0.0089022595
-0.011196083
-0.0064530081
-0.0012780352
-1.2373497e-05
0.00088460871
0.0063642431
0.0069983671
0.0014266346
-0.0024716995
-0.0093625149
-0.011929981
-0.0071062883
-0.001451854
0.00059371034
0.00070938783
0.0040729637
0.0057970458
0.001448075
-0.0027436966
-0.010042893
-0.011775129
-0.0033624341
0.000679113
0.0019671483
0.003481159
0.00356896
0.0044641381
0.0012341833
-0.0033091939
-0.010772516
-0.0088394069
-0.0024015331
-0.0008112534
0.0013268341
0.0017309763
0.0066978478
0.0075278662
-0.0010306965
-0.0044029151
-0.0069556583
-0.0070011892
-0.0056426389
-0.0018637553
-0.00048163592
0.0023966906
0.0088506831
0.0059753678
-0.001252458
-0.0044731519
-0.0082140739
-0.0071432822
-0.002596241
-0.00046011202
0.0017706437
0.0051238097
0.0077127834
0.005483148
-0.0010386258
-0.0043141208
-0.0095324663
-0.0094880379
-0.0029449051
3.1968491e-05
0.00095358764
0.0034116262
0.0071079302
0.0055163556
-0.00055770682
-0.0036950436
-0.0096410414
-0.011092939
-0.0053662156
-0.00077776779
0.00073564472
0.0030790915
0.0072537713
0.005919039
2.50791e-05
-0.0029800929
-0.0089994683
-0.010818126
-0.0054619662
-0.00085268611
0.00080574662
0.003403697
0.0078026814
0.0065800605
0.00063563027
-0.0024725244
-0.0086305115
-0.010662223
-0.0055499431
-0.0009216889
0.00068882016
0.0031678858
0.0080318796
0.007253067
0.0012475982
-0.0021916766
-0.0087061773
-0.011098474
-0.006357629
-0.0012546005
-3.3197135e-05
0.00082688897
0.006375714
0.0071130585
0.0016461601
-0.0021792334
-0.0092010692
-0.011894148
-0.0070825105
-0.0014520447
0.00059409154
0.00068103711
0.004082223
0.0059229793
0.0016783143
-0.0024720246
-0.0099381029
-0.011783529
-0.0032362253
0.0007525891
0.0019977348
0.0035246228
0.0036057394
0.0045959974
0.0014624327
-0.0030748961
-0.010733637
-0.0087727446
-0.0022702241
-0.00080804393
0.001301786
0.0016303496
0.0065316117
0.0073732151
-0.0010464157
-0.0042768658
-0.0067875293
-0.00684384
-0.0055379533
-0.0018469778
-0.00050126173
0.0022581171
0.0086316595
0.0058248386
-0.0012360761
-0.0043059386
-0.0080316645
-0.0069642775
-0.0024315731
-0.00042152423
0.0017202976
0.0049334108
0.0074947287
0.0053559734
-0.00098038336
-0.0040951658
-0.0093191575
-0.0092978854
-0.0027504724
8.5885868e-05
0.00089877014
0.0032212341
0.0069097561
0.0054211761
-0.0004557226
-0.0034223376
-0.0093795053
-0.010872954
-0.0051505327
-0.00071664547
0.00068804657
0.0029161691
0.0070910662
0.0058624529
0.00016786285
-0.0026641016
-0.008696976
-0.010567154
-0.0052274359
-0.00078718632
0.00077232986
0.0032872664
0.0076901096
0.0065694223
0.00081606479
-0.0021275002
-0.0083088343
-0.010404599
-0.0053218537
-0.0008604056
0.00066866468
0.0030978691
0.0079746671
0.0072935171
0.0014627003
-0.0018319285
-0.0083907248
-0.010868896
-0.0061778192
-0.0012124943
-5.7093617e-05
0.00075563827
0.0063422688
0.0071916038
0.0018867358
-0.001821249
-0.008918852
-0.011725214
-0.0069752834
-0.0014343669
0.00058837298
0.00064382364
0.004065991
0.0060242486
0.0019310551
-0.0021336703
-0.0097113399
-0.011665398
-0.0030558716
0.00082892702
0.0020138265
0.0035431191
0.0036233091
0.0047146403
0.0017154149
-0.0027716323
-0.010572282
-0.0086032664
-0.002094573
-0.00079350114
0.0012614079
0.0015000861
0.006304424
0.0071633072
-0.0010394015
-0.0040878232
-0.006528841
-0.0065956446
-0.0053622726
-0.0018092698
-0.00052385357
0.0020834905
0.0083355418
0.0056309825
-0.0011932015
-0.004071984
-0.0077463818
-0.0066901323
-0.0022139388
-0.00037074483
0.0016503441
0.0046868945
0.007208634
0.0051907626
-0.00089448915
-0.0038069753
-0.0089897616
-0.0089925968
-0.0024976591
0.00014943685
0.00083022495
0.0029877005
0.0066494891
0.0052898573
-0.00032681484
-0.0030814111
-0.0089973633
-0.010523014
-0.0048565959
-0.00063938692
0.00062879431
0.0027143499
0.0068675088
0.005769253
0.00033589752
-0.0022823326
-0.0082757256
-0.010185756
-0.0049122065
-0.00070456539
0.00072769161
0.0031326128
0.0075158758
0.006520244
0.0010196931
-0.0017184898
-0.0078696906
-0.010016934
-0.0050123995
-0.00078161096
0.00063935374
0.0029951978
0.0078580817
0.0072938956
0.0016988188
-0.0014091606
-0.0079574174
-0.01050757
-0.0059134164
-0.0011515104
-8.4002248e-05
0.00067169215
0.0062648942
0.00723428
0.0021473658
-0.0014001816
-0.0085170627
-0.01142269
-0.0067835832
-0.0013983263
0.00057636198
0.00059824567
0.0040252001
0.006100736
0.0022048983
-0.001730974
-0.0093631733
-0.011419695
-0.0028214383
0.00090781139
0.0020148869
0.0035363056
0.003622237
0.0048197326
0.0019915623
-0.0024013915
-0.010288246
-0.0083307122
-0.0018746563
-0.00076713835
0.0012056346
0.0013415183
0.0060200876
0.0069028466
-0.0010064385
-0.0038351816
-0.0061802603
-0.0062574076
-0.0051155948
-0.0017503532
-0.00054933484
0.0018749921
0.0079671799