/*--------------------------------*- C++ -*----------------------------------*\
| =========                 |                                                 |
| \\      /  F ield         | OpenFOAM: The Open Source CFD Toolbox           |
|  \\    /   O peration     | Version:  v2106                                 |
|   \\  /    A nd           | Website:  www.openfoam.com                      |
|    \\/     M anipulation  |                                                 |
\*---------------------------------------------------------------------------*/
FoamFile
{
    version     2.0;
    format      ascii;
    arch        "LSB;label=32;scalar=64";
    class       volVectorField;
    location    "12.5";
    object      gradT;
}
// * * * * * * * * * * * * * * * * * * * * * * * * * * * * * * * * * * * * * //

dimensions      [0 -1 0 1 0 0 0];

internalField   nonuniform List<vector> 
4000
(
(-1.4378294e-05 -1.4378296e-05 185.34398)
(-0.00025975844 -0.00022433912 185.34389)
(0.00016588289 4.2376638e-05 185.34306)
(0.00045074211 -1.5088496e-05 185.34486)
(5.5901182e-06 -3.5723523e-05 185.34511)
(-9.8736703e-05 -4.0468475e-05 185.34491)
(-0.00011849103 -4.3495108e-05 185.34461)
(-0.00011327011 -4.7894512e-05 185.34429)
(-8.3149197e-05 -4.5820878e-05 185.34401)
(-2.0474342e-05 -2.4565157e-05 185.34383)
(-0.00022433911 -0.00025975844 185.34389)
(-0.00017462604 -0.00017462605 185.34281)
(0.00047975882 0.00015222798 185.34348)
(0.00033359187 2.9108103e-05 185.34494)
(-3.2479849e-05 -1.1945525e-05 185.34505)
(-0.00011039408 -2.2271237e-05 185.34482)
(-0.00012963008 -3.4012364e-05 185.3445)
(-0.00011675876 -6.0582053e-05 185.34414)
(-4.8155164e-05 -8.3443857e-05 185.34389)
(7.8137911e-07 -4.1193562e-05 185.34387)
(4.2376638e-05 0.0001658829 185.34306)
(0.00015222798 0.00047975881 185.34348)
(0.00036961704 0.00036961704 185.34391)
(0.00028656861 0.00032011137 185.34521)
(-4.5789222e-05 0.00030748085 185.34527)
(-0.00012080354 0.0003052673 185.34503)
(-0.00015680184 0.00029757072 185.34466)
(-0.0001627016 0.00026543361 185.34419)
(-6.3760707e-05 0.00020080953 185.34382)
(7.692521e-06 0.00015272088 185.34386)
(-1.5088504e-05 0.00045074211 185.34486)
(2.9108094e-05 0.00033359186 185.34494)
(0.00032011138 0.00028656861 185.34521)
(0.00027145568 0.00027145568 185.34644)
(-4.7323928e-05 0.00027003941 185.3465)
(-0.00012030421 0.00027432717 185.34625)
(-0.00016946377 0.00027919139 185.34589)
(-0.00021351995 0.00027371769 185.34535)
(-0.0001608679 0.00024044363 185.34478)
(-3.1277726e-05 0.00018481247 185.34455)
(-3.5723525e-05 5.5901071e-06 185.34511)
(-1.1945522e-05 -3.2479846e-05 185.34505)
(0.00030748085 -4.5789218e-05 185.34527)
(0.00027003941 -4.7323931e-05 185.3465)
(-4.2917736e-05 -4.2917739e-05 185.34656)
(-0.00011165156 -3.6030934e-05 185.34633)
(-0.00015741132 -2.650695e-05 185.34599)
(-0.00020144936 -1.472998e-05 185.34549)
(-0.00015266593 -3.5110958e-06 185.34493)
(-2.9394922e-05 5.1584496e-06 185.34471)
(-4.0468473e-05 -9.8736704e-05 185.34491)
(-2.2271231e-05 -0.00011039408 185.34482)
(0.00030526729 -0.00012080355 185.34503)
(0.00027432716 -0.00012030422 185.34625)
(-3.6030932e-05 -0.00011165157 185.34633)
(-0.00010389342 -0.00010389342 185.34612)
(-0.00014816281 -9.6747451e-05 185.3458)
(-0.00019052409 -8.9330072e-05 185.34533)
(-0.00014097947 -8.156045e-05 185.3448)
(-2.5498029e-05 -7.4352349e-05 185.3446)
(-4.349511e-05 -0.00011849102 185.34461)
(-3.4012364e-05 -0.00012963008 185.3445)
(0.00029757071 -0.00015680185 185.34466)
(0.00027919138 -0.00016946376 185.34589)
(-2.6506939e-05 -0.00015741132 185.34599)
(-9.6747448e-05 -0.00014816281 185.3458)
(-0.00014284797 -0.00014284797 185.3455)
(-0.00018626235 -0.00013983645 185.34503)
(-0.0001376882 -0.00013798612 185.34452)
(-2.4589521e-05 -0.0001371907 185.34433)
(-4.7894512e-05 -0.00011327011 185.34429)
(-6.0582059e-05 -0.00011675876 185.34414)
(0.00026543361 -0.0001627016 185.34419)
(0.00027371769 -0.00021351994 185.34535)
(-1.4729978e-05 -0.00020144935 185.34549)
(-8.9330072e-05 -0.0001905241 185.34533)
(-0.00013983645 -0.00018626235 185.34503)
(-0.00018566224 -0.00018566224 185.34457)
(-0.00013833373 -0.0001855093 185.34406)
(-2.4967752e-05 -0.00018440701 185.34386)
(-4.5820879e-05 -8.3149198e-05 185.34401)
(-8.3443859e-05 -4.8155166e-05 185.34389)
(0.00020080954 -6.37607e-05 185.34382)
(0.00024044364 -0.0001608679 185.34478)
(-3.5110932e-06 -0.00015266592 185.34493)
(-8.1560452e-05 -0.00014097948 185.3448)
(-0.00013798611 -0.0001376882 185.34452)
(-0.00018550931 -0.00013833373 185.34406)
(-0.00013643298 -0.00013643296 185.34355)
(-2.3854657e-05 -0.00012767739 185.34336)
(-2.4565158e-05 -2.0474342e-05 185.34383)
(-4.1193562e-05 7.8137909e-07 185.34387)
(0.00015272088 7.692523e-06 185.34386)
(0.00018481247 -3.1277724e-05 185.34455)
(5.1584436e-06 -2.9394925e-05 185.34471)
(-7.4352351e-05 -2.5498032e-05 185.3446)
(-0.0001371907 -2.4589525e-05 185.34433)
(-0.00018440701 -2.4967763e-05 185.34386)
(-0.00012767738 -2.3854658e-05 185.34336)
(-1.91307e-05 -1.91307e-05 185.34324)
(-4.9259864e-05 -4.9259861e-05 277.45465)
(-0.00061083568 -0.00041236495 277.45497)
(0.00095680894 0.00029521524 277.45486)
(0.0017260005 0.00012007087 277.45665)
(6.0696181e-05 4.9618211e-05 277.45695)
(-0.00044745824 3.0677972e-05 277.4567)
(-0.00057883963 1.4328702e-05 277.45626)
(-0.00056721249 -8.3276348e-06 277.45575)
(-0.00044092274 1.6578822e-05 277.45533)
(-0.00011776076 0.00011051035 277.45493)
(-0.00041236496 -0.00061083569 277.45497)
(-9.4123029e-05 -9.4123027e-05 277.45472)
(0.0017554627 0.00081740328 277.45554)
(0.001357605 0.00043068569 277.45705)
(-7.3393159e-05 0.00028172155 277.45724)
(-0.00050039251 0.00023685741 277.45695)
(-0.00063734804 0.00017446265 277.45646)
(-0.00056383731 3.8127576e-05 277.45587)
(-0.00026266575 -3.3531628e-05 277.45558)
(-2.3829229e-05 0.00017271433 277.45549)
(0.00029521524 0.00095680893 277.45486)
(0.00081740328 0.0017554627 277.45554)
(0.0014816177 0.0014816176 277.45623)
(0.0011903188 0.0013041806 277.4576)
(-0.0001331321 0.0012474473 277.45774)
(-0.00055471714 0.001234792 277.45743)
(-0.00077756946 0.0011927715 277.45688)
(-0.00077520677 0.0010271283 277.45611)
(-0.00030633598 0.00074204368 277.45561)
(1.9736544e-05 0.00057468331 277.45558)
(0.00012007086 0.0017260005 277.45665)
(0.00043068569 0.001357605 277.45705)
(0.0013041806 0.0011903188 277.4576)
(0.0011234346 0.0011234346 277.45892)
(-0.0001427817 0.0011142313 277.45904)
(-0.00055506821 0.0011335579 277.45874)
(-0.00084501175 0.0011539969 277.45819)
(-0.0010145652 0.001116562 277.45732)
(-0.00071511075 0.00095205406 277.45658)
(-0.00013540281 0.00071504473 277.45627)
(4.9618215e-05 6.0696178e-05 277.45695)
(0.00028172155 -7.339315e-05 277.45724)
(0.0012474472 -0.0001331321 277.45774)
(0.0011142313 -0.00014278171 277.45904)
(-0.00012300878 -0.00012300879 277.45916)
(-0.00051495155 -8.9939772e-05 277.45889)
(-0.00079456535 -4.5200422e-05 277.45838)
(-0.00097714956 3.9361663e-06 277.45755)
(-0.00070785324 3.9676371e-05 277.45681)
(-0.00013826968 5.6849689e-05 277.45649)
(3.0677977e-05 -0.00044745824 277.4567)
(0.00023685741 -0.00050039251 277.45695)
(0.001234792 -0.00055471714 277.45743)
(0.0011335579 -0.00055506821 277.45874)
(-8.9939766e-05 -0.00051495155 277.45889)
(-0.00047725984 -0.00047725984 277.45864)
(-0.00075113581 -0.00044270661 277.45816)
(-0.00092968838 -0.00040855732 277.45737)
(-0.00066219723 -0.00037610672 277.45666)
(-0.00012395393 -0.00035018828 277.45636)
(1.4328699e-05 -0.00057883962 277.45626)
(0.00017446265 -0.00063734804 277.45646)
(0.0011927715 -0.00077756946 277.45688)
(0.0011539969 -0.00084501175 277.45819)
(-4.5200417e-05 -0.00079456535 277.45838)
(-0.0004427066 -0.00075113582 277.45816)
(-0.00072586282 -0.00072586282 277.4577)
(-0.00091054968 -0.00071210852 277.45692)
(-0.0006494842 -0.000704214 277.45622)
(-0.00012099072 -0.00070228297 277.45592)
(-8.3276385e-06 -0.00056721248 277.45575)
(3.812757e-05 -0.0005638373 277.45587)
(0.0010271283 -0.00077520676 277.45611)
(0.001116562 -0.0010145652 277.45732)
(3.9361676e-06 -0.00097714955 277.45755)
(-0.00040855732 -0.00092968838 277.45737)
(-0.00071210852 -0.00091054968 277.45692)
(-0.00090803955 -0.00090803955 277.45614)
(-0.00065237168 -0.00090390744 277.45544)
(-0.00012266658 -0.00088818157 277.45513)
(1.6578819e-05 -0.00044092274 277.45533)
(-3.3531634e-05 -0.00026266575 277.45558)
(0.00074204368 -0.00030633598 277.45561)
(0.00095205407 -0.00071511075 277.45658)
(3.9676369e-05 -0.00070785324 277.45681)
(-0.00037610672 -0.00066219723 277.45666)
(-0.000704214 -0.0006494842 277.45622)
(-0.00090390744 -0.00065237168 277.45544)
(-0.00062962622 -0.00062962622 277.45477)
(-0.0001105068 -0.00055078651 277.45453)
(0.00011051035 -0.00011776076 277.45493)
(0.00017271433 -2.3829229e-05 277.45549)
(0.00057468331 1.9736544e-05 277.45558)
(0.00071504473 -0.00013540281 277.45627)
(5.6849689e-05 -0.00013826968 277.45649)
(-0.00035018828 -0.00012395393 277.45636)
(-0.00070228297 -0.00012099071 277.45592)
(-0.00088818157 -0.00012266658 277.45513)
(-0.0005507865 -0.0001105068 277.45453)
(-7.0106775e-05 -7.0106775e-05 277.45438)
(0.00019877262 0.00019877261 282.61949)
(-4.5808843e-05 -0.00038659696 282.62018)
(0.0018495126 0.00049278878 282.62051)
(0.0025443775 0.00025202241 282.62179)
(5.5578548e-05 0.00015410733 282.62199)
(-0.00079427944 0.00012584214 282.62174)
(-0.0010650519 8.9954098e-05 282.62128)
(-0.0010431284 3.3242613e-05 282.62072)
(-0.00090763149 0.00012213381 282.62033)
(-0.0002870628 0.00034753727 282.61986)
(-0.00038659696 -4.5808846e-05 282.62018)
(0.0003952154 0.00039521539 282.6203)
(0.0028074417 0.0015204353 282.6211)
(0.0020363554 0.00098474192 282.6222)
(-0.00013369185 0.00077555242 282.62233)
(-0.00089050929 0.00071080068 282.62206)
(-0.0012039512 0.00058916839 282.62153)
(-0.00099485881 0.00029272755 282.62082)
(-0.0004361895 0.00019506936 282.62059)
(-6.165934e-05 0.00061262853 282.62048)
(0.00049278878 0.0018495127 282.62051)
(0.0015204353 0.0028074417 282.6211)
(0.0024390392 0.0024390392 282.62181)
(0.0017994946 0.0021853652 282.62282)
(-0.00021836269 0.0021043657 282.62292)
(-0.00098066348 0.0020934478 282.62264)
(-0.0014831251 0.0020262218 282.62207)
(-0.0014372274 0.0017131672 282.62115)
(-0.00058773052 0.0012017931 282.62069)
(-8.6900197e-06 0.00093677889 282.62064)
(0.0002520224 0.0025443775 282.62179)
(0.00098474191 0.0020363554 282.6222)
(0.0021853652 0.0017994946 282.62282)
(0.0017016819 0.0017016819 282.62378)
(-0.00022560928 0.0016920244 282.62388)
(-0.00096865319 0.0017317897 282.62362)
(-0.0015842319 0.0017758643 282.62305)
(-0.0018192875 0.0017158396 282.62206)
(-0.0012125778 0.0014486399 282.62141)
(-0.00023833548 0.0010926008 282.62115)
(0.00015410733 5.5578544e-05 282.62199)
(0.00077555242 -0.00013369185 282.62233)
(0.0021043657 -0.00021836269 282.62292)
(0.0016920244 -0.00022560928 282.62388)
(-0.00018825491 -0.00018825491 282.62399)
(-0.00089682359 -0.00012880436 282.62376)
(-0.0014990752 -5.0494349e-05 282.62323)
(-0.0017644518 2.9141969e-05 282.62226)
(-0.0012109693 7.8593041e-05 282.62161)
(-0.00024604944 9.5973652e-05 282.62134)
(0.00012584214 -0.00079427944 282.62174)
(0.00071080068 -0.0008905093 282.62206)
(0.0020934478 -0.00098066348 282.62264)
(0.0017317897 -0.0009686532 282.62362)
(-0.00012880436 -0.00089682359 282.62376)
(-0.00083089263 -0.00083089263 282.62355)
(-0.0014262855 -0.00077230897 282.62305)
(-0.0016902001 -0.00071824516 282.62211)
(-0.0011457461 -0.00067239845 282.62148)
(-0.00022674841 -0.00064394859 282.62121)
(8.9954093e-05 -0.0010650519 282.62128)
(0.00058916838 -0.0012039512 282.62153)
(0.0020262218 -0.0014831251 282.62207)
(0.0017758643 -0.0015842319 282.62305)
(-5.0494342e-05 -0.0014990752 282.62323)
(-0.00077230897 -0.0014262855 282.62305)
(-0.0013864277 -0.0013864277 282.62257)
(-0.0016645413 -0.001368486 282.62163)
(-0.0011366728 -0.0013608706 282.62099)
(-0.00022708286 -0.0013650346 282.62071)
(3.3242609e-05 -0.0010431284 282.62072)
(0.00029272755 -0.0009948588 282.62082)
(0.0017131672 -0.0014372274 282.62115)
(0.0017158396 -0.0018192875 282.62206)
(2.914197e-05 -0.0017644518 282.62226)
(-0.00071824516 -0.0016902001 282.62211)
(-0.001368486 -0.0016645413 282.62163)
(-0.0016646429 -0.0016646429 282.62069)
(-0.0011422947 -0.0016442332 282.62005)
(-0.00022952446 -0.0015731125 282.61978)
(0.00012213381 -0.00090763149 282.62033)
(0.00019506935 -0.0004361895 282.62059)
(0.0012017931 -0.00058773052 282.62069)
(0.0014486399 -0.0012125778 282.62141)
(7.8593041e-05 -0.0012109693 282.62161)
(-0.00067239845 -0.0011457461 282.62148)
(-0.0013608706 -0.0011366728 282.62099)
(-0.0016442332 -0.0011422947 282.62005)
(-0.0010451423 -0.0010451423 282.61948)
(-0.00017966904 -0.00087761597 282.6194)
(0.00034753727 -0.0002870628 282.61986)
(0.00061262852 -6.1659339e-05 282.62048)
(0.00093677889 -8.690021e-06 282.62064)
(0.0010926008 -0.00023833548 282.62115)
(9.5973649e-05 -0.00024604944 282.62134)
(-0.00064394859 -0.00022674841 282.62121)
(-0.0013650346 -0.00022708286 282.62071)
(-0.0015731125 -0.00022952445 282.61978)
(-0.00087761598 -0.00017966904 282.6194)
(-0.00011784024 -0.00011784024 282.61922)
(0.00041081563 0.00041081564 290.99456)
(0.00040268722 -0.00033364971 290.99507)
(0.00255894 0.00069040319 290.99527)
(0.0032098398 0.00039455063 290.99637)
(1.4353106e-05 0.00027668811 290.99653)
(-0.0011619623 0.00024303573 290.99627)
(-0.0016022986 0.0001833492 290.99577)
(-0.0015100139 6.2962638e-05 290.99512)
(-0.0012991709 0.00018637042 290.99473)
(-0.00043500252 0.00052535491 290.99429)
(-0.00033364971 0.00040268722 290.99507)
(0.00082206855 0.00082206856 290.99516)
(0.0036512405 0.0021207337 290.99579)
(0.0025892671 0.0014627734 290.99674)
(-0.00021291925 0.0012127328 290.99684)
(-0.0013019706 0.0011414264 290.99657)
(-0.0018724082 0.00096330287 290.99602)
(-0.0015054821 0.00046894548 290.99518)
(-0.00060558252 0.00032499484 290.99489)
(-9.6018038e-05 0.00095675209 290.99477)
(0.0006904032 0.00255894 290.99527)
(0.0021207337 0.0036512405 290.99579)
(0.0031996448 0.0031996448 290.99634)
(0.0023018388 0.0028884229 290.99721)
(-0.00030699387 0.0027959031 290.9973)
(-0.0014113922 0.0027974196 290.99704)
(-0.0022747795 0.0027170605 290.99644)
(-0.0021483219 0.0022643295 290.99541)
(-0.00081136431 0.0015599865 290.99493)
(-1.3831026e-05 0.0012468974 290.99491)
(0.00039455063 0.0032098398 290.99637)
(0.0014627734 0.0025892671 290.99674)
(0.0028884229 0.0023018388 290.99721)
(0.0021855255 0.0021855255 290.99805)
(-0.00030392255 0.0021824752 290.99814)
(-0.0013808133 0.0022470448 290.9979)
(-0.0024054983 0.0023174979 290.99732)
(-0.002662556 0.0022330221 290.99621)
(-0.0016230146 0.0018686724 290.99556)
(-0.00030474416 0.0014110712 290.99535)
(0.00027668811 1.4353103e-05 290.99653)
(0.0012127328 -0.00021291925 290.99684)
(0.0027959031 -0.00030699387 290.9973)
(0.0021824752 -0.00030392255 290.99814)
(-0.0002454746 -0.0002454746 290.99824)
(-0.0012763695 -0.00015866884 290.99803)
(-0.0022888021 -4.8350136e-05 290.99749)
(-0.0025971475 5.5385334e-05 290.99641)
(-0.0016333153 0.00010911195 290.99574)
(-0.00031889848 0.00011731467 290.99552)
(0.00024303573 -0.0011619623 290.99627)
(0.0011414264 -0.0013019706 290.99657)
(0.0027974196 -0.0014113922 290.99704)
(0.0022470448 -0.0013808133 290.9979)
(-0.00015866884 -0.0012763695 290.99803)
(-0.0011836888 -0.0011836888 290.99785)
(-0.0021914442 -0.0011050022 290.99734)
(-0.0025050939 -0.0010385732 290.99627)
(-0.0015610853 -0.0009905341 290.99561)
(-0.00029927568 -0.00097401549 290.99539)
(0.0001833492 -0.0016022986 290.99577)
(0.00096330287 -0.0018724082 290.99602)
(0.0027170605 -0.0022747795 290.99644)
(0.0023174979 -0.0024054983 290.99732)
(-4.8350139e-05 -0.0022888021 290.99749)
(-0.0011050022 -0.0021914442 290.99734)
(-0.0021436865 -0.0021436865 290.99684)
(-0.0024826794 -0.00212974 290.99576)
(-0.0015687576 -0.0021276719 290.99509)
(-0.00030788608 -0.002137142 290.99483)
(6.2962637e-05 -0.0015100139 290.99512)
(0.00046894548 -0.0015054821 290.99518)
(0.0022643295 -0.0021483219 290.99541)
(0.0022330221 -0.002662556 290.99621)
(5.5385336e-05 -0.0025971475 290.99641)
(-0.0010385732 -0.0025050939 290.99627)
(-0.00212974 -0.0024826794 290.99576)
(-0.0024890794 -0.0024890794 290.99468)
(-0.0015684873 -0.0024223378 290.994)
(-0.00030558905 -0.0022056213 290.99375)
(0.00018637042 -0.0012991709 290.99473)
(0.00032499483 -0.00060558252 290.99489)
(0.0015599865 -0.00081136432 290.99493)
(0.0018686724 -0.0016230146 290.99556)
(0.00010911196 -0.0016333153 290.99574)
(-0.00099053409 -0.0015610853 290.99561)
(-0.0021276719 -0.0015687576 290.99509)
(-0.0024223378 -0.0015684873 290.994)
(-0.0012852995 -0.0012852995 290.99343)
(-0.00016340836 -0.0011050942 290.99354)
(0.00052535491 -0.00043500253 290.99429)
(0.00095675209 -9.6018037e-05 290.99477)
(0.0012468974 -1.3831023e-05 290.99491)
(0.0014110712 -0.00030474416 290.99535)
(0.00011731467 -0.00031889848 290.99552)
(-0.00097401549 -0.00029927568 290.99539)
(-0.002137142 -0.00030788608 290.99483)
(-0.0022056213 -0.00030558905 290.99375)
(-0.0011050942 -0.00016340836 290.99354)
(-0.00018545217 -0.00018545217 290.99335)
(0.00054301389 0.00054301389 302.51293)
(0.0006650865 -0.00032490603 302.51328)
(0.0031482204 0.00084445646 302.51338)
(0.0038047133 0.00049791965 302.5144)
(-4.6013386e-05 0.0003638506 302.51453)
(-0.0015471778 0.00032953268 302.51428)
(-0.0022103454 0.00025265815 302.51377)
(-0.0020894041 7.1807686e-05 302.51306)
(-0.0017444575 0.00023268768 302.51259)
(-0.00058086198 0.00067254057 302.51215)
(-0.00032490603 0.0006650865 302.51328)
(0.0011172503 0.0011172503 302.51328)
(0.0043824589 0.0025943179 302.51382)
(0.0030838045 0.0018258233 302.51469)
(-0.00029859383 0.0015447955 302.51477)
(-0.0017139664 0.0014779972 302.51452)
(-0.0025969329 0.0012579283 302.51397)
(-0.0021193598 0.00057450252 302.51307)
(-0.00084335821 0.00040240992 302.51272)
(-0.00014100908 0.0012356478 302.51258)
(0.00084445646 0.0031482204 302.51338)
(0.0025943179 0.004382459 302.51382)
(0.0038567934 0.0038567934 302.51427)
(0.0027551908 0.0034974625 302.51508)
(-0.00039383951 0.0034007936 302.51515)
(-0.0018340449 0.0034209303 302.51491)
(-0.00311384 0.0033334784 302.51433)
(-0.0029449225 0.0027447896 302.51324)
(-0.0010833123 0.0018649286 302.51272)
(-2.5370059e-05 0.0015161721 302.51268)
(0.00049791965 0.0038047133 302.5144)
(0.0018258233 0.0030838045 302.51469)
(0.0034974625 0.0027551908 302.51508)
(0.0026278047 0.0026278047 302.51586)
(-0.00037512605 0.0026364547 302.51594)
(-0.0017812817 0.002729 302.51572)
(-0.0032730736 0.0028270717 302.51516)
(-0.0035879095 0.0027157012 302.514)
(-0.0020719757 0.0022553616 302.5133)
(-0.00037351342 0.0017004898 302.51309)
(0.0003638506 -4.6013383e-05 302.51453)
(0.0015447955 -0.00029859383 302.51477)
(0.0034007936 -0.00039383951 302.51515)
(0.0026364547 -0.00037512605 302.51594)
(-0.0002926442 -0.0002926442 302.51604)
(-0.0016434279 -0.00017758589 302.51585)
(-0.0031271389 -3.6679498e-05 302.51533)
(-0.0035166325 8.6040043e-05 302.51419)
(-0.0020985237 0.00013687607 302.51348)
(-0.00039528464 0.00012888123 302.51325)
(0.00032953268 -0.0015471778 302.51428)
(0.0014779972 -0.0017139664 302.51452)
(0.0034209303 -0.0018340449 302.51491)
(0.002729 -0.0017812817 302.51572)
(-0.00017758589 -0.0016434279 302.51585)
(-0.001525317 -0.001525317 302.5157)
(-0.0030094477 -0.0014304238 302.5152)
(-0.003414354 -0.0013592843 302.51407)
(-0.0020291345 -0.001320516 302.51336)
(-0.00037884331 -0.0013297536 302.51312)
(0.00025265815 -0.0022103454 302.51377)
(0.0012579283 -0.0025969329 302.51397)
(0.0033334784 -0.00311384 302.51433)
(0.0028270717 -0.0032730736 302.51516)
(-3.6679494e-05 -0.0031271389 302.51533)
(-0.0014304238 -0.0030094477 302.5152)
(-0.0029611062 -0.0029611062 302.5147)
(-0.0034067247 -0.0029627146 302.51357)
(-0.002068993 -0.0029794251 302.51283)
(-0.00040144307 -0.0030029354 302.51253)
(7.1807691e-05 -0.0020894041 302.51306)
(0.00057450252 -0.0021193598 302.51307)
(0.0027447896 -0.0029449225 302.51324)
(0.0027157012 -0.0035879096 302.514)
(8.6040048e-05 -0.0035166325 302.51419)
(-0.0013592843 -0.003414354 302.51407)
(-0.0029627146 -0.0034067247 302.51357)
(-0.0034326728 -0.0034326728 302.5124)
(-0.0020693553 -0.0033096834 302.51164)
(-0.00039451688 -0.0028650022 302.51135)
(0.00023268767 -0.0017444575 302.51259)
(0.0004024099 -0.00084335822 302.51272)
(0.0018649286 -0.0010833123 302.51272)
(0.0022553616 -0.0020719757 302.5133)
(0.00013687608 -0.0020985237 302.51348)
(-0.001320516 -0.0020291345 302.51336)
(-0.0029794251 -0.002068993 302.51283)
(-0.0033096834 -0.0020693553 302.51164)
(-0.0015013224 -0.0015013224 302.511)
(-0.00010498897 -0.0012763616 302.51119)
(0.00067254058 -0.00058086198 302.51215)
(0.0012356478 -0.00014100908 302.51258)
(0.0015161721 -2.5370058e-05 302.51268)
(0.0017004898 -0.00037351342 302.51309)
(0.00012888123 -0.00039528464 302.51325)
(-0.0013297536 -0.00037884332 302.51312)
(-0.0030029354 -0.00040144307 302.51253)
(-0.0028650022 -0.00039451688 302.51135)
(-0.0012763616 -0.00010498897 302.51119)
(-0.00024454303 -0.00024454303 302.51101)
(0.00064555124 0.00064555124 317.09725)
(0.00085507334 -0.0003336564 317.09754)
(0.0036781425 0.00097874047 317.0976)
(0.0043588766 0.00058378754 317.09856)
(-0.00011148725 0.00043527129 317.09868)
(-0.0019218825 0.00040230882 317.09843)
(-0.0028199518 0.00031130275 317.09794)
(-0.0026969347 7.2760688e-05 317.09723)
(-0.0022057125 0.00027358241 317.09674)
(-0.00072387659 0.00080883796 317.09631)
(-0.0003336564 0.00085507334 317.09754)
(0.0013548572 0.0013548572 317.09751)
(0.0050543084 0.003009834 317.09799)
(0.0035436728 0.0021372756 317.09881)
(-0.00038370533 0.0018303949 317.09888)
(-0.0021078353 0.001773378 317.09864)
(-0.003314274 0.0015182977 317.09812)
(-0.0027535152 0.00065200935 317.09723)
(-0.0011015966 0.00046092762 317.09686)
(-0.00018862104 0.0014867396 317.09672)
(0.00097874047 0.0036781425 317.0976)
(0.003009834 0.0050543084 317.09799)
(0.0044605609 0.0044605609 317.0984)
(0.0031794374 0.0040588563 317.09916)
(-0.00047538485 0.0039626114 317.09923)
(-0.0022339797 0.0040051486 317.099)
(-0.0039413204 0.0039139803 317.09845)
(-0.0037543047 0.0031916475 317.09738)
(-0.0013709822 0.0021440341 317.09685)
(-4.0001946e-05 0.0017612378 317.0968)
(0.00058378754 0.0043588766 317.09856)
(0.0021372756 0.0035436728 317.09881)
(0.0040588563 0.0031794374 317.09916)
(0.0030457234 0.0030457234 317.0999)
(-0.00043741305 0.0030696036 317.09998)
(-0.0021564664 0.0031924436 317.09978)
(-0.004127775 0.003319165 317.09925)
(-0.0045234614 0.0031800506 317.0981)
(-0.0025320062 0.0026247499 317.0974)
(-0.00044381859 0.0019739236 317.09719)
(0.00043527129 -0.00011148724 317.09868)
(0.0018303949 -0.00038370533 317.09888)
(0.0039626115 -0.00047538485 317.09923)
(0.0030696036 -0.00043741305 317.09998)
(-0.00032866456 -0.00032866456 317.10007)
(-0.0019844183 -0.00018454132 317.09991)
(-0.0039537135 -1.3870126e-05 317.09942)
(-0.0044487199 0.00012476069 317.09829)
(-0.0025771092 0.00016849552 317.09757)
(-0.00047388612 0.00014005501 317.09734)
(0.00040230882 -0.0019218825 317.09843)
(0.001773378 -0.0021078353 317.09864)
(0.0040051486 -0.0022339797 317.099)
(0.0031924436 -0.0021564664 317.09978)
(-0.00018454132 -0.0019844183 317.09991)
(-0.001841672 -0.001841672 317.09978)
(-0.003818473 -0.0017332777 317.09931)
(-0.0043410958 -0.0016627864 317.09819)
(-0.0025167119 -0.0016414865 317.09747)
(-0.00046277893 -0.0016866233 317.09722)
(0.00031130275 -0.0028199518 317.09794)
(0.0015182977 -0.003314274 317.09812)
(0.0039139803 -0.0039413204 317.09845)
(0.003319165 -0.0041277751 317.09925)
(-1.3870136e-05 -0.0039537135 317.09942)
(-0.0017332777 -0.003818473 317.09931)
(-0.0037748279 -0.0037748279 317.09884)
(-0.0043569287 -0.0038012266 317.09771)
(-0.0026009461 -0.0038502868 317.09695)
(-0.00050397733 -0.0039034474 317.09664)
(7.2760688e-05 -0.0026969347 317.09723)
(0.00065200934 -0.0027535152 317.09723)
(0.0031916475 -0.0037543047 317.09738)
(0.0031800506 -0.0045234614 317.0981)
(0.00012476069 -0.0044487199 317.09829)
(-0.0016627864 -0.0043410957 317.09819)
(-0.0038012266 -0.0043569287 317.09771)
(-0.0044165547 -0.0044165547 317.09653)
(-0.0026189327 -0.0042484252 317.09574)
(-0.0004982193 -0.0035533995 317.09542)
(0.0002735824 -0.0022057125 317.09674)
(0.00046092761 -0.0011015966 317.09686)
(0.0021440341 -0.0013709822 317.09685)
(0.0026247499 -0.0025320062 317.0974)
(0.00016849553 -0.0025771092 317.09757)
(-0.0016414865 -0.0025167119 317.09747)
(-0.0038502868 -0.0026009461 317.09695)
(-0.0042484252 -0.0026189327 317.09574)
(-0.0017377909 -0.0017377909 317.09507)
(-4.0626825e-05 -0.0014408188 317.09525)
(0.00080883795 -0.00072387659 317.09631)
(0.0014867396 -0.00018862104 317.09672)
(0.0017612378 -4.000194e-05 317.0968)
(0.0019739236 -0.00044381859 317.09719)
(0.00014005502 -0.00047388612 317.09734)
(-0.0016866233 -0.00046277893 317.09722)
(-0.0039034474 -0.00050397734 317.09664)
(-0.0035533995 -0.0004982193 317.09542)
(-0.0014408188 -4.0626823e-05 317.09525)
(-0.00030023788 -0.00030023788 317.09508)
(0.00073898891 0.00073898891 334.65737)
(0.001020396 -0.0003459645 334.65764)
(0.0041717105 0.0011043024 334.65769)
(0.0048802199 0.00066243967 334.6586)
(-0.00017962907 0.00050060347 334.6587)
(-0.002280443 0.00047007054 334.65846)
(-0.0034090003 0.00036649222 334.658)
(-0.0032948678 7.1925212e-05 334.65731)
(-0.0026620788 0.00031275785 334.65682)
(-0.00086387957 0.00094017885 334.65641)
(-0.0003459645 0.001020396 334.65764)
(0.0015683662 0.0015683662 334.65761)
(0.0056843168 0.0033950796 334.65806)
(0.0039746715 0.0024228001 334.65883)
(-0.00046818276 0.0020934518 334.65889)
(-0.0024816099 0.002049408 334.65866)
(-0.0040062183 0.0017635559 334.65816)
(-0.0033754694 0.0007193031 334.65731)
(-0.0013596984 0.00051222105 334.65694)
(-0.00023645857 0.0017243912 334.6568)
(0.0011043024 0.0041717105 334.65769)
(0.0033950796 0.0056843168 334.65806)
(0.0050261444 0.0050261444 334.65843)
(0.0035785921 0.0045859767 334.65915)
(-0.00055302112 0.0044933275 334.65921)
(-0.0026103388 0.004561036 334.659)
(-0.0047391053 0.0044691195 334.65848)
(-0.0045462027 0.003616756 334.65744)
(-0.0016569907 0.0024068105 334.65692)
(-5.5766132e-05 0.0019909196 334.65688)
(0.00066243967 0.0048802199 334.6586)
(0.0024228001 0.0039746715 334.65883)
(0.0045859767 0.0035785921 334.65915)
(0.0034418546 0.0034418545 334.65985)
(-0.00049312346 0.0034835391 334.65992)
(-0.0025058178 0.0036385324 334.65974)
(-0.0049504984 0.0037951795 334.65925)
(-0.0054377784 0.0036292391 334.65814)
(-0.0029855348 0.0029812164 334.65745)
(-0.00051371922 0.0022365276 334.65725)
(0.00050060346 -0.00017962907 334.6587)
(0.0020934518 -0.00046818277 334.65889)
(0.0044933275 -0.00055302111 334.65921)
(0.0034835391 -0.00049312346 334.65992)
(-0.00035634323 -0.00035634324 334.66001)
(-0.0022986985 -0.00018234525 334.65987)
(-0.0047483986 1.7868345e-05 334.65941)
(-0.0053601659 0.0001710363 334.65832)
(-0.0030497023 0.00020583427 334.65762)
(-0.00055222531 0.00015515881 334.65739)
(0.00047007054 -0.002280443 334.65846)
(0.002049408 -0.0024816099 334.65866)
(0.004561036 -0.0026103388 334.659)
(0.0036385324 -0.0025058178 334.65974)
(-0.00018234524 -0.0022986985 334.65987)
(-0.0021316063 -0.0021316063 334.65975)
(-0.0045971169 -0.0020112816 334.65932)
(-0.0052498124 -0.0019445389 334.65824)
(-0.0030014123 -0.0019452433 334.65753)
(-0.00054750287 -0.0020315452 334.65728)
(0.00036649222 -0.0034090003 334.658)
(0.0017635559 -0.0040062183 334.65816)
(0.0044691195 -0.0047391053 334.65848)
(0.0037951795 -0.0049504984 334.65925)
(1.7868339e-05 -0.0047483986 334.65941)
(-0.0020112816 -0.0045971169 334.65932)
(-0.0045613312 -0.0045613312 334.65888)
(-0.0052941275 -0.0046180356 334.65778)
(-0.0031367086 -0.0047077617 334.65704)
(-0.00060975994 -0.0048009893 334.65672)
(7.1925208e-05 -0.0032948678 334.65731)
(0.0007193031 -0.0033754694 334.65731)
(0.003616756 -0.0045462027 334.65744)
(0.0036292391 -0.0054377784 334.65814)
(0.0001710363 -0.0053601659 334.65832)
(-0.0019445389 -0.0052498124 334.65824)
(-0.0046180356 -0.0052941275 334.65778)
(-0.005396243 -0.005396243 334.65664)
(-0.003184366 -0.0051939049 334.65585)
(-0.00060965456 -0.0042495754 334.65551)
(0.00031275784 -0.0026620788 334.65682)
(0.00051222105 -0.0013596984 334.65694)
(0.0024068105 -0.0016569907 334.65692)
(0.0029812164 -0.0029855348 334.65745)
(0.00020583428 -0.0030497023 334.65762)
(-0.0019452432 -0.0030014123 334.65753)
(-0.0047077617 -0.0031367086 334.65704)
(-0.0051939049 -0.003184366 334.65585)
(-0.001990041 -0.001990041 334.65517)
(1.979307e-05 -0.00161168 334.65534)
(0.00094017885 -0.00086387957 334.65641)
(0.0017243912 -0.00023645857 334.6568)
(0.0019909196 -5.5766128e-05 334.65688)
(0.0022365276 -0.00051371922 334.65725)
(0.0001551588 -0.00055222531 334.65739)
(-0.0020315452 -0.00054750287 334.65728)
(-0.0048009893 -0.00060975995 334.65672)
(-0.0042495754 -0.00060965456 334.65551)
(-0.00161168 1.9793071e-05 334.65534)
(-0.00035741392 -0.00035741392 334.65517)
(0.00082786767 0.00082786767 355.08792)
(0.0011729836 -0.00035821958 355.08818)
(0.0046338065 0.0012230777 355.08822)
(0.005368397 0.00073567542 355.08908)
(-0.00025077612 0.00056149585 355.08916)
(-0.0026221643 0.000534238 355.08893)
(-0.0039715364 0.00041939509 355.08849)
(-0.0038705031 7.0540858e-05 355.08784)
(-0.0031049668 0.00035078503 355.08737)
(-0.0010002564 0.0010676219 355.08697)
(-0.00035821958 0.0011729836 355.08818)
(0.0017657986 0.0017657986 355.08815)
(0.006274649 0.0037549631 355.08856)
(0.0043760243 0.0026867133 355.08929)
(-0.00055293225 0.0023377176 355.08933)
(-0.0028353155 0.0023092669 355.08912)
(-0.0046670821 0.0019965951 355.08865)
(-0.0039734182 0.00078025341 355.08783)
(-0.0016093453 0.00055905258 355.08748)
(-0.00028341956 0.001952366 355.08734)
(0.0012230777 0.0046338065 355.08822)
(0.0037549631 0.006274649 355.08856)
(0.0055547212 0.0055547212 355.08891)
(0.0039511516 0.005079226 355.08958)
(-0.00062822253 0.0049927048 355.08963)
(-0.0029632869 0.0050879766 355.08943)
(-0.0055005499 0.0049985142 355.08895)
(-0.0053080456 0.0040214095 355.08795)
(-0.0019328542 0.002655199 355.08746)