/*--------------------------------*- C++ -*----------------------------------*\
| =========                 |                                                 |
| \\      /  F ield         | OpenFOAM: The Open Source CFD Toolbox           |
|  \\    /   O peration     | Version:  v2106                                 |
|   \\  /    A nd           | Website:  www.openfoam.com                      |
|    \\/     M anipulation  |                                                 |
\*---------------------------------------------------------------------------*/
FoamFile
{
    version     2.0;
    format      ascii;
    arch        "LSB;label=32;scalar=64";
    class       volScalarField;
    location    "12.5";
    object      laplacianT;
}
// * * * * * * * * * * * * * * * * * * * * * * * * * * * * * * * * * * * * * //

dimensions      [0 -2 0 1 0 0 0];

internalField   nonuniform List<scalar> 
4000
(
13550.773
13550.669
13550.956
13550.795
13550.861
13550.865
13550.846
13550.823
13550.805
13550.796
13550.669
13551.057
13550.902
13550.875
13550.943
13550.943
13550.921
13550.896
13550.881
13550.859
13550.956
13550.902
13550.964
13550.928
13550.987
13550.983
13550.958
13550.93
13550.921
13550.886
13550.795
13550.875
13550.928
13550.883
13550.939
13550.934
13550.906
13550.872
13550.863
13550.859
13550.861
13550.943
13550.987
13550.939
13550.993
13550.989
13550.962
13550.924
13550.906
13550.887
13550.865
13550.943
13550.983
13550.934
13550.989
13550.986
13550.961
13550.925
13550.906
13550.886
13550.846
13550.921
13550.958
13550.906
13550.962
13550.961
13550.936
13550.901
13550.884
13550.864
13550.823
13550.896
13550.93
13550.872
13550.924
13550.925
13550.901
13550.867
13550.85
13550.83
13550.805
13550.881
13550.921
13550.863
13550.906
13550.906
13550.884
13550.85
13550.834
13550.817
13550.796
13550.859
13550.886
13550.859
13550.887
13550.886
13550.864
13550.83
13550.817
13550.804
354.39477
354.29288
355.10225
354.31328
354.4503
354.50584
354.51545
354.51757
354.53466
354.55903
354.29288
355.03053
354.71864
354.32179
354.48318
354.53359
354.54089
354.54756
354.54668
354.49652
355.10225
354.71864
354.9081
354.51591
354.66284
354.70672
354.71497
354.74936
354.79277
354.64199
354.31328
354.32179
354.51591
354.11451
354.2556
354.29371
354.2924
354.32863
354.44082
354.4657
354.4503
354.48318
354.66284
354.2556
354.39446
354.43029
354.42072
354.43482
354.51079
354.49914
354.50584
354.53359
354.70672
354.29371
354.43029
354.46628
354.4563
354.46728
354.53557
354.50998
354.51545
354.54089
354.71497
354.2924
354.42072
354.4563
354.44678
354.45818
354.52667
354.50136
354.51757
354.54756
354.74936
354.32863
354.43482
354.46728
354.45818
354.47081
354.54198
354.5233
354.53466
354.54668
354.79277
354.44082
354.51079
354.53557
354.52667
354.54198
354.6194
354.60665
354.55903
354.49652
354.64199
354.4657
354.49914
354.50998
354.50136
354.5233
354.60665
354.54844
678.66448
678.29002
679.17724
678.20486
678.40832
678.48757
678.50072
678.50812
678.53489
678.68575
678.29002
679.16458
678.70178
678.22101
678.45106
678.52079
678.53668
678.57688
678.49254
678.41011
679.17724
678.70178
678.85198
678.37374
678.58276
678.63965
678.65421
678.76772
678.81717
678.62965
678.20486
678.22101
678.37374
677.88306
678.08377
678.12973
678.12151
678.22668
678.36953
678.41905
678.40832
678.45106
678.58276
678.08377
678.28159
678.32413
678.30214
678.37199
678.46072
678.45855
678.48757
678.52079
678.63965
678.12973
678.32413
678.36701
678.34417
678.40872
678.48525
678.46336
678.50072
678.53668
678.65421
678.12151
678.30214
678.34417
678.32216
678.38765
678.46537
678.44937
678.50812
678.57688
678.76772
678.22668
678.37199
678.40872
678.38765
678.45649
678.54188
678.54492
678.53489
678.49254
678.81717
678.36953
678.46072
678.48525
678.46537
678.54188
678.64445
678.62634
678.68575
678.41011
678.62965
678.41905
678.45855
678.46336
678.44937
678.54492
678.62634
678.53236
996.71359
996.1771
997.23421
996.07046
996.3267
996.42502
996.44239
996.46336
996.4445
996.67849
996.1771
997.1591
996.62795
996.04957
996.33486
996.41755
996.4446
996.56736
996.40107
996.28614
997.23421
996.62795
996.8163
996.23999
996.49852
996.56067
996.57633
996.80348
996.82705
996.56338
996.07046
996.04957
996.23999
995.6488
995.89702
995.94381
995.92457
996.13756
996.28341
996.31539
996.3267
996.33486
996.49852
995.89702
996.14184
996.18412
996.14568
996.31134
996.38809
996.3575
996.42502
996.41755
996.56067
995.94381
996.18412
996.22684
996.187
996.34517
996.40573
996.35228
996.44239
996.4446
996.57633
995.92457
996.14568
996.187
996.14828
996.30815
996.37191
996.33471
996.46336
996.56736
996.80348
996.13756
996.31134
996.34517
996.30815
996.47482
996.55493
996.55437
996.4445
996.40107
996.82705
996.28341
996.38809
996.40573
996.37191
996.55493
996.6664
996.51979
996.67849
996.28614
996.56338
996.31539
996.3575
996.35228
996.33471
996.55437
996.51979
996.47485
1307.5341
1306.9091
1308.1365
1306.7787
1307.0828
1307.1971
1307.2191
1307.2763
1307.2523
1307.559
1306.9091
1308.0309
1307.4347
1306.7543
1307.0895
1307.1793
1307.2089
1307.4267
1307.2054
1307.0656
1308.1365
1307.4347
1307.6628
1306.9845
1307.2877
1307.3501
1307.3589
1307.7137
1307.7314
1307.3975
1306.7787
1306.7543
1306.9845
1306.289
1306.5801
1306.6229
1306.5851
1306.9219
1307.092
1307.1113
1307.0828
1307.0895
1307.2877
1306.5801
1306.8674
1306.9045
1306.842
1307.1201
1307.2072
1307.1541
1307.1971
1307.1793
1307.3501
1306.6229
1306.9045
1306.9422
1306.8777
1307.146
1307.2133
1307.1354
1307.2191
1307.2089
1307.3589
1306.5851
1306.842
1306.8777
1306.8144
1307.0854
1307.1591
1307.1128
1307.2763
1307.4267
1307.7137
1306.9219
1307.1201
1307.146
1307.0854
1307.3686
1307.4738
1307.4954
1307.2523
1307.2054
1307.7314
1307.092
1307.2072
1307.2133
1307.1591
1307.4738
1307.6409
1307.3082
1307.559
1307.0656
1307.3975
1307.1113
1307.1541
1307.1354
1307.1128
1307.4954
1307.3082
1307.3159
1610.0421
1609.3356
1610.7244
1609.1751
1609.5245
1609.6521
1609.673
1609.7616
1609.7373
1610.1091
1609.3356
1610.5933
1609.9306
1609.1489
1609.5317
1609.6258
1609.6512
1609.9578
1609.6831
1609.5164
1610.7244
1609.9306
1610.1946
1609.415
1609.7609
1609.821
1609.8166
1610.2939
1610.3057
1609.9015
1609.1751
1609.1489
1609.415
1608.6162
1608.9482
1608.9845
1608.9218
1609.3781
1609.5723
1609.5776
1609.5245
1609.5317
1609.7609
1608.9482
1609.2758
1609.3054
1609.2126
1609.5989
1609.6966
1609.6202
1609.6521
1609.6258
1609.821
1608.9845
1609.3054
1609.3356
1609.2399
1609.6142
1609.6882
1609.5855
1609.673
1609.6512
1609.8166
1608.9218
1609.2126
1609.2399
1609.1456
1609.5233
1609.607
1609.5535
1609.7616
1609.9578
1610.2939
1609.3781
1609.5989
1609.6142
1609.5233
1609.9186
1610.0522
1610.1101
1609.7373
1609.6831
1610.3057
1609.5723
1609.6966
1609.6882
1609.607
1610.0522
1610.2928
1609.7655
1610.1091
1609.5164
1609.9015
1609.5776
1609.6202
1609.5855
1609.5535
1610.1101
1609.7655
1609.825
1902.8135
1902.0256
1903.5684
1901.8333
1902.227
1902.3668
1902.3846
1902.5012
1902.4767
1902.911
1902.0256
1903.4112
1902.6839
1901.804
1902.2332
1902.3306
1902.3495
1902.7408
1902.4133
1902.2204
1903.5684
1902.6839
1902.982
1902.1044
1902.4918
1902.5487
1902.5288
1903.1246
1903.1299
1902.6572
1901.8333
1901.804
1902.1044
1901.2053
1901.5771
1901.6061
1901.5163
1902.0882
1902.3051
1902.2969
1902.227
1902.2332
1902.4918
1901.5771
1901.944
1901.9653
1901.8399
1902.3307
1902.4381
1902.3389
1902.3668
1902.3306
1902.5487
1901.6061
1901.9653
1901.9871
1901.858
1902.3344
1902.4143
1902.2873
1902.3846
1902.3495
1902.5288
1901.5163
1901.8399
1901.858
1901.7302
1902.2105
1902.3031
1902.2435
1902.5012
1902.7408
1903.1246
1902.0882
1902.3307
1902.3344
1902.2105
1902.7138
1902.8748
1902.9748
1902.4767
1902.4133
1903.1299
1902.3051
1902.4381
1902.4143
1902.3031
1902.8748
1903.1932
1902.4743
1902.911
1902.2204
1902.6572
1902.2969
1902.3389
1902.2873
1902.2435
1902.9748
1902.4743
1902.5862
2184.2372
2183.3696
2185.0595
2183.146
2183.583
2183.7344
2183.7484
2183.8915
2183.8665
2184.3622
2183.3696
2184.8756
2184.0869
2183.1134
2183.5878
2183.688
2183.6993
2184.1726
2183.7932
2183.5755
2185.0595
2184.0869
2184.4185
2183.4471
2183.8749
2183.9282
2183.8918
2184.6026
2184.6012
2184.0627
2183.146
2183.1134
2183.4471
2182.4522
2182.8627
2182.884
2182.7663
2183.4502
2183.6887
2183.6677
2183.583
2183.5878
2183.8749
2182.8627
2183.268
2183.2805
2183.1218
2183.7138
2183.8299
2183.7089
2183.7344
2183.688
2183.9282
2182.884
2183.2805
2183.2935
2183.1303
2183.7056
2183.7903
2183.64
2183.7484
2183.6993
2183.8918
2182.7663
2183.1218
2183.1303
2182.9682
2183.5478
2183.648
2183.5832
2183.8915
2184.1726
2184.6026
2183.4502
2183.7138
2183.7056
2183.5478
2184.1553
2184.3424
2184.487
2183.8665
2183.7932
2184.6012
2183.6887
2183.8299
2183.7903
2183.648
2184.3424
2184.7388
2183.8329
2184.3622
2183.5755
2184.0627
2183.6677
2183.7089
2183.64
2183.5832
2184.487
2183.8329
2183.9983
2452.535
2451.5905
2453.4197
2451.3368
2451.816
2451.9785
2451.9882
2452.1566
2452.1309
2452.6866
2451.5905
2453.2089
2452.363
2451.3013
2451.8195
2451.9219
2451.9249
2452.4776
2452.0473
2451.8065
2453.4197
2452.363
2452.7274
2451.6674
2452.1345
2452.1837
2452.1301
2452.9522
2452.9437
2452.3423
2451.3368
2451.3013
2451.6674
2450.5821
2451.0302
2451.0435
2450.8972
2451.6893
2451.948
2451.9147
2451.816
2451.8195
2452.1345
2451.0302
2451.4727
2451.4761
2451.2836
2451.9734
2452.0969
2451.9549
2451.9785
2451.9219
2452.1837
2451.0435
2451.4761
2451.4801
2451.2822
2451.9529
2452.0413
2451.8686
2451.9882
2451.9249
2452.1301
2450.8972
2451.2836
2451.2822
2451.0853
2451.7606
2451.8673
2451.798
2452.1566
2452.4776
2452.9522
2451.6893
2451.9734
2451.9529
2451.7606
2452.4688
2452.6805
2452.8707
2452.1309
2452.0473
2452.9437
2451.948
2452.0969
2452.0413
2451.8673
2452.6805
2453.1534
2452.0656
2452.6866
2451.8065
2452.3423
2451.9147
2451.9549
2451.8686
2451.798
2452.8707
2452.0656
2452.2854
2705.7773
2704.7594
2706.7194
2704.4774
2704.9975
2705.1704
2705.1755
2705.368
2705.3412
2705.9551
2704.7594
2706.4815
2705.5832
2704.4394
2705
2705.104
2705.0979
2705.7271
2705.2472
2704.9848
2706.7194
2705.5832
2705.9797
2704.8373
2705.3422
2705.3868
2705.3153
2706.2444
2706.2285
2705.5673
2704.4774
2704.4394
2704.8373
2703.6675
2704.1519
2704.1567
2703.9815
2704.8775
2705.1545
2705.1093
2704.9975
2705
2705.3422
2704.1519
2704.6302
2704.6242
2704.3975
2705.1811
2705.3108
2705.1485
2705.1704
2705.104
2705.3868
2704.1567
2704.6242
2704.6187
2704.386
2705.1481
2705.239
2705.0447
2705.1755
2705.0979
2705.3153
2703.9815
2704.3975
2704.386
2704.1539
2704.921
2705.0329
2704.9597
2705.368
2705.7271
2706.2444
2704.8775
2705.1811
2705.1481
2704.921
2705.7257
2705.9604
2706.1967
2705.3412
2705.2472
2706.2285
2705.1545
2705.3108
2705.239
2705.0329
2705.9604
2706.508
2705.2437
2705.9551
2704.9848
2705.5673
2705.1093
2705.1485
2705.0447
2704.9597
2706.1967
2705.2437
2705.5185
2941.9128
2940.8259
2942.9068
2940.5174
2941.0768
2941.2595
2941.2595
2941.4748
2941.4466
2942.1164
2940.8259
2942.6418
2941.6968
2940.4779
2941.0788
2941.1837
2941.1678
2941.87
2941.3421
2941.0597
2942.9068
2941.6968
2942.1244
2940.9063
2941.4473
2941.4868
2941.3967
2942.4281
2942.4043
2941.6866
2940.5174
2940.4779
2940.9063
2939.659
2940.1779
2940.1739
2939.9694
2940.9644
2941.2577
2941.2009
2941.0768
2941.0788
2941.4473
2940.1779
2940.6904
2940.6747
2940.4138
2941.2865
2941.421
2941.2388
2941.2595
2941.1837
2941.4868
2940.1739
2940.6747
2940.6596
2940.3917
2941.2407
2941.3329
2941.1176
2941.2595
2941.1678
2941.3967
2939.9694
2940.4138
2940.3917
2940.1244
2940.9787
2941.0942
2941.0176
2941.4748
2941.87
2942.4281
2940.9644
2941.2865
2941.2407
2940.9787
2941.8752
2942.1312
2942.4135
2941.4466
2941.3421
2942.4043
2941.2577
2941.421
2941.3329
2941.0942
2942.1312
2942.751
2941.3164
2942.1164
2941.0597
2941.6866
2941.2009
2941.2388
2941.1176
2941.0176
2942.4135
2941.3164
2941.6464
3158.8088
3157.6577
3159.8486
3157.3252
3157.9219
3158.1135
3158.1079
3158.3445
3158.3146
3159.0375
3157.6577
3159.557
3158.5711
3157.2848
3157.924
3158.029
3158.0025
3158.7738
3158.1996
3157.8991
3159.8486
3158.5711
3159.0289
3157.7427
3158.3177
3158.3517
3158.2422
3159.3703
3159.338
3158.5678
3157.3252
3157.2848
3157.7427
3156.4255
3156.9771
3156.9639
3156.7297
3157.818
3158.1254
3158.0572
3157.9219
3157.924
3158.3177
3156.9771
3157.5219
3157.4961
3157.2007
3158.1574
3158.2949
3158.0937
3158.1135
3158.029
3158.3517
3156.9639
3157.4961
3157.4709
3157.1679
3158.0986
3158.1904
3157.955
3158.1079
3158.0025
3158.2422
3156.7297
3157.2007
3157.1679
3156.8651
3157.8014
3157.9191
3157.8394
3158.3445
3158.7738
3159.3703
3157.818
3158.1574
3158.0986
3157.8014
3158.7845
3159.0596
3159.3879
3158.3146
3158.1996
3159.338
3158.1254
3158.2949
3158.1904
3157.9191
3159.0596
3159.7488
3158.151
3159.0375
3157.8991
3158.5678
3158.0572
3158.0937
3157.955
3157.8394
3159.3879
3158.151
3158.5365
3354.2996
3353.0901
3355.379
3352.7361
3353.368
3353.5675
3353.5559
3353.8121
3353.7799
3354.5529
3353.0901
3355.0612
3354.0412
3352.6961
3353.3709
3353.4753
3353.4372
3354.2731
3353.6549
3353.338
3355.379
3354.0412
3354.528
3353.1819
3353.7887
3353.8165
3353.6871
3354.9053
3354.8641
3354.0454
3352.7361
3352.6961
3353.1819
3351.8033
3352.3854
3352.3626
3352.0985
3353.2736
3353.5926
3353.5131
3353.368
3353.3709
3353.7887
3352.3854
3352.9604
3352.9242
3352.5943
3353.6289
3353.7677
3353.548
3353.5675
3353.4753
3353.8165
3352.3626
3352.9242
3352.8886
3352.5503
3353.557
3353.6468
3353.392
3353.5559
3353.4372
3353.6871
3352.0985
3352.5943
3352.5503
3352.2122
3353.2246
3353.3426
3353.2603
3353.8121
3354.2731
3354.9053
3353.2736
3353.6289
3353.557
3353.2246
3354.288
3354.5801
3354.9539
3353.7799
3353.6549
3354.8641
3353.5926
3353.7677
3353.6468
3353.3426
3354.5801
3355.3354
3353.5825
3354.5529
3353.338
3354.0454
3353.5131
3353.548
3353.392
3353.2603
3354.9539
3353.5825
3354.0232
3526.2432
3524.9818
3527.3554
3524.6093
3525.2738
3525.4801
3525.4621
3525.7358
3525.7011
3526.5204
3524.9818
3527.0126
3525.9656
3524.5711
3525.2785
3525.3813
3525.3309
3526.2263
3525.5663
3525.235
3527.3554
3525.9656
3526.4798
3525.0832
3525.719
3525.74
3525.5899
3526.8912
3526.8404
3525.9778
3524.6093
3524.5711
3525.0832
3523.6524
3524.2624
3524.2297
3523.9354
3525.19
3525.5178
3525.4273
3525.2738
3525.2785
3525.719
3524.2624
3524.865
3524.8181
3524.4539
3525.5597
3525.6979
3525.4603
3525.4801
3525.3813
3525.74
3524.2297
3524.8181
3524.7717
3524.3985
3525.4744
3525.5605
3525.2871
3525.4621
3525.3309
3525.5899
3523.9354
3524.4539
3524.3985
3524.0251
3525.107
3525.2235
3525.1389
3525.7358
3526.2263
3526.8912
3525.19
3525.5597
3525.4744
3525.107
3526.2439
3526.5505
3526.9691
3525.7011
3525.5663
3526.8404
3525.5178
3525.6979
3525.5605
3525.2235
3526.5505
3527.3679
3525.4692
3526.5204
3525.235
3525.9778
3525.4273
3525.4603
3525.2871
3525.1389
3526.9691
3525.4692
3525.9646
3672.5824
3671.2763
3673.7205
3670.8886
3671.5828
3671.7947
3671.7697
3672.059
3672.0212
3672.8825
3671.2763
3673.354
3672.2878
3670.8537
3671.5905
3671.6908
3671.6272
3672.5764
3671.8773
3671.5335
3673.7205
3672.2878
3672.8277
3671.3902
3672.0523
3672.0658
3671.8944
3673.2705
3673.2097
3672.3079
3670.8886
3670.8537
3671.3902
3669.9173
3670.5523
3670.5093
3670.1849
3671.5109
3671.8445
3671.7429
3671.5828
3671.5905
3672.0523
3670.5523
3671.1799
3671.1218
3670.7237
3671.8933
3672.0287
3671.7738
3671.7947
3671.6908
3672.0658
3670.5093
3671.1218
3671.0645
3670.6566
3671.7945
3671.8749
3671.5838
3671.7697
3671.6272
3671.8944
3670.1849
3670.7237
3670.6566
3670.2483
3671.3922
3671.5051
3671.4184
3672.059
3672.5764
3673.2705
3671.5109
3671.8933
3671.7945
3671.3922
3672.5951
3672.9133
3673.3756
3672.0212
3671.8773
3673.2097
3671.8445
3672.0287
3671.8749
3671.5051
3672.9133
3673.7886
3671.7541
3672.8825
3671.5335
3672.3079
3671.7429
3671.7738
3671.5838
3671.4184
3673.3756
3671.7541
3672.3035
3791.4087
3790.0661
3792.5657
3789.6669
3790.3876
3790.6037
3790.5713
3790.8736
3790.8322
3791.7309
3790.0661
3792.1774
3791.1002
3789.6373
3790.3998
3790.4964
3790.4188
3791.4154
3790.6803
3790.326
3792.5657
3791.1002
3791.6638
3790.196
3790.8809
3790.8863
3790.6932
3792.1352
3792.0636
3791.1278
3789.6669
3789.6373
3790.196
3788.6916
3789.3485
3789.2947
3788.9403
3790.3287
3790.665
3790.5522
3790.3876
3790.3998
3790.8809
3789.3485
3789.9977
3789.9284
3789.4967
3790.7219
3790.8522
3790.5808
3790.6037
3790.4964
3790.8863
3789.2947
3789.9284
3789.8597
3789.4177
3790.6094
3790.6823
3790.3742
3790.5713
3790.4188
3790.6932
3788.9403
3789.4967
3789.4177
3788.9749
3790.1728
3790.2801
3790.1913
3790.8736
3791.4154
3792.1352
3790.3287
3790.7219
3790.6094
3790.1728
3791.4332
3791.7602
3792.2646
3790.8322
3790.6803
3792.0636
3790.665
3790.8522
3790.6823
3790.2801
3791.7602
3792.6884
3790.5296
3791.7309
3790.326
3791.1278
3790.5522
3790.5808
3790.3742
3790.1913
3792.2646
3790.5296
3791.1313
3881.027
3879.657
3882.196
3879.2501
3879.9937
3880.2126
3880.1722
3880.485
3880.4396
3881.3701
3879.657
3881.7883
3880.7086
3879.2278
3880.012
3880.104
3880.0114
3881.0486
3880.2809
3879.9179
3882.196
3880.7086
3881.2937
3879.8065
3880.5105
3880.5073
3880.2919
3881.79
3881.7071
3880.7425
3879.2501
3879.2278
3879.8065
3878.2816
3878.9569
3878.8921
3878.5081
3879.9491
3880.2847
3880.1605
3879.9937
3880.012
3880.5105
3878.9569
3879.6244
3879.5436
3879.0791
3880.351
3880.474
3880.1865
3880.2126
3880.104
3880.5073
3878.8921
3879.5436
3879.4634
3878.988
3880.2249
3880.2882
3879.9639
3880.1722
3880.0114
3880.2919
3878.5081
3879.0791
3878.988
3878.5116
3879.7547
3879.854
3879.7631
3880.485
3881.0486
3881.79
3879.9491
3880.351
3880.2249
3879.7547
3881.0635
3881.396
3881.9404
3880.4396
3880.2809
3881.7071
3880.2847
3880.474
3880.2882
3879.854
3881.396
3882.3715
3880.1008
3881.3701
3879.9179
3880.7425
3880.1605
3880.1865
3879.9639
3879.7631
3881.9404
3880.1008
3880.753
3940.017
3938.6293
3941.191
3938.2189
3938.9813
3939.2016
3939.1526
3939.4733
3939.4232
3940.3797
3938.6293
3940.7669
3939.6934
3938.2063
3939.0077
3939.094
3938.9857
3940.0559
3939.2593
3938.8894
3941.191
3939.6934
3940.2975
3938.8022
3939.5214
3939.5089
3939.271
3940.8147
3940.7198
3939.732
3938.2189
3938.2063
3938.8022
3937.2685
3937.9583
3937.8822
3937.4692
3938.9524
3939.2836
3939.1478
3938.9813
3939.0077
3939.5214
3937.9583
3938.6404
3938.5478
3938.0517
3939.3607
3939.474
3939.171
3939.2016
3939.094
3939.5089
3937.8822
3938.5478
3938.456
3937.9483
3939.221
3939.2726
3938.9329
3939.1526
3938.9857
3939.271
3937.4692
3938.0517
3937.9483
3937.4394
3938.7182
3938.8072
3938.7139
3939.4733
3940.0559
3940.8147
3938.9524
3939.3607
3939.221
3938.7182
3940.0656
3940.4002
3940.9821
3939.4232
3939.2593
3940.7198
3939.2836
3939.474
3939.2726
3938.8072
3940.4002
3941.417
3939.0478
3940.3797
3938.8894
3939.732
3939.1478
3939.171
3938.9329
3938.7139
3940.9821
3939.0478
3939.748
3967.2886
3965.8937
3968.461
3965.4842
3966.261
3966.481
3966.4231
3966.7486
3966.6934
3967.6695
3965.8937
3968.0239
3966.9655
3965.4838
3966.2976
3966.377
3966.2525
3967.3477
3966.526
3966.151
3968.461
3966.9655
3967.5858
3966.0941
3966.8241
3966.8018
3966.5413
3968.1193
3968.0118
3967.0064
3965.4842
3965.4838
3966.0941
3964.5632
3965.2635
3965.176
3964.7347
3966.249
3966.5723
3966.4243
3966.261
3966.2976
3966.8241
3965.2635
3965.956
3965.8517
3965.3251
3966.6612
3966.7624
3966.4444
3966.481
3966.377
3966.8018
3965.176
3965.8517
3965.7481
3965.2095
3966.5082
3966.546
3966.1916
3966.4231
3966.2525
3966.5413
3964.7347
3965.3251
3965.2095
3964.6694
3965.974
3966.0506
3965.9544
3966.7486
3967.3477
3968.1193
3966.249
3966.6612
3966.5082
3965.974
3967.3497
3967.6828
3968.2992
3966.6934
3966.526
3968.0118
3966.5723
3966.7624
3966.546
3966.0506
3967.6828
3968.7345
3966.2812
3967.6695
3966.151
3967.0064
3966.4243
3966.4444
3966.1916
3965.9544
3968.2992
3966.2812
3967.026
3962.1296
3960.7385
3963.2939
3960.3344
3961.1209
3961.3388
3961.2717
3961.599
3961.5382
3962.5268
3960.7385
3962.8478
3961.8135
3960.3489
3961.1699
3961.2414
3961.1001
3962.212
3961.3695
3960.9908
3963.2939
3961.8135
3962.4469
3960.9703
3961.7065
3961.6739
3961.391
3962.9916
3962.8709
3961.8534
3960.3344
3960.3489
3960.9703
3959.4543
3960.1606
3960.0615
3959.5932
3961.127
3961.4386
3961.2779
3961.1209
3961.1699
3961.7065
3960.1606
3960.8592
3960.7431
3960.1878
3961.5405
3961.6272
3961.2945
3961.3388
3961.2414
3961.6739
3960.0615
3960.7431
3960.6278
3960.0601
3961.3744
3961.3965
3961.0281
3961.2717
3961.1001
3961.391
3959.5932
3960.1878
3960.0601
3959.4906
3960.8106
3960.8724
3960.7728
3961.599
3962.212
3962.9916
3961.127
3961.5405
3961.3744
3960.8106
3962.2037
3962.5318
3963.1787
3961.5382
3961.3695
3962.8709
3961.4386
3961.6272
3961.3965
3960.8724
3962.5318
3963.6111
3961.0889
3962.5268
3960.9908
3961.8534
3961.2779
3961.2945
3961.0281
3960.7728
3963.1787
3961.0889
3961.8744
3924.2417
3922.8663
3925.392
3922.472
3923.2631
3923.4773
3923.4005
3923.7266
3923.6597
3924.6535
3922.8663
3924.9414
3923.9401
3922.5041
3923.3269
3923.3895
3923.231
3924.3508
3923.4921
3923.1112
3925.392
3923.9401
3924.583
3923.1332
3923.8707
3923.8274
3923.5224
3925.1335
3924.9991
3923.9752
3922.472
3922.5041
3923.1332
3921.6438
3922.3514
3922.2409
3921.7471
3923.2883
3923.5846
3923.4105
3923.2631
3923.3269
3923.8707
3922.3514
3923.0514
3922.9238
3922.3419
3923.7004
3923.7704
3923.4235
3923.4773
3923.3895
3923.8274
3922.2409
3922.9238
3922.797
3922.2023
3923.5216
3923.5261
3923.1443
3923.4005
3923.231
3923.5224
3921.7471
3922.3419
3922.2023
3921.6055
3922.9303
3922.9752
3922.8714
3923.7266
3924.3508
3925.1335
3923.2883
3923.7004
3923.5216
3922.9303
3924.3297
3924.6491
3925.3223
3923.6597
3923.4921
3924.9991
3923.5846
3923.7704
3923.5261
3922.9752
3924.6491
3925.7485
3923.1735
3924.6535
3923.1112
3923.9752
3923.4105
3923.4235
3923.1443
3922.8714
3925.3223
3923.1735
3923.9951
3853.7653
3852.4175
3854.8959
3852.0374
3852.8277
3853.0363
3852.9498
3853.2715
3853.198
3854.1893
3852.4175
3854.4458
3853.4859
3852.0897
3852.9086
3852.9612
3852.7854
3853.9044
3853.0342
3852.6522
3854.8959
3853.4859
3854.1346
3852.7227
3853.4565
3853.4022
3853.0759
3854.6848
3854.5364
3853.5117
3852.0374
3852.0897
3852.7227
3851.2715
3851.9755
3851.8537
3851.3363
3852.8729
3853.1502
3852.9621
3852.8277
3852.9086
3853.4565
3851.9755
3852.6721
3852.5332
3851.9272
3853.2805
3853.3318
3852.9711
3853.0363
3852.9612
3853.4022
3851.8537
3852.5332
3852.3951
3851.7761
3853.0898
3853.075
3852.6805
3852.9498
3852.7854
3853.0759
3851.3363
3851.9272
3851.7761
3851.1546
3852.4734
3852.4995
3852.3905
3853.2715
3853.9044
3854.6848
3852.8729
3853.2805
3853.0898
3852.4734
3853.8678
3854.1749
3854.8694
3853.198
3853.0342
3854.5364
3853.1502
3853.3318
3853.075
3852.4995
3854.1749
3855.2867
3852.6753
3854.1893
3852.6522
3853.5117
3852.9621
3852.9711
3852.6805
3852.3905
3854.8694
3852.6753
3853.5276
3751.2884
3749.9806
3752.3942
3749.6188
3750.4027
3750.6039
3750.5075
3750.8219
3750.7415
3751.7223
3749.9806
3751.95
3751.0394
3749.6938
3750.5028
3750.5446
3750.3517
3751.4608
3750.5842
3750.2022
3752.3942
3751.0394
3751.6898
3750.3267
3751.0513
3750.9859
3750.6394
3752.2336
3752.071
3751.051
3749.6188
3749.6938
3750.3267
3748.9249
3749.6201
3749.4872
3748.9487
3750.4685
3750.7235
3750.5206
3750.4027
3750.5028
3751.0513
3749.6201
3750.3081
3750.1584
3749.5313
3750.8685
3750.8993
3750.5253
3750.6039
3750.5446
3750.9859
3749.4872
3750.1584
3750.0095
3749.3693
3750.6665
3750.6312
3750.2248
3750.5075
3750.3517
3750.6394
3748.9487
3749.5313
3749.3693
3748.7261
3750.0281
3750.0337
3749.9187
3750.8219
3751.4608
3752.2336
3750.4685
3750.8685
3750.6665
3750.0281
3751.4063
3751.6977
3752.4081
3750.7415
3750.5842
3752.071
3750.7235
3750.8993
3750.6312
3750.0337
3751.6977
3752.8136
3750.183
3751.7223
3750.2022
3751.051
3750.5206
3750.5253
3750.2248
3749.9187
3752.4081
3750.183
3751.06
3617.8437
3616.588
3618.9197
3616.2484
3617.0199
3617.2119
3617.1058
3617.4098
3617.3224
3618.2845
3616.588
3618.4869
3617.6333
3616.3482
3617.141
3617.1713
3616.9618
3618.0521
3617.1744
3616.7934
3618.9197
3617.6333
3618.2808
3616.9767
3617.6866
3617.6101
3617.2448
3618.8119
3618.6351
3617.6251
3616.2484
3616.3482
3616.9767
3615.6346
3616.3158
3616.1724
3615.6156
3617.1065
3617.3362
3617.1179
3617.0199
3617.141
3617.6866
3616.3158
3616.99
3616.8302
3616.1854
3617.4958
3617.5046
3617.1179
3617.2119
3617.1713
3617.6101
3616.1724
3616.8302
3616.6711
3616.0131
3617.2836
3617.2267
3616.8092
3617.1058
3616.9618
3617.2448
3615.6156
3616.1854
3616.0131
3615.3518
3616.6266
3616.6104
3616.4883
3617.4098
3618.0521
3618.8119
3617.1065
3617.4958
3617.2836
3616.6266
3617.9775
3618.2499
3618.9705
3617.3224
3617.1744
3618.6351
3617.3362
3617.5046
3617.2267
3616.6104
3618.2499
3619.3618
3616.7293
3618.2845
3616.7934
3617.6251
3617.1179
3617.1179
3616.8092
3616.4883
3618.9705
3616.7293
3617.6243
3454.8895
3453.6982
3455.9313
3453.384
3454.137
3454.3182
3454.2026
3454.4935
3454.3991
3455.3343
3453.6982
3455.5157
3454.7257
3453.5103
3454.2807
3454.2988
3454.0735
3455.1362
3454.263
3453.8838
3455.9313
3454.7257
3455.3656
3454.1298
3454.8193
3454.7318
3454.3498
3455.8775
3455.6868
3454.6923
3453.384
3453.5103
3454.1298
3452.8571
3453.5188
3453.3656
3452.7937
3454.2443
3454.4459
3454.2117
3454.137
3454.2807
3454.8193
3453.5188
3454.174
3454.0047
3453.3462
3454.6196
3454.6054
3454.207
3454.3182
3454.2988
3454.7318
3453.3656
3454.0047
3453.8362
3453.1645
3454.3982
3454.3192
3453.8918
3454.2026
3454.0735
3454.3498
3452.7937
3453.3462
3453.1645
3452.4892
3453.7267
3453.6878
3453.5578
3454.4935
3455.1362
3455.8775
3454.2443
3454.6196
3454.3982
3453.7267
3455.0397
3455.2903
3456.0147
3454.3991
3454.263
3455.6868
3454.4459
3454.6054
3454.3192
3453.6878
3455.2903
3456.3897
3453.7729
3455.3343
3453.8838
3454.6923
3454.2117
3454.207
3453.8918
3453.5578
3456.0147
3453.7729
3454.6789
3264.2801
3263.1645
3265.2834
3262.8786
3263.6068
3263.7755
3263.6511
3263.9262
3263.825
3264.7253
3263.1645
3264.8905
3264.1699
3263.0323
3263.7739
3263.7793
3263.5395
3264.5665
3263.7033
3263.327
3265.2834
3264.1699
3264.7971
3263.6379
3264.3014
3264.2034
3263.8069
3265.2836
3265.0796
3264.1059
3262.8786
3263.0323
3263.6379
3262.4434
3263.0802
3262.918
3262.335
3263.7341
3263.9054
3263.6553
3263.6068
3263.7739
3264.3014
3263.0802
3263.7109
3263.5332
3262.8655
3264.0921
3264.0544
3263.6454
3263.7755
3263.7793
3264.2034
3262.918
3263.5332
3263.3563
3262.6754
3263.863
3263.7618
3263.3259
3263.6511
3263.5395
3263.8069
3262.335
3262.8655
3262.6754
3261.9906
3263.1813
3263.1194
3262.9809
3263.9262
3264.5665
3265.2836
3263.7341
3264.0921
3263.863
3263.1813
3264.4464
3264.6727
3265.3947
3263.825
3263.7033
3265.0796
3263.9054
3264.0544
3263.7618
3263.1194
3264.6727
3265.7516
3263.168
3264.7253
3263.327
3264.1059
3263.6553
3263.6454
3263.3259
3262.9809
3265.3947
3263.168
3264.0775
3048.223
3047.1939
3049.1835
3046.9384
3047.6356
3047.7901
3047.6575
3047.9147
3047.807
3048.6648
3047.1939
3048.8188
3048.1725
3047.1195
3047.8261
3047.8185
3047.5657
3048.5492
3047.7019
3047.3297
3049.1835
3048.1725
3048.7815
3047.7063
3048.3381
3048.23
3047.8219
3049.2366
3049.0202
3048.0727
3046.9384
3047.1195
3047.7063
3046.5976
3047.204
3047.0339
3046.4439
3047.7813
3047.9208
3047.655
3047.6356
3047.8261
3048.3381
3047.204
3047.8048
3047.6199
3046.9478
3048.1189
3048.0577
3047.6398
3047.7901
3047.8185
3048.23
3047.0339
3047.6199
3047.4357
3046.7506
3047.8835
3047.7606
3047.3182
3047.6575
3047.5657
3047.8219
3046.4439
3046.9478
3046.7506
3046.0614
3047.1967
3047.1119
3046.9646
3047.9147
3048.5492
3049.2366
3047.7813
3048.1189
3047.8835
3047.1967
3048.4046
3048.6047
3049.318
3047.807
3047.7019
3049.0202
3047.9208
3048.0577
3047.7606
3047.1119
3048.6047
3049.6551
3047.1223
3048.6648
3047.3297
3048.0727
3047.655
3047.6398
3047.3182
3046.9646
3049.318
3047.1223
3048.0275
2809.2284
2808.2956
2810.142
2808.0717
2808.7316
2808.8705
2808.7307
2808.9682
2808.8548
2809.6626
2808.2956
2809.8102
2809.242
2808.2795
2808.9446
2808.9239
2808.6602
2809.5931
2808.768
2808.4009
2810.142
2809.242
2809.8272
2808.8421
2809.4366
2809.3192
2808.9027
2810.2454
2810.018
2809.1022
2808.0717
2808.2795
2808.8421
2807.8256
2808.3963
2808.2195
2807.6273
2808.8938
2809.0004
2808.7198
2808.7316
2808.9446
2809.4366
2808.3963
2808.962
2808.7711
2808.1001
2809.2076
2809.1237
2808.6991
2808.8705
2808.9239
2809.3192
2808.2195
2808.7711
2808.581
2807.8973
2808.9677
2808.8243
2808.3778
2808.7307
2808.6602
2808.9027
2807.6273
2808.1001
2807.8973
2807.2091
2808.2813
2808.1744
2808.0185
2808.9682
2809.5931
2810.2454
2808.8938
2809.2076
2808.9677
2808.2813
2809.4237
2809.5963
2810.2947
2808.8548
2808.768
2810.018
2809.0004
2809.1237
2808.8243
2808.1744
2809.5963
2810.6106
2808.146
2809.6626
2808.4009
2809.1022
2808.7198
2808.6991
2808.3778
2808.0185
2810.2947
2808.146
2809.0391
2550.052
2549.2237
2550.9141
2549.0321
2549.6484
2549.7705
2549.6246
2549.8409
2549.7228
2550.474
2549.2237
2550.6196
2550.132
2549.2643
2549.882
2549.8483
2549.576
2550.4521
2549.6552
2549.2952
2550.9141
2550.132
2550.6875
2549.7974
2550.3491
2550.2233
2549.8023
2551.0638
2550.8273
2549.9488
2549.0321
2549.2643
2549.7974
2548.8784
2549.4081
2549.2261
2548.6368
2549.8242
2549.8978
2549.6038
2549.6484
2549.882
2550.3491
2549.4081
2549.9334
2549.7382
2549.0741
2550.1111
2550.0059
2549.5775
2549.7705
2549.8483
2550.2233
2549.2261
2549.7382
2549.5436
2548.8672
2549.8686
2549.7065
2549.2591
2549.6246
2549.576
2549.8023
2548.6368
2549.0741
2548.8672
2548.1859
2549.1884
2549.061
2548.8974
2549.8409
2550.4521
2551.0638
2549.8242
2550.1111
2549.8686
2549.1884
2550.2582
2550.4026
2551.0803
2549.7228
2549.6552
2550.8273
2549.8978
2550.0059
2549.7065
2549.061
2550.4026
2551.374
2548.9945
2550.474
2549.2952
2549.9488
2549.6038
2549.5775
2549.2591
2548.8974
2551.0803
2548.9945
2549.8678
2273.633
2272.9162
2274.439
2272.7564
2273.3233
2273.4273
2273.2767
2273.4708
2273.3494
2274.0381
2272.9162
2274.185
2273.7796
2273.0099
2273.5741
2273.5278
2273.2498
2274.0637
2273.3015
2272.9505
2274.439
2273.7796
2274.2995
2273.5079
2274.0117
2273.8786
2273.4571
2274.6297
2274.3864
2273.551
2272.7564
2273.0099
2273.5079
2272.6902
2273.174
2272.9883
2272.4076
2273.5089
2273.55
2273.2449
2273.3233
2273.5741
2274.0117