/*--------------------------------*- C++ -*----------------------------------*\
| =========                 |                                                 |
| \\      /  F ield         | OpenFOAM: The Open Source CFD Toolbox           |
|  \\    /   O peration     | Version:  v2106                                 |
|   \\  /    A nd           | Website:  www.openfoam.com                      |
|    \\/     M anipulation  |                                                 |
\*---------------------------------------------------------------------------*/
FoamFile
{
    version     2.0;
    format      ascii;
    arch        "LSB;label=32;scalar=64";
    class       volScalarField;
    location    "12.5";
    object      T;
}
// * * * * * * * * * * * * * * * * * * * * * * * * * * * * * * * * * * * * * //

dimensions      [0 0 0 1 0 0 0];

internalField   nonuniform List<scalar> 
4000
(
273.70087
273.70087
273.70087
273.70088
273.70088
273.70088
273.70088
273.70087
273.70087
273.70087
273.70087
273.70087
273.70087
273.70088
273.70088
273.70088
273.70087
273.70087
273.70087
273.70087
273.70087
273.70087
273.70087
273.70088
273.70088
273.70088
273.70087
273.70087
273.70087
273.70087
273.70088
273.70088
273.70088
273.70088
273.70088
273.70088
273.70088
273.70088
273.70088
273.70087
273.70088
273.70088
273.70088
273.70088
273.70088
273.70088
273.70088
273.70088
273.70088
273.70088
273.70088
273.70088
273.70088
273.70088
273.70088
273.70088
273.70088
273.70088
273.70088
273.70087
273.70088
273.70087
273.70087
273.70088
273.70088
273.70088
273.70088
273.70088
273.70087
273.70087
273.70087
273.70087
273.70087
273.70088
273.70088
273.70088
273.70088
273.70087
273.70087
273.70087
273.70087
273.70087
273.70087
273.70088
273.70088
273.70088
273.70087
273.70087
273.70087
273.70087
273.70087
273.70087
273.70087
273.70087
273.70088
273.70087
273.70087
273.70087
273.70087
273.70087
276.4577
276.4577
276.45769
276.45772
276.45772
276.45772
276.45771
276.45771
276.4577
276.4577
276.4577
276.45768
276.4577
276.45772
276.45772
276.45772
276.45771
276.45771
276.4577
276.4577
276.45769
276.4577
276.4577
276.45773
276.45773
276.45772
276.45772
276.45771
276.4577
276.4577
276.45772
276.45772
276.45773
276.45775
276.45775
276.45774
276.45774
276.45773
276.45772
276.45771
276.45772
276.45772
276.45773
276.45775
276.45775
276.45775
276.45774
276.45773
276.45772
276.45772
276.45772
276.45772
276.45772
276.45774
276.45775
276.45774
276.45774
276.45773
276.45772
276.45771
276.45771
276.45771
276.45772
276.45774
276.45774
276.45774
276.45773
276.45772
276.45771
276.45771
276.45771
276.45771
276.45771
276.45773
276.45773
276.45773
276.45772
276.45771
276.4577
276.4577
276.4577
276.4577
276.4577
276.45772
276.45772
276.45772
276.45771
276.4577
276.45769
276.45769
276.4577
276.4577
276.4577
276.45771
276.45772
276.45771
276.45771
276.4577
276.45769
276.45769
279.24997
279.24997
279.24997
279.25001
279.25002
279.25001
279.25
279.24999
279.24998
279.24997
279.24997
279.24996
279.24998
279.25002
279.25002
279.25001
279.25
279.24999
279.24998
279.24998
279.24997
279.24998
279.25
279.25003
279.25003
279.25002
279.25001
279.25
279.24998
279.24998
279.25001
279.25002
279.25003
279.25006
279.25006
279.25006
279.25004
279.25002
279.25001
279.25
279.25002
279.25002
279.25003
279.25006
279.25007
279.25006
279.25005
279.25003
279.25001
279.25001
279.25001
279.25001
279.25002
279.25006
279.25006
279.25005
279.25004
279.25003
279.25001
279.25
279.25
279.25
279.25001
279.25004
279.25005
279.25004
279.25003
279.25002
279.25
279.24999
279.24999
279.24999
279.25
279.25002
279.25003
279.25003
279.25002
279.25
279.24998
279.24997
279.24998
279.24998
279.24998
279.25001
279.25001
279.25001
279.25
279.24998
279.24997
279.24996
279.24997
279.24998
279.24998
279.25
279.25001
279.25
279.24999
279.24997
279.24996
279.24996
282.11009
282.1101
282.1101
282.11015
282.11016
282.11015
282.11014
282.11012
282.11011
282.11009
282.1101
282.11009
282.11012
282.11016
282.11017
282.11016
282.11014
282.11012
282.11011
282.11011
282.1101
282.11012
282.11014
282.11018
282.11019
282.11018
282.11016
282.11013
282.11011
282.11011
282.11015
282.11016
282.11018
282.11022
282.11023
282.11022
282.1102
282.11017
282.11014
282.11014
282.11016
282.11017
282.11019
282.11023
282.11023
282.11022
282.1102
282.11017
282.11015
282.11014
282.11015
282.11016
282.11018
282.11022
282.11022
282.11021
282.1102
282.11017
282.11015
282.11014
282.11014
282.11014
282.11016
282.1102
282.1102
282.1102
282.11018
282.11015
282.11013
282.11012
282.11012
282.11012
282.11013
282.11017
282.11017
282.11017
282.11015
282.11013
282.1101
282.11009
282.11011
282.11011
282.11011
282.11014
282.11015
282.11015
282.11013
282.1101
282.11008
282.11008
282.11009
282.11011
282.11011
282.11014
282.11014
282.11014
282.11012
282.11009
282.11008
282.11007
285.06986
285.06987
285.06987
285.06994
285.06995
285.06994
285.06992
285.06989
285.06987
285.06986
285.06987
285.06986
285.0699
285.06995
285.06996
285.06995
285.06992
285.06989
285.06988
285.06988
285.06987
285.0699
285.06992
285.06997
285.06998
285.06997
285.06994
285.0699
285.06988
285.06988
285.06994
285.06995
285.06997
285.07002
285.07003
285.07001
285.06999
285.06995
285.06992
285.06991
285.06995
285.06996
285.06998
285.07003
285.07003
285.07002
285.07
285.06996
285.06993
285.06992
285.06994
285.06995
285.06997
285.07001
285.07002
285.07001
285.06999
285.06995
285.06992
285.06991
285.06992
285.06992
285.06994
285.06999
285.07
285.06999
285.06997
285.06993
285.0699
285.06989
285.06989
285.06989
285.0699
285.06995
285.06996
285.06995
285.06993
285.06989
285.06986
285.06985
285.06987
285.06988
285.06988
285.06992
285.06993
285.06992
285.0699
285.06986
285.06983
285.06983
285.06986
285.06988
285.06988
285.06991
285.06992
285.06991
285.06989
285.06985
285.06983
285.06982
288.16035
288.16037
288.16036
288.16044
288.16045
288.16044
288.16041
288.16038
288.16036
288.16034
288.16037
288.16036
288.16039
288.16046
288.16046
288.16045
288.16042
288.16038
288.16037
288.16036
288.16036
288.16039
288.16042
288.16048
288.16049
288.16047
288.16044
288.16039
288.16037
288.16037
288.16044
288.16046
288.16048
288.16054
288.16054
288.16053
288.1605
288.16045
288.16041
288.1604
288.16045
288.16046
288.16049
288.16054
288.16055
288.16054
288.16051
288.16046
288.16042
288.16041
288.16044
288.16045
288.16047
288.16053
288.16054
288.16053
288.1605
288.16045
288.16041
288.1604
288.16041
288.16042
288.16044
288.1605
288.16051
288.1605
288.16048
288.16043
288.16039
288.16037
288.16038
288.16038
288.16039
288.16045
288.16046
288.16045
288.16043
288.16037
288.16034
288.16032
288.16036
288.16037
288.16037
288.16041
288.16042
288.16041
288.16039
288.16034
288.1603
288.1603
288.16034
288.16036
288.16037
288.1604
288.16041
288.1604
288.16037
288.16032
288.1603
288.16029
291.4118
291.41182
291.41182
291.41191
291.41192
291.4119
291.41187
291.41184
291.41181
291.41178
291.41182
291.41181
291.41186
291.41193
291.41194
291.41192
291.41189
291.41184
291.41182
291.41181
291.41182
291.41186
291.41189
291.41196
291.41196
291.41195
291.41191
291.41185
291.41182
291.41182
291.41191
291.41193
291.41196
291.41202
291.41203
291.41201
291.41198
291.41191
291.41187
291.41185
291.41192
291.41194
291.41196
291.41203
291.41203
291.41202
291.41199
291.41192
291.41188
291.41186
291.4119
291.41192
291.41195
291.41201
291.41202
291.41201
291.41198
291.41191
291.41187
291.41185
291.41187
291.41189
291.41191
291.41198
291.41199
291.41198
291.41195
291.41188
291.41184
291.41182
291.41184
291.41184
291.41185
291.41191
291.41192
291.41191
291.41188
291.41182
291.41178
291.41176
291.41181
291.41182
291.41182
291.41187
291.41188
291.41187
291.41184
291.41178
291.41174
291.41174
291.41178
291.41181
291.41182
291.41185
291.41186
291.41185
291.41182
291.41176
291.41174
291.41173
294.85349
294.85352
294.85352
294.85361
294.85363
294.85361
294.85357
294.85353
294.8535
294.85347
294.85352
294.85351
294.85355
294.85363
294.85364
294.85362
294.85359
294.85353
294.85351
294.8535
294.85352
294.85355
294.85359
294.85367
294.85367
294.85365
294.85361
294.85354
294.85351
294.8535
294.85361
294.85363
294.85367
294.85374
294.85374
294.85373
294.85369
294.85361
294.85356
294.85354
294.85363
294.85364
294.85367
294.85374
294.85375
294.85373
294.8537
294.85362
294.85357
294.85355
294.85361
294.85362
294.85365
294.85373
294.85373
294.85372
294.85369
294.85361
294.85356
294.85355
294.85357
294.85359
294.85361
294.85369
294.8537
294.85369
294.85365
294.85358
294.85353
294.85351
294.85353
294.85353
294.85354
294.85361
294.85362
294.85361
294.85358
294.85351
294.85345
294.85343
294.8535
294.85351
294.85351
294.85356
294.85357
294.85356
294.85353
294.85345
294.85341
294.85341
294.85347
294.8535
294.8535
294.85354
294.85355
294.85355
294.85351
294.85343
294.85341
294.8534
298.51356
298.51359
298.51359
298.51369
298.5137
298.51368
298.51364
298.51359
298.51356
298.51352
298.51359
298.51358
298.51363
298.51371
298.51372
298.5137
298.51366
298.5136
298.51357
298.51356
298.51359
298.51363
298.51367
298.51375
298.51375
298.51373
298.51369
298.51361
298.51357
298.51357
298.51369
298.51371
298.51375
298.51382
298.51383
298.51381
298.51377
298.51368
298.51363
298.51361
298.5137
298.51372
298.51375
298.51383
298.51384
298.51382
298.51378
298.5137
298.51364
298.51362
298.51368
298.5137
298.51373
298.51381
298.51382
298.51381
298.51377
298.51369
298.51363
298.51361
298.51364
298.51366
298.51369
298.51377
298.51378
298.51377
298.51373
298.51365
298.51359
298.51357
298.51359
298.5136
298.51361
298.51368
298.5137
298.51369
298.51365
298.51357
298.51351
298.51348
298.51356
298.51357
298.51357
298.51363
298.51364
298.51363
298.51359
298.51351
298.51345
298.51346
298.51352
298.51356
298.51357
298.51361
298.51362
298.51361
298.51357
298.51348
298.51346
298.51344
302.41883
302.41886
302.41885
302.41896
302.41898
302.41896
302.41891
302.41886
302.41882
302.41878
302.41886
302.41884
302.4189
302.41899
302.419
302.41898
302.41893
302.41886
302.41883
302.41882
302.41885
302.4189
302.41894
302.41903
302.41903
302.41901
302.41896
302.41887
302.41883
302.41883
302.41896
302.41899
302.41903
302.41911
302.41912
302.4191
302.41905
302.41895
302.41889
302.41887
302.41898
302.419
302.41903
302.41912
302.41913
302.41911
302.41906
302.41897
302.41891
302.41889
302.41896
302.41898
302.41901
302.4191
302.41911
302.41909
302.41905
302.41896
302.4189
302.41887
302.41891
302.41893
302.41896
302.41905
302.41906
302.41905
302.41901
302.41892
302.41885
302.41883
302.41886
302.41886
302.41887
302.41895
302.41897
302.41896
302.41892
302.41882
302.41876
302.41873
302.41882
302.41883
302.41883
302.41889
302.41891
302.4189
302.41885
302.41876
302.4187
302.4187
302.41878
302.41882
302.41883
302.41887
302.41889
302.41887
302.41883
302.41873
302.4187
302.41869
306.59461
306.59464
306.59464
306.59476
306.59477
306.59475
306.5947
306.59464
306.59459
306.59455
306.59464
306.59463
306.59469
306.59478
306.59479
306.59477
306.59472
306.59464
306.59461
306.5946
306.59464
306.59469
306.59473
306.59482
306.59483
306.59481
306.59475
306.59466
306.59461
306.5946
306.59476
306.59478
306.59482
306.59491
306.59492
306.5949
306.59485
306.59474
306.59467
306.59465
306.59477
306.59479
306.59483
306.59492
306.59493
306.59491
306.59486
306.59476
306.59469
306.59467
306.59475
306.59477
306.59481
306.5949
306.59491
306.5949
306.59485
306.59475
306.59468
306.59466
306.5947
306.59472
306.59475
306.59485
306.59486
306.59485
306.59481
306.59471
306.59463
306.5946
306.59464
306.59464
306.59466
306.59474
306.59476
306.59475
306.59471
306.5946
306.59453
306.5945
306.59459
306.59461
306.59461
306.59467
306.59469
306.59468
306.59463
306.59453
306.59446
306.59447
306.59455
306.5946
306.5946
306.59465
306.59467
306.59466
306.5946
306.5945
306.59447
306.59445
311.06452
311.06455
311.06455
311.06468
311.06469
311.06466
311.06462
311.06455
311.0645
311.06445
311.06455
311.06454
311.0646
311.0647
311.06471
311.06469
311.06463
311.06455
311.06451
311.0645
311.06455
311.0646
311.06465
311.06475
311.06475
311.06473
311.06467
311.06457
311.06451
311.06451
311.06468
311.0647
311.06475
311.06484
311.06485
311.06482
311.06477
311.06466
311.06458
311.06456
311.06469
311.06471
311.06475
311.06485
311.06486
311.06484
311.06479
311.06468
311.0646
311.06458
311.06466
311.06469
311.06473
311.06482
311.06484
311.06482
311.06478
311.06467
311.06459
311.06457
311.06462
311.06463
311.06467
311.06477
311.06479
311.06478
311.06473
311.06462
311.06454
311.06451
311.06455
311.06455
311.06457
311.06466
311.06468
311.06467
311.06462
311.06451
311.06443
311.06439
311.0645
311.06451
311.06451
311.06458
311.0646
311.06459
311.06454
311.06443
311.06436
311.06436
311.06445
311.0645
311.06451
311.06456
311.06458
311.06457
311.06451
311.06439
311.06436
311.06435
315.85024
315.85028
315.85028
315.85041
315.85042
315.85039
315.85034
315.85027
315.85022
315.85017
315.85028
315.85027
315.85033
315.85044
315.85044
315.85042
315.85036
315.85027
315.85023
315.85022
315.85028
315.85033
315.85038
315.85048
315.85049
315.85046
315.8504
315.85029
315.85023
315.85023
315.85041
315.85044
315.85048
315.85057
315.85058
315.85056
315.8505
315.85038
315.85031
315.85028
315.85042
315.85044
315.85049
315.85058
315.85059
315.85057
315.85052
315.85041
315.85033
315.8503
315.85039
315.85042
315.85046
315.85056
315.85057
315.85056
315.85051
315.8504
315.85032
315.85029
315.85034
315.85036
315.8504
315.8505
315.85052
315.85051
315.85046
315.85035
315.85027
315.85023
315.85027
315.85027
315.85029
315.85038
315.85041
315.8504
315.85035
315.85023
315.85014
315.8501
315.85022
315.85023
315.85023
315.85031
315.85033
315.85032
315.85027
315.85014
315.85007
315.85008
315.85017
315.85022
315.85023
315.85028
315.8503
315.85029
315.85023
315.8501
315.85008
315.85006
320.97132
320.97136
320.97136
320.97149
320.97151
320.97148
320.97142
320.97135
320.97129
320.97124
320.97136
320.97135
320.97141
320.97152
320.97153
320.9715
320.97144
320.97135
320.97131
320.9713
320.97136
320.97141
320.97147
320.97157
320.97157
320.97155
320.97149
320.97137
320.97131
320.97131
320.97149
320.97152
320.97157
320.97167
320.97167
320.97165
320.97159
320.97147
320.97139
320.97136
320.97151
320.97153
320.97157
320.97167
320.97169
320.97167
320.97161
320.97149
320.97141
320.97138
320.97148
320.9715
320.97155
320.97165
320.97167
320.97165
320.9716
320.97148
320.9714
320.97137
320.97142
320.97144
320.97149
320.97159
320.97161
320.9716
320.97155
320.97143
320.97135
320.97131
320.97135
320.97135
320.97137
320.97147
320.97149
320.97148
320.97143
320.97131
320.97122
320.97118
320.97129
320.97131
320.97131
320.97139
320.97141
320.9714
320.97135
320.97122
320.97114
320.97115
320.97124
320.9713
320.97131
320.97136
320.97138
320.97137
320.97131
320.97118
320.97115
320.97113
326.44496
326.44499
326.44499
326.44513
326.44514
326.44511
326.44506
326.44498
326.44492
326.44487
326.44499
326.44498
326.44505
326.44516
326.44517
326.44514
326.44508
326.44498
326.44494
326.44492
326.44499
326.44505
326.4451
326.4452
326.44521
326.44518
326.44512
326.445
326.44494
326.44493
326.44513
326.44516
326.4452
326.4453
326.44531
326.44529
326.44523
326.4451
326.44502
326.44499
326.44514
326.44517
326.44521
326.44531
326.44532
326.44531
326.44525
326.44513
326.44504
326.44501
326.44511
326.44514
326.44518
326.44529
326.44531
326.44529
326.44524
326.44512
326.44503
326.445
326.44506
326.44508
326.44512
326.44523
326.44525
326.44524
326.44519
326.44507
326.44498
326.44494
326.44498
326.44498
326.445
326.4451
326.44513
326.44512
326.44507
326.44493
326.44484
326.4448
326.44492
326.44494
326.44494
326.44502
326.44504
326.44503
326.44498
326.44484
326.44476
326.44477
326.44487
326.44492
326.44493
326.44499
326.44501
326.445
326.44494
326.4448
326.44477
326.44475
332.28577
332.28581
332.28581
332.28594
332.28596
332.28593
332.28587
332.28579
332.28573
332.28568
332.28581
332.28579
332.28586
332.28598
332.28598
332.28595
332.28589
332.28579
332.28575
332.28573
332.28581
332.28586
332.28591
332.28602
332.28602
332.286
332.28593
332.28581
332.28575
332.28574
332.28594
332.28598
332.28602
332.28612
332.28613
332.28611
332.28605
332.28591
332.28583
332.2858
332.28596
332.28598
332.28602
332.28613
332.28614
332.28612
332.28607
332.28594
332.28585
332.28583
332.28593
332.28595
332.286
332.28611
332.28612
332.28611
332.28606
332.28593
332.28585
332.28582
332.28587
332.28589
332.28593
332.28605
332.28607
332.28606
332.28601
332.28588
332.28579
332.28576
332.28579
332.28579
332.28581
332.28591
332.28594
332.28593
332.28588
332.28575
332.28565
332.28561
332.28573
332.28575
332.28575
332.28583
332.28585
332.28585
332.28579
332.28565
332.28557
332.28558
332.28568
332.28573
332.28574
332.2858
332.28583
332.28582
332.28576
332.28561
332.28558
332.28556
338.50564
338.50568
338.50568
338.50582
338.50583
338.5058
338.50574
338.50566
338.5056
338.50555
338.50568
338.50567
338.50573
338.50585
338.50586
338.50583
338.50576
338.50566
338.50562
338.5056
338.50568
338.50573
338.50579
338.50589
338.5059
338.50587
338.50581
338.50568
338.50562
338.50562
338.50582
338.50585
338.50589
338.506
338.506
338.50598
338.50592
338.50579
338.5057
338.50568
338.50583
338.50586
338.5059
338.506
338.50602
338.506
338.50595
338.50582
338.50573
338.5057
338.5058
338.50583
338.50587
338.50598
338.506
338.50599
338.50594
338.50581
338.50573
338.5057
338.50574
338.50576
338.50581
338.50592
338.50595
338.50594
338.50589
338.50576
338.50567
338.50563
338.50566
338.50566
338.50568
338.50579
338.50582
338.50581
338.50576
338.50562
338.50553
338.50548
338.5056
338.50562
338.50562
338.5057
338.50573
338.50573
338.50567
338.50553
338.50544
338.50546
338.50555
338.5056
338.50562
338.50568
338.5057
338.5057
338.50563
338.50548
338.50546
338.50543
345.11354
345.11358
345.11358
345.11372
345.11373
345.1137
345.11364
345.11356
345.1135
345.11344
345.11358
345.11357
345.11363
345.11375
345.11375
345.11372
345.11366
345.11356
345.11352
345.1135
345.11358
345.11363
345.11368
345.11379
345.11379
345.11377
345.1137
345.11357
345.11351
345.11351
345.11372
345.11375
345.11379
345.11389
345.1139
345.11388
345.11382
345.11368
345.1136
345.11357
345.11373
345.11375
345.11379
345.1139
345.11391
345.1139
345.11385
345.11371
345.11363
345.1136
345.1137
345.11372
345.11377
345.11388
345.1139
345.11389
345.11384
345.11371
345.11363
345.1136
345.11364
345.11366
345.1137
345.11382
345.11385
345.11384
345.1138
345.11366
345.11357
345.11353
345.11356
345.11356
345.11357
345.11368
345.11371
345.11371
345.11366
345.11352
345.11343
345.11338
345.1135
345.11352
345.11351
345.1136
345.11363
345.11363
345.11357
345.11343
345.11334
345.11336
345.11344
345.1135
345.11351
345.11357
345.1136
345.1136
345.11353
345.11338
345.11336
345.11333
352.11536
352.1154
352.11539
352.11553
352.11554
352.11551
352.11546
352.11537
352.11532
352.11526
352.1154
352.11538
352.11545
352.11556
352.11557
352.11554
352.11548
352.11537
352.11533
352.11532
352.11539
352.11545
352.1155
352.1156
352.11561
352.11558
352.11552
352.11539
352.11533
352.11533
352.11553
352.11556
352.1156
352.1157
352.11571
352.11569
352.11564
352.1155
352.11542
352.11539
352.11554
352.11557
352.11561
352.11571
352.11572
352.11571
352.11566
352.11553
352.11545
352.11542
352.11551
352.11554
352.11558
352.11569
352.11571
352.1157
352.11566
352.11553
352.11545
352.11542
352.11546
352.11548
352.11552
352.11564
352.11566
352.11566
352.11562
352.11549
352.1154
352.11536
352.11537
352.11537
352.11539
352.1155
352.11553
352.11553
352.11549
352.11535
352.11525
352.11521
352.11532
352.11533
352.11533
352.11542
352.11545
352.11545
352.1154
352.11525
352.11516
352.11519
352.11526
352.11532
352.11533
352.11539
352.11542
352.11542
352.11536
352.11521
352.11519
352.11516
359.51383
359.51387
359.51386
359.514
359.51401
359.51398
359.51392
359.51384
359.51378
359.51373
359.51387
359.51385
359.51391
359.51402
359.51403
359.514
359.51394
359.51384
359.5138
359.51379
359.51386
359.51391
359.51396
359.51406
359.51406
359.51404
359.51398
359.51385
359.5138
359.5138
359.514
359.51402
359.51406
359.51416
359.51417
359.51415
359.5141
359.51396
359.51388
359.51386
359.51401
359.51403
359.51406
359.51417
359.51418
359.51417
359.51413
359.514
359.51392
359.51389
359.51398
359.514
359.51404
359.51415
359.51417
359.51417
359.51413
359.514
359.51392
359.5139
359.51392
359.51394
359.51398
359.5141
359.51413
359.51413
359.51409
359.51396
359.51387
359.51384
359.51384
359.51384
359.51385
359.51396
359.514
359.514
359.51396
359.51382
359.51373
359.51368
359.51378
359.5138
359.5138
359.51388
359.51392
359.51392
359.51387
359.51373
359.51364
359.51367
359.51373
359.51379
359.5138
359.51386
359.51389
359.5139
359.51384
359.51368
359.51367
359.51364
367.30843
367.30847
367.30846
367.30859
367.3086
367.30857
367.30852
367.30844
367.30839
367.30833
367.30847
367.30845
367.30851
367.30862
367.30862
367.30859
367.30854
367.30844
367.30841
367.30839
367.30846
367.30851
367.30855
367.30865
367.30866
367.30863
367.30858
367.30846
367.3084
367.30841
367.30859
367.30862
367.30865
367.30875
367.30876
367.30874
367.3087
367.30856
367.30849
367.30847
367.3086
367.30862
367.30866
367.30876
367.30877
367.30877
367.30873
367.3086
367.30852
367.3085
367.30857
367.30859
367.30863
367.30874
367.30877
367.30876
367.30873
367.30861
367.30853
367.30851
367.30852
367.30854
367.30858
367.3087
367.30873
367.30873
367.3087
367.30857
367.30849
367.30845
367.30844
367.30844
367.30846
367.30856
367.3086
367.30861
367.30857
367.30844
367.30834
367.3083
367.30839
367.30841
367.3084
367.30849
367.30852
367.30853
367.30849
367.30834
367.30826
367.30829
367.30833
367.30839
367.30841
367.30847
367.3085
367.30851
367.30845
367.3083
367.30829
367.30826
375.49538
375.49542
375.49541
375.49554
375.49555
375.49552
375.49547
375.49539
375.49534
375.49529
375.49542
375.4954
375.49545
375.49556
375.49556
375.49554
375.49549
375.49539
375.49536
375.49535
375.49541
375.49545
375.49549
375.49559
375.49559
375.49558
375.49553
375.4954
375.49535
375.49536
375.49554
375.49556
375.49559
375.49569
375.49569
375.49568
375.49564
375.49551
375.49544
375.49542
375.49555
375.49556
375.49559
375.49569
375.49571
375.4957
375.49567
375.49555
375.49548
375.49546
375.49552
375.49554
375.49558
375.49568
375.4957
375.49571
375.49568
375.49556
375.49549
375.49547
375.49547
375.49549
375.49553
375.49564
375.49567
375.49568
375.49565
375.49553
375.49545
375.49542
375.49539
375.49539
375.4954
375.49551
375.49555
375.49556
375.49553
375.4954
375.49531
375.49527
375.49534
375.49536
375.49535
375.49544
375.49548
375.49549
375.49545
375.49531
375.49523
375.49526
375.49529
375.49535
375.49536
375.49542
375.49546
375.49547
375.49542
375.49527
375.49526
375.49524
384.06764
384.06767
384.06766
384.06778
384.06779
384.06776
384.06772
384.06765
384.0676
384.06755
384.06767
384.06765
384.0677
384.0678
384.06781
384.06778
384.06774
384.06765
384.06762
384.06761
384.06766
384.0677
384.06774
384.06783
384.06783
384.06782
384.06777
384.06766
384.06761
384.06762
384.06778
384.0678
384.06783
384.06792
384.06793
384.06792
384.06789
384.06776
384.0677
384.06768
384.06779
384.06781
384.06783
384.06793
384.06794
384.06795
384.06792
384.0678
384.06774
384.06772
384.06776
384.06778
384.06782
384.06792
384.06795
384.06795
384.06793
384.06782
384.06775
384.06774
384.06772
384.06774
384.06777
384.06789
384.06792
384.06793
384.06791
384.0678
384.06772
384.06769
384.06765
384.06765
384.06766
384.06776
384.0678
384.06782
384.0678
384.06767
384.06759
384.06755
384.0676
384.06762
384.06761
384.0677
384.06774
384.06775
384.06772
384.06759
384.06751
384.06754
384.06755
384.06761
384.06762
384.06768
384.06772
384.06774
384.06769
384.06755
384.06754
384.06752
393.01495
393.01498
393.01497
393.01509
393.0151
393.01507
393.01503
393.01497
393.01493
393.01488
393.01498
393.01496
393.01501
393.01511
393.01511
393.01509
393.01505
393.01496
393.01494
393.01494
393.01497
393.01501
393.01504
393.01513
393.01513
393.01512
393.01508
393.01497
393.01493
393.01495
393.01509
393.01511
393.01513
393.01522
393.01523
393.01522
393.01519
393.01508
393.01502
393.01501
393.0151
393.01511
393.01513
393.01523
393.01524
393.01524
393.01522
393.01512
393.01506
393.01505
393.01507
393.01509
393.01512
393.01522
393.01524
393.01526
393.01524
393.01514
393.01508
393.01507
393.01503
393.01505
393.01508
393.01519
393.01522
393.01524
393.01523
393.01512
393.01505
393.01503
393.01497
393.01496
393.01497
393.01508
393.01512
393.01514
393.01512
393.01501
393.01493
393.01489
393.01493
393.01494
393.01493
393.01502
393.01506
393.01508
393.01505
393.01493
393.01486
393.01489
393.01488
393.01494
393.01495
393.01501
393.01505
393.01507
393.01503
393.01489
393.01489
393.01487
402.32399
402.32402
402.324
402.32412
402.32412
402.3241
402.32407
402.32401
402.32397
402.32393
402.32402
402.324
402.32404
402.32413
402.32413
402.32411
402.32408
402.324
402.32399
402.32398
402.324
402.32404
402.32407
402.32415
402.32415
402.32414
402.32411
402.32401
402.32398
402.32399
402.32412
402.32413
402.32415
402.32423
402.32424
402.32424
402.32422
402.32411
402.32406
402.32405
402.32412
402.32413
402.32415
402.32424
402.32426
402.32426
402.32425
402.32415
402.3241
402.3241
402.3241
402.32411
402.32414
402.32424
402.32426
402.32428
402.32427
402.32418
402.32413
402.32412
402.32407
402.32408
402.32411
402.32422
402.32425
402.32427
402.32427
402.32417
402.32411
402.32409
402.32401
402.324
402.32401
402.32411
402.32415
402.32418
402.32417
402.32406
402.32399
402.32396
402.32397
402.32399
402.32398
402.32406
402.3241
402.32413
402.32411
402.32399
402.32393
402.32396
402.32393
402.32398
402.32399
402.32405
402.3241
402.32412
402.32409
402.32396
402.32396
402.32395
411.97846
411.97848
411.97847
411.97857
411.97858
411.97856
411.97853
411.97848
411.97845
411.97841
411.97848
411.97846
411.9785
411.97858
411.97858
411.97857
411.97854
411.97847
411.97846
411.97847
411.97847
411.9785
411.97852
411.9786
411.9786
411.9786
411.97858
411.97848
411.97846
411.97847
411.97857
411.97858
411.9786
411.97868
411.97868
411.97869
411.97867
411.97858
411.97853
411.97853
411.97858
411.97858
411.9786
411.97868
411.9787
411.97872
411.97871
411.97862
411.97858
411.97858
411.97856
411.97857
411.9786
411.97869
411.97872
411.97874
411.97874
411.97865
411.97861
411.9786
411.97853
411.97854
411.97858
411.97867
411.97871
411.97874
411.97874
411.97865
411.9786
411.97858
411.97848
411.97847
411.97848
411.97858
411.97862
411.97865
411.97865
411.97855
411.97849
411.97846
411.97845
411.97846
411.97846
411.97853
411.97858
411.97861
411.9786
411.97849
411.97843
411.97847
411.97841
411.97847
411.97847
411.97853
411.97858
411.9786
411.97858
411.97846
411.97847
411.97846
421.95931
421.95933
421.95931
421.95941
421.95941
421.9594
421.95938
421.95933
421.95931
421.95927
421.95933
421.95931
421.95934
421.95941
421.95941
421.95941
421.95939
421.95932
421.95932
421.95933
421.95931
421.95934
421.95936
421.95943
421.95943
421.95943
421.95941
421.95933
421.95931
421.95933
421.95941
421.95941
421.95943
421.9595
421.95951
421.95952
421.95951
421.95943
421.95939
421.95939
421.95941
421.95941
421.95943
421.95951
421.95952
421.95954
421.95955
421.95947
421.95943
421.95944
421.9594
421.95941
421.95943
421.95952
421.95954
421.95957
421.95958
421.9595
421.95947
421.95947
421.95938
421.95939
421.95941
421.95951
421.95955
421.95958
421.95959
421.95951
421.95947
421.95945
421.95933
421.95932
421.95933
421.95943
421.95947
421.9595
421.95951
421.95942
421.95937
421.95934
421.95931
421.95932
421.95931
421.95939
421.95943
421.95947
421.95947
421.95937
421.95932
421.95936
421.95927
421.95933
421.95933
421.95939
421.95944
421.95947
421.95945
421.95934
421.95936
421.95935
432.24493
432.24495
432.24493
432.24502
432.24502
432.24502
432.245
432.24496
432.24495
432.24492
432.24495
432.24493
432.24495
432.24502
432.24502
432.24502
432.24501
432.24496
432.24496
432.24497
432.24493
432.24495
432.24497
432.24503
432.24504
432.24504
432.24503
432.24496
432.24495
432.24497
432.24502
432.24502
432.24503
432.2451
432.24511
432.24512
432.24512
432.24505
432.24502
432.24503
432.24502
432.24502
432.24504
432.24511
432.24513
432.24515
432.24516
432.2451
432.24507
432.24508
432.24502
432.24502
432.24504
432.24512
432.24515
432.24518
432.2452
432.24513
432.24511
432.24511
432.245
432.24501
432.24503
432.24512
432.24516
432.2452
432.24521
432.24515
432.24511
432.24511
432.24496
432.24496
432.24496
432.24505
432.2451
432.24513
432.24515
432.24507
432.24502
432.245
432.24495
432.24496
432.24495
432.24502
432.24507
432.24511
432.24511
432.24502
432.24498
432.24502
432.24492
432.24497
432.24497
432.24503
432.24508
432.24511
432.24511
432.245
432.24502
432.24502
442.81144
442.81146
442.81144
442.81152
442.81152
442.81152
442.81151
442.81148
442.81147
442.81145
442.81146
442.81144
442.81146
442.81152
442.81152
442.81152
442.81152
442.81147
442.81148
442.81149
442.81144
442.81146
442.81147
442.81152
442.81153
442.81154
442.81154
442.81148
442.81148
442.8115
442.81152
442.81152
442.81152
442.81158
442.8116
442.81161
442.81162
442.81156
442.81154
442.81155
442.81152
442.81152
442.81153
442.8116
442.81162
442.81164
442.81166
442.81161
442.81159
442.8116
442.81152
442.81152
442.81154
442.81161
442.81164
442.81168
442.8117
442.81165
442.81163
442.81164
442.81151
442.81152
442.81154
442.81162
442.81166
442.8117
442.81173
442.81167
442.81165
442.81164
442.81148
442.81147
442.81148
442.81156
442.81161
442.81165
442.81167
442.81161
442.81157
442.81155
442.81147
442.81148
442.81148
442.81154
442.81159
442.81163
442.81165
442.81157
442.81153
442.81158
442.81145
442.81149
442.8115
442.81155
442.8116
442.81164
442.81164
442.81155
442.81158
442.81157
453.63293
453.63294
453.63292
453.63299
453.633
453.633
453.633
453.63298
453.63298
453.63296
453.63294
453.63292
453.63294
453.63299
453.633
453.633
453.633
453.63297
453.63298
453.633
453.63292
453.63294
453.63294
453.63299
453.633
453.63302
453.63302
453.63298
453.63298
453.63301
453.63299
453.63299
453.63299
453.63305
453.63306
453.63309
453.6331
453.63305
453.63304
453.63306
453.633
453.633
453.633
453.63306
453.63308
453.63312
453.63314
453.6331
453.63309