/*--------------------------------*- C++ -*----------------------------------*\
| =========                 |                                                 |
| \\      /  F ield         | OpenFOAM: The Open Source CFD Toolbox           |
|  \\    /   O peration     | Version:  v2106                                 |
|   \\  /    A nd           | Website:  www.openfoam.com                      |
|    \\/     M anipulation  |                                                 |
\*---------------------------------------------------------------------------*/
FoamFile
{
    version     2.0;
    format      ascii;
    arch        "LSB;label=32;scalar=64";
    class       volScalarField;
    location    "52.5";
    object      gradTx;
}
// * * * * * * * * * * * * * * * * * * * * * * * * * * * * * * * * * * * * * //

dimensions      [0 -1 0 1 0 0 0];

internalField   nonuniform List<scalar> 
4000
(
0.00039484802
0.00022267622
-0.00049472715
-0.00019043195
-8.2321694e-05
4.3172897e-06
6.4816184e-05
8.1180759e-05
3.7185007e-05
-3.4529352e-07
7.2580296e-05
-0.00020610614
-0.00043743739
-0.00018557551
-7.5992703e-05
1.6790505e-05
9.0067248e-05
0.00012514109
7.0706727e-05
3.976254e-06
0.00010899311
-0.00014679859
-0.00043040457
-0.00017960217
-6.6855414e-05
3.1113555e-05
0.00011466779
0.00017239277
0.00015766701
4.0972618e-05
0.00011077347
-0.00014178356
-0.00042458058
-0.00017147344
-5.6155176e-05
4.5073179e-05
0.00013257154
0.00019366292
0.00017818057
4.7131634e-05
0.00011223074
-0.0001359688
-0.00041630249
-0.00016151418
-4.4887447e-05
5.7809729e-05
0.00014692319
0.00020872284
0.00019067133
5.0467403e-05
0.0001149928
-0.00012631727
-0.00040474305
-0.00014950547
-3.3291526e-05
6.8797207e-05
0.00015723654
0.00021783976
0.00019731595
5.2128595e-05
0.00012054621
-0.00010917255
-0.00038801981
-0.000134818
-2.116341e-05
7.8239586e-05
0.00016419144
0.00022230504
0.00019946245
5.2490604e-05
0.00013182684
-7.6465676e-05
-0.00036223877
-0.00011725007
-8.6265133e-06
8.6065476e-05
0.0001679378
0.00022220543
0.00019665483
5.1274958e-05
0.0001498531
-1.7960534e-05
-0.00031949799
-9.8487929e-05
3.0134223e-06
9.1821779e-05
0.00016855713
0.00021717795
0.00018663436
4.7290207e-05
0.00015417465
4.4016335e-05
-0.00025476492
-8.4245755e-05
1.0508865e-05
9.4856586e-05
0.00016727667
0.00020937735
0.00016900407
3.9521425e-05
0.0014228739
0.00070053499
-0.0020426675
-0.00092252545
-0.00039075998
3.4666093e-05
0.00033327951
0.00040147741
8.8718877e-05
-6.0847541e-05
0.00037189649
-0.00074520898
-0.0019006445
-0.00090029953
-0.00035960797
9.6031666e-05
0.0004602319
0.0006242056
0.00015481022
-0.00010806289
0.00045904458
-0.00059063216
-0.0018635973
-0.0008690917
-0.00031462737
0.00016620826
0.0005817587
0.00086235901
0.00057160288
6.3240221e-05
0.00046657852
-0.00056613879
-0.0018328944
-0.00082879313
-0.00026228607
0.0002343812
0.00066949619
0.00096963161
0.0006819684
9.8047334e-05
0.00047386186
-0.00053719841
-0.0017920909
-0.0007800597
-0.00020725499
0.00029650139
0.00073922249
0.0010424081
0.00074184837
0.00011391088
0.00048734654
-0.00049000619
-0.0017355725
-0.00072142075
-0.00015063595
0.0003501466
0.0007895296
0.0010867361
0.00077372071
0.00012173725
0.00051477224
-0.00040565625
-0.0016537414
-0.00064976657
-9.1489591e-05
0.00039619639
0.00082333117
0.0011081992
0.0007835886
0.00012324956
0.00057198146
-0.000241527
-0.0015263082
-0.00056395696
-3.0602537e-05
0.00043425528
0.00084116998
0.0011064143
0.00076709505
0.00011609387
0.00066325771
5.522536e-05
-0.0013083154
-0.00046971746
2.5614893e-05
0.0004619875
0.0008430094
0.0010772763
0.000704664
9.0058498e-05
0.00061604235
0.00024135699
-0.00099915005
-0.00039371146
6.1149767e-05
0.0004759955
0.00083454432
0.0010274897
0.00056587178
2.3565722e-05
0.001910669
0.00064595688
-0.0032511283
-0.0015587621
-0.00063683228
0.00012710606
0.00068648654
0.00081142727
-8.4524322e-05
-0.00029714865
0.00044409493
-0.0013951311
-0.0030753991
-0.0015227692
-0.00058240997
0.00023601419
0.00092559863
0.0012908938
0.00017303543
-0.00033469351
0.00054994364
-0.0012010723
-0.0030169492
-0.0014674899
-0.00050233083
0.00036009621
0.0011377572
0.0017064516
0.00087870935
-5.0589087e-05
0.00056124773
-0.001160952
-0.0029625523
-0.0013956459
-0.00040901001
0.0004818618
0.0012949234
0.0019009343
0.001081854
1.3925724e-05
0.00057393892
-0.0011098001
-0.002889826
-0.0013088732
-0.0003111379
0.00059223622
0.0014185674
0.002029867
0.0011881924
4.2183019e-05
0.00059752928
-0.0010264506
-0.0027891523
-0.001204453
-0.00021049529
0.00068751431
0.0015077393
0.002108165
0.0012441267
5.5824419e-05
0.00064654434
-0.00087680994
-0.0026439783
-0.0010767332
-0.00010548539
0.00076912307
0.0015672678
0.002145221
0.0012600236
5.7895522e-05
0.00075693733
-0.00057517993
-0.0024198275
-0.00092364277
2.3205843e-06
0.00083621462
0.0015975606
0.0021381113
0.0012222231
4.1453015e-05
0.00096618869
1.8214399e-05
-0.0020339378
-0.00075331787
0.00010174524
0.00088447707
0.0015972141
0.0020710793
0.0010602742
-3.058275e-05
0.00092864383
0.00038805374
-0.001511009
-0.00061415971
0.00016459328
0.00090804582
0.001575657
0.0019383619
0.00053434941
-0.00030916352
0.0023152702
0.00055659105
-0.0043142039
-0.0020992712
-0.00080705537
0.00029630341
0.001146263
0.0014058558
-4.3142122e-05
-0.00046980817
0.00050725551
-0.0019674747
-0.0041033198
-0.0020493116
-0.00073023005
0.00044927135
0.0014871599
0.0021233611
0.00035408436
-0.00052484572
0.00063255969
-0.0017330011
-0.0040237
-0.001970186
-0.0006156238
0.00062618855
0.0017874199
0.0027109493
0.0013268132
-0.00014013457
0.00064784494
-0.0016769707
-0.0039458139
-0.0018673239
-0.0004822432
0.00080018716
0.0020120413
0.0029904897
0.001619593
-4.735845e-05
0.00066586609
-0.001603916
-0.0038417123
-0.0017433453
-0.00034261799
0.00095744246
0.0021878583
0.0031736444
0.0017707996
-7.1326053e-06
0.00069906182
-0.0014855391
-0.003697827
-0.0015943181
-0.0001992033
0.0010930241
0.0023144601
0.0032844645
0.0018496678
1.2039306e-05
0.00076784472
-0.0012740308
-0.0034907965
-0.0014120914
-4.9781066e-05
0.0012088454
0.0023984255
0.0033359836
0.0018709652
1.458227e-05
0.00092632638
-0.00084438224
-0.0031729456
-0.0011938797
0.00010321552
0.0013035913
0.0024400318
0.0033228266
0.0018120369
-1.0885113e-05
0.0012461816
3.10627e-05
-0.0026236678
-0.00094939628
0.00024419371
0.0013711847
0.0024367876
0.0032169825
0.0015416578
-0.00013439331
0.001191144
0.0005255731
-0.0019074369
-0.00074989333
0.00033329035
0.001403757
0.002402401
0.0029935191
0.0004589154
-0.00073271337
0.0026845683
0.00046326727
-0.0052858545
-0.0025602786
-0.00090614945
0.00053443901
0.0016817796
0.0020979407
0.00012194671
-0.00059786241
0.0005630913
-0.002499015
-0.0050361017
-0.0024953134
-0.00080705655
0.00073036702
0.0021207437
0.0030445888
0.00063998087
-0.00067894945
0.00070971345
-0.002219825
-0.0049333249
-0.0023919872
-0.00065859818
0.00095853918
0.0025060338
0.0037983687
0.0018647075
-0.00020113819
0.00072959316
-0.0021464853
-0.0048314536
-0.0022584356
-0.00048617036
0.0011830896
0.0027956148
0.0041598382
0.0022429011
-8.1816756e-05
0.00075302359
-0.0020515336
-0.0046964471
-0.0020981281
-0.00030603104
0.0013856227
0.0030215972
0.0043949903
0.0024369769
-3.0213214e-05
0.00079565509
-0.001898934
-0.0045105674
-0.0019058685
-0.0001212929
0.0015599795
0.0031840048
0.0045367151
0.0025374833
-5.8544504e-06
0.00088364225
-0.0016274334
-0.0042437245
-0.0016710446
7.0858865e-05
0.0017084921
0.0032909647
0.004601374
0.002563215
-3.0737207e-06
0.0010882978
-0.0010746799
-0.0038356963
-0.001390305
0.00026709707
0.001829347
0.0033425511
0.0045812466
0.0024834735
-3.7157734e-05
0.0015147409
7.2994512e-05
-0.0031284751
-0.001074423
0.00044773578
0.0019148758
0.0033354963
0.0044375253
0.0021103
-0.00020920284
0.0014336539
0.00066808084
-0.002232776
-0.00081803555
0.00056167923
0.0019555851
0.0032885414
0.0041283316
0.00043536273
-0.0011537826
0.0030197353
0.00035792415
-0.0061841673
-0.0029553914
-0.00094408857
0.00083032808
0.0022743649
0.0028515195
0.00036738651
-0.00069418788
0.00060648535
-0.0030093066
-0.005894255
-0.002874872
-0.00082317664
0.0010677065
0.0028076898
0.004019609
0.0010028647
-0.00080019061
0.00077491486
-0.0026836829
-0.0057669803
-0.0027471768
-0.00064171552
0.0013452271
0.0032744202
0.004932746
0.002467268
-0.00023449918
0.00079976024
-0.0025921196
-0.0056408071
-0.0025833861
-0.00043140805
0.0016184282
0.0036262114
0.0053726175
0.0029267601
-9.009553e-05
0.00082859447
-0.0024754683
-0.0054754944
-0.0023877645
-0.00021215047
0.0018644648
0.0039002006
0.0056574143
0.0031616371
-2.7707807e-05
0.0008803682
-0.0022897465
-0.0052490385
-0.002153821
1.231462e-05
0.002075966
0.0040967591
0.0058284773
0.0032825723
1.5227321e-06
0.00098684673
-0.0019605693
-0.0049247726
-0.0018685269
0.00024538735
0.0022556432
0.0042254169
0.0059052167
0.0033119737
4.3411293e-06
0.0012359182
-0.0012896912
-0.0044305169
-0.0015280406
0.00048286231
0.0024011823
0.0042859752
0.0058775306
0.0032114205
-3.82418e-05
0.001765573
0.00012065724
-0.0035717642
-0.0011438585
0.00070124718
0.0025034455
0.0042744702
0.0056966792
0.0027407414
-0.0002559128
0.0016595703
0.0008101903
-0.0025066215
-0.00083367149
0.00083867458
0.0025515189
0.0042148234
0.0053062983
0.00048073359
-0.0015449137
0.0033188835
0.00023519207
-0.007016681
-0.0032947993
-0.00093188787
0.0011706362
0.002906575
0.0036441026
0.00067259125
-0.00076413934
0.0006355417
-0.0035048496
-0.0066867519
-0.0031986073
-0.00078982005
0.0014476676
0.0035300401
0.005024856
0.0014250939
-0.00089146145
0.00082552237
-0.0031327599
-0.0065344478
-0.0030467419
-0.00057643075
0.0017724009
0.004074305
0.0060897452
0.003117082
-0.00024256821
0.00085549448
-0.0030226164
-0.0063840506
-0.0028534229
-0.00032961746
0.0020921514
0.0044853715
0.0066042435
0.0036537978
-7.4408438e-05
0.00088965036
-0.0028847025
-0.0061892634
-0.0026237026
-7.2810299e-05
0.002379765
0.004805093
0.0069362484
0.0039274026
-1.8071686e-06
0.00095020636
-0.0026671593
-0.0059238481
-0.0023498025
0.00018964955
0.002626703
0.0050341488
0.0071351671
0.0040676938
3.2030292e-05
0.001074338
-0.0022829378
-0.0055447797
-0.0020163386
0.00046174129
0.0028360426
0.0051833942
0.0072232974
0.0041004668
3.4843948e-05
0.0013658498
-0.0014994293
-0.0049685167
-0.0016190144
0.0007384269
0.0030050042
0.0052523769
0.0071882741
0.0039799619
-1.5873914e-05
0.0019948403
0.00016270479
-0.0039653923
-0.0011698354
0.00099266488
0.0031230917
0.0052365013
0.0069720885
0.003417443
-0.00027638151
0.0018675182
0.00094506148
-0.0027398128
-0.00080869383
0.001152323
0.0031780684
0.005164645
0.0065052503
0.00059319358
-0.0018987068
0.003580433
9.2673607e-05
-0.0077864444
-0.0035858424
-0.00087936409
0.0015429207
0.0035631034
0.0044585045
0.0010242301
-0.00081072128
0.00064969565
-0.0039870912
-0.0074174077
-0.0034741488
-0.00071697891
0.0018575891
0.00427202
0.0060419227
0.0018931406
-0.00095530291
0.00086058973
-0.0035694307
-0.0072400953
-0.0032986337
-0.00047296515
0.0022271711
0.0048896018
0.0072502388
0.0037998447
-0.00022804993
0.00089572007
-0.0034407422
-0.0070659001
-0.0030767636
-0.00019123806
0.0025911626
0.0053568042
0.0078353323
0.0044095432
-3.7466577e-05
0.00093505215
-0.003282222
-0.0068427101
-0.0028143735
0.00010136928
0.0029182714
0.0057198552
0.0082119999
0.004719747
4.4775762e-05
0.0010039769
-0.0030343432
-0.0065401592
-0.0025024292
0.00039995203
0.003198853
0.0059797292
0.0084373207
0.0048783819
8.2978606e-05
0.0011448311
-0.0025979716
-0.0061091366
-0.0021232731
0.00070905961
0.0034363482
0.006148559
0.0085363711
0.0049145045
8.5839095e-05
0.0014765879
-0.0017078448
-0.0054553751
-0.0016721757
0.001022877
0.0036275568
0.0062256969
0.0084947468
0.0047755703
2.7578708e-05
0.0022004433
0.00019376273
-0.004315727
-0.001161512
0.001311048
0.0037607193
0.0062059851
0.0082458402
0.0041275937
-0.00027283036
0.0020558616
0.0010677698
-0.0029389725
-0.00075227345
0.0014917157
0.0038223143
0.0061228853
0.007707836
0.00076589574
-0.0022135533
0.0038035044
-6.979876e-05
-0.0084940787
-0.003833701
-0.00079468587
0.0019363857
0.0042308765
0.0052806281
0.0014120095
-0.0008360907
0.00064914056
-0.0044549642
-0.0080873446
-0.0037068794
-0.00061297535
0.002286464
0.0050200895
0.0070554977
0.0023957808
-0.00099390452
0.00088006073
-0.0039932335
-0.0078854226
-0.0035084912
-0.00033985382
0.0026982963
0.0057064279
0.0083981861
0.0045032577
-0.0001935049
0.00092029665
-0.0038463081
-0.0076881298
-0.003259284
-2.5017385e-05
0.0031040052
0.0062263911
0.0090495481
0.0051814114
1.809274e-05
0.00096460841
-0.0036680237
-0.0074378271
-0.0029658591
0.00030145741
0.0034683605
0.006630214
0.0094681868
0.0055259775
0.00010938004
0.001041437
-0.003391476
-0.0071001718
-0.0026179727
0.00063414113
0.0037806867
0.0069191647
0.0097184299
0.0057019433
0.00015170997
0.0011979939
-0.0029061131
-0.0066202859
-0.0021957949
0.00097813894
0.0040447863
0.0071066101
0.0098280303
0.0057415198
0.00015471016
0.001567579
-0.0019159247
-0.0058938702
-0.0016941866
0.0013269147
0.0042570828
0.0071917715
0.0097808051
0.0055860279
8.9623777e-05
0.0023812403
0.00021144481
-0.0046262355
-0.0011257942
0.0016470207
0.0044046299
0.0071689853
0.0095022454
0.0048595605
-0.00024755627
0.0022234265
0.0011753235
-0.0031082396
-0.00067146677
0.0018474466
0.0044726251
0.0070758561
0.0088988458
0.00099093797
-0.0024894579
0.0039878406
-0.00025085677
-0.0091387895
-0.0040419665
-0.00068449212
0.002341841
0.0048986708
0.0060983839
0.0018271257
-0.00084208385
0.00063455884
-0.0049059937
-0.0086961662
-0.0039005511
-0.00048458565
0.0027248981
0.0057625685
0.0080523215
0.0029231091
-0.0010092739
0.00088441604
-0.0044021718
-0.0084703257
-0.0036802786
-0.00018406905
0.0031761494
0.0065127504
0.0095196094
0.0052163108
-0.00014134521
0.00092964108
-0.0042375298
-0.0082508614
-0.0034051583
0.00016186926
0.003620833
0.007081845
0.010232595
0.0059580605
8.9756939e-05
0.00097869302
-0.0040404838
-0.0079749329
-0.0030825294
0.00052009533
0.0040200092
0.0075237052
0.010690337
0.0063346112
0.00018945725
0.0010629121
-0.0037371067
-0.0076044065
-0.0027009939
0.00088469769
0.0043620535
0.0078398935
0.010963951
0.0065268516
0.00023566676
0.0012340644
-0.0032061754
-0.007078998
-0.0022386696
0.0012613158
0.004651125
0.0080449615
0.011083753
0.0065700272
0.00023891367
0.0016388438
-0.0021230271
-0.00628513
-0.0016900392
0.0016427461
0.0048833098
0.0081380569
0.011032044
0.0064000141
0.00016777723
0.0025366895
0.00021505002
-0.0048987248
-0.0010679424
0.0019926725
0.0050445412
0.0081130537
0.010727135
0.0056024396
-0.00020287225
0.0023694994
0.001266158
-0.0032501786
-0.00057173875
0.0022115373
0.0051187258
0.0080112194
0.010064456
0.0012603519
-0.0027269479
0.0041336911
-0.00044809251
-0.009718973
-0.0042130966
-0.00055416639
0.0027514595
0.0055567299
0.0069011004
0.0022616117
-0.00083042127
0.00060696529
-0.0053368931
-0.0092426207
-0.0040577607
-0.00033731892
0.0031648722
0.006489271
0.0090206273
0.003466029
-0.0010033582
0.00087449067
-0.0047933804
-0.0089938049
-0.0038167803
-1.1301768e-05
0.0036524871
0.0072980409
0.010602064
0.0059288679
-7.3901576e-05
0.00092453352
-0.004611725
-0.0087532933
-0.0035173626
0.00036353781
0.0041331872
0.0079123808
0.011371708
0.0067290201
0.00017509204
0.00097804794
-0.0043970641
-0.0084534067
-0.0031675456
0.00075121802
0.0045645764
0.0083893551
0.011865494
0.0071350214
0.00028253264
0.0010690985
-0.0040688603
-0.0080524366
-0.0027548428
0.0011453905
0.0049341699
0.0087308197
0.012160829
0.0073424106
0.00033235761
0.0012536564
-0.0034960365
-0.0074850917
-0.0022554563
0.0015522007
0.0052464714
0.0089524504
0.01229045
0.0073893222
0.00033595821
0.0016907925
-0.0023275494
-0.0066293268
-0.0016635286
0.0019638293
0.0054972652
0.0090533716
0.012235406
0.0072068917
0.00025957393
0.0026666744
0.00020492726
-0.0051340111
-0.00099202635
0.0023413215
0.0056714276
0.0090270281
0.011907567
0.0063458821
-0.00014110886
0.0024937374
0.0013397068
-0.0033663357
-0.00045737502
0.0025772199
0.0057515659
0.0089178526
0.011191966
0.0015662957
-0.002926817
0.0042417217
-0.00065839448
-0.010232614
-0.004348767
-0.0004081192
0.0031585166
0.0061964672
0.0076791883
0.0027080399
-0.00080279128
0.00056760835
-0.0057439254
-0.0097250163
-0.0041803122
-0.00017570117
0.0035994847
0.0071912179
0.0099498246
0.0040160003
-0.0009781056
0.00085136777
-0.005163509
-0.0094543991
-0.003919972
0.00017375304
0.0041201979
0.0080530015
0.011634343
0.0066314511
6.5324627e-06
0.00090600678
-0.0049657106
-0.0091941456
-0.0035980497
0.00057511085
0.0046337497
0.0087084539
0.012455376
0.0074844968
0.00027170721
0.00096367098
-0.004734714
-0.0088721366
-0.0032232363
0.00098977288
0.0050945644
0.0092174295
0.012981955
0.0079172581
0.00038617421
0.0010609521
-0.0043838384
-0.0084433336
-0.0027820298
0.0014110007
0.0054893882
0.0095820741
0.013297241
0.0081385865
0.00043933013
0.0012576497
-0.0037730327
-0.0078378716
-0.0022488698
0.0018454114
0.0058230536
0.0098191157
0.013436238
0.0081893339
0.00044338334
0.0017241193
-0.002527304
-0.0069260976
-0.0016176019
0.002284621
0.0060910745
0.0099276972
0.01337899
0.0079966015
0.00036256154
0.0027714072
0.00018212153
-0.0053323204
-0.00090125746
0.0026872763
0.0062773366
0.0099008651
0.01303168
0.0070800214
-6.4618263e-05
0.0025960929
0.0013961071
-0.0034576012
-0.00033179485
0.0029387107
0.0063631503
0.0097857122
0.012269678
0.0019010722
-0.0030900713
0.0043129485
-0.00087818183
-0.01067756
-0.0044501386
-0.00025002777
0.0035571687
0.0068102491
0.008423943
0.0031593801
-0.00076088443
0.00051790267
-0.0061231404
-0.0101415
-0.004269486
-3.5155068e-06
0.0040227328
0.0078604267
0.010830312
0.0045649171
-0.00093549102
0.00081630946
-0.0055089669
-0.0098504716
-0.0039912937
0.00036715643
0.0045730872
0.0087693636
0.012606299
0.0073151344
9.7680815e-05
0.00087527569
-0.0052960524
-0.0095719501
-0.0036488246
0.00079247942
0.0051161335
0.0094615668
0.013473174
0.0082152795
0.00037723883
0.00093674457
-0.005050122
-0.0092298102
-0.0032513704
0.0012314851
0.0056034141
0.0099992494
0.014029112
0.0086719611
0.00049797936
0.0010396172
-0.0046788682
-0.0087759552
-0.0027844959
0.0016770933
0.0060210011
0.01038484
0.014362458
0.0089059308
0.00055416
0.0012471207
-0.0040342035
-0.0081364096
-0.0022210436
0.0021363527
0.0063740341
0.010636035
0.014510305
0.0089605602
0.00055875192
0.0017397356
-0.0027197537
-0.0071748151
-0.0015546102
0.0026003665
0.0066577872
0.010752033
0.014451933
0.0087596177
0.00047429952
0.0028513668
0.00014815272
-0.0054935475
-0.00079823121
0.0030256361
0.0068552274
0.01072551
0.014088605
0.0077954463
2.4227918e-05
0.0026767603
0.0014360006
-0.0035244527
-0.00019778341
0.0032910178
0.0069463862
0.01060572
0.013286819
0.0022571235
-0.0032179156
0.0043486851
-0.0011035761
-0.011051714
-0.004518056
-8.3023925e-05
0.0039422811
0.0073912439
0.0091274253
0.0036089319
-0.000706406
0.00045937901
-0.0064705433
-0.010490253
-0.0043262384
0.00017601048
0.0044293427
0.0084897637
0.011653367
0.0051050529
-0.00087752359
0.00077070698
-0.0058260912
-0.010180406
-0.0040318501
0.00056553915
0.0050057104
0.0094397445
0.013508745
0.0079714965
0.00019728028
0.0008336868
-0.0055992348
-0.0098852474
-0.003670944
0.0010121189
0.0055747197
0.010164132
0.014415669
0.0089126983
0.00048934776
0.00089858541
-0.0053398853
-0.0095251114
-0.0032533557
0.0014726769
0.0060853472
0.01072706
0.014997362
0.0093903253
0.00061557373
0.0010063764
-0.0049506717
-0.009049139
-0.0027638062
0.0019398406
0.006523089
0.011131229
0.015346758
0.0096355513
0.00067445137
0.0012232932
-0.004276456
-0.0083797344
-0.0021737188
0.0024210461
0.0068933655
0.011395212
0.015502839
0.0096940455
0.00067965244
0.0017387229
-0.0029021711
-0.0073747706
-0.0014764911
0.0029069372
0.007191241
0.011518289
0.01544435
0.0094869359
0.00059236446
0.0029072545
0.00010486409
-0.0056174323
-0.00068510248
0.0033521348
0.007398843
0.011492804
0.015068413
0.0084831992
0.00012304636
0.002736137
0.0014603935
-0.0035671253
-5.7662309e-05
0.0036297902
0.0074949611
0.011369674
0.014233504
0.0026270347
-0.0033117452
0.0043504993
-0.001330533
-0.011353179
-0.0045531938
9.0164829e-05
0.0043093015
0.0079333165
0.0097823902
0.0040502969
-0.00064107755
0.00039364474
-0.0067822194
-0.010769626
-0.0043513475
0.00036006436
0.0048146435
0.0090728416
0.012411078
0.0056290424
-0.00080624364
0.00071604169
-0.0061112715
-0.010442744
-0.0040425553
0.0007659626
0.0054132493
0.010057548
0.014333387
0.0085926074
0.00030308484
0.00078267961
-0.0058717845
-0.010132725
-0.0036654603
0.0012309515
0.006004537
0.010809377
0.015274358
0.0095686141
0.00060572466
0.00085060587
-0.005600633
-0.0097568566
-0.0032303805
0.0017101329
0.00653525
0.011393938
0.015878054
0.010064093
0.00073661733
0.00096261263
-0.0051959868
-0.0092618374
-0.00272129
0.0021958919
0.0069904082
0.011814194
0.016241379
0.010319109
0.00079784395
0.0011875006
-0.0044966852
-0.0085669631
-0.0021083798
0.0026960041
0.0073756836
0.012089491
0.016404985
0.010381383
0.00080370723
0.001722296
-0.0030717553
-0.0075253023
-0.0013848999
0.0032007094
0.0076859607
0.012219216
0.016347302
0.01017008
0.00071435999
0.0029399591
5.4311533e-05
-0.005703683
-0.00056371259
0.0036630253
0.0079026149
0.012195413
0.01596209
0.0091347899
0.00022945368
0.002774793
0.0014705551
-0.0035857306
8.6586152e-05
0.0039512042
0.0080032498
0.012070187
0.015100709
0.0030035491
-0.0033731339
0.0043201753
-0.0015549478
-0.011580352
-0.004556164
0.00026711192
0.0046541689
0.0084309583
0.010382247
0.0044773743
-0.00056663231
0.00032235101
-0.007054431
-0.010978246
-0.0043455201
0.00054614607
0.0051744777
0.0096039504
0.013096306
0.0061298851
-0.00072371402
0.00065385316
-0.0063610434
-0.010636285
-0.004024239
0.00096581723
0.0057914237
0.010616898
0.015072789
0.0091710333
0.00041287502
0.00072375482
-0.0061103643
-0.010313313
-0.0036333264
0.0014462472
0.0064011752
0.011391278
0.016041636
0.010175426
0.00072409978
0.00079428238
-0.0058291185
-0.0099240914
-0.003183517
0.0019410031
0.0069485891
0.011993734
0.016663459
0.010685566
0.00085881498
0.00090977758
-0.005411659
-0.0094132122
-0.0026581405
0.0024422788
0.0074183107
0.012427475
0.017038491
0.01094883
0.00092202407
0.0011411549
-0.0046918637
-0.0086973939
-0.0020263516
0.0029581386
0.0078162312
0.012712509
0.017208821
0.011014727
0.00092858431
0.0016917723
-0.0032257198
-0.007625885
-0.0012813042
0.0034784762
0.0081370858
0.012848353
0.017152769
0.010801123
0.00083792957
0.0029505279
-1.3216692e-06
-0.0057520645
-0.00043568142
0.0039549934
0.0083615932
0.012826788
0.016761516
0.009742219
0.00034108067
0.0027934462
0.0014679393
-0.0035803438
0.00023322852
0.0042518798
0.0084662472
0.012700646
0.015880261
0.0033795943
-0.0034038203
0.0042596798
-0.0017727409
-0.011732006
-0.0045275939
0.00044561697
0.0049732492
0.0088792411
0.010921037
0.0048843686
-0.00048480704
0.00024716461
-0.0072836931
-0.011115082
-0.0043094685
0.00073199382
0.005505137
0.010078012
0.013702669
0.0066009615
-0.00063200801
0.00058571169
-0.0065721637
-0.010760158
-0.0039777226
0.0011627494
0.0061364289
0.011112592
0.015720357
0.0096998541
0.00052447022
0.00065844723
-0.0063118456
-0.01042626
-0.00357547
0.0016555512
0.0067607245
0.011904518
0.016710779
0.010726091
0.00084225563
0.00073112862
-0.0060222924
-0.01002616
-0.0031137938
0.0021627324
0.0073213528
0.012521027
0.017346752
0.01124762
0.00097992921
0.00084936512
-0.0055947132
-0.0095027023
-0.002575487
0.0026763471
0.0078026873
0.012965556
0.017731181
0.011517527
0.001044738
0.0010857205
-0.0048591127
-0.0087705724
-0.0019288699
0.0032046952
0.0082108035
0.013258658
0.017907347
0.011586823
0.0010520112
0.0016485457
-0.0033613624
-0.0076761959
-0.0011670519
0.0037373842
0.0085403184
0.013399995
0.017853651
0.011372709
0.00096077114
0.0029401419
-5.9792785e-05
-0.0057624621
-0.000302474
0.0042250968
0.0087713977
0.013381128
0.017459469
0.010298007
0.00045558829
0.0027929409
0.0014541231
-0.0035510666
0.00038071449
0.0045288203
0.0088795207
0.013255178
0.016564835
0.0037483147
-0.0034056905
0.00417113
-0.0019799309
-0.011807338
-0.0044681826
0.00062365215
0.0052632902
0.0092737861
0.011393423
0.0052658069
-0.00039733176
0.00016974342
-0.0074668344
-0.0111795
-0.0042439663
0.00091553081
0.005803318
0.010490549
0.014224526
0.0070360551
-0.00053319527
0.00051319438
-0.0067416689
-0.010813871
-0.0039038733
0.0013546091
0.0064448914
0.011540075
0.016270326
0.010172685
0.0006357425
0.00058830206
-0.0064733675
-0.010471174
-0.0034928478
0.001856633
0.0070797322
0.012344461
0.017275937
0.011214142
0.00095804085
0.0006626719
-0.0061773596
-0.010062752
-0.0030222493
0.0023730107
0.0076500091
0.0129711
0.017922009
0.011743735
0.0010977944
0.00078288784
-0.0057424106
-0.0095300714
-0.0024744462
0.0028957078
0.0081399273
0.013423641
0.018313452
0.012018623
0.0011638063
0.0010226904
-0.0049957584
-0.0087863383
-0.0018171317
0.0034332058
0.0085557097
0.01372306
0.018494482
0.012091023
0.0011717897
0.0015940634
-0.0034761221
-0.0076761597
-0.0010434208
0.0039748874
0.0088918871
0.013869172
0.018443758
0.011878086
0.0010806525
0.0029100924
-0.0001188555
-0.0057349272
-0.000165449
0.0044707201
0.0091281824
0.013853366
0.01804962
0.010795227
0.00057068436
0.0027742289
0.0014307559
-0.003498073
0.0005276288
0.0047793683
0.0092391754
0.013728635
0.017147962
0.0041031082
-0.0033807598
0.0040567643
-0.0021726958
-0.011806008
-0.0043787414
0.00079932339
0.0055213899
0.0096107437
0.01179469
0.005616559
-0.00030591837
9.1714429e-05
-0.0076010466
-0.011171299
-0.0041498887
0.0010948269
0.0060660902
0.010837667
0.014656982
0.0074293791
-0.00042932684
0.00043786375
-0.0068669233
-0.010797345
-0.0038036445
0.0015394118
0.0067138378
0.011895414
0.016717761
0.010583701
0.00074463107
0.00051485379
-0.0065923836
-0.010448063
-0.0033864841
0.002047449
0.0073551719
0.012707126
0.017732129
0.011633718
0.0010693847
0.00059043219
-0.0062918264
-0.01003394
-0.0029099696
0.002569736
0.007931476
0.01333992
0.018384198
0.012168011
0.0012103311
0.0007118561
-0.0058522952
-0.0094954409
-0.0023561599
0.0030982022
0.0084268899
0.013797637
0.018780217
0.012446177
0.0012771386
0.0009535657
-0.0050993786
-0.0087448583
-0.0016923314
0.003641454
0.0088477455
0.01410155
0.018965064
0.012521321
0.0012858109
0.0015298051
-0.0035676247
-0.0076259824
-0.00091165434
0.0041887135
0.0091885199
0.014251634
0.01891782
0.012311128
0.0011954269
0.0028617604
-0.00017630694
-0.0056697112
-2.5894303e-05
0.004689542
0.0094286107
0.014239153
0.018526538
0.011227534
0.00068414052
0.0027383519
0.0013995172
-0.003421644
0.00067265579
0.0050011729
0.0095418303
0.014116585
0.017624033
0.0044376654
-0.0033311524
0.0039189141
-0.0023474264
-0.011728164
-0.0042602238
0.00097084178
0.0057449724
0.0098867795
0.012120738
0.0059318586
-0.00021224884
1.4654086e-05
-0.007683925
-0.011090735
-0.0040282416
0.0012680699
0.0062908719
0.011116036
0.014995878
0.007775602
-0.00032241987
0.00036124833
-0.0069456582
-0.01071094
-0.0036781039
0.0017153103
0.0069406704
0.012175289
0.01705855
0.010927661
0.00084915671
0.00043960704
-0.0066667002
-0.010357358
-0.0032574989
0.0022261147
0.0075844203
0.012989175
0.018075237
0.011979583
0.0011743111
0.00051590313
-0.0063635384
-0.009940197
-0.0027781157
0.0027509879
0.0081630981
0.013624122
0.018729184
0.012515202
0.0013155608
0.0006377591
-0.0059222317
-0.0093993134
-0.0022218213
0.0032818744
0.0086608816
0.014084139
0.019127298
0.012794909
0.0013827478
0.00087983613
-0.0051678404
-0.0086466487
-0.001555688
0.0038274492
0.0090841713
0.014390664
0.019314847
0.012872376
0.0013920697
0.0014572631
-0.0036337225
-0.0075261737
-0.00077298839
0.0043768385
0.0094274241
0.014543837
0.01927148
0.012666369
0.0013030483
0.0027965964
-0.00023002818
-0.0055672892
0.00011494607
0.00487951
0.0096698349
0.014534846
0.018885697
0.011589201
0.00079380892
0.0026864254
0.0013620801
-0.0033221928
0.0008145522
0.0051921651
0.0097845983
0.014415297
0.017988305
0.0047460079
-0.0032590806
0.0037599767
-0.0025007733
-0.011574463
-0.0041137478
0.0011365012
0.0059317693
0.010099062
0.012368087
0.0062073251
-0.00011796346
-5.9929533e-05
-0.0077135006
-0.01093854
-0.0038801836
0.0014335435
0.0064754116
0.011322878
0.015237796
0.0080698729
-0.00021444258
0.00028482519
-0.0069760042
-0.010555471
-0.0035284551
0.0018805728
0.0071231485
0.012376972
0.0172894
0.011199931
0.00094743561
0.00036401917
-0.0066945082
-0.010199926
-0.0031071292
0.0023908828
0.007765237
0.013187901
0.018302009
0.012247151
0.0012709526
0.00044053464
-0.0063907115
-0.0097824164
-0.002627945
0.002915005
0.0083426277
0.013820996
0.018953716
0.012780728
0.0014116188
0.00056204741
-0.0059504366
-0.0092425867
-0.002072697
0.0034449502
0.0088396369
0.014280416
0.019351423
0.013060222
0.001478764
0.00080296286
-0.0051993323
-0.008492591
-0.0014084658
0.0039894049
0.0092626937
0.014587627
0.019540502
0.01313953
0.001488679
0.0013779246
-0.0036725267
-0.0073775631
-0.00062867226
0.0045374654
0.0096062677
0.014742932
0.019501298
0.012939023
0.0014015856
0.0027161022
-0.00027801973
-0.0054283782
0.00025585063
0.0050388194
0.0098494792
0.014737502
0.019123469
0.01187514
0.00089763802
0.0026196231
0.0013200789
-0.0032002854
0.00095212543
0.0053505365
0.0099650695
0.014621734
0.018236908
0.0050225252
-0.0031668243
0.00358239
-0.0026296885
-0.011346076
-0.0039406135
0.0012946586
0.0060798011
0.010245249
0.012533874
0.0064389819
-2.4649688e-05
-0.00013061296
-0.0076882679
-0.01071593
-0.0037070437
0.0015896077
0.0066177687
0.011455955
0.015380049
0.0083078428
-0.00010730004
0.00021000375
-0.0069565172
-0.010332217
-0.0033560548
0.0020335629
0.0072593687
0.012498317
0.017407831
0.011396498
0.0010376922
0.0002894843
-0.0066744091
-0.0099770803
-0.0029367459
0.0025401232
0.0078957461
0.013301208
0.018410041
0.012432498
0.0013575626
0.00036571695
-0.0063719586
-0.0095619193
-0.0024608279
0.0030601659
0.0084682049
0.013928473
0.019055425
0.012960699
0.0014967672
0.00048611702
-0.0059355048
-0.0090265648
-0.001910143
0.0035858174
0.0089612998
0.014384396
0.019450215
0.013238214
0.0015634466
0.000724362
-0.005192391
-0.0082839419
-0.0012519918
0.0041257195
0.0093814466
0.014690335
0.0196396
0.013318831
0.0015738817
0.0012932548
-0.0036824369