/*--------------------------------*- C++ -*----------------------------------*\
| =========                 |                                                 |
| \\      /  F ield         | OpenFOAM: The Open Source CFD Toolbox           |
|  \\    /   O peration     | Version:  v2106                                 |
|   \\  /    A nd           | Website:  www.openfoam.com                      |
|    \\/     M anipulation  |                                                 |
\*---------------------------------------------------------------------------*/
FoamFile
{
    version     2.0;
    format      ascii;
    arch        "LSB;label=32;scalar=64";
    class       volScalarField;
    location    "52.5";
    object      T;
}
// * * * * * * * * * * * * * * * * * * * * * * * * * * * * * * * * * * * * * //

dimensions      [0 0 0 1 0 0 0];

internalField   nonuniform List<scalar> 
4000
(
275.11389
275.1139
275.11389
275.11389
275.11389
275.11389
275.11389
275.11389
275.11389
275.11389
275.1139
275.1139
275.1139
275.11389
275.11389
275.11389
275.11389
275.11389
275.1139
275.1139
275.11389
275.1139
275.11389
275.11389
275.11389
275.11389
275.11389
275.11389
275.11389
275.11389
275.11389
275.11389
275.11389
275.11389
275.11388
275.11388
275.11389
275.11389
275.11389
275.11389
275.11389
275.11389
275.11389
275.11388
275.11388
275.11388
275.11388
275.11389
275.11389
275.11389
275.11389
275.11389
275.11389
275.11388
275.11388
275.11388
275.11388
275.11389
275.11389
275.11389
275.11389
275.11389
275.11389
275.11389
275.11388
275.11388
275.11389
275.11389
275.11389
275.11389
275.11389
275.11389
275.11389
275.11389
275.11389
275.11389
275.11389
275.11389
275.11389
275.11389
275.11389
275.1139
275.11389
275.11389
275.11389
275.11389
275.11389
275.11389
275.11389
275.1139
275.11389
275.1139
275.11389
275.11389
275.11389
275.11389
275.11389
275.11389
275.1139
275.1139
283.37644
283.37649
283.37646
283.37645
283.37644
283.37644
283.37644
283.37644
283.37645
283.37645
283.37649
283.3765
283.37647
283.37646
283.37645
283.37645
283.37646
283.37646
283.37647
283.37647
283.37646
283.37647
283.37645
283.37643
283.37643
283.37643
283.37643
283.37644
283.37645
283.37645
283.37645
283.37646
283.37643
283.37642
283.37642
283.37642
283.37642
283.37643
283.37644
283.37645
283.37644
283.37645
283.37643
283.37642
283.37641
283.37641
283.37642
283.37643
283.37644
283.37644
283.37644
283.37645
283.37643
283.37642
283.37641
283.37642
283.37642
283.37643
283.37644
283.37645
283.37644
283.37646
283.37643
283.37642
283.37642
283.37642
283.37643
283.37644
283.37645
283.37645
283.37644
283.37646
283.37644
283.37643
283.37643
283.37643
283.37644
283.37645
283.37646
283.37646
283.37645
283.37647
283.37645
283.37644
283.37644
283.37644
283.37645
283.37646
283.37647
283.37647
283.37645
283.37647
283.37645
283.37645
283.37644
283.37645
283.37645
283.37646
283.37647
283.37647
291.58763
291.58769
291.58765
291.58763
291.58762
291.58761
291.58762
291.58763
291.58763
291.58763
291.58769
291.5877
291.58766
291.58764
291.58763
291.58763
291.58764
291.58765
291.58766
291.58765
291.58765
291.58766
291.58762
291.5876
291.58759
291.58759
291.5876
291.58762
291.58763
291.58763
291.58763
291.58764
291.5876
291.58758
291.58757
291.58758
291.58758
291.5876
291.58762
291.58762
291.58762
291.58763
291.58759
291.58757
291.58757
291.58757
291.58758
291.5876
291.58762
291.58762
291.58761
291.58763
291.58759
291.58758
291.58757
291.58757
291.58758
291.5876
291.58762
291.58763
291.58762
291.58764
291.5876
291.58758
291.58758
291.58758
291.58759
291.58761
291.58764
291.58764
291.58763
291.58765
291.58762
291.5876
291.5876
291.5876
291.58761
291.58763
291.58766
291.58766
291.58763
291.58766
291.58763
291.58762
291.58762
291.58762
291.58764
291.58766
291.58768
291.58768
291.58763
291.58765
291.58763
291.58762
291.58762
291.58763
291.58764
291.58766
291.58768
291.58767
299.74955
299.74962
299.74956
299.74953
299.74952
299.74952
299.74953
299.74954
299.74955
299.74954
299.74962
299.74963
299.74958
299.74955
299.74954
299.74954
299.74955
299.74957
299.74959
299.74957
299.74956
299.74958
299.74953
299.7495
299.74949
299.74949
299.7495
299.74952
299.74955
299.74955
299.74953
299.74955
299.7495
299.74947
299.74946
299.74946
299.74948
299.7495
299.74954
299.74954
299.74952
299.74954
299.74949
299.74946
299.74945
299.74946
299.74947
299.7495
299.74953
299.74953
299.74952
299.74954
299.74949
299.74946
299.74946
299.74946
299.74948
299.74951
299.74954
299.74954
299.74953
299.74955
299.7495
299.74948
299.74947
299.74948
299.7495
299.74953
299.74956
299.74956
299.74954
299.74957
299.74952
299.7495
299.7495
299.74951
299.74953
299.74956
299.74959
299.74959
299.74955
299.74959
299.74955
299.74954
299.74953
299.74954
299.74956
299.74959
299.74963
299.74962
299.74954
299.74957
299.74955
299.74954
299.74953
299.74954
299.74956
299.74959
299.74962
299.7496
307.86422
307.8643
307.86423
307.86419
307.86418
307.86418
307.86419
307.86421
307.86423
307.86421
307.8643
307.86432
307.86425
307.86422
307.8642
307.8642
307.86421
307.86424
307.86428
307.86426
307.86423
307.86425
307.86418
307.86415
307.86414
307.86414
307.86416
307.86419
307.86423
307.86423
307.86419
307.86422
307.86415
307.86412
307.86411
307.86411
307.86413
307.86417
307.86421
307.86421
307.86418
307.8642
307.86414
307.86411
307.86409
307.8641
307.86412
307.86416
307.86421
307.86421
307.86418
307.8642
307.86414
307.86411
307.8641
307.86411
307.86413
307.86417
307.86422
307.86422
307.86419
307.86421
307.86416
307.86413
307.86412
307.86413
307.86416
307.8642
307.86425
307.86425
307.86421
307.86424
307.86419
307.86417
307.86416
307.86417
307.8642
307.86424
307.86429
307.86429
307.86423
307.86428
307.86423
307.86421
307.86421
307.86422
307.86425
307.86429
307.86434
307.86433
307.86421
307.86426
307.86423
307.86421
307.86421
307.86422
307.86425
307.86429
307.86433
307.8643
315.93358
315.93367
315.93358
315.93354
315.93352
315.93352
315.93354
315.93357
315.9336
315.93358
315.93367
315.93368
315.93361
315.93357
315.93355
315.93355
315.93357
315.93361
315.93365
315.93363
315.93358
315.93361
315.93353
315.93349
315.93347
315.93348
315.9335
315.93354
315.9336
315.93359
315.93354
315.93357
315.93349
315.93345
315.93344
315.93345
315.93347
315.93352
315.93358
315.93358
315.93352
315.93355
315.93347
315.93344
315.93343
315.93343
315.93346
315.93351
315.93358
315.93358
315.93352
315.93355
315.93348
315.93345
315.93343
315.93345
315.93348
315.93353
315.93359
315.93359
315.93354
315.93357
315.9335
315.93347
315.93346
315.93348
315.93351
315.93356
315.93363
315.93363
315.93357
315.93361
315.93354
315.93352
315.93351
315.93353
315.93356
315.93361
315.93368
315.93368
315.9336
315.93365
315.9336
315.93358
315.93358
315.93359
315.93363
315.93368
315.93374
315.93373
315.93358
315.93363
315.93359
315.93358
315.93358
315.93359
315.93363
315.93368
315.93373
315.93369
323.95946
323.95956
323.95946
323.95942
323.9594
323.9594
323.95942
323.95946
323.95949
323.95947
323.95956
323.95958
323.95949
323.95944
323.95942
323.95943
323.95945
323.9595
323.95955
323.95952
323.95946
323.95949
323.9594
323.95936
323.95934
323.95934
323.95937
323.95943
323.95949
323.95949
323.95942
323.95944
323.95936
323.95931
323.9593
323.95931
323.95934
323.9594
323.95947
323.95947
323.9594
323.95942
323.95934
323.9593
323.95929
323.9593
323.95933
323.95939
323.95947
323.95947
323.9594
323.95943
323.95934
323.95931
323.9593
323.95931
323.95935
323.95941
323.95949
323.95949
323.95942
323.95945
323.95937
323.95934
323.95933
323.95935
323.95939
323.95945
323.95953
323.95953
323.95946
323.9595
323.95943
323.9594
323.95939
323.95941
323.95945
323.95952
323.9596
323.9596
323.95949
323.95955
323.95949
323.95947
323.95947
323.95949
323.95953
323.9596
323.95967
323.95967
323.95947
323.95952
323.95949
323.95947
323.95947
323.95949
323.95953
323.9596
323.95967
323.95961
331.9436
331.94371
331.9436
331.94355
331.94353
331.94354
331.94356
331.94361
331.94365
331.94363
331.94371
331.94373
331.94363
331.94358
331.94356
331.94357
331.9436
331.94365
331.94372
331.94369
331.9436
331.94363
331.94353
331.94348
331.94347
331.94348
331.94351
331.94357
331.94366
331.94365
331.94355
331.94358
331.94348
331.94344
331.94342
331.94344
331.94347
331.94354
331.94363
331.94363
331.94353
331.94356
331.94347
331.94342
331.94341
331.94343
331.94347
331.94354
331.94363
331.94363
331.94354
331.94357
331.94348
331.94344
331.94343
331.94344
331.94349
331.94356
331.94366
331.94366
331.94356
331.9436
331.94351
331.94347
331.94347
331.94349
331.94354
331.94361
331.94371
331.94371
331.94361
331.94365
331.94357
331.94354
331.94354
331.94356
331.94361
331.94369
331.94378
331.94378
331.94365
331.94372
331.94366
331.94363
331.94363
331.94366
331.94371
331.94378
331.94387
331.94386
331.94363
331.94369
331.94365
331.94363
331.94363
331.94366
331.94371
331.94378
331.94386
331.9438
339.88765
339.88777
339.88765
339.8876
339.88757
339.88758
339.88761
339.88766
339.88772
339.88769
339.88777
339.88779
339.88768
339.88762
339.8876
339.88761
339.88765
339.88771
339.88779
339.88776
339.88765
339.88768
339.88757
339.88752
339.8875
339.88751
339.88755
339.88763
339.88772
339.88772
339.8876
339.88762
339.88752
339.88747
339.88745
339.88747
339.88752
339.88759
339.8877
339.8877
339.88757
339.8876
339.8875
339.88745
339.88744
339.88746
339.88751
339.88759
339.8877
339.8877
339.88758
339.88761
339.88751
339.88747
339.88746
339.88748
339.88754
339.88762
339.88773
339.88773
339.88761
339.88765
339.88755
339.88752
339.88751
339.88754
339.88759
339.88768
339.88779
339.88779
339.88766
339.88771
339.88763
339.88759
339.88759
339.88762
339.88768
339.88776
339.88787
339.88788
339.88772
339.88779
339.88772
339.8877
339.8877
339.88773
339.88779
339.88787
339.88798
339.88797
339.88769
339.88776
339.88772
339.8877
339.8877
339.88773
339.88779
339.88788
339.88797
339.8879
347.79315
347.79327
347.79314
347.79308
347.79306
347.79307
347.79311
347.79317
347.79323
347.7932
347.79327
347.79328
347.79317
347.79311
347.79309
347.7931
347.79314
347.79322
347.7933
347.79327
347.79314
347.79317
347.79305
347.793
347.79298
347.79299
347.79304
347.79312
347.79323
347.79323
347.79308
347.79311
347.793
347.79295
347.79293
347.79295
347.793
347.79309
347.79321
347.79321
347.79306
347.79309
347.79298
347.79293
347.79292
347.79294
347.793
347.79309
347.79321
347.79322
347.79307
347.7931
347.79299
347.79295
347.79294
347.79297
347.79303
347.79312
347.79325
347.79325
347.79311
347.79314
347.79304
347.793
347.793
347.79303
347.79309
347.79319
347.79331
347.79332
347.79317
347.79322
347.79312
347.79309
347.79309
347.79312
347.79319
347.79329
347.79341
347.79341
347.79323
347.7933
347.79323
347.79321
347.79321
347.79325
347.79331
347.79341
347.79353
347.79352
347.7932
347.79327
347.79323
347.79321
347.79322
347.79325
347.79332
347.79341
347.79352
347.79344
355.66152
355.66165
355.66151
355.66145
355.66143
355.66144
355.66148
355.66155
355.66162
355.6616
355.66165
355.66166
355.66154
355.66148
355.66146
355.66147
355.66152
355.6616
355.6617
355.66167
355.66151
355.66154
355.66142
355.66136
355.66134
355.66136
355.66141
355.6615
355.66163
355.66162
355.66145
355.66148
355.66136
355.6613
355.66129
355.66131
355.66137
355.66147
355.6616
355.6616
355.66143
355.66146
355.66134
355.66129
355.66128
355.6613
355.66137
355.66147
355.66161
355.66161
355.66144
355.66147
355.66136
355.66131
355.6613
355.66133
355.6614
355.66151
355.66165
355.66166
355.66148
355.66152
355.66141
355.66137
355.66137
355.6614
355.66147
355.66158
355.66172
355.66173
355.66155
355.6616
355.6615
355.66147
355.66147
355.66151
355.66158
355.66169
355.66183
355.66183
355.66162
355.6617
355.66163
355.6616
355.66161
355.66165
355.66172
355.66183
355.66196
355.66195
355.6616
355.66167
355.66162
355.6616
355.66161
355.66166
355.66173
355.66183
355.66195
355.66186
363.49411
363.49424
363.4941
363.49403
363.49401
363.49403
363.49407
363.49415
363.49423
363.4942
363.49424
363.49426
363.49412
363.49406
363.49404
363.49406
363.49411
363.4942
363.49431
363.49428
363.4941
363.49412
363.494
363.49393
363.49392
363.49394
363.494
363.4941
363.49423
363.49423
363.49403
363.49406
363.49393
363.49388
363.49386
363.49389
363.49396
363.49406
363.4942
363.49421
363.49401
363.49404
363.49392
363.49386
363.49385
363.49388
363.49395
363.49407
363.49421
363.49423
363.49403
363.49406
363.49394
363.49389
363.49388
363.49392
363.49399
363.49411
363.49426
363.49427
363.49407
363.49411
363.494
363.49396
363.49395
363.49399
363.49407
363.49419
363.49434
363.49435
363.49415
363.4942
363.4941
363.49406
363.49407
363.49411
363.49419
363.49431
363.49446
363.49447
363.49423
363.49431
363.49423
363.4942
363.49421
363.49426
363.49434
363.49446
363.4946
363.4946
363.4942
363.49428
363.49423
363.49421
363.49423
363.49427
363.49435
363.49447
363.4946
363.49451
371.29215
371.29228
371.29213
371.29206
371.29204
371.29206
371.29211
371.2922
371.29228
371.29226
371.29228
371.29229
371.29216
371.29209
371.29207
371.29209
371.29215
371.29225
371.29237
371.29234
371.29213
371.29216
371.29202
371.29196
371.29194
371.29197
371.29203
371.29214
371.29229
371.29229
371.29206
371.29209
371.29196
371.2919
371.29189
371.29192
371.29199
371.2921
371.29226
371.29227
371.29204
371.29207
371.29194
371.29189
371.29188
371.29191
371.29199
371.29211
371.29227
371.29228
371.29206
371.29209
371.29197
371.29192
371.29191
371.29195
371.29203
371.29216
371.29232
371.29234
371.29211
371.29215
371.29203
371.29199
371.29199
371.29203
371.29212
371.29224
371.29241
371.29242
371.2922
371.29225
371.29214
371.2921
371.29211
371.29216
371.29224
371.29237
371.29253
371.29255
371.29228
371.29237
371.29229
371.29226
371.29227
371.29232
371.29241
371.29253
371.29269
371.29269
371.29226
371.29234
371.29229
371.29227
371.29228
371.29234
371.29242
371.29255
371.29269
371.29259
379.05676
379.05689
379.05674
379.05667
379.05665
379.05667
379.05673
379.05682
379.05691
379.05689
379.05689
379.05691
379.05676
379.0567
379.05668
379.0567
379.05677
379.05687
379.057
379.05697
379.05674
379.05676
379.05662
379.05656
379.05654
379.05657
379.05664
379.05676
379.05691
379.05692
379.05667
379.0567
379.05656
379.0565
379.05649
379.05652
379.0566
379.05672
379.05689
379.0569
379.05665
379.05668
379.05654
379.05649
379.05648
379.05652
379.0566
379.05673
379.0569
379.05692
379.05667
379.0567
379.05657
379.05652
379.05652
379.05656
379.05665
379.05678
379.05695
379.05697
379.05673
379.05677
379.05664
379.0566
379.0566
379.05665
379.05674
379.05687
379.05705
379.05707
379.05682
379.05687
379.05676
379.05672
379.05673
379.05678
379.05687
379.05701
379.05718
379.0572
379.05691
379.057
379.05691
379.05689
379.0569
379.05695
379.05705
379.05718
379.05735
379.05735
379.05689
379.05697
379.05692
379.0569
379.05692
379.05697
379.05707
379.0572
379.05735
379.05725
386.78898
386.78911
386.78895
386.78888
386.78886
386.78888
386.78895
386.78904
386.78914
386.78912
386.78911
386.78912
386.78897
386.78891
386.78889
386.78891
386.78898
386.78909
386.78923
386.78921
386.78895
386.78897
386.78883
386.78877
386.78875
386.78878
386.78886
386.78898
386.78914
386.78915
386.78888
386.78891
386.78877
386.7887
386.78869
386.78873
386.78881
386.78894
386.78912
386.78914
386.78886
386.78889
386.78875
386.78869
386.78868
386.78873
386.78882
386.78895
386.78913
386.78916
386.78888
386.78891
386.78878
386.78873
386.78873
386.78877
386.78887
386.78901
386.78919
386.78921
386.78895
386.78898
386.78886
386.78881
386.78882
386.78887
386.78896
386.78911
386.78929
386.78932
386.78904
386.78909
386.78898
386.78894
386.78895
386.78901
386.78911
386.78925
386.78943
386.78946
386.78914
386.78923
386.78914
386.78912
386.78913
386.78919
386.78929
386.78943
386.78961
386.78962
386.78912
386.78921
386.78915
386.78914
386.78916
386.78921
386.78932
386.78946
386.78962
386.78952
394.48973
394.48986
394.4897
394.48962
394.4896
394.48963
394.4897
394.4898
394.4899
394.48989
394.48986
394.48987
394.48971
394.48965
394.48963
394.48966
394.48973
394.48985
394.48999
394.48997
394.4897
394.48971
394.48957
394.4895
394.48949
394.48952
394.4896
394.48973
394.4899
394.48992
394.48962
394.48965
394.4895
394.48944
394.48943
394.48947
394.48956
394.4897
394.48988
394.4899
394.4896
394.48963
394.48949
394.48943
394.48942
394.48947
394.48956
394.48971
394.4899
394.48992
394.48963
394.48966
394.48952
394.48947
394.48947
394.48952
394.48962
394.48977
394.48996
394.48998
394.4897
394.48973
394.4896
394.48956
394.48956
394.48962
394.48972
394.48987
394.49006
394.49009
394.4898
394.48985
394.48973
394.4897
394.48971
394.48977
394.48987
394.49002
394.49021
394.49024
394.4899
394.48999
394.4899
394.48988
394.4899
394.48996
394.49006
394.49021
394.4904
394.49041
394.48989
394.48997
394.48992
394.4899
394.48992
394.48998
394.49009
394.49024
394.49041
394.49031
402.15983
402.15996
402.1598
402.15972
402.15971
402.15973
402.1598
402.15991
402.16002
402.16001
402.15996
402.15997
402.15981
402.15974
402.15973
402.15976
402.15984
402.15996
402.16011
402.16009
402.1598
402.15981
402.15966
402.1596
402.15958
402.15962
402.15971
402.15984
402.16002
402.16004
402.15972
402.15974
402.1596
402.15954
402.15953
402.15957
402.15966
402.15981
402.16
402.16002
402.15971
402.15973
402.15958
402.15953
402.15952
402.15957
402.15967
402.15982
402.16002
402.16005
402.15973
402.15976
402.15962
402.15957
402.15957
402.15962
402.15973
402.15988
402.16008
402.16011
402.1598
402.15984
402.15971
402.15966
402.15967
402.15973
402.15983
402.15999
402.16019
402.16022
402.15991
402.15996
402.15984
402.15981
402.15982
402.15988
402.15999
402.16015
402.16035
402.16038
402.16002
402.16011
402.16002
402.16
402.16002
402.16008
402.16019
402.16035
402.16054
402.16055
402.16001
402.16009
402.16004
402.16002
402.16005
402.16011
402.16022
402.16038
402.16055
402.16045
409.80003
409.80015
409.79999
409.79992
409.7999
409.79993
409.8
409.80011
409.80023
409.80022
409.80015
409.80016
409.8
409.79993
409.79992
409.79995
409.80003
409.80016
409.80032
409.8003
409.79999
409.8
409.79985
409.79979
409.79977
409.79981
409.7999
409.80004
409.80023
409.80025
409.79992
409.79993
409.79979
409.79972
409.79972
409.79976
409.79986
409.80001
409.8002
409.80023
409.7999
409.79992
409.79977
409.79972
409.79971
409.79976
409.79987
409.80002
409.80022
409.80026
409.79993
409.79995
409.79981
409.79976
409.79976
409.79982
409.79993
409.80009
409.80029
409.80033
409.8
409.80003
409.7999
409.79986
409.79987
409.79993
409.80004
409.8002
409.80041
409.80044
409.80011
409.80016
409.80004
409.80001
409.80002
409.80009
409.8002
409.80036
409.80057
409.8006
409.80023
409.80032
409.80023
409.8002
409.80022
409.80029
409.80041
409.80057
409.80077
409.80079
409.80022
409.8003
409.80025
409.80023
409.80026
409.80033
409.80044
409.8006
409.80079
409.80068
417.41095
417.41107
417.4109
417.41083
417.41082
417.41085
417.41093
417.41104
417.41116
417.41115
417.41107
417.41107
417.41092
417.41085
417.41083
417.41087
417.41096
417.41109
417.41125
417.41124
417.4109
417.41092
417.41077
417.4107
417.41069
417.41073
417.41083
417.41097
417.41116
417.41118
417.41083
417.41085
417.4107
417.41064
417.41063
417.41068
417.41078
417.41093
417.41114
417.41117
417.41082
417.41083
417.41069
417.41063
417.41063
417.41069
417.41079
417.41095
417.41116
417.4112
417.41085
417.41087
417.41073
417.41068
417.41069
417.41074
417.41085
417.41102
417.41123
417.41127
417.41093
417.41096
417.41083
417.41078
417.41079
417.41085
417.41097
417.41114
417.41135
417.41139
417.41104
417.41109
417.41097
417.41093
417.41095
417.41102
417.41114
417.4113
417.41151
417.41155
417.41116
417.41125
417.41116
417.41114
417.41116
417.41123
417.41135
417.41151
417.41172
417.41174
417.41115
417.41124
417.41118
417.41117
417.4112
417.41127
417.41139
417.41155
417.41174
417.41164
424.99314
424.99326
424.99309
424.99302
424.99301
424.99304
424.99312
424.99324
424.99337
424.99336
424.99326
424.99326
424.99311
424.99304
424.99302
424.99306
424.99315
424.99329
424.99345
424.99344
424.99309
424.99311
424.99296
424.99289
424.99288
424.99293
424.99302
424.99317
424.99336
424.99339
424.99302
424.99304
424.99289
424.99283
424.99283
424.99287
424.99298
424.99313
424.99334
424.99337
424.99301
424.99302
424.99288
424.99283
424.99283
424.99288
424.99299
424.99315
424.99336
424.9934
424.99304
424.99306
424.99293
424.99287
424.99288
424.99294
424.99305
424.99322
424.99344
424.99348
424.99312
424.99315
424.99302
424.99298
424.99299
424.99305
424.99317
424.99334
424.99356
424.9936
424.99324
424.99329
424.99317
424.99313
424.99315
424.99322
424.99334
424.99351
424.99373
424.99377
424.99337
424.99345
424.99336
424.99334
424.99336
424.99344
424.99356
424.99373
424.99394
424.99396
424.99336
424.99344
424.99339
424.99337
424.9934
424.99348
424.9936
424.99377
424.99396
424.99386
432.54706
432.54718
432.54701
432.54695
432.54693
432.54697
432.54705
432.54717
432.5473
432.54729
432.54718
432.54717
432.54702
432.54696
432.54694
432.54698
432.54707
432.54721
432.54738
432.54737
432.54701
432.54702
432.54687
432.54681
432.5468
432.54685
432.54695
432.5471
432.54729
432.54732
432.54695
432.54696
432.54681
432.54675
432.54675
432.5468
432.5469
432.54706
432.54727
432.54731
432.54693
432.54694
432.5468
432.54675
432.54675
432.54681
432.54692
432.54708
432.5473
432.54734
432.54697
432.54698
432.54685
432.5468
432.54681
432.54687
432.54698
432.54715
432.54737
432.54742
432.54705
432.54707
432.54695
432.5469
432.54692
432.54698
432.5471
432.54728
432.54749
432.54754
432.54717
432.54721
432.5471
432.54706
432.54708
432.54715
432.54728
432.54745
432.54767
432.54771
432.5473
432.54738
432.54729
432.54727
432.5473
432.54737
432.54749
432.54767
432.54788
432.5479
432.54729
432.54737
432.54732
432.54731
432.54734
432.54742
432.54754
432.54771
432.5479
432.54781
440.07309
440.0732
440.07304
440.07297
440.07296
440.07299
440.07308
440.0732
440.07333
440.07333
440.0732
440.07319
440.07304
440.07298
440.07297
440.07301
440.0731
440.07324
440.07341
440.0734
440.07304
440.07304
440.0729
440.07283
440.07283
440.07288
440.07297
440.07313
440.07332
440.07335
440.07297
440.07298
440.07283
440.07278
440.07278
440.07283
440.07293
440.07309
440.0733
440.07334
440.07296
440.07297
440.07283
440.07278
440.07278
440.07284
440.07295
440.07312
440.07333
440.07338
440.07299
440.07301
440.07288
440.07283
440.07284
440.0729
440.07302
440.07319
440.07341
440.07345
440.07308
440.0731
440.07297
440.07293
440.07295
440.07302
440.07314
440.07331
440.07353
440.07358
440.0732
440.07324
440.07313
440.07309
440.07312
440.07319
440.07331
440.07348
440.0737
440.07375
440.07333
440.07341
440.07332
440.0733
440.07333
440.07341
440.07353
440.0737
440.07391
440.07394
440.07333
440.0734
440.07335
440.07334
440.07338
440.07345
440.07358
440.07375
440.07394
440.07385
447.5715
447.57161
447.57145
447.57138
447.57137
447.57141
447.5715
447.57162
447.57175
447.57175
447.57161
447.5716
447.57145
447.57139
447.57138
447.57143
447.57152
447.57166
447.57183
447.57183
447.57145
447.57145
447.57131
447.57125
447.57125
447.5713
447.5714
447.57155
447.57174
447.57178
447.57138
447.57139
447.57125
447.5712
447.5712
447.57125
447.57136
447.57152
447.57173
447.57177
447.57137
447.57138
447.57125
447.5712
447.5712
447.57126
447.57137
447.57154
447.57175
447.5718
447.57141
447.57143
447.5713
447.57125
447.57126
447.57132
447.57144
447.57161
447.57183
447.57188
447.5715
447.57152
447.5714
447.57136
447.57137
447.57144
447.57156
447.57174
447.57195
447.572
447.57162
447.57166
447.57155
447.57152
447.57154
447.57161
447.57174
447.57191
447.57213
447.57217
447.57175
447.57183
447.57174
447.57173
447.57175
447.57183
447.57195
447.57213
447.57234
447.57237
447.57175
447.57183
447.57178
447.57177
447.5718
447.57188
447.572
447.57217
447.57237
447.57228
455.04253
455.04262
455.04247
455.04241
455.0424
455.04244
455.04252
455.04265
455.04278
455.04278
455.04262
455.04261
455.04247
455.04241
455.04241
455.04245
455.04254
455.04268
455.04285
455.04285
455.04247
455.04247
455.04233
455.04228
455.04228
455.04232
455.04242
455.04257
455.04277
455.0428
455.04241
455.04241
455.04228
455.04223
455.04223
455.04228
455.04239
455.04255
455.04275
455.0428
455.0424
455.04241
455.04228
455.04223
455.04223
455.04229
455.0424
455.04257
455.04278
455.04283
455.04244
455.04245
455.04232
455.04228
455.04229
455.04236
455.04247
455.04264
455.04286
455.04291
455.04252
455.04254
455.04242
455.04239
455.0424
455.04247
455.04259
455.04277
455.04298
455.04303
455.04265
455.04268
455.04257
455.04255
455.04257
455.04264
455.04277
455.04294
455.04315
455.0432
455.04278
455.04285
455.04277
455.04275
455.04278
455.04286
455.04298
455.04315
455.04336
455.0434
455.04278
455.04285
455.0428
455.0428
455.04283
455.04291
455.04303
455.0432
455.0434
455.04332
462.48629
462.48638
462.48624
462.48618
462.48617
462.48621
462.4863
462.48642
462.48655
462.48655
462.48638
462.48637
462.48624
462.48618
462.48618
462.48622
462.48631
462.48645
462.48662
462.48662
462.48624
462.48624
462.48611
462.48605
462.48605
462.4861
462.4862
462.48635
462.48654
462.48658
462.48618
462.48618
462.48605
462.486
462.48601
462.48606
462.48617
462.48632
462.48653
462.48657
462.48617
462.48618
462.48605
462.48601
462.48601
462.48607
462.48618
462.48635
462.48656
462.48661
462.48621
462.48622
462.4861
462.48606
462.48607
462.48614
462.48625
462.48642
462.48663
462.48668
462.4863
462.48631
462.4862
462.48617
462.48618
462.48625
462.48637
462.48654
462.48675
462.48681
462.48642
462.48645
462.48635
462.48632
462.48635
462.48642
462.48654
462.48671
462.48692
462.48697
462.48655
462.48662
462.48654
462.48653
462.48656
462.48663
462.48675
462.48692
462.48713
462.48717
462.48655
462.48662
462.48658
462.48657
462.48661
462.48668
462.48681
462.48697
462.48717
462.48709
469.90288
469.90296
469.90282
469.90277
469.90276
469.90281
469.90289
469.90301
469.90314
469.90315
469.90296
469.90295
469.90282
469.90277
469.90277
469.90281
469.9029
469.90304
469.9032
469.90321
469.90282
469.90282
469.9027
469.90265
469.90265
469.9027
469.90279
469.90294
469.90313
469.90317
469.90277
469.90277
469.90265
469.9026
469.90261
469.90266
469.90276
469.90292
469.90312
469.90316
469.90276
469.90277
469.90265
469.90261
469.90261
469.90267
469.90278
469.90294
469.90315
469.9032
469.90281
469.90281
469.9027
469.90266
469.90267
469.90274
469.90285
469.90301
469.90322
469.90328
469.90289
469.9029
469.90279
469.90276
469.90278
469.90285
469.90297
469.90313
469.90334
469.9034
469.90301
469.90304
469.90294
469.90292
469.90294
469.90301
469.90313
469.9033
469.90351
469.90356
469.90314
469.9032
469.90313
469.90312
469.90315
469.90322
469.90334
469.90351
469.90371
469.90375
469.90315
469.90321
469.90317
469.90316
469.9032
469.90328
469.9034
469.90356
469.90375
469.90367
477.2923
477.29237
477.29224
477.29219
477.29219
477.29223
477.29231
477.29243
477.29255
477.29256
477.29237
477.29236
477.29224
477.29219
477.29219
477.29223
477.29232
477.29245
477.29261
477.29262
477.29224
477.29224
477.29212
477.29207
477.29207
477.29212
477.29222
477.29236
477.29254
477.29258
477.29219
477.29219
477.29207
477.29203
477.29203
477.29209
477.29219
477.29234
477.29253
477.29258
477.29219
477.29219
477.29207
477.29203
477.29205
477.2921
477.29221
477.29237
477.29256
477.29262
477.29223
477.29223
477.29212
477.29209
477.2921
477.29217
477.29228
477.29244
477.29264
477.29269
477.29231
477.29232
477.29222
477.29219
477.29221
477.29228
477.29239
477.29255
477.29275
477.29281
477.29243
477.29245
477.29236
477.29234
477.29237
477.29244
477.29255
477.29271
477.29292
477.29297
477.29255
477.29261
477.29254
477.29253
477.29256
477.29264
477.29275
477.29292
477.29311
477.29315
477.29256
477.29262
477.29258
477.29258
477.29262
477.29269
477.29281
477.29297
477.29315
477.29308
484.65449
484.65456
484.65443
484.65438
484.65438
484.65442
484.65451
484.65462
484.65474
484.65475
484.65456
484.65454
484.65443
484.65438
484.65438
484.65443
484.65451
484.65464
484.6548
484.65481
484.65443
484.65443
484.65432
484.65427
484.65428
484.65433
484.65442
484.65456
484.65473
484.65477
484.65438
484.65438
484.65427
484.65423
484.65424
484.6543
484.65439
484.65454
484.65472
484.65477
484.65438
484.65438
484.65428
484.65424
484.65425
484.65431
484.65441
484.65456
484.65476
484.65481
484.65442
484.65443
484.65433
484.6543
484.65431
484.65437
484.65448
484.65463
484.65483
484.65488
484.65451
484.65451
484.65442
484.65439
484.65441
484.65448
484.65459
484.65475
484.65494
484.65499
484.65462
484.65464
484.65456
484.65454
484.65456
484.65463
484.65475
484.6549
484.6551
484.65515
484.65474
484.6548
484.65473
484.65472
484.65476
484.65483
484.65494
484.6551
484.65529
484.65533
484.65475
484.65481
484.65477
484.65477
484.65481
484.65488
484.65499
484.65515
484.65533
484.65526
491.98935
491.98941
491.9893
491.98925
491.98926
491.9893
491.98937
491.98948
491.9896
491.98961
491.98941
491.9894
491.98929
491.98925
491.98925
491.9893
491.98938
491.9895
491.98965
491.98966
491.9893
491.98929
491.98919
491.98915
491.98916
491.9892
491.98929
491.98942
491.98959
491.98963
491.98925
491.98925
491.98915
491.98912
491.98912
491.98918
491.98927
491.98941
491.98959
491.98963
491.98926
491.98925
491.98916
491.98912
491.98914
491.98919
491.98929
491.98944
491.98962
491.98967
491.9893
491.9893
491.9892
491.98918
491.98919
491.98925
491.98936
491.9895
491.98969
491.98974
491.98937
491.98938
491.98929
491.98927
491.98929
491.98936
491.98946
491.98961
491.9898
491.98985
491.98948
491.9895
491.98942
491.98941
491.98944
491.9895
491.98961
491.98976
491.98995
491.99
491.9896
491.98965
491.98959
491.98959
491.98962
491.98969
491.9898
491.98995
491.99013
491.99017
491.98961
491.98966
491.98963
491.98963
491.98967
491.98974
491.98985
491.99
491.99017
491.99011
499.29673
499.29679
499.29668
499.29664
499.29665
499.29669
499.29676
499.29686
499.29698
499.29699
499.29679
499.29677
499.29668
499.29664
499.29664
499.29669
499.29677
499.29688
499.29702
499.29704
499.29668
499.29668
499.29658
499.29655
499.29655
499.2966
499.29669
499.29681
499.29697
499.29701
499.29664
499.29664
499.29655
499.29652
499.29653
499.29658
499.29667
499.2968
499.29697
499.29701
499.29665
499.29664
499.29655
499.29653
499.29654
499.29659