/*--------------------------------*- C++ -*----------------------------------*\
| =========                 |                                                 |
| \\      /  F ield         | OpenFOAM: The Open Source CFD Toolbox           |
|  \\    /   O peration     | Version:  v2106                                 |
|   \\  /    A nd           | Website:  www.openfoam.com                      |
|    \\/     M anipulation  |                                                 |
\*---------------------------------------------------------------------------*/
FoamFile
{
    version     2.0;
    format      ascii;
    arch        "LSB;label=32;scalar=64";
    class       volVectorField;
    location    "20";
    object      flux;
}
// * * * * * * * * * * * * * * * * * * * * * * * * * * * * * * * * * * * * * //

dimensions      [0 1 -1 1 0 0 0];

internalField   nonuniform List<vector> 
10000
(
(-5.6181856e-08 -5.6181851e-08 0.73176979)
(-1.7473736e-07 -7.9790169e-08 0.73176952)
(-6.3250191e-08 -3.2813176e-08 0.73176926)
(2.199566e-08 -6.3054434e-08 0.73176927)
(-6.3051147e-08 -1.0139182e-07 0.73176928)
(9.8555688e-08 -2.2848937e-08 0.73176916)
(2.0504794e-07 -5.4561402e-08 0.73176968)
(6.8962798e-08 -8.1907136e-08 0.73176987)
(1.3958445e-07 -3.289388e-08 0.73177003)
(7.9520987e-08 -7.5147189e-09 0.7317705)
(-7.9790174e-08 -1.7473737e-07 0.73176952)
(-1.3968435e-07 -1.3968432e-07 0.73176915)
(-3.8146588e-08 -1.3060096e-07 0.73176905)
(-8.0872312e-08 -1.9282769e-07 0.73176896)
(-2.742901e-09 -1.6734561e-07 0.73176882)
(1.6880132e-07 -8.2059536e-08 0.73176903)
(1.1646064e-07 -1.6135687e-07 0.7317694)
(1.0146408e-07 -1.5366014e-07 0.7317695)
(2.5117308e-07 -4.5206853e-08 0.73176989)
(1.0490015e-07 -4.462045e-09 0.73177046)
(-3.2813157e-08 -6.3250198e-08 0.73176926)
(-1.3060095e-07 -3.8146581e-08 0.73176905)
(-1.1639356e-07 -1.1639355e-07 0.73176879)
(-1.4748991e-08 -6.5367281e-08 0.73176867)
(4.7717009e-08 7.2574835e-10 0.73176876)
(1.0454443e-07 -5.7949293e-08 0.73176887)
(1.3344734e-07 -6.6406244e-08 0.73176916)
(1.8511282e-07 6.0211391e-10 0.73176942)
(2.8878254e-07 1.2419534e-08 0.73176993)
(1.0668419e-07 -8.3456584e-09 0.73177051)
(-6.3054429e-08 2.1995675e-08 0.73176927)
(-1.928277e-07 -8.0872333e-08 0.73176896)
(-6.5367288e-08 -1.4748991e-08 0.73176867)
(3.6246988e-08 3.6246974e-08 0.73176874)
(4.6750869e-09 -2.09738e-09 0.73176877)
(1.0166933e-07 -8.4983113e-09 0.73176882)
(1.7501205e-07 4.7820379e-08 0.7317692)
(1.8028986e-07 7.9605066e-08 0.73176951)
(2.422253e-07 4.636334e-08 0.73176994)
(9.1056686e-08 1.5496262e-08 0.73177046)
(-1.0139183e-07 -6.3051147e-08 0.73176928)
(-1.6734561e-07 -2.742901e-09 0.73176882)
(7.2574839e-10 4.7717023e-08 0.73176876)
(-2.09738e-09 4.6750728e-09 0.73176877)
(2.9717242e-09 2.9717029e-09 0.73176875)
(1.5446219e-07 4.6801127e-08 0.73176888)
(2.2155071e-07 8.5674763e-08 0.73176937)
(1.8365578e-07 1.0715425e-07 0.73176972)
(2.2467374e-07 1.0809537e-07 0.73177011)
(8.6106141e-08 1.0685839e-07 0.7317706)
(-2.2848932e-08 9.8555688e-08 0.73176916)
(-8.2059529e-08 1.6880132e-07 0.73176903)
(-5.7949315e-08 1.0454442e-07 0.73176887)
(-8.4983327e-09 1.0166936e-07 0.73176882)
(4.6801141e-08 1.5446218e-07 0.73176888)
(1.8437239e-07 1.8437241e-07 0.73176908)
(2.3536517e-07 1.7004005e-07 0.73176958)
(2.0271047e-07 1.7516837e-07 0.73176997)
(2.4192944e-07 1.9199512e-07 0.7317704)
(9.023203e-08 1.9308045e-07 0.7317709)
(-5.4561407e-08 2.0504794e-07 0.73176968)
(-1.6135688e-07 1.1646063e-07 0.7317694)
(-6.6406208e-08 1.3344733e-07 0.73176916)
(4.7820379e-08 1.7501208e-07 0.7317692)
(8.567477e-08 2.2155075e-07 0.73176937)
(1.7004005e-07 2.3536516e-07 0.73176958)
(2.1234668e-07 2.1234673e-07 0.73177002)
(2.0561085e-07 2.2836391e-07 0.73177041)
(2.4258581e-07 2.5379818e-07 0.73177086)
(8.6829691e-08 2.4956528e-07 0.73177135)
(-8.1907136e-08 6.8962805e-08 0.73176987)
(-1.5366014e-07 1.0146408e-07 0.7317695)
(6.0212813e-10 1.8511284e-07 0.73176942)
(7.9605087e-08 1.8028985e-07 0.73176951)
(1.0715422e-07 1.836558e-07 0.73176972)
(1.7516837e-07 2.0271045e-07 0.73176997)
(2.2836392e-07 2.0561085e-07 0.73177041)
(2.4416192e-07 2.441619e-07 0.73177085)
(2.6313081e-07 2.7544461e-07 0.73177137)
(8.7410096e-08 2.6834682e-07 0.73177186)
(-3.2893889e-08 1.3958444e-07 0.73177003)
(-4.5206846e-08 2.5117306e-07 0.73176989)
(1.2419555e-08 2.8878254e-07 0.73176993)
(4.636334e-08 2.422253e-07 0.73176994)
(1.0809537e-07 2.2467373e-07 0.73177011)
(1.919951e-07 2.4192948e-07 0.7317704)
(2.5379813e-07 2.4258577e-07 0.73177086)
(2.7544461e-07 2.6313082e-07 0.73177137)
(2.6677073e-07 2.6677071e-07 0.73177192)
(8.2097837e-08 2.3873359e-07 0.73177236)
(-7.5147189e-09 7.9520973e-08 0.7317705)
(-4.4620308e-09 1.0490014e-07 0.73177046)
(-8.345637e-09 1.0668418e-07 0.73177051)
(1.5496276e-08 9.1056682e-08 0.73177046)
(1.068584e-07 8.6106141e-08 0.7317706)
(1.930804e-07 9.0232035e-08 0.7317709)
(2.4956527e-07 8.6829677e-08 0.73177135)
(2.6834687e-07 8.7410124e-08 0.73177186)
(2.3873358e-07 8.2097846e-08 0.73177236)
(6.8718682e-08 6.8718691e-08 0.73177272)
(-9.6736348e-08 -9.6736343e-08 0.73179014)
(-2.5846657e-07 -1.3375483e-07 0.73179004)
(-1.8671808e-07 -1.1353337e-07 0.73179004)
(-3.5842824e-08 -1.1643652e-07 0.73178988)
(2.8253254e-08 -1.618359e-07 0.73178999)
(2.9647461e-07 -6.1906263e-08 0.73179012)
(4.4931637e-07 -1.1601324e-07 0.73179034)
(3.211668e-07 -1.2933299e-07 0.73179056)
(5.2593924e-07 -3.7735006e-08 0.73179091)
(2.3223617e-07 -1.8976711e-08 0.73179133)
(-1.3375484e-07 -2.5846658e-07 0.73179004)
(-2.8366211e-07 -2.8366212e-07 0.73178993)
(-1.607406e-07 -3.1646782e-07 0.73178988)
(-1.0829662e-07 -3.2153534e-07 0.73178983)
(1.1004864e-07 -2.9036237e-07 0.73178989)
(3.6520861e-07 -1.9577612e-07 0.73179005)
(3.4817627e-07 -2.9181309e-07 0.73179027)
(4.3858414e-07 -2.1266812e-07 0.73179053)
(6.9147367e-07 -1.0612894e-08 0.73179093)
(2.5099446e-07 2.5825983e-08 0.73179128)
(-1.1353337e-07 -1.8671809e-07 0.73179004)
(-3.1646781e-07 -1.6074062e-07 0.73178988)
(-2.245913e-07 -2.245913e-07 0.73178982)
(-9.7373771e-09 -1.3644069e-07 0.73178977)
(1.5401247e-07 -6.8672079e-08 0.73178985)
(2.9502389e-07 -1.4068041e-07 0.73179)
(4.3242437e-07 -9.7377743e-08 0.73179025)
(6.02367e-07 2.2791504e-08 0.73179056)
(7.6443334e-07 3.8158227e-08 0.731791)
(2.5652875e-07 2.8384548e-08 0.73179136)
(-1.1643652e-07 -3.584281e-08 0.73178988)
(-3.2153532e-07 -1.082966e-07 0.73178983)
(-1.3644068e-07 -9.73737e-09 0.73178977)
(4.7622599e-08 4.7622606e-08 0.73178974)
(1.0580892e-07 4.2346927e-09 0.73178982)
(3.3650294e-07 4.2284647e-08 0.73178999)
(5.1164818e-07 1.6351521e-07 0.73179029)
(5.7412011e-07 2.0360081e-07 0.73179059)
(6.9706671e-07 1.2806951e-07 0.73179099)
(2.4447867e-07 9.3122999e-08 0.73179135)
(-1.618359e-07 2.8253268e-08 0.73178999)
(-2.9036237e-07 1.1004867e-07 0.73178989)
(-6.8672094e-08 1.5401248e-07 0.73178985)
(4.2346856e-09 1.058089e-07 0.73178982)
(1.4867451e-07 1.4867451e-07 0.73178992)
(4.5430441e-07 2.4493514e-07 0.73179014)
(5.9374054e-07 3.1518938e-07 0.73179048)
(5.669213e-07 3.5702838e-07 0.73179078)
(6.5395553e-07 3.5573595e-07 0.73179115)
(2.3323108e-07 3.4240333e-07 0.73179149)
(-6.1906254e-08 2.9647462e-07 0.73179012)
(-1.9577611e-07 3.652086e-07 0.73179005)
(-1.4068045e-07 2.9502387e-07 0.73179)
(4.2284633e-08 3.3650294e-07 0.73178999)
(2.4493516e-07 4.5430442e-07 0.73179014)
(5.0301782e-07 5.0301782e-07 0.73179036)
(6.2374142e-07 4.7601847e-07 0.73179069)
(6.1466668e-07 5.0658586e-07 0.73179102)
(6.8244166e-07 5.4973984e-07 0.7317914)
(2.3559026e-07 5.4094411e-07 0.73179172)
(-1.1601325e-07 4.4931635e-07 0.73179034)
(-2.9181312e-07 3.4817628e-07 0.73179027)
(-9.7377757e-08 4.3242435e-07 0.73179025)
(1.6351523e-07 5.1164821e-07 0.73179029)
(3.151894e-07 5.9374054e-07 0.73179048)
(4.7601846e-07 6.2374142e-07 0.73179069)
(5.9730858e-07 5.9730858e-07 0.73179101)
(6.4064267e-07 6.4888197e-07 0.73179136)
(6.8831378e-07 7.0074633e-07 0.73179175)
(2.2736726e-07 6.7843243e-07 0.73179204)
(-1.2933297e-07 3.211668e-07 0.73179056)
(-2.1266811e-07 4.3858414e-07 0.73179053)
(2.2791482e-08 6.0236704e-07 0.73179056)
(2.0360082e-07 5.7412015e-07 0.73179059)
(3.5702837e-07 5.6692129e-07 0.73179078)
(5.0658586e-07 6.1466671e-07 0.73179102)
(6.4888197e-07 6.4064265e-07 0.73179136)
(7.1810443e-07 7.1810444e-07 0.73179174)
(7.1199212e-07 7.5727599e-07 0.73179213)
(2.2071433e-07 7.0808795e-07 0.73179239)
(-3.7735025e-08 5.2593924e-07 0.73179091)
(-1.0612887e-08 6.9147364e-07 0.73179093)
(3.8158255e-08 7.6443333e-07 0.731791)
(1.2806948e-07 6.9706673e-07 0.73179099)
(3.5573596e-07 6.5395555e-07 0.73179115)
(5.4973982e-07 6.8244167e-07 0.7317914)
(7.0074631e-07 6.883138e-07 0.73179175)
(7.5727601e-07 7.1199213e-07 0.73179213)
(6.7829728e-07 6.782973e-07 0.73179248)
(1.9457523e-07 5.7956684e-07 0.73179267)
(-1.8976702e-08 2.3223615e-07 0.73179133)
(2.5825976e-08 2.5099447e-07 0.73179128)
(2.8384569e-08 2.5652872e-07 0.73179136)
(9.3123042e-08 2.4447868e-07 0.73179135)
(3.424033e-07 2.332311e-07 0.73179149)
(5.409441e-07 2.3559024e-07 0.73179172)
(6.7843243e-07 2.2736728e-07 0.73179204)
(7.0808793e-07 2.2071433e-07 0.73179239)
(5.7956684e-07 1.9457523e-07 0.73179267)
(1.5489402e-07 1.5489403e-07 0.73179277)
(-1.2077199e-07 -1.2077199e-07 0.73182779)
(-2.7667414e-07 -1.5562139e-07 0.73182779)
(-2.2298647e-07 -1.3703928e-07 0.73182784)
(-2.315501e-08 -1.0023546e-07 0.73182779)
(1.6758702e-07 -1.7009003e-07 0.73182789)
(4.4566256e-07 -6.9524882e-08 0.73182798)
(6.4805419e-07 -1.0337702e-07 0.73182815)
(6.3756723e-07 -1.0295897e-07 0.73182836)
(9.143083e-07 -2.1211766e-08 0.73182863)
(3.6160293e-07 -4.2106909e-08 0.73182893)
(-1.5562139e-07 -2.7667414e-07 0.73182779)
(-3.0107508e-07 -3.0107507e-07 0.73182783)
(-1.3990758e-07 -3.4800165e-07 0.73182787)
(-7.273114e-08 -3.1077686e-07 0.73182788)
(2.1365288e-07 -3.0784521e-07 0.73182792)
(5.4573207e-07 -2.0133953e-07 0.73182806)
(5.9790305e-07 -2.54132e-07 0.73182825)
(7.6081512e-07 -1.487562e-07 0.73182848)
(1.0055864e-06 4.8240281e-08 0.7318287)
(3.4070779e-07 2.3660284e-08 0.73182885)
(-1.3703927e-07 -2.2298648e-07 0.73182784)
(-3.4800164e-07 -1.3990758e-07 0.73182787)
(-2.3268826e-07 -2.3268825e-07 0.73182786)
(1.7001426e-08 -1.5876832e-07 0.73182784)
(2.7702434e-07 -7.288169e-08 0.73182792)
(4.9937577e-07 -1.1528692e-07 0.73182806)
(7.0063752e-07 -4.6626653e-08 0.73182825)
(9.3993952e-07 6.4168468e-08 0.73182847)
(1.0867248e-06 7.2149675e-08 0.73182872)
(3.4521627e-07 6.2236396e-08 0.73182886)
(-1.0023546e-07 -2.3154989e-08 0.73182779)
(-3.1077685e-07 -7.2731119e-08 0.73182788)
(-1.5876832e-07 1.7001419e-08 0.73182784)
(8.7075421e-08 8.7075406e-08 0.73182784)
(2.5713429e-07 6.6286248e-08 0.73182792)
(5.7198711e-07 1.3308701e-07 0.73182807)
(7.7735844e-07 2.7606929e-07 0.73182827)
(8.7959145e-07 3.0035855e-07 0.73182845)
(1.0036543e-06 1.9507432e-07 0.73182867)
(3.3409894e-07 1.4575213e-07 0.73182879)
(-1.7009003e-07 1.6758702e-07 0.73182789)
(-3.0784523e-07 2.136529e-07 0.73182792)
(-7.2881733e-08 2.7702436e-07 0.73182792)
(6.6286255e-08 2.5713427e-07 0.73182792)
(3.2303594e-07 3.2303593e-07 0.731828)
(7.0915881e-07 4.1849473e-07 0.73182815)
(8.6790907e-07 4.9212812e-07 0.73182836)
(8.5894455e-07 5.4042117e-07 0.73182852)
(9.3211836e-07 5.249936e-07 0.7318287)
(3.1233481e-07 4.7914031e-07 0.73182878)
(-6.9524878e-08 4.4566256e-07 0.73182798)
(-2.0133951e-07 5.4573207e-07 0.73182806)
(-1.1528694e-07 4.9937577e-07 0.73182806)
(1.3308698e-07 5.7198714e-07 0.73182807)
(4.1849474e-07 7.0915883e-07 0.73182815)
(7.410793e-07 7.4107933e-07 0.73182827)
(8.9928488e-07 7.0438322e-07 0.73182845)
(9.1245693e-07 7.4927264e-07 0.73182862)
(9.4237346e-07 7.868933e-07 0.73182878)
(3.0353008e-07 7.4414081e-07 0.73182882)
(-1.0337702e-07 6.4805418e-07 0.73182815)
(-2.5413202e-07 5.9790304e-07 0.73182825)
(-4.6626667e-08 7.0063751e-07 0.73182825)
(2.7606932e-07 7.7735847e-07 0.73182827)
(4.9212813e-07 8.6790904e-07 0.73182836)
(7.043832e-07 8.992849e-07 0.73182845)
(8.7610238e-07 8.7610241e-07 0.73182861)
(9.4145463e-07 9.4032993e-07 0.73182876)
(9.2698652e-07 9.7763559e-07 0.7318289)
(2.8383315e-07 9.1044779e-07 0.73182891)
(-1.0295897e-07 6.3756724e-07 0.73182836)
(-1.4875618e-07 7.608151e-07 0.73182848)
(6.4168482e-08 9.3993955e-07 0.73182847)
(3.0035851e-07 8.7959145e-07 0.73182845)
(5.4042118e-07 8.5894453e-07 0.73182852)
(7.4927268e-07 9.1245693e-07 0.73182862)
(9.4032991e-07 9.4145462e-07 0.73182876)
(1.0139901e-06 1.0139901e-06 0.73182891)
(9.1249132e-07 1.0124625e-06 0.73182902)
(2.5873821e-07 8.9556372e-07 0.73182897)
(-2.1211776e-08 9.1430832e-07 0.73182863)
(4.8240295e-08 1.0055864e-06 0.7318287)
(7.2149682e-08 1.0867248e-06 0.73182872)
(1.9507429e-07 1.0036543e-06 0.73182867)
(5.249936e-07 9.3211841e-07 0.7318287)
(7.8689329e-07 9.4237346e-07 0.73182878)
(9.7763557e-07 9.2698652e-07 0.7318289)
(1.0124625e-06 9.1249131e-07 0.73182902)
(8.0856012e-07 8.085601e-07 0.73182907)
(2.0590065e-07 6.2641722e-07 0.73182896)
(-4.2106914e-08 3.6160293e-07 0.73182893)
(2.3660284e-08 3.407078e-07 0.73182885)
(6.2236395e-08 3.4521626e-07 0.73182886)
(1.4575214e-07 3.3409894e-07 0.73182879)
(4.7914032e-07 3.1233482e-07 0.73182878)
(7.4414078e-07 3.0353008e-07 0.73182882)
(9.1044776e-07 2.8383315e-07 0.73182891)
(8.9556369e-07 2.5873821e-07 0.73182897)
(6.2641723e-07 2.0590064e-07 0.73182896)
(1.3730962e-07 1.3730961e-07 0.73182877)
(-9.4915587e-08 -9.4915587e-08 0.73188357)
(-2.1073988e-07 -1.0481858e-07 0.73188371)
(-1.8966273e-07 -9.0581011e-08 0.73188374)
(1.4246382e-08 -5.7923776e-08 0.73188372)
(2.2434715e-07 -1.3637644e-07 0.73188374)
(5.6086288e-07 -1.432601e-08 0.73188376)
(8.3066296e-07 -4.7765776e-08 0.73188389)
(8.0319284e-07 -5.4171049e-08 0.73188398)
(1.0863934e-06 1.0862995e-08 0.73188401)
(4.278701e-07 -6.6795816e-08 0.7318841)
(-1.0481858e-07 -2.1073987e-07 0.73188371)
(-2.0423802e-07 -2.0423801e-07 0.73188386)
(-1.1932053e-07 -2.9326817e-07 0.73188387)
(-5.4446758e-08 -2.6752188e-07 0.73188383)
(2.897438e-07 -2.5693897e-07 0.73188383)
(6.9377887e-07 -1.2128994e-07 0.7318839)
(7.708954e-07 -1.8973311e-07 0.731884)
(8.91136e-07 -1.0415177e-07 0.73188406)
(1.0674562e-06 8.0383536e-08 0.73188404)
(3.5021128e-07 -4.3267448e-08 0.73188397)
(-9.0581016e-08 -1.8966275e-07 0.73188374)
(-2.9326819e-07 -1.1932053e-07 0.73188387)
(-2.5294661e-07 -2.529466e-07 0.73188381)
(5.0575586e-08 -1.7254167e-07 0.73188376)
(3.7057909e-07 -6.9833035e-08 0.73188379)
(6.2806873e-07 -1.2157913e-07 0.73188383)
(8.4780114e-07 -7.7164557e-08 0.73188389)
(1.0733095e-06 -6.5735861e-10 0.73188392)
(1.1472777e-06 8.63146e-10 0.73188391)
(3.4543611e-07 -3.5446106e-08 0.73188381)
(-5.7923766e-08 1.4246375e-08 0.73188372)
(-2.6752187e-07 -5.4446758e-08 0.73188383)
(-1.7254167e-07 5.0575593e-08 0.73188376)
(1.2866681e-07 1.2866678e-07 0.73188373)
(3.4070633e-07 8.9575479e-08 0.73188372)
(6.8644735e-07 1.3764951e-07 0.73188373)
(8.9181718e-07 2.6681238e-07 0.73188376)
(9.691637e-07 2.5308071e-07 0.73188373)
(1.0326675e-06 1.0675876e-07 0.73188368)
(3.2600512e-07 1.8442989e-08 0.73188356)
(-1.3637644e-07 2.2434718e-07 0.73188374)
(-2.5693897e-07 2.897438e-07 0.73188383)
(-6.9833071e-08 3.7057908e-07 0.73188379)
(8.9575472e-08 3.4070633e-07 0.73188372)
(3.7956182e-07 3.7956179e-07 0.73188366)
(8.0530563e-07 4.4074547e-07 0.73188363)
(9.6323234e-07 4.9295115e-07 0.73188363)
(9.1325587e-07 5.2022392e-07 0.73188356)
(9.1263997e-07 4.6829066e-07 0.73188347)
(2.8655892e-07 3.7539058e-07 0.7318833)
(-1.4326015e-08 5.6086289e-07 0.73188376)
(-1.2128996e-07 6.9377884e-07 0.7318839)
(-1.2157914e-07 6.2806873e-07 0.73188383)
(1.3764951e-07 6.8644739e-07 0.73188373)
(4.4074547e-07 8.0530565e-07 0.73188363)
(7.9983671e-07 7.9983671e-07 0.73188354)
(9.7129563e-07 7.2709979e-07 0.73188349)
(9.4450321e-07 7.4851067e-07 0.73188339)
(8.8783413e-07 7.5259911e-07 0.73188326)
(2.6407173e-07 6.6664845e-07 0.73188306)
(-4.7765804e-08 8.3066294e-07 0.73188389)
(-1.8973314e-07 7.7089539e-07 0.731884)
(-7.7164522e-08 8.4780115e-07 0.73188389)
(2.6681239e-07 8.9181718e-07 0.73188376)
(4.9295113e-07 9.6323235e-07 0.73188363)
(7.2709977e-07 9.7129563e-07 0.73188349)
(9.119063e-07 9.1190631e-07 0.73188339)
(9.3875519e-07 9.4449825e-07 0.73188325)
(8.3077776e-07 9.4375883e-07 0.73188308)
(2.2925849e-07 8.2672547e-07 0.73188284)
(-5.4171049e-08 8.0319281e-07 0.73188398)
(-1.0415176e-07 8.9113603e-07 0.73188406)
(-6.5735135e-10 1.0733095e-06 0.73188392)
(2.5308071e-07 9.6916369e-07 0.73188373)
(5.2022392e-07 9.1325587e-07 0.73188356)
(7.4851068e-07 9.4450323e-07 0.73188339)
(9.4449825e-07 9.3875522e-07 0.73188325)
(9.7635573e-07 9.7635576e-07 0.73188307)
(7.7006135e-07 9.2047961e-07 0.73188288)
(1.8604949e-07 7.5652058e-07 0.73188262)
(1.0863005e-08 1.0863934e-06 0.73188401)
(8.0383558e-08 1.0674562e-06 0.73188404)
(8.6314616e-10 1.1472777e-06 0.73188391)
(1.0675875e-07 1.0326675e-06 0.73188368)
(4.6829066e-07 9.1263998e-07 0.73188347)
(7.5259913e-07 8.8783415e-07 0.73188326)
(9.4375883e-07 8.3077775e-07 0.73188308)
(9.2047959e-07 7.7006137e-07 0.73188288)
(6.1094259e-07 6.1094259e-07 0.73188264)
(1.1995247e-07 3.7442354e-07 0.73188237)
(-6.6795825e-08 4.2787011e-07 0.7318841)
(-4.3267462e-08 3.5021129e-07 0.73188397)
(-3.5446092e-08 3.454361e-07 0.73188381)
(1.8442996e-08 3.2600513e-07 0.73188356)
(3.7539058e-07 2.8655893e-07 0.7318833)
(6.6664845e-07 2.6407174e-07 0.73188306)
(8.2672547e-07 2.2925848e-07 0.73188284)
(7.5652057e-07 1.860495e-07 0.73188262)
(3.7442351e-07 1.1995247e-07 0.73188237)
(2.8370119e-08 2.837012e-08 0.73188208)
(-2.6625264e-08 -2.6625259e-08 0.73195688)
(-1.017368e-07 -5.4213236e-08 0.73195704)
(-2.1427877e-07 -5.2938963e-08 0.731957)
(-2.5768443e-08 -2.268312e-08 0.73195689)
(2.0925611e-07 -1.0886283e-07 0.73195683)
(5.9758724e-07 2.4492204e-08 0.73195676)
(8.7513706e-07 -2.776054e-08 0.73195677)
(7.5691444e-07 -5.3078831e-08 0.73195668)
(1.0317717e-06 -3.0590762e-09 0.73195652)
(4.2330115e-07 -1.3355976e-07 0.73195646)
(-5.4213241e-08 -1.0173679e-07 0.73195704)
(-1.4120735e-07 -1.4120732e-07 0.73195713)
(-1.669836e-07 -2.7811406e-07 0.73195706)
(-1.0965424e-07 -2.6224162e-07 0.73195694)
(2.800191e-07 -2.6116228e-07 0.73195684)
(7.1924067e-07 -1.3307252e-07 0.73195679)
(7.5878051e-07 -2.5850936e-07 0.73195674)
(7.9396663e-07 -2.1831404e-07 0.7319566)
(9.1105027e-07 -5.1686939e-08 0.73195639)
(2.9280047e-07 -2.6794999e-07 0.73195619)
(-5.2938953e-08 -2.1427878e-07 0.731957)
(-2.7811407e-07 -1.6698357e-07 0.73195706)
(-3.3531307e-07 -3.3531305e-07 0.73195693)
(-8.8166623e-09 -2.6443402e-07 0.73195679)
(3.3842522e-07 -1.8536338e-07 0.73195668)
(6.0024016e-07 -2.8726812e-07 0.73195658)
(7.8989554e-07 -2.9378898e-07 0.73195646)
(9.6373686e-07 -2.6812737e-07 0.73195628)
(9.8213571e-07 -2.8676216e-07 0.73195609)
(2.7912579e-07 -3.4634497e-07 0.73195589)
(-2.2683101e-08 -2.5768458e-08 0.73195689)
(-2.6224161e-07 -1.0965429e-07 0.73195694)
(-2.6443404e-07 -8.8166487e-09 0.73195679)
(4.0295426e-08 4.0295418e-08 0.73195663)
(2.5718501e-07 -5.9071433e-08 0.73195646)
(6.1081507e-07 -6.5080073e-08 0.7319563)
(7.7792126e-07 2.1617275e-08 0.73195614)
(8.0099345e-07 -5.0249618e-08 0.73195589)
(8.3283267e-07 -2.4924448e-07 0.73195565)
(2.530786e-07 -3.6925309e-07 0.73195544)
(-1.0886284e-07 2.0925609e-07 0.73195683)
(-2.6116226e-07 2.8001912e-07 0.73195684)
(-1.8536336e-07 3.384252e-07 0.73195668)
(-5.9071447e-08 2.5718502e-07 0.73195646)
(2.3304973e-07 2.3304973e-07 0.73195622)
(6.8092886e-07 2.2864189e-07 0.73195599)
(8.0472599e-07 2.2743026e-07 0.73195578)
(6.928751e-07 2.0740821e-07 0.73195549)
(6.6313223e-07 1.0663147e-07 0.7319552)
(1.9912004e-07 -1.6861208e-08 0.73195496)
(2.4492247e-08 5.9758725e-07 0.73195676)
(-1.330725e-07 7.192407e-07 0.73195679)
(-2.8726814e-07 6.0024014e-07 0.73195658)
(-6.5080044e-08 6.1081509e-07 0.7319563)
(2.2864187e-07 6.8092889e-07 0.73195599)
(6.0519559e-07 6.051956e-07 0.73195569)
(7.5668758e-07 4.5942021e-07 0.73195541)
(6.8019467e-07 4.2971489e-07 0.73195506)
(6.0856325e-07 3.9695828e-07 0.73195474)
(1.7075015e-07 2.9162729e-07 0.73195452)
(-2.7760544e-08 8.7513707e-07 0.73195677)
(-2.5850937e-07 7.5878047e-07 0.73195674)
(-2.9378897e-07 7.8989555e-07 0.73195646)
(2.1617297e-08 7.7792124e-07 0.73195614)
(2.2743023e-07 8.0472601e-07 0.73195578)
(4.5942019e-07 7.5668759e-07 0.73195541)
(6.2924528e-07 6.292453e-07 0.73195505)
(6.3041317e-07 6.1924093e-07 0.73195466)
(5.2504463e-07 5.982056e-07 0.73195432)
(1.2889938e-07 4.699063e-07 0.73195411)
(-5.3078816e-08 7.5691444e-07 0.73195668)
(-2.1831402e-07 7.9396665e-07 0.7319566)
(-2.6812737e-07 9.6373688e-07 0.73195628)
(-5.0249589e-08 8.0099343e-07 0.73195589)
(2.0740823e-07 6.928751e-07 0.73195549)
(4.2971489e-07 6.8019467e-07 0.73195506)
(6.1924092e-07 6.304132e-07 0.73195466)
(6.4915496e-07 6.49155e-07 0.73195426)
(4.5922862e-07 5.726733e-07 0.73195395)
(8.521729e-08 4.2075203e-07 0.73195376)
(-3.0590712e-09 1.0317717e-06 0.73195652)
(-5.1686925e-08 9.1105027e-07 0.73195639)
(-2.8676218e-07 9.8213572e-07 0.73195609)
(-2.4924449e-07 8.3283268e-07 0.73195565)
(1.0663147e-07 6.6313223e-07 0.7319552)
(3.969583e-07 6.0856326e-07 0.73195474)
(5.9820562e-07 5.2504463e-07 0.73195432)
(5.7267326e-07 4.5922866e-07 0.73195395)
(2.9664166e-07 2.9664165e-07 0.73195364)
(2.7618536e-08 8.4385264e-08 0.73195352)
(-1.3355977e-07 4.2330116e-07 0.73195646)
(-2.6795e-07 2.9280047e-07 0.73195619)
(-3.4634497e-07 2.7912578e-07 0.73195589)
(-3.6925308e-07 2.5307861e-07 0.73195544)
(-1.6861187e-08 1.9912005e-07 0.73195496)
(2.9162729e-07 1.7075017e-07 0.73195452)
(4.6990632e-07 1.2889938e-07 0.73195411)
(4.2075198e-07 8.5217304e-08 0.73195376)
(8.4385228e-08 2.7618522e-08 0.73195352)
(-5.6286969e-08 -5.6286983e-08 0.73195347)
(1.2769022e-08 1.2769021e-08 0.73204728)
(-8.3899785e-08 -4.4615561e-08 0.73204735)
(-3.3679049e-07 -5.3117309e-08 0.73204723)
(-1.599797e-07 -2.558069e-08 0.73204704)
(9.5300606e-08 -1.2866947e-07 0.73204689)
(5.0061053e-07 5.5936243e-09 0.73204672)
(7.5084974e-07 -6.8608661e-08 0.7320466)
(5.5130252e-07 -1.1259622e-07 0.73204638)
(8.5876458e-07 -7.4659748e-08 0.73204614)
(3.8616293e-07 -2.4091431e-07 0.73204605)
(-4.4615561e-08 -8.3899757e-08 0.73204735)
(-1.8272928e-07 -1.8272925e-07 0.73204734)
(-3.0823819e-07 -3.6412247e-07 0.73204719)
(-2.7330795e-07 -3.685649e-07 0.73204699)
(1.4206208e-07 -4.0434673e-07 0.73204679)
(5.9070175e-07 -3.0884483e-07 0.73204662)
(5.7356498e-07 -4.9970014e-07 0.73204644)
(5.4222589e-07 -5.0452066e-07 0.73204618)
(6.6628743e-07 -3.4806917e-07 0.73204592)
(2.1990836e-07 -6.1256215e-07 0.73204575)
(-5.3117309e-08 -3.3679049e-07 0.73204723)
(-3.641225e-07 -3.0823819e-07 0.73204719)
(-5.2262615e-07 -5.2262608e-07 0.73204699)
(-2.0020396e-07 -4.8167985e-07 0.73204676)
(1.5502069e-07 -4.4832158e-07 0.73204655)
(4.0525712e-07 -6.1524172e-07 0.73204632)
(5.5517391e-07 -6.8034195e-07 0.73204608)
(7.029335e-07 -7.0578241e-07 0.73204579)
(7.5072309e-07 -7.3700119e-07 0.73204556)
(2.0983427e-07 -7.8658356e-07 0.73204542)
(-2.5580694e-08 -1.5997974e-07 0.73204704)
(-3.6856488e-07 -2.7330799e-07 0.73204699)
(-4.8167985e-07 -2.0020396e-07 0.73204676)
(-1.9900345e-07 -1.9900339e-07 0.73204651)
(8.5002156e-09 -3.7400682e-07 0.73204624)
(3.5868138e-07 -4.4502895e-07 0.73204596)
(4.8302428e-07 -4.0975973e-07 0.73204568)
(4.8556664e-07 -5.4208893e-07 0.73204534)
(5.8548629e-07 -7.8576648e-07 0.73204508)
(1.8685346e-07 -9.0378606e-07 0.73204496)
(-1.2866947e-07 9.5300578e-08 0.73204689)
(-4.0434672e-07 1.4206208e-07 0.73204679)
(-4.4832155e-07 1.5502067e-07 0.73204655)
(-3.7400681e-07 8.500237e-09 0.73204624)
(-9.1004865e-08 -9.1004829e-08 0.7320459)
(3.6950421e-07 -1.7201563e-07 0.73204556)
(4.5811392e-07 -2.3655193e-07 0.73204525)
(3.2692674e-07 -3.0641451e-07 0.73204487)
(3.8902596e-07 -4.4198845e-07 0.73204458)
(1.3115456e-07 -5.4810807e-07 0.73204447)
(5.5936389e-09 5.0061056e-07 0.73204672)
(-3.0884478e-07 5.9070175e-07 0.73204662)
(-6.152417e-07 4.0525714e-07 0.73204632)
(-4.4502894e-07 3.5868138e-07 0.73204596)
(-1.7201565e-07 3.6950422e-07 0.73204556)
(2.1313428e-07 2.1313432e-07 0.73204516)
(3.4862541e-07 -1.1396111e-08 0.73204479)
(2.8013012e-07 -8.3584318e-08 0.73204439)
(3.4379273e-07 -1.204987e-07 0.73204409)
(1.1610705e-07 -1.9164739e-07 0.73204405)
(-6.8608685e-08 7.5084973e-07 0.7320466)
(-4.9970014e-07 5.7356496e-07 0.73204644)
(-6.8034191e-07 5.5517387e-07 0.73204608)
(-4.0975973e-07 4.8302426e-07 0.73204568)
(-2.3655193e-07 4.5811393e-07 0.73204525)
(-1.1396126e-08 3.4862541e-07 0.73204479)
(1.6139528e-07 1.613953e-07 0.73204436)
(2.1782415e-07 1.3969107e-07 0.73204394)
(2.8096289e-07 1.4761746e-07 0.73204369)
(8.3722095e-08 7.0647523e-08 0.73204368)
(-1.1259621e-07 5.5130251e-07 0.73204638)
(-5.0452064e-07 5.4222593e-07 0.73204618)
(-7.057824e-07 7.0293348e-07 0.73204579)
(-5.4208888e-07 4.8556665e-07 0.73204534)
(-3.064145e-07 3.2692674e-07 0.73204487)
(-8.3584354e-08 2.8013014e-07 0.73204439)
(1.3969106e-07 2.1782418e-07 0.73204394)
(2.6635229e-07 2.6635229e-07 0.73204357)
(2.7474918e-07 2.3289933e-07 0.73204338)
(6.4793753e-08 1.66562e-07 0.73204346)
(-7.4659733e-08 8.587646e-07 0.73204614)
(-3.4806917e-07 6.6628746e-07 0.73204592)
(-7.3700119e-07 7.5072311e-07 0.73204556)
(-7.8576646e-07 5.8548632e-07 0.73204508)
(-4.4198844e-07 3.8902596e-07 0.73204458)
(-1.2049869e-07 3.4379277e-07 0.73204409)
(1.4761743e-07 2.8096293e-07 0.73204369)
(2.328993e-07 2.7474921e-07 0.73204338)
(1.811726e-07 1.811726e-07 0.73204325)
(3.9497214e-08 7.7396664e-08 0.73204342)
(-2.409143e-07 3.8616292e-07 0.73204605)
(-6.1256213e-07 2.1990835e-07 0.73204575)
(-7.8658353e-07 2.0983428e-07 0.73204542)
(-9.0378604e-07 1.8685346e-07 0.73204496)
(-5.4810805e-07 1.3115456e-07 0.73204447)
(-1.9164738e-07 1.1610706e-07 0.73204405)
(7.0647496e-08 8.3722104e-08 0.73204368)
(1.6656195e-07 6.4793767e-08 0.73204346)
(7.7396642e-08 3.9497209e-08 0.73204342)
(-4.390202e-09 -4.3902067e-09 0.73204369)
(1.8346147e-08 1.8346151e-08 0.7321547)
(-1.5338262e-07 -6.3951745e-08 0.73215468)
(-5.2667983e-07 -7.7925657e-08 0.73215452)
(-3.614908e-07 -5.3611805e-08 0.7321543)
(-1.0528796e-07 -1.7675846e-07 0.73215411)
(2.9993262e-07 -4.2734504e-08 0.73215388)
(5.3484405e-07 -1.343782e-07 0.73215368)
(3.0078498e-07 -1.8908619e-07 0.73215344)
(6.9875695e-07 -1.5239259e-07 0.73215322)
(3.622055e-07 -3.3506192e-07 0.73215319)
(-6.395175e-08 -1.5338261e-07 0.73215468)
(-2.9779033e-07 -2.9779032e-07 0.73215461)
(-5.1116992e-07 -5.1657058e-07 0.73215444)
(-5.0974e-07 -5.391522e-07 0.73215422)
(-8.8972008e-08 -6.1055223e-07 0.73215398)
(3.63503e-07 -5.4037452e-07 0.73215375)
(3.1531651e-07 -7.8035983e-07 0.73215352)
(2.737634e-07 -8.0707588e-07 0.73215325)
(4.7979336e-07 -6.2971127e-07 0.73215305)
(1.7953617e-07 -8.9735062e-07 0.73215298)
(-7.7925662e-08 -5.2667982e-07 0.73215452)
(-5.1657059e-07 -5.1116994e-07 0.73215444)
(-7.680417e-07 -7.6804172e-07 0.73215422)
(-4.5547245e-07 -7.4565668e-07 0.73215399)
(-1.0651028e-07 -7.4096985e-07 0.73215377)
(1.3012502e-07 -9.5154786e-07 0.73215351)
(2.6814269e-07 -1.0536277e-06 0.73215324)
(4.5143353e-07 -1.1062239e-06 0.73215298)
(6.0848221e-07 -1.1217689e-06 0.73215283)
(1.8377927e-07 -1.1337901e-06 0.7321528)
(-5.3611832e-08 -3.6149082e-07 0.7321543)
(-5.3915223e-07 -5.0974001e-07 0.73215422)
(-7.4565665e-07 -4.5547245e-07 0.73215399)
(-4.8266813e-07 -4.8266815e-07 0.73215377)
(-2.9486319e-07 -7.0889557e-07 0.73215353)
(5.0845124e-08 -8.1721725e-07 0.73215325)
(1.6064045e-07 -8.0576615e-07 0.73215298)
(2.0562225e-07 -9.7138575e-07 0.7321527)
(4.5222718e-07 -1.2326033e-06 0.73215255)
(1.7152202e-07 -1.3207548e-06 0.73215255)
(-1.7675846e-07 -1.0528799e-07 0.73215411)
(-6.1055222e-07 -8.897198e-08 0.73215398)
(-7.4096984e-07 -1.0651026e-07 0.73215377)
(-7.0889556e-07 -2.9486315e-07 0.73215353)
(-4.4105938e-07 -4.4105939e-07 0.73215325)
(3.3254438e-08 -5.6487251e-07 0.73215297)
(1.1397419e-07 -6.5819567e-07 0.73215271)
(2.4596353e-08 -7.4510285e-07 0.73215243)
(2.5911321e-07 -8.8128023e-07 0.73215227)
(1.2501165e-07 -9.3155629e-07 0.73215229)
(-4.2734489e-08 2.9993264e-07 0.73215388)
(-5.4037449e-07 3.6350302e-07 0.73215375)
(-9.5154782e-07 1.3012503e-07 0.73215351)
(-8.1721726e-07 5.0845131e-08 0.73215325)
(-5.6487256e-07 3.3254459e-08 0.73215297)
(-1.6629115e-07 -1.6629117e-07 0.73215268)
(-1.9589883e-08 -4.2875449e-07 0.73215242)
(-1.7462313e-08 -4.9993608e-07 0.73215214)
(2.6577374e-07 -4.9430305e-07 0.73215201)
(1.3800465e-07 -4.9759996e-07 0.73215211)
(-1.343782e-07 5.348441e-07 0.73215368)
(-7.8035983e-07 3.1531651e-07 0.73215352)
(-1.0536277e-06 2.6814268e-07 0.73215324)
(-8.0576613e-07 1.6064045e-07 0.73215298)
(-6.5819569e-07 1.1397422e-07 0.73215271)
(-4.2875451e-07 -1.9589854e-08 0.73215242)
(-2.1967072e-07 -2.1967074e-07 0.73215214)
(-4.0952202e-08 -1.9964677e-07 0.7321519)
(2.6144933e-07 -1.1813373e-07 0.73215184)
(1.2281371e-07 -1.198372e-07 0.73215196)
(-1.8908621e-07 3.0078498e-07 0.73215344)
(-8.0707591e-07 2.737634e-07 0.73215325)
(-1.1062239e-06 4.5143353e-07 0.73215298)
(-9.7138573e-07 2.0562229e-07 0.7321527)
(-7.4510286e-07 2.4596353e-08 0.73215243)
(-4.9993611e-07 -1.746227e-08 0.73215214)
(-1.996468e-07 -4.0952181e-08 0.7321519)
(8.4074699e-08 8.407472e-08 0.73215173)
(3.4558331e-07 1.298561e-07 0.73215174)
(1.36869e-07 1.6503358e-07 0.73215192)
(-1.5239259e-07 6.9875693e-07 0.73215322)
(-6.2971127e-07 4.797934e-07 0.73215305)
(-1.1217688e-06 6.0848222e-07 0.73215283)
(-1.2326033e-06 4.522272e-07 0.73215255)
(-8.8128025e-07 2.591132e-07 0.73215227)
(-4.9430305e-07 2.6577372e-07 0.73215201)
(-1.1813373e-07 2.6144938e-07 0.73215184)
(1.2985608e-07 3.4558333e-07 0.73215174)
(3.4240819e-07 3.4240821e-07 0.73215179)
(1.4626536e-07 3.1964006e-07 0.73215202)
(-3.350619e-07 3.622055e-07 0.73215319)
(-8.9735061e-07 1.7953619e-07 0.73215298)
(-1.1337901e-06 1.8377928e-07 0.7321528)
(-1.3207548e-06 1.7152202e-07 0.73215255)
(-9.3155634e-07 1.2501165e-07 0.73215229)
(-4.9759993e-07 1.3800463e-07 0.73215211)
(-1.1983719e-07 1.2281373e-07 0.73215196)
(1.6503353e-07 1.3686899e-07 0.73215192)
(3.1964004e-07 1.4626536e-07 0.73215202)
(1.2169023e-07 1.2169022e-07 0.73215219)
(-1.8886512e-09 -1.8886323e-09 0.73227934)