/*--------------------------------*- C++ -*----------------------------------*\
| =========                 |                                                 |
| \\      /  F ield         | OpenFOAM: The Open Source CFD Toolbox           |
|  \\    /   O peration     | Version:  v2106                                 |
|   \\  /    A nd           | Website:  www.openfoam.com                      |
|    \\/     M anipulation  |                                                 |
\*---------------------------------------------------------------------------*/
FoamFile
{
    version     2.0;
    format      ascii;
    arch        "LSB;label=32;scalar=64";
    class       volScalarField;
    location    "20";
    object      gradTz;
}
// * * * * * * * * * * * * * * * * * * * * * * * * * * * * * * * * * * * * * //

dimensions      [0 -1 0 1 0 0 0];

internalField   nonuniform List<scalar> 
10000
(
2927.0791
2927.0781
2927.0771
2927.0771
2927.0771
2927.0766
2927.0787
2927.0795
2927.0801
2927.082
2927.0781
2927.0766
2927.0762
2927.0759
2927.0753
2927.0761
2927.0776
2927.078
2927.0796
2927.0818
2927.0771
2927.0762
2927.0752
2927.0747
2927.075
2927.0755
2927.0766
2927.0777
2927.0797
2927.082
2927.0771
2927.0759
2927.0747
2927.075
2927.0751
2927.0753
2927.0768
2927.0781
2927.0798
2927.0818
2927.0771
2927.0753
2927.075
2927.0751
2927.075
2927.0755
2927.0775
2927.0789
2927.0804
2927.0824
2927.0766
2927.0761
2927.0755
2927.0753
2927.0755
2927.0763
2927.0783
2927.0799
2927.0816
2927.0836
2927.0787
2927.0776
2927.0766
2927.0768
2927.0775
2927.0783
2927.0801
2927.0816
2927.0834
2927.0854
2927.0795
2927.078
2927.0777
2927.0781
2927.0789
2927.0799
2927.0816
2927.0834
2927.0855
2927.0874
2927.0801
2927.0796
2927.0797
2927.0798
2927.0804
2927.0816
2927.0834
2927.0855
2927.0877
2927.0894
2927.082
2927.0818
2927.082
2927.0818
2927.0824
2927.0836
2927.0854
2927.0874
2927.0894
2927.0909
2927.1606
2927.1602
2927.1602
2927.1595
2927.16
2927.1605
2927.1614
2927.1622
2927.1636
2927.1653
2927.1602
2927.1597
2927.1595
2927.1593
2927.1596
2927.1602
2927.1611
2927.1621
2927.1637
2927.1651
2927.1602
2927.1595
2927.1593
2927.1591
2927.1594
2927.16
2927.161
2927.1623
2927.164
2927.1654
2927.1595
2927.1593
2927.1591
2927.1589
2927.1593
2927.16
2927.1612
2927.1624
2927.1639
2927.1654
2927.16
2927.1596
2927.1594
2927.1593
2927.1597
2927.1606
2927.1619
2927.1631
2927.1646
2927.166
2927.1605
2927.1602
2927.16
2927.16
2927.1606
2927.1614
2927.1628
2927.1641
2927.1656
2927.1669
2927.1614
2927.1611
2927.161
2927.1612
2927.1619
2927.1628
2927.164
2927.1654
2927.167
2927.1682
2927.1622
2927.1621
2927.1623
2927.1624
2927.1631
2927.1641
2927.1654
2927.1669
2927.1685
2927.1695
2927.1636
2927.1637
2927.164
2927.1639
2927.1646
2927.1656
2927.167
2927.1685
2927.1699
2927.1707
2927.1653
2927.1651
2927.1654
2927.1654
2927.166
2927.1669
2927.1682
2927.1695
2927.1707
2927.1711
2927.3112
2927.3112
2927.3113
2927.3112
2927.3115
2927.3119
2927.3126
2927.3135
2927.3145
2927.3157
2927.3112
2927.3113
2927.3115
2927.3115
2927.3117
2927.3122
2927.313
2927.3139
2927.3148
2927.3154
2927.3113
2927.3115
2927.3114
2927.3114
2927.3117
2927.3122
2927.313
2927.3139
2927.3149
2927.3154
2927.3112
2927.3115
2927.3114
2927.3114
2927.3117
2927.3123
2927.3131
2927.3138
2927.3147
2927.3152
2927.3115
2927.3117
2927.3117
2927.3117
2927.312
2927.3126
2927.3134
2927.3141
2927.3148
2927.3151
2927.3119
2927.3122
2927.3122
2927.3123
2927.3126
2927.3131
2927.3138
2927.3145
2927.3151
2927.3153
2927.3126
2927.313
2927.313
2927.3131
2927.3134
2927.3138
2927.3144
2927.3151
2927.3156
2927.3156
2927.3135
2927.3139
2927.3139
2927.3138
2927.3141
2927.3145
2927.3151
2927.3157
2927.3161
2927.3159
2927.3145
2927.3148
2927.3149
2927.3147
2927.3148
2927.3151
2927.3156
2927.3161
2927.3163
2927.3158
2927.3157
2927.3154
2927.3154
2927.3152
2927.3151
2927.3153
2927.3156
2927.3159
2927.3158
2927.3151
2927.5343
2927.5348
2927.535
2927.5349
2927.535
2927.535
2927.5356
2927.5359
2927.536
2927.5364
2927.5348
2927.5354
2927.5355
2927.5353
2927.5353
2927.5356
2927.536
2927.5362
2927.5361
2927.5359
2927.535
2927.5355
2927.5352
2927.5351
2927.5351
2927.5353
2927.5355
2927.5357
2927.5356
2927.5352
2927.5349
2927.5353
2927.5351
2927.5349
2927.5349
2927.5349
2927.535
2927.5349
2927.5347
2927.5342
2927.535
2927.5353
2927.5351
2927.5349
2927.5346
2927.5345
2927.5345
2927.5343
2927.5339
2927.5332
2927.535
2927.5356
2927.5353
2927.5349
2927.5345
2927.5341
2927.534
2927.5336
2927.533
2927.5322
2927.5356
2927.536
2927.5355
2927.535
2927.5345
2927.534
2927.5335
2927.533
2927.5323
2927.5314
2927.5359
2927.5362
2927.5357
2927.5349
2927.5343
2927.5336
2927.533
2927.5323
2927.5315
2927.5305
2927.536
2927.5361
2927.5356
2927.5347
2927.5339
2927.533
2927.5323
2927.5315
2927.5305
2927.5295
2927.5364
2927.5359
2927.5352
2927.5342
2927.5332
2927.5322
2927.5314
2927.5305
2927.5295
2927.5283
2927.8275
2927.8282
2927.828
2927.8276
2927.8273
2927.8271
2927.8271
2927.8267
2927.8261
2927.8258
2927.8282
2927.8285
2927.8282
2927.8278
2927.8274
2927.8272
2927.827
2927.8264
2927.8256
2927.8248
2927.828
2927.8282
2927.8277
2927.8272
2927.8267
2927.8263
2927.8258
2927.8251
2927.8244
2927.8235
2927.8276
2927.8278
2927.8272
2927.8265
2927.8259
2927.8252
2927.8245
2927.8236
2927.8226
2927.8218
2927.8273
2927.8274
2927.8267
2927.8259
2927.8249
2927.824
2927.8231
2927.822
2927.8208
2927.8199
2927.8271
2927.8272
2927.8263
2927.8252
2927.824
2927.8227
2927.8216
2927.8203
2927.819
2927.8181
2927.8271
2927.827
2927.8258
2927.8245
2927.8231
2927.8216
2927.8202
2927.8186
2927.8173
2927.8164
2927.8267
2927.8264
2927.8251
2927.8236
2927.822
2927.8203
2927.8186
2927.817
2927.8158
2927.8151
2927.8261
2927.8256
2927.8244
2927.8226
2927.8208
2927.819
2927.8173
2927.8158
2927.8145
2927.8141
2927.8258
2927.8248
2927.8235
2927.8218
2927.8199
2927.8181
2927.8164
2927.8151
2927.8141
2927.8139
2928.1891
2928.1894
2928.1889
2928.1881
2928.1876
2928.1869
2928.1864
2928.1855
2928.1846
2928.1842
2928.1894
2928.1893
2928.1888
2928.188
2928.1872
2928.1865
2928.1857
2928.1847
2928.1837
2928.183
2928.1889
2928.1888
2928.188
2928.187
2928.1862
2928.1853
2928.1843
2928.1832
2928.1823
2928.1817
2928.1881
2928.188
2928.187
2928.186
2928.1849
2928.1838
2928.1827
2928.1814
2928.1803
2928.1798
2928.1876
2928.1872
2928.1862
2928.1849
2928.1836
2928.1823
2928.181
2928.1795
2928.1783
2928.1779
2928.1869
2928.1865
2928.1853
2928.1838
2928.1823
2928.1807
2928.1792
2928.1776
2928.1764
2928.1762
2928.1864
2928.1857
2928.1843
2928.1827
2928.181
2928.1792
2928.1774
2928.1758
2928.1748
2928.1747
2928.1855
2928.1847
2928.1832
2928.1814
2928.1795
2928.1776
2928.1758
2928.1743
2928.1735
2928.1738
2928.1846
2928.1837
2928.1823
2928.1803
2928.1783
2928.1764
2928.1748
2928.1735
2928.173
2928.1737
2928.1842
2928.183
2928.1817
2928.1798
2928.1779
2928.1762
2928.1747
2928.1738
2928.1737
2928.1748
2928.6188
2928.6187
2928.6181
2928.6172
2928.6165
2928.6155
2928.6147
2928.6137
2928.6129
2928.6127
2928.6187
2928.6184
2928.6178
2928.6169
2928.6159
2928.615
2928.6141
2928.613
2928.6122
2928.6119
2928.6181
2928.6178
2928.6169
2928.616
2928.6151
2928.614
2928.613
2928.6119
2928.6113
2928.6112
2928.6172
2928.6169
2928.616
2928.6151
2928.6141
2928.613
2928.6119
2928.6108
2928.6102
2928.6102
2928.6165
2928.6159
2928.6151
2928.6141
2928.613
2928.6119
2928.6109
2928.6097
2928.6091
2928.6092
2928.6155
2928.615
2928.614
2928.613
2928.6119
2928.6107
2928.6097
2928.6086
2928.6081
2928.6084
2928.6147
2928.6141
2928.613
2928.6119
2928.6109
2928.6097
2928.6086
2928.6076
2928.6073
2928.6078
2928.6137
2928.613
2928.6119
2928.6108
2928.6097
2928.6086
2928.6076
2928.6069
2928.607
2928.6077
2928.6129
2928.6122
2928.6113
2928.6102
2928.6091
2928.6081
2928.6073
2928.607
2928.6072
2928.6081
2928.6127
2928.6119
2928.6112
2928.6102
2928.6092
2928.6084
2928.6078
2928.6077
2928.6081
2928.6088
2929.1174
2929.1171
2929.1165
2929.1157
2929.1151
2929.1141
2929.1133
2929.1123
2929.1116
2929.1117
2929.1171
2929.1167
2929.1162
2929.1155
2929.1147
2929.1138
2929.1129
2929.112
2929.1114
2929.1113
2929.1165
2929.1162
2929.1156
2929.115
2929.1144
2929.1136
2929.1126
2929.1118
2929.1115
2929.1115
2929.1157
2929.1155
2929.115
2929.1147
2929.1142
2929.1135
2929.1127
2929.1119
2929.1117
2929.1118
2929.1151
2929.1147
2929.1144
2929.1142
2929.1139
2929.1133
2929.1128
2929.1121
2929.1119
2929.112
2929.1141
2929.1138
2929.1136
2929.1135
2929.1133
2929.113
2929.1126
2929.1121
2929.112
2929.1122
2929.1133
2929.1129
2929.1126
2929.1127
2929.1128
2929.1126
2929.1123
2929.1119
2929.112
2929.112
2929.1123
2929.112
2929.1118
2929.1119
2929.1121
2929.1121
2929.1119
2929.1118
2929.1118
2929.1117
2929.1116
2929.1114
2929.1115
2929.1117
2929.1119
2929.112
2929.112
2929.1118
2929.1117
2929.1113
2929.1117
2929.1113
2929.1115
2929.1118
2929.112
2929.1122
2929.112
2929.1117
2929.1113
2929.1101
2929.6854
2929.685
2929.6846
2929.6841
2929.6836
2929.6828
2929.6819
2929.6809
2929.6802
2929.6803
2929.685
2929.6846
2929.6843
2929.684
2929.6836
2929.6828
2929.6818
2929.6807
2929.6801
2929.6799
2929.6846
2929.6843
2929.6842
2929.6842
2929.684
2929.6833
2929.6823
2929.6813
2929.681
2929.681
2929.6841
2929.684
2929.6842
2929.6846
2929.6847
2929.6842
2929.6834
2929.6825
2929.6823
2929.6822
2929.6836
2929.6836
2929.684
2929.6847
2929.685
2929.6849
2929.6844
2929.6837
2929.6834
2929.6832
2929.6828
2929.6828
2929.6833
2929.6842
2929.6849
2929.685
2929.6847
2929.6841
2929.6838
2929.6835
2929.6819
2929.6818
2929.6823
2929.6834
2929.6844
2929.6847
2929.6845
2929.6838
2929.6834
2929.6827
2929.6809
2929.6807
2929.6813
2929.6825
2929.6837
2929.6841
2929.6838
2929.6831
2929.6823
2929.6813
2929.6802
2929.6801
2929.681
2929.6823
2929.6834
2929.6838
2929.6834
2929.6823
2929.681
2929.6796
2929.6803
2929.6799
2929.681
2929.6822
2929.6832
2929.6835
2929.6827
2929.6813
2929.6796
2929.6778
2930.3231
2930.3227
2930.3225
2930.3224
2930.3221
2930.3213
2930.3203
2930.3191
2930.3182
2930.3181
2930.3227
2930.3223
2930.3224
2930.3225
2930.3223
2930.3216
2930.3204
2930.319
2930.318
2930.3179
2930.3225
2930.3224
2930.3227
2930.3232
2930.3234
2930.3228
2930.3216
2930.3202
2930.3195
2930.3197
2930.3224
2930.3225
2930.3232
2930.3243
2930.3248
2930.3245
2930.3234
2930.3221
2930.3215
2930.3216
2930.3221
2930.3223
2930.3234
2930.3248
2930.3257
2930.3256
2930.3247
2930.3235
2930.3229
2930.3227
2930.3213
2930.3216
2930.3228
2930.3245
2930.3256
2930.3256
2930.3248
2930.3236
2930.3229
2930.3226
2930.3203
2930.3204
2930.3216
2930.3234
2930.3247
2930.3248
2930.324
2930.3226
2930.3217
2930.321
2930.3191
2930.319
2930.3202
2930.3221
2930.3235
2930.3236
2930.3226
2930.321
2930.3197
2930.3191
2930.3182
2930.318
2930.3195
2930.3215
2930.3229
2930.3229
2930.3217
2930.3197
2930.3181
2930.3177
2930.3181
2930.3179
2930.3197
2930.3216
2930.3227
2930.3226
2930.321
2930.3191
2930.3177
2930.3181
2931.0308
2931.0303
2931.0305
2931.0306
2931.0305
2931.0297
2931.0287
2931.0275
2931.0266
2931.0266
2931.0303
2931.0301
2931.0306
2931.031
2931.0309
2931.0302
2931.0291
2931.0278
2931.0268
2931.0269
2931.0305
2931.0306
2931.0313
2931.0321
2931.0324
2931.0319
2931.0308
2931.0295
2931.0288
2931.029
2931.0306
2931.031
2931.0321
2931.0335
2931.0342
2931.0339
2931.0329
2931.0316
2931.0309
2931.0308
2931.0305
2931.0309
2931.0324
2931.0342
2931.0352
2931.0351
2931.0342
2931.033
2931.0321
2931.0316
2931.0297
2931.0302
2931.0319
2931.0339
2931.0351
2931.035
2931.0342
2931.0329
2931.0319
2931.0313
2931.0287
2931.0291
2931.0308
2931.0329
2931.0342
2931.0342
2931.0331
2931.0318
2931.0308
2931.0302
2931.0275
2931.0278
2931.0295
2931.0316
2931.033
2931.0329
2931.0318
2931.0305
2931.0296
2931.0296
2931.0266
2931.0268
2931.0288
2931.0309
2931.0321
2931.0319
2931.0308
2931.0296
2931.0292
2931.0301
2931.0266
2931.0269
2931.029
2931.0308
2931.0316
2931.0313
2931.0302
2931.0296
2931.0301
2931.0316
2931.8083
2931.8081
2931.8084
2931.8087
2931.8086
2931.8078
2931.807
2931.8063
2931.8059
2931.8062
2931.8081
2931.8081
2931.8087
2931.8092
2931.8091
2931.8083
2931.8076
2931.8071
2931.8065
2931.8065
2931.8084
2931.8087
2931.8095
2931.8102
2931.8103
2931.8097
2931.8091
2931.8086
2931.808
2931.8078
2931.8087
2931.8092
2931.8102
2931.8112
2931.8115
2931.8112
2931.8108
2931.8101
2931.8093
2931.8085
2931.8086
2931.8091
2931.8103
2931.8115
2931.8121
2931.812
2931.8116
2931.8109
2931.8099
2931.8085
2931.8078
2931.8083
2931.8097
2931.8112
2931.812
2931.812
2931.8116
2931.811
2931.8099
2931.8085
2931.807
2931.8076
2931.8091
2931.8108
2931.8116
2931.8116
2931.8114
2931.8109
2931.8101
2931.809
2931.8063
2931.8071
2931.8086
2931.8101
2931.8109
2931.811
2931.8109
2931.8109
2931.8106
2931.81
2931.8059
2931.8065
2931.808
2931.8093
2931.8099
2931.8099
2931.8101
2931.8106
2931.8109
2931.8107
2931.8062
2931.8065
2931.8078
2931.8085
2931.8085
2931.8085
2931.809
2931.81
2931.8107
2931.8095
2932.6552
2932.6553
2932.6557
2932.6557
2932.6556
2932.655
2932.6544
2932.6543
2932.6545
2932.6546
2932.6553
2932.6556
2932.656
2932.6562
2932.6559
2932.6551
2932.6547
2932.655
2932.6547
2932.6541
2932.6557
2932.656
2932.6564
2932.6567
2932.6563
2932.6555
2932.6553
2932.6553
2932.6548
2932.6538
2932.6557
2932.6562
2932.6567
2932.6568
2932.6565
2932.6559
2932.6557
2932.6555
2932.6545
2932.6533
2932.6556
2932.6559
2932.6563
2932.6565
2932.6563
2932.6559
2932.6558
2932.6555
2932.6543
2932.653
2932.655
2932.6551
2932.6555
2932.6559
2932.6559
2932.6556
2932.6557
2932.6556
2932.6546
2932.6538
2932.6544
2932.6547
2932.6553
2932.6557
2932.6558
2932.6557
2932.656
2932.6562
2932.6556
2932.6551
2932.6543
2932.655
2932.6553
2932.6555
2932.6555
2932.6556
2932.6562
2932.6568
2932.6564
2932.6558
2932.6545
2932.6547
2932.6548
2932.6545
2932.6543
2932.6546
2932.6556
2932.6564
2932.656
2932.6547
2932.6546
2932.6541
2932.6538
2932.6533
2932.653
2932.6538
2932.6551
2932.6558
2932.6547
2932.6526
2933.5702
2933.5706
2933.5708
2933.5704
2933.5701
2933.5699
2933.5695
2933.5696
2933.5698
2933.5694
2933.5706
2933.571
2933.571
2933.5706
2933.5706
2933.57
2933.5696
2933.5699
2933.5695
2933.5684
2933.5708
2933.571
2933.5707
2933.5708
2933.5703
2933.5695
2933.5692
2933.5691
2933.5683
2933.5673
2933.5704
2933.5706
2933.5708
2933.5704
2933.5698
2933.5691
2933.5687
2933.5683
2933.5673
2933.5667
2933.5701
2933.5706
2933.5703
2933.5698
2933.5693
2933.5687
2933.5683
2933.5679
2933.5672
2933.5671
2933.5699
2933.57
2933.5695
2933.5691
2933.5687
2933.5682
2933.568
2933.5679
2933.5678
2933.5685
2933.5695
2933.5696
2933.5692
2933.5687
2933.5683
2933.568
2933.568
2933.5681
2933.5684
2933.5691
2933.5696
2933.5699
2933.5691
2933.5683
2933.5679
2933.5679
2933.5681
2933.5683
2933.5682
2933.5683
2933.5698
2933.5695
2933.5683
2933.5673
2933.5672
2933.5678
2933.5684
2933.5682
2933.5673
2933.5669
2933.5694
2933.5684
2933.5673
2933.5667
2933.5671
2933.5685
2933.5691
2933.5683
2933.5669
2933.5686
2934.5512
2934.5518
2934.5517
2934.551
2934.5504
2934.5507
2934.5503
2934.5501
2934.5498
2934.549
2934.5518
2934.5522
2934.5518
2934.5507
2934.551
2934.5508
2934.5501
2934.55
2934.5492
2934.548
2934.5517
2934.5518
2934.5507
2934.5503
2934.55
2934.5495
2934.5488
2934.5484
2934.5476
2934.5466
2934.551
2934.5507
2934.5503
2934.5495
2934.5488
2934.5483
2934.5476
2934.5471
2934.5469
2934.5463
2934.5504
2934.551
2934.55
2934.5488
2934.5481
2934.5475
2934.5468
2934.5467
2934.5471
2934.5467
2934.5507
2934.5508
2934.5495
2934.5483
2934.5475
2934.5469
2934.5463
2934.5466
2934.5475
2934.5471
2934.5503
2934.5501
2934.5488
2934.5476
2934.5468
2934.5463
2934.5459
2934.5464
2934.5474
2934.5464
2934.5501
2934.55
2934.5484
2934.5471
2934.5467
2934.5466
2934.5464
2934.5466
2934.5469
2934.5459
2934.5498
2934.5492
2934.5476
2934.5469
2934.5471
2934.5475
2934.5474
2934.5469
2934.5468
2934.5467
2934.549
2934.548
2934.5466
2934.5463
2934.5467
2934.5471
2934.5464
2934.5459
2934.5467
2934.5476
2935.5958
2935.5961
2935.5959
2935.5951
2935.5938
2935.5941
2935.5935
2935.5928
2935.5921
2935.5908
2935.5961
2935.5966
2935.5962
2935.5944
2935.5941
2935.5939
2935.593
2935.5925
2935.5915
2935.5898
2935.5959
2935.5962
2935.5946
2935.5935
2935.5925
2935.5919
2935.5911
2935.5907
2935.59
2935.5887
2935.5951
2935.5944
2935.5935
2935.5918
2935.5903
2935.5896
2935.5889
2935.5891
2935.5892
2935.5887
2935.5938
2935.5941
2935.5925
2935.5903
2935.5884
2935.5875
2935.587
2935.5877
2935.5881
2935.5876
2935.5941
2935.5939
2935.5919
2935.5896
2935.5875
2935.5865
2935.5862
2935.5871
2935.5872
2935.5861
2935.5935
2935.593
2935.5911
2935.5889
2935.587
2935.5862
2935.5862
2935.587
2935.5868
2935.5853
2935.5928
2935.5925
2935.5907
2935.5891
2935.5877
2935.5871
2935.587
2935.5877
2935.5873
2935.5866
2935.5921
2935.5915
2935.59
2935.5892
2935.5881
2935.5872
2935.5868
2935.5873
2935.5874
2935.5876
2935.5908
2935.5898
2935.5887
2935.5887
2935.5876
2935.5861
2935.5853
2935.5866
2935.5876
2935.5846
2936.7022
2936.7013
2936.7007
2936.7002
2936.6981
2936.6976
2936.6963
2936.6956
2936.6946
2936.6923
2936.7013
2936.7014
2936.7013
2936.6994
2936.6978
2936.6968
2936.6958
2936.6954
2936.6941
2936.6922
2936.7007
2936.7013
2936.7
2936.6982
2936.6957
2936.6947
2936.694
2936.6939
2936.6927
2936.6913
2936.7002
2936.6994
2936.6982
2936.6959
2936.6929
2936.6918
2936.6916
2936.6921
2936.6918
2936.691
2936.6981
2936.6978
2936.6957
2936.6929
2936.6894
2936.6881
2936.6883
2936.6891
2936.6889
2936.6884
2936.6976
2936.6968
2936.6947
2936.6918
2936.6881
2936.687
2936.6873
2936.6877
2936.6869
2936.6867
2936.6963
2936.6958
2936.694
2936.6916
2936.6883
2936.6873
2936.6879
2936.6881
2936.687
2936.6875
2936.6956
2936.6954
2936.6939
2936.6921
2936.6891
2936.6877
2936.6881
2936.6884
2936.6877
2936.6885
2936.6946
2936.6941
2936.6927
2936.6918
2936.6889
2936.6869
2936.687
2936.6877
2936.6876
2936.687
2936.6923
2936.6922
2936.6913
2936.691
2936.6884
2936.6867
2936.6875
2936.6885
2936.687
2936.6863
2937.8696
2937.8666
2937.8646
2937.8642
2937.8619
2937.86
2937.8585
2937.8579
2937.8567
2937.8536
2937.8666
2937.8648
2937.8648
2937.8636
2937.8611
2937.8598
2937.8594
2937.8588
2937.8582
2937.8574
2937.8646
2937.8648
2937.8638
2937.8617
2937.8583
2937.857
2937.8571
2937.857
2937.8568
2937.8561
2937.8642
2937.8636
2937.8617
2937.8585
2937.8546
2937.8534
2937.8537
2937.8541
2937.8545
2937.8528
2937.8619
2937.8611
2937.8583
2937.8546
2937.8506
2937.8496
2937.85
2937.8504
2937.8511
2937.8494
2937.86
2937.8598
2937.857
2937.8534
2937.8496
2937.8489
2937.8492
2937.8491
2937.85
2937.8498
2937.8585
2937.8594
2937.8571
2937.8537
2937.85
2937.8492
2937.8495
2937.8493
2937.8508
2937.8511
2937.8579
2937.8588
2937.857
2937.8541
2937.8504
2937.8491
2937.8493
2937.8493
2937.8509
2937.8491
2937.8567
2937.8582
2937.8568
2937.8545
2937.8511
2937.85
2937.8508
2937.8509
2937.8515
2937.8488
2937.8536
2937.8574
2937.8561
2937.8528
2937.8494
2937.8498
2937.8511
2937.8491
2937.8488
2937.8523
2939.1005
2939.0961
2939.0898
2939.0874
2939.0838
2939.0804
2939.0782
2939.0759
2939.075
2939.0708
2939.0961
2939.0913
2939.0885
2939.0858
2939.0836
2939.0829
2939.0823
2939.0803
2939.0809
2939.0779
2939.0898
2939.0885
2939.087
2939.0841
2939.0808
2939.0799
2939.0812
2939.0813
2939.0828
2939.0815
2939.0874
2939.0858
2939.0841
2939.0801
2939.0765
2939.0751
2939.0762
2939.0768
2939.0781
2939.0782
2939.0838
2939.0836
2939.0808
2939.0765
2939.0733
2939.0719
2939.0728
2939.0742
2939.0757
2939.0757
2939.0804
2939.0829
2939.0799
2939.0751
2939.0719
2939.0702
2939.0709
2939.0731
2939.0759
2939.0755
2939.0782
2939.0823
2939.0812
2939.0762
2939.0728
2939.0709
2939.0712
2939.0733
2939.0765
2939.0762
2939.0759
2939.0803
2939.0813
2939.0768
2939.0742
2939.0731
2939.0733
2939.0745
2939.0775
2939.0765
2939.075
2939.0809
2939.0828
2939.0781
2939.0757
2939.0759
2939.0765
2939.0775
2939.0807
2939.0782
2939.0708
2939.0779
2939.0815
2939.0782
2939.0757
2939.0755
2939.0762
2939.0765
2939.0782
2939.0793
2940.3581
2940.3643
2940.3679
2940.3673
2940.3664
2940.3664
2940.3694
2940.3718
2940.3709
2940.373
2940.3643
2940.3709
2940.3667
2940.3664
2940.3633
2940.3618
2940.3629
2940.3646
2940.3646
2940.368
2940.3679
2940.3667
2940.3653
2940.3633
2940.3622
2940.3616
2940.3617
2940.3627
2940.3611
2940.3629
2940.3673
2940.3664
2940.3633
2940.3616
2940.3607
2940.3604
2940.3615
2940.3638
2940.3626
2940.3636
2940.3664
2940.3633
2940.3622
2940.3607
2940.3597
2940.3589
2940.3597
2940.3622
2940.363
2940.3654
2940.3664
2940.3618
2940.3616
2940.3604
2940.3589
2940.3583
2940.3596
2940.3621
2940.3622
2940.3645
2940.3694
2940.3629
2940.3617
2940.3615
2940.3597
2940.3596
2940.3614
2940.3634
2940.3621
2940.3655
2940.3718
2940.3646
2940.3627
2940.3638
2940.3622
2940.3621
2940.3634
2940.3644
2940.3638
2940.3675
2940.3709
2940.3646
2940.3611
2940.3626
2940.363
2940.3622
2940.3621
2940.3638
2940.3637
2940.3688
2940.373
2940.368
2940.3629
2940.3636
2940.3654
2940.3645
2940.3655
2940.3675
2940.3688
2940.368
2941.6922
2941.6934
2941.6985
2941.7008
2941.703
2941.7033
2941.7088
2941.7119
2941.712
2941.7191
2941.6934
2941.7003
2941.7001
2941.7022
2941.7017
2941.7019
2941.7047
2941.7069
2941.708
2941.7154
2941.6985
2941.7001
2941.6994
2941.7003
2941.7027
2941.7031
2941.7037
2941.7051
2941.7058
2941.7107
2941.7008
2941.7022
2941.7003
2941.7031
2941.7057
2941.706
2941.7073
2941.7088
2941.7091
2941.7115
2941.703
2941.7017
2941.7027
2941.7057
2941.708
2941.7085
2941.7103
2941.7114
2941.712
2941.7147
2941.7033
2941.7019
2941.7031
2941.706
2941.7085
2941.7099
2941.7122
2941.713
2941.7128
2941.7159
2941.7088
2941.7047
2941.7037
2941.7073
2941.7103
2941.7122
2941.7144
2941.7148
2941.7137
2941.717
2941.7119
2941.7069
2941.7051
2941.7088
2941.7114
2941.713
2941.7148
2941.7157
2941.7155
2941.7179
2941.712
2941.708
2941.7058
2941.7091
2941.712
2941.7128
2941.7137
2941.7155
2941.7141
2941.7196
2941.7191
2941.7154
2941.7107
2941.7115
2941.7147
2941.7159
2941.717
2941.7179
2941.7196
2941.7205
2943.1073
2943.1033
2943.1012
2943.1002
2943.1025
2943.1033
2943.1041
2943.1026
2943.1058
2943.11
2943.1033
2943.097
2943.1002
2943.1012
2943.1044
2943.1076
2943.109
2943.1082
2943.1123
2943.1141
2943.1012
2943.1002
2943.1028
2943.1047
2943.1079
2943.1102
2943.1123
2943.1132
2943.1185
2943.1211
2943.1002
2943.1012
2943.1047
2943.1078
2943.1113
2943.1132
2943.1147
2943.1143
2943.1179
2943.1217
2943.1025
2943.1044
2943.1079
2943.1113
2943.1151
2943.1178
2943.1202
2943.1199
2943.1214
2943.1236
2943.1033
2943.1076
2943.1102
2943.1132
2943.1178
2943.1204
2943.1224
2943.1226
2943.1244
2943.1251
2943.1041
2943.109
2943.1123
2943.1147
2943.1202
2943.1224
2943.1232
2943.1234
2943.1259
2943.1259
2943.1026
2943.1082
2943.1132
2943.1143
2943.1199
2943.1226
2943.1234
2943.1245
2943.1275
2943.1276
2943.1058
2943.1123
2943.1185
2943.1179
2943.1214
2943.1244
2943.1259
2943.1275
2943.1298
2943.1285
2943.11
2943.1141
2943.1211
2943.1217
2943.1236
2943.1251
2943.1259
2943.1276
2943.1285
2943.1283
2944.5625
2944.5671
2944.5675
2944.5669
2944.571
2944.5743
2944.5743
2944.5754
2944.58
2944.5835
2944.5671
2944.5635
2944.5667
2944.5687
2944.5718
2944.5743
2944.575
2944.5766
2944.5801
2944.581
2944.5675
2944.5667
2944.5699
2944.5715
2944.5746
2944.5775
2944.5782
2944.5793
2944.5826
2944.5838
2944.5669
2944.5687
2944.5715
2944.5733
2944.5771
2944.5806
2944.5813
2944.5814
2944.5839
2944.5856
2944.571
2944.5718
2944.5746
2944.5771
2944.581
2944.5846
2944.5852
2944.5849
2944.5862
2944.5867
2944.5743
2944.5743
2944.5775
2944.5806
2944.5846
2944.5875
2944.5877
2944.5869
2944.5877
2944.5875
2944.5743
2944.575
2944.5782
2944.5813
2944.5852
2944.5877
2944.5875
2944.587
2944.5879
2944.5874
2944.5754
2944.5766
2944.5793
2944.5814
2944.5849
2944.5869
2944.587
2944.5869
2944.588
2944.5877
2944.58
2944.5801
2944.5826
2944.5839
2944.5862
2944.5877
2944.5879
2944.588
2944.5886
2944.5869
2944.5835
2944.581
2944.5838
2944.5856
2944.5867
2944.5875
2944.5874
2944.5877
2944.5869
2944.5847
2946.0858
2946.0859
2946.0871
2946.0898
2946.0927
2946.0935
2946.0943
2946.0965
2946.0988
2946.1009
2946.0859
2946.0878
2946.0894
2946.0915
2946.0938
2946.0951
2946.0962
2946.0978
2946.0985
2946.0983
2946.0871
2946.0894
2946.0895
2946.0917
2946.0947
2946.0964
2946.0969
2946.0977
2946.0988
2946.0987
2946.0898
2946.0915
2946.0917
2946.0944
2946.0976
2946.0993
2946.0992
2946.099
2946.0994
2946.099
2946.0927
2946.0938
2946.0947
2946.0976
2946.1003
2946.1016
2946.101
2946.1
2946.0995
2946.0983
2946.0935
2946.0951
2946.0964
2946.0993
2946.1016
2946.1023
2946.1014
2946.1001
2946.0992
2946.098
2946.0943
2946.0962
2946.0969
2946.0992
2946.101
2946.1014
2946.1005
2946.0991
2946.0982
2946.0963
2946.0965
2946.0978
2946.0977
2946.099
2946.1
2946.1001
2946.0991
2946.0978
2946.0965
2946.0952
2946.0988
2946.0985
2946.0988
2946.0994
2946.0995
2946.0992
2946.0982
2946.0965
2946.0951
2946.0934
2946.1009
2946.0983
2946.0987
2946.099
2946.0983
2946.098
2946.0963
2946.0952
2946.0934
2946.0909
2947.659
2947.6585
2947.6613
2947.6627
2947.6633
2947.6638
2947.6652
2947.6662
2947.6656
2947.6655
2947.6585
2947.6606
2947.6612
2947.6622
2947.6631
2947.6642
2947.6654
2947.6658
2947.6647
2947.6638
2947.6613
2947.6612
2947.6618
2947.6634
2947.6645
2947.6651
2947.6653
2947.6649
2947.6639
2947.663
2947.6627
2947.6622
2947.6634
2947.6654
2947.6661
2947.6661
2947.6655
2947.6642
2947.6628
2947.6615
2947.6633
2947.6631
2947.6645
2947.6661
2947.6663
2947.6657
2947.6647
2947.6628
2947.6608
2947.6594
2947.6638
2947.6642
2947.6651
2947.6661
2947.6657
2947.6648
2947.6633
2947.661
2947.659
2947.658
2947.6652
2947.6654
2947.6653
2947.6655
2947.6647
2947.6633
2947.6615
2947.6591
2947.6572
2947.6553
2947.6662
2947.6658
2947.6649
2947.6642
2947.6628
2947.661
2947.6591
2947.6569
2947.6544
2947.6535
2947.6656
2947.6647
2947.6639
2947.6628
2947.6608
2947.659
2947.6572
2947.6544
2947.6526
2947.652
2947.6655
2947.6638
2947.663
2947.6615
2947.6594
2947.658
2947.6553
2947.6535
2947.652
2947.6518
2949.2799
2949.2831
2949.2828
2949.2819
2949.282
2949.283
2949.284
2949.2838
2949.2821
2949.2812
2949.2831
2949.2831
2949.2826
2949.2823
2949.2824
2949.2829
2949.2833
2949.2824
2949.2807
2949.2798
2949.2828
2949.2826
2949.283
2949.283
2949.2827
2949.2823
2949.2818
2949.2805
2949.2792
2949.2786
2949.2819
2949.2823
2949.283
2949.2831
2949.2824
2949.2814
2949.2804
2949.2789
2949.2775
2949.2769
2949.282
2949.2824
2949.2827
2949.2824
2949.2812
2949.2799
2949.2786
2949.2768
2949.275
2949.2746
2949.283
2949.2829
2949.2823
2949.2814
2949.2799
2949.2783
2949.2765
2949.2742
2949.2726
2949.2729
2949.284
2949.2833
2949.2818
2949.2804
2949.2786
2949.2765
2949.2742
2949.2721
2949.2709
2949.2707
2949.2838
2949.2824
2949.2805
2949.2789
2949.2768
2949.2742
2949.2721
2949.2703
2949.2688
2949.2694
2949.2821
2949.2807
2949.2792
2949.2775
2949.275
2949.2726
2949.2709
2949.2688
2949.268
2949.2696
2949.2812
2949.2798
2949.2786
2949.2769
2949.2746
2949.2729
2949.2707
2949.2694
2949.2696
2949.2717
2950.9527
2950.9535
2950.9512
2950.9506
2950.9511
2950.9513
2950.951
2950.9497
2950.9481
2950.9475
2950.9535
2950.9525
2950.9514
2950.9513
2950.9514
2950.9509
2950.9498
2950.9483
2950.947
2950.9468
2950.9512
2950.9514
2950.9505
2950.9502
2950.95
2950.9491
2950.9479
2950.9467
2950.9461
2950.9465
2950.9506
2950.9513
2950.9502
2950.9499
2950.9495
2950.9484
2950.9473
2950.9461
2950.9457
2950.9458
2950.9511
2950.9514
2950.95
2950.9495
2950.9489
2950.9477
2950.9465
2950.9452
2950.9444
2950.9447
2950.9513
2950.9509
2950.9491
2950.9484
2950.9477
2950.9465
2950.945
2950.9435
2950.9429
2950.944
2950.951
2950.9498
2950.9479
2950.9473
2950.9465
2950.945
2950.9432
2950.942
2950.9423
2950.9432
2950.9497
2950.9483
2950.9467
2950.9461
2950.9452
2950.9435
2950.942
2950.9416
2950.9419
2950.9432
2950.9481
2950.947
2950.9461
2950.9457
2950.9444
2950.9429
2950.9423
2950.9419
2950.9425
2950.9442
2950.9475
2950.9468
2950.9465
2950.9458
2950.9447
2950.944
2950.9432
2950.9432
2950.9442
2950.9456
2952.669
2952.666
2952.6655
2952.666
2952.6662
2952.6654
2952.6642
2952.663
2952.6623
2952.6624
2952.666
2952.6649
2952.6646
2952.6648
2952.6647
2952.6639
2952.6628
2952.6621
2952.662
2952.6624
2952.6655
2952.6646
2952.6635
2952.6636
2952.6637
2952.663
2952.6622
2952.6618
2952.6624
2952.6632
2952.666
2952.6648
2952.6636
2952.6639
2952.6642
2952.6637
2952.6631
2952.6629
2952.6636
2952.664
2952.6662
2952.6647
2952.6637
2952.6642
2952.6646
2952.6644
2952.6641
2952.6639
2952.6641
2952.6643
2952.6654
2952.6639
2952.663
2952.6637
2952.6644
2952.6645
2952.6642
2952.6639
2952.6641
2952.6646
2952.6642
2952.6628
2952.6622
2952.6631
2952.6641
2952.6642
2952.6638
2952.6636
2952.6643
2952.6646
2952.663
2952.6621
2952.6618
2952.6629
2952.6639
2952.6639
2952.6636
2952.664
2952.6645
2952.6645
2952.6623
2952.662
2952.6624
2952.6636
2952.6641
2952.6641
2952.6643
2952.6645
2952.6647
2952.6642
2952.6624
2952.6624
2952.6632
2952.664
2952.6643
2952.6646
2952.6646
2952.6645
2952.6642
2952.6623
2954.4246
2954.4243
2954.4249
2954.4246
2954.4237
2954.4224
2954.4218
2954.4218
2954.4222
2954.4227
2954.4243
2954.4245
2954.4241
2954.4235
2954.4225
2954.4216
2954.4213
2954.4216
2954.4223
2954.4227
2954.4249
2954.4241
2954.4235
2954.4233
2954.4229
2954.4223
2954.422
2954.4223
2954.4233
2954.4239
2954.4246
2954.4235
2954.4233
2954.4238
2954.424
2954.4238
2954.4237
2954.4241
2954.4252
2954.4256
2954.4237
2954.4225
2954.4229
2954.424
2954.4248
2954.4251
2954.4254
2954.4259
2954.4267
2954.4268
2954.4224
2954.4216
2954.4223
2954.4238
2954.4251
2954.4258
2954.4264
2954.4267
2954.4272
2954.4271
2954.4218
2954.4213
2954.422
2954.4237
2954.4254
2954.4264
2954.4266
2954.4266
2954.4268
2954.4261
2954.4218
2954.4216
2954.4223
2954.4241
2954.4259
2954.4267
2954.4266
2954.4262
2954.4257
2954.4242
2954.4222
2954.4223
2954.4233
2954.4252
2954.4267
2954.4272
2954.4268
2954.4257
2954.424
2954.4216
2954.4227
2954.4227
2954.4239
2954.4256
2954.4268
2954.4271
2954.4261
2954.4242
2954.4216
2954.4186
2956.2301
2956.2315
2956.2305
2956.2287
2956.2269
2956.2256
2956.2254
2956.2257
2956.226
2956.2261
2956.2315
2956.2313
2956.2301
2956.2286
2956.2271
2956.2261
2956.2258
2956.2258
2956.2258
2956.2257
2956.2305
2956.2301
2956.2298
2956.2293
2956.2287
2956.2279
2956.2273
2956.227
2956.2272
2956.2276
2956.2287
2956.2286
2956.2293
2956.2301
2956.2302
2956.2297
2956.2292
2956.2289
2956.2294
2956.2298
2956.2269
2956.2271
2956.2287