/*--------------------------------*- C++ -*----------------------------------*\
| =========                 |                                                 |
| \\      /  F ield         | OpenFOAM: The Open Source CFD Toolbox           |
|  \\    /   O peration     | Version:  v2106                                 |
|   \\  /    A nd           | Website:  www.openfoam.com                      |
|    \\/     M anipulation  |                                                 |
\*---------------------------------------------------------------------------*/
FoamFile
{
    version     2.0;
    format      ascii;
    arch        "LSB;label=32;scalar=64";
    class       volScalarField;
    location    "20";
    object      gradTy;
}
// * * * * * * * * * * * * * * * * * * * * * * * * * * * * * * * * * * * * * //

dimensions      [0 -1 0 1 0 0 0];

internalField   nonuniform List<scalar> 
10000
(
-0.00022472741
-0.00031916068
-0.0001312527
-0.00025221774
-0.0004055673
-9.1395748e-05
-0.00021824561
-0.00032762855
-0.00013157552
-3.0058876e-05
-0.00069894949
-0.0005587373
-0.00052240384
-0.00077131077
-0.00066938244
-0.00032823814
-0.00064542749
-0.00061464056
-0.00018082741
-1.784818e-05
-0.00025300079
-0.00015258632
-0.0004655742
-0.00026146912
2.9029934e-06
-0.00023179717
-0.00026562498
2.4084557e-06
4.9678136e-05
-3.3382634e-05
8.7982698e-05
-0.00032348933
-5.8995966e-05
0.00014498789
-8.3895199e-06
-3.3993245e-05
0.00019128152
0.00031842026
0.00018545336
6.1985048e-05
-0.00025220459
-1.0971604e-05
0.00019086809
1.8700291e-05
1.1886812e-05
0.00018720451
0.00034269905
0.000428617
0.00043238148
0.00042743355
0.00039422275
0.00067520529
0.00041817768
0.00040667746
0.00061784871
0.00073748964
0.00068016018
0.0007006735
0.00076798048
0.00077232178
0.00082019176
0.00046584253
0.00053378932
0.0007000483
0.000886203
0.00094146063
0.00084938691
0.00091345564
0.0010151927
0.00099826113
0.00027585122
0.00040585633
0.00074045136
0.00072115938
0.0007346232
0.00081084178
0.00082244338
0.00097664761
0.0011017784
0.0010733873
0.00055833775
0.0010046923
0.0011551302
0.00096890119
0.00089869494
0.00096771791
0.00097034308
0.0010525233
0.0010670828
0.00095493436
0.00031808389
0.00041960057
0.00042673673
0.00036422673
0.00034442456
0.00036092814
0.00034731871
0.0003496405
0.00032839138
0.00027487476
-0.00038694537
-0.00053501933
-0.00045413348
-0.00046574608
-0.0006473436
-0.00024762505
-0.00046405294
-0.00051733197
-0.00015094003
-7.5906845e-05
-0.0010338663
-0.0011346485
-0.0012658713
-0.0012861414
-0.0011614495
-0.0007831045
-0.0011672524
-0.00085067248
-4.2451575e-05
0.00010330393
-0.00074687236
-0.00064296248
-0.00089836519
-0.00054576276
-0.00027468832
-0.00056272162
-0.00038951097
9.1166015e-05
0.00015263291
0.00011353819
-0.00014337124
-0.00043318639
-3.894948e-05
0.00019049042
1.6938771e-05
0.00016913859
0.00065406084
0.00081440325
0.00051227804
0.000372492
0.00011301307
0.0004401947
0.0006160499
0.00042323561
0.00059469804
0.00097974055
0.0012607575
0.0014281135
0.0014229438
0.0013696133
0.0011858985
0.0014608344
0.0011800955
0.0013460117
0.0018172177
0.0020120713
0.0019040739
0.0020263435
0.0021989594
0.0021637764
0.0017972654
0.0013927051
0.0017296974
0.0020465928
0.0023749622
0.0024949657
0.0023892343
0.0025955279
0.0028029853
0.0027137297
0.0012846672
0.0017543366
0.0024094682
0.0022964806
0.0022676851
0.0024586668
0.0025625706
0.0028724178
0.003029104
0.0028323518
0.002103757
0.0027658946
0.0030577333
0.0027882669
0.0026158222
0.0027297667
0.0027532552
0.0028479685
0.0027131892
0.0023182674
0.00092894459
0.0010039779
0.0010261149
0.00097791472
0.00093292438
0.00094236098
0.00090946912
0.00088285731
0.00077830092
0.00061957612
-0.00048308795
-0.00062248555
-0.00054815712
-0.00040094183
-0.00068036013
-0.00027809953
-0.00041350809
-0.00041183589
-8.4847064e-05
-0.00016842764
-0.0011066966
-0.0012043003
-0.0013920066
-0.0012431074
-0.0012313809
-0.00080535813
-0.001016528
-0.0005950248
0.00019296112
9.4641138e-05
-0.00089194592
-0.00055963031
-0.000930753
-0.00063507329
-0.00029152676
-0.00046114766
-0.00018650661
0.00025667387
0.0002885987
0.00024894558
-9.2619957e-05
-0.00029092448
6.8005674e-05
0.00034830163
0.00026514499
0.00053234802
0.0011042772
0.0012014342
0.00078029728
0.00058300853
0.0006703481
0.00085461158
0.0011080975
0.0010285371
0.0012921437
0.0016739789
0.0019685125
0.0021616847
0.0020999744
0.0019165612
0.0017826502
0.0021829283
0.0019975031
0.0022879485
0.0028366353
0.0029643173
0.0028175329
0.0029970906
0.0031475732
0.0029765632
0.0025922167
0.0023916122
0.0028025501
0.0031094339
0.0034716361
0.0035971396
0.0035044096
0.0037613197
0.0039105424
0.0036417912
0.002550269
0.0030432604
0.0037597582
0.0035183658
0.0034357781
0.0036498277
0.0037658185
0.0040559605
0.0040498498
0.0035822549
0.0036572333
0.0040223456
0.0043468991
0.0040146173
0.0037284736
0.0037694938
0.0037079461
0.0036499652
0.0032342404
0.0025056689
0.0014464117
0.0013628312
0.001380865
0.0013363958
0.0012493393
0.0012141203
0.0011353326
0.0010349528
0.00082360257
0.00054923843
-0.00037966235
-0.00041927431
-0.00036232404
-0.0002316951
-0.00054550575
-5.7304039e-05
-0.0001910631
-0.00021668419
4.3451981e-05
-0.00026718326
-0.00084295948
-0.00081695205
-0.0011730727
-0.0010700875
-0.0010277559
-0.00048515977
-0.00075893246
-0.00041660706
0.00032153415
-0.00017306979
-0.000758651
-0.00047728213
-0.0010117864
-0.00069016667
-0.00027933214
-0.00048631654
-0.00030865823
-2.6294344e-06
3.452584e-06
-0.00014178442
5.6985498e-05
-0.00021778703
0.00020230237
0.00051466711
0.00035830192
0.00055059803
0.0010672495
0.0010123228
0.00042703505
7.3771956e-05
0.0008973887
0.0011589752
0.0014823163
0.0013628253
0.0015182472
0.0017629819
0.0019718046
0.0020808957
0.0018731626
0.0015015623
0.0022434516
0.0027751154
0.0025122749
0.0027457896
0.0032212226
0.0031993468
0.0029083992
0.0029940427
0.0030103964
0.0026665938
0.0033226518
0.0030835816
0.0033912046
0.0035672687
0.0038529294
0.0038851825
0.0036476252
0.003777993
0.0037750353
0.0033069019
0.0032127712
0.0035645441
0.004293238
0.0038766548
0.0036530235
0.0037780129
0.0037550209
0.003905423
0.0036819185
0.0030260823
0.0043455736
0.0042698249
0.0045891108
0.00413067
0.0036505599
0.0035513366
0.003323111
0.0030802455
0.0024437704
0.0014976941
0.0017114805
0.0014008451
0.0013817444
0.0013040205
0.0011462357
0.001056287
0.00091703392
0.000744198
0.00047980988
0.00011348048
-0.00010650103
-0.00021685294
-0.00021175585
-9.073248e-05
-0.00043545132
9.7968817e-05
-0.00011104216
-0.00021231532
-1.2236305e-05
-0.00053423903
-0.00040694715
-0.00056482929
-0.0011124562
-0.0010489665
-0.0010446491
-0.00053229007
-0.0010340374
-0.00087325617
-0.00020674776
-0.0010718
-0.00085711514
-0.0006679343
-0.0013412522
-0.0010577361
-0.0007414535
-0.0011490725
-0.0011751559
-0.0010725095
-0.0011470486
-0.0013853799
-0.00010307383
-0.00043861715
-3.5266595e-05
0.00016118167
-0.00023628573
-0.00026032029
8.64691e-05
-0.00020099847
-0.00099697792
-0.0014770124
0.00083702437
0.0011200765
0.0013537008
0.0010287401
0.00093219893
0.00091456755
0.00090972102
0.00082963285
0.00042652587
-6.7444831e-05
0.002390349
0.0028769628
0.0024009606
0.0024432604
0.0027237155
0.0024207824
0.0018376809
0.0017188596
0.0015878331
0.0011665092
0.0035005483
0.0030351219
0.0031595822
0.0031116849
0.003218904
0.0030267504
0.0025169812
0.0024769637
0.0023928224
0.0018796252
0.0030276578
0.0031758666
0.0038549475
0.0032039737
0.0027715004
0.0027207787
0.0025216528
0.00259662
0.0022906932
0.0016830081
0.0041270868
0.0036442011
0.0039285429
0.0033313307
0.0026525289
0.002434253
0.0021001785
0.0018369146
0.0011865666
0.00033754105
0.0016932046
0.0011712019
0.0011165031
0.0010123144
0.00079648019
0.00068300068
0.00051559751
0.00034086922
0.00011047409
-0.00022514793
5.1076086e-05
-0.00017846224
-0.00021246924
-0.00010232276
-0.0005146779
2.2374497e-05
-0.00027443465
-0.00045038487
-0.00029863899
-0.00096365725
-0.00033559903
-0.00073091701
-0.0014564899
-0.0014742596
-0.0016173869
-0.0012353793
-0.0019988006
-0.0020180826
-0.0013922767
-0.0024502486
-0.0013471619
-0.0012329527
-0.0020905043
-0.0019267194
-0.0017932863
-0.0024609669
-0.0027213678
-0.0028231296
-0.0029480048
-0.0031463342
-0.00063991896
-0.001093232
-0.00080081585
-0.00079601358
-0.0014960273
-0.0017801158
-0.0016390389
-0.0021683557
-0.0031430659
-0.0036151442
0.00038120231
0.00056824831
0.00062008268
3.4000948e-05
-0.00036401931
-0.00068806253
-0.00094620773
-0.001225658
-0.0017679538
-0.0021924323
0.0020024422
0.002362807
0.0016210286
0.0014347255
0.0014780169
0.00085253728
-4.5584444e-05
-0.00033433727
-0.00048199482
-0.00076658958
0.0030033989
0.0022942598
0.0022206955
0.001932097
0.0018324557
0.0013945017
0.00064558119
0.00055876427
0.00059046985
0.00028259009
0.00220521
0.0021689037
0.0028117339
0.0019422666
0.001307707
0.0011205206
0.00087129672
0.0010654092
0.0009315973
0.00066624801
0.0034350584
0.0026651498
0.0030028924
0.0023419453
0.0015561038
0.0013751711
0.0011238517
0.0010989968
0.00072469038
0.00030958666
0.0015446517
0.00087963341
0.00083933713
0.00074741384
0.00052461826
0.00046442822
0.00033488842
0.00025917507
0.00015798884
-1.7560827e-05
7.3384606e-05
-0.00025580698
-0.00031170263
-0.00021444722
-0.00070703383
-0.00017093801
-0.00053751281
-0.00075634477
-0.00060957035
-0.0013402477
-0.00061353044
-0.0011911613
-0.0020662823
-0.0021566088
-0.0024422089
-0.0021614981
-0.0031214393
-0.0032283035
-0.0025188451
-0.0035894025
-0.0021067193
-0.0020446798
-0.0030721669
-0.0029826267
-0.0029638794
-0.0038061914
-0.0042145109
-0.0044248957
-0.0044870755
-0.0045351604
-0.0014459633
-0.00203896
-0.0018218898
-0.0019306726
-0.0028355823
-0.003268869
-0.0032230646
-0.003885543
-0.0049304133
-0.005283019
-0.00042115198
-0.00035588792
-0.00042604103
-0.0011794526
-0.0017642376
-0.0022594901
-0.0026327827
-0.0029804114
-0.0035251209
-0.0037262251
0.0011997305
0.0014540121
0.00052050012
0.00020338052
0.00013301784
-0.00066516469
-0.001715018
-0.0019997443
-0.0019772122
-0.0019903998
0.0021393764
0.0012612661
0.0010725707
0.00064256179
0.00045589687
-7.8359418e-05
-0.00087868296
-0.00079858708
-0.00047253491
-0.00047934881
0.0012031399
0.0010950536
0.0018057341
0.00082248917
9.8385412e-05
-6.9849081e-05
-0.00016380872
0.00033629888
0.00051942442
0.00066013433
0.0027950277
0.0019191736
0.0024339289
0.0018089088
0.0010364528
0.0010630949
0.0010457975
0.0013823333
0.0013696329
0.0012785602
0.001448822
0.00071814477
0.00073511711
0.00068608809
0.00050004659
0.00055201853
0.00049125491
0.00054747596
0.00058506144
0.00048676088
-7.5545291e-06
-0.00038135841
-0.00043867391
-0.00033031206
-0.00087370641
-0.00030685538
-0.00070979354
-0.00093428467
-0.00074919408
-0.0015283453
-0.0010592835
-0.0017059624
-0.0026540187
-0.0027097085
-0.0030152143
-0.0027148089
-0.0037589692
-0.0038354007
-0.0029196439
-0.0039810495
-0.0028714888
-0.0027949192
-0.0038752348
-0.0036951111
-0.0036126227
-0.0044594469
-0.0048623173
-0.0050350706
-0.004924016
-0.0048479144
-0.0022737821
-0.0029263308
-0.0026349777
-0.0026637187
-0.0035581882
-0.0039195582
-0.0037572455
-0.0043752566
-0.005396785
-0.0056769766
-0.0013215791
-0.0012863942
-0.0013266794
-0.0020507298
-0.0025825188
-0.002983259
-0.0032225815
-0.0034577201
-0.0039300214
-0.0039706768
0.00027569925
0.00052156867
-0.00046805553
-0.00072812605
-0.00066711291
-0.0013681885
-0.0023335039
-0.002458472
-0.002220691
-0.0020988761
0.0012434029
0.0003022592
0.00012281111
-0.00027336472
-0.00033288734
-0.00074782568
-0.0014231707
-0.0010796849
-0.00050738507
-0.00045583366
0.00033664887
0.00027754794
0.001175974
0.00021584924
-0.00046356524
-0.00049159078
-0.0003507524
0.00042419492
0.00074106271
0.00091679877
0.0024420255
0.0015509343
0.0022963765
0.0017380906
0.00099465649
0.0012251339
0.0013542526
0.0018489851
0.0018468564
0.0013958423
0.0014678307
0.00068867941
0.00076022697
0.00073941392
0.00057343249
0.00071231034
0.00065464256
0.00074667793
0.00077179997
0.00044600188
-0.00012618309
-0.00051307492
-0.00054402511
-0.0003866424
-0.00094450453
-0.00032534293
-0.00075966761
-0.00099178925
-0.00076962467
-0.001637628
-0.0014784058
-0.0021051686
-0.0030122155
-0.0028889848
-0.0030826209
-0.002678043
-0.0037718428
-0.003796985
-0.0026590095
-0.0037970164
-0.0034372954
-0.0032476464
-0.0042211114
-0.0037599967
-0.0034388392
-0.0041612301
-0.0044702344
-0.0045258102
-0.0042013928
-0.0040747795
-0.002893879
-0.0034945983
-0.0029642847
-0.0027123261
-0.0033960973
-0.0035119546
-0.0030854082
-0.0035478851
-0.0045321569
-0.0048709518
-0.0020827687
-0.0019908195
-0.0018718269
-0.0023920527
-0.0026714553
-0.002778917
-0.0027224287
-0.0027740933
-0.0032388021
-0.0033276023
-0.00058092806
-0.00030367269
-0.0012701498
-0.0013350679
-0.00095946066
-0.0013860412
-0.0021675534
-0.0021655218
-0.0018898497
-0.0019442365
0.00039929205
-0.0006003774
-0.00071964996
-0.00096495765
-0.00075558057
-0.00096013392
-0.0015350611
-0.0011006893
-0.00060697164
-0.00091092579
-0.00043419277
-0.00044912841
0.00067864042
-0.00018028686
-0.00076810824
-0.00069666029
-0.00049040463
0.00023142931
0.00021241587
-6.5713948e-05
0.0022125439
0.0012437855
0.0022125122
0.0016948163
0.00088944571
0.0011413074
0.0011107308
0.0013310708
0.00081358775
-0.00039513475
0.0015266019
0.0006585985
0.00076793054
0.00074300743
0.00054206733
0.00068380732
0.00050580943
0.00048117118
0.00032038963
-0.00032464375
-0.0002642834
-0.00064484861
-0.00061440251
-0.00037493803
-0.00093041177
-0.00026815305
-0.00076531101
-0.0010525521
-0.00083395069
-0.0017799358
-0.0018212725
-0.0023464511
-0.0030862171
-0.0026613693
-0.0026662092
-0.002153587
-0.0033664767
-0.0034458332
-0.0021492322
-0.0033011151
-0.0037400077
-0.0033351418
-0.0040549259
-0.0031594756
-0.0024848804
-0.0030447883
-0.0032973492
-0.0032778294
-0.0027309242
-0.0025074828
-0.0032290618
-0.0037030758
-0.0028090539
-0.0021330303
-0.0025022325
-0.0023504998
-0.0016910555
-0.0020224167
-0.0029804739
-0.0034262811
-0.0026724051
-0.0025122277
-0.0021646229
-0.0023975404
-0.0023820925
-0.0022132282
-0.001917419
-0.0018651826
-0.0024218068
-0.0026799867
-0.0014381976
-0.0011905465
-0.002138465
-0.0020030152
-0.0013272881
-0.0015383416
-0.0022593913
-0.0023129658
-0.002200338
-0.0025636262
-0.00058238689
-0.0017589855
-0.0018746329
-0.0019920267
-0.0015465498
-0.001643981
-0.0023211739
-0.0020726882
-0.0019274409
-0.002648821
-0.0013997261
-0.0015026855
-0.0001824817
-0.00093626056
-0.0014719
-0.0014406486
-0.0014128469
-0.0010469153
-0.0016406697
-0.0022332751
0.0017956962
0.00070462082
0.0019404142
0.0014749674
0.00053654984
0.00066016327
0.0002858894
8.403035e-05
-0.00090047035
-0.0021075863
0.0015284862
0.00058250108
0.00076056428
0.00073146206
0.00046335955
0.00055934216
0.00022116742
7.842194e-05
-0.00017390291
-0.00072632197
-0.00043125175
-0.00076077007
-0.00062963233
-0.000283451
-0.00083094339
-0.00013266007
-0.00069457097
-0.0010567417
-0.00086547662
-0.0017949582
-0.0020822601
-0.0023798309
-0.0028396013
-0.0020351975
-0.0018151926
-0.0011780067
-0.0025135686
-0.0027130455
-0.0012877844
-0.0022723833
-0.0037551033
-0.0030391247
-0.0034104699
-0.0019986698
-0.00090400473
-0.0012677521
-0.0015077531
-0.0014855109
-0.00070516583
-0.00038075214
-0.0032984487
-0.0036004153
-0.0022740401
-0.0010939501
-0.0011012154
-0.00072790101
4.7120923e-05
-0.00023187755
-0.0011726202
-0.0018159693
-0.0031596649
-0.0029334784
-0.0023024742
-0.0022025608
-0.0019364249
-0.0016346424
-0.001258751
-0.0011933149
-0.0018709226
-0.0023440517
-0.0023832905
-0.0021787318
-0.0030816666
-0.0027824803
-0.0019333302
-0.0021048063
-0.0029204874
-0.0031067133
-0.0031379099
-0.0036410346
-0.0017602579
-0.0031463802
-0.0032952966
-0.003364139
-0.0027992733
-0.0029228115
-0.0038011801
-0.0037378863
-0.0037655476
-0.0044006791
-0.0025889489
-0.0028453075
-0.0013631646
-0.00204272
-0.0025829057
-0.0026548917
-0.0028003281
-0.0026192591
-0.003330443
-0.0033662135
0.0012293499
0.00012202491
0.0016700121
0.001226784
8.592036e-05
7.6047113e-05
-0.00044840113
-0.00058674584
-0.0011953555
-0.0013500864
0.0015069296
0.00057744794
0.00085053028
0.00079372387
0.00042163085
0.0004783044
8.6214355e-05
5.4883306e-05
6.2367256e-05
-4.8270617e-05
-0.00056097216
-0.00079503146
-0.00055070681
-0.00010265747
-0.00065732748
7.5819022e-05
-0.00047831052
-0.00083886933
-0.00066980567
-0.0015884045
-0.0021354579
-0.0021200599
-0.0022942417
-0.0011577133
-0.00077945955
1.7805235e-05
-0.0012541195
-0.0014558254
4.9123e-05
-0.0009480349
-0.0034897528
-0.0024511918
-0.0025274061
-0.00069974493
0.00075954875
0.00065948557
0.00050780773
0.00049841024
0.0013714057
0.0014270487
-0.0031777567
-0.0033376878
-0.0016629748
-5.0732979e-05
0.00029933631
0.0009040819
0.0017571734
0.0014648081
0.00039530025
-0.00078117205
-0.0035771266
-0.0033094119
-0.0024016082
-0.0019501814
-0.0014467933
-0.0010718625
-0.00065798565
-0.00057566206
-0.0014130326
-0.0022335516
-0.0032981106
-0.003029585
-0.0037727704
-0.0032813261
-0.0023149333
-0.0024925185
-0.0033443985
-0.0035031772
-0.003493597
-0.0039622443
-0.0027879313
-0.0041599639
-0.004261562
-0.0043210391
-0.0037008358
-0.0038248388
-0.0047114945
-0.0044745395
-0.0041975583
-0.0043169311
-0.0035045602
-0.0037918029
-0.002201318
-0.002928205
-0.0035631911
-0.003683252
-0.0037123895
-0.0031693157
-0.0032790402
-0.0023696565
0.00094353504
-0.00018076747
0.0014513257
0.00074787075
-0.00079465445
-0.00091001857
-0.0012537216
-0.00075241032
-0.00045406242
-0.0001268165
0.0015754344
0.00065683564
0.00091066263
0.00069393098
0.00012634774
0.0001469184
-0.00018608383
6.7336449e-05
0.00042017187
0.00028550039
-0.00056593395
-0.0007298727
-0.00042409175
7.6802924e-05
-0.00052747138
0.00018877764
-0.00028801641
-0.00053511026
-0.00043409487
-0.0015489643
-0.0019227762
-0.001710013
-0.0017698618
-0.00049163245
-0.00018755829
0.00065328365
-0.00037653655
-0.00044781047
0.00086751078
-0.00068297274
-0.0031553003
-0.001945287
-0.0019369198
-1.0091503e-05
0.0015287126
0.0016556947
0.0016697216
0.0015084726
0.002095846
0.0015603503
-0.0030912945
-0.0032463639
-0.001508991
0.00021926849
0.00078200824
0.0016339394
0.0025745945
0.0021458317
0.00069454006
-0.001049807
-0.0039815985
-0.0038136365
-0.0028366825
-0.0021478503
-0.0014220117
-0.00091928684
-0.00039044568
-0.00026944684
-0.0012917778
-0.002268107
-0.0040347085
-0.003675526
-0.0042236867
-0.0035345171
-0.0024311005
-0.002502951
-0.0031899435
-0.003129181
-0.0029155309
-0.003192533
-0.0033136403
-0.004399472
-0.0044147343
-0.0045466942
-0.0039028419
-0.0038968541
-0.0045290718
-0.0038478801
-0.0030841751
-0.002930228
-0.003689581
-0.0039086987
-0.0024455337
-0.0034825743
-0.0043255882
-0.0043839066
-0.0040511757
-0.0029390097
-0.0025192096
-0.001592275
0.0011053099
-0.00041547102
0.00087014757
-0.00036359339
-0.0023254911
-0.0023622537
-0.0023888432
-0.0014446015
-0.0010421084
-0.0018195161
0.0016961534
0.00058128402
0.00066249773
0.00022428695
-0.00050040028
-0.00042659931
-0.00068506829
-0.00032396783
-6.7111941e-05
-0.00084223967
-0.00044811998
-0.00063043749
-0.00034397899
0.00017836319
-0.00043838031
0.00016859221
-0.0002688416
-0.00038588475
-0.0004738013
-0.0018926582
-0.0016109467
-0.0014547352
-0.0015927851
-0.0002158749
-0.00011266466
0.00051561895
-0.00036418615
-0.00041008681
0.00036310337
-0.0017366753
-0.0030856462
-0.0018724453
-0.0018467859
-1.0373441e-05
0.0012915738
0.0014755081
0.0015626543
0.0010126074
0.0011319514
0.00054432658
-0.0032690427
-0.0034106447
-0.0017889222
-0.00027228498
0.00031552961
0.0013542972
0.0023103914
0.0016239447
-8.2230111e-05
-0.0015457988
-0.0043532825
-0.0043679389
-0.0036217887
-0.0028820573
-0.0019952064
-0.0013442145
-0.0006801562
-0.00048726361
-0.0013683341
-0.0016562377
-0.0045221961
-0.004267888
-0.0047737177
-0.0039968075
-0.002778856
-0.0026817573
-0.0031383757
-0.002816618
-0.0021868941
-0.0019193682
-0.0034556643
-0.0042873797
-0.00438137
-0.0047502807
-0.0041117227
-0.0038933296
-0.0042465834
-0.0032867903
-0.0023284869
-0.0023617576
-0.0034219009
-0.0037293405
-0.0026946114
-0.0041600435
-0.0050872329
-0.0048482214
-0.0041357515
-0.002930125
-0.0029090448
-0.0027977552
0.0012453604
-0.0010147999
-8.1228385e-05
-0.0014830808
-0.0032509719
-0.0026520551
-0.002353722
-0.0017270224
-0.0022213523
-0.003302073
0.0016684491
0.00024959225
0.00026859664
-0.00014215768
-0.00070711585
-0.00033409342
-0.0005287651
-0.00035627385
-0.00045457206
-0.0010767544
-0.0002562247
-0.0004995414
-0.00029850073
0.00021194954
-0.00020824537
0.00024610855
-0.00026142394
-0.00032005092
-0.00064589487
-0.0022155179
-0.0013216672
-0.0013850811
-0.0018065389
-0.00014557247
-1.4788412e-05
0.00024423602
-0.00074700026
-0.00094688428
-0.00064982331
-0.0027941794
-0.0033596058
-0.0022923694
-0.0021200971
-0.00022666893
0.00069493234
0.00077444491
0.00077387818
-0.00017487534
-6.3942302e-05
-0.00017806064
-0.0037276153
-0.0035922323
-0.0019358648
-0.00077720282
-0.00027853966
0.0008141844
0.0017007723
0.00094527914
-0.00037065462
-0.0012298473
-0.0045089194
-0.0044576807
-0.0041191109
-0.003456567
-0.0025277237
-0.001849228
-0.0010975036
-0.00062637062
-0.00083546835
-0.00049189478
-0.0046437329
-0.0047235007
-0.0053759447
-0.0046445549
-0.0033966328
-0.0032143349
-0.0035206203
-0.0029200543
-0.0017128831
-0.0012546691
-0.003603454
-0.0044526931
-0.0047945742
-0.0054020135
-0.0046634795
-0.0041791561
-0.004369199
-0.0034343274
-0.0026284021
-0.0030953688
-0.0034094627
-0.003986169
-0.0033122858
-0.0048239896
-0.0053837126
-0.0045619544
-0.0035759757
-0.0028211574
-0.003692359
-0.0037139431
0.00090797096
-0.0019352297
-0.00093932428
-0.0019384148
-0.0031144507
-0.001803939
-0.0014490657
-0.0014649805
-0.0023418513
-0.0015163117
0.0014360885
-0.00013353459
6.5177611e-06
-0.00020961342
-0.00056627742
1.9435654e-05
-0.00026080136
-0.00029187561
-0.00027519087
0.00025848412
-4.9246749e-05
-0.00032126688
-0.00026580347
-2.2609432e-05
-5.5901036e-05
0.00022919779
-0.00040119534
-0.00041854145
-0.00086650796
-0.0025778955
-0.0010861647
-0.0014109997
-0.0026360242
-0.00088387239
-0.00050557597
-0.0006664786
-0.0018649483
-0.002087504
-0.0018091009
-0.0040960336
-0.0038623558
-0.0034143696
-0.0033352284
-0.001244992
-0.00083163038
-0.0009604063
-0.0010166306
-0.0019108528
-0.0012229781
-0.0010856552
-0.0045871215
-0.0042722679
-0.0024566732
-0.0017686699
-0.0015549371
-0.00060209348
0.00030580175
-3.3299195e-05
-0.00064621975
-0.0014832415
-0.0046777793
-0.0043000683
-0.0044603855
-0.0040154828
-0.0032938092
-0.0027980826
-0.0019162638
-0.00095315628
-0.00073507679
-0.00091212654
-0.0045707601
-0.0050887016
-0.0059301325
-0.0052737018
-0.0040693936
-0.0038961565
-0.0040411791
-0.0031764998
-0.0018989592
-0.0021856047
-0.0040573925
-0.0050290014
-0.0054784179
-0.0059794477
-0.0049096236
-0.0041345215
-0.0041899669
-0.0033590414
-0.0029047391
-0.0035651844
-0.0039437698
-0.0046417388
-0.0038879222
-0.0048480861
-0.0048399438
-0.0036668993
-0.002697724
-0.0023816715
-0.0035119871
-0.0025090885
0.00015893366
-0.0030800975
-0.0018495959
-0.0022549
-0.0032995382
-0.0022138701
-0.0023086432
-0.0024200131
-0.0024360604
-0.0015955605
0.0011169014
-0.00059448613
-0.00040772045
-0.00050293762
-0.00096573491
-0.00062097065
-0.001156832
-0.0010612675
-0.00048823292
-0.00050093443
-6.240831e-05
-0.00021274379
-4.1131371e-05
-0.0002796336
3.1325082e-06
7.116148e-05
-0.00059808529
-0.00051411124
-0.0010051626
-0.0028381613
-0.0012924763
-0.0012605609
-0.0030391906
-0.0017208301
-0.0013009791
-0.0019220883
-0.0030792418
-0.0030020459
-0.0026785767
-0.0048250996
-0.0043860606
-0.0044863953
-0.0048463299
-0.0028133051
-0.0031114809
-0.0034519875
-0.0032523011
-0.00360461
-0.0023875249
-0.001275047
-0.0058210937
-0.005754698
-0.0040828824
-0.0040198491
-0.0043748022
-0.0036370681
-0.0024080066
-0.0021061717
-0.0023042843
-0.0023881279
-0.0054931601
-0.0049669675
-0.0056944185
-0.00560565
-0.0053116373
-0.0050046409
-0.0038262166
-0.0026295668
-0.002821065
-0.0031882236
-0.0049536909
-0.0058555176
-0.0067319536
-0.0059963378
-0.0047651579
-0.004510917
-0.0043767531
-0.0035797363
-0.0029838139
-0.0035120222
-0.0049381436
-0.0058160527
-0.0060181011
-0.0059686752
-0.0044872049
-0.0035936011
-0.0035560244
-0.0028177933
-0.0025725005
-0.0025906633
-0.0048050316
-0.0054156476
-0.0044043665
-0.0045508714
-0.0043006443
-0.0035457199
-0.0029077051
-0.0025621962
-0.0031036054
-0.0014450735
-0.0010931114
-0.0045791863
-0.002916165
-0.0022496235
-0.0031981211
-0.0028082802
-0.003130407
-0.0025811503
-0.0020132846
-0.0034930984
0.00057880291
-0.0012541956
-0.00085221228
-0.00051254384
-0.00090810804
-0.00075731612
-0.001260247
-0.00076942471
-0.00015455913
-0.0017559674
-0.00059546301
-0.00026326192
0.00011266843
-0.00056121145
-0.00027131176
-0.00028801003
-0.00074587198
-0.00057886508
-0.0011746694
-0.0025859005
-0.0025096315
-0.0014474344
-0.003403481
-0.0029049248
-0.0028332391
-0.0035672325
-0.0041537611
-0.003799532
-0.0036828823
-0.0050833388
-0.0049498593
-0.0053967836
-0.0064073498
-0.0048160221
-0.0057043994
-0.0059855815
-0.0052502954
-0.0051412643
-0.0034872564
-0.0023321654
-0.0072394636
-0.0078154339
-0.0066692217
-0.0071124836
-0.0079409149
-0.0071395247
-0.0054582466
-0.0048670195
-0.0044111003
-0.0043169726
-0.0073542009
-0.0069443988
-0.0080165087
-0.0081139583
-0.0080435499
-0.0076114146
-0.0061915422
-0.0053838152
-0.005693991
-0.0052352241
-0.0063176489
-0.0070294892
-0.0076381709
-0.0065753851
-0.0051555026
-0.0047233776
-0.0044443424
-0.0041654881
-0.003793535
-0.0031301601
-0.0060148248
-0.0064511073
-0.0062471243
-0.0056067902
-0.003974619
-0.0033791908
-0.0034167296
-0.0026800237
-0.0020470801
-0.0016923884
-0.0057033292
-0.0063465253
-0.0052324504
-0.0045834865
-0.0041853043
-0.0040859353
-0.0035344969
-0.0027162859
-0.0029651483
-0.0029767476
-0.0031946691
-0.0062052221
-0.0044784758
-0.0033961232
-0.0039284291
-0.0032475322
-0.0028931011
-0.0022598968
-0.0031535628
-0.0038172279
-0.00042445025
-0.0018356813
-0.0013580879
-0.0010656206
-0.001295336
-0.00075977606
-0.0008530861
-0.00052331482
-0.00086081898
-0.0009657583
-0.0020890306
-0.0014394814
0.00013951851
-0.00065925722
-0.00051144985
-3.245846e-05
-1.4539065e-06
0.000122671
-2.2062374e-05
-0.00027820533
-0.0063808118
-0.003037988
-0.0037592242
-0.004191334
-0.0048428581
-0.0048820008
-0.0044693991
-0.0038757646
-0.0025459053
-0.0023636132
-0.006820614
-0.0056502777
-0.00797396
-0.007893876
-0.0095765504
-0.0098436985
-0.0088642972
-0.0083652798
-0.0060739059
-0.0059514025
-0.0085066934
-0.0094831458
-0.0095903274
-0.011085736
-0.012122835
-0.011056496
-0.0094761562
-0.0087670568
-0.0080760667
-0.0090940372
-0.0096825936
-0.0087423954
-0.01037326
-0.010692218
-0.01034402
-0.0095793268
-0.0083989333
-0.0076506045
-0.0072979161
-0.0061521304
-0.0083570277
-0.0075920341
-0.0079835687
-0.0068797808
-0.0053368898
-0.0049346945
-0.0049296802
-0.004676694
-0.0032827956
-0.001782185
-0.0070268113
-0.0067941171
-0.0060205751
-0.0053156984
-0.0037311361
-0.0033869762
-0.0034731357
-0.0025462369
-0.0017262564
-0.0032471553
-0.0065605903
-0.0065915028
-0.0046370965
-0.0038011115
-0.0032370069
-0.0027000945
-0.0015901224
-0.00095321494
-0.0023283003
-0.0037259859
-0.0053786656
-0.0059799801
-0.0038665142
-0.0035661027
-0.0041934948
-0.0020676285
-0.0012989857
-0.002768547
-0.0040717565
-0.00034748316
-0.0014914047
-0.0017475477
-0.0013698767
-0.0016658788
-0.0020485237
-0.00090202154
-0.0010481166
-0.0019159543
-0.001979907
0.00056689468
-0.0035394719
-0.003443023
-0.00072496567
-0.0015886804
-0.00036695652
0.0013439123
0.0020340854
0.0023510602
0.0027343682
0.0021783783
-0.013215626
-0.0089938663
-0.0061773111
-0.0061729246
-0.0057976328
-0.0041106001
-0.0011224242
0.0016040192
0.0040658593
0.0056545881
-0.013643747
-0.010862233
-0.010822805
-0.01050879
-0.012846035
-0.01373122
-0.011363809
-0.0086593124
-0.0062881508
-0.0020995789
-0.013230416
-0.012693402
-0.012850738
-0.014716633
-0.015493075
-0.015130556
-0.013877083
-0.011999969
-0.011473543
-0.01017148
-0.014315627
-0.009916738
-0.012253303
-0.013139169
-0.012667226
-0.012486375
-0.011532743
-0.0090118152
-0.0078508055
-0.0078877413
-0.011942804
-0.0083412407
-0.0072675949
-0.0068590142
-0.0056516033
-0.0057245313
-0.0060535518
-0.0050690307
-0.0029898809
-0.0025825382
-0.010544076
-0.0090333547
-0.0048294569
-0.0039614463
-0.0016988701
-0.00048688631
-0.0010433694
-0.0013467778
-0.00049176591
-0.00073497278
-0.008853398
-0.0078029739
-0.0036651143
-0.0027273159
-0.0012615744
0.00095462138
0.0018020964
0.0015062251
0.0012046903
-0.0010214914
-0.0083086236
-0.0085676463
-0.0042580545
-0.0020079131
-0.0024295661
-0.0008838391
5.6926444e-05
-0.00027203416
-0.0024707898
-0.0010013896
-0.0032526921
-0.003808682
-0.0021935396
-0.0010163009
-0.0013254977
-0.0010409245
-0.0010539359
-0.0012030626
-0.002538057
-0.00022346236
0.0020858422
0.0029532495
-0.00062675191
-0.0012655663
-0.0025444373
-0.0030718904
-0.0043160402
-0.0046988457
-0.0041979848
-0.0035864585
0.0034205561
-0.00064833495
-0.0063139408
-0.0081526001
-0.0090421719
-0.0096880616
-0.0121188
-0.0129754
-0.012371122
-0.012458802
-0.0038857961
-0.01021402
-0.011390061
-0.012657287
-0.012146342
-0.01129201
-0.010233907
-0.0091796761
-0.0080616547
-0.010329611
-0.010002323
-0.012878851
-0.012730554
-0.013635131
-0.014622491
-0.01374158
-0.011454992
-0.0092941613
-0.0061752053
-0.0065430964
-0.010539273
-0.013248759
-0.012074734
-0.011883482
-0.012181183
-0.011629515
-0.010339337
-0.0093592417
-0.0077466644
-0.0052807375
-0.0053658481
-0.0080232526
-0.008442476
-0.0061108184
-0.0052749771
-0.0042689718
-0.0032539157
-0.0034316202
-0.0041836036
-0.0016875012
-0.0016031158
-0.0040435487
-0.0048904547
-0.0019312146
-0.00044303582
0.00033905854
0.00039431593
-0.0001748358
-8.6628854e-05
-0.00027263152
-0.0050316904
-0.0048546071
-0.0052840126
-0.0026823544
-4.2261092e-06
-8.9681947e-05
-0.000933914
-0.0005706269
-0.00070557022
-0.00048137468
-0.004231598
-0.0025630172
-0.0037149992
-0.0037129517
-0.00096393435
0.00036555253
0.00078018471
0.00026775676
0.00086943672
0.00020891773
-0.0001011429
0.00051038334