/*--------------------------------*- C++ -*----------------------------------*\
| =========                 |                                                 |
| \\      /  F ield         | OpenFOAM: The Open Source CFD Toolbox           |
|  \\    /   O peration     | Version:  v2106                                 |
|   \\  /    A nd           | Website:  www.openfoam.com                      |
|    \\/     M anipulation  |                                                 |
\*---------------------------------------------------------------------------*/
FoamFile
{
    version     2.0;
    format      ascii;
    arch        "LSB;label=32;scalar=64";
    class       volScalarField;
    location    "20";
    object      gradTx;
}
// * * * * * * * * * * * * * * * * * * * * * * * * * * * * * * * * * * * * * //

dimensions      [0 -1 0 1 0 0 0];

internalField   nonuniform List<scalar> 
10000
(
-0.00022472742
-0.00069894944
-0.00025300076
8.7982641e-05
-0.00025220459
0.00039422275
0.00082019176
0.00027585119
0.0005583378
0.00031808395
-0.0003191607
-0.00055873738
-0.00015258635
-0.00032348925
-1.0971604e-05
0.00067520529
0.00046584256
0.00040585633
0.0010046923
0.00041960059
-0.00013125263
-0.00052240378
-0.00046557423
-5.8995966e-05
0.00019086804
0.00041817771
0.00053378935
0.00074045127
0.0011551302
0.00042673677
-0.00025221772
-0.00077131079
-0.00026146915
0.00014498795
1.8700348e-05
0.00040667732
0.00070004819
0.00072115944
0.00096890122
0.00036422675
-0.00040556732
-0.00066938244
2.9029936e-06
-8.3895199e-06
1.1886897e-05
0.00061784874
0.00088620285
0.00073462311
0.00089869496
0.00034442456
-9.1395729e-05
-0.00032823812
-0.00023179726
-3.3993331e-05
0.00018720456
0.00073748956
0.00094146068
0.00081084187
0.00096771777
0.00036092812
-0.00021824563
-0.00064542752
-0.00026562483
0.00019128152
0.00034269908
0.00068016021
0.00084938671
0.00082244341
0.00097034325
0.00034731877
-0.00032762855
-0.00061464056
2.4085125e-06
0.00031842035
0.00042861689
0.00070067347
0.00091345569
0.0009766477
0.0010525233
0.00034964038
-0.00013157556
-0.00018082738
4.967822e-05
0.00018545336
0.00043238148
0.0007679804
0.0010151925
0.0011017785
0.0010670829
0.00032839135
-3.0058876e-05
-1.7848123e-05
-3.3382548e-05
6.1985105e-05
0.0004274336
0.00077232161
0.00099826107
0.0010733875
0.00095493434
0.00027487473
-0.00038694539
-0.0010338663
-0.0007468723
-0.0001433713
0.00011301302
0.0011858984
0.0017972655
0.0012846672
0.002103757
0.00092894466
-0.00053501935
-0.0011346484
-0.00064296242
-0.00043318647
0.00044019455
0.0014608344
0.0013927051
0.0017543366
0.0027658947
0.0010039778
-0.0004541335
-0.0012658712
-0.00089836519
-3.8949509e-05
0.00061604987
0.0011800956
0.0017296975
0.002409468
0.0030577334
0.001026115
-0.0004657461
-0.0012861413
-0.0005457627
0.0001904904
0.00042323569
0.0013460118
0.0020465927
0.0022964805
0.0027882668
0.0009779147
-0.0006473436
-0.0011614495
-0.00027468838
1.6938742e-05
0.00059469804
0.0018172176
0.0023749622
0.0022676852
0.0026158221
0.00093292431
-0.00024762501
-0.00078310444
-0.00056272179
0.00016913853
0.00097974063
0.0020120713
0.0024949657
0.0024586667
0.0027297666
0.00094236104
-0.000464053
-0.0011672525
-0.00038951103
0.00065406093
0.0012607576
0.0019040738
0.0023892343
0.0025625707
0.0027532551
0.00090946903
-0.00051733188
-0.00085067245
9.116593e-05
0.00081440328
0.0014281135
0.0020263434
0.0025955279
0.0028724177
0.0028479685
0.00088285731
-0.0001509401
-4.2451546e-05
0.00015263302
0.00051227792
0.0014229438
0.0021989593
0.0028029852
0.003029104
0.0027131891
0.00077830091
-7.5906807e-05
0.0001033039
0.00011353828
0.00037249217
0.0013696132
0.0021637764
0.0027137297
0.0028323517
0.0023182673
0.0006195761
-0.00048308796
-0.0011066965
-0.00089194589
-9.2620041e-05
0.00067034807
0.0017826502
0.0025922168
0.0025502689
0.0036572332
0.0014464117
-0.00062248557
-0.0012043003
-0.00055963031
-0.00029092456
0.00085461153
0.0021829283
0.0023916122
0.0030432605
0.0040223456
0.0013628312
-0.0005481571
-0.0013920066
-0.00093075303
6.8005704e-05
0.0011080974
0.0019975031
0.0028025501
0.0037597581
0.0043468991
0.0013808651
-0.00040094183
-0.0012431074
-0.00063507329
0.00034830168
0.0010285372
0.0022879484
0.0031094337
0.0035183658
0.0040146173
0.0013363958
-0.00068036011
-0.0012313809
-0.00029152693
0.00026514502
0.0012921438
0.0028366352
0.0034716363
0.0034357782
0.0037284734
0.0012493392
-0.00027809951
-0.00080535804
-0.00046114778
0.00053234794
0.001673979
0.0029643172
0.0035971395
0.0036498277
0.0037694938
0.0012141203
-0.00041350808
-0.0010165281
-0.00018650667
0.0011042773
0.0019685125
0.0028175328
0.0035044095
0.0037658185
0.0037079461
0.0011353326
-0.00041183589
-0.00059502472
0.00025667393
0.001201434
0.0021616847
0.0029970907
0.0037613196
0.0040559604
0.0036499653
0.0010349528
-8.4847102e-05
0.00019296118
0.00028859873
0.00078029717
0.0020999744
0.0031475732
0.0039105423
0.0040498498
0.0032342405
0.00082360261
-0.00016842766
9.4641137e-05
0.00024894558
0.00058300856
0.0019165613
0.0029765631
0.003641791
0.0035822548
0.0025056689
0.00054923847
-0.00037966235
-0.00084295954
-0.00075865094
5.6985529e-05
0.00089738859
0.0022434515
0.0033226519
0.0032127714
0.0043455735
0.0017114804
-0.00041927431
-0.00081695208
-0.00047728213
-0.00021778703
0.0011589752
0.0027751155
0.0030835816
0.003564544
0.0042698249
0.0014008451
-0.00036232406
-0.0011730727
-0.0010117864
0.00020230234
0.0014823163
0.0025122749
0.0033912046
0.004293238
0.0045891107
0.0013817444
-0.00023169506
-0.0010700875
-0.00069016667
0.00051466722
0.0013628253
0.0027457894
0.0035672687
0.0038766548
0.0041306699
0.0013040205
-0.00054550575
-0.0010277559
-0.00027933228
0.00035830189
0.0015182473
0.0032212225
0.0038529294
0.0036530235
0.0036505599
0.0011462357
-5.7304059e-05
-0.00048515986
-0.00048631657
0.00055059806
0.0017629819
0.0031993468
0.0038851825
0.0037780128
0.0035513365
0.0010562869
-0.00019106322
-0.00075893254
-0.00030865809
0.0010672496
0.0019718045
0.0029083991
0.0036476252
0.0037550208
0.003323111
0.00091703396
-0.0002166842
-0.00041660704
-2.6294054e-06
0.0010123229
0.0020808957
0.0029940427
0.003777993
0.0039054229
0.0030802454
0.00074419796
4.3452018e-05
0.00032153423
3.4525846e-06
0.00042703502
0.0018731627
0.0030103965
0.0037750353
0.0036819183
0.0024437703
0.00047980988
-0.0002671833
-0.00017306985
-0.00014178437
7.3771985e-05
0.0015015623
0.0026665938
0.0033069019
0.0030260823
0.0014976941
0.00011348048
-0.00010650105
-0.00040694718
-0.00085711508
-0.00010307377
0.00083702446
0.002390349
0.0035005482
0.0030276578
0.0041270866
0.0016932046
-0.00021685296
-0.00056482941
-0.00066793439
-0.00043861698
0.0011200764
0.0028769627
0.003035122
0.0031758665
0.0036442011
0.0011712019
-0.00021175581
-0.0011124563
-0.0013412523
-3.5266649e-05
0.0013537009
0.0024009606
0.0031595822
0.0038549474
0.0039285428
0.0011165031
-9.0732403e-05
-0.0010489665
-0.0010577362
0.0001611817
0.00102874
0.0024432603
0.003111685
0.0032039738
0.0033313307
0.0010123144
-0.00043545136
-0.001044649
-0.00074145345
-0.00023628579
0.0009321989
0.0027237155
0.003218904
0.0027715004
0.0026525289
0.00079648017
9.7968989e-05
-0.00053229002
-0.0011490725
-0.00026032018
0.0009145675
0.0024207824
0.0030267503
0.0027207787
0.002434253
0.0006830006
-0.00011104218
-0.0010340375
-0.0011751559
8.6469187e-05
0.00090972094
0.0018376808
0.0025169811
0.0025216527
0.0021001785
0.00051559753
-0.00021231527
-0.00087325608
-0.0010725095
-0.00020099835
0.00082963291
0.0017188595
0.0024769637
0.0025966199
0.0018369145
0.00034086916
-1.2236285e-05
-0.0002067477
-0.0011470487
-0.00099697795
0.00042652587
0.0015878332
0.0023928225
0.0022906931
0.0011865666
0.00011047414
-0.00053423906
-0.0010718
-0.0013853799
-0.0014770123
-6.7444746e-05
0.0011665092
0.0018796253
0.0016830079
0.00033754091
-0.00022514788
5.1076087e-05
-0.00033559914
-0.001347162
-0.0006399188
0.00038120242
0.0020024421
0.0030033989
0.0022052101
0.0034350583
0.0015446517
-0.00017846224
-0.00073091712
-0.0012329527
-0.0010932318
0.00056824831
0.002362807
0.0022942599
0.0021689036
0.0026651497
0.00087963345
-0.00021246923
-0.00145649
-0.0020905046
-0.00080081582
0.00062008274
0.0016210285
0.0022206956
0.002811734
0.0030028924
0.0008393371
-0.00010232278
-0.0014742595
-0.0019267194
-0.00079601378
3.4000863e-05
0.0014347255
0.0019320971
0.0019422666
0.0023419452
0.00074741382
-0.0005146779
-0.0016173869
-0.0017932862
-0.0014960272
-0.00036401946
0.0014780168
0.0018324557
0.001307707
0.0015561039
0.00052461822
2.2374556e-05
-0.0012353791
-0.0024609668
-0.0017801158
-0.00068806261
0.00085253711
0.0013945016
0.0011205205
0.0013751709
0.00046442818
-0.00027443474
-0.0019988006
-0.0027213677
-0.0016390389
-0.00094620771
-4.5584502e-05
0.00064558111
0.00087129661
0.0011238515
0.00033488838
-0.00045038483
-0.0020180826
-0.0028231296
-0.0021683555
-0.001225658
-0.00033433741
0.00055876424
0.0010654091
0.0010989967
0.00025917501
-0.00029863893
-0.0013922767
-0.0029480048
-0.0031430658
-0.0017679538
-0.00048199476
0.00059046971
0.00093159718
0.00072469041
0.00015798886
-0.00096365721
-0.0024502485
-0.0031463341
-0.0036151442
-0.0021924322
-0.00076658952
0.00028258998
0.00066624782
0.00030958657
-1.7560808e-05
7.3384587e-05
-0.00061353046
-0.0021067193
-0.0014459632
-0.00042115184
0.0011997305
0.0021393762
0.0012031399
0.0027950278
0.001448822
-0.000255807
-0.0011911613
-0.0020446797
-0.00203896
-0.00035588803
0.001454012
0.0012612661
0.0010950536
0.0019191735
0.00071814469
-0.00031170265
-0.0020662823
-0.0030721668
-0.0018218898
-0.00042604114
0.00052050007
0.0010725708
0.0018057341
0.0024339288
0.00073511709
-0.00021444733
-0.0021566089
-0.0029826266
-0.0019306725
-0.0011794528
0.00020338049
0.00064256182
0.000822489
0.0018089087
0.00068608807
-0.00070703383
-0.0024422089
-0.0029638794
-0.0028355823
-0.0017642375
0.00013301775
0.00045589675
9.8385414e-05
0.0010364528
0.00050004661
-0.00017093796
-0.002161498
-0.0038061913
-0.0032688691
-0.0022594902
-0.0006651646
-7.8359533e-05
-6.9849251e-05
0.001063095
0.00055201859
-0.00053751281
-0.0031214393
-0.0042145109
-0.0032230645
-0.0026327828
-0.001715018
-0.00087868287
-0.00016380881
0.0010457973
0.00049125485
-0.00075634485
-0.0032283036
-0.0044248955
-0.0038855429
-0.0029804114
-0.0019997444
-0.0007985872
0.00033629879
0.0013823332
0.00054747598
-0.00060957035
-0.0025188451
-0.0044870753
-0.0049304132
-0.003525121
-0.0019772122
-0.00047253491
0.00051942433
0.0013696328
0.00058506146
-0.0013402476
-0.0035894024
-0.0045351603
-0.005283019
-0.0037262253
-0.0019903997
-0.00047934875
0.00066013413
0.0012785601
0.0004867609
-7.5546049e-06
-0.0010592834
-0.0028714887
-0.0022737821
-0.0013215791
0.00027569922
0.0012434029
0.0003366487
0.0024420254
0.0014678307
-0.00038135848
-0.0017059625
-0.0027949192
-0.0029263308
-0.0012863941
0.00052156853
0.00030225894
0.00027754788
0.0015509344
0.00068867949
-0.00043867389
-0.0026540187
-0.0038752348
-0.0026349776
-0.0013266795
-0.00046805565
0.00012281103
0.001175974
0.0022963766
0.00076022699
-0.00033031207
-0.0027097085
-0.003695111
-0.0026637187
-0.0020507299
-0.00072812605
-0.00027336475
0.00021584918
0.0017380906
0.00073941389
-0.00087370641
-0.0030152143
-0.0036126227
-0.0035581882
-0.0025825189
-0.00066711294
-0.00033288742
-0.00046356539
0.00099465666
0.00057343258
-0.00030685546
-0.0027148088
-0.0044594467
-0.0039195581
-0.0029832591
-0.0013681887
-0.00074782579
-0.00049159078
0.0012251338
0.0007123103
-0.00070979346
-0.0037589691
-0.0048623174
-0.0037572456
-0.0032225814
-0.0023335039
-0.0014231709
-0.00035075257
0.0013542525
0.00065464256
-0.00093428457
-0.0038354006
-0.0050350706
-0.0043752565
-0.0034577201
-0.0024584721
-0.001079685
0.00042419484
0.0018489851
0.00074667791
-0.00074919408
-0.002919644
-0.0049240161
-0.0053967848
-0.0039300214
-0.002220691
-0.00050738515
0.00074106253
0.0018468564
0.00077179993
-0.0015283454
-0.0039810496
-0.0048479143
-0.0056769765
-0.0039706768
-0.0020988759
-0.00045583377
0.00091679866
0.0013958423
0.00044600184
-0.00012618314
-0.0014784057
-0.0034372952
-0.0028938792
-0.0020827687
-0.000580928
0.00039929196
-0.00043419291
0.0022125437
0.0015266019
-0.00051307497
-0.0021051687
-0.0032476465
-0.0034945983
-0.0019908195
-0.00030367263
-0.00060037752
-0.00044912849
0.0012437855
0.00065859852
-0.00054402502
-0.0030122153
-0.0042211114
-0.0029642846
-0.0018718268
-0.0012701499
-0.00071965007
0.00067864039
0.0022125123
0.00076793058
-0.00038664234
-0.0028889847
-0.0037599967
-0.0027123261
-0.0023920528
-0.0013350678
-0.00096495768
-0.00018028697
0.0016948163
0.00074300741
-0.00094450451
-0.003082621
-0.0034388392
-0.0033960973
-0.0026714554
-0.00095946072
-0.00075558057
-0.00076810835
0.00088944557
0.00054206733
-0.00032534288
-0.0026780429
-0.0041612299
-0.0035119545
-0.0027789171
-0.0013860412
-0.00096013395
-0.00069666029
0.0011413073
0.00068380729
-0.0007596676
-0.0037718427
-0.0044702343
-0.0030854082
-0.0027224287
-0.0021675534
-0.0015350612
-0.00049040472
0.0011107309
0.00050580945
-0.00099178918
-0.0037969849
-0.0045258102
-0.0035478851
-0.0027740934
-0.0021655218
-0.0011006893
0.00023142917
0.0013310708
0.00048117118
-0.00076962469
-0.0026590095
-0.0042013928
-0.0045321568
-0.0032388021
-0.0018898498
-0.00060697164
0.00021241578
0.0008135876
0.00032038957
-0.0016376281
-0.0037970165
-0.0040747794
-0.0048709516
-0.0033276023
-0.0019442367
-0.00091092585
-6.571392e-05
-0.0003951348
-0.00032464381
-0.0002642834
-0.0018212724
-0.0037400076
-0.0032290618
-0.0026724052
-0.0014381976
-0.00058238698
-0.0013997262
0.0017956961
0.0015284862
-0.00064484861
-0.0023464511
-0.0033351418
-0.0037030757
-0.0025122277
-0.0011905465
-0.0017589855
-0.0015026857
0.00070462065
0.0005825011
-0.00061440247
-0.003086217
-0.0040549258
-0.0028090539
-0.0021646229
-0.0021384651
-0.0018746331
-0.00018248176
0.0019404142
0.00076056424
-0.00037493801
-0.0026613693
-0.0031594756
-0.0021330301
-0.0023975404
-0.0020030153
-0.0019920267
-0.00093626074
0.0014749673
0.00073146204
-0.00093041177
-0.0026662092
-0.0024848804
-0.0025022325
-0.0023820925
-0.001327288
-0.00154655
-0.0014719002
0.00053654978
0.00046335949
-0.00026815307
-0.002153587
-0.0030447882
-0.0023504998
-0.0022132282
-0.0015383417
-0.0016439811
-0.0014406485
0.00066016316
0.00055934209
-0.00076531105
-0.0033664766
-0.0032973491
-0.0016910556
-0.0019174188
-0.0022593912
-0.0023211742
-0.001412847
0.00028588937
0.00022116736
-0.0010525522
-0.0034458331
-0.0032778293
-0.0020224167
-0.0018651826
-0.0023129658
-0.0020726883
-0.0010469155
8.4030347e-05
7.8421997e-05
-0.00083395063
-0.0021492322
-0.0027309242
-0.0029804739
-0.0024218068
-0.0022003381
-0.0019274409
-0.0016406697
-0.00090047047
-0.00017390292
-0.0017799358
-0.0033011151
-0.0025074827
-0.003426281
-0.0026799867
-0.0025636263
-0.0026488212
-0.0022332752
-0.0021075863
-0.00072632199
-0.00043125178
-0.00208226
-0.0037551033
-0.0032984488
-0.0031596649
-0.0023832905
-0.001760258
-0.002588949
0.0012293498
0.0015069296
-0.00076077011
-0.0023798308
-0.0030391247
-0.0036004154
-0.0029334785
-0.0021787319
-0.0031463804
-0.0028453075
0.00012202497
0.00057744794
-0.00062963229
-0.0028396011
-0.0034104699
-0.0022740401
-0.0023024741
-0.0030816666
-0.0032952968
-0.0013631647
0.001670012
0.00085053023
-0.00028345105
-0.0020351974
-0.0019986697
-0.0010939502
-0.0022025608
-0.0027824803
-0.0033641391
-0.0020427202
0.0012267837
0.00079372374
-0.00083094339
-0.0018151925
-0.00090400465
-0.0011012154
-0.001936425
-0.0019333303
-0.0027992733
-0.0025829059
8.5920213e-05
0.00042163085
-0.00013266007
-0.0011780068
-0.0012677521
-0.0007279009
-0.0016346424
-0.0021048064
-0.0029228117
-0.0026548918
7.604694e-05
0.00047830432
-0.00069457089
-0.0025135687
-0.0015077532
4.7121006e-05
-0.001258751
-0.0029204875
-0.0038011802
-0.0028003283
-0.00044840115
8.6214341e-05
-0.0010567416
-0.0027130455
-0.0014855109
-0.00023187758
-0.0011933149
-0.0031067132
-0.0037378864
-0.0026192594
-0.0005867459
5.4883327e-05
-0.00086547663
-0.0012877843
-0.00070516572
-0.0011726202
-0.0018709226
-0.0031379099
-0.0037655477
-0.0033304431
-0.0011953555
6.2367293e-05
-0.0017949583
-0.0022723833
-0.00038075183
-0.0018159693
-0.0023440518
-0.0036410347
-0.0044006794
-0.0033662137
-0.0013500864
-4.8270579e-05
-0.00056097216
-0.0021354578
-0.0034897527
-0.0031777569
-0.0035771266
-0.0032981106
-0.0027879314
-0.0035045604
0.00094353501
0.0015754345
-0.00079503146
-0.0021200598
-0.0024511917
-0.0033376879
-0.0033094119
-0.0030295851
-0.0041599639
-0.0037918031
-0.00018076767
0.00065683569
-0.00055070681
-0.0022942416
-0.0025274061
-0.0016629747
-0.0024016082
-0.0037727705
-0.0042615621
-0.0022013179
0.0014513255
0.00091066253
-0.00010265747
-0.0011577131
-0.00069974488
-5.0733012e-05
-0.0019501814
-0.0032813262
-0.0043210393
-0.0029282052
0.00074787081
0.00069393104
-0.00065732756
-0.00077945967
0.00075954878
0.00029933636
-0.0014467933
-0.0023149334
-0.0037008359
-0.0035631911
-0.00079465456
0.00012634767
7.5818984e-05
1.7805206e-05
0.00065948563
0.00090408187
-0.0010718625
-0.0024925185
-0.0038248388
-0.0036832521
-0.00091001874
0.00014691836
-0.0004783105
-0.0012541194
0.00050780773
0.0017571734
-0.00065798568
-0.0033443986
-0.0047114946
-0.0037123896
-0.0012537216
-0.00018608388
-0.00083886939
-0.0014558255
0.0004984104
0.0014648081
-0.00057566223
-0.0035031772
-0.0044745395
-0.0031693159
-0.00075241038
6.7336506e-05
-0.00066980563
4.9122801e-05
0.0013714056
0.00039530027
-0.0014130327
-0.003493597
-0.0041975583
-0.0032790403
-0.00045406248
0.00042017192
-0.0015884044
-0.00094803484
0.0014270486
-0.00078117206
-0.0022335516
-0.0039622443
-0.0043169312
-0.0023696568
-0.00012681656
0.00028550045
-0.00056593385
-0.0019227761
-0.0031553004
-0.0030912945
-0.0039815986
-0.0040347086
-0.0033136403
-0.0036895811
0.0011053098
0.0016961534
-0.0007298726
-0.0017100128
-0.0019452869
-0.003246364
-0.0038136366
-0.0036755261
-0.0043994721
-0.0039086988
-0.00041547119
0.00058128399
-0.00042409177
-0.0017698618
-0.0019369198
-0.001508991
-0.0028366825
-0.0042236868
-0.0044147344
-0.0024455338
0.00087014758
0.00066249773
7.6802905e-05
-0.00049163233
-1.009142e-05
0.0002192684
-0.0021478503
-0.0035345171
-0.0045466942
-0.0034825744
-0.00036359353
0.00022428687
-0.00052747134
-0.00018755821
0.0015287126
0.00078200821
-0.0014220116
-0.0024311005
-0.0039028421
-0.0043255883
-0.0023254912
-0.00050040031
0.00018877755
0.00065328359
0.0016556948
0.0016339393
-0.00091928687
-0.0025029511
-0.0038968542
-0.0043839065
-0.0023622537
-0.0004265993
-0.00028801639
-0.00037653649
0.0016697215
0.0025745944
-0.00039044554
-0.0031899436
-0.004529072
-0.0040511757
-0.0023888432
-0.00068506836
-0.00053511028
-0.00044781038
0.0015084726
0.0021458316
-0.00026944684
-0.003129181
-0.0038478802
-0.0029390098
-0.0014446015
-0.00032396787
-0.00043409486
0.00086751079
0.0020958459
0.00069453998
-0.0012917778
-0.0029155311
-0.0030841752
-0.0025192096
-0.0010421084
-6.7111938e-05
-0.0015489642
-0.00068297271
0.0015603503
-0.001049807
-0.0022681072
-0.0031925331
-0.0029302279
-0.0015922751
-0.0018195162
-0.00084223967
-0.0004481199
-0.0016109466
-0.0030856463
-0.0032690427
-0.0043532825
-0.0045221962
-0.0034556644
-0.003421901
0.0012453602
0.0016684491
-0.00063043742
-0.0014547352
-0.0018724453
-0.0034106447
-0.0043679389
-0.0042678881
-0.0042873799
-0.0037293406
-0.0010148001
0.00024959218
-0.00034397891
-0.001592785
-0.0018467859
-0.0017889223
-0.0036217886
-0.0047737177
-0.0043813702
-0.0026946115
-8.1228334e-05
0.00026859666
0.00017836319
-0.00021587488
-1.0373386e-05
-0.00027228495
-0.0028820574
-0.0039968075
-0.0047502806
-0.0041600435
-0.0014830809
-0.00014215769
-0.00043838027
-0.00011266451
0.0012915738
0.00031552957
-0.0019952064
-0.0027788559
-0.0041117227
-0.005087233
-0.0032509719
-0.00070711581
0.00016859224
0.00051561898
0.0014755083
0.0013542973
-0.0013442146
-0.0026817574
-0.0038933297
-0.0048482214
-0.002652055
-0.00033409346
-0.00026884157
-0.00036418612
0.0015626543
0.0023103913
-0.00068015615
-0.0031383756
-0.0042465835
-0.0041357515
-0.002353722
-0.00052876519
-0.00038588466
-0.00041008664
0.0010126072
0.0016239446
-0.00048726341
-0.0028166181
-0.0032867904
-0.0029301249
-0.0017270223
-0.00035627393
-0.00047380132
0.00036310334
0.0011319513
-8.2230175e-05
-0.0013683341
-0.0021868943
-0.0023284871
-0.0029090448
-0.0022213522
-0.0004545721
-0.0018926582
-0.0017366754
0.00054432642
-0.0015457989
-0.0016562377
-0.0019193682
-0.0023617577
-0.0027977552
-0.0033020729
-0.0010767544
-0.00025622476
-0.0013216672
-0.0033596057
-0.0037276152
-0.0045089194
-0.0046437329
-0.003603454
-0.0034094628
0.00090797073
0.0014360884
-0.00049954146
-0.0013850812
-0.0022923693
-0.0035922322
-0.0044576809
-0.0047235008
-0.0044526932
-0.0039861692
-0.0019352297
-0.00013353459
-0.00029850073
-0.0018065389
-0.0021200971
-0.0019358647
-0.0041191109
-0.0053759448
-0.0047945743
-0.0033122859
-0.00093932439
6.5176854e-06
0.00021194948
-0.00014557247
-0.00022666884
-0.00077720279
-0.003456567
-0.004644555
-0.0054020135
-0.0048239897
-0.001938415
-0.00020961348
-0.00020824543
-1.4788441e-05
0.00069493242
-0.0002785396
-0.0025277237
-0.0033966328
-0.0046634796
-0.0053837128
-0.0031144508
-0.00056627743
0.00024610858
0.00024423608
0.00077444494
0.00081418435
-0.0018492281
-0.0032143348
-0.0041791561
-0.0045619544
-0.0018039392
1.9435566e-05
-0.00026142398
-0.00074700023
0.00077387824
0.0017007722
-0.0010975037
-0.0035206203
-0.004369199
-0.0035759755
-0.0014490656
-0.00026080147
-0.00032005084
-0.00094688417
-0.00017487545
0.00094527906
-0.00062637062
-0.0029200543
-0.0034343275
-0.0028211575
-0.0014649805
-0.00029187559
-0.00064589485
-0.00064982333
-6.3942392e-05
-0.00037065462
-0.0008354684
-0.0017128833
-0.0026284021
-0.0036923589
-0.0023418513
-0.00027519085
-0.0022155179
-0.0027941794
-0.00017806064
-0.0012298474
-0.00049189478
-0.0012546693
-0.003095369
-0.0037139432
-0.0015163117
0.00025848414
-4.9246787e-05
-0.0010861647
-0.0038623557
-0.0045871215
-0.0046777793
-0.0045707602
-0.0040573925
-0.0039437698
0.00015893358
0.0011169014
-0.00032126692
-0.0014109998
-0.0034143696
-0.0042722679
-0.0043000685
-0.0050887016
-0.0050290014
-0.0046417388
-0.0030800975
-0.00059448619
-0.00026580348
-0.0026360243
-0.0033352284
-0.0024566733
-0.0044603856
-0.0059301325
-0.0054784179
-0.0038879224
-0.001849596
-0.00040772043
-2.2609451e-05
-0.00088387239
-0.001244992
-0.0017686699
-0.0040154828
-0.0052737019
-0.0059794479
-0.0048480863
-0.0022548999
-0.00050293755
-5.5901027e-05
-0.00050557597
-0.00083163042
-0.0015549372
-0.0032938092
-0.0040693936
-0.0049096236
-0.0048399439
-0.0032995383
-0.00096573494
0.00022919784
-0.00066647862
-0.0009604064
-0.00060209354
-0.0027980826
-0.0038961566
-0.0041345216
-0.0036668992
-0.0022138702
-0.00062097072
-0.00040119534
-0.0018649483
-0.0010166307
0.00030580168
-0.0019162638
-0.0040411791
-0.0041899669
-0.002697724
-0.0023086432
-0.001156832
-0.00041854145
-0.002087504
-0.0019108528
-3.3299335e-05
-0.00095315642
-0.0031764999
-0.0033590415
-0.0023816714
-0.0024200132
-0.0010612676
-0.00086650798
-0.0018091008
-0.001222978
-0.00064621992
-0.00073507698
-0.0018989593
-0.0029047392
-0.0035119871
-0.0024360603
-0.0004882329
-0.0025778955
-0.0040960336
-0.0010856553
-0.0014832416
-0.00091212652
-0.0021856049
-0.0035651845
-0.0025090886
-0.0015955606
-0.0005009344
-6.240831e-05
-0.0012924762
-0.0043860605
-0.005821094
-0.0054931603
-0.0049536909
-0.0049381437
-0.0048050317
-0.0010931113
0.00057880295
-0.00021274379
-0.0012605608
-0.0044863953
-0.0057546982
-0.0049669677
-0.0058555176
-0.0058160528
-0.0054156477
-0.0045791864
-0.0012541957
-4.1131371e-05
-0.0030391905
-0.0048463297
-0.0040828824
-0.0056944185
-0.0067319536
-0.0060181013
-0.0044043666
-0.0029161651
-0.00085221235
-0.0002796336
-0.0017208301
-0.0028133051
-0.0040198492
-0.00560565
-0.0059963378
-0.0059686753
-0.0045508715
-0.0022496234
-0.00051254377
3.1324737e-06
-0.0013009792
-0.0031114809
-0.0043748022
-0.0053116375
-0.004765158
-0.0044872048
-0.0043006443
-0.0031981213
-0.00090810812
7.1161484e-05
-0.0019220884
-0.0034519875
-0.003637068
-0.0050046409
-0.0045109171
-0.0035936012
-0.0035457199
-0.0028082803
-0.00075731619
-0.00059808531
-0.0030792418
-0.0032523011
-0.0024080066
-0.0038262167
-0.0043767532
-0.0035560242
-0.002907705
-0.0031304071
-0.001260247
-0.00051411122
-0.0030020458
-0.00360461
-0.0021061719
-0.0026295669
-0.0035797365
-0.0028177933
-0.002562196
-0.0025811503
-0.00076942471
-0.0010051627
-0.0026785767
-0.0023875249
-0.0023042844
-0.0028210652
-0.002983814
-0.0025725005
-0.0031036053
-0.0020132844
-0.00015455903
-0.0028381612
-0.0048250995
-0.0012750472
-0.002388128
-0.0031882236
-0.0035120224
-0.0025906634
-0.0014450736
-0.0034930984
-0.0017559673
-0.00059546301
-0.0025096315
-0.0049498593
-0.0072394637
-0.0073542011
-0.006317649
-0.0060148248
-0.0057033294
-0.003194669
-0.00042445015
-0.00026326192
-0.0014474343
-0.0053967836
-0.007815434
-0.0069443989
-0.0070294893
-0.0064511074
-0.0063465255
-0.0062052222
-0.0018356813
0.00011266837
-0.003403481
-0.0064073497
-0.0066692217
-0.0080165087
-0.007638171
-0.0062471243
-0.0052324506
-0.0044784759
-0.0013580878
-0.00056121147
-0.0029049248
-0.0048160221
-0.0071124836
-0.0081139584
-0.0065753853
-0.0056067902
-0.0045834865
-0.0033961233
-0.0010656206
-0.0002713118
-0.0028332391
-0.0057043994
-0.0079409149
-0.0080435499
-0.0051555027
-0.0039746191
-0.0041853043
-0.003928429
-0.001295336
-0.00028801007
-0.0035672326
-0.0059855816
-0.0071395248
-0.0076114147
-0.0047233776
-0.0033791908
-0.0040859354
-0.0032475322
-0.00075977603
-0.00074587198
-0.0041537611
-0.0052502954
-0.0054582466
-0.0061915423
-0.0044443425
-0.0034167296
-0.0035344969
-0.002893101
-0.00085308606
-0.00057886509
-0.0037995321
-0.0051412645
-0.0048670195
-0.0053838153
-0.0041654882
-0.0026800238
-0.0027162859
-0.0022598968
-0.00052331488
-0.0011746694
-0.0036828823
-0.0034872566
-0.0044111006
-0.0056939911
-0.0037935351
-0.0020470803
-0.0029651484
-0.0031535627
-0.00086081892
-0.0025859004
-0.0050833387
-0.0023321656
-0.0043169728
-0.0052352242
-0.0031301601
-0.0016923884
-0.0029767477
-0.0038172279
-0.00096575824
-0.0020890307
-0.0063808118
-0.0068206139
-0.0085066934
-0.0096825936
-0.0083570279
-0.0070268114
-0.0065605903
-0.0053786655
-0.0014914047
-0.0014394814
-0.0030379881
-0.0056502777
-0.009483146
-0.0087423954
-0.007592034
-0.0067941172
-0.006591503
-0.00597998
-0.0017475477
0.00013951851
-0.0037592242
-0.0079739599
-0.0095903273
-0.01037326
-0.0079835689
-0.0060205752
-0.0046370965
-0.0038665142
-0.0013698767
-0.00065925724
-0.004191334
-0.007893876
-0.011085736
-0.010692218
-0.0068797809
-0.0053156986
-0.0038011116
-0.0035661027
-0.0016658788
-0.00051144976
-0.0048428582
-0.0095765504
-0.012122835
-0.01034402
-0.0053368899
-0.0037311364
-0.003237007
-0.0041934946
-0.0020485237
-3.2458441e-05
-0.0048820007
-0.0098436985
-0.011056496
-0.0095793268
-0.0049346945
-0.0033869762
-0.0027000944
-0.0020676286
-0.00090202161
-1.4539599e-06
-0.0044693991
-0.0088642972
-0.0094761563
-0.0083989334
-0.0049296802
-0.0034731359
-0.0015901224
-0.0012989856
-0.0010481166
0.00012267102
-0.0038757646
-0.0083652798
-0.0087670568
-0.0076506047
-0.0046766941
-0.0025462369
-0.00095321504
-0.002768547
-0.0019159542
-2.2062311e-05
-0.0025459053
-0.0060739059
-0.0080760668
-0.0072979163
-0.0032827957
-0.0017262564
-0.0023283003
-0.0040717565
-0.001979907
-0.00027820532
-0.0023636132
-0.0059514025
-0.0090940373
-0.0061521304
-0.0017821851
-0.0032471555
-0.0037259858
-0.00034748311
0.00056689466
-0.003539472
-0.013215626
-0.013643747
-0.013230416
-0.014315627
-0.011942804
-0.010544077
-0.0088533982
-0.0083086235
-0.0032526921
-0.0034430231
-0.0089938665
-0.010862233
-0.012693402
-0.0099167382
-0.0083412407
-0.0090333547
-0.0078029741
-0.0085676465
-0.003808682
-0.00072496564
-0.0061773112
-0.010822805
-0.012850738
-0.012253303
-0.007267595
-0.0048294572
-0.0036651147
-0.0042580546
-0.0021935396
-0.0015886804
-0.0061729245
-0.01050879
-0.014716633
-0.013139169
-0.0068590142
-0.0039614465
-0.0027273162
-0.002007913
-0.0010163008
-0.00036695655
-0.0057976329
-0.012846035
-0.015493075
-0.012667226
-0.0056516034
-0.0016988701
-0.0012615745
-0.002429566
-0.0013254977
0.0013439123
-0.0041106004
-0.013731221
-0.015130556
-0.012486375
-0.0057245313
-0.0004868864
0.00095462139
-0.00088383914
-0.0010409246
0.0020340854
-0.0011224243
-0.011363809
-0.013877083
-0.011532743
-0.0060535519
-0.0010433695
0.0018020964
5.6926524e-05
-0.0010539359
0.0023510602
0.0016040191
-0.0086593123
-0.011999969
-0.0090118153
-0.0050690307
-0.0013467778
0.0015062249
-0.00027203416
-0.0012030625
0.0027343682
0.0040658594
-0.0062881507
-0.011473543
-0.0078508059
-0.002989881
-0.00049176577
0.0012046903
-0.0024707899
-0.002538057
0.0021783783
0.0056545881
-0.002099579
-0.01017148
-0.0078877413
-0.0025825382
-0.00073497291
-0.0010214914
-0.0010013896
-0.00022346235
0.0020858421
0.003420556
-0.0038857961
-0.010002323
-0.010539273
-0.0053658483
-0.001603116
-0.0050316905
-0.004231598
-0.00010114292
0.0029532495
-0.00064833515
-0.01021402
-0.012878851
-0.013248759
-0.0080232526
-0.004043549
-0.0048546074
-0.0025630173
0.00051038329
-0.00062675188
-0.0063139409
-0.011390061
-0.012730554
-0.012074735
-0.0084424762
-0.0048904549
-0.0052840126
-0.0037149992
-0.00015959602
-0.0012655663
-0.0081526003
-0.012657287
-0.013635131
-0.011883482
-0.0061108184
-0.0019312148
-0.0026823547
-0.0037129517
-0.0010015873
-0.0025444373
-0.0090421719
-0.012146342
-0.014622491
-0.012181183
-0.0052749772
-0.00044303579
-4.2262513e-06
-0.00096393438
-0.00040485677
-0.0030718904
-0.0096880616
-0.01129201
-0.01374158
-0.011629515
-0.004268972
0.00033905843
-8.9682089e-05
0.00036555244
0.00064236393
-0.0043160403
-0.0121188
-0.010233907
-0.011454992
-0.010339337
-0.0032539157
0.00039431589
-0.00093391415
0.0007801846
0.0012592115
-0.0046988457
-0.0129754
-0.0091796762
-0.0092941613
-0.0093592418
-0.0034316203
-0.00017483592
-0.00057062687
0.00026775672
0.00051836215
-0.0041979848
-0.012371122
-0.0080616547
-0.0061752054
-0.0077466644
-0.0041836036
-8.6629058e-05
-0.00070557036
0.00086943681
0.0014086752