/*--------------------------------*- C++ -*----------------------------------*\
| =========                 |                                                 |
| \\      /  F ield         | OpenFOAM: The Open Source CFD Toolbox           |
|  \\    /   O peration     | Version:  v2106                                 |
|   \\  /    A nd           | Website:  www.openfoam.com                      |
|    \\/     M anipulation  |                                                 |
\*---------------------------------------------------------------------------*/
FoamFile
{
    version     2.0;
    format      ascii;
    arch        "LSB;label=32;scalar=64";
    class       volScalarField;
    location    "20";
    object      laplacianT;
}
// * * * * * * * * * * * * * * * * * * * * * * * * * * * * * * * * * * * * * //

dimensions      [0 -2 0 1 0 0 0];

internalField   nonuniform List<scalar> 
10000
(
35.56412
36.767179
39.586122
36.782337
36.586199
40.977286
36.713707
37.001348
39.541599
38.024148
36.767178
40.636562
38.614844
38.285243
42.008178
39.899993
38.011515
41.033693
40.811874
37.997241
39.586123
38.614843
40.383031
41.345241
40.22466
40.639009
40.343443
41.274393
40.427932
37.926337
36.782337
38.285242
41.345242
38.676297
39.076082
40.769804
39.584174
40.157973
40.36895
38.812539
36.586199
42.008178
40.22466
39.076083
40.62756
41.72979
39.696626
40.060836
40.581071
39.086509
40.977286
39.899993
40.639009
40.769805
41.729791
42.224586
40.282428
40.60191
40.780465
38.955939
36.713707
38.011516
40.343444
39.584172
39.696627
40.282426
39.243029
39.884521
40.068402
38.533551
37.001348
41.033693
41.274393
40.157972
40.060835
40.601912
39.88452
40.088388
39.736689
38.126069
39.541599
40.811875
40.427932
40.36895
40.581071
40.780465
40.068402
39.736691
38.966333
37.427555
38.024148
37.997241
37.926337
38.812539
39.086509
38.955938
38.533552
38.126068
37.427554
36.408956
111.3092
112.47798
113.11269
114.01641
112.40304
116.68801
111.64003
113.26671
115.75631
111.54824
112.47798
116.09591
115.07723
115.96089
118.27646
115.87925
114.8605
118.36597
116.41217
112.0729
113.11269
115.07723
116.47362
118.07787
115.90901
117.29235
116.88441
117.26638
114.64771
110.58324
114.01641
115.96089
118.07786
116.17955
116.48948
118.68969
116.66088
117.24385
116.60619
112.6255
112.40304
118.27646
115.90901
116.48948
117.57853
118.43543
115.33637
115.90449
115.95682
112.13917
116.68801
115.87925
117.29235
118.68969
118.43543
118.7285
116.08619
116.33598
115.6135
111.53578
111.64003
114.8605
116.88441
116.66088
115.33637
116.08619
114.85969
115.23724
114.23251
110.56378
113.26672
118.36597
117.26638
117.24385
115.90449
116.33598
115.23724
114.72116
112.90379
109.27681
115.75631
116.41217
114.64771
116.60619
115.95682
115.6135
114.23251
112.90379
110.62841
107.67375
111.54825
112.0729
110.58325
112.6255
112.13917
111.53578
110.56378
109.27681
107.67375
105.96516
184.64098
186.95589
186.31253
189.3464
186.04092
189.75301
185.9641
187.51974
188.04171
181.33053
186.95589
191.66287
189.52016
189.50209
192.25005
189.78599
188.57956
191.28113
188.14617
183.2677
186.31253
189.52016
189.73793
191.83149
189.71801
190.62837
189.89576
189.75619
185.60623
180.62312
189.3464
189.50209
191.83149
190.41694
190.51541
191.7196
189.18785
189.79512
187.95291
182.65425
186.04092
192.25005
189.71801
190.51541
191.04929
190.84417
187.11864
187.59829
186.46732
181.57717
189.75301
189.78599
190.62837
191.7196
190.84417
190.63194
187.54577
187.40695
185.35766
180.55008
185.9641
188.57956
189.89576
189.18785
187.11863
187.54577
185.80185
185.4502
183.08349
178.88413
187.51974
191.28113
189.75618
189.79512
187.59829
187.40694
185.4502
183.95416
180.78826
177.11215
188.04171
188.14617
185.60623
187.95291
186.46732
185.35766
183.0835
180.78826
177.47334
175.17307
181.33053
183.2677
180.62312
182.65425
181.57717
180.55008
178.88413
177.11215
175.17307
174.96809
256.41023
258.53164
257.52235
260.09352
256.403
261.0532
256.3048
257.09182
257.79848
249.30436
258.53164
260.95853
258.55236
258.62043
261.58868
258.53617
256.40364
258.49369
255.7862
251.78988
257.52235
258.55236
259.70567
261.87335
258.87834
259.4819
258.31682
257.62444
252.8704
248.63869
260.09352
258.62043
261.87335
259.82373
259.18283
260.10642
257.02296
257.47459
255.23618
250.74316
256.403
261.58868
258.87834
259.18283
259.24479
258.82322
254.34345
254.62254
253.23804
249.68659
261.0532
258.53617
259.4819
260.10642
258.82322
258.60773
254.75682
254.18915
251.85101
248.65283
256.3048
256.40365
258.31682
257.02296
254.34345
254.75683
252.37873
251.68129
249.20177
246.94452
257.09182
258.49369
257.62444
257.47459
254.62254
254.18915
251.68129
249.97405
246.71174
245.56207
257.79848
255.7862
252.8704
255.23618
253.23804
251.85101
249.20176
246.71174
244.00045
244.18725
249.30436
251.78988
248.63869
250.74316
249.68659
248.65283
246.94452
245.56207
244.18725
247.55169
327.16591
326.63271
325.71487
328.63633
324.66232
329.63797
323.67969
324.19084
325.84608
316.90457
326.63271
327.30899
325.28969
325.5001
328.55866
324.77177
322.20397
324.53191
322.68432
320.64805
325.71487
325.28969
327.25985
329.43335
325.95605
326.42276
325.07815
324.537
319.96465
317.58896
328.63633
325.5001
329.43335
327.01818
326.33538
327.24764
323.90749
324.95759
323.23657
320.53388
324.66232
328.55866
325.95605
326.33538
326.69925
326.31892
321.44343
322.33015
321.69926
320.37674
329.63797
324.77177
326.42276
327.24764
326.31892
326.42743
322.37873
322.42069
321.03477
320.05864
323.67969
322.20397
325.07815
323.90749
321.44343
322.37873
320.24958
320.48747
319.1115
319.31168
324.19084
324.53191
324.537
324.95759
322.33015
322.42069
320.48747
319.8212
317.52214
318.92605
325.84608
322.68432
319.96465
323.23657
321.69926
321.03477
319.1115
317.52214
316.56824
318.88198
316.90457
320.64805
317.58896
320.53389
320.37674
320.05864
319.31168
318.92605
318.88198
324.22891
395.73678
393.51148
393.04889
396.63849
392.23162
397.51975
390.88217
391.76943
394.50639
385.63775
393.51148
393.89519
392.18503
392.74176
396.13778
391.99288
389.418
392.56615
391.88571
391.56371
393.04889
392.18503
394.94052
397.61029
394.11666
394.86954
393.78386
394.00374
390.03393
388.84964
396.63849
392.74176
397.61029
395.47354
395.24435
396.55366
393.45121
395.73727
394.9839
393.15918
392.23162
396.13778
394.11666
395.24435
396.45838
396.60436
391.94704
394.18914
394.89702
394.51736
397.51975
391.99288
394.86954
396.55366
396.60436
397.64495
394.16289
395.7099
395.91586
395.19678
390.88217
389.418
393.78386
393.45121
391.94704
394.16289
393.17453
395.25047
395.34538
395.7518
391.76943
392.56615
394.00374
395.73727
394.18914
395.7099
395.25047
396.29573
395.25271
396.15169
394.50639
391.88571
390.03393
394.9839
394.89703
395.91586
395.34538
395.25271
395.88009
396.82315
385.63775
391.56371
388.84964
393.15918
394.51736
395.19678
395.7518
396.15169
396.82315
399.01722
464.38537
461.20053
461.3553
465.62207
460.85387
466.7486
459.75732
461.17671
464.86855
455.57169
461.20053
461.79574
460.4043
461.45813
465.49585
461.42822
459.06768
463.00809
463.19856
463.21263
461.3553
460.4043
464.15469
467.50787
464.2101
465.5337
464.87789
465.80999
462.03258
460.47437
465.62207
461.45813
467.50787
465.75934
466.11737
468.04417
465.32326
468.75957
468.4808
465.85674
460.85387
465.49585
464.2101
466.11737
468.27334
469.11213
464.75868
468.23171
469.75632
468.33672
466.7486
461.42822
465.5337
468.04417
469.11213
471.1533
468.2231
471.07137
472.15778
469.19569
459.75732
459.06768
464.87789
465.32326
464.75868
468.2231
468.22797
471.70057
472.10189
470.14421
461.17671
463.00809
465.80999
468.75957
468.23171
471.07137
471.70057
473.58324
472.52292
470.0371
464.86855
463.19856
462.03258
468.4808
469.75632
472.15778
472.10189
472.52292
473.00118
469.34624
455.57169
463.21263
460.47437
465.85674
468.33672
469.1957
470.14421
470.03709
469.34624
466.18217
533.10352
529.81847
530.33492
535.18936
530.15426
536.82835
529.52166
531.30088
535.61902
525.07442
529.81847
530.76974
529.53684
530.96608
535.60555
531.60336
529.29442
533.62869
533.98733
533.44133
530.33492
529.53684
534.12832
537.89505
534.59177
536.33915
535.88829
537.04489
532.57052
529.99193
535.18936
530.96608
537.89505
536.0996
536.69566
538.96326
536.25127
540.15414
539.29976
535.53651
530.15426
535.60555
534.59177
536.69566
539.26983
540.29592
535.59886
539.38747
540.59426
538.023
536.82835
531.60336
536.33915
538.96326
540.29592
542.49986
539.14837
542.16511
542.84042
537.72388
529.52166
529.29442
535.88829
536.25127
535.59886
539.14837
538.89094
542.3754
541.51892
537.84808
531.30088
533.62869
537.04488
540.15414
539.38746
542.16511
542.3754
543.39311
540.73974
536.12274
535.61901
533.98733
532.57052
539.29976
540.59425
542.84042
541.51891
540.73974
539.45077
533.23108
525.07442
533.44133
529.99193
535.53651
538.023
537.72388
537.84808
536.12274
533.23108
530.79648
602.07855
599.0383
599.63802
604.9484
599.5418
606.85686
599.05178
600.95498
605.59297
593.50397
599.0383
600.51329
599.17973
600.70858
605.66284
601.49543
599.08441
603.64019
603.79939
603.15353
599.63802
599.17973
604.24153
608.00446
604.32516
606.24917
605.89348
607.06763
601.46367
598.52935
604.9484
600.70858
608.00446
605.59684
605.93402
608.22358
605.3193
609.29112
607.32271
603.45181
599.5418
605.66284
604.32516
605.93402
608.28833
609.0092
603.51677
607.01197
607.37697
605.16327
606.85686
601.49543
606.24917
608.22358
609.0092
610.59385
606.09651
608.58516
608.43727
603.31852
599.05178
599.08441
605.89348
605.31931
603.51677
606.09651
604.72351
607.59099
605.30205
603.02388
600.95498
603.64019
607.06764
609.29112
607.01197
608.58516
607.59099
607.33643
603.47318
600.98462
605.59297
603.79939
601.46367
607.32271
607.37697
608.43727
605.30205
603.47318
601.69851
598.86077
593.50397
603.15353
598.52935
603.4518
605.16327
603.31852
603.02388
600.98462
598.86077
604.0343
671.13248
668.64019
669.25811
674.88452
668.93309
676.76473
668.49596
670.67285
675.86818
662.79492
668.64019
671.03152
669.4078
670.79075
675.88371
671.62759
669.5097
674.9414
675.67991
675.43192
669.25811
669.4078
674.62038
678.02397
673.74107
675.93627
676.23338
678.25805
672.30778
669.01403
674.88452
670.79075
678.02397
674.51872
674.27117
676.73445
674.36162
679.25966
676.80785
672.67905
668.9331
675.88371
673.74107
674.27117
676.07223
676.75994
671.2741
675.33844
675.46106
673.56712
676.76473
671.62759
675.93627
676.73445
676.75994
678.08937
673.35057
676.35782
676.19812
671.31218
668.49596
669.5097
676.23338
674.36162
671.27411
673.35057
672.03092
675.75436
673.35792
672.97454
670.67285
674.9414
678.25805
679.25966
675.33844
676.35782
675.75436
676.33594
673.45734
673.72849
675.86818
675.67991
672.30778
676.80785
675.46106
676.19812
673.35792
673.45734
674.5937
675.64929
662.79492
675.43192
669.01403
672.67905
673.56712
671.31218
672.97454
673.72849
675.64929
682.86746
739.99273
738.83266
739.33824
745.08451
738.47873
746.95166
738.64171
741.57636
747.97019
734.34826
738.83266
742.54688
740.25333
741.15207
746.2866
742.22796
740.90149
747.98744
750.50326
749.41129
739.33824
740.25333
745.11265
747.71143
742.64245
745.22517
746.68201
750.58564
745.24577
739.85185
745.08451
741.15207
747.71143
742.53042
741.31833
744.03505
742.97602
749.93904
747.59288
741.47091
738.47873
746.2866
742.64245
741.31833
742.12668
743.15416
738.79623
744.6443
744.89899
741.80179
746.95166
742.22796
745.22517
744.03505
743.15416
745.02481
741.52758
746.44061
746.67848
740.4285
738.64171
740.90149
746.68201
742.97602
738.79623
741.52758
742.0916
748.31337
746.3976
745.39511
741.57636
747.98744
750.58564
749.93904
744.6443
746.44061
748.31337
751.61539
750.40122
748.95819
747.97019
750.50326
745.24576
747.59288
744.89899
746.67848
746.3976
750.40122
754.63075
751.68897
734.34826
749.4113
739.85185
741.47091
741.80179
740.4285
745.39511
748.95819
751.68897
748.7223
809.01664
809.46657
809.4586
815.01448
807.64755
816.93266
809.00337
812.73891
820.21952
805.32852
809.46657
814.11515
810.58072
810.61081
815.73675
812.13751
811.30274
819.22361
823.20315
819.98255
809.4586
810.58072
814.5081
815.99851
810.26286
813.14882
814.97724
819.95732
814.71517
807.08529
815.01448
810.61081
815.99851
809.03762
806.83081
809.37805
808.85488
817.065
814.2674
807.35565
807.64755
815.73675
810.26286
806.83082
806.36462
807.40018
803.57201
810.35797
810.29942
808.34305
816.93266
812.13751
813.14882
809.37805
807.40018
809.74611
806.98282
812.82865
813.08337
808.15396
809.00337
811.30274
814.97724
808.85488
803.57201
806.98282
808.75358
816.14792
813.96368
814.2102
812.73891
819.22361
819.95732
817.065
810.35797
812.82865
816.14792
820.18849
818.62641
815.60253
820.21952
823.20314
814.71517
814.2674
810.29942
813.08337
813.96368
818.62641
821.23167
812.54421
805.32852
819.98255
807.08529
807.35566
808.34305
808.15396
814.2102
815.60253
812.54421
805.74056
878.02218
879.14654
878.32871
883.63004
875.58153
885.70592
878.34647
882.10761
889.1553
872.31066
879.14655
883.80736
879.05164
878.40634
883.79293
881.33493
880.36129
886.60871
890.32327
887.0806
878.32871
879.05164
882.24359
883.07783
877.84629
881.6829
882.51464
886.14308
880.19746
873.9798
883.63004
878.40634
883.07783
875.74606
874.03073
876.7079
875.19
882.45625
879.44158
876.14598
875.58153
883.79293
877.84629
874.03073
873.61174
874.77841
869.87273
875.58692
876.28931
879.79749
885.70592
881.33493
881.6829
876.7079
874.77841
877.54425
873.5909
878.23262
879.86309
879.97923
878.34647
880.36129
882.51464
875.19
869.87273
873.5909
874.0832
880.0519
878.51936
883.73186
882.10761
886.60871
886.14307
882.45625
875.58692
878.23262
880.0519
881.52164
879.3954
880.18617
889.1553
890.32327
880.19746
879.44158
876.28931
879.86309
878.51936
879.3954
879.05857
874.78188
872.31066
887.0806
873.9798
876.14598
879.79749
879.97923
883.73186
880.18617
874.78188
883.72807
945.9153
946.40178
945.11076
950.72356
942.46422
952.95699
946.17563
949.21649
954.31726
936.9214
946.40178
950.66696
945.62475
945.06536
950.27859
949.63079
948.79273
951.70649
954.9177
954.80105
945.11076
945.62475
949.00465
949.14309
945.279
951.0677
950.82864
952.21354
946.94437
943.47073
950.72356
945.06536
949.14309
942.62958
942.563
946.23326
943.79672
950.03932
949.0737
947.82131
942.46422
950.27859
945.279
942.563
943.25634
945.22681
939.37615
944.41544
948.26243
951.98113
952.95699
949.63079
951.0677
946.23326
945.22681
948.82116
943.66377
947.61252
952.41397
949.19669
946.17563
948.79273
950.82864
943.79672
939.37615
943.66377
942.7653
947.91774
948.38272
949.87063
949.2165
951.70649
952.21354
950.03932
944.41544
947.61252
947.91774
947.84596
947.44168
946.67185
954.31726
954.9177
946.94437
949.0737
948.26243
952.41397
948.38272
947.44168
950.31268
950.08999
936.9214
954.80105
943.47073
947.82131
951.98113
949.19669
949.87063
946.67185
950.08999
959.75244
1011.8764
1010.8543
1009.4408
1015.8711
1008.0831
1017.2401
1010.6627
1013.2368
1016.6627
1000.5845
1010.8543
1014.0553
1009.4041
1010.076
1012.318
1012.3447
1012.4267
1012.9288
1017.2992
1019.5261
1009.4408
1009.4041
1014.4646
1011.9583
1007.9865
1014.7712
1014.5267
1015.5006
1012.0209
1008.5586
1015.8711
1010.076
1011.9583
1005.5894
1005.4076
1009.136
1007.3389
1014.6475
1015.1377
1012.0481
1008.0831
1012.318
1007.9865
1005.4076
1005.2585
1007.2003
1002.2215
1008.3963
1012.6439
1012.7177
1017.2401
1012.3447
1014.7712
1009.136
1007.2003
1010.9914
1006.7252
1011.4676
1014.5528
1005.1904
1010.6627
1012.4267
1014.5267
1007.3389
1002.2215
1006.7252
1006.9076
1012.8623
1009.7496
1006.4542
1013.2368
1012.9288
1015.5006
1014.6475
1008.3963
1011.4676
1012.8623
1013.9103
1011.7573
1009.0962
1016.6627
1017.2992
1012.0209
1015.1377
1012.6439
1014.5528
1009.7496
1011.7573
1018.2051
1016.3719
1000.5845
1019.5261
1008.5586
1012.0481
1012.7177
1005.1904
1006.4542
1009.0962
1016.3719
1003.1279
1075.591
1072.3854
1070.5299
1077.3423
1071.6789
1077.2
1070.5439
1073.6037
1076.4722
1060.947
1072.3854
1073.228
1068.7892
1074.8812
1071.8461
1070.6344
1072.0925
1071.9125
1077.1082
1081.3965
1070.5299
1068.7892
1080.4131
1075.3749
1070.1826
1075.8678
1076.526
1078.3304
1074.112
1073.1456
1077.3423
1074.8812
1075.3749
1070.1023
1068.4607
1070.5706
1070.4744
1078.5629
1075.9773
1075.7424
1071.6789
1071.8461
1070.1826
1068.4607
1066.5427
1067.4319
1064.3053
1069.9994
1069.5676
1075.4541
1077.2
1070.6344
1075.8678
1070.5706
1067.4319
1071.0232
1068.6489
1071.7666
1068.6642
1068.6955
1070.5439
1072.0925
1076.526
1070.4744
1064.3053
1068.6489
1070.6469
1074.6131
1064.9579
1075.0242
1073.6037
1071.9125
1078.3304
1078.5629
1069.9994
1071.7666
1074.6131
1074.2651
1068.449
1077.7765
1076.4722
1077.1082
1074.112
1075.9773
1069.5676
1068.6642
1064.9579
1068.449
1073.0467
1072.4516
1060.947
1081.3965
1073.1456
1075.7424
1075.4541
1068.6955
1075.0242
1077.7765
1072.4516
1072.3201
1136.375
1132.341
1130.6277
1135.3772
1133.9176
1134.7614
1129.1041
1132.8488
1134.9664
1120.6765
1132.341
1132.2233
1123.4765
1135.9424
1129.6428
1127.4615
1130.7353
1129.8391
1134.5373
1143.6063
1130.6277
1123.4765
1139.2401
1133.3038
1129.3523
1133.9081
1135.8704
1136.8321
1132.6805
1134.147
1135.3773
1135.9424
1133.3038
1130.1831
1130.0264
1131.1475
1132.1414
1137.4941
1134.0421
1130.3196
1133.9176
1129.6428
1129.3523
1130.0264
1130.6982
1131.5908
1128.8181
1130.4126
1130.8115
1132.8927
1134.7614
1127.4615
1133.9081
1131.1475
1131.5908
1135.8125
1133.0024
1131.7086
1132.8249
1132.4647
1129.104
1130.7353
1135.8704
1132.1414
1128.8181
1133.0024
1133.4223
1133.0696
1130.2616
1139.856
1132.8488
1129.8391
1136.8321
1137.4941
1130.4126
1131.7086
1133.0696
1128.9031
1130.7996
1132.797
1134.9664
1134.5373
1132.6805
1134.0421
1130.8115
1132.8249
1130.2616
1130.7996
1137.3645
1124.9603
1120.6765
1143.6063
1134.147
1130.3196
1132.8927
1132.4647
1139.856
1132.797
1124.9603
1144.7178
1194.6588
1193.1138
1189.8276
1189.9072
1193.3276
1192.0947
1189.0856
1191.3689
1192.2757
1185.2816
1193.1138
1189.3423
1178.4763
1192.5902
1189.2861
1188.073
1192.0422
1188.99
1197.002
1208.788
1189.8276
1178.4763
1195.8911
1189.1529
1189.8718
1194.4841
1196.3618
1195.5152
1197.757
1201.9497
1189.9072
1192.5902
1189.1529
1184.7098
1189.2113
1189.9857
1189.3348
1191.9372
1190.7914
1191.8816
1193.3276
1189.2861
1189.8718
1189.2113
1196.1676
1196.779
1191.1956
1191.3842
1193.199
1198.1982
1192.0947
1188.073
1194.4841
1189.9857
1196.779
1199.9588
1193.3874
1194.1466
1201.234
1199.2709
1189.0856
1192.0422
1196.3618
1189.3348
1191.1956
1193.3874
1188.9206
1192.2537
1196.1148
1197.469
1191.3689
1188.99
1195.5152
1191.9372
1191.3842
1194.1466
1192.2537
1190.8877
1194.9392
1188.2112
1192.2757
1197.002
1197.757
1190.7914
1193.199
1201.234
1196.1148
1194.9392
1199.0454
1199.9449
1185.2816
1208.788
1201.9497
1191.8816
1198.1982
1199.2709
1197.469
1188.2112
1199.9449
1203.5444
1250.9267
1259.0444
1257.3
1248.9877
1249.4545
1251.2618
1247.901
1244.9886
1246.3994
1246.2133
1259.0444
1266.2301
1238.7185
1246.884
1246.5192
1243.8084
1243.128
1239.907
1245.9834
1245.205
1257.3
1238.7185
1253.2611
1246.1583
1251.4729
1256.0808
1255.7329
1256.7136
1253.0235
1253.1627
1248.9877
1246.884
1246.1583
1245.3057
1254.9304
1253.7405
1251.9623
1257.5272
1249.4422
1260.7925
1249.4545
1246.5192
1251.4729
1254.9304
1265.9533
1262.1746
1256.6025
1261.0481
1255.7012
1274.767
1251.2618
1243.8084
1256.0808
1253.7405
1262.1746
1259.0285
1254.0293
1262.262
1259.6044
1259.7196
1247.901
1243.128
1255.7329
1251.9623
1256.6025
1254.0293
1251.796
1261.8807
1250.5618
1255.7993
1244.9886
1239.907
1256.7136
1257.5272
1261.0481
1262.262
1261.8807
1263.1046
1252.4328
1272.8675
1246.3994
1245.9834
1253.0235
1249.4422
1255.7012
1259.6044
1250.5618
1252.4328
1254.0261
1273.2168
1246.2133
1245.205
1253.1627
1260.7925
1274.767
1259.7196
1255.7993
1272.8675
1273.2168
1252.8103
1230.4514
1257.3921
1300.7936
1297.8002
1314.7741
1330.3328
1340.3545
1358.8546
1352.3926
1378.1201
1257.3921
1303.4558
1287.1064
1309.7664
1300.983
1289.5778
1293.5263
1313.2672
1304.0308
1346.8276
1300.7936
1287.1064
1300.6209
1297.4539
1309.2157
1313.249
1299.0087
1301.5254
1283.9122
1302.3971
1297.8002
1309.7664
1297.4539
1305.6527
1320.6282
1325.179
1316.9155
1325.9932
1314.8843
1313.6513
1314.7741
1300.983
1309.2157
1320.6282
1330.921
1334.044
1323.6172
1323.3591
1320.4714
1329.9159
1330.3328
1289.5778
1313.249
1325.179
1334.044
1342.4877
1334.9743
1327.2102
1316.2788
1328.4533
1340.3545
1293.5263
1299.0087
1316.9155
1323.6172
1334.9743
1333.1533
1329.1668
1309.4289
1325.5767
1358.8546
1313.2672
1301.5254
1325.9932
1323.3591
1327.2102
1329.1668
1327.7335
1310.8204
1320.5719
1352.3926
1304.0308
1283.9122
1314.8843
1320.4714
1316.2788
1309.4289
1310.8204
1283.9492
1326.3136
1378.1201
1346.8276
1302.3971
1313.6513
1329.9159
1328.4533
1325.5767
1320.5719
1326.3136
1322.6537
1429.0665
1388.3652
1351.8726
1354.0096
1353.3491
1349.8251
1330.3723
1312.0393
1330.3786
1319.9737
1388.3652
1322.5451
1356.2661
1347.8497
1370.8857
1379.6725
1377.4967
1363.256
1377.2643
1352.5906
1351.8726
1356.2661
1362.4498
1366.2235
1370.451
1375.1032
1382.5172
1379.1188
1403.1699
1394.1168
1354.0096
1347.8497
1366.2235
1368.8804
1378.0595
1376.7731
1371.9861
1361.5404
1374.9431
1385.5725
1353.3491
1370.8857
1370.451
1378.0595
1391.0221
1392.339
1390.432
1382.9017
1380.4272
1383.4434
1349.8251
1379.6725
1375.1032
1376.7731
1392.339
1393.2
1388.4292
1384.5973
1394.0276
1383.7489
1330.3723
1377.4967
1382.5172
1371.9861
1390.432
1388.4292
1378.0782
1376.6891
1396.1826
1374.9613
1312.0393
1363.256
1379.1188
1361.5404
1382.9017
1384.5973
1376.6891
1379.1836
1387.7586
1383.0205
1330.3786
1377.2643
1403.1699
1374.9431
1380.4272
1394.0276
1396.1826
1387.7586
1409.7098
1379.5176
1319.9737
1352.5906
1394.1168
1385.5725
1383.4434
1383.7489
1374.9613
1383.0205
1379.5176
1383.2443
1397.2777
1440.9435
1442.2437
1431.5696
1434.1162
1464.0084
1439.516
1443.6471
1463.7882
1446.0267
1440.9435
1410.1323
1420.4758
1424.8604
1435.4754
1430.9774
1423.8709
1435.5473
1442.5477
1432.9152
1442.2437
1420.4758
1445.4394
1444.504
1438.5124
1448.4425
1442.6362
1442.3464
1438.6939
1429.0504
1431.5696
1424.8604
1444.504
1431.7859
1435.3163
1449.6787
1439.7942
1441.9168
1443.546
1438.6436
1434.1162
1435.4754
1438.5124
1435.3163
1442.1255
1453.5135
1438.6637
1438.9311
1441.3855
1439.3414
1464.0084
1430.9774
1448.4425
1449.6787
1453.5135
1463.7011
1447.5546
1442.6022
1444.994
1437.7739
1439.516
1423.8709
1442.6362
1439.7942
1438.6637
1447.5546
1438.2602
1438.4393
1441.2228
1433.9017
1443.6471
1435.5473
1442.3464
1441.9168
1438.9311
1442.6022
1438.4393
1438.6354
1430.4494
1435.8612
1463.7882
1442.5477
1438.6939
1443.546
1441.3855
1444.994
1441.2228
1430.4494
1442.2154
1429.6187
1446.0267
1432.9152
1429.0504
1438.6436
1439.3414
1437.7739
1433.9017
1435.8612
1429.6187
1429.5114
1493.1007
1486.9672
1479.694
1497.5292
1491.9757
1500.6245
1485.496
1497.0804
1506.3011
1484.6466
1486.9672
1499.8123
1491.8228
1494.3664
1503.3076
1494.7347
1493.2549
1505.4645
1499.0752
1491.233
1479.694
1491.8228
1486.9584
1493.3025
1491.3978
1495.3713
1493.2961
1496.7869
1487.2299
1480.9132
1497.5292
1494.3664
1493.3025
1491.3282
1496.6825
1499.9289
1492.4814
1501.294
1498.0547
1487.5261
1491.9757
1503.3076
1491.3978
1496.6825
1503.5287
1502.7775
1488.5213
1493.6427
1491.3545
1487.1571
1500.6245
1494.7347
1495.3713
1499.9289
1502.7775
1504.7789
1492.0312
1493.4997
1492.3388
1486.8646
1485.496
1493.2549
1493.2961
1492.4814
1488.5213
1492.0312
1486.4422
1491.9789
1490.5738
1481.9492
1497.0804
1505.4645
1496.7869
1501.294
1493.6427
1493.4997
1491.9789
1494.4506
1480.0215
1482.3378
1506.3011
1499.0752
1487.2299
1498.0547
1491.3545
1492.3388
1490.5738
1480.0215
1482.2223
1478.5611
1484.6466
1491.233
1480.9132
1487.5261
1487.1571
1486.8646
1481.9492
1482.3378
1478.5611
1481.2172
1551.9872
1535.4019
1545.2226
1556.5904
1541.0498
1553.415
1542.7476
1549.2757
1551.3399
1521.5757
1535.4019
1552.5625
1538.4117
1540.1273
1547.223
1541.9972
1541.457
1548.2038
1543.8729
1542.061
1545.2226
1538.4117
1543.7679
1552.5517
1543.8575
1546.9155
1548.4055
1549.6821
1535.819
1529.1309
1556.5904
1540.1273
1552.5517
1550.3959
1547.4339
1548.0032
1543.1509
1550.5478
1542.9803
1532.863
1541.0498
1547.223
1543.8575
1547.4339
1547.805
1545.9028
1535.0319
1540.0023
1535.2969
1534.6233
1553.4151
1541.9972
1546.9155
1548.0032
1545.9028
1547.6354
1537.8882
1539.1026
1536.2767
1532.9796
1542.7476
1541.457
1548.4055
1543.1509
1535.0319
1537.8882
1533.7248
1538.3306
1534.5409
1530.4886
1549.2757
1548.2038
1549.6821
1550.5478
1540.0023
1539.1026
1538.3306
1540.0412
1525.3044
1529.1252
1551.3399
1543.8729
1535.819
1542.9803
1535.2969
1536.2767
1534.5409
1525.3044
1527.916
1526.7421
1521.5757
1542.061
1529.131
1532.863
1534.6233
1532.9796
1530.4886
1529.1252
1526.7421
1538.1187
1593.537
1600.6324
1596.7628
1600.9477
1587.7961
1605.6483
1594.1305
1596.9532
1601.0922
1570.0305
1600.6324
1595.3633
1586.9641
1587.2288
1595.5496
1590.2164
1588.3961
1594.5244
1593.6586
1594.1029
1596.7628
1586.9641
1600.2685
1603.0172
1592.6136
1595.4946
1596.5846
1597.679
1583.7557
1579.6043
1600.9477
1587.2288
1603.0172
1593.1598
1589.5924
1591.5095
1587.8905
1597.2435
1590.7469
1584.6423
1587.7961
1595.5496
1592.6136
1589.5924
1590.596
1590.4489
1581.0516
1588.3173
1585.5743
1589.0433
1605.6483
1590.2164
1595.4946
1591.5095
1590.4489
1593.3492
1584.553
1588.0929
1587.341
1585.468
1594.1305
1588.3961
1596.5846
1587.8905
1581.0516
1584.553
1581.2445
1588.0009
1584.0135
1587.3756
1596.9532
1594.5244
1597.679
1597.2435
1588.3173
1588.0929
1588.0009
1590.4834
1579.3266
1584.5978
1601.0922
1593.6586
1583.7557
1590.7469
1585.5743
1587.341
1584.0135
1579.3266
1582.4872
1584.9195
1570.0305
1594.1029
1579.6043
1584.6423
1589.0433
1585.468
1587.3756
1584.5978
1584.9195
1600.4612
1645.7128
1649.5271
1637.3557
1646.7802
1636.9804
1653.9241
1638.6329
1640.9246
1649.6786
1620.5326
1649.5271
1646.5018
1639.4008
1641.8569
1650.8422
1642.1053
1635.9863
1641.7214
1644.3233
1646.626
1637.3557
1639.4008
1645.9214
1648.5621
1640.5139
1643.8706
1643.5371
1645.9832
1635.1259
1632.6378
1646.7802
1641.8569
1648.5621
1638.6009
1638.3217
1641.4812
1636.971
1647.8363
1643.8427
1639.8475
1636.9804
1650.8422
1640.5139
1638.3217
1642.8504
1643.6603
1633.0603
1641.645
1642.3488
1646.749
1653.9241
1642.1053
1643.8706
1641.4812
1643.6603
1647.2837
1637.7215
1643.5208
1646.3727
1642.4956
1638.6329
1635.9863
1643.5371
1636.971
1633.0603
1637.7215
1635.0284
1644.4201
1641.9201
1649.046
1640.9246
1641.7214
1645.9832
1647.8363
1641.645
1643.5208
1644.4201
1647.9951
1643.727
1647.0957
1649.6786
1644.3233
1635.1259
1643.8427
1642.3488
1646.3727
1641.9201
1643.727
1649.2948
1647.8302
1620.5326
1646.626
1632.6378
1639.8475
1646.749
1642.4956
1649.046
1647.0957
1647.8302
1657.3978
1710.3652
1685.2835
1688.5105
1702.6399
1690.835
1704.2763
1685.9667
1688.1519
1698.8905
1670.3002
1685.2835
1687.2988
1683.8937
1686.8615
1695.4693
1687.0207
1681.9395
1690.234
1695.8816
1698.425
1688.5105
1683.8937
1691.5948
1696.1272
1689.0872
1694.0075
1694.7289
1698.8208
1688.7411
1683.876
1702.6399
1686.8615
1696.1272
1688.2938
1689.2285
1693.6714
1689.6092
1701.3374
1697.3845
1692.2072
1690.835
1695.4693
1689.0872
1689.2285
1695.2877
1697.3554
1687.0305
1696.6876
1698.9076
1700.9242
1704.2763
1687.0207
1694.0075
1693.6714
1697.3554
1702.5816
1694.1652
1702.1039
1705.9456
1696.0119
1685.9667
1681.9395
1694.7289
1689.6092
1687.0305
1694.1652
1693.9219
1704.9017
1700.3409
1704.0262
1688.1519
1690.234
1698.8208
1701.3374
1696.6876
1702.1039
1704.9017
1707.1622
1703.8928
1701.6798
1698.8905
1695.8816
1688.7411
1697.3845
1698.9076
1705.9456
1700.3409
1703.8928
1709.371
1699.9306
1670.3002
1698.425
1683.876
1692.2072
1700.9242
1696.0119
1704.0262
1701.6798
1699.9306
1700.1133
1736.2839
1725.0255
1733.1446
1744.0911
1729.0562
1743.1235
1727.1235
1732.3678
1745.7721
1717.5332
1725.0255
1732.033
1727.6428
1727.3071
1734.7703
1728.434
1726.5249
1737.4894
1744.384
1745.3928
1733.1446
1727.6428
1739.3461
1742.4118
1733.6939
1739.7485
1742.3008
1747.5792
1736.5189
1728.8645
1744.0911
1727.3071
1742.4118
1732.9487
1732.2831
1737.6264
1734.9429
1747.5536
1742.7075
1737.0239
1729.0562
1734.7703
1733.6939
1732.2831
1737.1343
1739.9673
1730.6474
1741.5144
1744.6413
1746.1984
1743.1235
1728.434
1739.7485
1737.6264
1739.9673
1745.7645
1738.6412
1748.6203
1752.9131
1739.649
1727.1235
1726.5249
1742.3008
1734.9429
1730.6474
1738.6412
1740.4168
1752.5425
1745.3773
1746.3269
1732.3678
1737.4894
1747.5792
1747.5536
1741.5144
1748.6203
1752.5425
1752.7754
1746.9721
1741.5319
1745.7721
1744.384
1736.5189
1742.7075
1744.6413
1752.9131
1745.3773
1746.9721
1749.4198
1735.9924
1717.5332
1745.3928
1728.8645
1737.0239
1746.1984
1739.649
1746.3269
1741.5319
1735.9924
1737.0739
1776.8492
1779.7676
1779.0278
1786.2355
1770.3217
1786.6162
1772.2866
1778.1603
1791.1601
1760.9356
1779.7676
1785.0387
1777.7689
1776.1837
1783.6641
1777.5968
1775.0488
1784.3662
1788.7343
1788.1951
1779.0278
1777.7689
1790.0192
1791.6478
1781.7808
1787.867
1790.0996
1793.9699
1779.6951
1770.4438
1786.2355
1776.1837
1791.6478
1779.835
1777.932
1783.2973
1780.2027
1791.31
1783.2874
1777.7634
1770.3217
1783.6641
1781.7808
1777.932
1781.4871
1783.6962
1773.0104
1782.1369
1783.48
1786.2405
1786.6162
1777.5968
1787.867
1783.2973
1783.6962
1787.8246
1778.8566
1787.7334
1790.6032
1777.742
1772.2866
1775.0488
1790.0996
1780.2027
1773.0104
1778.8566
1779.3634
1790.3929
1780.4367
1783.2486
1778.1603
1784.3662
1793.9699
1791.31
1782.1369
1787.7334
1790.3929
1788.044
1779.651
1777.66
1791.1601
1788.7343
1779.6951
1783.2874
1783.48
1790.6032
1780.4367
1779.651
1780.5087
1773.0502
1760.9356
1788.1951
1770.4438
1777.7634
1786.2405
1777.742
1783.2486
1777.66
1773.0502
1786.9774
1835.2834
1824.4764
1822.3513
1831.3754
1817.3889
1835.055
1819.4364
1823.0277
1833.9721
1802.5522
1824.4764
1824.554
1820.1772
1821.8089
1831.7805
1825.9063
1821.7617
1829.1935
1832.1067
1833.0496
1822.3513
1820.1772
1833.4784
1836.3271
1827.6233
1834.3726
1836.4173
1839.5654
1823.5369
1814.2145
1831.3754
1821.8089
1836.3271
1824.2555
1823.0767
1829.137
1826.008
1836.1538
1825.6001
1819.9646
1817.3889
1831.7805
1827.6233
1823.0767
1827.0006