/*--------------------------------*- C++ -*----------------------------------*\
| =========                 |                                                 |
| \\      /  F ield         | OpenFOAM: The Open Source CFD Toolbox           |
|  \\    /   O peration     | Version:  v2106                                 |
|   \\  /    A nd           | Website:  www.openfoam.com                      |
|    \\/     M anipulation  |                                                 |
\*---------------------------------------------------------------------------*/
FoamFile
{
    version     2.0;
    format      ascii;
    arch        "LSB;label=32;scalar=64";
    class       volVectorField;
    location    "50";
    object      flux;
}
// * * * * * * * * * * * * * * * * * * * * * * * * * * * * * * * * * * * * * //

dimensions      [0 1 -1 1 0 0 0];

internalField   nonuniform List<vector> 
500
(
(-6.43634e-07 -6.43634e-07 1.87326)
(-8.62613e-07 -5.67194e-07 1.87325)
(-2.46896e-07 -5.38384e-07 1.87325)
(4.64018e-08 -5.05259e-07 1.87325)
(7.43188e-08 -4.32659e-07 1.87325)
(-5.67194e-07 -8.62613e-07 1.87325)
(-7.57363e-07 -7.57363e-07 1.87325)
(-1.8496e-07 -7.00746e-07 1.87325)
(1.52127e-07 -6.39991e-07 1.87325)
(1.46919e-07 -5.4057e-07 1.87325)
(-5.38384e-07 -2.46896e-07 1.87325)
(-7.00746e-07 -1.8496e-07 1.87325)
(-1.29524e-07 -1.29524e-07 1.87325)
(2.06577e-07 -7.98313e-08 1.87325)
(1.73739e-07 -3.71948e-08 1.87325)
(-5.05259e-07 4.64018e-08 1.87325)
(-6.39991e-07 1.52127e-07 1.87325)
(-7.98313e-08 2.06577e-07 1.87325)
(2.44456e-07 2.44456e-07 1.87325)
(1.89555e-07 2.71592e-07 1.87325)
(-4.32659e-07 7.43188e-08 1.87325)
(-5.4057e-07 1.46919e-07 1.87325)
(-3.71948e-08 1.73739e-07 1.87325)
(2.71592e-07 1.89555e-07 1.87325)
(2.00875e-07 2.00875e-07 1.87325)
(-1.66149e-06 -1.66149e-06 1.8733)
(-2.24288e-06 -1.45385e-06 1.8733)
(-6.09935e-07 -1.37061e-06 1.8733)
(2.96795e-07 -1.26817e-06 1.8733)
(3.25342e-07 -1.02298e-06 1.8733)
(-1.45385e-06 -2.24288e-06 1.8733)
(-1.952e-06 -1.952e-06 1.8733)
(-4.2426e-07 -1.78686e-06 1.87329)
(6.44428e-07 -1.60158e-06 1.8733)
(5.70533e-07 -1.27676e-06 1.8733)
(-1.37061e-06 -6.09935e-07 1.8733)
(-1.78686e-06 -4.2426e-07 1.87329)
(-2.59513e-07 -2.59513e-07 1.87329)
(8.06901e-07 -1.09729e-07 1.87329)
(6.50165e-07 1.97588e-08 1.8733)
(-1.26817e-06 2.96795e-07 1.8733)
(-1.60158e-06 6.44428e-07 1.8733)
(-1.09729e-07 8.06901e-07 1.87329)
(9.237e-07 9.237e-07 1.8733)
(7.00021e-07 1.0209e-06 1.8733)
(-1.02298e-06 3.25342e-07 1.8733)
(-1.27676e-06 5.70533e-07 1.8733)
(1.97588e-08 6.50165e-07 1.8733)
(1.0209e-06 7.00021e-07 1.8733)
(7.47368e-07 7.47368e-07 1.8733)
(-2.4548e-06 -2.4548e-06 1.87338)
(-3.29092e-06 -2.14301e-06 1.87338)
(-7.72743e-07 -2.01088e-06 1.87338)
(7.87738e-07 -1.84173e-06 1.87338)
(7.2437e-07 -1.43166e-06 1.87338)
(-2.14301e-06 -3.29092e-06 1.87338)
(-2.84699e-06 -2.84699e-06 1.87338)
(-4.71464e-07 -2.58205e-06 1.87338)
(1.36696e-06 -2.27652e-06 1.87338)
(1.13444e-06 -1.73563e-06 1.87338)
(-2.01088e-06 -7.72743e-07 1.87338)
(-2.58205e-06 -4.71464e-07 1.87338)
(-2.0227e-07 -2.0227e-07 1.87338)
(1.63416e-06 4.65591e-08 1.87338)
(1.26526e-06 2.65334e-07 1.87338)
(-1.84173e-06 7.87738e-07 1.87338)
(-2.27652e-06 1.36696e-06 1.87338)
(4.65591e-08 1.63416e-06 1.87338)
(1.83457e-06 1.83457e-06 1.87338)
(1.35321e-06 2.02985e-06 1.87338)
(-1.43166e-06 7.2437e-07 1.87338)
(-1.73563e-06 1.13444e-06 1.87338)
(2.65334e-07 1.26526e-06 1.87338)
(2.02985e-06 1.35321e-06 1.87338)
(1.46054e-06 1.46054e-06 1.87338)
(-3.12146e-06 -3.12146e-06 1.87351)
(-4.12749e-06 -2.7178e-06 1.87351)
(-7.90131e-07 -2.54139e-06 1.87351)
(1.3755e-06 -2.3098e-06 1.87351)
(1.15961e-06 -1.74438e-06 1.87351)
(-2.7178e-06 -4.12749e-06 1.87351)
(-3.54742e-06 -3.54742e-06 1.8735)
(-3.82135e-07 -3.19118e-06 1.8735)
(2.17251e-06 -2.77285e-06 1.8735)
(1.72503e-06 -2.02825e-06 1.87351)
(-2.54139e-06 -7.90131e-07 1.87351)
(-3.19118e-06 -3.82135e-07 1.8735)
(-1.55634e-08 -1.55634e-08 1.8735)
(2.53843e-06 3.27339e-07 1.8735)
(1.90421e-06 6.3186e-07 1.87351)
(-2.3098e-06 1.3755e-06 1.87351)
(-2.77285e-06 2.17251e-06 1.8735)
(3.27339e-07 2.53843e-06 1.8735)
(2.81994e-06 2.81994e-06 1.87351)
(2.02955e-06 3.1117e-06 1.87351)
(-1.74438e-06 1.15961e-06 1.87351)
(-2.02825e-06 1.72503e-06 1.87351)
(6.3186e-07 1.90421e-06 1.87351)
(3.1117e-06 2.02955e-06 1.87351)
(2.19596e-06 2.19596e-06 1.87351)
(-3.68203e-06 -3.68203e-06 1.87367)
(-4.79503e-06 -3.19727e-06 1.87367)
(-7.12688e-07 -2.98135e-06 1.87367)
(1.99293e-06 -2.69307e-06 1.87367)
(1.59261e-06 -1.98609e-06 1.87367)
(-3.19727e-06 -4.79503e-06 1.87367)
(-4.09435e-06 -4.09435e-06 1.87367)
(-2.08494e-07 -3.65624e-06 1.87367)
(2.98818e-06 -3.13541e-06 1.87367)
(2.2996e-06 -2.20515e-06 1.87367)
(-2.98135e-06 -7.12688e-07 1.87367)
(-3.65624e-06 -2.08494e-07 1.87367)
(2.46251e-07 2.46251e-07 1.87367)
(3.44402e-06 6.75151e-07 1.87367)
(2.52287e-06 1.0584e-06 1.87367)
(-2.69307e-06 1.99293e-06 1.87367)
(-3.13541e-06 2.98818e-06 1.87367)
(6.75151e-07 3.44402e-06 1.87367)
(3.80033e-06 3.80033e-06 1.87367)
(2.68285e-06 4.1818e-06 1.87367)
(-1.98609e-06 1.59261e-06 1.87367)
(-2.20515e-06 2.2996e-06 1.87367)
(1.0584e-06 2.52287e-06 1.87367)
(4.1818e-06 2.68285e-06 1.87367)
(2.90434e-06 2.90434e-06 1.87367)
(-4.13727e-06 -4.13727e-06 1.87386)
(-5.30818e-06 -3.58352e-06 1.87386)
(-5.74743e-07 -3.33351e-06 1.87386)
(2.59646e-06 -2.99568e-06 1.87386)
(2.00029e-06 -2.16452e-06 1.87386)
(-3.58352e-06 -5.30818e-06 1.87386)
(-4.50442e-06 -4.50442e-06 1.87386)
(1.30964e-08 -3.99543e-06 1.87386)
(3.76545e-06 -3.38493e-06 1.87386)
(2.83145e-06 -2.29186e-06 1.87386)
(-3.33351e-06 -5.74743e-07 1.87386)
(-3.99543e-06 1.30964e-08 1.87386)
(5.44751e-07 5.44751e-07 1.87386)
(4.30003e-06 1.04918e-06 1.87386)
(3.09336e-06 1.50183e-06 1.87386)
(-2.99568e-06 2.59646e-06 1.87386)
(-3.38493e-06 3.76545e-06 1.87386)
(1.04918e-06 4.30003e-06 1.87386)
(4.72254e-06 4.72254e-06 1.87386)
(3.2841e-06 5.18441e-06 1.87386)
(-2.16452e-06 2.00029e-06 1.87386)
(-2.29186e-06 2.83145e-06 1.87386)
(1.50183e-06 3.09336e-06 1.87386)
(5.18441e-06 3.2841e-06 1.87386)
(3.55524e-06 3.55524e-06 1.87386)
(-4.48288e-06 -4.48288e-06 1.87408)
(-5.67081e-06 -3.87381e-06 1.87408)
(-3.98636e-07 -3.5959e-06 1.87408)
(3.15554e-06 -3.21684e-06 1.87408)
(2.36624e-06 -2.28196e-06 1.87408)
(-3.87381e-06 -5.67081e-06 1.87408)
(-4.78384e-06 -4.78384e-06 1.87408)
(2.58335e-07 -4.21654e-06 1.87408)
(4.46948e-06 -3.53142e-06 1.87408)
(3.30111e-06 -2.30244e-06 1.87408)
(-3.5959e-06 -3.98636e-07 1.87408)
(-4.21654e-06 2.58335e-07 1.87408)
(8.53781e-07 8.53782e-07 1.87408)
(5.06964e-06 1.42134e-06 1.87408)
(3.59522e-06 1.93226e-06 1.87408)
(-3.21684e-06 3.15554e-06 1.87408)
(-3.53142e-06 4.46948e-06 1.87408)
(1.42134e-06 5.06964e-06 1.87408)
(5.54796e-06 5.54796e-06 1.87408)
(3.81204e-06 6.07888e-06 1.87409)
(-2.28196e-06 2.36624e-06 1.87408)
(-2.30244e-06 3.30111e-06 1.87408)
(1.93226e-06 3.59522e-06 1.87408)
(6.07888e-06 3.81204e-06 1.87409)
(4.12613e-06 4.12613e-06 1.87409)
(-4.71395e-06 -4.71395e-06 1.87433)
(-5.88301e-06 -4.06455e-06 1.87433)
(-1.99487e-07 -3.7656e-06 1.87433)
(3.64761e-06 -3.35464e-06 1.87433)
(2.67803e-06 -2.33907e-06 1.87433)
(-4.06455e-06 -5.88301e-06 1.87433)
(-4.93467e-06 -4.93467e-06 1.87433)
(5.10428e-07 -4.32306e-06 1.87433)
(5.07414e-06 -3.58019e-06 1.87433)
(3.6936e-06 -2.24557e-06 1.87433)
(-3.7656e-06 -1.99488e-07 1.87433)
(-4.32306e-06 5.10428e-07 1.87433)
(1.15499e-06 1.15499e-06 1.87433)
(5.7251e-06 1.77171e-06 1.87433)
(4.01265e-06 2.32831e-06 1.87433)
(-3.35464e-06 3.64761e-06 1.87433)
(-3.58019e-06 5.07414e-06 1.87433)
(1.77171e-06 5.7251e-06 1.87433)
(6.24746e-06 6.24746e-06 1.87433)
(4.2502e-06 6.83434e-06 1.87433)
(-2.33907e-06 2.67803e-06 1.87433)
(-2.24557e-06 3.6936e-06 1.87433)
(2.32831e-06 4.01265e-06 1.87433)
(6.83434e-06 4.2502e-06 1.87433)
(4.59952e-06 4.59952e-06 1.87433)
(-4.82674e-06 -4.82674e-06 1.87459)
(-5.94461e-06 -4.15301e-06 1.87459)
(1.16501e-08 -3.84038e-06 1.87459)
(4.05559e-06 -3.40764e-06 1.87459)
(2.92607e-06 -2.33639e-06 1.87459)
(-4.15301e-06 -5.94461e-06 1.87459)
(-4.95825e-06 -4.95825e-06 1.87459)
(7.57028e-07 -4.31739e-06 1.87459)
(5.55958e-06 -3.53506e-06 1.87459)
(3.99732e-06 -2.12768e-06 1.87459)
(-3.84038e-06 1.16501e-08 1.87459)
(-4.31739e-06 7.57028e-07 1.87459)
(1.43483e-06 1.43483e-06 1.87459)
(6.2453e-06 2.08551e-06 1.87459)
(4.33346e-06 2.67409e-06 1.87459)
(-3.40764e-06 4.05559e-06 1.87459)
(-3.53506e-06 5.55958e-06 1.87459)
(2.08551e-06 6.2453e-06 1.87459)
(6.79884e-06 6.79884e-06 1.87459)
(4.5859e-06 7.42721e-06 1.87459)
(-2.33639e-06 2.92607e-06 1.87459)
(-2.12768e-06 3.99732e-06 1.87459)
(2.67409e-06 4.33346e-06 1.87459)
(7.42721e-06 4.5859e-06 1.87459)
(4.96183e-06 4.96183e-06 1.87459)
(-4.81961e-06 -4.81961e-06 1.87486)
(-5.85704e-06 -4.13815e-06 1.87486)
(2.25939e-07 -3.81952e-06 1.87486)
(4.36649e-06 -3.37566e-06 1.87486)
(3.10312e-06 -2.27511e-06 1.87486)
(-4.13815e-06 -5.85704e-06 1.87486)
(-4.85695e-06 -4.85695e-06 1.87486)
(9.88423e-07 -4.20263e-06 1.87486)
(5.91091e-06 -3.40011e-06 1.87486)
(4.20368e-06 -1.95461e-06 1.87486)
(-3.81952e-06 2.25939e-07 1.87486)
(-4.20263e-06 9.88423e-07 1.87486)
(1.68278e-06 1.68278e-06 1.87486)
(6.61451e-06 2.35139e-06 1.87486)
(4.54862e-06 2.95744e-06 1.87486)
(-3.37566e-06 4.36649e-06 1.87486)
(-3.40011e-06 5.91091e-06 1.87486)
(2.35139e-06 6.61451e-06 1.87486)
(7.18557e-06 7.18557e-06 1.87486)
(4.80973e-06 7.83997e-06 1.87486)
(-2.27511e-06 3.10312e-06 1.87486)
(-1.95461e-06 4.20368e-06 1.87486)
(2.95744e-06 4.54862e-06 1.87486)
(7.83997e-06 4.80973e-06 1.87486)
(5.20302e-06 5.20302e-06 1.87486)
(-4.6935e-06 -4.6935e-06 1.87514)
(-5.62443e-06 -4.02107e-06 1.87514)
(4.35688e-07 -3.70431e-06 1.87514)
(4.5707e-06 -3.26026e-06 1.87514)
(3.20408e-06 -2.1575e-06 1.87514)
(-4.02107e-06 -5.62443e-06 1.87514)
(-4.63524e-06 -4.63524e-06 1.87514)
(1.1965e-06 -3.98356e-06 1.87514)
(6.11752e-06 -3.18062e-06 1.87514)
(4.30685e-06 -1.7326e-06 1.87514)
(-3.70431e-06 4.35688e-07 1.87514)
(-3.98356e-06 1.1965e-06 1.87514)
(1.8903e-06 1.8903e-06 1.87514)
(6.82166e-06 2.56038e-06 1.87514)
(4.65211e-06 3.16899e-06 1.87514)
(-3.26026e-06 4.5707e-06 1.87514)
(-3.18062e-06 6.11752e-06 1.87514)
(2.56038e-06 6.82166e-06 1.87514)
(7.3962e-06 7.3962e-06 1.87514)
(4.91545e-06 8.0605e-06 1.87514)
(-2.1575e-06 3.20408e-06 1.87514)
(-1.7326e-06 4.30685e-06 1.87514)
(3.16899e-06 4.65211e-06 1.87514)
(8.0605e-06 4.91545e-06 1.87514)
(5.3164e-06 5.3164e-06 1.87514)
(-4.45213e-06 -4.45213e-06 1.87541)
(-5.25415e-06 -3.80531e-06 1.87541)
(6.33684e-07 -3.49821e-06 1.87541)
(4.66154e-06 -3.0649e-06 1.87541)
(3.22584e-06 -1.98709e-06 1.87541)
(-3.80531e-06 -5.25415e-06 1.87541)
(-4.30023e-06 -4.30023e-06 1.87541)
(1.37409e-06 -3.66725e-06 1.87541)
(6.17266e-06 -2.88366e-06 1.87541)
(4.30365e-06 -1.46878e-06 1.87541)
(-3.49821e-06 6.33684e-07 1.87541)
(-3.66725e-06 1.37409e-06 1.87541)
(2.05025e-06 2.05025e-06 1.87541)
(6.86002e-06 2.70529e-06 1.87541)
(4.64072e-06 3.30146e-06 1.87541)
(-3.0649e-06 4.66154e-06 1.87541)
(-2.88366e-06 6.17266e-06 1.87541)
(2.70529e-06 6.86002e-06 1.87541)
(7.42387e-06 7.42387e-06 1.87541)
(4.89982e-06 8.08171e-06 1.87541)
(-1.98709e-06 3.22584e-06 1.87541)
(-1.46878e-06 4.30365e-06 1.87541)
(3.30146e-06 4.64072e-06 1.87541)
(8.08171e-06 4.89982e-06 1.87541)
(5.29856e-06 5.29856e-06 1.87541)
(-4.10221e-06 -4.10221e-06 1.87567)
(-4.7573e-06 -3.49691e-06 1.87567)
(8.12638e-07 -3.20704e-06 1.87567)
(4.63483e-06 -2.79516e-06 1.87567)
(3.1671e-06 -1.76883e-06 1.87567)
(-3.49691e-06 -4.7573e-06 1.87567)
(-3.86213e-06 -3.86213e-06 1.87567)
(1.5144e-06 -3.26345e-06 1.87567)
(6.07304e-06 -2.51851e-06 1.87567)
(4.19343e-06 -1.1716e-06 1.87567)
(-3.20704e-06 8.12638e-07 1.87567)
(-3.26345e-06 1.5144e-06 1.87567)
(2.15626e-06 2.15626e-06 1.87567)
(6.72667e-06 2.78013e-06 1.87567)
(4.51401e-06 3.34918e-06 1.87567)
(-2.79516e-06 4.63483e-06 1.87567)
(-2.51851e-06 6.07304e-06 1.87567)
(2.78013e-06 6.72667e-06 1.87567)
(7.26596e-06 7.26596e-06 1.87567)
(4.76247e-06 7.90114e-06 1.87567)
(-1.76883e-06 3.1671e-06 1.87567)
(-1.1716e-06 4.19343e-06 1.87567)
(3.34918e-06 4.51401e-06 1.87567)
(7.90114e-06 4.76247e-06 1.87567)
(5.14919e-06 5.14919e-06 1.87567)
(-3.65349e-06 -3.65349e-06 1.87591)
(-4.14906e-06 -3.10464e-06 1.87592)
(9.64506e-07 -2.83914e-06 1.87592)
(4.48829e-06 -2.45882e-06 1.87592)
(3.0282e-06 -1.50925e-06 1.87592)
(-3.10464e-06 -4.14906e-06 1.87592)
(-3.33471e-06 -3.33471e-06 1.87592)
(1.61033e-06 -2.78507e-06 1.87592)
(5.81817e-06 -2.09715e-06 1.87592)
(3.97777e-06 -8.51392e-07 1.87592)
(-2.83914e-06 9.64506e-07 1.87592)
(-2.78507e-06 1.61033e-06 1.87592)
(2.20207e-06 2.20207e-06 1.87592)
(6.42197e-06 2.7794e-06 1.87592)
(4.27396e-06 3.3073e-06 1.87592)
(-2.45882e-06 4.48829e-06 1.87592)
(-2.09715e-06 5.81817e-06 1.87592)
(2.7794e-06 6.42197e-06 1.87592)
(6.92339e-06 6.92339e-06 1.87592)
(4.50567e-06 7.52027e-06 1.87592)
(-1.50925e-06 3.0282e-06 1.87592)
(-8.51392e-07 3.97777e-06 1.87592)
(3.3073e-06 4.27396e-06 1.87592)
(7.52027e-06 4.50567e-06 1.87592)
(4.87083e-06 4.87083e-06 1.87591)
(-3.119e-06 -3.119e-06 1.87614)
(-3.44951e-06 -2.64011e-06 1.87614)
(1.07941e-06 -2.40553e-06 1.87614)
(4.22059e-06 -2.06616e-06 1.87614)
(2.81068e-06 -1.21675e-06 1.87614)
(-2.64011e-06 -3.44951e-06 1.87614)
(-2.73604e-06 -2.73604e-06 1.87614)
(1.65336e-06 -2.249e-06 1.87614)
(5.40938e-06 -1.63505e-06 1.87614)
(3.66008e-06 -5.21146e-07 1.87614)
(-2.40553e-06 1.07941e-06 1.87614)
(-2.249e-06 1.65336e-06 1.87614)
(2.1804e-06 2.1804e-06 1.87614)
(5.94845e-06 2.69692e-06 1.87614)
(3.92458e-06 3.17065e-06 1.87614)
(-2.06616e-06 4.22059e-06 1.87614)
(-1.63505e-06 5.40938e-06 1.87614)
(2.69692e-06 5.94845e-06 1.87614)
(6.39963e-06 6.39963e-06 1.87614)
(4.13382e-06 6.94349e-06 1.87614)
(-1.21675e-06 2.81068e-06 1.87614)
(-5.21146e-07 3.66008e-06 1.87614)
(3.17065e-06 3.92458e-06 1.87614)
(6.94349e-06 4.13382e-06 1.87614)
(4.46844e-06 4.46844e-06 1.87614)
(-2.51558e-06 -2.51558e-06 1.87633)
(-2.68501e-06 -2.11844e-06 1.87633)
(1.14375e-06 -1.92054e-06 1.87633)
(3.82971e-06 -1.63049e-06 1.87633)
(2.51654e-06 -9.02188e-07 1.87633)
(-2.11844e-06 -2.68501e-06 1.87633)
(-2.08997e-06 -2.08997e-06 1.87633)
(1.63169e-06 -1.67752e-06 1.87633)
(4.84807e-06 -1.15273e-06 1.87633)
(3.24484e-06 -1.98168e-07 1.87633)
(-1.92054e-06 1.14375e-06 1.87633)
(-1.67752e-06 1.63169e-06 1.87633)
(2.081e-06 2.081e-06 1.87633)
(5.30907e-06 2.52391e-06 1.87633)
(3.47109e-06 2.93173e-06 1.87633)
(-1.63049e-06 3.82971e-06 1.87633)
(-1.15273e-06 4.84807e-06 1.87633)
(2.52391e-06 5.30907e-06 1.87633)
(5.69881e-06 5.69881e-06 1.87633)
(3.65266e-06 6.17617e-06 1.87633)
(-9.02188e-07 2.51654e-06 1.87633)
(-1.98168e-07 3.24484e-06 1.87633)
(2.93173e-06 3.47109e-06 1.87633)
(6.17617e-06 3.65266e-06 1.87633)
(3.94846e-06 3.94846e-06 1.87633)
(-1.86528e-06 -1.86528e-06 1.87649)
(-1.89126e-06 -1.55954e-06 1.87649)
(1.13709e-06 -1.40314e-06 1.87649)
(3.31002e-06 -1.16961e-06 1.87649)
(2.14694e-06 -5.80452e-07 1.87649)
(-1.55954e-06 -1.89126e-06 1.87649)
(-1.42912e-06 -1.42912e-06 1.8765)
(1.52702e-06 -1.10133e-06 1.8765)
(4.13271e-06 -6.78731e-07 1.8765)
(2.7361e-06 9.276e-08 1.87649)
(-1.40314e-06 1.13709e-06 1.87649)
(-1.10133e-06 1.52702e-06 1.8765)
(1.88749e-06 1.88749e-06 1.8765)
(4.50411e-06 2.24568e-06 1.8765)
(2.91843e-06 2.57731e-06 1.87649)
(-1.16961e-06 3.31002e-06 1.87649)
(-6.78731e-07 4.13271e-06 1.8765)
(2.24568e-06 4.50411e-06 1.8765)
(4.82253e-06 4.82253e-06 1.87649)
(3.06773e-06 5.22139e-06 1.87649)
(-5.80452e-07 2.14694e-06 1.87649)
(9.27601e-08 2.7361e-06 1.87649)
(2.57731e-06 2.91843e-06 1.87649)
(5.22139e-06 3.06773e-06 1.87649)
(3.31729e-06 3.31729e-06 1.87649)
(-1.1996e-06 -1.1996e-06 1.87662)
(-1.12005e-06 -9.92079e-07 1.87662)
(1.02748e-06 -8.80684e-07 1.87662)
(2.64736e-06 -7.09556e-07 1.87662)
(1.69943e-06 -2.74528e-07 1.87662)
(-9.92079e-07 -1.12005e-06 1.87662)
(-8.0114e-07 -8.0114e-07 1.87662)
(1.31e-06 -5.65548e-07 1.87662)
(3.25352e-06 -2.55838e-07 1.87662)
(2.13446e-06 3.12828e-07 1.87662)
(-8.80684e-07 1.02748e-06 1.87662)
(-5.65548e-07 1.31e-06 1.87662)
(1.57278e-06 1.57278e-06 1.87662)
(3.52574e-06 1.83694e-06 1.87662)
(2.2681e-06 2.08351e-06 1.87662)
(-7.09556e-07 2.64736e-06 1.87662)
(-2.55838e-07 3.25352e-06 1.87662)
(1.83694e-06 3.52574e-06 1.87662)
(3.76425e-06 3.76425e-06 1.87662)
(2.38103e-06 4.07387e-06 1.87662)
(-2.74528e-07 1.69943e-06 1.87662)
(3.12828e-07 2.13446e-06 1.87662)
(2.08351e-06 2.2681e-06 1.87662)
(4.07387e-06 2.38103e-06 1.87662)
(2.57771e-06 2.57771e-06 1.87662)
(-5.73287e-07 -5.73287e-07 1.8767)
(-4.5503e-07 -4.65421e-07 1.87671)
(7.67759e-07 -4.005e-07 1.87671)
(1.81033e-06 -2.96385e-07 1.8767)
(1.16083e-06 -2.85009e-08 1.8767)
(-4.65421e-07 -4.5503e-07 1.87671)
(-2.82244e-07 -2.82244e-07 1.87671)
(9.36794e-07 -1.4276e-07 1.87671)
(2.18233e-06 4.58094e-08 1.87671)
(1.42871e-06 3.94753e-07 1.8767)
(-4.005e-07 7.67759e-07 1.87671)
(-1.4276e-07 9.36794e-07 1.87671)
(1.09581e-06 1.09581e-06 1.87671)
(2.34784e-06 1.25838e-06 1.8767)
(1.50977e-06 1.41202e-06 1.8767)
(-2.96385e-07 1.81033e-06 1.8767)
(4.58094e-08 2.18233e-06 1.87671)
(1.25838e-06 2.34784e-06 1.8767)
(2.49854e-06 2.49854e-06 1.8767)
(1.58235e-06 2.70791e-06 1.8767)
(-2.85009e-08 1.16083e-06 1.8767)
(3.94753e-07 1.42871e-06 1.8767)
(1.41202e-06 1.50977e-06 1.8767)
(2.70791e-06 1.58235e-06 1.8767)
(1.71915e-06 1.71915e-06 1.8767)
(-1.15877e-07 -1.15877e-07 1.87675)
(-5.33981e-08 -9.10576e-08 1.87675)
(3.10114e-07 -7.07964e-08 1.87675)
(7.32799e-07 -3.71531e-08 1.87675)
(4.85163e-07 4.47676e-08 1.87675)
(-9.10576e-08 -5.33981e-08 1.87675)
(-8.31767e-09 -8.31767e-09 1.87675)
(3.64019e-07 3.64866e-08 1.87675)
(8.48363e-07 9.8322e-08 1.87675)
(5.67084e-07 2.07147e-07 1.87675)
(-7.07964e-08 3.10114e-07 1.87675)
(3.64866e-08 3.64019e-07 1.87675)
(4.16754e-07 4.16754e-07 1.87675)
(9.03459e-07 4.72004e-07 1.87675)
(5.93988e-07 5.26007e-07 1.87675)
(-3.71531e-08 7.32799e-07 1.87675)
(9.8322e-08 8.48363e-07 1.87675)
(4.72004e-07 9.0346e-07 1.87675)
(9.57616e-07 9.57616e-07 1.87675)
(6.21087e-07 1.04816e-06 1.87674)
(4.47677e-08 4.85163e-07 1.87675)
(2.07147e-07 5.67084e-07 1.87675)
(5.26007e-07 5.93988e-07 1.87675)
(1.04816e-06 6.21087e-07 1.87674)
(6.8453e-07 6.8453e-07 1.87674)
)
;

boundaryField
{
    wall_minX
    {
        type            calculated;
        value           nonuniform List<vector> 
100
(
(0 -6.43634e-07 1.87326)
(0 -8.62613e-07 1.87325)
(0 -2.46896e-07 1.87325)
(0 4.64018e-08 1.87325)
(0 7.43188e-08 1.87325)
(0 -1.66149e-06 1.8733)
(0 -2.24288e-06 1.8733)
(0 -6.09935e-07 1.8733)
(0 2.96795e-07 1.8733)
(0 3.25342e-07 1.8733)
(0 -2.4548e-06 1.87338)
(0 -3.29092e-06 1.87338)
(0 -7.72743e-07 1.87338)
(0 7.87738e-07 1.87338)
(0 7.2437e-07 1.87338)
(0 -3.12146e-06 1.87351)
(0 -4.12749e-06 1.87351)
(0 -7.90131e-07 1.87351)
(0 1.3755e-06 1.87351)
(0 1.15961e-06 1.87351)
(0 -3.68203e-06 1.87367)
(0 -4.79503e-06 1.87367)
(0 -7.12688e-07 1.87367)
(0 1.99293e-06 1.87367)
(0 1.59261e-06 1.87367)
(0 -4.13727e-06 1.87386)
(0 -5.30818e-06 1.87386)
(0 -5.74743e-07 1.87386)
(0 2.59646e-06 1.87386)
(0 2.00029e-06 1.87386)
(0 -4.48288e-06 1.87408)
(0 -5.67081e-06 1.87408)
(0 -3.98636e-07 1.87408)
(0 3.15554e-06 1.87408)
(0 2.36624e-06 1.87408)
(0 -4.71395e-06 1.87433)
(0 -5.88301e-06 1.87433)
(0 -1.99488e-07 1.87433)
(0 3.64761e-06 1.87433)
(0 2.67803e-06 1.87433)
(0 -4.82674e-06 1.87459)
(0 -5.94461e-06 1.87459)
(0 1.16501e-08 1.87459)
(0 4.05559e-06 1.87459)
(0 2.92607e-06 1.87459)
(0 -4.81961e-06 1.87486)
(0 -5.85704e-06 1.87486)
(0 2.25939e-07 1.87486)
(0 4.36649e-06 1.87486)
(0 3.10312e-06 1.87486)
(0 -4.6935e-06 1.87514)
(0 -5.62443e-06 1.87514)
(0 4.35688e-07 1.87514)
(0 4.5707e-06 1.87514)
(0 3.20408e-06 1.87514)
(0 -4.45213e-06 1.87541)
(0 -5.25415e-06 1.87541)
(0 6.33684e-07 1.87541)
(0 4.66154e-06 1.87541)
(0 3.22584e-06 1.87541)
(0 -4.10221e-06 1.87567)
(0 -4.7573e-06 1.87567)
(0 8.12638e-07 1.87567)
(0 4.63483e-06 1.87567)
(0 3.1671e-06 1.87567)
(0 -3.65349e-06 1.87591)
(0 -4.14906e-06 1.87592)
(0 9.64506e-07 1.87592)
(0 4.48829e-06 1.87592)
(0 3.0282e-06 1.87592)
(0 -3.119e-06 1.87614)
(0 -3.44951e-06 1.87614)
(0 1.07941e-06 1.87614)
(0 4.22059e-06 1.87614)
(0 2.81068e-06 1.87614)
(0 -2.51558e-06 1.87633)
(0 -2.68501e-06 1.87633)
(0 1.14375e-06 1.87633)
(0 3.82971e-06 1.87633)
(0 2.51654e-06 1.87633)
(0 -1.86528e-06 1.87649)
(0 -1.89126e-06 1.87649)
(0 1.13709e-06 1.87649)
(0 3.31002e-06 1.87649)
(0 2.14694e-06 1.87649)
(0 -1.1996e-06 1.87662)
(0 -1.12005e-06 1.87662)
(0 1.02748e-06 1.87662)
(0 2.64736e-06 1.87662)
(0 1.69943e-06 1.87662)
(0 -5.73287e-07 1.8767)
(0 -4.5503e-07 1.87671)
(0 7.67759e-07 1.87671)
(0 1.81033e-06 1.8767)
(0 1.16083e-06 1.8767)
(0 -1.15877e-07 1.87675)
(0 -5.33981e-08 1.87675)
(0 3.10114e-07 1.87675)
(0 7.32799e-07 1.87675)
(0 4.85163e-07 1.87675)
)
;
    }
    wall_maxX
    {
        type            calculated;
        value           nonuniform List<vector> 
100
(
(0 -4.32659e-07 1.87325)
(0 -5.4057e-07 1.87325)
(0 -3.71948e-08 1.87325)
(0 2.71592e-07 1.87325)
(0 2.00875e-07 1.87325)
(0 -1.02298e-06 1.8733)
(0 -1.27676e-06 1.8733)
(0 1.97588e-08 1.8733)
(0 1.0209e-06 1.8733)
(0 7.47368e-07 1.8733)
(0 -1.43166e-06 1.87338)
(0 -1.73563e-06 1.87338)
(0 2.65334e-07 1.87338)
(0 2.02985e-06 1.87338)
(0 1.46054e-06 1.87338)
(0 -1.74438e-06 1.87351)
(0 -2.02825e-06 1.87351)
(0 6.3186e-07 1.87351)
(0 3.1117e-06 1.87351)
(0 2.19596e-06 1.87351)
(0 -1.98609e-06 1.87367)
(0 -2.20515e-06 1.87367)
(0 1.0584e-06 1.87367)
(0 4.1818e-06 1.87367)
(0 2.90434e-06 1.87367)
(0 -2.16452e-06 1.87386)
(0 -2.29186e-06 1.87386)
(0 1.50183e-06 1.87386)
(0 5.18441e-06 1.87386)
(0 3.55524e-06 1.87386)
(0 -2.28196e-06 1.87408)
(0 -2.30244e-06 1.87408)
(0 1.93226e-06 1.87408)
(0 6.07888e-06 1.87409)
(0 4.12613e-06 1.87409)
(0 -2.33907e-06 1.87433)
(0 -2.24557e-06 1.87433)
(0 2.32831e-06 1.87433)
(0 6.83434e-06 1.87433)
(0 4.59952e-06 1.87433)
(0 -2.33639e-06 1.87459)
(0 -2.12768e-06 1.87459)
(0 2.67409e-06 1.87459)
(0 7.42721e-06 1.87459)
(0 4.96183e-06 1.87459)
(0 -2.27511e-06 1.87486)
(0 -1.95461e-06 1.87486)
(0 2.95744e-06 1.87486)
(0 7.83997e-06 1.87486)
(0 5.20302e-06 1.87486)
(0 -2.1575e-06 1.87514)
(0 -1.7326e-06 1.87514)
(0 3.16899e-06 1.87514)
(0 8.0605e-06 1.87514)
(0 5.3164e-06 1.87514)
(0 -1.98709e-06 1.87541)
(0 -1.46878e-06 1.87541)
(0 3.30146e-06 1.87541)
(0 8.08171e-06 1.87541)
(0 5.29856e-06 1.87541)
(0 -1.76883e-06 1.87567)
(0 -1.1716e-06 1.87567)
(0 3.34918e-06 1.87567)
(0 7.90114e-06 1.87567)
(0 5.14919e-06 1.87567)
(0 -1.50925e-06 1.87592)
(0 -8.51392e-07 1.87592)
(0 3.3073e-06 1.87592)
(0 7.52027e-06 1.87592)
(0 4.87083e-06 1.87591)
(0 -1.21675e-06 1.87614)
(0 -5.21146e-07 1.87614)
(0 3.17065e-06 1.87614)
(0 6.94349e-06 1.87614)
(0 4.46844e-06 1.87614)
(0 -9.02188e-07 1.87633)
(0 -1.98168e-07 1.87633)
(0 2.93173e-06 1.87633)
(0 6.17617e-06 1.87633)
(0 3.94846e-06 1.87633)
(0 -5.80452e-07 1.87649)
(0 9.276e-08 1.87649)
(0 2.57731e-06 1.87649)
(0 5.22139e-06 1.87649)
(0 3.31729e-06 1.87649)
(0 -2.74528e-07 1.87662)
(0 3.12828e-07 1.87662)
(0 2.08351e-06 1.87662)
(0 4.07387e-06 1.87662)
(0 2.57771e-06 1.87662)
(0 -2.85009e-08 1.8767)
(0 3.94753e-07 1.8767)
(0 1.41202e-06 1.8767)
(0 2.70791e-06 1.8767)
(0 1.71915e-06 1.8767)
(0 4.47676e-08 1.87675)
(0 2.07147e-07 1.87675)
(0 5.26007e-07 1.87675)
(0 1.04816e-06 1.87674)
(0 6.8453e-07 1.87674)
)
;
    }
    wall_minY
    {
        type            calculated;
        value           nonuniform List<vector> 
100
(
(-6.43634e-07 0 1.87326)
(-1.66149e-06 0 1.8733)
(-2.4548e-06 0 1.87338)
(-3.12146e-06 0 1.87351)
(-3.68203e-06 0 1.87367)
(-4.13727e-06 0 1.87386)
(-4.48288e-06 0 1.87408)
(-4.71395e-06 0 1.87433)
(-4.82674e-06 0 1.87459)
(-4.81961e-06 0 1.87486)
(-4.6935e-06 0 1.87514)
(-4.45213e-06 0 1.87541)
(-4.10221e-06 0 1.87567)
(-3.65349e-06 0 1.87591)
(-3.119e-06 0 1.87614)
(-2.51558e-06 0 1.87633)
(-1.86528e-06 0 1.87649)
(-1.1996e-06 0 1.87662)
(-5.73287e-07 0 1.8767)
(-1.15877e-07 0 1.87675)
(-8.62613e-07 0 1.87325)
(-2.24288e-06 0 1.8733)
(-3.29092e-06 0 1.87338)
(-4.12749e-06 0 1.87351)
(-4.79503e-06 0 1.87367)
(-5.30818e-06 0 1.87386)
(-5.67081e-06 0 1.87408)
(-5.88301e-06 0 1.87433)
(-5.94461e-06 0 1.87459)
(-5.85704e-06 0 1.87486)
(-5.62443e-06 0 1.87514)
(-5.25415e-06 0 1.87541)
(-4.7573e-06 0 1.87567)
(-4.14906e-06 0 1.87592)
(-3.44951e-06 0 1.87614)
(-2.68501e-06 0 1.87633)
(-1.89126e-06 0 1.87649)
(-1.12005e-06 0 1.87662)
(-4.5503e-07 0 1.87671)
(-5.33981e-08 0 1.87675)
(-2.46896e-07 0 1.87325)
(-6.09935e-07 0 1.8733)
(-7.72743e-07 0 1.87338)
(-7.90131e-07 0 1.87351)
(-7.12688e-07 0 1.87367)
(-5.74743e-07 0 1.87386)
(-3.98636e-07 0 1.87408)
(-1.99487e-07 0 1.87433)
(1.16501e-08 0 1.87459)
(2.25939e-07 0 1.87486)
(4.35688e-07 0 1.87514)
(6.33684e-07 0 1.87541)
(8.12638e-07 0 1.87567)
(9.64506e-07 0 1.87592)
(1.07941e-06 0 1.87614)
(1.14375e-06 0 1.87633)
(1.13709e-06 0 1.87649)
(1.02748e-06 0 1.87662)
(7.67759e-07 0 1.87671)
(3.10114e-07 0 1.87675)
(4.64018e-08 0 1.87325)
(2.96795e-07 0 1.8733)
(7.87738e-07 0 1.87338)
(1.3755e-06 0 1.87351)
(1.99293e-06 0 1.87367)
(2.59646e-06 0 1.87386)
(3.15554e-06 0 1.87408)
(3.64761e-06 0 1.87433)
(4.05559e-06 0 1.87459)
(4.36649e-06 0 1.87486)
(4.5707e-06 0 1.87514)
(4.66154e-06 0 1.87541)
(4.63483e-06 0 1.87567)
(4.48829e-06 0 1.87592)
(4.22059e-06 0 1.87614)
(3.82971e-06 0 1.87633)
(3.31002e-06 0 1.87649)
(2.64736e-06 0 1.87662)
(1.81033e-06 0 1.8767)
(7.32799e-07 0 1.87675)
(7.43188e-08 0 1.87325)
(3.25342e-07 0 1.8733)
(7.2437e-07 0 1.87338)
(1.15961e-06 0 1.87351)
(1.59261e-06 0 1.87367)
(2.00029e-06 0 1.87386)
(2.36624e-06 0 1.87408)
(2.67803e-06 0 1.87433)
(2.92607e-06 0 1.87459)
(3.10312e-06 0 1.87486)
(3.20408e-06 0 1.87514)
(3.22584e-06 0 1.87541)
(3.1671e-06 0 1.87567)
(3.0282e-06 0 1.87592)
(2.81068e-06 0 1.87614)
(2.51654e-06 0 1.87633)
(2.14694e-06 0 1.87649)
(1.69943e-06 0 1.87662)
(1.16083e-06 0 1.8767)
(4.85163e-07 0 1.87675)
)
;
    }
    wall_maxY
    {
        type            calculated;
        value           nonuniform List<vector> 
100
(
(-4.32659e-07 0 1.87325)
(-1.02298e-06 0 1.8733)
(-1.43166e-06 0 1.87338)
(-1.74438e-06 0 1.87351)
(-1.98609e-06 0 1.87367)
(-2.16452e-06 0 1.87386)
(-2.28196e-06 0 1.87408)
(-2.33907e-06 0 1.87433)
(-2.33639e-06 0 1.87459)
(-2.27511e-06 0 1.87486)
(-2.1575e-06 0 1.87514)
(-1.98709e-06 0 1.87541)
(-1.76883e-06 0 1.87567)
(-1.50925e-06 0 1.87592)
(-1.21675e-06 0 1.87614)
(-9.02188e-07 0 1.87633)
(-5.80452e-07 0 1.87649)
(-2.74528e-07 0 1.87662)
(-2.85009e-08 0 1.8767)
(4.47677e-08 0 1.87675)
(-5.4057e-07 0 1.87325)
(-1.27676e-06 0 1.8733)
(-1.73563e-06 0 1.87338)
(-2.02825e-06 0 1.87351)
(-2.20515e-06 0 1.87367)
(-2.29186e-06 0 1.87386)
(-2.30244e-06 0 1.87408)
(-2.24557e-06 0 1.87433)
(-2.12768e-06 0 1.87459)
(-1.95461e-06 0 1.87486)
(-1.7326e-06 0 1.87514)
(-1.46878e-06 0 1.87541)
(-1.1716e-06 0 1.87567)
(-8.51392e-07 0 1.87592)
(-5.21146e-07 0 1.87614)
(-1.98168e-07 0 1.87633)
(9.27601e-08 0 1.87649)
(3.12828e-07 0 1.87662)
(3.94753e-07 0 1.8767)
(2.07147e-07 0 1.87675)
(-3.71948e-08 0 1.87325)
(1.97588e-08 0 1.8733)
(2.65334e-07 0 1.87338)
(6.3186e-07 0 1.87351)
(1.0584e-06 0 1.87367)
(1.50183e-06 0 1.87386)
(1.93226e-06 0 1.87408)
(2.32831e-06 0 1.87433)
(2.67409e-06 0 1.87459)
(2.95744e-06 0 1.87486)
(3.16899e-06 0 1.87514)
(3.30146e-06 0 1.87541)
(3.34918e-06 0 1.87567)
(3.3073e-06 0 1.87592)
(3.17065e-06 0 1.87614)
(2.93173e-06 0 1.87633)
(2.57731e-06 0 1.87649)
(2.08351e-06 0 1.87662)
(1.41202e-06 0 1.8767)
(5.26007e-07 0 1.87675)
(2.71592e-07 0 1.87325)
(1.0209e-06 0 1.8733)
(2.02985e-06 0 1.87338)
(3.1117e-06 0 1.87351)
(4.1818e-06 0 1.87367)
(5.18441e-06 0 1.87386)
(6.07888e-06 0 1.87409)
(6.83434e-06 0 1.87433)
(7.42721e-06 0 1.87459)
(7.83997e-06 0 1.87486)
(8.0605e-06 0 1.87514)
(8.08171e-06 0 1.87541)
(7.90114e-06 0 1.87567)
(7.52027e-06 0 1.87592)
(6.94349e-06 0 1.87614)
(6.17617e-06 0 1.87633)
(5.22139e-06 0 1.87649)
(4.07387e-06 0 1.87662)
(2.70791e-06 0 1.8767)
(1.04816e-06 0 1.87674)
(2.00875e-07 0 1.87325)
(7.47368e-07 0 1.8733)
(1.46054e-06 0 1.87338)
(2.19596e-06 0 1.87351)
(2.90434e-06 0 1.87367)
(3.55524e-06 0 1.87386)
(4.12613e-06 0 1.87409)
(4.59952e-06 0 1.87433)
(4.96183e-06 0 1.87459)
(5.20302e-06 0 1.87486)
(5.3164e-06 0 1.87514)
(5.29856e-06 0 1.87541)
(5.14919e-06 0 1.87567)
(4.87083e-06 0 1.87591)
(4.46844e-06 0 1.87614)
(3.94846e-06 0 1.87633)
(3.31729e-06 0 1.87649)
(2.57771e-06 0 1.87662)
(1.71915e-06 0 1.8767)
(6.8453e-07 0 1.87674)
)
;
    }
    inlet_minZ
    {
        type            calculated;
        value           nonuniform List<vector> 
25
(
(-6.43634e-07 -6.43634e-07 1.87325)
(-5.67194e-07 -8.62613e-07 1.87324)
(-5.38384e-07 -2.46896e-07 1.87324)
(-5.05259e-07 4.64018e-08 1.87324)
(-4.32659e-07 7.43188e-08 1.87324)
(-8.62613e-07 -5.67194e-07 1.87324)
(-7.57363e-07 -7.57363e-07 1.87324)
(-7.00746e-07 -1.8496e-07 1.87324)
(-6.39991e-07 1.52127e-07 1.87324)
(-5.4057e-07 1.46919e-07 1.87324)
(-2.46896e-07 -5.38384e-07 1.87324)
(-1.8496e-07 -7.00746e-07 1.87324)
(-1.29524e-07 -1.29524e-07 1.87324)
(-7.98313e-08 2.06577e-07 1.87324)
(-3.71948e-08 1.73739e-07 1.87324)
(4.64018e-08 -5.05259e-07 1.87324)
(1.52127e-07 -6.39991e-07 1.87324)
(2.06577e-07 -7.98313e-08 1.87324)
(2.44456e-07 2.44456e-07 1.87324)
(2.71592e-07 1.89555e-07 1.87324)
(7.43188e-08 -4.32659e-07 1.87324)
(1.46919e-07 -5.4057e-07 1.87324)
(1.73739e-07 -3.71948e-08 1.87324)
(1.89555e-07 2.71592e-07 1.87324)
(2.00875e-07 2.00875e-07 1.87324)
)
;
    }
    outlet_maxZ
    {
        type            calculated;
        value           nonuniform List<vector> 
25
(
(-1.15877e-07 -1.15877e-07 1.87676)
(-9.10576e-08 -5.33981e-08 1.87676)
(-7.07964e-08 3.10114e-07 1.87676)
(-3.71531e-08 7.32799e-07 1.87676)
(4.47677e-08 4.85163e-07 1.87676)
(-5.33981e-08 -9.10576e-08 1.87676)
(-8.31767e-09 -8.31767e-09 1.87676)
(3.64866e-08 3.64019e-07 1.87676)
(9.8322e-08 8.48363e-07 1.87676)
(2.07147e-07 5.67084e-07 1.87676)
(3.10114e-07 -7.07964e-08 1.87676)
(3.64019e-07 3.64866e-08 1.87676)
(4.16754e-07 4.16754e-07 1.87676)
(4.72004e-07 9.0346e-07 1.87676)
(5.26007e-07 5.93988e-07 1.87676)
(7.32799e-07 -3.71531e-08 1.87676)