/*--------------------------------*- C++ -*----------------------------------*\
| =========                 |                                                 |
| \\      /  F ield         | OpenFOAM: The Open Source CFD Toolbox           |
|  \\    /   O peration     | Version:  v2106                                 |
|   \\  /    A nd           | Website:  www.openfoam.com                      |
|    \\/     M anipulation  |                                                 |
\*---------------------------------------------------------------------------*/
FoamFile
{
    version     2.0;
    format      ascii;
    arch        "LSB;label=32;scalar=64";
    class       volScalarField;
    location    "50";
    object      gradTx;
}
// * * * * * * * * * * * * * * * * * * * * * * * * * * * * * * * * * * * * * //

dimensions      [0 -1 0 1 0 0 0];

internalField   nonuniform List<scalar> 
500
(
-0.000257454
-0.000345045
-9.87582e-05
1.85607e-05
2.97275e-05
-0.000226878
-0.000302945
-7.39839e-05
6.08509e-05
5.87675e-05
-0.000215354
-0.000280298
-5.18095e-05
8.26308e-05
6.94957e-05
-0.000202104
-0.000255996
-3.19325e-05
9.77825e-05
7.58221e-05
-0.000173063
-0.000216228
-1.48779e-05
0.000108637
8.03502e-05
-0.000664595
-0.000897151
-0.000243974
0.000118718
0.000130137
-0.000581539
-0.000780801
-0.000169704
0.000257771
0.000228213
-0.000548245
-0.000714745
-0.000103805
0.00032276
0.000260066
-0.000507269
-0.000640632
-4.38915e-05
0.00036948
0.000280008
-0.000409192
-0.000510703
7.90351e-06
0.000408361
0.000298947
-0.000981922
-0.00131637
-0.000309097
0.000315095
0.000289748
-0.000857202
-0.0011388
-0.000188586
0.000546785
0.000453776
-0.000804352
-0.00103282
-8.09081e-05
0.000653664
0.000506102
-0.00073669
-0.000910608
1.86236e-05
0.000733827
0.000541286
-0.000572663
-0.000694253
0.000106134
0.00081194
0.000584216
-0.00124859
-0.001651
-0.000316052
0.000550201
0.000463843
-0.00108712
-0.00141897
-0.000152854
0.000869006
0.000690011
-0.00101656
-0.00127647
-6.22536e-06
0.00101537
0.000761683
-0.00092392
-0.00110914
0.000130936
0.00112798
0.000811819
-0.000697752
-0.000811301
0.000252744
0.00124468
0.000878386
-0.00147281
-0.00191801
-0.000285075
0.000797171
0.000637046
-0.00127891
-0.00163774
-8.33977e-05
0.00119527
0.000919839
-0.00119254
-0.0014625
9.85005e-05
0.00137761
0.00100915
-0.00107723
-0.00125416
0.00027006
0.00152013
0.00107314
-0.000794437
-0.00088206
0.00042336
0.00167272
0.00116174
-0.00165491
-0.00212327
-0.000229897
0.00103858
0.000800116
-0.00143341
-0.00180177
5.23855e-06
0.00150618
0.00113258
-0.0013334
-0.00159817
0.0002179
0.00172001
0.00123734
-0.00119827
-0.00135397
0.000419673
0.00188901
0.00131364
-0.000865807
-0.000916744
0.000600734
0.00207377
0.0014221
-0.00179315
-0.00226833
-0.000159454
0.00126221
0.000946496
-0.00154952
-0.00191353
0.000103334
0.00178779
0.00132045
-0.00143836
-0.00168662
0.000341513
0.00202785
0.00143809
-0.00128673
-0.00141257
0.000568537
0.00221918
0.00152481
-0.000912786
-0.000920977
0.000772906
0.00243155
0.00165045
-0.00188558
-0.00235321
-7.9795e-05
0.00145904
0.00107121
-0.00162582
-0.00197387
0.000204171
0.00202966
0.00147744
-0.00150624
-0.00172922
0.000461997
0.00229004
0.00160506
-0.00134185
-0.00143207
0.000708683
0.00249898
0.00170008
-0.000935629
-0.00089823
0.000931326
0.00273374
0.00183981
-0.00193069
-0.00237784
4.66005e-06
0.00162224
0.00117043
-0.00166121
-0.0019833
0.000302811
0.00222383
0.00159893
-0.00153615
-0.00172696
0.000573934
0.00249812
0.00173338
-0.00136305
-0.00141403
0.000834203
0.00271953
0.00183436
-0.000934555
-0.000851071
0.00106964
0.00297088
0.00198473
-0.00192784
-0.00234282
9.03756e-05
0.0017466
0.00124125
-0.00165526
-0.00194278
0.000395369
0.00236436
0.00168147
-0.00152781
-0.00168105
0.000673111
0.0026458
0.00181945
-0.00135027
-0.00136005
0.000940555
0.00287423
0.00192389
-0.000910043
-0.000781846
0.00118298
0.00313599
0.00208121
-0.0018774
-0.00224977
0.000174275
0.00182828
0.00128163
-0.00160843
-0.0018541
0.000478601
0.00244701
0.00172274
-0.00148172
-0.00159343
0.000756121
0.00272867
0.00186084
-0.0013041
-0.00127225
0.00102415
0.00295848
0.00196618
-0.000862999
-0.000693041
0.00126759
0.0032242
0.00212656
-0.00178085
-0.00210166
0.000253474
0.00186462
0.00129033
-0.00152212
-0.00172009
0.000549636
0.00246907
0.00172146
-0.00139928
-0.0014669
0.0008201
0.00274401
0.00185629
-0.00122596
-0.00115346
0.00108212
0.00296955
0.00195993
-0.000794835
-0.000587511
0.00132058
0.00323268
0.00211942
-0.00164088
-0.00190292
0.000325055
0.00185393
0.00126684
-0.00139877
-0.00154485
0.000605759
0.00242922
0.00167737
-0.00128282
-0.00130538
0.000862504
0.00269067
0.0018056
-0.00111806
-0.0010074
0.00111205
0.00290638
0.00190499
-0.000707531
-0.000468641
0.00133967
0.00316046
0.00205967
-0.0014614
-0.00165963
0.000385802
0.00179531
0.00121128
-0.00124185
-0.00133388
0.00064413
0.00232727
0.00159111
-0.00113565
-0.00111403
0.000880829
0.00256879
0.00170958
-0.000983526
-0.000838858
0.00111176
0.00276936
0.00180227
-0.000603701
-0.000340557
0.00132292
0.00300811
0.00194833
-0.0012476
-0.00137981
0.000431762
0.00168824
0.00112427
-0.00105605
-0.00109442
0.000661346
0.00216375
0.00146403
-0.000962212
-0.0008996
0.00087216
0.00237938
0.00156983
-0.000826462
-0.00065402
0.00107877
0.00255985
0.00165353
-0.000486699
-0.000208459
0.00126826
0.00277739
0.00178737
-0.00100623
-0.001074
0.0004575
0.00153189
0.00100661
-0.000847375
-0.000835989
0.000652677
0.00193923
0.00129794
-0.000768218
-0.00067101
0.000832399
0.00212363
0.00138844
-0.000652198
-0.00046109
0.00100957
0.00227952
0.00146106
-0.000360875
-7.92672e-05
0.00117269
0.00247047
0.00157938
-0.000746113
-0.000756505
0.000454838
0.00132401
0.000858777
-0.000623816
-0.000571649
0.000610809
0.00165308
0.00109444
-0.000561257
-0.000440531
0.000754995
0.00180164
0.00116737
-0.000467845
-0.000271492
0.000898272
0.00192901
0.00122709
-0.000232181
3.7104e-05
0.00103092
0.00208856
0.00132692
-0.00047984
-0.000448022
0.000410991
0.00105895
0.000679772
-0.000396832
-0.000320456
0.000524
0.00130141
0.000853784
-0.000352274
-0.000226219
0.000629111
0.0014103
0.000907239
-0.000283823
-0.000102335
0.000734775
0.0015057
0.000952413
-0.000109811
0.000125131
0.000833404
0.00162955
0.00103108
-0.000229315
-0.000182012
0.000307103
0.000724133
0.000464332
-0.000186168
-0.000112897
0.000374718
0.000872933
0.000571486
-0.0001602
-5.71038e-05
0.000438325
0.000939138
0.000603909
-0.000118554
1.83237e-05
0.000503351
0.000999415
0.000632942
-1.14004e-05
0.000157901
0.000564807
0.00108317
0.00068766
-4.63507e-05
-2.13592e-05
0.000124046
0.00029312
0.000194065
-3.6423e-05
-3.32707e-06
0.000145608
0.000339345
0.000226834
-2.83185e-05
1.45946e-05
0.000166702
0.000361384
0.000237595
-1.48612e-05
3.93288e-05
0.000188802
0.000383046
0.000248435
1.79071e-05
8.28588e-05
0.000210403
0.000419263
0.000273812
)
;

boundaryField
{
    wall_minX
    {
        type            calculated;
        value           uniform 0;
    }
    wall_maxX
    {
        type            calculated;
        value           uniform 0;
    }
    wall_minY
    {
        type            calculated;
        value           nonuniform List<scalar> 
100
(
-0.000257454
-0.000664595
-0.000981922
-0.00124859
-0.00147281
-0.00165491
-0.00179315
-0.00188558
-0.00193069
-0.00192784
-0.0018774
-0.00178085
-0.00164088
-0.0014614
-0.0012476
-0.00100623
-0.000746113
-0.00047984
-0.000229315
-4.63507e-05
-0.000345045
-0.000897151
-0.00131637
-0.001651
-0.00191801
-0.00212327
-0.00226833
-0.00235321
-0.00237784
-0.00234282
-0.00224977
-0.00210166
-0.00190292
-0.00165963
-0.00137981
-0.001074
-0.000756505
-0.000448022
-0.000182012
-2.13592e-05
-9.87582e-05
-0.000243974
-0.000309097
-0.000316052
-0.000285075
-0.000229897
-0.000159454
-7.9795e-05
4.66005e-06
9.03756e-05
0.000174275
0.000253474
0.000325055
0.000385802
0.000431762
0.0004575
0.000454838
0.000410991
0.000307103
0.000124046
1.85607e-05
0.000118718
0.000315095
0.000550201
0.000797171
0.00103858
0.00126221
0.00145904
0.00162224
0.0017466
0.00182828
0.00186462
0.00185393
0.00179531
0.00168824
0.00153189
0.00132401
0.00105895
0.000724133
0.00029312
2.97275e-05
0.000130137
0.000289748
0.000463843
0.000637046
0.000800116
0.000946496
0.00107121
0.00117043
0.00124125
0.00128163
0.00129033
0.00126684
0.00121128
0.00112427
0.00100661
0.000858777
0.000679772
0.000464332
0.000194065
)
;
    }
    wall_maxY
    {
        type            calculated;
        value           nonuniform List<scalar> 
100
(
-0.000173063
-0.000409192
-0.000572663
-0.000697752
-0.000794437
-0.000865807
-0.000912786
-0.000935629
-0.000934555
-0.000910043
-0.000862999
-0.000794835
-0.000707531
-0.000603701
-0.000486699
-0.000360875
-0.000232181
-0.000109811
-1.14004e-05
1.79071e-05
-0.000216228
-0.000510703
-0.000694253
-0.000811301
-0.00088206
-0.000916744
-0.000920977
-0.00089823
-0.000851071
-0.000781846
-0.000693041
-0.000587511
-0.000468641
-0.000340557
-0.000208459
-7.92672e-05
3.7104e-05
0.000125131
0.000157901
8.28588e-05
-1.48779e-05
7.90351e-06
0.000106134
0.000252744
0.00042336
0.000600734
0.000772906
0.000931326
0.00106964
0.00118298
0.00126759
0.00132058
0.00133967
0.00132292
0.00126826
0.00117269
0.00103092
0.000833404
0.000564807
0.000210403
0.000108637
0.000408361
0.00081194
0.00124468
0.00167272
0.00207377
0.00243155
0.00273374
0.00297088
0.00313599
0.0032242
0.00323268
0.00316046
0.00300811
0.00277739
0.00247047
0.00208856
0.00162955
0.00108317
0.000419263
8.03502e-05
0.000298947
0.000584216
0.000878386
0.00116174
0.0014221
0.00165045
0.00183981
0.00198473
0.00208121
0.00212656
0.00211942
0.00205967
0.00194833
0.00178737
0.00157938
0.00132692
0.00103108
0.00068766
0.000273812
)
;
    }
    inlet_minZ
    {
        type            calculated;
        value           nonuniform List<scalar> 
25
(
-0.000257454
-0.000226878
-0.000215354
-0.000202104
-0.000173063
-0.000345045
-0.000302945
-0.000280298
-0.000255996
-0.000216228
-9.87582e-05
-7.39839e-05
-5.18095e-05
-3.19325e-05
-1.48779e-05
1.85607e-05
6.08509e-05
8.26308e-05
9.77825e-05
0.000108637
2.97275e-05
5.87675e-05
6.94957e-05
7.58221e-05
8.03502e-05
)
;
    }
    outlet_maxZ
    {
        type            calculated;
        value           nonuniform List<scalar> 
25
(
-4.63507e-05
-3.6423e-05
-2.83185e-05
-1.48612e-05
1.79071e-05
-2.13592e-05
-3.32707e-06
1.45946e-05
3.93288e-05
8.28588e-05
0.000124046
0.000145608
0.000166702
0.000188802
0.000210403
0.00029312
0.000339345
0.000361384
0.000383046
0.000419263
0.000194065
0.000226834
0.000237595
0.000248435
0.000273812
)
;
    }
}


// ************************************************************************* //
