/*--------------------------------*- C++ -*----------------------------------*\
| =========                 |                                                 |
| \\      /  F ield         | OpenFOAM: The Open Source CFD Toolbox           |
|  \\    /   O peration     | Version:  v2106                                 |
|   \\  /    A nd           | Website:  www.openfoam.com                      |
|    \\/     M anipulation  |                                                 |
\*---------------------------------------------------------------------------*/
FoamFile
{
    version     2.0;
    format      ascii;
    arch        "LSB;label=32;scalar=64";
    class       volVectorField;
    location    "50";
    object      grad(Tmode4);
}
// * * * * * * * * * * * * * * * * * * * * * * * * * * * * * * * * * * * * * //

dimensions      [0 -1 0 0 0 0 0];

internalField   nonuniform List<vector> 
500
(
(-0.812837 -0.812837 -1.52027)
(-7.77913e-05 -0.812638 -1.51953)
(-0.000447634 -0.813276 -1.52067)
(-0.000146313 -0.813459 -1.52105)
(0.813509 -0.813504 -1.52121)
(-0.812638 -7.77913e-05 -1.51953)
(-0.000361197 -0.000361197 -1.51974)
(-0.00037314 -0.000284797 -1.52075)
(-8.16148e-05 -0.000192171 -1.52097)
(0.813454 -9.22388e-05 -1.52104)
(-0.813276 -0.000447634 -1.52067)
(-0.000284797 -0.00037314 -1.52075)
(-0.000278608 -0.000278608 -1.52159)
(4.62444e-05 -0.000192215 -1.5216)
(0.813793 -9.74234e-05 -1.52141)
(-0.813459 -0.000146313 -1.52105)
(-0.000192171 -8.16148e-05 -1.52097)
(-0.000192215 4.62444e-05 -1.5216)
(9.95699e-05 9.95699e-05 -1.52149)
(0.813744 0.000120978 -1.52122)
(-0.813504 0.813509 -1.52121)
(-9.22388e-05 0.813454 -1.52104)
(-9.74234e-05 0.813793 -1.52141)
(0.000120978 0.813744 -1.52122)
(0.813573 0.813573 -1.52099)
(-2.22696 -2.22696 -1.12077)
(-0.000319306 -2.22663 -1.12051)
(-0.00107511 -2.22814 -1.12129)
(-0.000400933 -2.22856 -1.12151)
(2.22876 -2.22875 -1.12169)
(-2.22663 -0.000319306 -1.12051)
(-0.000854641 -0.000854641 -1.12073)
(-0.000855662 -0.000642814 -1.12138)
(-0.000214647 -0.00035775 -1.1214)
(2.22855 -0.00010457 -1.1215)
(-2.22814 -0.00107511 -1.12129)
(-0.000642814 -0.000855662 -1.12138)
(-0.000578216 -0.000578216 -1.12189)
(0.000137311 -0.000327386 -1.12171)
(2.22922 -8.26021e-05 -1.12159)
(-2.22856 -0.000400933 -1.12151)
(-0.00035775 -0.000214647 -1.1214)
(-0.000327386 0.000137311 -1.12171)
(0.000280967 0.000280967 -1.12143)
(2.22896 0.000299777 -1.12127)
(-2.22875 2.22876 -1.12169)
(-0.00010457 2.22855 -1.1215)
(-8.26021e-05 2.22922 -1.12159)
(0.000299777 2.22896 -1.12127)
(2.22864 2.22864 -1.12127)
(-3.05412 -3.05412 -0.415813)
(-0.000594462 -3.05387 -0.415723)
(-0.00145038 -3.05595 -0.416262)
(-0.000550074 -3.05638 -0.416273)
(3.05672 -3.0567 -0.416387)
(-3.05387 -0.000594462 -0.415723)
(-0.00123533 -0.00123533 -0.41594)
(-0.00105232 -0.000882596 -0.416346)
(-0.000199817 -0.000390778 -0.416139)
(3.05636 1.01574e-05 -0.416166)
(-3.05595 -0.00145038 -0.416262)
(-0.000882596 -0.00105232 -0.416346)
(-0.000605825 -0.000605825 -0.41661)
(0.000342679 -0.000213636 -0.416226)
(3.0571 0.000134328 -0.416076)
(-3.05638 -0.000550074 -0.416273)
(-0.000390778 -0.000199817 -0.416139)
(-0.000213636 0.000342679 -0.416226)
(0.000540336 0.000540336 -0.41576)
(3.05644 0.000439374 -0.415608)
(-3.0567 3.05672 -0.416387)
(1.01574e-05 3.05636 -0.416166)
(0.000134328 3.0571 -0.416076)
(0.000439374 3.05644 -0.415608)
(3.05612 3.05612 -0.415762)
(-3.0585 -3.0585 0.422404)
(-0.000768101 -3.05829 0.422496)
(-0.00162486 -3.06074 0.422125)
(-0.000525268 -3.06097 0.42227)
(3.06142 -3.0613 0.422266)
(-3.05829 -0.000768101 0.422496)
(-0.0014771 -0.0014771 0.422346)
(-0.00105494 -0.000990607 0.422101)
(-3.4365e-05 -0.000310278 0.422447)
(3.06086 0.00020635 0.422506)
(-3.06074 -0.00162486 0.422125)
(-0.000990607 -0.00105494 0.422101)
(-0.000458031 -0.000458031 0.421979)
(0.000671689 5.20399e-05 0.422479)
(3.06152 0.000475168 0.422688)
(-3.06097 -0.000525268 0.42227)
(-0.000310278 -3.4365e-05 0.422447)
(5.20399e-05 0.000671689 0.422479)
(0.000898834 0.000898834 0.423039)
(3.06033 0.00061334 0.423232)
(-3.0613 3.06142 0.422266)
(0.00020635 3.06086 0.422506)
(0.000475168 3.06152 0.422688)
(0.00061334 3.06033 0.423232)
(3.06001 3.06001 0.42306)
(-2.20922 -2.20922 1.17523)
(-0.000873188 -2.20903 1.17531)
(-0.00167599 -2.21172 1.17506)
(-0.000409415 -2.21166 1.17528)
(2.21218 -2.21193 1.17533)
(-2.20903 -0.000873188 1.17531)
(-0.00163064 -0.00163064 1.1752)
(-0.000951328 -0.00102882 1.17506)
(0.000205837 -0.000182128 1.17546)
(2.21141 0.000431826 1.17556)
(-2.21172 -0.00167599 1.17506)
(-0.00102882 -0.000951328 1.17506)
(-0.000227475 -0.000227475 1.17502)
(0.00105123 0.000378342 1.17554)
(2.21193 0.000860505 1.17578)
(-2.21166 -0.000409415 1.17528)
(-0.000182128 0.000205837 1.17546)
(0.000378342 0.00105123 1.17554)
(0.00129382 0.00129382 1.17612)
(2.21017 0.000812257 1.17633)
(-2.21193 2.21218 1.17533)
(0.000431826 2.21141 1.17556)
(0.000860505 2.21193 1.17578)
(0.000812257 2.21017 1.17633)
(2.20982 2.20982 1.17618)
(-0.707959 -0.707959 1.6233)
(-0.000937167 -0.707784 1.62334)
(-0.00165076 -0.710624 1.62319)
(-0.000253136 -0.710232 1.62343)
(0.7108 -0.710405 1.62351)
(-0.707784 -0.000937167 1.62334)
(-0.00172719 -0.00172719 1.62326)
(-0.000797304 -0.0010372 1.62318)
(0.000471526 -4.80463e-05 1.62358)
(0.709836 0.0006499 1.62371)
(-0.710624 -0.00165076 1.62319)
(-0.0010372 -0.000797304 1.62318)
(2.83881e-05 2.83881e-05 1.62318)
(0.00143397 0.000711933 1.62369)
(0.710198 0.00124434 1.62392)
(-0.710232 -0.000253136 1.62343)
(-4.80463e-05 0.000471526 1.62358)
(0.000711933 0.00143397 1.62369)
(0.00168747 0.00168747 1.62422)
(0.70788 0.00101963 1.62445)
(-0.710405 0.7108 1.62351)
(0.0006499 0.709836 1.62371)
(0.00124434 0.710198 1.62392)
(0.00101963 0.70788 1.62445)
(0.707491 0.707491 1.62433)
(1.03741 1.03741 1.6041)
(-0.000975479 1.03756 1.6041)
(-0.00157945 1.03465 1.60405)
(-9.11586e-05 1.03535 1.60427)
(-1.03477 1.03529 1.60435)
(1.03756 -0.000975479 1.6041)
(-0.00178238 -0.00178238 1.60405)
(-0.000630601 -0.00103717 1.60402)
(0.000726867 7.02435e-05 1.60437)
(-1.03588 0.00083981 1.6045)
(1.03465 -0.00157945 1.60405)
(-0.00103717 -0.000630601 1.60402)
(0.000273176 0.000273176 1.60405)
(0.00178582 0.00102243 1.60448)
(-1.03568 0.0016011 1.6047)
(1.03535 -9.11586e-05 1.60427)
(7.02435e-05 0.000726867 1.60437)
(0.00102243 0.00178582 1.60448)
(0.00205479 0.00205479 1.60495)
(-1.0385 0.00122221 1.60517)
(1.03529 -1.03477 1.60435)
(0.00083981 -1.03588 1.6045)
(0.0016011 -1.03568 1.6047)
(0.00122221 -1.0385 1.60517)
(-1.03895 -1.03895 1.60509)
(2.50024 2.50024 1.07066)
(-0.000992786 2.50036 1.0706)
(-0.00148062 2.49745 1.07065)
(5.16417e-05 2.4984 1.07082)
(-2.49782 2.49844 1.0709)
(2.50036 -0.000992786 1.0706)
(-0.00179927 -0.00179927 1.07059)
(-0.000475231 -0.00103409 1.07061)
(0.000944946 0.000168119 1.07088)
(-2.49903 0.000995677 1.07099)
(2.49745 -0.00148062 1.07065)
(-0.00103409 -0.000475231 1.07061)
(0.000486767 0.000486767 1.07067)
(0.0020814 0.00129661 1.071)
(-2.49898 0.00191996 1.07119)
(2.4984 5.16417e-05 1.07082)
(0.000168119 0.000944946 1.07088)
(0.00129661 0.0020814 1.071)
(0.00237814 0.00237814 1.07139)
(-2.50225 0.00141066 1.07159)
(2.49844 -2.49782 1.0709)
(0.000995677 -2.49903 1.07099)
(0.00191996 -2.49898 1.07119)
(0.00141066 -2.50225 1.07159)
(-2.50277 -2.50277 1.07154)
(3.17867 3.17867 0.135066)
(-0.000984831 3.17876 0.134965)
(-0.00136306 3.17592 0.135117)
(0.000159422 3.17705 0.135218)
(-3.17648 3.17718 0.135292)
(3.17876 -0.000984831 0.134965)
(-0.00177065 -0.00177065 0.135)
(-0.000342314 -0.00101847 0.135081)
(0.00110708 0.000256139 0.135244)
(-3.17775 0.00112472 0.13534)
(3.17592 -0.00136306 0.135117)
(-0.00101847 -0.000342314 0.135081)
(0.000663728 0.000663728 0.135182)
(0.00230262 0.00153525 0.135406)
(-3.17787 0.00220094 0.135539)
(3.17705 0.000159422 0.135218)
(0.000256139 0.00110708 0.135244)
(0.00153525 0.00230262 0.135406)
(0.00264429 0.00264429 0.135697)
(-3.18149 0.00157739 0.13587)
(3.17718 -3.17648 0.135292)
(0.00112472 -3.17775 0.13534)
(0.00220094 -3.17787 0.135539)
(0.00157739 -3.18149 0.13587)
(-3.18209 -3.18209 0.135843)
(2.77027 2.77027 -0.925504)
(-0.000941413 2.77032 -0.925633)
(-0.00122738 2.76765 -0.925371)
(0.000226157 2.76887 -0.925338)
(-2.76833 2.76908 -0.925274)
(2.77032 -0.000941413 -0.925633)
(-0.0016826 -0.0016826 -0.925538)
(-0.000230485 -0.00096876 -0.925382)
(0.00120357 0.000356343 -0.925324)
(-2.76961 0.00124358 -0.925255)
(2.76765 -0.00122738 -0.925371)
(-0.00096876 -0.000230485 -0.925382)
(0.000811565 0.000811565 -0.925209)
(0.0024385 0.00174923 -0.925099)
(-2.76993 0.00245005 -0.925026)
(2.76887 0.000226157 -0.925338)
(0.000356343 0.00120357 -0.925324)
(0.00174923 0.0024385 -0.925099)
(0.00284205 0.00284205 -0.924905)
(-2.77381 0.00171388 -0.924783)
(2.76908 -2.76833 -0.925274)
(0.00124358 -2.76961 -0.925255)
(0.00245005 -2.76993 -0.925026)
(0.00171388 -2.77381 -0.924783)
(-2.77448 -2.77448 -0.924795)
(1.32754 1.32754 -1.72319)
(-0.000851114 1.32758 -1.72333)
(-0.00106859 1.32516 -1.72296)
(0.000256213 1.32639 -1.72298)
(-1.32587 1.32666 -1.72292)
(1.32758 -0.000851114 -1.72333)
(-0.00152024 -0.00152024 -1.72317)
(-0.000127747 -0.000857257 -1.72292)
(0.00123459 0.000495337 -1.72295)
(-1.32717 0.00137202 -1.72291)
(1.32516 -0.00106859 -1.72296)
(-0.000857257 -0.000127747 -1.72292)
(0.000946995 0.000946995 -1.72265)
(0.00248549 0.00195343 -1.72264)
(-1.32774 0.00267303 -1.72264)
(1.32639 0.000256213 -1.72298)
(0.000495337 0.00123459 -1.72295)
(0.00195343 0.00248549 -1.72264)
(0.00296063 0.00296063 -1.72254)
(-1.3318 0.00180851 -1.7225)
(1.32666 -1.32587 -1.72292)
(0.00137202 -1.32717 -1.72291)
(0.00267303 -1.32774 -1.72264)
(0.00180851 -1.3318 -1.7225)
(-1.33251 -1.33251 -1.72251)
(-0.67625 -0.67625 -1.88451)
(-0.000707388 -0.676173 -1.88463)
(-0.000879917 -0.678233 -1.88417)
(0.000263578 -0.677069 -1.88422)
(0.677574 -0.676759 -1.88416)
(-0.676173 -0.000707388 -1.88463)
(-0.00127521 -0.00127521 -1.88441)
(-1.55431e-05 -0.000659291 -1.88406)
(0.00121037 0.000694532 -1.88416)
(0.676254 0.00152487 -1.88415)
(-0.678233 -0.000879917 -1.88417)
(-0.000659291 -1.55431e-05 -1.88406)
(0.00108983 0.00108983 -1.88368)
(0.00244774 0.00215902 -1.88375)
(0.675355 0.0028687 -1.88383)
(-0.677069 0.000263578 -1.88422)
(0.000694532 0.00121037 -1.88416)
(0.00215902 0.00244774 -1.88375)
(0.00298925 0.00298925 -1.88375)
(0.671226 0.00184631 -1.8838)
(-0.676759 0.677574 -1.88416)
(0.00152487 0.676254 -1.88415)
(0.0028687 0.675355 -1.88383)
(0.00184631 0.671226 -1.8838)
(0.670519 0.670519 -1.88382)
(-2.4416 -2.4416 -1.22607)
(-0.000514494 -2.44146 -1.22617)
(-0.000657165 -2.44307 -1.22565)
(0.000269159 -2.44199 -1.22569)
(2.4425 -2.44165 -1.22562)
(-2.44146 -0.000514494 -1.22617)
(-0.000952942 -0.000952942 -1.22592)
(0.000125321 -0.000363923 -1.22547)
(0.00114991 0.000959626 -1.2256)
(2.44114 0.00170392 -1.22561)
(-2.44307 -0.000657165 -1.22565)
(-0.000363923 0.000125321 -1.22547)
(0.0012554 0.0012554 -1.22498)
(0.00233701 0.00236594 -1.22512)
(2.43984 0.0030241 -1.22526)
(-2.44199 0.000269159 -1.22569)
(0.000959626 0.00114991 -1.2256)
(0.00236594 0.00233701 -1.22512)
(0.0029186 0.0029186 -1.2252)
(2.43575 0.00181113 -1.22536)
(-2.44165 2.4425 -1.22562)
(0.00170392 2.44114 -1.22561)
(0.0030241 2.43984 -1.22526)
(0.00181113 2.43575 -1.22536)
(2.43511 2.43511 -1.22541)
(-3.12849 -3.12849 0.0836987)
(-0.000291093 -3.12827 0.0836221)
(-0.000402503 -3.12936 0.0841435)
(0.000295831 -3.12836 0.0841519)
(3.12889 -3.12799 0.0842352)
(-3.12827 -0.000291093 0.0836221)
(-0.000577285 -0.000577285 0.0838612)
(0.000307739 1.65845e-05 0.0843844)
(0.00107771 0.00127228 0.0842667)
(3.12746 0.00189229 0.0842518)
(-3.12936 -0.000402503 0.0841435)
(1.65845e-05 0.000307739 0.0843844)
(0.00144706 0.00144706 0.0849484)
(0.00217154 0.00255755 0.0847784)
(3.12573 0.00311308 0.0845835)
(-3.12836 0.000295831 0.0841519)
(0.00127228 0.00107771 0.0842667)
(0.00255755 0.00217154 0.0847784)
(0.00274373 0.00274373 0.0845993)
(3.12179 0.00168983 0.0843262)
(-3.12799 3.12889 0.0842352)
(0.00189229 3.12746 0.0842518)
(0.00311308 3.12573 0.0845835)
(0.00168983 3.12179 0.0843262)
(3.12129 3.12129 0.0842487)
(-2.27428 -2.27428 1.48099)
(-6.96983e-05 -2.27398 1.48092)
(-0.000127402 -2.27454 1.48139)
(0.000360894 -2.27357 1.48146)
(2.27412 -2.27316 1.48156)
(-2.27398 -6.96983e-05 1.48092)
(-0.00019067 -0.00019067 1.4811)
(0.000530776 0.000440962 1.48164)
(0.00101736 0.00158618 1.48156)
(2.27262 0.00205223 1.48155)
(-2.27454 -0.000127402 1.48139)
(0.000440962 0.000530776 1.48164)
(0.00164945 0.00164945 1.48221)
(0.00197216 0.00269852 1.48202)
(2.27048 0.00309847 1.48179)
(-2.27357 0.000360894 1.48146)
(0.00158618 0.00101736 1.48156)
(0.00269852 0.00197216 1.48202)
(0.00246638 0.00246638 1.48174)
(2.26682 0.00147633 1.48137)
(-2.27316 2.27412 1.48156)
(0.00205223 2.27262 1.48155)
(0.00309847 2.27048 1.48179)
(0.00147633 2.26682 1.48137)
(2.26654 2.26654 1.48127)
(-0.166589 -0.166589 2.17901)
(0.000109114 -0.16625 2.17893)
(0.000144565 -0.16633 2.17929)
(0.000465485 -0.165335 2.17943)
(0.16587 -0.164884 2.17951)
(-0.16625 0.000109114 2.17893)
(0.000150461 0.000150461 2.17902)
(0.000770915 0.000837856 2.1795)
(0.000980783 0.00182811 2.17946)
(0.164348 0.00212618 2.17944)
(-0.16633 0.000144565 2.17929)
(0.000837856 0.000770915 2.1795)
(0.00182221 0.00182221 2.17996)
(0.00175381 0.00273464 2.17975)
(0.161916 0.00293561 2.1795)
(-0.165335 0.000465485 2.17943)
(0.00182811 0.000980783 2.17946)
(0.00273464 0.00175381 2.17975)
(0.00209418 0.00209418 2.17935)
(0.158678 0.00117292 2.17892)
(-0.164884 0.16587 2.17951)
(0.00212618 0.164348 2.17944)
(0.00293561 0.161916 2.1795)
(0.00117292 0.158678 2.17892)
(0.158649 0.158649 2.17882)
(2.08366 2.08366 1.56193)
(0.000209451 2.08396 1.56181)
(0.000374705 2.08425 1.56204)
(0.000581283 2.08531 1.56218)
(-2.08482 2.08579 1.56222)
(2.08396 0.000209451 1.56181)
(0.000385779 0.000385779 1.5618)
(0.00097151 0.00111061 1.56213)
(0.000952941 0.00190422 1.56207)
(-2.08627 0.00204183 1.56203)
(2.08425 0.000374705 1.56204)
(0.00111061 0.00097151 1.56213)
(0.00189315 0.00189315 1.56237)
(0.0015125 0.00259363 1.56207)
(-2.08877 0.00257608 1.56183)
(2.08531 0.000581283 1.56218)
(0.00190422 0.000952941 1.56207)
(0.00259363 0.0015125 1.56207)
(0.00163588 0.00163588 1.56153)
(-2.09144 0.000789211 1.56108)
(2.08579 -2.08482 1.56222)
(0.00204183 -2.08627 1.56203)
(0.00257608 -2.08877 1.56183)
(0.000789211 -2.09144 1.56108)
(-2.0912 -2.0912 1.561)
(2.95715 2.95715 -0.368504)
(0.00022357 2.95736 -0.368639)
(0.000511348 2.95785 -0.368522)
(0.00063923 2.95891 -0.368504)
(-2.95852 2.95936 -0.368559)
(2.95736 0.00022357 -0.368639)
(0.000476156 0.000476156 -0.368673)
(0.00103781 0.00115977 -0.368569)
(0.000876744 0.00172307 -0.368763)
(-2.95975 0.00173492 -0.368856)
(2.95785 0.000511348 -0.368522)
(0.00115977 0.00103781 -0.368569)
(0.00175826 0.00175826 -0.368664)
(0.00121438 0.00219403 -0.369124)
(-2.96198 0.00198251 -0.369358)
(2.95891 0.00063923 -0.368504)
(0.00172307 0.000876744 -0.368763)
(0.00219403 0.00121438 -0.369124)
(0.00110099 0.00110099 -0.369843)
(-2.96393 0.000350508 -0.370216)
(2.95936 -2.95852 -0.368559)
(0.00173492 -2.95975 -0.368856)
(0.00198251 -2.96198 -0.369358)
(0.000350508 -2.96393 -0.370216)
(-2.96343 -2.96343 -0.370182)
(1.34651 1.34651 -2.81175)
(0.000192198 1.34665 -2.81186)
(0.000510546 1.34716 -2.81188)
(0.000544092 1.34804 -2.81209)
(-1.34776 1.34837 -2.81228)
(1.34665 0.000192198 -2.81186)
(0.000456617 0.000456617 -2.81191)
(0.000881953 0.000967902 -2.81209)
(0.000665671 0.00128411 -2.81253)
(-1.34866 0.00124255 -2.81272)
(1.34716 0.000510546 -2.81188)
(0.000967902 0.000881953 -2.81209)
(0.00133804 0.00133804 -2.81257)
(0.000818742 0.00151369 -2.81326)
(-1.35029 0.00121562 -2.81351)
(1.34804 0.000544092 -2.81209)
(0.00128411 0.000665671 -2.81253)
(0.00151369 0.000818742 -2.81326)
(0.00054325 0.00054325 -2.81412)
(-1.35138 -3.45513e-05 -2.81431)
(1.34837 -1.34776 -2.81228)
(0.00124255 -1.34866 -2.81272)
(0.00121562 -1.35029 -2.81351)
(-3.45513e-05 -1.35138 -2.81431)
(-1.3508 -1.3508 -2.81407)
(-2.66647 -2.66647 0.659999)
(9.80969e-05 -2.66642 0.659952)
(0.00028386 -2.66612 0.659709)
(0.00023052 -2.66571 0.659158)
(2.66585 -2.66564 0.658934)
(-2.66642 9.80969e-05 0.659952)
(0.000246893 0.000246893 0.659815)
(0.000423618 0.000460607 0.659249)
(0.000249475 0.000551381 0.65851)
(2.6655 0.000508875 0.658334)
(-2.66612 0.00028386 0.659709)
(0.000460607 0.000423618 0.659249)
(0.000588348 0.000588348 0.65828)
(0.000278788 0.000606565 0.657322)
(2.66479 0.00039204 0.657182)
(-2.66571 0.00023052 0.659158)
(0.000551381 0.000249475 0.65851)
(0.000606565 0.000278788 0.657322)
(5.31671e-05 5.31671e-05 0.65639)
(2.6645 -0.000204928 0.656726)
(-2.66564 2.66585 0.658934)
(0.000508875 2.6655 0.658334)
(0.00039204 2.66479 0.657182)
(-0.000204928 2.6645 0.656726)
(2.66495 2.66495 0.657422)
)
;

boundaryField
{
    wall_minX
    {
        type            extrapolatedCalculated;
        value           nonuniform List<vector> 
100
(
(0 -0.812837 -1.52027)
(0 -7.77913e-05 -1.51953)
(0 -0.000447634 -1.52067)
(0 -0.000146313 -1.52105)
(0 0.813509 -1.52121)
(0 -2.22696 -1.12077)
(0 -0.000319306 -1.12051)
(0 -0.00107511 -1.12129)
(0 -0.000400933 -1.12151)
(0 2.22876 -1.12169)
(0 -3.05412 -0.415813)
(0 -0.000594462 -0.415723)
(0 -0.00145038 -0.416262)
(0 -0.000550074 -0.416273)
(0 3.05672 -0.416387)
(0 -3.0585 0.422404)
(0 -0.000768101 0.422496)
(0 -0.00162486 0.422125)
(0 -0.000525268 0.42227)
(0 3.06142 0.422266)
(0 -2.20922 1.17523)
(0 -0.000873188 1.17531)
(0 -0.00167599 1.17506)
(0 -0.000409415 1.17528)
(0 2.21218 1.17533)
(0 -0.707959 1.6233)
(0 -0.000937167 1.62334)
(0 -0.00165076 1.62319)
(0 -0.000253136 1.62343)
(0 0.7108 1.62351)
(0 1.03741 1.6041)
(0 -0.000975479 1.6041)
(0 -0.00157945 1.60405)
(0 -9.11586e-05 1.60427)
(0 -1.03477 1.60435)
(0 2.50024 1.07066)
(0 -0.000992786 1.0706)
(0 -0.00148062 1.07065)
(0 5.16417e-05 1.07082)
(0 -2.49782 1.0709)
(0 3.17867 0.135066)
(0 -0.000984831 0.134965)
(0 -0.00136306 0.135117)
(0 0.000159422 0.135218)
(0 -3.17648 0.135292)
(0 2.77027 -0.925504)
(0 -0.000941413 -0.925633)
(0 -0.00122738 -0.925371)
(0 0.000226157 -0.925338)
(0 -2.76833 -0.925274)
(0 1.32754 -1.72319)
(0 -0.000851114 -1.72333)
(0 -0.00106859 -1.72296)
(0 0.000256213 -1.72298)
(0 -1.32587 -1.72292)
(0 -0.67625 -1.88451)
(0 -0.000707388 -1.88463)
(0 -0.000879917 -1.88417)
(0 0.000263578 -1.88422)
(0 0.677574 -1.88416)
(0 -2.4416 -1.22607)
(0 -0.000514494 -1.22617)
(0 -0.000657165 -1.22565)
(0 0.000269159 -1.22569)
(0 2.4425 -1.22562)
(0 -3.12849 0.0836987)
(0 -0.000291093 0.0836221)
(0 -0.000402503 0.0841435)
(0 0.000295831 0.0841519)
(0 3.12889 0.0842352)
(0 -2.27428 1.48099)
(0 -6.96983e-05 1.48092)
(0 -0.000127402 1.48139)
(0 0.000360894 1.48146)
(0 2.27412 1.48156)
(0 -0.166589 2.17901)
(0 0.000109114 2.17893)
(0 0.000144565 2.17929)
(0 0.000465485 2.17943)
(0 0.16587 2.17951)
(0 2.08366 1.56193)
(0 0.000209451 1.56181)
(0 0.000374705 1.56204)
(0 0.000581283 1.56218)
(0 -2.08482 1.56222)
(0 2.95715 -0.368504)
(0 0.00022357 -0.368639)
(0 0.000511348 -0.368522)
(0 0.00063923 -0.368504)
(0 -2.95852 -0.368559)
(0 1.34651 -2.81175)
(0 0.000192198 -2.81186)
(0 0.000510546 -2.81188)
(0 0.000544092 -2.81209)
(0 -1.34776 -2.81228)
(0 -2.66647 0.659999)
(0 9.80969e-05 0.659952)
(0 0.00028386 0.659709)
(0 0.00023052 0.659158)
(0 2.66585 0.658934)
)
;
    }
    wall_maxX
    {
        type            extrapolatedCalculated;
        value           nonuniform List<vector> 
100
(
(0 -0.813504 -1.52121)
(0 -9.22388e-05 -1.52104)
(0 -9.74234e-05 -1.52141)
(0 0.000120978 -1.52122)
(0 0.813573 -1.52099)
(0 -2.22875 -1.12169)
(0 -0.00010457 -1.1215)
(0 -8.26021e-05 -1.12159)
(0 0.000299777 -1.12127)
(0 2.22864 -1.12127)
(0 -3.0567 -0.416387)
(0 1.01574e-05 -0.416166)
(0 0.000134328 -0.416076)
(0 0.000439374 -0.415608)
(0 3.05612 -0.415762)
(0 -3.0613 0.422266)
(0 0.00020635 0.422506)
(0 0.000475168 0.422688)
(0 0.00061334 0.423232)
(0 3.06001 0.42306)
(0 -2.21193 1.17533)
(0 0.000431826 1.17556)
(0 0.000860505 1.17578)
(0 0.000812257 1.17633)
(0 2.20982 1.17618)
(0 -0.710405 1.62351)
(0 0.0006499 1.62371)
(0 0.00124434 1.62392)
(0 0.00101963 1.62445)
(0 0.707491 1.62433)
(0 1.03529 1.60435)
(0 0.00083981 1.6045)
(0 0.0016011 1.6047)
(0 0.00122221 1.60517)
(0 -1.03895 1.60509)
(0 2.49844 1.0709)
(0 0.000995677 1.07099)
(0 0.00191996 1.07119)
(0 0.00141066 1.07159)
(0 -2.50277 1.07154)
(0 3.17718 0.135292)
(0 0.00112472 0.13534)
(0 0.00220094 0.135539)
(0 0.00157739 0.13587)
(0 -3.18209 0.135843)
(0 2.76908 -0.925274)
(0 0.00124358 -0.925255)
(0 0.00245005 -0.925026)
(0 0.00171388 -0.924783)
(0 -2.77448 -0.924795)
(0 1.32666 -1.72292)
(0 0.00137202 -1.72291)
(0 0.00267303 -1.72264)
(0 0.00180851 -1.7225)
(0 -1.33251 -1.72251)
(0 -0.676759 -1.88416)
(0 0.00152487 -1.88415)
(0 0.0028687 -1.88383)
(0 0.00184631 -1.8838)
(0 0.670519 -1.88382)
(0 -2.44165 -1.22562)
(0 0.00170392 -1.22561)
(0 0.0030241 -1.22526)
(0 0.00181113 -1.22536)
(0 2.43511 -1.22541)
(0 -3.12799 0.0842352)
(0 0.00189229 0.0842518)
(0 0.00311308 0.0845835)
(0 0.00168983 0.0843262)
(0 3.12129 0.0842487)
(0 -2.27316 1.48156)
(0 0.00205223 1.48155)
(0 0.00309847 1.48179)
(0 0.00147633 1.48137)
(0 2.26654 1.48127)
(0 -0.164884 2.17951)
(0 0.00212618 2.17944)
(0 0.00293561 2.1795)
(0 0.00117292 2.17892)
(0 0.158649 2.17882)
(0 2.08579 1.56222)
(0 0.00204183 1.56203)
(0 0.00257608 1.56183)
(0 0.000789211 1.56108)
(0 -2.0912 1.561)
(0 2.95936 -0.368559)
(0 0.00173492 -0.368856)
(0 0.00198251 -0.369358)
(0 0.000350508 -0.370216)
(0 -2.96343 -0.370182)
(0 1.34837 -2.81228)
(0 0.00124255 -2.81272)
(0 0.00121562 -2.81351)
(0 -3.45513e-05 -2.81431)
(0 -1.3508 -2.81407)
(0 -2.66564 0.658934)
(0 0.000508875 0.658334)
(0 0.00039204 0.657182)
(0 -0.000204928 0.656726)
(0 2.66495 0.657422)
)
;
    }
    wall_minY
    {
        type            extrapolatedCalculated;
        value           nonuniform List<vector> 
100
(
(-0.812837 0 -1.52027)
(-2.22696 0 -1.12077)
(-3.05412 0 -0.415813)
(-3.0585 0 0.422404)
(-2.20922 0 1.17523)
(-0.707959 0 1.6233)
(1.03741 0 1.6041)
(2.50024 0 1.07066)
(3.17867 0 0.135066)
(2.77027 0 -0.925504)
(1.32754 0 -1.72319)
(-0.67625 0 -1.88451)
(-2.4416 0 -1.22607)
(-3.12849 0 0.0836987)
(-2.27428 0 1.48099)
(-0.166589 0 2.17901)
(2.08366 0 1.56193)
(2.95715 0 -0.368504)
(1.34651 0 -2.81175)
(-2.66647 0 0.659999)
(-7.77913e-05 0 -1.51953)
(-0.000319306 0 -1.12051)
(-0.000594462 0 -0.415723)
(-0.000768101 0 0.422496)
(-0.000873188 0 1.17531)
(-0.000937167 0 1.62334)
(-0.000975479 0 1.6041)
(-0.000992786 0 1.0706)
(-0.000984831 0 0.134965)
(-0.000941413 0 -0.925633)
(-0.000851114 0 -1.72333)
(-0.000707388 0 -1.88463)
(-0.000514494 0 -1.22617)
(-0.000291093 0 0.0836221)
(-6.96983e-05 0 1.48092)
(0.000109114 0 2.17893)
(0.000209451 0 1.56181)
(0.00022357 0 -0.368639)
(0.000192198 0 -2.81186)
(9.80969e-05 0 0.659952)
(-0.000447634 0 -1.52067)
(-0.00107511 0 -1.12129)
(-0.00145038 0 -0.416262)
(-0.00162486 0 0.422125)
(-0.00167599 0 1.17506)
(-0.00165076 0 1.62319)
(-0.00157945 0 1.60405)
(-0.00148062 0 1.07065)
(-0.00136306 0 0.135117)
(-0.00122738 0 -0.925371)
(-0.00106859 0 -1.72296)
(-0.000879917 0 -1.88417)
(-0.000657165 0 -1.22565)
(-0.000402503 0 0.0841435)
(-0.000127402 0 1.48139)
(0.000144565 0 2.17929)
(0.000374705 0 1.56204)
(0.000511348 0 -0.368522)
(0.000510546 0 -2.81188)
(0.00028386 0 0.659709)
(-0.000146313 0 -1.52105)
(-0.000400933 0 -1.12151)
(-0.000550074 0 -0.416273)
(-0.000525268 0 0.42227)
(-0.000409415 0 1.17528)
(-0.000253136 0 1.62343)
(-9.11586e-05 0 1.60427)
(5.16417e-05 0 1.07082)
(0.000159422 0 0.135218)
(0.000226157 0 -0.925338)
(0.000256213 0 -1.72298)
(0.000263578 0 -1.88422)
(0.000269159 0 -1.22569)
(0.000295831 0 0.0841519)
(0.000360894 0 1.48146)
(0.000465485 0 2.17943)
(0.000581283 0 1.56218)
(0.00063923 0 -0.368504)
(0.000544092 0 -2.81209)
(0.00023052 0 0.659158)
(0.813509 0 -1.52121)
(2.22876 0 -1.12169)
(3.05672 0 -0.416387)
(3.06142 0 0.422266)
(2.21218 0 1.17533)
(0.7108 0 1.62351)
(-1.03477 0 1.60435)
(-2.49782 0 1.0709)
(-3.17648 0 0.135292)
(-2.76833 0 -0.925274)
(-1.32587 0 -1.72292)
(0.677574 0 -1.88416)
(2.4425 0 -1.22562)
(3.12889 0 0.0842352)
(2.27412 0 1.48156)
(0.16587 0 2.17951)
(-2.08482 0 1.56222)
(-2.95852 0 -0.368559)
(-1.34776 0 -2.81228)
(2.66585 0 0.658934)
)
;
    }
    wall_maxY
    {
        type            extrapolatedCalculated;
        value           nonuniform List<vector> 
100
(
(-0.813504 0 -1.52121)
(-2.22875 0 -1.12169)
(-3.0567 0 -0.416387)
(-3.0613 0 0.422266)
(-2.21193 0 1.17533)
(-0.710405 0 1.62351)
(1.03529 0 1.60435)
(2.49844 0 1.0709)
(3.17718 0 0.135292)
(2.76908 0 -0.925274)
(1.32666 0 -1.72292)
(-0.676759 0 -1.88416)
(-2.44165 0 -1.22562)
(-3.12799 0 0.0842352)
(-2.27316 0 1.48156)
(-0.164884 0 2.17951)
(2.08579 0 1.56222)
(2.95936 0 -0.368559)
(1.34837 0 -2.81228)
(-2.66564 0 0.658934)
(-9.22388e-05 0 -1.52104)
(-0.00010457 0 -1.1215)
(1.01574e-05 0 -0.416166)
(0.00020635 0 0.422506)
(0.000431826 0 1.17556)
(0.0006499 0 1.62371)
(0.00083981 0 1.6045)
(0.000995677 0 1.07099)
(0.00112472 0 0.13534)
(0.00124358 0 -0.925255)
(0.00137202 0 -1.72291)
(0.00152487 0 -1.88415)
(0.00170392 0 -1.22561)
(0.00189229 0 0.0842518)
(0.00205223 0 1.48155)
(0.00212618 0 2.17944)
(0.00204183 0 1.56203)
(0.00173492 0 -0.368856)
(0.00124255 0 -2.81272)
(0.000508875 0 0.658334)
(-9.74234e-05 0 -1.52141)
(-8.26021e-05 0 -1.12159)
(0.000134328 0 -0.416076)
(0.000475168 0 0.422688)
(0.000860505 0 1.17578)
(0.00124434 0 1.62392)
(0.0016011 0 1.6047)
(0.00191996 0 1.07119)
(0.00220094 0 0.135539)
(0.00245005 0 -0.925026)
(0.00267303 0 -1.72264)
(0.0028687 0 -1.88383)
(0.0030241 0 -1.22526)
(0.00311308 0 0.0845835)
(0.00309847 0 1.48179)
(0.00293561 0 2.1795)
(0.00257608 0 1.56183)
(0.00198251 0 -0.369358)
(0.00121562 0 -2.81351)
(0.00039204 0 0.657182)
(0.000120978 0 -1.52122)
(0.000299777 0 -1.12127)
(0.000439374 0 -0.415608)
(0.00061334 0 0.423232)
(0.000812257 0 1.17633)
(0.00101963 0 1.62445)
(0.00122221 0 1.60517)
(0.00141066 0 1.07159)
(0.00157739 0 0.13587)
(0.00171388 0 -0.924783)
(0.00180851 0 -1.7225)
(0.00184631 0 -1.8838)
(0.00181113 0 -1.22536)
(0.00168983 0 0.0843262)
(0.00147633 0 1.48137)
(0.00117292 0 2.17892)
(0.000789211 0 1.56108)
(0.000350508 0 -0.370216)
(-3.45513e-05 0 -2.81431)
(-0.000204928 0 0.656726)
(0.813573 0 -1.52099)
(2.22864 0 -1.12127)
(3.05612 0 -0.415762)
(3.06001 0 0.42306)
(2.20982 0 1.17618)
(0.707491 0 1.62433)
(-1.03895 0 1.60509)
(-2.50277 0 1.07154)
(-3.18209 0 0.135843)
(-2.77448 0 -0.924795)
(-1.33251 0 -1.72251)
(0.670519 0 -1.88382)
(2.43511 0 -1.22541)
(3.12129 0 0.0842487)
(2.26654 0 1.48127)
(0.158649 0 2.17882)
(-2.0912 0 1.561)
(-2.96343 0 -0.370182)
(-1.3508 0 -2.81407)
(2.66495 0 0.657422)
)
;
    }
    inlet_minZ
    {
        type            extrapolatedCalculated;
        value           nonuniform List<vector> 
25
(
(-0.812837 -0.812837 -1.62619)
(-0.812638 -7.77913e-05 -1.62516)
(-0.813276 -0.000447634 -1.6265)
(-0.813459 -0.000146313 -1.62695)
(-0.813504 0.813509 -1.62709)
(-7.77913e-05 -0.812638 -1.62516)
(-0.000361197 -0.000361197 -1.6254)
(-0.000284797 -0.00037314 -1.6266)
(-0.000192171 -8.16148e-05 -1.62689)
(-9.22388e-05 0.813454 -1.62693)
(-0.000447634 -0.813276 -1.6265)
(-0.00037314 -0.000284797 -1.6266)
(-0.000278608 -0.000278608 -1.62764)
(-0.000192215 4.62444e-05 -1.62772)
(-9.74234e-05 0.813793 -1.62746)
(-0.000146313 -0.813459 -1.62695)
(-8.16148e-05 -0.000192171 -1.62689)
(4.62444e-05 -0.000192215 -1.62772)
(9.95699e-05 9.95699e-05 -1.62766)
(0.000120978 0.813744 -1.62732)
(0.813509 -0.813504 -1.62709)
(0.813454 -9.22388e-05 -1.62693)
(0.813793 -9.74234e-05 -1.62746)
(0.813744 0.000120978 -1.62732)
(0.813573 0.813573 -1.62697)
)
;
    }
    outlet_maxZ
    {
        type            extrapolatedCalculated;
        value           nonuniform List<vector> 
25
(
(-2.66647 -2.66647 5.33293)
(-2.66642 9.80969e-05 5.33293)
(-2.66612 0.00028386 5.33254)
(-2.66571 0.00023052 5.3318)
(-2.66564 2.66585 5.33162)
(9.80969e-05 -2.66642 5.33293)
(0.000246893 0.000246893 5.33274)
(0.000460607 0.000423618 5.33195)
(0.000551381 0.000249475 5.33105)
(0.000508875 2.6655 5.33095)
(0.00028386 -2.66612 5.33254)
(0.000423618 0.000460607 5.33195)
(0.000588348 0.000588348 5.3307)
(0.000606565 0.000278788 5.32959)
(0.00039204 2.66479 5.32958)
(0.00023052 -2.66571 5.3318)
(0.000249475 0.000551381 5.33105)
(0.000278788 0.000606565 5.32959)
(5.31671e-05 5.31671e-05 5.32862)
(-0.000204928 2.6645 5.32938)
(2.66585 -2.66564 5.33162)
(2.6655 0.000508875 5.33095)
(2.66479 0.00039204 5.32958)
(2.6645 -0.000204928 5.32938)
(2.66495 2.66495 5.3304)
)
;
    }
}


// ************************************************************************* //
