/*--------------------------------*- C++ -*----------------------------------*\
| =========                 |                                                 |
| \\      /  F ield         | OpenFOAM: The Open Source CFD Toolbox           |
|  \\    /   O peration     | Version:  v2106                                 |
|   \\  /    A nd           | Website:  www.openfoam.com                      |
|    \\/     M anipulation  |                                                 |
\*---------------------------------------------------------------------------*/
FoamFile
{
    version     2.0;
    format      ascii;
    arch        "LSB;label=32;scalar=64";
    class       volVectorField;
    location    "50";
    object      grad(Tmode3);
}
// * * * * * * * * * * * * * * * * * * * * * * * * * * * * * * * * * * * * * //

dimensions      [0 -1 0 0 0 0 0];

internalField   nonuniform List<vector> 
500
(
(-0.534509 -0.534509 -1.03429)
(-2.01822e-06 -0.53449 -1.03424)
(-3.4598e-05 -0.534534 -1.03431)
(-1.78679e-05 -0.534558 -1.03436)
(0.534564 -0.534565 -1.03438)
(-0.53449 -2.01822e-06 -1.03424)
(-2.31866e-05 -2.31866e-05 -1.03424)
(-3.30829e-05 -2.1215e-05 -1.03432)
(-1.31775e-05 -1.33687e-05 -1.03435)
(0.53456 -5.89158e-06 -1.03436)
(-0.534534 -3.4598e-05 -1.03431)
(-2.1215e-05 -3.30829e-05 -1.03432)
(-2.47801e-05 -2.47801e-05 -1.03438)
(-2.5445e-06 -1.53468e-05 -1.0344)
(0.534583 -6.82367e-06 -1.03439)
(-0.534558 -1.78679e-05 -1.03436)
(-1.33687e-05 -1.31775e-05 -1.03435)
(-1.53468e-05 -2.5445e-06 -1.0344)
(4.77901e-06 4.77902e-06 -1.03439)
(0.534582 8.18513e-06 -1.03437)
(-0.534565 0.534564 -1.03438)
(-5.89158e-06 0.53456 -1.03436)
(-6.82367e-06 0.534583 -1.03439)
(8.18513e-06 0.534582 -1.03437)
(0.53457 0.53457 -1.03436)
(-1.53402 -1.53402 -0.898156)
(-1.85712e-05 -1.53399 -0.898136)
(-8.60841e-05 -1.5341 -0.898193)
(-4.54742e-05 -1.53415 -0.898218)
(1.53417 -1.53417 -0.898235)
(-1.53399 -1.85712e-05 -0.898136)
(-5.93825e-05 -5.93825e-05 -0.898149)
(-7.60116e-05 -4.8477e-05 -0.898199)
(-3.15104e-05 -2.4352e-05 -0.898209)
(1.53416 -5.02621e-06 -0.89822)
(-1.5341 -8.60841e-05 -0.898193)
(-4.8477e-05 -7.60116e-05 -0.898199)
(-5.10536e-05 -5.10536e-05 -0.898234)
(-2.02339e-06 -2.45437e-05 -0.898226)
(1.5342 -2.97021e-06 -0.89822)
(-1.53415 -4.54742e-05 -0.898218)
(-2.4352e-05 -3.15104e-05 -0.898209)
(-2.45437e-05 -2.02339e-06 -0.898226)
(1.65729e-05 1.65729e-05 -0.898205)
(1.53418 2.15073e-05 -0.898194)
(-1.53417 1.53417 -0.898235)
(-5.02621e-06 1.53416 -0.89822)
(-2.97021e-06 1.5342 -0.89822)
(2.15073e-05 1.53418 -0.898194)
(1.53416 1.53416 -0.898195)
(-2.3308 -2.3308 -0.637772)
(-3.91551e-05 -2.33078 -0.637763)
(-0.000117168 -2.33093 -0.637802)
(-5.95142e-05 -2.33099 -0.637805)
(2.33102 -2.33102 -0.637812)
(-2.33078 -3.91551e-05 -0.637763)
(-8.63683e-05 -8.63683e-05 -0.637776)
(-9.31609e-05 -6.22313e-05 -0.637802)
(-3.36969e-05 -2.09064e-05 -0.637789)
(2.33099 9.04954e-06 -0.637791)
(-2.33093 -0.000117168 -0.637802)
(-6.22313e-05 -9.31609e-05 -0.637802)
(-5.17065e-05 -5.17065e-05 -0.637814)
(1.17666e-05 -1.10998e-05 -0.637784)
(2.33103 1.84417e-05 -0.637773)
(-2.33099 -5.95142e-05 -0.637805)
(-2.09064e-05 -3.36969e-05 -0.637789)
(-1.10998e-05 1.17666e-05 -0.637784)
(3.64514e-05 3.64514e-05 -0.637746)
(2.33098 3.31621e-05 -0.637736)
(-2.33102 2.33102 -0.637812)
(9.04954e-06 2.33099 -0.637791)
(1.84417e-05 2.33103 -0.637773)
(3.31621e-05 2.33098 -0.637736)
(2.33096 2.33096 -0.637748)
(-2.80955 -2.80955 -0.277399)
(-4.90595e-05 -2.80953 -0.277387)
(-0.000127689 -2.8097 -0.27741)
(-5.569e-05 -2.80974 -0.277392)
(2.80979 -2.80978 -0.277389)
(-2.80953 -4.90595e-05 -0.277387)
(-9.86479e-05 -9.86479e-05 -0.277393)
(-8.83019e-05 -6.00633e-05 -0.2774)
(-1.96499e-05 -3.47099e-06 -0.277368)
(2.80974 3.38932e-05 -0.277361)
(-2.8097 -0.000127689 -0.27741)
(-6.00633e-05 -8.83019e-05 -0.2774)
(-3.25126e-05 -3.25126e-05 -0.277394)
(3.82665e-05 1.82364e-05 -0.277349)
(2.80976 5.14467e-05 -0.277333)
(-2.80974 -5.569e-05 -0.277392)
(-3.47099e-06 -1.96499e-05 -0.277368)
(1.82364e-05 3.82665e-05 -0.277349)
(6.43094e-05 6.43094e-05 -0.2773)
(2.80967 4.72312e-05 -0.277289)
(-2.80978 2.80979 -0.277389)
(3.38932e-05 2.80974 -0.277361)
(5.14467e-05 2.80976 -0.277333)
(4.72312e-05 2.80967 -0.277289)
(2.80964 2.80964 -0.277303)
(-2.88559 -2.88559 0.14557)
(-4.93377e-05 -2.88556 0.145586)
(-0.000122229 -2.88574 0.145576)
(-3.86654e-05 -2.88575 0.145609)
(2.8858 -2.88577 0.145619)
(-2.88556 -4.93377e-05 0.145586)
(-9.949e-05 -9.949e-05 0.145585)
(-6.7357e-05 -4.66734e-05 0.145592)
(5.81123e-06 2.22825e-05 0.145638)
(2.88572 6.46872e-05 0.145651)
(-2.88574 -0.000122229 0.145576)
(-4.66734e-05 -6.7357e-05 0.145592)
(-4.56536e-07 -4.56536e-07 0.145609)
(7.26952e-05 5.61551e-05 0.145664)
(2.88571 8.98603e-05 0.145682)
(-2.88575 -3.86654e-05 0.145609)
(2.22825e-05 5.81123e-06 0.145638)
(5.61551e-05 7.26952e-05 0.145664)
(9.61281e-05 9.61281e-05 0.145717)
(2.88557 6.29524e-05 0.145728)
(-2.88577 2.8858 0.145619)
(6.46872e-05 2.88572 0.145651)
(8.98603e-05 2.88571 0.145682)
(6.29524e-05 2.88557 0.145728)
(2.88555 2.88555 0.145714)
(-2.5184 -2.5184 0.580118)
(-4.30441e-05 -2.51836 0.580136)
(-0.000104975 -2.51853 0.580134)
(-1.20723e-05 -2.5185 0.580179)
(2.51856 -2.51851 0.580194)
(-2.51836 -4.30441e-05 0.580136)
(-9.25712e-05 -9.25712e-05 0.580137)
(-3.49749e-05 -2.647e-05 0.580154)
(3.90387e-05 5.14364e-05 0.58021)
(2.51845 9.69503e-05 0.580226)
(-2.51853 -0.000104975 0.580134)
(-2.647e-05 -3.49749e-05 0.580154)
(3.90326e-05 3.90326e-05 0.580178)
(0.000111348 9.69551e-05 0.580236)
(2.51841 0.000128814 0.580256)
(-2.5185 -1.20723e-05 0.580179)
(5.14364e-05 3.90387e-05 0.58021)
(9.69551e-05 0.000111348 0.580236)
(0.00012882 0.00012882 0.58029)
(2.51822 7.87126e-05 0.5803)
(-2.51851 2.51856 0.580194)
(9.69503e-05 2.51845 0.580226)
(0.000128814 2.51841 0.580256)
(7.87126e-05 2.51822 0.5803)
(2.5182 2.5182 0.580286)
(-1.72533 -1.72533 0.962501)
(-3.29379e-05 -1.72528 0.962519)
(-7.91936e-05 -1.72545 0.962523)
(2.14876e-05 -1.72536 0.962576)
(1.72542 -1.72535 0.962595)
(-1.72528 -3.29379e-05 0.962519)
(-8.10738e-05 -8.10738e-05 0.962521)
(5.1879e-06 -3.30272e-06 0.962544)
(7.73817e-05 7.97211e-05 0.962605)
(1.72528 0.000126683 0.962623)
(-1.72545 -7.91936e-05 0.962523)
(-3.30272e-06 5.1879e-06 0.962544)
(8.16013e-05 8.16013e-05 0.962568)
(0.000151474 0.000135984 0.962628)
(1.72522 0.000164202 0.962648)
(-1.72536 2.14876e-05 0.962576)
(7.97211e-05 7.73817e-05 0.962605)
(0.000135984 0.000151474 0.962628)
(0.000159982 0.000159982 0.962677)
(1.72498 9.2895e-05 0.962687)
(-1.72535 1.72542 0.962595)
(0.000126683 1.72528 0.962623)
(0.000164202 1.72522 0.962648)
(9.2895e-05 1.72498 0.962687)
(1.72496 1.72496 0.962673)
(-0.593378 -0.593378 1.21999)
(-2.1572e-05 -0.593318 1.22)
(-4.7871e-05 -0.593468 1.22001)
(5.96439e-05 -0.593316 1.22007)
(0.593388 -0.59329 1.22009)
(-0.593318 -2.1572e-05 1.22)
(-6.80318e-05 -6.80318e-05 1.22)
(4.96262e-05 1.89852e-05 1.22003)
(0.000118494 0.000103004 1.22009)
(0.593218 0.000150103 1.22011)
(-0.593468 -4.7871e-05 1.22001)
(1.89852e-05 4.96262e-05 1.22003)
(0.000123165 0.000123165 1.22005)
(0.000190761 0.00016903 1.2201)
(0.593135 0.000192412 1.22012)
(-0.593316 5.96439e-05 1.22007)
(0.000103004 0.000118494 1.22009)
(0.00016903 0.000190761 1.2201)
(0.00018774 0.00018774 1.22015)
(0.592857 0.000104254 1.22015)
(-0.59329 0.593388 1.22009)
(0.000150103 0.593218 1.22011)
(0.000192412 0.593135 1.22012)
(0.000104254 0.592857 1.22015)
(0.592843 0.592843 1.22014)
(0.714654 0.714654 1.27944)
(-1.14125e-05 0.71472 1.27945)
(-1.41085e-05 0.714586 1.27945)
(9.97617e-05 0.7148 1.27951)
(-0.714728 0.714846 1.27953)
(0.71472 -1.14125e-05 1.27945)
(-5.64592e-05 -5.64592e-05 1.27944)
(9.45228e-05 3.63794e-05 1.27947)
(0.000159899 0.000117223 1.27953)
(-0.714918 0.000163666 1.27955)
(0.714586 -1.41085e-05 1.27945)
(3.63794e-05 9.45228e-05 1.27947)
(0.000159574 0.000159574 1.27948)
(0.000227049 0.000192211 1.27953)
(-0.715009 0.000210399 1.27955)
(0.7148 9.97617e-05 1.27951)
(0.000117223 0.000159899 1.27953)
(0.000192211 0.000227049 1.27953)
(0.000210724 0.000210724 1.27956)
(-0.71532 0.0001121 1.27957)
(0.714846 -0.714728 1.27953)
(0.000163666 -0.714918 1.27955)
(0.000210399 -0.715009 1.27955)
(0.0001121 -0.71532 1.27957)
(-0.715332 -0.715332 1.27956)
(1.96551 1.96551 1.08276)
(-4.68576e-06 1.96557 1.08276)
(1.88424e-05 1.96545 1.08276)
(0.000138735 1.96573 1.08282)
(-1.96566 1.96579 1.08284)
(1.96557 -4.68576e-06 1.08276)
(-4.91186e-05 -4.91186e-05 1.08275)
(0.000135693 4.49655e-05 1.08277)
(0.000198801 0.000118759 1.08283)
(-1.96586 0.000164436 1.08284)
(1.96545 1.88424e-05 1.08276)
(4.49655e-05 0.000135693 1.08277)
(0.00018672 0.00018672 1.08277)
(0.000258206 0.000202264 1.08281)
(-1.96594 0.000216021 1.08283)
(1.96573 0.000138735 1.08282)
(0.000118759 0.000198801 1.08283)
(0.000202264 0.000258206 1.08281)
(0.000228102 0.000228102 1.08283)
(-1.96628 0.000116403 1.08284)
(1.96579 -1.96566 1.08284)
(0.000164436 -1.96586 1.08284)
(0.000216021 -1.96594 1.08283)
(0.000116403 -1.96628 1.08284)
(-1.96629 -1.96629 1.08283)
(2.88017 2.88017 0.609901)
(-2.99816e-06 2.88023 0.609897)
(4.78185e-05 2.88012 0.609899)
(0.000173014 2.88045 0.609949)
(-2.88039 2.88053 0.609959)
(2.88023 -2.99816e-06 0.609897)
(-4.80251e-05 -4.80251e-05 0.609884)
(0.000168847 4.15447e-05 0.609893)
(0.000232077 0.000105122 0.609938)
(-2.88059 0.000150653 0.60995)
(2.88012 4.78185e-05 0.609899)
(4.15447e-05 0.000168847 0.609893)
(0.000200965 0.000200965 0.609879)
(0.000282123 0.000197078 0.609906)
(-2.88064 0.000208478 0.609917)
(2.88045 0.000173014 0.609949)
(0.000105122 0.000232077 0.609938)
(0.000197078 0.000282123 0.609906)
(0.00023959 0.00023959 0.609912)
(-2.88099 0.000117775 0.609923)
(2.88053 -2.88039 0.609959)
(0.000150653 -2.88059 0.60995)
(0.000208478 -2.88064 0.609917)
(0.000117775 -2.88099 0.609923)
(-2.881 -2.881 0.609918)
(3.18531 3.18531 -0.0932238)
(-6.88054e-06 3.18536 -0.0932372)
(7.0105e-05 3.18525 -0.0932363)
(0.000198806 3.18562 -0.0932013)
(-3.18557 3.1857 -0.0931969)
(3.18536 -6.88054e-06 -0.0932372)
(-5.38784e-05 -5.38784e-05 -0.0932527)
(0.000190037 2.43961e-05 -0.0932549)
(0.000256391 7.57067e-05 -0.0932254)
(-3.18575 0.000122307 -0.0932186)
(3.18525 7.0105e-05 -0.0932363)
(2.43961e-05 0.000190037 -0.0932549)
(0.00019969 0.00019969 -0.0932839)
(0.000296717 0.000176224 -0.093274)
(-3.18577 0.000188633 -0.0932661)
(3.18562 0.000198806 -0.0932013)
(7.57067e-05 0.000256391 -0.0932254)
(0.000176224 0.000296717 -0.093274)
(0.000245334 0.000245334 -0.0932813)
(-3.18611 0.000117276 -0.093268)
(3.1857 -3.18557 -0.0931969)
(0.000122307 -3.18575 -0.0932186)
(0.000188633 -3.18577 -0.0932661)
(0.000117276 -3.18611 -0.093268)
(-3.18613 -3.18613 -0.0932678)
(2.69371 2.69371 -0.890948)
(-1.54582e-05 2.69374 -0.890971)
(8.37596e-05 2.69363 -0.890968)
(0.0002124 2.69402 -0.890953)
(-2.69399 2.69411 -0.890956)
(2.69374 -1.54582e-05 -0.890971)
(-6.56547e-05 -6.56547e-05 -0.890985)
(0.000196137 -6.049e-06 -0.890997)
(0.000268383 3.23745e-05 -0.89099)
(-2.69414 8.14921e-05 -0.890989)
(2.69363 8.37596e-05 -0.890968)
(-6.049e-06 0.000196137 -0.890997)
(0.000181789 0.000181789 -0.891039)
(0.000299941 0.000141263 -0.891049)
(-2.6941 0.000159035 -0.891046)
(2.69402 0.0002124 -0.890953)
(3.23745e-05 0.000268383 -0.89099)
(0.000141263 0.000299941 -0.891049)
(0.00024563 0.00024563 -0.89107)
(-2.69444 0.000116038 -0.891054)
(2.69411 -2.69399 -0.890956)
(8.14921e-05 -2.69414 -0.890989)
(0.000159035 -2.6941 -0.891046)
(0.000116038 -2.69444 -0.891054)
(-2.69447 -2.69447 -0.891048)
(1.40339 1.40339 -1.55482)
(-2.64025e-05 1.4034 -1.55485)
(8.7848e-05 1.40328 -1.55484)
(0.000210656 1.40367 -1.55485)
(-1.40366 1.40376 -1.55486)
(1.4034 -2.64025e-05 -1.55485)
(-8.04981e-05 -8.04981e-05 -1.55486)
(0.000185356 -4.67506e-05 -1.55488)
(0.000265007 -2.02844e-05 -1.55489)
(-1.40377 3.24841e-05 -1.5549)
(1.40328 8.7848e-05 -1.55484)
(-4.67506e-05 0.000185356 -1.55488)
(0.000148062 0.000148062 -1.55492)
(0.000289891 9.5833e-05 -1.55496)
(-1.40367 0.000123702 -1.55496)
(1.40367 0.000210656 -1.55485)
(-2.02844e-05 0.000265007 -1.55489)
(9.5833e-05 0.000289891 -1.55496)
(0.000240647 0.000240647 -1.55499)
(-1.40399 0.000114904 -1.55497)
(1.40376 -1.40366 -1.55486)
(3.24841e-05 -1.40377 -1.5549)
(0.000123702 -1.40367 -1.55496)
(0.000114904 -1.40399 -1.55497)
(-1.40403 -1.40403 -1.55496)
(-0.415954 -0.415954 -1.80257)
(-3.6233e-05 -0.41596 -1.80261)
(8.27256e-05 -0.416084 -1.80259)
(0.000191817 -0.415719 -1.80262)
(0.415716 -0.415648 -1.80264)
(-0.41596 -3.6233e-05 -1.80261)
(-9.3886e-05 -9.3886e-05 -1.8026)
(0.000157984 -9.17403e-05 -1.80262)
(0.000244214 -7.48806e-05 -1.80267)
(0.415652 -1.82807e-05 -1.80268)
(-0.416084 8.27256e-05 -1.80259)
(-9.17403e-05 0.000157984 -1.80262)
(0.000101731 0.000101731 -1.80267)
(0.000265276 4.57359e-05 -1.80272)
(0.415809 8.79659e-05 -1.80273)
(-0.415719 0.000191817 -1.80262)
(-7.48806e-05 0.000244214 -1.80267)
(4.57359e-05 0.000265276 -1.80272)
(0.000230449 0.000230449 -1.80277)
(0.415518 0.000114394 -1.80275)
(-0.415648 0.415716 -1.80264)
(-1.82807e-05 0.415652 -1.80268)
(8.79659e-05 0.415809 -1.80273)
(0.000114394 0.415518 -1.80275)
(0.415464 0.415464 -1.80273)
(-2.20179 -2.20179 -1.3924)
(-4.11199e-05 -2.20181 -1.39243)
(7.05355e-05 -2.20193 -1.3924)
(0.000156864 -2.20162 -1.39246)
(2.2016 -2.20157 -1.39248)
(-2.20181 -4.11199e-05 -1.39243)
(-0.000100067 -0.000100067 -1.39242)
(0.000117675 -0.000131825 -1.39243)
(0.000206266 -0.000121198 -1.3925)
(2.20158 -6.21655e-05 -1.39252)
(-2.20193 7.05355e-05 -1.3924)
(-0.000131825 0.000117675 -1.39243)
(4.94053e-05 4.94053e-05 -1.39246)
(0.000226524 -6.52183e-07 -1.39253)
(2.20179 5.86687e-05 -1.39255)
(-2.20162 0.000156864 -1.39246)
(-0.000121198 0.000206266 -1.3925)
(-6.52183e-07 0.000226524 -1.39253)
(0.00021553 0.00021553 -1.39258)
(2.20153 0.000115076 -1.39256)
(-2.20157 2.2016 -1.39248)
(-6.21655e-05 2.20158 -1.39252)
(5.86687e-05 2.20179 -1.39255)
(0.000115076 2.20153 -1.39256)
(2.20146 2.20146 -1.39255)
(-3.20078 -3.20078 -0.256861)
(-3.88832e-05 -3.20081 -0.256898)
(5.5519e-05 -3.20091 -0.256854)
(0.000111381 -3.20068 -0.256926)
(3.20065 -3.20065 -0.256944)
(-3.20081 -3.88832e-05 -0.256898)
(-9.35824e-05 -9.35824e-05 -0.256875)
(7.31047e-05 -0.000154918 -0.256873)
(0.000155678 -0.000146747 -0.256955)
(3.20067 -8.89195e-05 -0.256977)
(-3.20091 5.5519e-05 -0.256854)
(-0.000154918 7.31047e-05 -0.256873)
(2.35463e-06 2.35463e-06 -0.256873)
(0.00017738 -3.1942e-05 -0.256947)
(3.20089 4.41902e-05 -0.256974)
(-3.20068 0.000111381 -0.256926)
(-0.000146747 0.000155678 -0.256955)
(-3.1942e-05 0.00017738 -0.256947)
(0.000197514 0.000197514 -0.256991)
(3.20066 0.000117765 -0.256985)
(-3.20065 3.20065 -0.256944)
(-8.89195e-05 3.20067 -0.256977)
(4.41902e-05 3.20089 -0.256974)
(0.000117765 3.20066 -0.256985)
(3.20057 3.20057 -0.256968)
(-2.71555 -2.71555 1.38468)
(-3.3316e-05 -2.71558 1.38465)
(4.18546e-05 -2.71566 1.38469)
(6.68157e-05 -2.7155 1.38462)
(2.71547 -2.71549 1.38461)
(-2.71558 -3.3316e-05 1.38465)
(-7.53396e-05 -7.53396e-05 1.38466)
(3.74538e-05 -0.000150837 1.38468)
(0.000102833 -0.000141622 1.3846)
(2.71552 -9.20682e-05 1.38458)
(-2.71566 4.18546e-05 1.38469)
(-0.000150837 3.74538e-05 1.38468)
(-2.44279e-05 -2.44279e-05 1.38471)
(0.000125584 -3.60927e-05 1.38465)
(2.71571 5.06812e-05 1.38461)
(-2.7155 6.68157e-05 1.38462)
(-0.000141622 0.000102833 1.3846)
(-3.60927e-05 0.000125584 1.38465)
(0.000177942 0.000177942 1.38461)
(2.7155 0.000120932 1.3846)
(-2.71549 2.71547 1.38461)
(-9.20682e-05 2.71552 1.38458)
(5.06812e-05 2.71571 1.38461)
(0.000120932 2.7155 1.3846)
(2.71541 2.71541 1.3846)
(-0.431448 -0.431448 3.02816)
(-3.55391e-05 -0.431501 3.02815)
(2.49484e-05 -0.43155 3.02817)
(3.59871e-05 -0.431461 3.02811)
(0.431423 -0.431454 3.02812)
(-0.431501 -3.55391e-05 3.02815)
(-6.61146e-05 -6.61146e-05 3.02815)
(1.45539e-05 -0.000130787 3.02818)
(5.98769e-05 -0.00011889 3.02812)
(0.431493 -9.01291e-05 3.02812)
(-0.43155 2.49484e-05 3.02817)
(-0.000130787 1.45539e-05 3.02818)
(-2.78273e-05 -2.78273e-05 3.02825)
(7.66448e-05 -1.86813e-05 3.02819)
(0.431632 5.96072e-05 3.02816)
(-0.431461 3.59871e-05 3.02811)
(-0.00011889 5.98769e-05 3.02812)
(-1.86813e-05 7.66448e-05 3.02819)
(0.000147311 0.000147311 3.02815)
(0.431452 0.000106328 3.02811)
(-0.431454 0.431423 3.02812)
(-9.01291e-05 0.431493 3.02812)
(5.96072e-05 0.431632 3.02816)
(0.000106328 0.431452 3.02811)
(0.431378 0.431378 3.02811)
(3.34076 3.34076 -1.45467)
(-2.19741e-05 3.34072 -1.45463)
(5.42459e-06 3.34069 -1.45462)
(2.10346e-05 3.34073 -1.45466)
(-3.34076 3.34075 -1.45467)
(3.34072 -2.19741e-05 -1.45463)
(-4.11249e-05 -4.11249e-05 -1.45459)
(1.64054e-06 -7.16165e-05 -1.45453)
(3.63569e-05 -6.23312e-05 -1.4546)
(-3.34072 -4.87694e-05 -1.45462)
(3.34069 5.42459e-06 -1.45462)
(-7.16165e-05 1.64054e-06 -1.45453)
(-1.57817e-05 -1.57817e-05 -1.45441)
(4.38817e-05 -4.72266e-06 -1.45448)
(-3.34065 4.37397e-05 -1.45453)
(3.34073 2.10346e-05 -1.45466)
(-6.23312e-05 3.63569e-05 -1.4546)
(-4.72266e-06 4.38817e-05 -1.45448)
(9.58782e-05 9.58782e-05 -1.45458)
(-3.34076 6.53857e-05 -1.45473)
(3.34075 -3.34076 -1.45467)
(-4.87694e-05 -3.34072 -1.45462)
(4.37397e-05 -3.34065 -1.45453)
(6.53857e-05 -3.34076 -1.45473)
(-3.34081 -3.34081 -1.45471)
)
;

boundaryField
{
    wall_minX
    {
        type            extrapolatedCalculated;
        value           nonuniform List<vector> 
100
(
(0 -0.534509 -1.03429)
(0 -2.01822e-06 -1.03424)
(0 -3.4598e-05 -1.03431)
(0 -1.78679e-05 -1.03436)
(0 0.534564 -1.03438)
(0 -1.53402 -0.898156)
(0 -1.85712e-05 -0.898136)
(0 -8.60841e-05 -0.898193)
(0 -4.54742e-05 -0.898218)
(0 1.53417 -0.898235)
(0 -2.3308 -0.637772)
(0 -3.91551e-05 -0.637763)
(0 -0.000117168 -0.637802)
(0 -5.95142e-05 -0.637805)
(0 2.33102 -0.637812)
(0 -2.80955 -0.277399)
(0 -4.90595e-05 -0.277387)
(0 -0.000127689 -0.27741)
(0 -5.569e-05 -0.277392)
(0 2.80979 -0.277389)
(0 -2.88559 0.14557)
(0 -4.93377e-05 0.145586)
(0 -0.000122229 0.145576)
(0 -3.86654e-05 0.145609)
(0 2.8858 0.145619)
(0 -2.5184 0.580118)
(0 -4.30441e-05 0.580136)
(0 -0.000104975 0.580134)
(0 -1.20723e-05 0.580179)
(0 2.51856 0.580194)
(0 -1.72533 0.962501)
(0 -3.29379e-05 0.962519)
(0 -7.91936e-05 0.962523)
(0 2.14876e-05 0.962576)
(0 1.72542 0.962595)
(0 -0.593378 1.21999)
(0 -2.1572e-05 1.22)
(0 -4.7871e-05 1.22001)
(0 5.96439e-05 1.22007)
(0 0.593388 1.22009)
(0 0.714654 1.27944)
(0 -1.14125e-05 1.27945)
(0 -1.41085e-05 1.27945)
(0 9.97617e-05 1.27951)
(0 -0.714728 1.27953)
(0 1.96551 1.08276)
(0 -4.68576e-06 1.08276)
(0 1.88424e-05 1.08276)
(0 0.000138735 1.08282)
(0 -1.96566 1.08284)
(0 2.88017 0.609901)
(0 -2.99816e-06 0.609897)
(0 4.78185e-05 0.609899)
(0 0.000173014 0.609949)
(0 -2.88039 0.609959)
(0 3.18531 -0.0932238)
(0 -6.88054e-06 -0.0932372)
(0 7.0105e-05 -0.0932363)
(0 0.000198806 -0.0932013)
(0 -3.18557 -0.0931969)
(0 2.69371 -0.890948)
(0 -1.54582e-05 -0.890971)
(0 8.37596e-05 -0.890968)
(0 0.0002124 -0.890953)
(0 -2.69399 -0.890956)
(0 1.40339 -1.55482)
(0 -2.64025e-05 -1.55485)
(0 8.7848e-05 -1.55484)
(0 0.000210656 -1.55485)
(0 -1.40366 -1.55486)
(0 -0.415954 -1.80257)
(0 -3.6233e-05 -1.80261)
(0 8.27256e-05 -1.80259)
(0 0.000191817 -1.80262)
(0 0.415716 -1.80264)
(0 -2.20179 -1.3924)
(0 -4.11199e-05 -1.39243)
(0 7.05355e-05 -1.3924)
(0 0.000156864 -1.39246)
(0 2.2016 -1.39248)
(0 -3.20078 -0.256861)
(0 -3.88832e-05 -0.256898)
(0 5.5519e-05 -0.256854)
(0 0.000111381 -0.256926)
(0 3.20065 -0.256944)
(0 -2.71555 1.38468)
(0 -3.3316e-05 1.38465)
(0 4.18546e-05 1.38469)
(0 6.68157e-05 1.38462)
(0 2.71547 1.38461)
(0 -0.431448 3.02816)
(0 -3.55391e-05 3.02815)
(0 2.49484e-05 3.02817)
(0 3.59871e-05 3.02811)
(0 0.431423 3.02812)
(0 3.34076 -1.45467)
(0 -2.19741e-05 -1.45463)
(0 5.42459e-06 -1.45462)
(0 2.10346e-05 -1.45466)
(0 -3.34076 -1.45467)
)
;
    }
    wall_maxX
    {
        type            extrapolatedCalculated;
        value           nonuniform List<vector> 
100
(
(0 -0.534565 -1.03438)
(0 -5.89158e-06 -1.03436)
(0 -6.82367e-06 -1.03439)
(0 8.18513e-06 -1.03437)
(0 0.53457 -1.03436)
(0 -1.53417 -0.898235)
(0 -5.02621e-06 -0.89822)
(0 -2.97021e-06 -0.89822)
(0 2.15073e-05 -0.898194)
(0 1.53416 -0.898195)
(0 -2.33102 -0.637812)
(0 9.04954e-06 -0.637791)
(0 1.84417e-05 -0.637773)
(0 3.31621e-05 -0.637736)
(0 2.33096 -0.637748)
(0 -2.80978 -0.277389)
(0 3.38932e-05 -0.277361)
(0 5.14467e-05 -0.277333)
(0 4.72312e-05 -0.277289)
(0 2.80964 -0.277303)
(0 -2.88577 0.145619)
(0 6.46872e-05 0.145651)
(0 8.98603e-05 0.145682)
(0 6.29524e-05 0.145728)
(0 2.88555 0.145714)
(0 -2.51851 0.580194)
(0 9.69503e-05 0.580226)
(0 0.000128814 0.580256)
(0 7.87126e-05 0.5803)
(0 2.5182 0.580286)
(0 -1.72535 0.962595)
(0 0.000126683 0.962623)
(0 0.000164202 0.962648)
(0 9.2895e-05 0.962687)
(0 1.72496 0.962673)
(0 -0.59329 1.22009)
(0 0.000150103 1.22011)
(0 0.000192412 1.22012)
(0 0.000104254 1.22015)
(0 0.592843 1.22014)
(0 0.714846 1.27953)
(0 0.000163666 1.27955)
(0 0.000210399 1.27955)
(0 0.0001121 1.27957)
(0 -0.715332 1.27956)
(0 1.96579 1.08284)
(0 0.000164436 1.08284)
(0 0.000216021 1.08283)
(0 0.000116403 1.08284)
(0 -1.96629 1.08283)
(0 2.88053 0.609959)
(0 0.000150653 0.60995)
(0 0.000208478 0.609917)
(0 0.000117775 0.609923)
(0 -2.881 0.609918)
(0 3.1857 -0.0931969)
(0 0.000122307 -0.0932186)
(0 0.000188633 -0.0932661)
(0 0.000117276 -0.093268)
(0 -3.18613 -0.0932678)
(0 2.69411 -0.890956)
(0 8.14921e-05 -0.890989)
(0 0.000159035 -0.891046)
(0 0.000116038 -0.891054)
(0 -2.69447 -0.891048)
(0 1.40376 -1.55486)
(0 3.24841e-05 -1.5549)
(0 0.000123702 -1.55496)
(0 0.000114904 -1.55497)
(0 -1.40403 -1.55496)
(0 -0.415648 -1.80264)
(0 -1.82807e-05 -1.80268)
(0 8.79659e-05 -1.80273)
(0 0.000114394 -1.80275)
(0 0.415464 -1.80273)
(0 -2.20157 -1.39248)
(0 -6.21655e-05 -1.39252)
(0 5.86687e-05 -1.39255)
(0 0.000115076 -1.39256)
(0 2.20146 -1.39255)
(0 -3.20065 -0.256944)
(0 -8.89195e-05 -0.256977)
(0 4.41902e-05 -0.256974)
(0 0.000117765 -0.256985)
(0 3.20057 -0.256968)
(0 -2.71549 1.38461)
(0 -9.20682e-05 1.38458)
(0 5.06812e-05 1.38461)
(0 0.000120932 1.3846)
(0 2.71541 1.3846)
(0 -0.431454 3.02812)
(0 -9.01291e-05 3.02812)
(0 5.96072e-05 3.02816)
(0 0.000106328 3.02811)
(0 0.431378 3.02811)
(0 3.34075 -1.45467)
(0 -4.87694e-05 -1.45462)
(0 4.37397e-05 -1.45453)
(0 6.53857e-05 -1.45473)
(0 -3.34081 -1.45471)
)
;
    }
    wall_minY
    {
        type            extrapolatedCalculated;
        value           nonuniform List<vector> 
100
(
(-0.534509 0 -1.03429)
(-1.53402 0 -0.898156)
(-2.3308 0 -0.637772)
(-2.80955 0 -0.277399)
(-2.88559 0 0.14557)
(-2.5184 0 0.580118)
(-1.72533 0 0.962501)
(-0.593378 0 1.21999)
(0.714654 0 1.27944)
(1.96551 0 1.08276)
(2.88017 0 0.609901)
(3.18531 0 -0.0932238)
(2.69371 0 -0.890948)
(1.40339 0 -1.55482)
(-0.415954 0 -1.80257)
(-2.20179 0 -1.3924)
(-3.20078 0 -0.256861)
(-2.71555 0 1.38468)
(-0.431448 0 3.02816)
(3.34076 0 -1.45467)
(-2.01822e-06 0 -1.03424)
(-1.85712e-05 0 -0.898136)
(-3.91551e-05 0 -0.637763)
(-4.90595e-05 0 -0.277387)
(-4.93377e-05 0 0.145586)
(-4.30441e-05 0 0.580136)
(-3.29379e-05 0 0.962519)
(-2.1572e-05 0 1.22)
(-1.14125e-05 0 1.27945)
(-4.68576e-06 0 1.08276)
(-2.99816e-06 0 0.609897)
(-6.88054e-06 0 -0.0932372)
(-1.54582e-05 0 -0.890971)
(-2.64025e-05 0 -1.55485)
(-3.6233e-05 0 -1.80261)
(-4.11199e-05 0 -1.39243)
(-3.88832e-05 0 -0.256898)
(-3.3316e-05 0 1.38465)
(-3.55391e-05 0 3.02815)
(-2.19741e-05 0 -1.45463)
(-3.4598e-05 0 -1.03431)
(-8.60841e-05 0 -0.898193)
(-0.000117168 0 -0.637802)
(-0.000127689 0 -0.27741)
(-0.000122229 0 0.145576)
(-0.000104975 0 0.580134)
(-7.91936e-05 0 0.962523)
(-4.7871e-05 0 1.22001)
(-1.41085e-05 0 1.27945)
(1.88424e-05 0 1.08276)
(4.78185e-05 0 0.609899)
(7.0105e-05 0 -0.0932363)
(8.37596e-05 0 -0.890968)
(8.7848e-05 0 -1.55484)
(8.27256e-05 0 -1.80259)
(7.05355e-05 0 -1.3924)
(5.5519e-05 0 -0.256854)
(4.18546e-05 0 1.38469)
(2.49484e-05 0 3.02817)
(5.42459e-06 0 -1.45462)
(-1.78679e-05 0 -1.03436)
(-4.54742e-05 0 -0.898218)
(-5.95142e-05 0 -0.637805)
(-5.569e-05 0 -0.277392)
(-3.86654e-05 0 0.145609)
(-1.20723e-05 0 0.580179)
(2.14876e-05 0 0.962576)
(5.96439e-05 0 1.22007)
(9.97617e-05 0 1.27951)
(0.000138735 0 1.08282)
(0.000173014 0 0.609949)
(0.000198806 0 -0.0932013)
(0.0002124 0 -0.890953)
(0.000210656 0 -1.55485)
(0.000191817 0 -1.80262)
(0.000156864 0 -1.39246)
(0.000111381 0 -0.256926)
(6.68157e-05 0 1.38462)
(3.59871e-05 0 3.02811)
(2.10346e-05 0 -1.45466)
(0.534564 0 -1.03438)
(1.53417 0 -0.898235)
(2.33102 0 -0.637812)
(2.80979 0 -0.277389)
(2.8858 0 0.145619)
(2.51856 0 0.580194)
(1.72542 0 0.962595)
(0.593388 0 1.22009)
(-0.714728 0 1.27953)
(-1.96566 0 1.08284)
(-2.88039 0 0.609959)
(-3.18557 0 -0.0931969)
(-2.69399 0 -0.890956)
(-1.40366 0 -1.55486)
(0.415716 0 -1.80264)
(2.2016 0 -1.39248)
(3.20065 0 -0.256944)
(2.71547 0 1.38461)
(0.431423 0 3.02812)
(-3.34076 0 -1.45467)
)
;
    }
    wall_maxY
    {
        type            extrapolatedCalculated;
        value           nonuniform List<vector> 
100
(
(-0.534565 0 -1.03438)
(-1.53417 0 -0.898235)
(-2.33102 0 -0.637812)
(-2.80978 0 -0.277389)
(-2.88577 0 0.145619)
(-2.51851 0 0.580194)
(-1.72535 0 0.962595)
(-0.59329 0 1.22009)
(0.714846 0 1.27953)
(1.96579 0 1.08284)
(2.88053 0 0.609959)
(3.1857 0 -0.0931969)
(2.69411 0 -0.890956)
(1.40376 0 -1.55486)
(-0.415648 0 -1.80264)
(-2.20157 0 -1.39248)
(-3.20065 0 -0.256944)
(-2.71549 0 1.38461)
(-0.431454 0 3.02812)
(3.34075 0 -1.45467)
(-5.89158e-06 0 -1.03436)
(-5.02621e-06 0 -0.89822)
(9.04954e-06 0 -0.637791)
(3.38932e-05 0 -0.277361)
(6.46872e-05 0 0.145651)
(9.69503e-05 0 0.580226)
(0.000126683 0 0.962623)
(0.000150103 0 1.22011)
(0.000163666 0 1.27955)
(0.000164436 0 1.08284)
(0.000150653 0 0.60995)
(0.000122307 0 -0.0932186)
(8.14921e-05 0 -0.890989)
(3.24841e-05 0 -1.5549)
(-1.82807e-05 0 -1.80268)
(-6.21655e-05 0 -1.39252)
(-8.89195e-05 0 -0.256977)
(-9.20682e-05 0 1.38458)
(-9.01291e-05 0 3.02812)
(-4.87694e-05 0 -1.45462)
(-6.82367e-06 0 -1.03439)
(-2.97021e-06 0 -0.89822)
(1.84417e-05 0 -0.637773)
(5.14467e-05 0 -0.277333)
(8.98603e-05 0 0.145682)
(0.000128814 0 0.580256)
(0.000164202 0 0.962648)
(0.000192412 0 1.22012)
(0.000210399 0 1.27955)
(0.000216021 0 1.08283)
(0.000208478 0 0.609917)
(0.000188633 0 -0.0932661)
(0.000159035 0 -0.891046)
(0.000123702 0 -1.55496)
(8.79659e-05 0 -1.80273)
(5.86687e-05 0 -1.39255)
(4.41902e-05 0 -0.256974)
(5.06812e-05 0 1.38461)
(5.96072e-05 0 3.02816)
(4.37397e-05 0 -1.45453)
(8.18513e-06 0 -1.03437)
(2.15073e-05 0 -0.898194)
(3.31621e-05 0 -0.637736)
(4.72312e-05 0 -0.277289)
(6.29524e-05 0 0.145728)
(7.87126e-05 0 0.5803)
(9.2895e-05 0 0.962687)
(0.000104254 0 1.22015)
(0.0001121 0 1.27957)
(0.000116403 0 1.08284)
(0.000117775 0 0.609923)
(0.000117276 0 -0.093268)
(0.000116038 0 -0.891054)
(0.000114904 0 -1.55497)
(0.000114394 0 -1.80275)
(0.000115076 0 -1.39256)
(0.000117765 0 -0.256985)
(0.000120932 0 1.3846)
(0.000106328 0 3.02811)
(6.53857e-05 0 -1.45473)
(0.53457 0 -1.03436)
(1.53416 0 -0.898195)
(2.33096 0 -0.637748)
(2.80964 0 -0.277303)
(2.88555 0 0.145714)
(2.5182 0 0.580286)
(1.72496 0 0.962673)
(0.592843 0 1.22014)
(-0.715332 0 1.27956)
(-1.96629 0 1.08283)
(-2.881 0 0.609918)
(-3.18613 0 -0.0932678)
(-2.69447 0 -0.891048)
(-1.40403 0 -1.55496)
(0.415464 0 -1.80273)
(2.20146 0 -1.39255)
(3.20057 0 -0.256968)
(2.71541 0 1.3846)
(0.431378 0 3.02811)
(-3.34081 0 -1.45471)
)
;
    }
    inlet_minZ
    {
        type            extrapolatedCalculated;
        value           nonuniform List<vector> 
25
(
(-0.534509 -0.534509 -1.06906)
(-0.53449 -2.01822e-06 -1.06898)
(-0.534534 -3.4598e-05 -1.06907)
(-0.534558 -1.78679e-05 -1.06912)
(-0.534565 0.534564 -1.06914)
(-2.01822e-06 -0.53449 -1.06898)
(-2.31866e-05 -2.31866e-05 -1.06898)
(-2.1215e-05 -3.30829e-05 -1.06907)
(-1.33687e-05 -1.31775e-05 -1.06911)
(-5.89158e-06 0.53456 -1.06913)
(-3.4598e-05 -0.534534 -1.06907)
(-3.30829e-05 -2.1215e-05 -1.06907)
(-2.47801e-05 -2.47801e-05 -1.06915)
(-1.53468e-05 -2.5445e-06 -1.06917)
(-6.82367e-06 0.534583 -1.06916)
(-1.78679e-05 -0.534558 -1.06912)
(-1.31775e-05 -1.33687e-05 -1.06911)
(-2.5445e-06 -1.53468e-05 -1.06917)
(4.77901e-06 4.77902e-06 -1.06917)
(8.18513e-06 0.534582 -1.06915)
(0.534564 -0.534565 -1.06914)
(0.53456 -5.89158e-06 -1.06913)
(0.534583 -6.82367e-06 -1.06916)
(0.534582 8.18513e-06 -1.06915)
(0.53457 0.53457 -1.06913)
)
;
    }
    outlet_maxZ
    {
        type            extrapolatedCalculated;
        value           nonuniform List<vector> 
25
(
(3.34076 3.34076 -6.68154)
(3.34072 -2.19741e-05 -6.68148)
(3.34069 5.42459e-06 -6.68145)
(3.34073 2.10346e-05 -6.6815)
(3.34075 -3.34076 -6.68154)
(-2.19741e-05 3.34072 -6.68148)
(-4.11249e-05 -4.11249e-05 -6.6814)
(-7.16165e-05 1.64054e-06 -6.68132)
(-6.23312e-05 3.63569e-05 -6.68141)
(-4.87694e-05 -3.34072 -6.68146)
(5.42459e-06 3.34069 -6.68145)
(1.64054e-06 -7.16165e-05 -6.68132)
(-1.57817e-05 -1.57817e-05 -6.68117)
(-4.72266e-06 4.38817e-05 -6.68126)
(4.37397e-05 -3.34065 -6.68134)
(2.10346e-05 3.34073 -6.6815)
(3.63569e-05 -6.23312e-05 -6.68141)
(4.38817e-05 -4.72266e-06 -6.68126)
(9.58782e-05 9.58782e-05 -6.68139)
(6.53857e-05 -3.34076 -6.68164)
(-3.34076 3.34075 -6.68154)
(-3.34072 -4.87694e-05 -6.68146)
(-3.34065 4.37397e-05 -6.68134)
(-3.34076 6.53857e-05 -6.68164)
(-3.34081 -3.34081 -6.6816)
)
;
    }
}


// ************************************************************************* //
