/*--------------------------------*- C++ -*----------------------------------*\
| =========                 |                                                 |
| \\      /  F ield         | OpenFOAM: The Open Source CFD Toolbox           |
|  \\    /   O peration     | Version:  v2106                                 |
|   \\  /    A nd           | Website:  www.openfoam.com                      |
|    \\/     M anipulation  |                                                 |
\*---------------------------------------------------------------------------*/
FoamFile
{
    version     2.0;
    format      ascii;
    arch        "LSB;label=32;scalar=64";
    class       volVectorField;
    location    "50";
    object      grad(Tmode2);
}
// * * * * * * * * * * * * * * * * * * * * * * * * * * * * * * * * * * * * * //

dimensions      [0 -1 0 0 0 0 0];

internalField   nonuniform List<vector> 
500
(
(-0.321918 -0.321918 -0.634662)
(-3.3357e-07 -0.321916 -0.634656)
(-5.60547e-06 -0.321922 -0.634666)
(-4.15591e-06 -0.321928 -0.634676)
(0.321929 -0.32193 -0.63468)
(-0.321916 -3.3357e-07 -0.634656)
(-3.32404e-06 -3.32404e-06 -0.634656)
(-6.25713e-06 -3.8755e-06 -0.634669)
(-3.47885e-06 -2.60192e-06 -0.634677)
(0.321929 -1.48213e-06 -0.634681)
(-0.321922 -5.60547e-06 -0.634666)
(-3.8755e-06 -6.25713e-06 -0.634669)
(-4.88335e-06 -4.88335e-06 -0.634679)
(-1.76254e-06 -3.00619e-06 -0.634684)
(0.321933 -1.5048e-06 -0.634685)
(-0.321928 -4.15591e-06 -0.634676)
(-2.60192e-06 -3.47885e-06 -0.634677)
(-3.00619e-06 -1.76254e-06 -0.634684)
(-1.00297e-07 -1.00297e-07 -0.634686)
(0.321933 7.42556e-07 -0.634684)
(-0.32193 0.321929 -0.63468)
(-1.48213e-06 0.321929 -0.634681)
(-1.5048e-06 0.321933 -0.634685)
(7.42556e-07 0.321933 -0.634684)
(0.321932 0.321932 -0.634682)
(-0.947399 -0.947399 -0.598027)
(-3.72754e-06 -0.947396 -0.598026)
(-1.4886e-05 -0.947412 -0.598034)
(-1.05685e-05 -0.947426 -0.598042)
(0.947428 -0.947431 -0.598045)
(-0.947396 -3.72754e-06 -0.598026)
(-9.71728e-06 -9.71728e-06 -0.598028)
(-1.50957e-05 -9.6275e-06 -0.598037)
(-8.44217e-06 -5.68157e-06 -0.598042)
(0.947429 -2.64015e-06 -0.598044)
(-0.947412 -1.4886e-05 -0.598034)
(-9.6275e-06 -1.50957e-05 -0.598037)
(-1.08503e-05 -1.08503e-05 -0.598044)
(-3.58114e-06 -5.57034e-06 -0.598045)
(0.947436 -1.72261e-06 -0.598045)
(-0.947426 -1.05685e-05 -0.598042)
(-5.68157e-06 -8.44217e-06 -0.598042)
(-5.57034e-06 -3.58114e-06 -0.598045)
(6.85476e-07 6.85476e-07 -0.598044)
(0.947436 2.24348e-06 -0.598042)
(-0.947431 0.947428 -0.598045)
(-2.64015e-06 0.947429 -0.598044)
(-1.72261e-06 0.947436 -0.598045)
(2.24348e-06 0.947436 -0.598042)
(0.947433 0.947433 -0.598042)
(-1.51797 -1.51797 -0.525124)
(-8.13487e-06 -1.51797 -0.525124)
(-2.15798e-05 -1.51799 -0.525131)
(-1.46443e-05 -1.51801 -0.525135)
(1.51801 -1.51802 -0.525137)
(-1.51797 -8.13487e-06 -0.525124)
(-1.4982e-05 -1.4982e-05 -0.525127)
(-2.02863e-05 -1.31474e-05 -0.525133)
(-1.07521e-05 -6.29993e-06 -0.525134)
(1.51802 -1.53963e-06 -0.525135)
(-1.51799 -2.15798e-05 -0.525131)
(-1.31474e-05 -2.02863e-05 -0.525133)
(-1.28978e-05 -1.28978e-05 -0.525135)
(-3.03654e-06 -4.57397e-06 -0.525134)
(1.51802 8.28049e-07 -0.525132)
(-1.51801 -1.46443e-05 -0.525135)
(-6.29993e-06 -1.07521e-05 -0.525134)
(-4.57397e-06 -3.03654e-06 -0.525134)
(2.97374e-06 2.97374e-06 -0.52513)
(1.51802 3.88669e-06 -0.525128)
(-1.51802 1.51801 -0.525137)
(-1.53963e-06 1.51802 -0.525135)
(8.28049e-07 1.51802 -0.525132)
(3.88669e-06 1.51802 -0.525128)
(1.51802 1.51802 -0.525129)
(-1.99765 -1.99765 -0.416809)
(-1.09221e-05 -1.99765 -0.416809)
(-2.53011e-05 -1.99768 -0.416813)
(-1.62976e-05 -1.99769 -0.416814)
(1.9977 -1.9977 -0.416814)
(-1.99765 -1.09221e-05 -0.416809)
(-1.79554e-05 -1.79554e-05 -0.41681)
(-2.22209e-05 -1.41002e-05 -0.416813)
(-1.07512e-05 -4.49489e-06 -0.416812)
(1.9977 1.54107e-06 -0.416811)
(-1.99768 -2.53011e-05 -0.416813)
(-1.41002e-05 -2.22209e-05 -0.416813)
(-1.18406e-05 -1.18406e-05 -0.416813)
(-6.5629e-07 -9.598e-07 -0.416809)
(1.9977 5.27198e-06 -0.416807)
(-1.99769 -1.62976e-05 -0.416814)
(-4.49489e-06 -1.07512e-05 -0.416812)
(-9.598e-07 -6.5629e-07 -0.416809)
(6.36138e-06 6.36138e-06 -0.416803)
(1.99769 5.93161e-06 -0.416801)
(-1.9977 1.9977 -0.416814)
(1.54107e-06 1.9977 -0.416811)
(5.27198e-06 1.9977 -0.416807)
(5.93161e-06 1.99769 -0.416801)
(1.99769 1.99769 -0.416802)
(-2.35159 -2.35159 -0.274697)
(-1.20688e-05 -2.35159 -0.274696)
(-2.66525e-05 -2.35162 -0.274698)
(-1.61484e-05 -2.35164 -0.274697)
(2.35164 -2.35164 -0.274696)
(-2.35159 -1.20688e-05 -0.274696)
(-1.90237e-05 -1.90237e-05 -0.274696)
(-2.18204e-05 -1.31575e-05 -0.274697)
(-9.15831e-06 -1.08377e-06 -0.274694)
(2.35164 5.90013e-06 -0.274693)
(-2.35162 -2.66525e-05 -0.274698)
(-1.31575e-05 -2.18204e-05 -0.274697)
(-8.71264e-06 -8.71264e-06 -0.274695)
(2.90925e-06 4.28904e-06 -0.274689)
(2.35164 1.08601e-05 -0.274687)
(-2.35164 -1.61484e-05 -0.274697)
(-1.08377e-06 -9.15831e-06 -0.274694)
(4.28904e-06 2.90925e-06 -0.274689)
(1.04145e-05 1.04145e-05 -0.274683)
(2.35162 8.32394e-06 -0.274681)
(-2.35164 2.35164 -0.274696)
(5.90013e-06 2.35164 -0.274693)
(1.08601e-05 2.35164 -0.274687)
(8.32394e-06 2.35162 -0.274681)
(2.35162 2.35162 -0.274682)
(-2.54704 -2.54704 -0.101622)
(-1.20381e-05 -2.54704 -0.101621)
(-2.63096e-05 -2.54707 -0.101621)
(-1.47767e-05 -2.54709 -0.101619)
(2.54709 -2.54709 -0.101617)
(-2.54704 -1.20381e-05 -0.101621)
(-1.87169e-05 -1.87169e-05 -0.10162)
(-1.98138e-05 -1.09194e-05 -0.101619)
(-6.5555e-06 3.30205e-06 -0.101615)
(2.54708 1.09677e-05 -0.101613)
(-2.54707 -2.63096e-05 -0.101621)
(-1.09194e-05 -1.98138e-05 -0.101619)
(-4.29062e-06 -4.29062e-06 -0.101615)
(7.11043e-06 1.04279e-05 -0.101609)
(2.54708 1.70109e-05 -0.101607)
(-2.54709 -1.47767e-05 -0.101619)
(3.30205e-06 -6.5555e-06 -0.101615)
(1.04279e-05 7.11043e-06 -0.101609)
(1.4746e-05 1.4746e-05 -0.101602)
(2.54706 1.08933e-05 -0.101601)
(-2.54709 2.54709 -0.101617)
(1.09677e-05 2.54708 -0.101613)
(1.70109e-05 2.54708 -0.101607)
(1.08933e-05 2.54706 -0.101601)
(2.54705 2.54705 -0.101601)
(-2.55483 -2.55483 0.0976685)
(-1.11619e-05 -2.55483 0.0976698)
(-2.46795e-05 -2.55486 0.0976709)
(-1.25065e-05 -2.55487 0.0976741)
(2.55488 -2.55487 0.0976761)
(-2.55483 -1.11619e-05 0.0976698)
(-1.7384e-05 -1.7384e-05 0.0976708)
(-1.66251e-05 -7.76696e-06 0.0976732)
(-3.27359e-06 8.24798e-06 0.0976781)
(2.55487 1.63429e-05 0.0976803)
(-2.55486 -2.46795e-05 0.0976709)
(-7.76696e-06 -1.66251e-05 0.0976732)
(9.52491e-07 9.52491e-07 0.0976778)
(1.16034e-05 1.69617e-05 0.0976842)
(2.55485 2.32816e-05 0.0976868)
(-2.55487 -1.25065e-05 0.0976741)
(8.24798e-06 -3.27359e-06 0.0976781)
(1.69617e-05 1.16034e-05 0.0976842)
(1.90555e-05 1.90555e-05 0.0976911)
(2.55483 1.34383e-05 0.0976926)
(-2.55487 2.55488 0.0976761)
(1.63429e-05 2.55487 0.0976803)
(2.32816e-05 2.55485 0.0976868)
(1.34383e-05 2.55483 0.0976926)
(2.55482 2.55482 0.0976917)
(-2.3517 -2.3517 0.315471)
(-9.66827e-06 -2.3517 0.315472)
(-2.20218e-05 -2.35173 0.315474)
(-9.53145e-06 -2.35173 0.315478)
(2.35174 -2.35174 0.31548)
(-2.3517 -9.66827e-06 0.315472)
(-1.52755e-05 -1.52755e-05 0.315473)
(-1.25368e-05 -3.99213e-06 0.315477)
(4.83274e-07 1.34217e-05 0.315482)
(2.35173 2.16944e-05 0.315485)
(-2.35173 -2.20218e-05 0.315474)
(-3.99213e-06 -1.25368e-05 0.315477)
(6.67539e-06 6.67539e-06 0.315482)
(1.61551e-05 2.35018e-05 0.315488)
(2.35171 2.92997e-05 0.315491)
(-2.35173 -9.53145e-06 0.315478)
(1.34217e-05 4.83274e-07 0.315482)
(2.35018e-05 1.61551e-05 0.315488)
(2.31076e-05 2.31076e-05 0.315495)
(2.35167 1.57748e-05 0.315496)
(-2.35174 2.35174 0.31548)
(2.16944e-05 2.35173 0.315485)
(2.92997e-05 2.35171 0.315491)
(1.57748e-05 2.35167 0.315496)
(2.35167 2.35167 0.315495)
(-1.92389 -1.92389 0.539635)
(-7.75469e-06 -1.92388 0.539636)
(-1.8564e-05 -1.92391 0.539639)
(-6.01849e-06 -1.92391 0.539644)
(1.92392 -1.92391 0.539646)
(-1.92388 -7.75469e-06 0.539636)
(-1.26292e-05 -1.26292e-05 0.539638)
(-7.81608e-06 1.03203e-07 0.539642)
(4.54134e-06 1.84837e-05 0.539647)
(1.9239 2.66905e-05 0.53965)
(-1.92391 -1.8564e-05 0.539639)
(1.03203e-07 -7.81608e-06 0.539642)
(1.25489e-05 1.25489e-05 0.539647)
(2.05689e-05 2.96761e-05 0.539653)
(1.92387 3.47146e-05 0.539656)
(-1.92391 -6.01849e-06 0.539644)
(1.84837e-05 4.54134e-06 0.539647)
(2.96761e-05 2.05689e-05 0.539653)
(2.67071e-05 2.67071e-05 0.539659)
(1.92384 1.77485e-05 0.53966)
(-1.92391 1.92392 0.539646)
(2.66905e-05 1.9239 0.53965)
(3.47146e-05 1.92387 0.539656)
(1.77485e-05 1.92384 0.53966)
(1.92383 1.92383 0.539659)
(-1.27243 -1.27243 0.751576)
(-5.63068e-06 -1.27243 0.751577)
(-1.45666e-05 -1.27245 0.75158)
(-2.17025e-06 -1.27244 0.751585)
(1.27245 -1.27244 0.751588)
(-1.27243 -5.63068e-06 0.751577)
(-9.71016e-06 -9.71016e-06 0.751578)
(-2.78383e-06 4.16485e-06 0.751583)
(8.69663e-06 2.30539e-05 0.751588)
(1.27243 3.09749e-05 0.751591)
(-1.27245 -1.45666e-05 0.75158)
(4.16485e-06 -2.78383e-06 0.751583)
(1.81974e-05 1.81974e-05 0.751588)
(2.46398e-05 3.5095e-05 0.751593)
(1.2724 3.91861e-05 0.751595)
(-1.27244 -2.17025e-06 0.751585)
(2.30539e-05 8.69663e-06 0.751588)
(3.5095e-05 2.46398e-05 0.751593)
(2.96854e-05 2.96854e-05 0.751598)
(1.27235 1.92412e-05 0.751599)
(-1.27244 1.27245 0.751588)
(3.09749e-05 1.27243 0.751591)
(3.91861e-05 1.2724 0.751595)
(1.92412e-05 1.27235 0.751599)
(1.27235 1.27235 0.751598)
(-0.420735 -0.420735 0.923976)
(-3.52227e-06 -0.420729 0.923977)
(-1.03374e-05 -0.420745 0.92398)
(1.75228e-06 -0.420737 0.923985)
(0.420747 -0.420731 0.923988)
(-0.420729 -3.52227e-06 0.923977)
(-6.80364e-06 -6.80364e-06 0.923978)
(2.17624e-06 7.80541e-06 0.923982)
(1.26898e-05 2.6736e-05 0.923987)
(0.420721 3.41933e-05 0.92399)
(-0.420745 -1.03374e-05 0.92398)
(7.80541e-06 2.17624e-06 0.923982)
(2.32022e-05 2.32022e-05 0.923987)
(2.81401e-05 3.9377e-05 0.923991)
(0.420686 4.24193e-05 0.923993)
(-0.420737 1.75228e-06 0.923985)
(2.6736e-05 1.26898e-05 0.923987)
(3.9377e-05 2.81401e-05 0.923991)
(3.1907e-05 3.1907e-05 0.923995)
(0.420639 2.01879e-05 0.923995)
(-0.420731 0.420747 0.923988)
(3.41933e-05 0.420721 0.92399)
(4.24193e-05 0.420686 0.923993)
(2.01879e-05 0.420639 0.923995)
(0.420634 0.420634 0.923994)
(0.575523 0.575523 1.01895)
(-1.63942e-06 0.575529 1.01895)
(-6.18957e-06 0.575517 1.01895)
(5.45535e-06 0.57553 1.01896)
(-0.57552 0.575539 1.01896)
(0.575529 -1.63942e-06 1.01895)
(-4.15938e-06 -4.15938e-06 1.01895)
(6.67761e-06 1.06883e-05 1.01896)
(1.62258e-05 2.92045e-05 1.01896)
(-0.575548 3.60747e-05 1.01896)
(0.575517 -6.18957e-06 1.01895)
(1.06883e-05 6.67761e-06 1.01896)
(2.71743e-05 2.71743e-05 1.01896)
(3.08418e-05 4.22326e-05 1.01896)
(-0.575586 4.42442e-05 1.01896)
(0.57553 5.45535e-06 1.01896)
(2.92045e-05 1.62258e-05 1.01896)
(4.22326e-05 3.08418e-05 1.01896)
(3.32957e-05 3.32957e-05 1.01896)
(-0.575635 2.06036e-05 1.01896)
(0.575539 -0.57552 1.01896)
(3.60747e-05 -0.575548 1.01896)
(4.42442e-05 -0.575586 1.01896)
(2.06036e-05 -0.575635 1.01896)
(-0.57564 -0.57564 1.01896)
(1.61717 1.61717 0.988405)
(-1.19056e-07 1.61717 0.988404)
(-2.35464e-06 1.61716 0.988408)
(8.68539e-06 1.61718 0.988412)
(-1.61717 1.61719 0.988414)
(1.61717 -1.19056e-07 0.988404)
(-1.90765e-06 -1.90765e-06 0.988405)
(1.04492e-05 1.26554e-05 0.988409)
(1.90402e-05 3.03299e-05 0.988412)
(-1.6172 3.65418e-05 0.988413)
(1.61716 -2.35464e-06 0.988408)
(1.26554e-05 1.04492e-05 0.988409)
(2.98829e-05 2.98829e-05 0.988411)
(3.25718e-05 4.35832e-05 0.988413)
(-1.61724 4.47085e-05 0.988413)
(1.61718 8.68539e-06 0.988412)
(3.03299e-05 1.90402e-05 0.988412)
(4.35832e-05 3.25718e-05 0.988413)
(3.38659e-05 3.38659e-05 0.988413)
(-1.61729 2.05968e-05 0.988413)
(1.61719 -1.61717 0.988414)
(3.65418e-05 -1.6172 0.988413)
(4.47085e-05 -1.61724 0.988413)
(2.05968e-05 -1.61729 0.988413)
(-1.61729 -1.61729 0.988413)
(2.55233 2.55233 0.77949)
(1.01909e-06 2.55234 0.779489)
(1.10307e-06 2.55233 0.779492)
(1.13164e-05 2.55235 0.779495)
(-2.55235 2.55237 0.779497)
(2.55234 1.01909e-06 0.779489)
(-2.86411e-10 -2.86406e-10 0.779489)
(1.34514e-05 1.38246e-05 0.779492)
(2.09858e-05 3.02678e-05 0.779494)
(-2.55237 3.57794e-05 0.779495)
(2.55233 1.10307e-06 0.779492)
(1.38246e-05 1.34514e-05 0.779492)
(3.13712e-05 3.13712e-05 0.779494)
(3.32711e-05 4.36347e-05 0.779494)
(-2.55241 4.41015e-05 0.779494)
(2.55235 1.13164e-05 0.779495)
(3.02678e-05 2.09858e-05 0.779494)
(4.36347e-05 3.32711e-05 0.779494)
(3.37162e-05 3.37162e-05 0.779493)
(-2.55246 2.03247e-05 0.779493)
(2.55237 -2.55235 0.779497)
(3.57794e-05 -2.55237 0.779495)
(4.41015e-05 -2.55241 0.779494)
(2.03247e-05 -2.55246 0.779493)
(-2.55247 -2.55247 0.779494)
(3.17614 3.17614 0.348381)
(1.84825e-06 3.17615 0.348379)
(4.28254e-06 3.17615 0.348383)
(1.3378e-05 3.17617 0.348385)
(-3.17616 3.17618 0.348386)
(3.17615 1.84825e-06 0.348379)
(1.74159e-06 1.74159e-06 0.348379)
(1.58754e-05 1.45384e-05 0.348383)
(2.20721e-05 2.93968e-05 0.348384)
(-3.17619 3.41558e-05 0.348384)
(3.17615 4.28254e-06 0.348383)
(1.45384e-05 1.58754e-05 0.348383)
(3.19377e-05 3.19377e-05 0.348384)
(3.29954e-05 4.27861e-05 0.348383)
(-3.17623 4.28037e-05 0.348382)
(3.17617 1.3378e-05 0.348385)
(2.93968e-05 2.20721e-05 0.348384)
(4.27861e-05 3.29954e-05 0.348383)
(3.29381e-05 3.29381e-05 0.348381)
(-3.17627 1.98541e-05 0.348381)
(3.17618 -3.17616 0.348386)
(3.41558e-05 -3.17619 0.348384)
(4.28037e-05 -3.17623 0.348382)
(1.98541e-05 -3.17627 0.348381)
(-3.17628 -3.17628 0.348381)
(3.24909 3.24909 -0.316505)
(2.41328e-06 3.2491 -0.316507)
(7.27273e-06 3.2491 -0.316504)
(1.49398e-05 3.24912 -0.316502)
(-3.24912 3.24914 -0.316501)
(3.2491 2.41328e-06 -0.316507)
(3.42087e-06 3.42087e-06 -0.316508)
(1.79151e-05 1.50732e-05 -0.316504)
(2.23786e-05 2.80195e-05 -0.316504)
(-3.24914 3.19328e-05 -0.316504)
(3.2491 7.27273e-06 -0.316504)
(1.50732e-05 1.79151e-05 -0.316504)
(3.18714e-05 3.18714e-05 -0.316503)
(3.17994e-05 4.12932e-05 -0.316505)
(-3.24918 4.09218e-05 -0.316507)
(3.24912 1.49398e-05 -0.316502)
(2.80195e-05 2.23786e-05 -0.316504)
(4.12932e-05 3.17994e-05 -0.316505)
(3.14291e-05 3.14291e-05 -0.316508)
(-3.24922 1.89532e-05 -0.316509)
(3.24914 -3.24912 -0.316501)
(3.19328e-05 -3.24914 -0.316504)
(4.09218e-05 -3.24918 -0.316507)
(1.89532e-05 -3.24922 -0.316509)
(-3.24923 -3.24923 -0.31651)
(2.54313 2.54313 -1.16707)
(2.59164e-06 2.54313 -1.16707)
(9.83166e-06 2.54314 -1.16707)
(1.58305e-05 2.54316 -1.16707)
(-2.54316 2.54318 -1.16707)
(2.54313 2.59164e-06 -1.16707)
(4.77487e-06 4.77487e-06 -1.16708)
(1.93128e-05 1.51692e-05 -1.16707)
(2.18061e-05 2.58945e-05 -1.16707)
(-2.54318 2.88384e-05 -1.16708)
(2.54314 9.83166e-06 -1.16707)
(1.51692e-05 1.93128e-05 -1.16707)
(3.09513e-05 3.09513e-05 -1.16707)
(2.94997e-05 3.87603e-05 -1.16708)
(-2.54322 3.78311e-05 -1.16708)
(2.54316 1.58305e-05 -1.16707)
(2.58945e-05 2.18061e-05 -1.16707)
(3.87603e-05 2.94997e-05 -1.16708)
(2.86858e-05 2.86858e-05 -1.16708)
(-2.54326 1.69332e-05 -1.16708)
(2.54318 -2.54316 -1.16707)
(2.88384e-05 -2.54318 -1.16708)
(3.78311e-05 -2.54322 -1.16708)
(1.69332e-05 -2.54326 -1.16708)
(-2.54326 -2.54326 -1.16709)
(0.914947 0.914947 -2.07834)
(2.18487e-06 0.914948 -2.07834)
(1.11486e-05 0.914955 -2.07834)
(1.53155e-05 0.914978 -2.07834)
(-0.914976 0.91499 -2.07835)
(0.914948 2.18487e-06 -2.07834)
(5.1613e-06 5.1613e-06 -2.07834)
(1.89389e-05 1.37965e-05 -2.07834)
(1.9724e-05 2.19734e-05 -2.07835)
(-0.914991 2.38841e-05 -2.07835)
(0.914955 1.11486e-05 -2.07834)
(1.37965e-05 1.89389e-05 -2.07834)
(2.79607e-05 2.79607e-05 -2.07835)
(2.54032e-05 3.37574e-05 -2.07835)
(-0.915022 3.1988e-05 -2.07836)
(0.914978 1.53155e-05 -2.07834)
(2.19734e-05 1.9724e-05 -2.07835)
(3.37574e-05 2.54032e-05 -2.07835)
(2.37514e-05 2.37514e-05 -2.07836)
(-0.915057 1.27717e-05 -2.07837)
(0.91499 -0.914976 -2.07835)
(2.38841e-05 -0.914991 -2.07835)
(3.1988e-05 -0.915022 -2.07836)
(1.27717e-05 -0.915057 -2.07837)
(-0.915058 -0.915058 -2.07837)
(-1.61355 -1.61355 -2.86143)
(1.41849e-06 -1.61355 -2.86143)
(1.01398e-05 -1.61355 -2.86143)
(1.22042e-05 -1.61353 -2.86144)
(1.61353 -1.61352 -2.86144)
(-1.61355 1.41849e-06 -2.86143)
(4.50457e-06 4.50457e-06 -2.86143)
(1.5414e-05 1.04772e-05 -2.86144)
(1.50096e-05 1.57238e-05 -2.86145)
(1.61352 1.68534e-05 -2.86145)
(-1.61355 1.01398e-05 -2.86143)
(1.04772e-05 1.5414e-05 -2.86144)
(2.1359e-05 2.1359e-05 -2.86144)
(1.85804e-05 2.47586e-05 -2.86146)
(1.6135 2.24289e-05 -2.86146)
(-1.61353 1.22042e-05 -2.86144)
(1.57238e-05 1.50096e-05 -2.86145)
(2.47586e-05 1.85804e-05 -2.86146)
(1.60796e-05 1.60796e-05 -2.86147)
(1.61347 6.62707e-06 -2.86147)
(-1.61352 1.61353 -2.86144)
(1.68534e-05 1.61352 -2.86145)
(2.24289e-05 1.6135 -2.86146)
(6.62707e-06 1.61347 -2.86147)
(1.61347 1.61347 -2.86147)
(-4.80792 -4.80792 3.21073)
(6.29762e-07 -4.80792 3.21074)
(5.25376e-06 -4.80792 3.21073)
(5.43927e-06 -4.80791 3.21072)
(4.80791 -4.8079 3.21072)
(-4.80792 6.29762e-07 3.21074)
(2.17458e-06 2.17458e-06 3.21074)
(7.29046e-06 4.58106e-06 3.21073)
(6.43178e-06 6.51577e-06 3.21071)
(4.8079 6.92244e-06 3.21071)
(-4.80792 5.25376e-06 3.21073)
(4.58106e-06 7.29046e-06 3.21073)
(9.59495e-06 9.59495e-06 3.21072)
(7.78065e-06 1.07496e-05 3.2107)
(4.80789 8.88768e-06 3.21069)
(-4.80791 5.43927e-06 3.21072)
(6.51577e-06 6.43178e-06 3.21071)
(1.07496e-05 7.78065e-06 3.2107)
(5.72451e-06 5.72451e-06 3.21068)
(4.80788 3.91386e-07 3.21068)
(-4.8079 4.80791 3.21072)
(6.92244e-06 4.8079 3.21071)
(8.88768e-06 4.80789 3.21069)
(3.91386e-07 4.80788 3.21068)
(4.80789 4.80789 3.21068)
)
;

boundaryField
{
    wall_minX
    {
        type            extrapolatedCalculated;
        value           nonuniform List<vector> 
100
(
(0 -0.321918 -0.634662)
(0 -3.3357e-07 -0.634656)
(0 -5.60547e-06 -0.634666)
(0 -4.15591e-06 -0.634676)
(0 0.321929 -0.63468)
(0 -0.947399 -0.598027)
(0 -3.72754e-06 -0.598026)
(0 -1.4886e-05 -0.598034)
(0 -1.05685e-05 -0.598042)
(0 0.947428 -0.598045)
(0 -1.51797 -0.525124)
(0 -8.13487e-06 -0.525124)
(0 -2.15798e-05 -0.525131)
(0 -1.46443e-05 -0.525135)
(0 1.51801 -0.525137)
(0 -1.99765 -0.416809)
(0 -1.09221e-05 -0.416809)
(0 -2.53011e-05 -0.416813)
(0 -1.62976e-05 -0.416814)
(0 1.9977 -0.416814)
(0 -2.35159 -0.274697)
(0 -1.20688e-05 -0.274696)
(0 -2.66525e-05 -0.274698)
(0 -1.61484e-05 -0.274697)
(0 2.35164 -0.274696)
(0 -2.54704 -0.101622)
(0 -1.20381e-05 -0.101621)
(0 -2.63096e-05 -0.101621)
(0 -1.47767e-05 -0.101619)
(0 2.54709 -0.101617)
(0 -2.55483 0.0976685)
(0 -1.11619e-05 0.0976698)
(0 -2.46795e-05 0.0976709)
(0 -1.25065e-05 0.0976741)
(0 2.55488 0.0976761)
(0 -2.3517 0.315471)
(0 -9.66827e-06 0.315472)
(0 -2.20218e-05 0.315474)
(0 -9.53145e-06 0.315478)
(0 2.35174 0.31548)
(0 -1.92389 0.539635)
(0 -7.75469e-06 0.539636)
(0 -1.8564e-05 0.539639)
(0 -6.01849e-06 0.539644)
(0 1.92392 0.539646)
(0 -1.27243 0.751576)
(0 -5.63068e-06 0.751577)
(0 -1.45666e-05 0.75158)
(0 -2.17025e-06 0.751585)
(0 1.27245 0.751588)
(0 -0.420735 0.923976)
(0 -3.52227e-06 0.923977)
(0 -1.03374e-05 0.92398)
(0 1.75228e-06 0.923985)
(0 0.420747 0.923988)
(0 0.575523 1.01895)
(0 -1.63942e-06 1.01895)
(0 -6.18957e-06 1.01895)
(0 5.45535e-06 1.01896)
(0 -0.57552 1.01896)
(0 1.61717 0.988405)
(0 -1.19056e-07 0.988404)
(0 -2.35464e-06 0.988408)
(0 8.68539e-06 0.988412)
(0 -1.61717 0.988414)
(0 2.55233 0.77949)
(0 1.01909e-06 0.779489)
(0 1.10307e-06 0.779492)
(0 1.13164e-05 0.779495)
(0 -2.55235 0.779497)
(0 3.17614 0.348381)
(0 1.84825e-06 0.348379)
(0 4.28254e-06 0.348383)
(0 1.3378e-05 0.348385)
(0 -3.17616 0.348386)
(0 3.24909 -0.316505)
(0 2.41328e-06 -0.316507)
(0 7.27273e-06 -0.316504)
(0 1.49398e-05 -0.316502)
(0 -3.24912 -0.316501)
(0 2.54313 -1.16707)
(0 2.59164e-06 -1.16707)
(0 9.83166e-06 -1.16707)
(0 1.58305e-05 -1.16707)
(0 -2.54316 -1.16707)
(0 0.914947 -2.07834)
(0 2.18487e-06 -2.07834)
(0 1.11486e-05 -2.07834)
(0 1.53155e-05 -2.07834)
(0 -0.914976 -2.07835)
(0 -1.61355 -2.86143)
(0 1.41849e-06 -2.86143)
(0 1.01398e-05 -2.86143)
(0 1.22042e-05 -2.86144)
(0 1.61353 -2.86144)
(0 -4.80792 3.21073)
(0 6.29762e-07 3.21074)
(0 5.25376e-06 3.21073)
(0 5.43927e-06 3.21072)
(0 4.80791 3.21072)
)
;
    }
    wall_maxX
    {
        type            extrapolatedCalculated;
        value           nonuniform List<vector> 
100
(
(0 -0.32193 -0.63468)
(0 -1.48213e-06 -0.634681)
(0 -1.5048e-06 -0.634685)
(0 7.42556e-07 -0.634684)
(0 0.321932 -0.634682)
(0 -0.947431 -0.598045)
(0 -2.64015e-06 -0.598044)
(0 -1.72261e-06 -0.598045)
(0 2.24348e-06 -0.598042)
(0 0.947433 -0.598042)
(0 -1.51802 -0.525137)
(0 -1.53963e-06 -0.525135)
(0 8.28049e-07 -0.525132)
(0 3.88669e-06 -0.525128)
(0 1.51802 -0.525129)
(0 -1.9977 -0.416814)
(0 1.54107e-06 -0.416811)
(0 5.27198e-06 -0.416807)
(0 5.93161e-06 -0.416801)
(0 1.99769 -0.416802)
(0 -2.35164 -0.274696)
(0 5.90013e-06 -0.274693)
(0 1.08601e-05 -0.274687)
(0 8.32394e-06 -0.274681)
(0 2.35162 -0.274682)
(0 -2.54709 -0.101617)
(0 1.09677e-05 -0.101613)
(0 1.70109e-05 -0.101607)
(0 1.08933e-05 -0.101601)
(0 2.54705 -0.101601)
(0 -2.55487 0.0976761)
(0 1.63429e-05 0.0976803)
(0 2.32816e-05 0.0976868)
(0 1.34383e-05 0.0976926)
(0 2.55482 0.0976917)
(0 -2.35174 0.31548)
(0 2.16944e-05 0.315485)
(0 2.92997e-05 0.315491)
(0 1.57748e-05 0.315496)
(0 2.35167 0.315495)
(0 -1.92391 0.539646)
(0 2.66905e-05 0.53965)
(0 3.47146e-05 0.539656)
(0 1.77485e-05 0.53966)
(0 1.92383 0.539659)
(0 -1.27244 0.751588)
(0 3.09749e-05 0.751591)
(0 3.91861e-05 0.751595)
(0 1.92412e-05 0.751599)
(0 1.27235 0.751598)
(0 -0.420731 0.923988)
(0 3.41933e-05 0.92399)
(0 4.24193e-05 0.923993)
(0 2.01879e-05 0.923995)
(0 0.420634 0.923994)
(0 0.575539 1.01896)
(0 3.60747e-05 1.01896)
(0 4.42442e-05 1.01896)
(0 2.06036e-05 1.01896)
(0 -0.57564 1.01896)
(0 1.61719 0.988414)
(0 3.65418e-05 0.988413)
(0 4.47085e-05 0.988413)
(0 2.05968e-05 0.988413)
(0 -1.61729 0.988413)
(0 2.55237 0.779497)
(0 3.57794e-05 0.779495)
(0 4.41015e-05 0.779494)
(0 2.03247e-05 0.779493)
(0 -2.55247 0.779494)
(0 3.17618 0.348386)
(0 3.41558e-05 0.348384)
(0 4.28037e-05 0.348382)
(0 1.98541e-05 0.348381)
(0 -3.17628 0.348381)
(0 3.24914 -0.316501)
(0 3.19328e-05 -0.316504)
(0 4.09218e-05 -0.316507)
(0 1.89532e-05 -0.316509)
(0 -3.24923 -0.31651)
(0 2.54318 -1.16707)
(0 2.88384e-05 -1.16708)
(0 3.78311e-05 -1.16708)
(0 1.69332e-05 -1.16708)
(0 -2.54326 -1.16709)
(0 0.91499 -2.07835)
(0 2.38841e-05 -2.07835)
(0 3.1988e-05 -2.07836)
(0 1.27717e-05 -2.07837)
(0 -0.915058 -2.07837)
(0 -1.61352 -2.86144)
(0 1.68534e-05 -2.86145)
(0 2.24289e-05 -2.86146)
(0 6.62707e-06 -2.86147)
(0 1.61347 -2.86147)
(0 -4.8079 3.21072)
(0 6.92244e-06 3.21071)
(0 8.88768e-06 3.21069)
(0 3.91386e-07 3.21068)
(0 4.80789 3.21068)
)
;
    }
    wall_minY
    {
        type            extrapolatedCalculated;
        value           nonuniform List<vector> 
100
(
(-0.321918 0 -0.634662)
(-0.947399 0 -0.598027)
(-1.51797 0 -0.525124)
(-1.99765 0 -0.416809)
(-2.35159 0 -0.274697)
(-2.54704 0 -0.101622)
(-2.55483 0 0.0976685)
(-2.3517 0 0.315471)
(-1.92389 0 0.539635)
(-1.27243 0 0.751576)
(-0.420735 0 0.923976)
(0.575523 0 1.01895)
(1.61717 0 0.988405)
(2.55233 0 0.77949)
(3.17614 0 0.348381)
(3.24909 0 -0.316505)
(2.54313 0 -1.16707)
(0.914947 0 -2.07834)
(-1.61355 0 -2.86143)
(-4.80792 0 3.21073)
(-3.3357e-07 0 -0.634656)
(-3.72754e-06 0 -0.598026)
(-8.13487e-06 0 -0.525124)
(-1.09221e-05 0 -0.416809)
(-1.20688e-05 0 -0.274696)
(-1.20381e-05 0 -0.101621)
(-1.11619e-05 0 0.0976698)
(-9.66827e-06 0 0.315472)
(-7.75469e-06 0 0.539636)
(-5.63068e-06 0 0.751577)
(-3.52227e-06 0 0.923977)
(-1.63942e-06 0 1.01895)
(-1.19056e-07 0 0.988404)
(1.01909e-06 0 0.779489)
(1.84825e-06 0 0.348379)
(2.41328e-06 0 -0.316507)
(2.59164e-06 0 -1.16707)
(2.18487e-06 0 -2.07834)
(1.41849e-06 0 -2.86143)
(6.29762e-07 0 3.21074)
(-5.60547e-06 0 -0.634666)
(-1.4886e-05 0 -0.598034)
(-2.15798e-05 0 -0.525131)
(-2.53011e-05 0 -0.416813)
(-2.66525e-05 0 -0.274698)
(-2.63096e-05 0 -0.101621)
(-2.46795e-05 0 0.0976709)
(-2.20218e-05 0 0.315474)
(-1.8564e-05 0 0.539639)
(-1.45666e-05 0 0.75158)
(-1.03374e-05 0 0.92398)
(-6.18957e-06 0 1.01895)
(-2.35464e-06 0 0.988408)
(1.10307e-06 0 0.779492)
(4.28254e-06 0 0.348383)
(7.27273e-06 0 -0.316504)
(9.83166e-06 0 -1.16707)
(1.11486e-05 0 -2.07834)
(1.01398e-05 0 -2.86143)
(5.25376e-06 0 3.21073)
(-4.15591e-06 0 -0.634676)
(-1.05685e-05 0 -0.598042)
(-1.46443e-05 0 -0.525135)
(-1.62976e-05 0 -0.416814)
(-1.61484e-05 0 -0.274697)
(-1.47767e-05 0 -0.101619)
(-1.25065e-05 0 0.0976741)
(-9.53145e-06 0 0.315478)
(-6.01849e-06 0 0.539644)
(-2.17025e-06 0 0.751585)
(1.75228e-06 0 0.923985)
(5.45535e-06 0 1.01896)
(8.68539e-06 0 0.988412)
(1.13164e-05 0 0.779495)
(1.3378e-05 0 0.348385)
(1.49398e-05 0 -0.316502)
(1.58305e-05 0 -1.16707)
(1.53155e-05 0 -2.07834)
(1.22042e-05 0 -2.86144)
(5.43927e-06 0 3.21072)
(0.321929 0 -0.63468)
(0.947428 0 -0.598045)
(1.51801 0 -0.525137)
(1.9977 0 -0.416814)
(2.35164 0 -0.274696)
(2.54709 0 -0.101617)
(2.55488 0 0.0976761)
(2.35174 0 0.31548)
(1.92392 0 0.539646)
(1.27245 0 0.751588)
(0.420747 0 0.923988)
(-0.57552 0 1.01896)
(-1.61717 0 0.988414)
(-2.55235 0 0.779497)
(-3.17616 0 0.348386)
(-3.24912 0 -0.316501)
(-2.54316 0 -1.16707)
(-0.914976 0 -2.07835)
(1.61353 0 -2.86144)
(4.80791 0 3.21072)
)
;
    }
    wall_maxY
    {
        type            extrapolatedCalculated;
        value           nonuniform List<vector> 
100
(
(-0.32193 0 -0.63468)
(-0.947431 0 -0.598045)
(-1.51802 0 -0.525137)
(-1.9977 0 -0.416814)
(-2.35164 0 -0.274696)
(-2.54709 0 -0.101617)
(-2.55487 0 0.0976761)
(-2.35174 0 0.31548)
(-1.92391 0 0.539646)
(-1.27244 0 0.751588)
(-0.420731 0 0.923988)
(0.575539 0 1.01896)
(1.61719 0 0.988414)
(2.55237 0 0.779497)
(3.17618 0 0.348386)
(3.24914 0 -0.316501)
(2.54318 0 -1.16707)
(0.91499 0 -2.07835)
(-1.61352 0 -2.86144)
(-4.8079 0 3.21072)
(-1.48213e-06 0 -0.634681)
(-2.64015e-06 0 -0.598044)
(-1.53963e-06 0 -0.525135)
(1.54107e-06 0 -0.416811)
(5.90013e-06 0 -0.274693)
(1.09677e-05 0 -0.101613)
(1.63429e-05 0 0.0976803)
(2.16944e-05 0 0.315485)
(2.66905e-05 0 0.53965)
(3.09749e-05 0 0.751591)
(3.41933e-05 0 0.92399)
(3.60747e-05 0 1.01896)
(3.65418e-05 0 0.988413)
(3.57794e-05 0 0.779495)
(3.41558e-05 0 0.348384)
(3.19328e-05 0 -0.316504)
(2.88384e-05 0 -1.16708)
(2.38841e-05 0 -2.07835)
(1.68534e-05 0 -2.86145)
(6.92244e-06 0 3.21071)
(-1.5048e-06 0 -0.634685)
(-1.72261e-06 0 -0.598045)
(8.28049e-07 0 -0.525132)
(5.27198e-06 0 -0.416807)
(1.08601e-05 0 -0.274687)
(1.70109e-05 0 -0.101607)
(2.32816e-05 0 0.0976868)
(2.92997e-05 0 0.315491)
(3.47146e-05 0 0.539656)
(3.91861e-05 0 0.751595)
(4.24193e-05 0 0.923993)
(4.42442e-05 0 1.01896)
(4.47085e-05 0 0.988413)
(4.41015e-05 0 0.779494)
(4.28037e-05 0 0.348382)
(4.09218e-05 0 -0.316507)
(3.78311e-05 0 -1.16708)
(3.1988e-05 0 -2.07836)
(2.24289e-05 0 -2.86146)
(8.88768e-06 0 3.21069)
(7.42556e-07 0 -0.634684)
(2.24348e-06 0 -0.598042)
(3.88669e-06 0 -0.525128)
(5.93161e-06 0 -0.416801)
(8.32394e-06 0 -0.274681)
(1.08933e-05 0 -0.101601)
(1.34383e-05 0 0.0976926)
(1.57748e-05 0 0.315496)
(1.77485e-05 0 0.53966)
(1.92412e-05 0 0.751599)
(2.01879e-05 0 0.923995)
(2.06036e-05 0 1.01896)
(2.05968e-05 0 0.988413)
(2.03247e-05 0 0.779493)
(1.98541e-05 0 0.348381)
(1.89532e-05 0 -0.316509)
(1.69332e-05 0 -1.16708)
(1.27717e-05 0 -2.07837)
(6.62707e-06 0 -2.86147)
(3.91386e-07 0 3.21068)
(0.321932 0 -0.634682)
(0.947433 0 -0.598042)
(1.51802 0 -0.525129)
(1.99769 0 -0.416802)
(2.35162 0 -0.274682)
(2.54705 0 -0.101601)
(2.55482 0 0.0976917)
(2.35167 0 0.315495)
(1.92383 0 0.539659)
(1.27235 0 0.751598)
(0.420634 0 0.923994)
(-0.57564 0 1.01896)
(-1.61729 0 0.988413)
(-2.55247 0 0.779494)
(-3.17628 0 0.348381)
(-3.24923 0 -0.31651)
(-2.54326 0 -1.16709)
(-0.915058 0 -2.07837)
(1.61347 0 -2.86147)
(4.80789 0 3.21068)
)
;
    }
    inlet_minZ
    {
        type            extrapolatedCalculated;
        value           nonuniform List<vector> 
25
(
(-0.321918 -0.321918 -0.643841)
(-0.321916 -3.3357e-07 -0.643832)
(-0.321922 -5.60547e-06 -0.643843)
(-0.321928 -4.15591e-06 -0.643855)
(-0.32193 0.321929 -0.643859)
(-3.3357e-07 -0.321916 -0.643832)
(-3.32404e-06 -3.32404e-06 -0.643831)
(-3.8755e-06 -6.25713e-06 -0.643846)
(-2.60192e-06 -3.47885e-06 -0.643856)
(-1.48213e-06 0.321929 -0.643859)
(-5.60547e-06 -0.321922 -0.643843)
(-6.25713e-06 -3.8755e-06 -0.643846)
(-4.88335e-06 -4.88335e-06 -0.643858)
(-3.00619e-06 -1.76254e-06 -0.643865)
(-1.5048e-06 0.321933 -0.643865)
(-4.15591e-06 -0.321928 -0.643855)
(-3.47885e-06 -2.60192e-06 -0.643856)
(-1.76254e-06 -3.00619e-06 -0.643865)
(-1.00297e-07 -1.00297e-07 -0.643868)
(7.42556e-07 0.321933 -0.643866)
(0.321929 -0.32193 -0.643859)
(0.321929 -1.48213e-06 -0.643859)
(0.321933 -1.5048e-06 -0.643865)
(0.321933 7.42556e-07 -0.643866)
(0.321932 0.321932 -0.643862)
)
;
    }
    outlet_maxZ
    {
        type            extrapolatedCalculated;
        value           nonuniform List<vector> 
25
(
(-4.80792 -4.80792 9.61584)
(-4.80792 6.29762e-07 9.61584)
(-4.80792 5.25376e-06 9.61583)
(-4.80791 5.43927e-06 9.61582)
(-4.8079 4.80791 9.61581)
(6.29762e-07 -4.80792 9.61584)
(2.17458e-06 2.17458e-06 9.61584)
(4.58106e-06 7.29046e-06 9.61583)
(6.51577e-06 6.43178e-06 9.61581)
(6.92244e-06 4.8079 9.61581)
(5.25376e-06 -4.80792 9.61583)
(7.29046e-06 4.58106e-06 9.61583)
(9.59495e-06 9.59495e-06 9.61582)
(1.07496e-05 7.78065e-06 9.61579)
(8.88768e-06 4.80789 9.61578)
(5.43927e-06 -4.80791 9.61582)
(6.43178e-06 6.51577e-06 9.61581)
(7.78065e-06 1.07496e-05 9.61579)
(5.72451e-06 5.72451e-06 9.61577)
(3.91386e-07 4.80788 9.61577)
(4.80791 -4.8079 9.61581)
(4.8079 6.92244e-06 9.61581)
(4.80789 8.88768e-06 9.61578)
(4.80788 3.91386e-07 9.61577)
(4.80789 4.80789 9.61578)
)
;
    }
}


// ************************************************************************* //
