/*--------------------------------*- C++ -*----------------------------------*\
| =========                 |                                                 |
| \\      /  F ield         | OpenFOAM: The Open Source CFD Toolbox           |
|  \\    /   O peration     | Version:  v2106                                 |
|   \\  /    A nd           | Website:  www.openfoam.com                      |
|    \\/     M anipulation  |                                                 |
\*---------------------------------------------------------------------------*/
FoamFile
{
    version     2.0;
    format      ascii;
    arch        "LSB;label=32;scalar=64";
    class       volVectorField;
    location    "50";
    object      grad(Tmode0);
}
// * * * * * * * * * * * * * * * * * * * * * * * * * * * * * * * * * * * * * //

dimensions      [0 -1 0 0 0 0 0];

internalField   nonuniform List<vector> 
500
(
(-0.159766 -0.159766 -0.318908)
(-2.76802e-08 -0.159766 -0.318908)
(-3.21221e-07 -0.159766 -0.318908)
(-2.78284e-07 -0.159767 -0.318909)
(0.159767 -0.159767 -0.318909)
(-0.159766 -2.76802e-08 -0.318908)
(-1.81845e-07 -1.81845e-07 -0.318908)
(-3.8793e-07 -2.42341e-07 -0.318908)
(-2.42544e-07 -1.70869e-07 -0.318909)
(0.159767 -1.10148e-07 -0.318909)
(-0.159766 -3.21221e-07 -0.318908)
(-2.42341e-07 -3.8793e-07 -0.318908)
(-3.10245e-07 -3.10245e-07 -0.318909)
(-1.46091e-07 -1.93607e-07 -0.318909)
(0.159767 -1.0494e-07 -0.318909)
(-0.159767 -2.78284e-07 -0.318909)
(-1.70868e-07 -2.42544e-07 -0.318909)
(-1.93607e-07 -1.46091e-07 -0.318909)
(-3.72397e-08 -3.72397e-08 -0.31891)
(0.159767 1.98392e-08 -0.318909)
(-0.159767 0.159767 -0.318909)
(-1.10148e-07 0.159767 -0.318909)
(-1.0494e-07 0.159767 -0.318909)
(1.98392e-08 0.159767 -0.318909)
(0.159767 0.159767 -0.318909)
(-0.47805 -0.47805 -0.316396)
(-2.57389e-07 -0.478049 -0.316396)
(-8.87278e-07 -0.47805 -0.316396)
(-7.12238e-07 -0.478051 -0.316397)
(0.478051 -0.478052 -0.316397)
(-0.478049 -2.57389e-07 -0.316396)
(-5.75344e-07 -5.75344e-07 -0.316396)
(-9.63354e-07 -6.30208e-07 -0.316396)
(-5.9577e-07 -4.07408e-07 -0.316397)
(0.478052 -2.36557e-07 -0.316397)
(-0.47805 -8.87278e-07 -0.316396)
(-6.30208e-07 -9.63354e-07 -0.316396)
(-7.19343e-07 -7.19343e-07 -0.316397)
(-3.18586e-07 -3.89872e-07 -0.316397)
(0.478052 -1.59917e-07 -0.316397)
(-0.478051 -7.12238e-07 -0.316397)
(-4.07408e-07 -5.9577e-07 -0.316397)
(-3.89872e-07 -3.18586e-07 -0.316397)
(-3.63453e-08 -3.63453e-08 -0.316397)
(0.478052 7.80706e-08 -0.316397)
(-0.478052 0.478051 -0.316397)
(-2.36557e-07 0.478052 -0.316397)
(-1.59917e-07 0.478052 -0.316397)
(7.80706e-08 0.478052 -0.316397)
(0.478052 0.478052 -0.316397)
(-0.792557 -0.792557 -0.31131)
(-5.58937e-07 -0.792557 -0.31131)
(-1.33875e-06 -0.792559 -0.31131)
(-1.01831e-06 -0.79256 -0.311311)
(0.79256 -0.792561 -0.311311)
(-0.792557 -5.58937e-07 -0.31131)
(-9.22193e-07 -9.22193e-07 -0.31131)
(-1.36107e-06 -8.98979e-07 -0.31131)
(-8.05971e-07 -5.08191e-07 -0.311311)
(0.792561 -2.37272e-07 -0.311311)
(-0.792559 -1.33875e-06 -0.31131)
(-8.98979e-07 -1.36107e-06 -0.31131)
(-9.24747e-07 -9.24747e-07 -0.311311)
(-3.56608e-07 -3.95363e-07 -0.311311)
(0.792561 -6.50328e-08 -0.311311)
(-0.79256 -1.01831e-06 -0.311311)
(-5.08191e-07 -8.05971e-07 -0.311311)
(-3.95363e-07 -3.56608e-07 -0.311311)
(5.37429e-08 5.37429e-08 -0.31131)
(0.792561 1.58485e-07 -0.31131)
(-0.792561 0.79256 -0.311311)
(-2.37272e-07 0.792561 -0.311311)
(-6.50328e-08 0.792561 -0.311311)
(1.58485e-07 0.792561 -0.31131)
(0.792561 0.792561 -0.31131)
(-1.10067 -1.10067 -0.303524)
(-7.80774e-07 -1.10067 -0.303524)
(-1.6477e-06 -1.10067 -0.303525)
(-1.21626e-06 -1.10067 -0.303525)
(1.10067 -1.10067 -0.303525)
(-1.10067 -7.80774e-07 -0.303524)
(-1.15255e-06 -1.15255e-06 -0.303525)
(-1.60217e-06 -1.03608e-06 -0.303525)
(-9.08571e-07 -4.7778e-07 -0.303525)
(1.10067 -1.26973e-07 -0.303525)
(-1.10067 -1.6477e-06 -0.303525)
(-1.03608e-06 -1.60217e-06 -0.303525)
(-9.72927e-07 -9.72927e-07 -0.303525)
(-3.07146e-07 -2.60649e-07 -0.303525)
(1.10067 1.32104e-07 -0.303525)
(-1.10067 -1.21626e-06 -0.303525)
(-4.7778e-07 -9.08571e-07 -0.303525)
(-2.60649e-07 -3.07146e-07 -0.303525)
(1.9646e-07 1.9646e-07 -0.303525)
(1.10067 2.61773e-07 -0.303524)
(-1.10067 1.10067 -0.303525)
(-1.26973e-07 1.10067 -0.303525)
(1.32104e-07 1.10067 -0.303525)
(2.61773e-07 1.10067 -0.303524)
(1.10067 1.10067 -0.303524)
(-1.39961 -1.39961 -0.292847)
(-9.18247e-07 -1.39961 -0.292847)
(-1.84697e-06 -1.39961 -0.292847)
(-1.3405e-06 -1.39961 -0.292848)
(1.39961 -1.39961 -0.292848)
(-1.39961 -9.18247e-07 -0.292847)
(-1.2854e-06 -1.2854e-06 -0.292847)
(-1.74106e-06 -1.07821e-06 -0.292848)
(-9.45569e-07 -3.59711e-07 -0.292848)
(1.39961 5.71846e-08 -0.292848)
(-1.39961 -1.84697e-06 -0.292847)
(-1.07821e-06 -1.74106e-06 -0.292848)
(-9.21275e-07 -9.21275e-07 -0.292847)
(-2.05102e-07 -3.47813e-08 -0.292847)
(1.39961 3.98053e-07 -0.292847)
(-1.39961 -1.3405e-06 -0.292848)
(-3.59711e-07 -9.45569e-07 -0.292848)
(-3.47813e-08 -2.05102e-07 -0.292847)
(3.7376e-07 3.7376e-07 -0.292847)
(1.39961 3.87528e-07 -0.292847)
(-1.39961 1.39961 -0.292848)
(5.71846e-08 1.39961 -0.292848)
(3.98053e-07 1.39961 -0.292847)
(3.87528e-07 1.39961 -0.292847)
(1.39961 1.39961 -0.292847)
(-1.68636 -1.68636 -0.279014)
(-9.96543e-07 -1.68636 -0.279014)
(-1.97534e-06 -1.68637 -0.279014)
(-1.42566e-06 -1.68637 -0.279014)
(1.68637 -1.68637 -0.279014)
(-1.68636 -9.96543e-07 -0.279014)
(-1.34748e-06 -1.34748e-06 -0.279014)
(-1.81923e-06 -1.05407e-06 -0.279014)
(-9.5174e-07 -1.82046e-07 -0.279014)
(1.68637 2.9067e-07 -0.279014)
(-1.68637 -1.97534e-06 -0.279014)
(-1.05407e-06 -1.81923e-06 -0.279014)
(-8.09899e-07 -8.09899e-07 -0.279014)
(-8.09184e-08 2.48694e-07 -0.279014)
(1.68637 7.09896e-07 -0.279013)
(-1.68637 -1.42566e-06 -0.279014)
(-1.82046e-07 -9.5174e-07 -0.279014)
(2.48694e-07 -8.09184e-08 -0.279014)
(5.68055e-07 5.68055e-07 -0.279013)
(1.68637 5.30626e-07 -0.279013)
(-1.68637 1.68637 -0.279014)
(2.9067e-07 1.68637 -0.279014)
(7.09896e-07 1.68637 -0.279013)
(5.30626e-07 1.68637 -0.279013)
(1.68637 1.68637 -0.279013)
(-1.95763 -1.95763 -0.261677)
(-1.02811e-06 -1.95763 -0.261677)
(-2.04932e-06 -1.95764 -0.261677)
(-1.48672e-06 -1.95764 -0.261677)
(1.95764 -1.95764 -0.261677)
(-1.95763 -1.02811e-06 -0.261677)
(-1.34853e-06 -1.34853e-06 -0.261677)
(-1.85229e-06 -9.71353e-07 -0.261677)
(-9.42933e-07 4.71356e-08 -0.261677)
(1.95764 5.65145e-07 -0.261677)
(-1.95764 -2.04932e-06 -0.261677)
(-9.71353e-07 -1.85229e-06 -0.261677)
(-6.53658e-07 -6.53658e-07 -0.261677)
(4.97763e-08 5.76639e-07 -0.261677)
(1.95764 1.05637e-06 -0.261677)
(-1.95764 -1.48672e-06 -0.261677)
(4.71356e-08 -9.42933e-07 -0.261677)
(5.76639e-07 4.97763e-08 -0.261677)
(7.67097e-07 7.67097e-07 -0.261676)
(1.95764 6.84381e-07 -0.261676)
(-1.95764 1.95764 -0.261677)
(5.65145e-07 1.95764 -0.261677)
(1.05637e-06 1.95764 -0.261677)
(6.84381e-07 1.95764 -0.261676)
(1.95764 1.95764 -0.261676)
(-2.20972 -2.20972 -0.240395)
(-1.01348e-06 -2.20972 -0.240395)
(-2.06841e-06 -2.20972 -0.240395)
(-1.52393e-06 -2.20972 -0.240395)
(2.20972 -2.20972 -0.240395)
(-2.20972 -1.01348e-06 -0.240395)
(-1.28531e-06 -1.28531e-06 -0.240395)
(-1.83732e-06 -8.23128e-07 -0.240395)
(-9.21467e-07 3.32461e-07 -0.240395)
(2.20972 8.82713e-07 -0.240395)
(-2.20972 -2.06841e-06 -0.240395)
(-8.23128e-07 -1.83732e-06 -0.240395)
(-4.50634e-07 -4.50634e-07 -0.240395)
(1.81911e-07 9.48572e-07 -0.240395)
(2.20972 1.43423e-06 -0.240395)
(-2.20972 -1.52393e-06 -0.240395)
(3.32461e-07 -9.21467e-07 -0.240395)
(9.48572e-07 1.81911e-07 -0.240395)
(9.63399e-07 9.63399e-07 -0.240394)
(2.20972 8.42898e-07 -0.240394)
(-2.20972 2.20972 -0.240395)
(8.82713e-07 2.20972 -0.240395)
(1.43423e-06 2.20972 -0.240395)
(8.42898e-07 2.20972 -0.240394)
(2.20972 2.20972 -0.240394)
(-2.43842 -2.43842 -0.21461)
(-9.45972e-07 -2.43842 -0.21461)
(-2.02087e-06 -2.43843 -0.214609)
(-1.52674e-06 -2.43843 -0.214609)
(2.43843 -2.43843 -0.214609)
(-2.43842 -9.45972e-07 -0.21461)
(-1.14722e-06 -1.14722e-06 -0.214609)
(-1.75854e-06 -5.93802e-07 -0.214609)
(-8.79771e-07 6.85247e-07 -0.214609)
(2.43843 1.25072e-06 -0.214609)
(-2.43843 -2.02087e-06 -0.214609)
(-5.93802e-07 -1.75854e-06 -0.214609)
(-1.88403e-07 -1.88403e-07 -0.214609)
(3.17778e-07 1.37049e-06 -0.214609)
(2.43843 1.84389e-06 -0.214609)
(-2.43843 -1.52674e-06 -0.214609)
(6.85247e-07 -8.79771e-07 -0.214609)
(1.37049e-06 3.17778e-07 -0.214609)
(1.15253e-06 1.15253e-06 -0.214608)
(2.43843 1.00079e-06 -0.214608)
(-2.43843 2.43843 -0.214609)
(1.25072e-06 2.43843 -0.214609)
(1.84389e-06 2.43843 -0.214609)
(1.00079e-06 2.43843 -0.214608)
(2.43842 2.43842 -0.214608)
(-2.63894 -2.63894 -0.183616)
(-8.1612e-07 -2.63894 -0.183616)
(-1.88852e-06 -2.63894 -0.183616)
(-1.4766e-06 -2.63894 -0.183616)
(2.63894 -2.63894 -0.183616)
(-2.63894 -8.1612e-07 -0.183616)
(-9.21516e-07 -9.21516e-07 -0.183616)
(-1.59205e-06 -2.64877e-07 -0.183616)
(-8.02718e-07 1.11772e-06 -0.183615)
(2.63894 1.67654e-06 -0.183615)
(-2.63894 -1.88852e-06 -0.183616)
(-2.64877e-07 -1.59205e-06 -0.183616)
(1.5072e-07 1.5072e-07 -0.183615)
(4.64814e-07 1.84918e-06 -0.183615)
(2.63894 2.28449e-06 -0.183615)
(-2.63894 -1.4766e-06 -0.183616)
(1.11772e-06 -8.02718e-07 -0.183615)
(1.84918e-06 4.64814e-07 -0.183615)
(1.33105e-06 1.33105e-06 -0.183614)
(2.63894 1.15153e-06 -0.183614)
(-2.63894 2.63894 -0.183616)
(1.67654e-06 2.63894 -0.183615)
(2.28449e-06 2.63894 -0.183615)
(1.15153e-06 2.63894 -0.183614)
(2.63894 2.63894 -0.183614)
(-2.80566 -2.80566 -0.14654)
(-6.16591e-07 -2.80566 -0.14654)
(-1.65216e-06 -2.80566 -0.14654)
(-1.35046e-06 -2.80566 -0.14654)
(2.80566 -2.80566 -0.14654)
(-2.80566 -6.16591e-07 -0.14654)
(-5.99519e-07 -5.99519e-07 -0.14654)
(-1.31191e-06 1.77623e-07 -0.14654)
(-6.70482e-07 1.6357e-06 -0.146539)
(2.80566 2.16111e-06 -0.146539)
(-2.80566 -1.65216e-06 -0.14654)
(1.77623e-07 -1.31191e-06 -0.14654)
(5.83061e-07 5.83061e-07 -0.146539)
(6.33025e-07 2.38529e-06 -0.146539)
(2.80566 2.74769e-06 -0.146539)
(-2.80566 -1.35046e-06 -0.14654)
(1.6357e-06 -6.70482e-07 -0.146539)
(2.38529e-06 6.33025e-07 -0.146539)
(1.49415e-06 1.49415e-06 -0.146538)
(2.80565 1.2853e-06 -0.146538)
(-2.80566 2.80566 -0.14654)
(2.16111e-06 2.80566 -0.146539)
(2.74769e-06 2.80566 -0.146539)
(1.2853e-06 2.80565 -0.146538)
(2.80565 2.80565 -0.146538)
(-2.93202 -2.93202 -0.102341)
(-3.47989e-07 -2.93202 -0.102341)
(-1.29909e-06 -2.93202 -0.10234)
(-1.12646e-06 -2.93202 -0.10234)
(2.93202 -2.93202 -0.10234)
(-2.93202 -3.47989e-07 -0.102341)
(-1.84146e-07 -1.84146e-07 -0.10234)
(-8.99119e-07 7.33212e-07 -0.10234)
(-4.63403e-07 2.22917e-06 -0.102339)
(2.93202 2.69068e-06 -0.102339)
(-2.93202 -1.29909e-06 -0.10234)
(7.33212e-07 -8.99119e-07 -0.10234)
(1.11423e-06 1.11423e-06 -0.102339)
(8.31011e-07 2.96449e-06 -0.102339)
(2.93202 3.21053e-06 -0.102338)
(-2.93202 -1.12646e-06 -0.10234)
(2.22917e-06 -4.63403e-07 -0.102339)
(2.96449e-06 8.31011e-07 -0.102339)
(1.6329e-06 1.6329e-06 -0.102338)
(2.93201 1.38691e-06 -0.102338)
(-2.93202 2.93202 -0.10234)
(2.69068e-06 2.93202 -0.102339)
(3.21053e-06 2.93202 -0.102338)
(1.38691e-06 2.93201 -0.102338)
(2.93201 2.93201 -0.102338)
(-3.01034 -3.01034 -0.0499093)
(-2.49141e-08 -3.01034 -0.0499091)
(-8.32349e-07 -3.01034 -0.0499086)
(-7.92495e-07 -3.01034 -0.0499081)
(3.01034 -3.01034 -0.0499078)
(-3.01034 -2.49141e-08 -0.0499091)
(3.02239e-07 3.02239e-07 -0.0499089)
(-3.53512e-07 1.37576e-06 -0.0499081)
(-1.69556e-07 2.86215e-06 -0.0499077)
(3.01034 3.22849e-06 -0.0499075)
(-3.01034 -8.32349e-07 -0.0499086)
(1.37576e-06 -3.53512e-07 -0.0499081)
(1.72756e-06 1.72756e-06 -0.0499073)
(1.06024e-06 3.54819e-06 -0.0499069)
(3.01033 3.62891e-06 -0.0499068)
(-3.01034 -7.92495e-07 -0.0499081)
(2.86215e-06 -1.69556e-07 -0.0499077)
(3.54819e-06 1.06024e-06 -0.0499069)
(1.73179e-06 1.73179e-06 -0.0499066)
(3.01033 1.43505e-06 -0.0499067)
(-3.01034 3.01034 -0.0499078)
(3.22849e-06 3.01034 -0.0499075)
(3.62891e-06 3.01033 -0.0499068)
(1.43505e-06 3.01033 -0.0499067)
(3.01033 3.01033 -0.0499068)
(-3.03184 -3.03184 0.0116256)
(3.19889e-07 -3.03184 0.0116258)
(-2.79646e-07 -3.03183 0.0116263)
(-3.56148e-07 -3.03184 0.0116269)
(3.03184 -3.03183 0.0116272)
(-3.03184 3.19889e-07 0.0116258)
(8.1259e-07 8.1259e-07 0.011626)
(2.94473e-07 2.04504e-06 0.0116268)
(2.05812e-07 3.46581e-06 0.0116273)
(3.03183 3.70961e-06 0.0116276)
(-3.03183 -2.79646e-07 0.0116263)
(2.04504e-06 2.94473e-07 0.0116268)
(2.37358e-06 2.37358e-06 0.0116276)
(1.30843e-06 4.06755e-06 0.011628)
(3.03183 3.93565e-06 0.011628)
(-3.03184 -3.56148e-07 0.0116269)
(3.46581e-06 2.05812e-07 0.0116273)
(4.06755e-06 1.30843e-06 0.011628)
(1.76788e-06 1.76788e-06 0.0116282)
(3.03183 1.40407e-06 0.011628)
(-3.03183 3.03184 0.0116272)
(3.70961e-06 3.03183 0.0116276)
(3.93565e-06 3.03183 0.011628)
(1.40407e-06 3.03183 0.011628)
(3.03183 3.03183 0.0116279)
(-2.98709 -2.98709 0.082279)
(6.36459e-07 -2.98709 0.0822792)
(3.01953e-07 -2.98708 0.0822796)
(1.46771e-07 -2.98708 0.0822803)
(2.98709 -2.98708 0.0822806)
(-2.98709 6.36459e-07 0.0822792)
(1.27643e-06 1.27643e-06 0.0822793)
(9.76824e-07 2.64646e-06 0.08228)
(6.31339e-07 3.94017e-06 0.0822806)
(2.98708 4.04372e-06 0.0822808)
(-2.98708 3.01953e-07 0.0822796)
(2.64646e-06 9.76824e-07 0.08228)
(2.96569e-06 2.96569e-06 0.0822806)
(1.54403e-06 4.42576e-06 0.082281)
(2.98708 4.047e-06 0.082281)
(-2.98708 1.46771e-07 0.0822803)
(3.94017e-06 6.31339e-07 0.0822806)
(4.42576e-06 1.54403e-06 0.082281)
(1.71265e-06 1.71265e-06 0.0822811)
(2.98707 1.26923e-06 0.0822808)
(-2.98708 2.98709 0.0822806)
(4.04372e-06 2.98708 0.0822808)
(4.047e-06 2.98708 0.082281)
(1.26923e-06 2.98707 0.0822808)
(2.98707 2.98707 0.0822806)
(-2.86728 -2.86728 0.160252)
(8.66661e-07 -2.86728 0.160252)
(8.28732e-07 -2.86728 0.160252)
(6.48093e-07 -2.86727 0.160253)
(2.86728 -2.86727 0.160253)
(-2.86728 8.66661e-07 0.160252)
(1.61019e-06 1.61019e-06 0.160252)
(1.58926e-06 3.06225e-06 0.160252)
(1.04351e-06 4.16665e-06 0.160253)
(2.86727 4.12731e-06 0.160253)
(-2.86728 8.28732e-07 0.160252)
(3.06225e-06 1.58926e-06 0.160252)
(3.38519e-06 3.38519e-06 0.160252)
(1.71315e-06 4.51028e-06 0.160253)
(2.86727 3.87772e-06 0.160253)
(-2.86727 6.48093e-07 0.160253)
(4.16665e-06 1.04351e-06 0.160253)
(4.51028e-06 1.71315e-06 0.160253)
(1.53603e-06 1.53603e-06 0.160252)
(2.86726 1.0135e-06 0.160252)
(-2.86727 2.86728 0.160253)
(4.12731e-06 2.86727 0.160253)
(3.87772e-06 2.86727 0.160253)
(1.0135e-06 2.86726 0.160252)
(2.86726 2.86726 0.160252)
(-2.66658 -2.66658 0.24088)
(9.63639e-07 -2.66658 0.24088)
(1.20092e-06 -2.66658 0.24088)
(1.0472e-06 -2.66658 0.24088)
(2.66658 -2.66658 0.24088)
(-2.66658 9.63639e-07 0.24088)
(1.73775e-06 1.73775e-06 0.24088)
(1.99883e-06 3.17268e-06 0.24088)
(1.34383e-06 4.03007e-06 0.24088)
(2.66658 3.86496e-06 0.24088)
(-2.66658 1.20092e-06 0.24088)
(3.17268e-06 1.99883e-06 0.24088)
(3.49325e-06 3.49325e-06 0.240879)
(1.73948e-06 4.21099e-06 0.240879)
(2.66657 3.36066e-06 0.240879)
(-2.66658 1.0472e-06 0.24088)
(4.03007e-06 1.34383e-06 0.24088)
(4.21099e-06 1.73948e-06 0.240879)
(1.21125e-06 1.21125e-06 0.240879)
(2.66657 6.35049e-07 0.240879)
(-2.66658 2.66658 0.24088)
(3.86496e-06 2.66658 0.24088)
(3.36066e-06 2.66657 0.240879)
(6.35049e-07 2.66657 0.240879)
(2.66657 2.66657 0.240878)
(-2.38552 -2.38552 0.316122)
(9.21649e-07 -2.38552 0.316122)
(1.32269e-06 -2.38552 0.316122)
(1.21389e-06 -2.38551 0.316122)
(2.38551 -2.38551 0.316122)
(-2.38552 9.21649e-07 0.316122)
(1.62779e-06 1.62779e-06 0.316122)
(2.0578e-06 2.8919e-06 0.316122)
(1.4023e-06 3.45738e-06 0.316122)
(2.38551 3.21264e-06 0.316121)
(-2.38552 1.32269e-06 0.316122)
(2.8919e-06 2.0578e-06 0.316122)
(3.15228e-06 3.15228e-06 0.316121)
(1.53462e-06 3.44879e-06 0.31612)
(2.38551 2.48133e-06 0.31612)
(-2.38551 1.21389e-06 0.316122)
(3.45738e-06 1.4023e-06 0.316122)
(3.44879e-06 1.53462e-06 0.31612)
(7.31357e-07 7.31357e-07 0.31612)
(2.38551 1.70918e-07 0.316119)
(-2.38551 2.38551 0.316122)
(3.21264e-06 2.38551 0.316121)
(2.48133e-06 2.38551 0.31612)
(1.70918e-07 2.38551 0.316119)
(2.38551 2.38551 0.316119)
(-2.03434 -2.03434 0.375422)
(7.79679e-07 -2.03434 0.375422)
(1.13752e-06 -2.03434 0.375421)
(1.01249e-06 -2.03434 0.375421)
(2.03434 -2.03433 0.37542)
(-2.03434 7.79679e-07 0.375422)
(1.34008e-06 1.34008e-06 0.375421)
(1.65719e-06 2.2357e-06 0.375421)
(1.08934e-06 2.49748e-06 0.37542)
(2.03433 2.26879e-06 0.37542)
(-2.03434 1.13752e-06 0.375421)
(2.2357e-06 1.65719e-06 0.375421)
(2.29492e-06 2.29492e-06 0.375419)
(1.04557e-06 2.25901e-06 0.375418)
(2.03433 1.3804e-06 0.375418)
(-2.03434 1.01249e-06 0.375421)
(2.49748e-06 1.08934e-06 0.37542)
(2.25901e-06 1.04557e-06 0.375418)
(1.74829e-07 1.74829e-07 0.375417)
(2.03433 -2.28317e-07 0.375417)
(-2.03433 2.03434 0.37542)
(2.26879e-06 2.03433 0.37542)
(1.3804e-06 2.03433 0.375418)
(-2.28317e-07 2.03433 0.375417)
(2.03433 2.03433 0.375418)
(-1.63467 -1.63467 1.83451)
(3.83498e-07 -1.63467 1.83451)
(5.48247e-07 -1.63467 1.83451)
(3.90327e-07 -1.63467 1.83451)
(1.63467 -1.63467 1.8345)
(-1.63467 3.83498e-07 1.83451)
(6.63713e-07 6.63713e-07 1.83451)
(7.32074e-07 1.02347e-06 1.8345)
(3.58715e-07 1.05845e-06 1.8345)
(1.63467 9.1254e-07 1.8345)
(-1.63467 5.48247e-07 1.83451)
(1.02347e-06 7.32074e-07 1.8345)
(9.4298e-07 9.4298e-07 1.8345)
(2.79395e-07 8.26834e-07 1.8345)
(1.63467 3.20527e-07 1.8345)
(-1.63467 3.90327e-07 1.83451)
(1.05845e-06 3.58715e-07 1.8345)
(8.26834e-07 2.79395e-07 1.8345)
(-2.63738e-07 -2.63738e-07 1.8345)
(1.63467 -3.51812e-07 1.8345)
(-1.63467 1.63467 1.8345)
(9.1254e-07 1.63467 1.8345)
(3.20527e-07 1.63467 1.8345)
(-3.51812e-07 1.63467 1.8345)
(1.63467 1.63467 1.8345)
)
;

boundaryField
{
    wall_minX
    {
        type            extrapolatedCalculated;
        value           nonuniform List<vector> 
100
(
(0 -0.159766 -0.318908)
(0 -2.76802e-08 -0.318908)
(0 -3.21221e-07 -0.318908)
(0 -2.78284e-07 -0.318909)
(0 0.159767 -0.318909)
(0 -0.47805 -0.316396)
(0 -2.57389e-07 -0.316396)
(0 -8.87278e-07 -0.316396)
(0 -7.12238e-07 -0.316397)
(0 0.478051 -0.316397)
(0 -0.792557 -0.31131)
(0 -5.58937e-07 -0.31131)
(0 -1.33875e-06 -0.31131)
(0 -1.01831e-06 -0.311311)
(0 0.79256 -0.311311)
(0 -1.10067 -0.303524)
(0 -7.80774e-07 -0.303524)
(0 -1.6477e-06 -0.303525)
(0 -1.21626e-06 -0.303525)
(0 1.10067 -0.303525)
(0 -1.39961 -0.292847)
(0 -9.18247e-07 -0.292847)
(0 -1.84697e-06 -0.292847)
(0 -1.3405e-06 -0.292848)
(0 1.39961 -0.292848)
(0 -1.68636 -0.279014)
(0 -9.96543e-07 -0.279014)
(0 -1.97534e-06 -0.279014)
(0 -1.42566e-06 -0.279014)
(0 1.68637 -0.279014)
(0 -1.95763 -0.261677)
(0 -1.02811e-06 -0.261677)
(0 -2.04932e-06 -0.261677)
(0 -1.48672e-06 -0.261677)
(0 1.95764 -0.261677)
(0 -2.20972 -0.240395)
(0 -1.01348e-06 -0.240395)
(0 -2.06841e-06 -0.240395)
(0 -1.52393e-06 -0.240395)
(0 2.20972 -0.240395)
(0 -2.43842 -0.21461)
(0 -9.45972e-07 -0.21461)
(0 -2.02087e-06 -0.214609)
(0 -1.52674e-06 -0.214609)
(0 2.43843 -0.214609)
(0 -2.63894 -0.183616)
(0 -8.1612e-07 -0.183616)
(0 -1.88852e-06 -0.183616)
(0 -1.4766e-06 -0.183616)
(0 2.63894 -0.183616)
(0 -2.80566 -0.14654)
(0 -6.16591e-07 -0.14654)
(0 -1.65216e-06 -0.14654)
(0 -1.35046e-06 -0.14654)
(0 2.80566 -0.14654)
(0 -2.93202 -0.102341)
(0 -3.47989e-07 -0.102341)
(0 -1.29909e-06 -0.10234)
(0 -1.12646e-06 -0.10234)
(0 2.93202 -0.10234)
(0 -3.01034 -0.0499093)
(0 -2.49141e-08 -0.0499091)
(0 -8.32349e-07 -0.0499086)
(0 -7.92495e-07 -0.0499081)
(0 3.01034 -0.0499078)
(0 -3.03184 0.0116256)
(0 3.19889e-07 0.0116258)
(0 -2.79646e-07 0.0116263)
(0 -3.56148e-07 0.0116269)
(0 3.03184 0.0116272)
(0 -2.98709 0.082279)
(0 6.36459e-07 0.0822792)
(0 3.01953e-07 0.0822796)
(0 1.46771e-07 0.0822803)
(0 2.98709 0.0822806)
(0 -2.86728 0.160252)
(0 8.66661e-07 0.160252)
(0 8.28732e-07 0.160252)
(0 6.48093e-07 0.160253)
(0 2.86728 0.160253)
(0 -2.66658 0.24088)
(0 9.63639e-07 0.24088)
(0 1.20092e-06 0.24088)
(0 1.0472e-06 0.24088)
(0 2.66658 0.24088)
(0 -2.38552 0.316122)
(0 9.21649e-07 0.316122)
(0 1.32269e-06 0.316122)
(0 1.21389e-06 0.316122)
(0 2.38551 0.316122)
(0 -2.03434 0.375422)
(0 7.79679e-07 0.375422)
(0 1.13752e-06 0.375421)
(0 1.01249e-06 0.375421)
(0 2.03434 0.37542)
(0 -1.63467 1.83451)
(0 3.83498e-07 1.83451)
(0 5.48247e-07 1.83451)
(0 3.90327e-07 1.83451)
(0 1.63467 1.8345)
)
;
    }
    wall_maxX
    {
        type            extrapolatedCalculated;
        value           nonuniform List<vector> 
100
(
(0 -0.159767 -0.318909)
(0 -1.10148e-07 -0.318909)
(0 -1.0494e-07 -0.318909)
(0 1.98392e-08 -0.318909)
(0 0.159767 -0.318909)
(0 -0.478052 -0.316397)
(0 -2.36557e-07 -0.316397)
(0 -1.59917e-07 -0.316397)
(0 7.80706e-08 -0.316397)
(0 0.478052 -0.316397)
(0 -0.792561 -0.311311)
(0 -2.37272e-07 -0.311311)
(0 -6.50328e-08 -0.311311)
(0 1.58485e-07 -0.31131)
(0 0.792561 -0.31131)
(0 -1.10067 -0.303525)
(0 -1.26973e-07 -0.303525)
(0 1.32104e-07 -0.303525)
(0 2.61773e-07 -0.303524)
(0 1.10067 -0.303524)
(0 -1.39961 -0.292848)
(0 5.71846e-08 -0.292848)
(0 3.98053e-07 -0.292847)
(0 3.87528e-07 -0.292847)
(0 1.39961 -0.292847)
(0 -1.68637 -0.279014)
(0 2.9067e-07 -0.279014)
(0 7.09896e-07 -0.279013)
(0 5.30626e-07 -0.279013)
(0 1.68637 -0.279013)
(0 -1.95764 -0.261677)
(0 5.65145e-07 -0.261677)
(0 1.05637e-06 -0.261677)
(0 6.84381e-07 -0.261676)
(0 1.95764 -0.261676)
(0 -2.20972 -0.240395)
(0 8.82713e-07 -0.240395)
(0 1.43423e-06 -0.240395)
(0 8.42898e-07 -0.240394)
(0 2.20972 -0.240394)
(0 -2.43843 -0.214609)
(0 1.25072e-06 -0.214609)
(0 1.84389e-06 -0.214609)
(0 1.00079e-06 -0.214608)
(0 2.43842 -0.214608)
(0 -2.63894 -0.183616)
(0 1.67654e-06 -0.183615)
(0 2.28449e-06 -0.183615)
(0 1.15153e-06 -0.183614)
(0 2.63894 -0.183614)
(0 -2.80566 -0.14654)
(0 2.16111e-06 -0.146539)
(0 2.74769e-06 -0.146539)
(0 1.2853e-06 -0.146538)
(0 2.80565 -0.146538)
(0 -2.93202 -0.10234)
(0 2.69068e-06 -0.102339)
(0 3.21053e-06 -0.102338)
(0 1.38691e-06 -0.102338)
(0 2.93201 -0.102338)
(0 -3.01034 -0.0499078)
(0 3.22849e-06 -0.0499075)
(0 3.62891e-06 -0.0499068)
(0 1.43505e-06 -0.0499067)
(0 3.01033 -0.0499068)
(0 -3.03183 0.0116272)
(0 3.70961e-06 0.0116276)
(0 3.93565e-06 0.011628)
(0 1.40407e-06 0.011628)
(0 3.03183 0.0116279)
(0 -2.98708 0.0822806)
(0 4.04372e-06 0.0822808)
(0 4.047e-06 0.082281)
(0 1.26923e-06 0.0822808)
(0 2.98707 0.0822806)
(0 -2.86727 0.160253)
(0 4.12731e-06 0.160253)
(0 3.87772e-06 0.160253)
(0 1.0135e-06 0.160252)
(0 2.86726 0.160252)
(0 -2.66658 0.24088)
(0 3.86496e-06 0.24088)
(0 3.36066e-06 0.240879)
(0 6.35049e-07 0.240879)
(0 2.66657 0.240878)
(0 -2.38551 0.316122)
(0 3.21264e-06 0.316121)
(0 2.48133e-06 0.31612)
(0 1.70918e-07 0.316119)
(0 2.38551 0.316119)
(0 -2.03433 0.37542)
(0 2.26879e-06 0.37542)
(0 1.3804e-06 0.375418)
(0 -2.28317e-07 0.375417)
(0 2.03433 0.375418)
(0 -1.63467 1.8345)
(0 9.1254e-07 1.8345)
(0 3.20527e-07 1.8345)
(0 -3.51812e-07 1.8345)
(0 1.63467 1.8345)
)
;
    }
    wall_minY
    {
        type            extrapolatedCalculated;
        value           nonuniform List<vector> 
100
(
(-0.159766 0 -0.318908)
(-0.47805 0 -0.316396)
(-0.792557 0 -0.31131)
(-1.10067 0 -0.303524)
(-1.39961 0 -0.292847)
(-1.68636 0 -0.279014)
(-1.95763 0 -0.261677)
(-2.20972 0 -0.240395)
(-2.43842 0 -0.21461)
(-2.63894 0 -0.183616)
(-2.80566 0 -0.14654)
(-2.93202 0 -0.102341)
(-3.01034 0 -0.0499093)
(-3.03184 0 0.0116256)
(-2.98709 0 0.082279)
(-2.86728 0 0.160252)
(-2.66658 0 0.24088)
(-2.38552 0 0.316122)
(-2.03434 0 0.375422)
(-1.63467 0 1.83451)
(-2.76802e-08 0 -0.318908)
(-2.57389e-07 0 -0.316396)
(-5.58937e-07 0 -0.31131)
(-7.80774e-07 0 -0.303524)
(-9.18247e-07 0 -0.292847)
(-9.96543e-07 0 -0.279014)
(-1.02811e-06 0 -0.261677)
(-1.01348e-06 0 -0.240395)
(-9.45972e-07 0 -0.21461)
(-8.1612e-07 0 -0.183616)
(-6.16591e-07 0 -0.14654)
(-3.47989e-07 0 -0.102341)
(-2.49141e-08 0 -0.0499091)
(3.19889e-07 0 0.0116258)
(6.36459e-07 0 0.0822792)
(8.66661e-07 0 0.160252)
(9.63639e-07 0 0.24088)
(9.21649e-07 0 0.316122)
(7.79679e-07 0 0.375422)
(3.83498e-07 0 1.83451)
(-3.21221e-07 0 -0.318908)
(-8.87278e-07 0 -0.316396)
(-1.33875e-06 0 -0.31131)
(-1.6477e-06 0 -0.303525)
(-1.84697e-06 0 -0.292847)
(-1.97534e-06 0 -0.279014)
(-2.04932e-06 0 -0.261677)
(-2.06841e-06 0 -0.240395)
(-2.02087e-06 0 -0.214609)
(-1.88852e-06 0 -0.183616)
(-1.65216e-06 0 -0.14654)
(-1.29909e-06 0 -0.10234)
(-8.32349e-07 0 -0.0499086)
(-2.79646e-07 0 0.0116263)
(3.01953e-07 0 0.0822796)
(8.28732e-07 0 0.160252)
(1.20092e-06 0 0.24088)
(1.32269e-06 0 0.316122)
(1.13752e-06 0 0.375421)
(5.48247e-07 0 1.83451)
(-2.78284e-07 0 -0.318909)
(-7.12238e-07 0 -0.316397)
(-1.01831e-06 0 -0.311311)
(-1.21626e-06 0 -0.303525)
(-1.3405e-06 0 -0.292848)
(-1.42566e-06 0 -0.279014)
(-1.48672e-06 0 -0.261677)
(-1.52393e-06 0 -0.240395)
(-1.52674e-06 0 -0.214609)
(-1.4766e-06 0 -0.183616)
(-1.35046e-06 0 -0.14654)
(-1.12646e-06 0 -0.10234)
(-7.92495e-07 0 -0.0499081)
(-3.56148e-07 0 0.0116269)
(1.46771e-07 0 0.0822803)
(6.48093e-07 0 0.160253)
(1.0472e-06 0 0.24088)
(1.21389e-06 0 0.316122)
(1.01249e-06 0 0.375421)
(3.90327e-07 0 1.83451)
(0.159767 0 -0.318909)
(0.478051 0 -0.316397)
(0.79256 0 -0.311311)
(1.10067 0 -0.303525)
(1.39961 0 -0.292848)
(1.68637 0 -0.279014)
(1.95764 0 -0.261677)
(2.20972 0 -0.240395)
(2.43843 0 -0.214609)
(2.63894 0 -0.183616)
(2.80566 0 -0.14654)
(2.93202 0 -0.10234)
(3.01034 0 -0.0499078)
(3.03184 0 0.0116272)
(2.98709 0 0.0822806)
(2.86728 0 0.160253)
(2.66658 0 0.24088)
(2.38551 0 0.316122)
(2.03434 0 0.37542)
(1.63467 0 1.8345)
)
;
    }
    wall_maxY
    {
        type            extrapolatedCalculated;
        value           nonuniform List<vector> 
100
(
(-0.159767 0 -0.318909)
(-0.478052 0 -0.316397)
(-0.792561 0 -0.311311)
(-1.10067 0 -0.303525)
(-1.39961 0 -0.292848)
(-1.68637 0 -0.279014)
(-1.95764 0 -0.261677)
(-2.20972 0 -0.240395)
(-2.43843 0 -0.214609)
(-2.63894 0 -0.183616)
(-2.80566 0 -0.14654)
(-2.93202 0 -0.10234)
(-3.01034 0 -0.0499078)
(-3.03183 0 0.0116272)
(-2.98708 0 0.0822806)
(-2.86727 0 0.160253)
(-2.66658 0 0.24088)
(-2.38551 0 0.316122)
(-2.03433 0 0.37542)
(-1.63467 0 1.8345)
(-1.10148e-07 0 -0.318909)
(-2.36557e-07 0 -0.316397)
(-2.37272e-07 0 -0.311311)
(-1.26973e-07 0 -0.303525)
(5.71846e-08 0 -0.292848)
(2.9067e-07 0 -0.279014)
(5.65145e-07 0 -0.261677)
(8.82713e-07 0 -0.240395)
(1.25072e-06 0 -0.214609)
(1.67654e-06 0 -0.183615)
(2.16111e-06 0 -0.146539)
(2.69068e-06 0 -0.102339)
(3.22849e-06 0 -0.0499075)
(3.70961e-06 0 0.0116276)
(4.04372e-06 0 0.0822808)
(4.12731e-06 0 0.160253)
(3.86496e-06 0 0.24088)
(3.21264e-06 0 0.316121)
(2.26879e-06 0 0.37542)
(9.1254e-07 0 1.8345)
(-1.0494e-07 0 -0.318909)
(-1.59917e-07 0 -0.316397)
(-6.50328e-08 0 -0.311311)
(1.32104e-07 0 -0.303525)
(3.98053e-07 0 -0.292847)
(7.09896e-07 0 -0.279013)
(1.05637e-06 0 -0.261677)
(1.43423e-06 0 -0.240395)
(1.84389e-06 0 -0.214609)
(2.28449e-06 0 -0.183615)
(2.74769e-06 0 -0.146539)
(3.21053e-06 0 -0.102338)
(3.62891e-06 0 -0.0499068)
(3.93565e-06 0 0.011628)
(4.047e-06 0 0.082281)
(3.87772e-06 0 0.160253)
(3.36066e-06 0 0.240879)
(2.48133e-06 0 0.31612)
(1.3804e-06 0 0.375418)
(3.20527e-07 0 1.8345)
(1.98392e-08 0 -0.318909)
(7.80706e-08 0 -0.316397)
(1.58485e-07 0 -0.31131)
(2.61773e-07 0 -0.303524)
(3.87528e-07 0 -0.292847)
(5.30626e-07 0 -0.279013)
(6.84381e-07 0 -0.261676)
(8.42898e-07 0 -0.240394)
(1.00079e-06 0 -0.214608)
(1.15153e-06 0 -0.183614)
(1.2853e-06 0 -0.146538)
(1.38691e-06 0 -0.102338)
(1.43505e-06 0 -0.0499067)
(1.40407e-06 0 0.011628)
(1.26923e-06 0 0.0822808)
(1.0135e-06 0 0.160252)
(6.35049e-07 0 0.240879)
(1.70918e-07 0 0.316119)
(-2.28317e-07 0 0.375417)
(-3.51812e-07 0 1.8345)
(0.159767 0 -0.318909)
(0.478052 0 -0.316397)
(0.792561 0 -0.31131)
(1.10067 0 -0.303524)
(1.39961 0 -0.292847)
(1.68637 0 -0.279013)
(1.95764 0 -0.261676)
(2.20972 0 -0.240394)
(2.43842 0 -0.214608)
(2.63894 0 -0.183614)
(2.80565 0 -0.146538)
(2.93201 0 -0.102338)
(3.01033 0 -0.0499068)
(3.03183 0 0.0116279)
(2.98707 0 0.0822806)
(2.86726 0 0.160252)
(2.66657 0 0.240878)
(2.38551 0 0.316119)
(2.03433 0 0.375418)
(1.63467 0 1.8345)
)
;
    }
    inlet_minZ
    {
        type            extrapolatedCalculated;
        value           nonuniform List<vector> 
25
(
(-0.159766 -0.159766 -0.319532)
(-0.159766 -2.76802e-08 -0.319532)
(-0.159766 -3.21221e-07 -0.319532)
(-0.159767 -2.78284e-07 -0.319533)
(-0.159767 0.159767 -0.319533)
(-2.76802e-08 -0.159766 -0.319532)
(-1.81845e-07 -1.81845e-07 -0.319532)
(-2.42341e-07 -3.8793e-07 -0.319532)
(-1.70868e-07 -2.42544e-07 -0.319533)
(-1.10148e-07 0.159767 -0.319533)
(-3.21221e-07 -0.159766 -0.319532)
(-3.8793e-07 -2.42341e-07 -0.319532)
(-3.10245e-07 -3.10245e-07 -0.319533)
(-1.93607e-07 -1.46091e-07 -0.319534)
(-1.0494e-07 0.159767 -0.319534)
(-2.78284e-07 -0.159767 -0.319533)
(-2.42544e-07 -1.70869e-07 -0.319533)
(-1.46091e-07 -1.93607e-07 -0.319534)
(-3.72397e-08 -3.72397e-08 -0.319534)
(1.98392e-08 0.159767 -0.319534)
(0.159767 -0.159767 -0.319533)
(0.159767 -1.10148e-07 -0.319533)
(0.159767 -1.0494e-07 -0.319534)
(0.159767 1.98392e-08 -0.319534)
(0.159767 0.159767 -0.319534)
)
;
    }
    outlet_maxZ
    {
        type            extrapolatedCalculated;
        value           nonuniform List<vector> 
25
(
(-1.63467 -1.63467 3.26935)
(-1.63467 3.83498e-07 3.26935)
(-1.63467 5.48247e-07 3.26935)
(-1.63467 3.90327e-07 3.26935)
(-1.63467 1.63467 3.26935)
(3.83498e-07 -1.63467 3.26935)
(6.63713e-07 6.63713e-07 3.26935)
(1.02347e-06 7.32074e-07 3.26935)
(1.05845e-06 3.58715e-07 3.26935)
(9.1254e-07 1.63467 3.26935)
(5.48247e-07 -1.63467 3.26935)
(7.32074e-07 1.02347e-06 3.26935)
(9.4298e-07 9.4298e-07 3.26934)
(8.26834e-07 2.79395e-07 3.26934)
(3.20527e-07 1.63467 3.26934)
(3.90327e-07 -1.63467 3.26935)
(3.58715e-07 1.05845e-06 3.26935)
(2.79395e-07 8.26834e-07 3.26934)
(-2.63738e-07 -2.63738e-07 3.26934)
(-3.51812e-07 1.63467 3.26934)
(1.63467 -1.63467 3.26935)
(1.63467 9.1254e-07 3.26935)
(1.63467 3.20527e-07 3.26934)
(1.63467 -3.51812e-07 3.26934)
(1.63467 1.63467 3.26934)
)
;
    }
}


// ************************************************************************* //
