/*--------------------------------*- C++ -*----------------------------------*\
| =========                 |                                                 |
| \\      /  F ield         | OpenFOAM: The Open Source CFD Toolbox           |
|  \\    /   O peration     | Version:  v2106                                 |
|   \\  /    A nd           | Website:  www.openfoam.com                      |
|    \\/     M anipulation  |                                                 |
\*---------------------------------------------------------------------------*/
FoamFile
{
    version     2.0;
    format      ascii;
    arch        "LSB;label=32;scalar=64";
    class       volScalarField;
    location    "50";
    object      laplacianT;
}
// * * * * * * * * * * * * * * * * * * * * * * * * * * * * * * * * * * * * * //

dimensions      [0 -2 0 1 0 0 0];

internalField   nonuniform List<scalar> 
500
(
0.369596
0.426161
0.420992
0.420972
0.420909
0.426161
0.471934
0.467522
0.467487
0.459301
0.420992
0.467522
0.463116
0.46305
0.455182
0.420972
0.467487
0.46305
0.46296
0.455066
0.420909
0.459301
0.455182
0.455066
0.447162
1.12812
1.25508
1.24162
1.24146
1.23002
1.25508
1.35438
1.34307
1.34286
1.29917
1.24162
1.34307
1.33181
1.33152
1.29013
1.24146
1.34286
1.33152
1.33116
1.28972
1.23002
1.29917
1.29013
1.28972
1.24564
1.9009
2.08138
2.06129
2.06094
2.02338
2.08138
2.22205
2.20519
2.20474
2.11319
2.06129
2.20519
2.1884
2.18782
2.10059
2.06094
2.20474
2.18782
2.18712
2.09982
2.02338
2.11319
2.10059
2.09982
2.00234
2.62309
2.85295
2.82679
2.8262
2.76459
2.85295
3.03191
3.00994
3.00921
2.87301
2.82679
3.00994
2.98805
2.98713
2.8572
2.8262
3.00921
2.98713
2.98605
2.85602
2.76459
2.87301
2.8572
2.85602
2.70923
3.28056
3.5542
3.52257
3.52172
3.43759
3.5542
3.76708
3.74049
3.73945
3.56197
3.52257
3.74049
3.71401
3.71273
3.54329
3.52172
3.73945
3.71273
3.71126
3.54171
3.43759
3.56197
3.54329
3.54171
3.3493
3.85731
4.16799
4.13165
4.13054
4.02594
4.16799
4.40952
4.37896
4.37761
4.1632
4.13165
4.37896
4.34852
4.3469
4.1421
4.13054
4.37761
4.3469
4.34504
4.14013
4.02594
4.1632
4.1421
4.14013
3.90683
4.33912
4.67918
4.63902
4.63766
4.51516
4.67918
4.94342
4.90962
4.90799
4.66192
4.63902
4.90962
4.87596
4.87402
4.63891
4.63766
4.90799
4.87402
4.87181
4.63658
4.51516
4.66192
4.63891
4.63658
4.36814
4.71411
5.07517
5.03218
5.03059
4.89321
5.07517
5.35561
5.3194
5.31752
5.04584
5.03218
5.3194
5.28333
5.28112
5.02148
5.03059
5.31752
5.28112
5.27861
5.01885
4.89321
5.04584
5.02148
5.01885
4.72187
4.97304
5.34621
5.30143
5.29966
5.15077
5.34621
5.63594
5.59821
5.59612
5.30552
5.30143
5.59821
5.56062
5.55818
5.2804
5.29966
5.59612
5.55818
5.55543
5.27754
5.15077
5.30552
5.2804
5.27754
4.95932
5.10953
5.48562
5.44015
5.43824
5.28151
5.48562
5.7775
5.73918
5.73692
5.43457
5.44015
5.73918
5.70099
5.69838
5.40931
5.43824
5.73692
5.69838
5.69545
5.40627
5.28151
5.43457
5.40931
5.40627
5.07466
5.12021
5.48996
5.44493
5.44292
5.2822
5.48996
5.7768
5.73883
5.73647
5.4298
5.44493
5.73883
5.70099
5.69828
5.40502
5.44292
5.73647
5.69828
5.69524
5.40189
5.2822
5.4298
5.40502
5.40189
5.06505
5.00482
5.35912
5.31563
5.31358
5.15283
5.35912
5.63387
5.59718
5.59478
5.29133
5.31563
5.59718
5.56062
5.55787
5.26765
5.31358
5.59478
5.55787
5.5548
5.2645
5.15283
5.29133
5.26765
5.2645
4.93073
4.76619
5.09632
5.05545
5.0534
4.89659
5.09632
5.35221
5.31771
5.31532
5.02258
5.05545
5.31771
5.28333
5.28061
5.00058
5.0534
5.31532
5.28061
5.27759
4.99749
4.89659
5.02258
5.00058
4.99749
4.675
4.41019
4.70803
4.67078
4.66879
4.51978
4.70803
4.93876
4.9073
4.90499
4.63017
4.67078
4.9073
4.87595
4.87333
4.61038
4.66879
4.90499
4.87333
4.87044
4.60743
4.51978
4.63017
4.61038
4.60743
4.30417
3.94559
4.2038
4.1711
4.16923
4.03168
4.2038
4.40368
4.37605
4.37388
4.12375
4.1711
4.37605
4.34851
4.34607
4.10668
4.16923
4.37388
4.34607
4.34338
4.10395
4.03168
4.12375
4.10668
4.10395
3.82739
3.3838
3.59603
3.56869
3.56699
3.44431
3.59603
3.76016
3.73704
3.73508
3.5158
3.56869
3.73704
3.714
3.7118
3.50188
3.56699
3.73508
3.7118
3.7094
3.49945
3.44431
3.5158
3.50188
3.49945
3.2564
2.73863
2.89965
2.87838
2.87692
2.77213
2.89965
3.024
3.00599
3.00431
2.8213
2.87838
3.00599
2.98804
2.98617
2.81089
2.87692
3.00431
2.98617
2.98413
2.80884
2.77213
2.8213
2.81089
2.80884
2.6053
2.02591
2.13178
2.11713
2.11597
2.03169
2.13178
2.21331
2.20089
2.19957
2.05735
2.11713
2.20089
2.18851
2.18704
2.05075
2.11597
2.19957
2.18704
2.18545
2.04917
2.03169
2.05735
2.05075
2.04917
1.89017
1.26308
1.31123
1.30364
1.30287
1.24122
1.31123
1.34798
1.34154
1.34066
1.2428
1.30364
1.34154
1.33509
1.33413
1.24024
1.30287
1.34066
1.33413
1.33309
1.23922
1.24122
1.2428
1.24024
1.23922
1.12872
0.468717
0.472453
0.470769
0.470473
0.433056
0.472453
0.475175
0.473734
0.473398
0.42618
0.470769
0.473734
0.47228
0.471914
0.425894
0.470473
0.473398
0.471914
0.47152
0.425512
0.433056
0.42618
0.425894
0.425512
0.369379
)
;

boundaryField
{
    wall_minX
    {
        type            extrapolatedCalculated;
        value           nonuniform List<scalar> 
100
(
0.369596
0.426161
0.420992
0.420972
0.420909
1.12812
1.25508
1.24162
1.24146
1.23002
1.9009
2.08138
2.06129
2.06094
2.02338
2.62309
2.85295
2.82679
2.8262
2.76459
3.28056
3.5542
3.52257
3.52172
3.43759
3.85731
4.16799
4.13165
4.13054
4.02594
4.33912
4.67918
4.63902
4.63766
4.51516
4.71411
5.07517
5.03218
5.03059
4.89321
4.97304
5.34621
5.30143
5.29966
5.15077
5.10953
5.48562
5.44015
5.43824
5.28151
5.12021
5.48996
5.44493
5.44292
5.2822
5.00482
5.35912
5.31563
5.31358
5.15283
4.76619
5.09632
5.05545
5.0534
4.89659
4.41019
4.70803
4.67078
4.66879
4.51978
3.94559
4.2038
4.1711
4.16923
4.03168
3.3838
3.59603
3.56869
3.56699
3.44431
2.73863
2.89965
2.87838
2.87692
2.77213
2.02591
2.13178
2.11713
2.11597
2.03169
1.26308
1.31123
1.30364
1.30287
1.24122
0.468717
0.472453
0.470769
0.470473
0.433056
)
;
    }
    wall_maxX
    {
        type            extrapolatedCalculated;
        value           nonuniform List<scalar> 
100
(
0.420909
0.459301
0.455182
0.455066
0.447162
1.23002
1.29917
1.29013
1.28972
1.24564
2.02338
2.11319
2.10059
2.09982
2.00234
2.76459
2.87301
2.8572
2.85602
2.70923
3.43759
3.56197
3.54329
3.54171
3.3493
4.02594
4.1632
4.1421
4.14013
3.90683
4.51516
4.66192
4.63891
4.63658
4.36814
4.89321
5.04584
5.02148
5.01885
4.72187
5.15077
5.30552
5.2804
5.27754
4.95932
5.28151
5.43457
5.40931
5.40627
5.07466
5.2822
5.4298
5.40502
5.40189
5.06505
5.15283
5.29133
5.26765
5.2645
4.93073
4.89659
5.02258
5.00058
4.99749
4.675
4.51978
4.63017
4.61038
4.60743
4.30417
4.03168
4.12375
4.10668
4.10395
3.82739
3.44431
3.5158
3.50188
3.49945
3.2564
2.77213
2.8213
2.81089
2.80884
2.6053
2.03169
2.05735
2.05075
2.04917
1.89017
1.24122
1.2428
1.24024
1.23922
1.12872
0.433056
0.42618
0.425894
0.425512
0.369379
)
;
    }
    wall_minY
    {
        type            extrapolatedCalculated;
        value           nonuniform List<scalar> 
100
(
0.369596
1.12812
1.9009
2.62309
3.28056
3.85731
4.33912
4.71411
4.97304
5.10953
5.12021
5.00482
4.76619
4.41019
3.94559
3.3838
2.73863
2.02591
1.26308
0.468717
0.426161
1.25508
2.08138
2.85295
3.5542
4.16799
4.67918
5.07517
5.34621
5.48562
5.48996
5.35912
5.09632
4.70803
4.2038
3.59603
2.89965
2.13178
1.31123
0.472453
0.420992
1.24162
2.06129
2.82679
3.52257
4.13165
4.63902
5.03218
5.30143
5.44015
5.44493
5.31563
5.05545
4.67078
4.1711
3.56869
2.87838
2.11713
1.30364
0.470769
0.420972
1.24146
2.06094
2.8262
3.52172
4.13054
4.63766
5.03059
5.29966
5.43824
5.44292
5.31358
5.0534
4.66879
4.16923
3.56699
2.87692
2.11597
1.30287
0.470473
0.420909
1.23002
2.02338
2.76459
3.43759
4.02594
4.51516
4.89321
5.15077
5.28151
5.2822
5.15283
4.89659
4.51978
4.03168
3.44431
2.77213
2.03169
1.24122
0.433056
)
;
    }
    wall_maxY
    {
        type            extrapolatedCalculated;
        value           nonuniform List<scalar> 
100
(
0.420909
1.23002
2.02338
2.76459
3.43759
4.02594
4.51516
4.89321
5.15077
5.28151
5.2822
5.15283
4.89659
4.51978
4.03168
3.44431
2.77213
2.03169
1.24122
0.433056
0.459301
1.29917
2.11319
2.87301
3.56197
4.1632
4.66192
5.04584
5.30552
5.43457
5.4298
5.29133
5.02258
4.63017
4.12375
3.5158
2.8213
2.05735
1.2428
0.42618
0.455182
1.29013
2.10059
2.8572
3.54329
4.1421
4.63891
5.02148
5.2804
5.40931
5.40502
5.26765
5.00058
4.61038
4.10668
3.50188
2.81089
2.05075
1.24024
0.425894
0.455066
1.28972
2.09982
2.85602
3.54171
4.14013
4.63658
5.01885
5.27754
5.40627
5.40189
5.2645
4.99749
4.60743
4.10395
3.49945
2.80884
2.04917
1.23922
0.425512
0.447162
1.24564
2.00234
2.70923
3.3493
3.90683
4.36814
4.72187
4.95932
5.07466
5.06505
4.93073
4.675
4.30417
3.82739
3.2564
2.6053
1.89017
1.12872
0.369379
)
;
    }
    inlet_minZ
    {
        type            extrapolatedCalculated;
        value           nonuniform List<scalar> 
25
(
0.369596
0.426161
0.420992
0.420972
0.420909
0.426161
0.471934
0.467522
0.467487
0.459301
0.420992
0.467522
0.463116
0.46305
0.455182
0.420972
0.467487
0.46305
0.46296
0.455066
0.420909
0.459301
0.455182
0.455066
0.447162
)
;
    }
    outlet_maxZ
    {
        type            extrapolatedCalculated;
        value           nonuniform List<scalar> 
25
(
0.468717
0.472453
0.470769
0.470473
0.433056
0.472453
0.475175
0.473734
0.473398
0.42618
0.470769
0.473734
0.47228
0.471914
0.425894
0.470473
0.473398
0.471914
0.47152
0.425512
0.433056
0.42618
0.425894
0.425512
0.369379
)
;
    }
}


// ************************************************************************* //
