/*--------------------------------*- C++ -*----------------------------------*\
| =========                 |                                                 |
| \\      /  F ield         | OpenFOAM: The Open Source CFD Toolbox           |
|  \\    /   O peration     | Version:  v2106                                 |
|   \\  /    A nd           | Website:  www.openfoam.com                      |
|    \\/     M anipulation  |                                                 |
\*---------------------------------------------------------------------------*/
FoamFile
{
    version     2.0;
    format      ascii;
    arch        "LSB;label=32;scalar=64";
    class       volVectorField;
    location    "50";
    object      Tmode_grad2;
}
// * * * * * * * * * * * * * * * * * * * * * * * * * * * * * * * * * * * * * //

dimensions      [0 -1 0 0 0 0 0];

internalField   nonuniform List<vector> 
500
(
(1.3964763e-07 1.3964763e-07 0.035097013)
(1.4202771e-07 1.0889537e-07 0.035097699)
(-3.5709397e-07 6.8408247e-09 0.03509736)
(-4.188146e-07 1.7311326e-08 0.035096295)
(-8.6106366e-08 2.2467377e-08 0.0350958)
(1.0889536e-07 1.4202773e-07 0.035097699)
(-5.7177593e-08 -5.7177596e-08 0.035098178)
(-4.9447002e-07 -1.8319609e-07 0.035097357)
(-3.9537485e-07 -9.8934235e-08 0.035096365)
(-8.0950314e-08 -4.3100363e-08 0.035095899)
(6.8408641e-09 -3.5709396e-07 0.03509736)
(-1.8319611e-07 -4.9447002e-07 0.035097357)
(-3.988506e-07 -3.9885061e-07 0.035096661)
(-2.7871888e-07 -2.3631829e-07 0.03509594)
(-4.8883785e-08 -1.2244832e-07 0.035095661)
(1.7311326e-08 -4.1881462e-07 0.035096295)
(-9.8934234e-08 -3.9537485e-07 0.035096365)
(-2.3631829e-07 -2.7871888e-07 0.03509594)
(-1.1897257e-07 -1.1897257e-07 0.035095574)
(-5.0369997e-09 -3.5510967e-08 0.035095529)
(2.2467377e-08 -8.6106365e-08 0.0350958)
(-4.3100363e-08 -8.0950314e-08 0.035095899)
(-1.2244832e-07 -4.8883784e-08 0.035095661)
(-3.5510967e-08 -5.0369995e-09 0.035095529)
(6.7572814e-09 6.7572816e-09 0.035095524)
(2.6635552e-07 2.6635552e-07 0.039566988)
(9.40187e-08 1.5261619e-07 0.039567209)
(-1.0344992e-06 -2.334286e-08 0.039566725)
(-1.08314e-06 1.8132704e-08 0.039565957)
(-2.3610356e-07 3.1486063e-08 0.039565557)
(1.5261619e-07 9.4018699e-08 0.039567209)
(-3.4052887e-07 -3.4052887e-07 0.039567263)
(-1.2362245e-06 -4.9936463e-07 0.039566644)
(-1.0008966e-06 -2.3600139e-07 0.039565986)
(-2.227502e-07 -8.0543293e-08 0.039565608)
(-2.334286e-08 -1.0344992e-06 0.039566725)
(-4.9936463e-07 -1.2362245e-06 0.039566644)
(-9.2997174e-07 -9.2997174e-07 0.03956622)
(-6.6431866e-07 -4.778417e-07 0.039565832)
(-1.3246483e-07 -1.8881217e-07 0.039565614)
(1.8132705e-08 -1.08314e-06 0.039565957)
(-2.3600138e-07 -1.0008966e-06 0.039565986)
(-4.778417e-07 -6.6431866e-07 0.039565832)
(-2.5973703e-07 -2.5973703e-07 0.039565729)
(-3.0063853e-08 -9.8252013e-08 0.039565639)
(3.1486063e-08 -2.3610356e-07 0.039565557)
(-8.0543292e-08 -2.227502e-07 0.039565608)
(-1.8881217e-07 -1.3246483e-07 0.039565614)
(-9.8252013e-08 -3.0063853e-08 0.039565639)
(-2.4808154e-08 -2.4808154e-08 0.039565487)
(2.8737462e-07 2.8737462e-07 0.047863483)
(-1.206221e-07 1.4480096e-07 0.047863533)
(-1.6090624e-06 -4.7272716e-08 0.04786313)
(-1.5873871e-06 3.616153e-08 0.047862565)
(-3.5333919e-07 5.6552006e-08 0.047862263)
(1.4480096e-07 -1.206221e-07 0.047863533)
(-6.225931e-07 -6.225931e-07 0.047863531)
(-1.7720215e-06 -6.8846338e-07 0.047863103)
(-1.43165e-06 -2.2467398e-07 0.047862673)
(-3.3294871e-07 1.4088289e-08 0.047862389)
(-4.7272716e-08 -1.6090624e-06 0.04786313)
(-6.8846338e-07 -1.7720215e-06 0.047863103)
(-1.2111433e-06 -1.2111433e-06 0.047862918)
(-8.8483546e-07 -4.9305406e-07 0.047862753)
(-1.9416434e-07 -9.0795512e-08 0.047862592)
(3.616153e-08 -1.5873871e-06 0.047862565)
(-2.2467398e-07 -1.43165e-06 0.047862673)
(-4.9305406e-07 -8.8483546e-07 0.047862753)
(-3.113023e-07 -3.1130231e-07 0.047862821)
(-6.4776346e-08 -1.6239853e-07 0.047862701)
(5.6552006e-08 -3.5333919e-07 0.047862263)
(1.408829e-08 -3.3294871e-07 0.047862389)
(-9.0795512e-08 -1.9416434e-07 0.047862592)
(-1.6239853e-07 -6.4776346e-08 0.047862701)
(-9.489516e-08 -9.4895161e-08 0.047862477)
(2.9987378e-07 2.9987378e-07 0.060408709)
(-2.5850044e-07 1.5100427e-07 0.060408767)
(-2.0029661e-06 -4.1696207e-08 0.060408536)
(-1.9505418e-06 9.0020564e-08 0.060408137)
(-4.3725789e-07 1.1530818e-07 0.060407931)
(1.5100427e-07 -2.5850044e-07 0.060408767)
(-7.7085542e-07 -7.7085542e-07 0.060408823)
(-2.0944416e-06 -7.1153144e-07 0.060408593)
(-1.7150352e-06 -4.7655771e-08 0.060408334)
(-4.1197027e-07 2.4820614e-07 0.060408139)
(-4.1696206e-08 -2.0029661e-06 0.060408536)
(-7.1153144e-07 -2.0944416e-06 0.060408593)
(-1.2797664e-06 -1.2797664e-06 0.060408616)
(-9.9080421e-07 -3.2958793e-07 0.060408605)
(-2.4001662e-07 1.2379959e-07 0.060408494)
(9.0020564e-08 -1.9505418e-06 0.060408137)
(-4.765577e-08 -1.7150352e-06 0.060408334)
(-3.2958793e-07 -9.9080421e-07 0.060408605)
(-3.1146921e-07 -3.1146921e-07 0.060408788)
(-1.0971193e-07 -2.1256049e-07 0.060408656)
(1.1530818e-07 -4.3725789e-07 0.060407931)
(2.4820614e-07 -4.1197027e-07 0.060408139)
(1.2379959e-07 -2.4001662e-07 0.060408494)
(-2.1256049e-07 -1.0971193e-07 0.060408656)
(-1.7407748e-07 -1.7407748e-07 0.060408424)
(3.2580921e-07 3.2580921e-07 0.077303586)
(-2.9335832e-07 1.8198001e-07 0.077303672)
(-2.2389531e-06 -9.5469672e-09 0.077303585)
(-2.1930993e-06 1.6777048e-07 0.077303309)
(-4.9081222e-07 1.9532909e-07 0.077303182)
(1.8198001e-07 -2.9335832e-07 0.077303672)
(-7.9639259e-07 -7.9639259e-07 0.077303789)
(-2.2602674e-06 -6.0843512e-07 0.077303705)
(-1.8857853e-06 2.4327325e-07 0.077303561)
(-4.6325361e-07 5.7781521e-07 0.077303438)
(-9.5469667e-09 -2.2389531e-06 0.077303585)
(-6.0843512e-07 -2.2602674e-06 0.077303705)
(-1.1992873e-06 -1.1992873e-06 0.077303875)
(-1.006849e-06 -3.9585993e-08 0.077303963)
(-2.6778425e-07 4.2670403e-07 0.077303901)
(1.6777048e-07 -2.1930993e-06 0.077303309)
(2.4327325e-07 -1.8857853e-06 0.077303561)
(-3.9585992e-08 -1.006849e-06 0.077303963)
(-2.5979393e-07 -2.5979393e-07 0.077304224)
(-1.523936e-07 -2.3282822e-07 0.077304106)
(1.9532909e-07 -4.9081222e-07 0.077303182)
(5.7781521e-07 -4.6325361e-07 0.077303438)
(4.2670403e-07 -2.6778425e-07 0.077303901)
(-2.3282822e-07 -1.523936e-07 0.077304106)
(-2.4980712e-07 -2.4980712e-07 0.077303894)
(3.5740014e-07 3.5740014e-07 0.098645106)
(-2.6005854e-07 2.2880531e-07 0.0986452)
(-2.366566e-06 3.8937969e-08 0.098645219)
(-2.3535525e-06 2.5845272e-07 0.09864503)
(-5.2209686e-07 2.8656173e-07 0.098644964)
(2.2880531e-07 -2.6005854e-07 0.0986452)
(-7.3775179e-07 -7.377518e-07 0.098645355)
(-2.3220949e-06 -4.2120793e-07 0.098645382)
(-1.9821169e-06 6.0691496e-07 0.098645313)
(-4.9398785e-07 9.6762158e-07 0.098645247)
(3.8937969e-08 -2.366566e-06 0.098645219)
(-4.2120793e-07 -2.3220949e-06 0.098645382)
(-1.0218992e-06 -1.0218992e-06 0.098645659)
(-9.6472303e-07 3.332126e-07 0.098645811)
(-2.8162577e-07 7.9182786e-07 0.098645786)
(2.5845272e-07 -2.3535525e-06 0.09864503)
(6.0691496e-07 -1.9821169e-06 0.098645313)
(3.332126e-07 -9.6472303e-07 0.098645811)
(-1.6838979e-07 -1.6838979e-07 0.09864612)
(-1.8824434e-07 -2.1964923e-07 0.098646023)
(2.8656173e-07 -5.2209686e-07 0.098644964)
(9.6762158e-07 -4.9398785e-07 0.098645247)
(7.9182787e-07 -2.8162578e-07 0.098645786)
(-2.1964923e-07 -1.8824434e-07 0.098646023)
(-3.1579873e-07 -3.1579873e-07 0.098645842)
(3.8836046e-07 3.8836046e-07 0.12448662)
(-1.8066555e-07 2.8513418e-07 0.1244867)
(-2.4095782e-06 9.8727207e-08 0.12448681)
(-2.4482428e-06 3.5688002e-07 0.1244867)
(-5.345806e-07 3.8415108e-07 0.12448669)
(2.8513418e-07 -1.8066555e-07 0.1244867)
(-6.1511543e-07 -6.1511543e-07 0.12448688)
(-2.3019594e-06 -1.6843093e-07 0.12448701)
(-2.020107e-06 1.0242727e-06 0.124487)
(-5.0730954e-07 1.3998166e-06 0.12448699)
(9.8727208e-08 -2.4095782e-06 0.12448681)
(-1.6843093e-07 -2.3019594e-06 0.12448701)
(-7.7019001e-07 -7.7019001e-07 0.12448738)
(-8.7999532e-07 7.6725276e-07 0.12448758)
(-2.8421804e-07 1.2020807e-06 0.12448758)
(3.5688002e-07 -2.4482428e-06 0.1244867)
(1.0242727e-06 -2.020107e-06 0.124487)
(7.6725276e-07 -8.7999532e-07 0.12448758)
(-4.7836276e-08 -4.7836277e-08 0.12448792)
(-2.1742422e-07 -1.764959e-07 0.12448784)
(3.8415108e-07 -5.345806e-07 0.12448669)
(1.3998166e-06 -5.0730954e-07 0.12448699)
(1.2020807e-06 -2.8421804e-07 0.12448758)
(-1.764959e-07 -2.1742422e-07 0.12448784)
(-3.6999112e-07 -3.6999112e-07 0.1244877)
(4.1596192e-07 4.1596192e-07 0.15477733)
(-6.4176463e-08 3.4768001e-07 0.1547774)
(-2.3732853e-06 1.6862169e-07 0.15477759)
(-2.4780584e-06 4.6135615e-07 0.15477756)
(-5.2859494e-07 4.8621403e-07 0.15477761)
(3.4768001e-07 -6.4176464e-08 0.1547774)
(-4.351868e-07 -4.351868e-07 0.1547776)
(-2.2027711e-06 1.453702e-07 0.15477782)
(-2.0016699e-06 1.4880383e-06 0.15477788)
(-5.0373705e-07 1.8657528e-06 0.15477792)
(1.6862169e-07 -2.3732853e-06 0.15477759)
(1.453702e-07 -2.2027711e-06 0.15477782)
(-4.5006016e-07 -4.5006016e-07 0.15477828)
(-7.576758e-07 1.2524986e-06 0.15477853)
(-2.7678532e-07 1.6459629e-06 0.15477857)
(4.6135615e-07 -2.4780584e-06 0.15477756)
(1.4880383e-06 -2.0016699e-06 0.15477788)
(1.2524986e-06 -7.576758e-07 0.15477853)
(9.4353228e-08 9.4353227e-08 0.1547789)
(-2.4142749e-07 -1.0875694e-07 0.15477883)
(4.8621403e-07 -5.2859494e-07 0.15477761)
(1.8657528e-06 -5.0373705e-07 0.15477792)
(1.6459629e-06 -2.7678532e-07 0.15477857)
(-1.0875693e-07 -2.4142749e-07 0.15477883)
(-4.121921e-07 -4.121921e-07 0.15477872)
(4.3963947e-07 4.3963947e-07 0.18927398)
(8.674939e-08 4.1437919e-07 0.18927405)
(-2.2540536e-06 2.4900292e-07 0.18927432)
(-2.4358159e-06 5.7146077e-07 0.18927438)
(-5.0298136e-07 5.9187729e-07 0.18927448)
(4.1437919e-07 8.6749388e-08 0.18927405)
(-1.9920543e-07 -1.9920543e-07 0.18927425)
(-2.0184313e-06 5.2054471e-07 0.18927457)
(-1.9215043e-06 1.9938543e-06 0.18927471)
(-4.8256483e-07 2.3586854e-06 0.1892748)
(2.4900292e-07 -2.2540536e-06 0.18927432)
(5.2054471e-07 -2.0184313e-06 0.18927457)
(-6.099387e-08 -6.099387e-08 0.18927513)
(-5.9767516e-07 1.7818191e-06 0.18927542)
(-2.5976064e-07 2.1127516e-06 0.18927549)
(5.7146077e-07 -2.4358159e-06 0.18927438)
(1.9938543e-06 -1.9215043e-06 0.18927471)
(1.7818191e-06 -5.9767516e-07 0.18927542)
(2.5224121e-07 2.5224121e-07 0.18927581)
(-2.6194311e-07 -2.2573202e-08 0.18927575)
(5.9187729e-07 -5.0298136e-07 0.18927448)
(2.3586854e-06 -4.8256483e-07 0.1892748)
(2.1127516e-06 -2.5976064e-07 0.18927549)
(-2.2573202e-08 -2.6194311e-07 0.18927575)
(-4.4297025e-07 -4.4297025e-07 0.18927567)
(4.5968173e-07 4.5968172e-07 0.22742)
(2.7033493e-07 4.8287069e-07 0.22742005)
(-2.0461265e-06 3.4012307e-07 0.22742039)
(-2.3113524e-06 6.8638935e-07 0.22742056)
(-4.5627569e-07 6.9982647e-07 0.22742073)
(4.828707e-07 2.7033493e-07 0.22742005)
(9.0996953e-08 9.0996951e-08 0.22742025)
(-1.7408485e-06 9.5572568e-07 0.22742068)
(-1.7717973e-06 2.5341088e-06 0.22742091)
(-4.4283858e-07 2.8685326e-06 0.22742105)
(3.4012307e-07 -2.0461265e-06 0.22742039)
(9.5572568e-07 -1.7408485e-06 0.22742068)
(3.9698528e-07 3.9698528e-07 0.22742131)
(-3.9854549e-07 2.3450893e-06 0.22742166)
(-2.3332647e-07 2.5884531e-06 0.22742175)
(6.8638935e-07 -2.3113524e-06 0.22742056)
(2.5341088e-06 -1.7717973e-06 0.22742091)
(2.3450893e-06 -3.9854549e-07 0.22742166)
(4.1967048e-07 4.1967048e-07 0.22742205)
(-2.8059606e-07 7.4742293e-08 0.22742199)
(6.9982647e-07 -4.5627569e-07 0.22742073)
(2.8685326e-06 -4.4283857e-07 0.22742105)
(2.5884531e-06 -2.3332647e-07 0.22742175)
(7.4742294e-08 -2.8059606e-07 0.22742199)
(-4.6327859e-07 -4.6327859e-07 0.22742195)
(4.7620364e-07 4.7620364e-07 0.26819716)
(4.8168055e-07 5.4941189e-07 0.26819721)
(-1.7464858e-06 4.4085157e-07 0.2681976)
(-2.0953076e-06 8.0372599e-07 0.26819789)
(-3.8763111e-07 8.0727676e-07 0.26819813)
(5.4941189e-07 4.8168055e-07 0.26819721)
(4.2865245e-07 4.2865245e-07 0.26819739)
(-1.3650147e-06 1.4430789e-06 0.26819791)
(-1.5456698e-06 3.0935663e-06 0.26819824)
(-3.8408034e-07 3.3783469e-06 0.26819845)
(4.4085157e-07 -1.7464858e-06 0.2681976)
(1.4430789e-06 -1.3650147e-06 0.26819791)
(9.1842807e-07 9.1842808e-07 0.26819861)
(-1.6003958e-07 2.9253012e-06 0.26819901)
(-1.9777738e-07 3.0532313e-06 0.26819913)
(8.0372599e-07 -2.0953076e-06 0.26819789)
(3.0935663e-06 -1.5456698e-06 0.26819824)
(2.9253012e-06 -1.6003958e-07 0.26819901)
(5.8913344e-07 5.8913344e-07 0.26819939)
(-2.9879362e-07 1.7445258e-07 0.26819934)
(8.0727676e-07 -3.8763111e-07 0.26819813)
(3.3783469e-06 -3.8408034e-07 0.26819845)
(3.0532313e-06 -1.9777738e-07 0.26819913)
(1.7445258e-07 -2.9879362e-07 0.26819934)
(-4.7423129e-07 -4.7423129e-07 0.26819932)
(4.8838393e-07 4.8838393e-07 0.30997818)
(7.1013815e-07 6.0826695e-07 0.30997821)
(-1.3581141e-06 5.4788629e-07 0.30997864)
(-1.7819936e-06 9.1870744e-07 0.30997906)
(-2.9754486e-07 9.0943337e-07 0.30997936)
(6.0826695e-07 7.1013815e-07 0.30997821)
(7.993917e-07 7.993917e-07 0.30997836)
(-8.9245336e-07 1.9653807e-06 0.30997896)
(-1.239673e-06 3.646992e-06 0.3099794)
(-3.0681893e-07 3.8627394e-06 0.30997965)
(5.4788629e-07 -1.3581141e-06 0.30997864)
(1.9653807e-06 -8.9245336e-07 0.30997896)
(1.4894862e-06 1.4894862e-06 0.30997969)
(1.1536507e-07 3.4968016e-06 0.30998013)
(-1.5371321e-07 3.4808196e-06 0.30998027)
(9.1870744e-07 -1.7819936e-06 0.30997906)
(3.646992e-06 -1.239673e-06 0.3099794)
(3.4968016e-06 1.1536507e-07 0.30998013)
(7.5166041e-07 7.5166041e-07 0.3099805)
(-3.1747358e-07 2.6693191e-07 0.30998044)
(9.0943337e-07 -2.9754486e-07 0.30997936)
(3.8627394e-06 -3.0681893e-07 0.30997965)
(3.4808196e-06 -1.5371321e-07 0.30998027)
(2.6693191e-07 -3.1747358e-07 0.30998044)
(-4.7686555e-07 -4.7686555e-07 0.30998044)
(4.9397097e-07 4.9397097e-07 0.35044784)
(9.3810116e-07 6.5162791e-07 0.35044784)
(-8.9183611e-07 6.5540999e-07 0.35044827)
(-1.3715996e-06 1.0240153e-06 0.35044883)
(-1.884125e-07 9.99448e-07 0.35044918)
(6.5162791e-07 9.3810116e-07 0.35044784)
(1.1802597e-06 1.1802597e-06 0.35044793)
(-3.3325505e-07 2.4949242e-06 0.35044858)
(-8.5554254e-07 4.158845e-06 0.35044911)
(-2.1297977e-07 4.2881948e-06 0.35044941)
(6.5540999e-07 -8.9183611e-07 0.35044827)
(2.4949242e-06 -3.3325505e-07 0.35044858)
(2.0867492e-06 2.0867492e-06 0.35044929)
(4.2167108e-07 4.0254911e-06 0.35044976)
(-1.0217932e-07 3.8395896e-06 0.35044993)
(1.0240153e-06 -1.3715996e-06 0.35044883)
(4.158845e-06 -8.5554255e-07 0.35044911)
(4.0254911e-06 4.2167108e-07 0.35044976)
(8.9729783e-07 8.9729783e-07 0.35045009)
(-3.3691411e-07 3.4243709e-07 0.35045003)
(9.99448e-07 -1.884125e-07 0.35044918)
(4.2881948e-06 -2.1297977e-07 0.35044941)
(3.8395896e-06 -1.0217932e-07 0.35044993)
(3.424371e-07 -3.3691411e-07 0.35045003)
(-4.7208648e-07 -4.7208648e-07 0.35045005)
(4.8898746e-07 4.8898746e-07 0.38670772)
(1.1407912e-06 6.6997856e-07 0.38670768)
(-3.6782097e-07 7.5481058e-07 0.38670807)
(-8.7273271e-07 1.1097442e-06 0.38670875)
(-6.5067825e-08 1.0684833e-06 0.38670913)
(6.6997856e-07 1.1407912e-06 0.38670768)
(1.5395259e-06 1.5395259e-06 0.38670768)
(2.9182744e-07 2.992939e-06 0.38670834)
(-4.022237e-07 4.5836704e-06 0.38670896)
(-1.0632873e-07 4.6137183e-06 0.38670929)
(7.5481058e-07 -3.6782097e-07 0.38670807)
(2.992939e-06 2.9182744e-07 0.38670834)
(2.6763236e-06 2.6763236e-06 0.38670898)
(7.4804656e-07 4.4691302e-06 0.38670946)
(-4.5035902e-08 4.0931349e-06 0.38670963)
(1.1097442e-06 -8.7273271e-07 0.38670875)
(4.5836704e-06 -4.0222369e-07 0.38670896)
(4.4691302e-06 7.4804656e-07 0.38670946)
(1.0145876e-06 1.0145876e-06 0.38670971)
(-3.5699225e-07 3.9036813e-07 0.38670965)
(1.0684833e-06 -6.5067825e-08 0.38670913)
(4.6137183e-06 -1.0632873e-07 0.38670929)
(4.0931349e-06 -4.5035903e-08 0.38670963)
(3.9036813e-07 -3.5699225e-07 0.38670965)
(-4.6118221e-07 -4.6118221e-07 0.38670969)
(4.6759707e-07 4.6759707e-07 0.41569972)
(1.2862245e-06 6.5270114e-07 0.41569962)
(1.8075079e-07 8.3364385e-07 0.41569992)
(-3.076674e-07 1.1626802e-06 0.41570069)
(6.4273793e-08 1.1050293e-06 0.41570107)
(6.5270114e-07 1.2862245e-06 0.41569962)
(1.8352947e-06 1.8352947e-06 0.4156995)
(9.4571944e-07 3.406374e-06 0.4157001)
(9.9410733e-08 4.8638882e-06 0.41570077)
(6.6228187e-09 4.7885589e-06 0.4157011)
(8.3364385e-07 1.8075079e-07 0.41569992)
(3.406374e-06 9.4571944e-07 0.4157001)
(3.2093443e-06 3.2093443e-06 0.41570058)
(1.0745175e-06 4.7738631e-06 0.41570103)
(1.4054278e-08 4.1966127e-06 0.4157012)
(1.1626802e-06 -3.076674e-07 0.41570069)
(4.8638882e-06 9.9410733e-08 0.41570077)
(4.7738631e-06 1.0745175e-06 0.41570103)
(1.0866791e-06 1.0866791e-06 0.41570117)
(-3.7821081e-07 3.9501358e-07 0.4157011)
(1.1050293e-06 6.4273793e-08 0.41570107)
(4.7885589e-06 6.6228181e-09 0.4157011)
(4.1966127e-06 1.4054278e-08 0.4157012)
(3.9501358e-07 -3.7821081e-07 0.4157011)
(-4.4705609e-07 -4.4705609e-07 0.41570114)
(4.2286427e-07 4.2286427e-07 0.43501404)
(1.3362882e-06 5.8947924e-07 0.43501386)
(6.9940947e-07 8.7329545e-07 0.43501401)
(2.7656248e-07 1.1641613e-06 0.43501479)
(1.8609651e-07 1.0928517e-06 0.43501511)
(5.8947924e-07 1.3362882e-06 0.43501386)
(2.0119349e-06 2.0119349e-06 0.4350136)
(1.5614325e-06 3.6589734e-06 0.43501403)
(6.0589692e-07 4.9218441e-06 0.43501467)
(1.1478697e-07 4.7444711e-06 0.43501496)
(8.7329545e-07 6.9940947e-07 0.43501401)
(3.6589734e-06 1.5614325e-06 0.43501403)
(3.6093187e-06 3.6093187e-06 0.43501424)
(1.3620602e-06 4.8632625e-06 0.43501457)
(6.7847792e-08 4.086373e-06 0.43501471)
(1.1641613e-06 2.7656248e-07 0.43501479)
(4.9218441e-06 6.0589692e-07 0.43501467)
(4.8632625e-06 1.3620602e-06 0.43501457)
(1.0829513e-06 1.0829513e-06 0.43501452)
(-4.0313938e-07 3.2814436e-07 0.43501444)
(1.0928517e-06 1.8609651e-07 0.43501511)
(4.7444711e-06 1.1478697e-07 0.43501496)
(4.086373e-06 6.7847792e-08 0.43501471)
(3.2814436e-07 -4.0313938e-07 0.43501444)
(-4.3535681e-07 -4.3535681e-07 0.43501446)
(3.5117393e-07 3.5117393e-07 0.44393062)
(1.2567276e-06 4.7666236e-07 0.44393038)
(1.1021815e-06 8.4770941e-07 0.44393034)
(7.8982908e-07 1.0883361e-06 0.44393096)
(2.7840948e-07 1.0096615e-06 0.44393114)
(4.7666236e-07 1.2567276e-06 0.44393038)
(2.0015308e-06 2.0015308e-06 0.44393001)
(2.0196921e-06 3.6405716e-06 0.44393013)
(1.0327573e-06 4.6500116e-06 0.44393058)
(1.9973497e-07 4.3881581e-06 0.44393076)
(8.4770941e-07 1.1021815e-06 0.44393034)
(3.6405716e-06 2.0196921e-06 0.44393013)
(3.7506623e-06 3.7506623e-06 0.44392991)
(1.5374156e-06 4.6219446e-06 0.44392997)
(1.0384047e-07 3.6682417e-06 0.44393003)
(1.0883361e-06 7.8982908e-07 0.44393096)
(4.6500116e-06 1.0327573e-06 0.44393058)
(4.6219446e-06 1.5374156e-06 0.44392997)
(9.5033667e-07 9.5033667e-07 0.44392962)
(-4.3606697e-07 1.4577717e-07 0.44392952)
(1.0096615e-06 2.7840948e-07 0.44393114)
(4.3881581e-06 1.9973497e-07 0.44393076)
(3.6682417e-06 1.0384047e-07 0.44393003)
(1.4577717e-07 -4.3606697e-07 0.44392952)
(-4.3253253e-07 -4.3253253e-07 0.44392952)
(2.6299013e-07 2.6299013e-07 0.44421403)
(1.0525431e-06 3.4029108e-07 0.44421377)
(1.2784936e-06 7.3664695e-07 0.44421357)
(1.0816972e-06 9.1315032e-07 0.44421383)
(3.0750773e-07 8.3934927e-07 0.44421376)
(3.4029108e-07 1.0525431e-06 0.44421377)
(1.7630283e-06 1.7630283e-06 0.44421345)
(2.1377824e-06 3.2296299e-06 0.44421317)
(1.2357507e-06 3.9341196e-06 0.4442132)
(2.3370667e-07 3.6336621e-06 0.44421318)
(7.3664695e-07 1.2784936e-06 0.44421357)
(3.2296299e-06 2.1377824e-06 0.44421317)
(3.4495848e-06 3.4495848e-06 0.44421239)
(1.4857295e-06 3.899975e-06 0.444212)
(1.0720274e-07 2.8402267e-06 0.44421196)
(9.1315032e-07 1.0816972e-06 0.44421383)
(3.9341196e-06 1.2357507e-06 0.4442132)
(3.899975e-06 1.4857295e-06 0.444212)
(6.2639256e-07 6.2639256e-07 0.44421125)
(-4.7279224e-07 -1.813304e-07 0.44421121)
(8.3934927e-07 3.0750773e-07 0.44421376)
(3.6336621e-06 2.3370667e-07 0.44421318)
(2.8402266e-06 1.0720274e-07 0.44421196)
(-1.813304e-07 -4.7279224e-07 0.44421121)
(-4.3127924e-07 -4.3127924e-07 0.44421132)
(1.8080873e-07 1.8080873e-07 0.43997014)
(8.0106746e-07 2.6269491e-07 0.43996984)
(1.1550452e-06 5.7861488e-07 0.43996946)
(9.7504318e-07 6.7415758e-07 0.43996915)
(2.3323491e-07 6.2581897e-07 0.43996877)
(2.6269491e-07 8.0106746e-07 0.43996984)
(1.3977767e-06 1.3977767e-06 0.43996952)
(1.7722392e-06 2.4557439e-06 0.43996876)
(1.0458493e-06 2.8263481e-06 0.43996821)
(1.8489629e-07 2.5947816e-06 0.43996788)
(5.7861488e-07 1.1550452e-06 0.43996946)
(2.4557439e-06 1.7722392e-06 0.43996876)
(2.5836166e-06 2.5836166e-06 0.43996735)
(1.1140808e-06 2.6631849e-06 0.43996642)
(7.8857237e-08 1.6964881e-06 0.43996621)
(6.7415758e-07 9.7504317e-07 0.43996915)
(2.8263481e-06 1.0458493e-06 0.43996821)
(2.6631849e-06 1.1140808e-06 0.43996642)
(1.5872087e-07 1.5872086e-07 0.43996536)
(-4.5956822e-07 -4.997518e-07 0.43996551)
(6.2581897e-07 2.3323491e-07 0.43996877)
(2.5947816e-06 1.8489629e-07 0.43996788)
(1.6964881e-06 7.8857237e-08 0.43996621)
(-4.997518e-07 -4.5956822e-07 0.43996551)
(-3.6012454e-07 -3.6012454e-07 0.43996585)
(6.1397829e-08 6.1397828e-08 -8.755257)
(3.7259987e-07 1.3082091e-07 -8.7552574)
(5.9465756e-07 2.6916199e-07 -8.7552583)
(3.8830121e-07 2.8245239e-07 -8.7552593)
(4.9431178e-08 2.4928707e-07 -8.7552597)
(1.3082091e-07 3.7259987e-07 -8.7552574)
(6.8424611e-07 6.8424611e-07 -8.755258)
(8.2210479e-07 1.1214705e-06 -8.7552597)
(3.5848883e-07 1.2054355e-06 -8.7552609)
(1.6265857e-08 1.0742432e-06 -8.7552611)
(2.6916199e-07 5.9465756e-07 -8.7552583)
(1.1214705e-06 8.2210479e-07 -8.7552597)
(1.1158469e-06 1.1158469e-06 -8.7552622)
(3.4107392e-07 1.0524029e-06 -8.7552636)
(-3.8030352e-08 4.7198883e-07 -8.7552636)
(2.8245239e-07 3.883012e-07 -8.7552593)
(1.2054355e-06 3.5848882e-07 -8.7552609)
(1.0524029e-06 3.4107392e-07 -8.7552636)
(-2.8536928e-07 -2.8536927e-07 -8.7552647)
(-3.7067686e-07 -5.4097687e-07 -8.7552632)
(2.4928707e-07 4.9431177e-08 -8.7552597)
(1.0742432e-06 1.6265849e-08 -8.7552611)
(4.7198885e-07 -3.8030353e-08 -8.7552636)
(-5.4097687e-07 -3.7067684e-07 -8.7552632)
(-2.0843542e-07 -2.0843541e-07 -8.7552622)
)
;

boundaryField
{
    wall_minX
    {
        type            extrapolatedCalculated;
        value           nonuniform List<vector> 
100
(
(4.8280824e-12 1.3964763e-07 0.035097013)
(0 1.4202773e-07 0.035097699)
(0 -3.5709396e-07 0.03509736)
(0 -4.1881462e-07 0.035096295)
(0 -8.6106365e-08 0.0350958)
(0 2.6635552e-07 0.039566988)
(0 9.4018699e-08 0.039567209)
(0 -1.0344992e-06 0.039566725)
(0 -1.08314e-06 0.039565957)
(0 -2.3610356e-07 0.039565557)
(0 2.8737462e-07 0.047863483)
(0 -1.206221e-07 0.047863533)
(0 -1.6090624e-06 0.04786313)
(0 -1.5873871e-06 0.047862565)
(0 -3.5333919e-07 0.047862263)
(0 2.9987378e-07 0.060408709)
(0 -2.5850044e-07 0.060408767)
(0 -2.0029661e-06 0.060408536)
(0 -1.9505418e-06 0.060408137)
(0 -4.3725789e-07 0.060407931)
(0 3.2580921e-07 0.077303586)
(0 -2.9335832e-07 0.077303672)
(0 -2.2389531e-06 0.077303585)
(0 -2.1930993e-06 0.077303309)
(0 -4.9081222e-07 0.077303182)
(0 3.5740014e-07 0.098645106)
(0 -2.6005854e-07 0.0986452)
(0 -2.366566e-06 0.098645219)
(0 -2.3535525e-06 0.09864503)
(0 -5.2209686e-07 0.098644964)
(0 3.8836046e-07 0.12448662)
(0 -1.8066555e-07 0.1244867)
(0 -2.4095782e-06 0.12448681)
(0 -2.4482428e-06 0.1244867)
(0 -5.345806e-07 0.12448669)
(0 4.1596192e-07 0.15477733)
(0 -6.4176464e-08 0.1547774)
(0 -2.3732853e-06 0.15477759)
(0 -2.4780584e-06 0.15477756)
(0 -5.2859494e-07 0.15477761)
(0 4.3963947e-07 0.18927398)
(0 8.6749388e-08 0.18927405)
(0 -2.2540536e-06 0.18927432)
(0 -2.4358159e-06 0.18927438)
(0 -5.0298136e-07 0.18927448)
(0 4.5968172e-07 0.22742)
(0 2.7033493e-07 0.22742005)
(0 -2.0461265e-06 0.22742039)
(0 -2.3113524e-06 0.22742056)
(0 -4.5627569e-07 0.22742073)
(0 4.7620364e-07 0.26819716)
(0 4.8168055e-07 0.26819721)
(0 -1.7464858e-06 0.2681976)
(0 -2.0953076e-06 0.26819789)
(0 -3.8763111e-07 0.26819813)
(0 4.8838393e-07 0.30997818)
(0 7.1013815e-07 0.30997821)
(0 -1.3581141e-06 0.30997864)
(0 -1.7819936e-06 0.30997906)
(0 -2.9754486e-07 0.30997936)
(0 4.9397097e-07 0.35044784)
(0 9.3810116e-07 0.35044784)
(0 -8.9183611e-07 0.35044827)
(0 -1.3715996e-06 0.35044883)
(0 -1.884125e-07 0.35044918)
(0 4.8898746e-07 0.38670772)
(0 1.1407912e-06 0.38670768)
(0 -3.6782097e-07 0.38670807)
(0 -8.7273271e-07 0.38670875)
(0 -6.5067825e-08 0.38670913)
(0 4.6759707e-07 0.41569972)
(0 1.2862245e-06 0.41569962)
(0 1.8075079e-07 0.41569992)
(0 -3.076674e-07 0.41570069)
(0 6.4273793e-08 0.41570107)
(0 4.2286427e-07 0.43501404)
(0 1.3362882e-06 0.43501386)
(0 6.9940947e-07 0.43501401)
(0 2.7656248e-07 0.43501479)
(0 1.8609651e-07 0.43501511)
(0 3.5117393e-07 0.44393062)
(0 1.2567276e-06 0.44393038)
(0 1.1021815e-06 0.44393034)
(0 7.8982908e-07 0.44393096)
(0 2.7840948e-07 0.44393114)
(0 2.6299013e-07 0.44421403)
(0 1.0525431e-06 0.44421377)
(0 1.2784936e-06 0.44421357)
(0 1.0816972e-06 0.44421383)
(0 3.0750773e-07 0.44421376)
(0 1.8080873e-07 0.43997014)
(0 8.0106746e-07 0.43996984)
(0 1.1550452e-06 0.43996946)
(0 9.7504317e-07 0.43996915)
(0 2.3323491e-07 0.43996877)
(0 6.1397828e-08 -8.755257)
(0 3.7259987e-07 -8.7552574)
(0 5.9465756e-07 -8.7552583)
(0 3.883012e-07 -8.7552593)
(0 4.9431177e-08 -8.7552597)
)
;
    }
    wall_maxX
    {
        type            extrapolatedCalculated;
        value           nonuniform List<vector> 
100
(
(0 2.2467377e-08 0.0350958)
(0 -4.3100363e-08 0.035095899)
(0 -1.2244832e-07 0.035095661)
(0 -3.5510967e-08 0.035095529)
(0 6.7572816e-09 0.035095524)
(0 3.1486063e-08 0.039565557)
(0 -8.0543293e-08 0.039565608)
(0 -1.8881217e-07 0.039565614)
(0 -9.8252013e-08 0.039565639)
(0 -2.4808154e-08 0.039565487)
(0 5.6552006e-08 0.047862263)
(0 1.4088289e-08 0.047862389)
(0 -9.0795512e-08 0.047862592)
(0 -1.6239853e-07 0.047862701)
(0 -9.4895161e-08 0.047862477)
(0 1.1530818e-07 0.060407931)
(0 2.4820614e-07 0.060408139)
(0 1.2379959e-07 0.060408494)
(0 -2.1256049e-07 0.060408656)
(0 -1.7407748e-07 0.060408424)
(0 1.9532909e-07 0.077303182)
(0 5.7781521e-07 0.077303438)
(0 4.2670403e-07 0.077303901)
(0 -2.3282822e-07 0.077304106)
(0 -2.4980712e-07 0.077303894)
(0 2.8656173e-07 0.098644964)
(0 9.6762158e-07 0.098645247)
(0 7.9182786e-07 0.098645786)
(0 -2.1964923e-07 0.098646023)
(0 -3.1579873e-07 0.098645842)
(0 3.8415108e-07 0.12448669)
(0 1.3998166e-06 0.12448699)
(0 1.2020807e-06 0.12448758)
(0 -1.764959e-07 0.12448784)
(0 -3.6999112e-07 0.1244877)
(0 4.8621403e-07 0.15477761)
(0 1.8657528e-06 0.15477792)
(0 1.6459629e-06 0.15477857)
(0 -1.0875694e-07 0.15477883)
(0 -4.121921e-07 0.15477872)
(0 5.9187729e-07 0.18927448)
(0 2.3586854e-06 0.1892748)
(0 2.1127516e-06 0.18927549)
(0 -2.2573202e-08 0.18927575)
(0 -4.4297025e-07 0.18927567)
(0 6.9982647e-07 0.22742073)
(0 2.8685326e-06 0.22742105)
(0 2.5884531e-06 0.22742175)
(0 7.4742293e-08 0.22742199)
(0 -4.6327859e-07 0.22742195)
(0 8.0727676e-07 0.26819813)
(0 3.3783469e-06 0.26819845)
(0 3.0532313e-06 0.26819913)
(0 1.7445258e-07 0.26819934)
(0 -4.7423129e-07 0.26819932)
(0 9.0943337e-07 0.30997936)
(0 3.8627394e-06 0.30997965)
(0 3.4808196e-06 0.30998027)
(0 2.6693191e-07 0.30998044)
(0 -4.7686555e-07 0.30998044)
(0 9.99448e-07 0.35044918)
(0 4.2881948e-06 0.35044941)
(0 3.8395896e-06 0.35044993)
(0 3.4243709e-07 0.35045003)
(0 -4.7208648e-07 0.35045005)
(0 1.0684833e-06 0.38670913)
(0 4.6137183e-06 0.38670929)
(0 4.0931349e-06 0.38670963)
(0 3.9036813e-07 0.38670965)
(0 -4.6118221e-07 0.38670969)
(0 1.1050293e-06 0.41570107)
(0 4.7885589e-06 0.4157011)
(0 4.1966127e-06 0.4157012)
(0 3.9501358e-07 0.4157011)
(0 -4.4705609e-07 0.41570114)
(0 1.0928517e-06 0.43501511)
(0 4.7444711e-06 0.43501496)
(0 4.086373e-06 0.43501471)
(0 3.2814436e-07 0.43501444)
(0 -4.3535681e-07 0.43501446)
(0 1.0096615e-06 0.44393114)
(0 4.3881581e-06 0.44393076)
(0 3.6682417e-06 0.44393003)
(0 1.4577717e-07 0.44392952)
(0 -4.3253253e-07 0.44392952)
(0 8.3934927e-07 0.44421376)
(0 3.6336621e-06 0.44421318)
(0 2.8402267e-06 0.44421196)
(0 -1.813304e-07 0.44421121)
(0 -4.3127924e-07 0.44421132)
(0 6.2581897e-07 0.43996877)
(0 2.5947816e-06 0.43996788)
(0 1.6964881e-06 0.43996621)
(0 -4.997518e-07 0.43996551)
(0 -3.6012454e-07 0.43996585)
(0 2.4928707e-07 -8.7552597)
(0 1.0742432e-06 -8.7552611)
(0 4.7198883e-07 -8.7552636)
(0 -5.4097687e-07 -8.7552632)
(0 -2.0843541e-07 -8.7552622)
)
;
    }
    wall_minY
    {
        type            extrapolatedCalculated;
        value           nonuniform List<vector> 
100
(
(1.3964763e-07 4.8280824e-12 0.035097013)
(2.6635552e-07 0 0.039566988)
(2.8737462e-07 0 0.047863483)
(2.9987378e-07 0 0.060408709)
(3.2580921e-07 0 0.077303586)
(3.5740014e-07 0 0.098645106)
(3.8836046e-07 0 0.12448662)
(4.1596192e-07 0 0.15477733)
(4.3963947e-07 0 0.18927398)
(4.5968173e-07 0 0.22742)
(4.7620364e-07 0 0.26819716)
(4.8838393e-07 0 0.30997818)
(4.9397097e-07 0 0.35044784)
(4.8898746e-07 0 0.38670772)
(4.6759707e-07 0 0.41569972)
(4.2286427e-07 0 0.43501404)
(3.5117393e-07 0 0.44393062)
(2.6299013e-07 0 0.44421403)
(1.8080873e-07 0 0.43997014)
(6.1397829e-08 0 -8.755257)
(1.4202771e-07 1.3183898e-14 0.035097699)
(9.40187e-08 0 0.039567209)
(-1.206221e-07 0 0.047863533)
(-2.5850044e-07 0 0.060408767)
(-2.9335832e-07 0 0.077303672)
(-2.6005854e-07 0 0.0986452)
(-1.8066555e-07 0 0.1244867)
(-6.4176463e-08 0 0.1547774)
(8.674939e-08 0 0.18927405)
(2.7033493e-07 0 0.22742005)
(4.8168055e-07 0 0.26819721)
(7.1013815e-07 0 0.30997821)
(9.3810116e-07 0 0.35044784)
(1.1407912e-06 0 0.38670768)
(1.2862245e-06 0 0.41569962)
(1.3362882e-06 0 0.43501386)
(1.2567276e-06 0 0.44393038)
(1.0525431e-06 0 0.44421377)
(8.0106746e-07 0 0.43996984)
(3.7259987e-07 0 -8.7552574)
(-3.5709397e-07 -7.8409501e-14 0.03509736)
(-1.0344992e-06 0 0.039566725)
(-1.6090624e-06 0 0.04786313)
(-2.0029661e-06 0 0.060408536)
(-2.2389531e-06 0 0.077303585)
(-2.366566e-06 0 0.098645219)
(-2.4095782e-06 0 0.12448681)
(-2.3732853e-06 0 0.15477759)
(-2.2540536e-06 0 0.18927432)
(-2.0461265e-06 0 0.22742039)
(-1.7464858e-06 0 0.2681976)
(-1.3581141e-06 0 0.30997864)
(-8.9183611e-07 0 0.35044827)
(-3.6782097e-07 0 0.38670807)
(1.8075079e-07 0 0.41569992)
(6.9940947e-07 0 0.43501401)
(1.1021815e-06 0 0.44393034)
(1.2784936e-06 0 0.44421357)
(1.1550452e-06 0 0.43996946)
(5.9465756e-07 0 -8.7552583)