/*--------------------------------*- C++ -*----------------------------------*\
| =========                 |                                                 |
| \\      /  F ield         | OpenFOAM: The Open Source CFD Toolbox           |
|  \\    /   O peration     | Version:  v2106                                 |
|   \\  /    A nd           | Website:  www.openfoam.com                      |
|    \\/     M anipulation  |                                                 |
\*---------------------------------------------------------------------------*/
FoamFile
{
    version     2.0;
    format      ascii;
    arch        "LSB;label=32;scalar=64";
    class       volVectorField;
    location    "50";
    object      Tmode_grad4;
}
// * * * * * * * * * * * * * * * * * * * * * * * * * * * * * * * * * * * * * //

dimensions      [0 -1 0 0 0 0 0];

internalField   nonuniform List<vector> 
500
(
(1.1177571e-05 1.1177571e-05 -1.0730189)
(1.324183e-05 6.5625433e-06 -1.0729605)
(-1.0831796e-05 4.5498773e-06 -1.0729748)
(-1.1259083e-05 4.9739579e-06 -1.0730012)
(-2.6345361e-06 4.7819398e-06 -1.0730172)
(6.5625431e-06 1.324183e-05 -1.0729605)
(3.3002983e-06 3.3002982e-06 -1.072927)
(-1.3214674e-05 1.3472337e-06 -1.0729501)
(-1.0910989e-05 4.1546506e-06 -1.0729736)
(-2.8265542e-06 5.7712832e-06 -1.0729913)
(4.5498769e-06 -1.0831796e-05 -1.0729748)
(1.3472339e-06 -1.3214674e-05 -1.0729501)
(-9.9774436e-06 -9.9774436e-06 -1.0729686)
(-6.8350338e-06 -5.2883012e-06 -1.0729836)
(-1.5567811e-06 -1.7102301e-06 -1.0729941)
(4.9739579e-06 -1.1259083e-05 -1.0730012)
(4.1546506e-06 -1.0910989e-05 -1.0729736)
(-5.2883012e-06 -6.8350338e-06 -1.0729836)
(-2.6437752e-06 -2.6437751e-06 -1.0729893)
(-4.411735e-07 -7.059561e-07 -1.0729941)
(4.7819398e-06 -2.6345361e-06 -1.0730172)
(5.7712832e-06 -2.8265542e-06 -1.0729913)
(-1.7102301e-06 -1.5567811e-06 -1.0729941)
(-7.0595609e-07 -4.4117347e-07 -1.0729941)
(-2.649017e-07 -2.6490167e-07 -1.0729991)
(2.4917247e-05 2.4917247e-05 -0.95071067)
(2.6450695e-05 1.3805239e-05 -0.95067793)
(-2.8552002e-05 1.1025974e-05 -0.95069169)
(-2.9813074e-05 1.2629303e-05 -0.95070737)
(-8.1241649e-06 1.1599909e-05 -0.95072367)
(1.3805239e-05 2.6450695e-05 -0.95067793)
(5.6137854e-06 5.6137854e-06 -0.95066075)
(-3.0315905e-05 5.2334799e-06 -0.95067374)
(-2.8952172e-05 1.3869198e-05 -0.95068516)
(-9.1535595e-06 1.7337729e-05 -0.95070379)
(1.1025974e-05 -2.8552002e-05 -0.95069169)
(5.2334798e-06 -3.0315905e-05 -0.95067374)
(-2.0296589e-05 -2.0296589e-05 -0.95068045)
(-1.7708825e-05 -7.6334589e-06 -0.95068414)
(-5.8118114e-06 8.9547127e-07 -0.95069748)
(1.2629303e-05 -2.9813074e-05 -0.95070737)
(1.3869198e-05 -2.8952172e-05 -0.95068516)
(-7.6334589e-06 -1.7708825e-05 -0.95068414)
(-7.7601113e-06 -7.7601113e-06 -0.95068154)
(-3.4676061e-06 -5.3480211e-06 -0.95069321)
(1.1599909e-05 -8.1241649e-06 -0.95072367)
(1.7337729e-05 -9.1535595e-06 -0.95070379)
(8.9547132e-07 -5.8118113e-06 -0.95069748)
(-5.3480211e-06 -3.467606e-06 -0.95069321)
(-4.2037512e-06 -4.2037512e-06 -0.95071045)
(3.3001947e-05 3.3001947e-05 -0.73435697)
(3.2218816e-05 1.8012519e-05 -0.73433356)
(-4.0267489e-05 1.651856e-05 -0.73434298)
(-4.3236196e-05 1.9779657e-05 -0.73434818)
(-1.3501875e-05 1.8031809e-05 -0.73436166)
(1.8012519e-05 3.2218816e-05 -0.73433356)
(7.4937353e-06 7.4937352e-06 -0.73432088)
(-3.7616782e-05 1.2587673e-05 -0.73432487)
(-4.0966322e-05 2.7381741e-05 -0.73432504)
(-1.5249722e-05 3.1953704e-05 -0.73434106)
(1.651856e-05 -4.0267489e-05 -0.73434298)
(1.2587673e-05 -3.7616782e-05 -0.73432487)
(-2.0379483e-05 -2.0379483e-05 -0.73432198)
(-2.3870165e-05 -1.670003e-06 -0.73431584)
(-1.0453899e-05 8.8745857e-06 -0.73432858)
(1.9779657e-05 -4.3236196e-05 -0.73434818)
(2.7381741e-05 -4.0966322e-05 -0.73432504)
(-1.670003e-06 -2.3870165e-05 -0.73431584)
(-1.1712254e-05 -1.1712254e-05 -0.73430664)
(-8.2199967e-06 -1.3666995e-05 -0.73432143)
(1.8031809e-05 -1.3501875e-05 -0.73436166)
(3.1953704e-05 -1.5249722e-05 -0.73434106)
(8.8745858e-06 -1.0453899e-05 -0.73432858)
(-1.3666995e-05 -8.2199966e-06 -0.73432143)
(-1.175706e-05 -1.175706e-05 -0.73434543)
(4.0522192e-05 4.0522192e-05 -0.43302869)
(4.0438478e-05 2.2257337e-05 -0.43300571)
(-4.3170564e-05 2.3097797e-05 -0.43300896)
(-4.8494116e-05 2.8056954e-05 -0.43300344)
(-1.7112242e-05 2.533477e-05 -0.43301175)
(2.2257337e-05 4.0438478e-05 -0.43300571)
(1.4301884e-05 1.4301884e-05 -0.43299258)
(-3.4471139e-05 2.6230656e-05 -0.43298778)
(-4.5138655e-05 4.6205437e-05 -0.43297756)
(-1.9834425e-05 5.0421672e-05 -0.43298904)
(2.3097797e-05 -4.3170564e-05 -0.43300896)
(2.6230656e-05 -3.4471139e-05 -0.43298778)
(-1.1267011e-05 -1.1267011e-05 -0.43297705)
(-2.43031e-05 1.0765486e-05 -0.4329628)
(-1.4301419e-05 2.0527599e-05 -0.43297289)
(2.8056954e-05 -4.8494116e-05 -0.43300344)
(4.6205437e-05 -4.5138655e-05 -0.43297756)
(1.0765486e-05 -2.43031e-05 -0.4329628)
(-1.3344046e-05 -1.3344046e-05 -0.43294882)
(-1.3326351e-05 -2.2202511e-05 -0.4329639)
(2.533477e-05 -1.7112242e-05 -0.43301175)
(5.0421672e-05 -1.9834425e-05 -0.43298904)
(2.0527599e-05 -1.4301419e-05 -0.43297289)
(-2.2202511e-05 -1.3326351e-05 -0.4329639)
(-2.0207062e-05 -2.0207062e-05 -0.43298926)
(4.8319019e-05 4.8319019e-05 -0.075699725)
(5.1940671e-05 2.6766867e-05 -0.075676411)
(-3.7998706e-05 3.0640984e-05 -0.075675037)
(-4.6021609e-05 3.7033655e-05 -0.075659845)
(-1.9040507e-05 3.3168668e-05 -0.075663561)
(2.6766867e-05 5.1940671e-05 -0.075676411)
(2.5423619e-05 2.5423619e-05 -0.075663292)
(-2.2598524e-05 4.450237e-05 -0.075651868)
(-4.2230083e-05 6.8018081e-05 -0.075632883)
(-2.2905493e-05 7.0813772e-05 -0.075640143)
(3.0640984e-05 -3.7998706e-05 -0.075675037)
(4.450237e-05 -2.2598524e-05 -0.075651868)
(4.5957556e-06 4.5957556e-06 -0.075636328)
(-1.9710207e-05 2.7071044e-05 -0.075615962)
(-1.7176712e-05 3.401595e-05 -0.075623254)
(3.7033655e-05 -4.6021609e-05 -0.075659845)
(6.8018081e-05 -4.2230083e-05 -0.075632883)
(2.7071044e-05 -1.9710207e-05 -0.075615962)
(-1.2809888e-05 -1.2809888e-05 -0.075599108)
(-1.8275556e-05 -3.0033503e-05 -0.075613363)
(3.3168668e-05 -1.9040507e-05 -0.075663561)
(7.0813772e-05 -2.2905493e-05 -0.075640143)
(3.401595e-05 -1.7176712e-05 -0.075623254)
(-3.0033503e-05 -1.8275556e-05 -0.075613363)
(-2.8659122e-05 -2.8659122e-05 -0.075638162)
(5.6065333e-05 5.6065333e-05 0.29770495)
(6.512684e-05 3.1002799e-05 0.29772741)
(-2.6604877e-05 3.8543799e-05 0.29773123)
(-3.7018706e-05 4.6031825e-05 0.2977547)
(-1.9589992e-05 4.0947214e-05 0.29775473)
(3.1002799e-05 6.512684e-05 0.29772741)
(3.8844539e-05 3.8844539e-05 0.2977388)
(-4.0613376e-06 6.4939654e-05 0.29775446)
(-3.3413583e-05 9.0088737e-05 0.29778066)
(-2.4674603e-05 9.0728782e-05 0.29777704)
(3.8543799e-05 -2.6604877e-05 0.29773123)
(6.4939654e-05 -4.0613376e-06 0.29775446)
(2.4639321e-05 2.463932e-05 0.29777175)
(-1.1229578e-05 4.45402e-05 0.29779638)
(-1.9163295e-05 4.7307329e-05 0.29779164)
(4.6031825e-05 -3.7018706e-05 0.2977547)
(9.0088737e-05 -3.3413583e-05 0.29778066)
(4.45402e-05 -1.1229578e-05 0.29779638)
(-1.0745575e-05 -1.0745575e-05 0.29781422)
(-2.2829851e-05 -3.7110571e-05 0.29780135)
(4.0947214e-05 -1.9589991e-05 0.29775473)
(9.0728782e-05 -2.4674603e-05 0.29777704)
(4.7307329e-05 -1.9163295e-05 0.29779164)
(-3.7110571e-05 -2.2829851e-05 0.29780135)
(-3.6739959e-05 -3.6739959e-05 0.29777797)
(6.3294138e-05 6.3294138e-05 0.63671197)
(7.8220122e-05 3.4363123e-05 0.63673211)
(-1.07044e-05 4.6132547e-05 0.63673625)
(-2.2515644e-05 5.433535e-05 0.63676662)
(-1.9021552e-05 4.8042012e-05 0.63676958)
(3.4363123e-05 7.8220122e-05 0.63673211)
(5.2477737e-05 5.2477737e-05 0.63673999)
(1.9253942e-05 8.503021e-05 0.6367574)
(-1.9651448e-05 0.00010969021 0.6367893)
(-2.5314891e-05 0.00010772303 0.63678882)
(4.6132547e-05 -1.07044e-05 0.63673625)
(8.503021e-05 1.9253942e-05 0.6367574)
(4.6508074e-05 4.6508074e-05 0.63677332)
(1.7717439e-07 6.0630582e-05 0.63680046)
(-2.0333007e-05 5.8320544e-05 0.63679812)
(5.433535e-05 -2.2515644e-05 0.63676662)
(0.00010969021 -1.9651448e-05 0.6367893)
(6.0630582e-05 1.7717441e-07 0.63680046)
(-7.8389781e-06 -7.838978e-06 0.63681753)
(-2.6854916e-05 -4.3707304e-05 0.63680651)
(4.8042012e-05 -1.9021552e-05 0.63676958)
(0.00010772303 -2.5314891e-05 0.63678882)
(5.8320544e-05 -2.0333007e-05 0.63679812)
(-4.3707304e-05 -2.6854916e-05 0.63680651)
(-4.4245225e-05 -4.4245225e-05 0.63678516)
(6.9487389e-05 6.9487389e-05 0.88293056)
(8.9400425e-05 3.6257982e-05 0.88294672)
(7.903042e-06 5.2643311e-05 0.88294916)
(-3.6823876e-06 6.115325e-05 0.88298458)
(-1.7610726e-05 5.3772111e-05 0.88298958)
(3.6257982e-05 8.9400425e-05 0.88294672)
(6.4134307e-05 6.4134307e-05 0.88294941)
(4.5245945e-05 0.00010201487 0.88296579)
(-1.9891876e-06 0.00012392919 0.88300152)
(-2.4991865e-05 0.00011926094 0.88300365)
(5.2643311e-05 7.903042e-06 0.88294916)
(0.00010201487 4.5245945e-05 0.88296579)
(6.7697924e-05 6.7697925e-05 0.88297699)
(1.3563674e-05 7.2771008e-05 0.8830047)
(-2.0722895e-05 6.499239e-05 0.88300469)
(6.115325e-05 -3.6823876e-06 0.88298458)
(0.00012392919 -1.9891877e-06 0.88300152)
(7.2771008e-05 1.3563674e-05 0.8830047)
(-4.694722e-06 -4.6947219e-06 0.8830193)
(-3.017761e-05 -5.0063646e-05 0.8830108)
(5.3772111e-05 -1.7610726e-05 0.88298958)
(0.00011926094 -2.4991865e-05 0.88300365)
(6.499239e-05 -2.0722895e-05 0.88300469)
(-5.0063646e-05 -3.017761e-05 0.8830108)
(-5.0968844e-05 -5.0968844e-05 0.88299223)
(7.4068037e-05 7.4068037e-05 0.97654906)
(9.6818579e-05 3.6155147e-05 0.97655947)
(2.7155617e-05 5.7215905e-05 0.97655845)
(1.7901855e-05 6.5625463e-05 0.97659635)
(-1.5691493e-05 5.7420618e-05 0.97660227)
(3.6155147e-05 9.6818579e-05 0.97655947)
(7.154038e-05 7.154038e-05 0.97655561)
(7.136109e-05 0.00011286245 0.97656793)
(1.8208924e-05 0.00012980786 0.97660498)
(-2.3896338e-05 0.00012283082 0.97660908)
(5.7215905e-05 2.7155617e-05 0.97655845)
(0.00011286245 7.136109e-05 0.97656793)
(8.5423102e-05 8.5423102e-05 0.97657099)
(2.7870229e-05 7.841042e-05 0.97659701)
(-2.0342856e-05 6.5471975e-05 0.97659931)
(6.5625463e-05 1.7901855e-05 0.97659635)
(0.00012980786 1.8208924e-05 0.97660498)
(7.841042e-05 2.7870229e-05 0.97659701)
(-1.7422024e-06 -1.7422023e-06 0.97660754)
(-3.2521968e-05 -5.6169541e-05 0.97660256)
(5.7420618e-05 -1.5691493e-05 0.97660227)
(0.00012283082 -2.3896338e-05 0.97660908)
(6.5471975e-05 -2.0342856e-05 0.97659931)
(-5.6169541e-05 -3.2521968e-05 0.97660256)
(-5.6627749e-05 -5.6627749e-05 0.97658774)
(7.6429394e-05 7.6429394e-05 0.86834274)
(9.8786049e-05 3.3680342e-05 0.86834566)
(4.4776133e-05 5.8967164e-05 0.86834005)
(4.0140805e-05 6.690868e-05 0.86837702)
(-1.3662247e-05 5.8312701e-05 0.86838262)
(3.3680343e-05 9.8786049e-05 0.86834566)
(7.2592704e-05 7.2592704e-05 0.86833457)
(9.4618639e-05 0.0001145542 0.86833993)
(3.915911e-05 0.00012459235 0.86837507)
(-2.2258226e-05 0.00011629673 0.8683804)
(5.8967164e-05 4.4776133e-05 0.86834005)
(0.0001145542 9.4618639e-05 0.86833993)
(9.6775783e-05 9.6775783e-05 0.86833182)
(4.188334e-05 7.5330677e-05 0.86835362)
(-1.919266e-05 5.8467305e-05 0.8683582)
(6.690868e-05 4.0140805e-05 0.86837702)
(0.00012459235 3.915911e-05 0.86837507)
(7.5330677e-05 4.188334e-05 0.86835362)
(8.506322e-07 8.5063219e-07 0.86835879)
(-3.3500474e-05 -6.1633201e-05 0.86835858)
(5.8312701e-05 -1.3662247e-05 0.86838262)
(0.00011629673 -2.2258226e-05 0.8683804)
(5.8467305e-05 -1.919266e-05 0.8683582)
(-6.1633201e-05 -3.3500474e-05 0.86835858)
(-6.0848549e-05 -6.0848549e-05 0.86834871)
(7.601683e-05 7.601683e-05 0.53786656)
(9.4127661e-05 2.8758101e-05 0.53786058)
(5.8509326e-05 5.7136622e-05 0.53785036)
(6.0471798e-05 6.432927e-05 0.53788226)
(-1.1956741e-05 5.5940795e-05 0.53788627)
(2.8758101e-05 9.4127661e-05 0.53786058)
(6.580735e-05 6.580735e-05 0.53784268)
(0.00011186608 0.00010462893 0.53783881)
(5.8678058e-05 0.00010641257 0.53786824)
(-2.0345215e-05 9.8408367e-05 0.53787395)
(5.7136622e-05 5.8509326e-05 0.53785036)
(0.00010462893 0.00011186608 0.53783881)
(9.9114547e-05 9.9114547e-05 0.53781765)
(5.4251233e-05 6.2124528e-05 0.53783259)
(-1.7292876e-05 4.3652993e-05 0.53783928)
(6.432927e-05 6.0471798e-05 0.53788226)
(0.00010641257 5.8678057e-05 0.53786824)
(6.2124528e-05 5.4251233e-05 0.53783259)
(3.2165043e-06 3.2165042e-06 0.53783158)
(-3.2659572e-05 -6.5657415e-05 0.53783745)
(5.5940795e-05 -1.1956741e-05 0.53788627)
(9.8408367e-05 -2.0345215e-05 0.53787395)
(4.3652993e-05 -1.7292877e-05 0.53783928)
(-6.5657415e-05 -3.2659572e-05 0.53783745)
(-6.3208823e-05 -6.3208823e-05 0.53783373)
(7.2447605e-05 7.2447605e-05 0.015785876)
(8.2586494e-05 2.174499e-05 0.01577031)
(6.6448834e-05 5.1269517e-05 0.015756874)
(7.6049568e-05 5.7562364e-05 0.015779137)
(-1.0989454e-05 5.0098304e-05 0.01578044)
(2.174499e-05 8.2586494e-05 0.01577031)
(5.0819362e-05 5.0819362e-05 0.015747412)
(0.00012017489 8.1845753e-05 0.015733256)
(7.4292748e-05 7.492383e-05 0.015752821)
(-1.8453513e-05 6.9307231e-05 0.015757998)
(5.1269517e-05 6.6448834e-05 0.015756874)
(8.1845753e-05 0.00012017489 0.015733256)
(9.0553302e-05 9.0553302e-05 0.015699026)
(6.3511045e-05 3.8670866e-05 0.015704549)
(-1.4733853e-05 2.1974546e-05 0.015712891)
(5.7562364e-05 7.6049568e-05 0.015779137)
(7.492383e-05 7.4292748e-05 0.015752821)
(3.8670866e-05 6.3511045e-05 0.015704549)
(5.7139922e-06 5.7139922e-06 0.015697137)
(-2.9584393e-05 -6.7177234e-05 0.015710058)
(5.0098304e-05 -1.0989454e-05 0.01578044)
(6.9307231e-05 -1.8453513e-05 0.015757998)
(2.1974546e-05 -1.4733853e-05 0.015712891)
(-6.7177234e-05 -2.9584393e-05 0.015710058)
(-6.3328003e-05 -6.3328003e-05 0.015713403)
(6.5639314e-05 6.5639314e-05 -0.59663424)
(6.5126177e-05 1.3493213e-05 -0.59665904)
(6.7336532e-05 4.1390783e-05 -0.59667282)
(8.403795e-05 4.6785262e-05 -0.5966647)
(-1.1087584e-05 4.0979484e-05 -0.59666683)
(1.3493213e-05 6.5126177e-05 -0.59665904)
(2.875338e-05 2.875338e-05 -0.59668372)
(0.00011727461 4.6780413e-05 -0.59670751)
(8.3421001e-05 3.1825324e-05 -0.59670187)
(-1.6893362e-05 3.0858788e-05 -0.59669813)
(4.1390783e-05 6.7336532e-05 -0.59667282)
(4.6780413e-05 0.00011727461 -0.59670751)
(7.0408475e-05 7.0408475e-05 -0.59675242)
(6.8116325e-05 6.4406072e-06 -0.59675849)
(-1.1731941e-05 -4.2878739e-06 -0.59674938)
(4.6785262e-05 8.403795e-05 -0.5966647)
(3.1825324e-05 8.3421001e-05 -0.59670187)
(6.4406072e-06 6.8116325e-05 -0.59675849)
(8.7246521e-06 8.7246522e-06 -0.59677194)
(-2.4045683e-05 -6.514555e-05 -0.59675176)
(4.0979484e-05 -1.1087584e-05 -0.59666683)
(3.0858788e-05 -1.6893362e-05 -0.59669813)
(-4.2878738e-06 -1.1731941e-05 -0.59674938)
(-6.514555e-05 -2.4045683e-05 -0.59675176)
(-6.0978742e-05 -6.0978742e-05 -0.59674101)
(5.5912963e-05 5.5912963e-05 -1.1240503)
(4.4004645e-05 5.2963002e-06 -1.1240827)
(6.0794645e-05 2.8142553e-05 -1.1240929)
(8.2041279e-05 3.2777098e-05 -1.1241024)
(-1.241211e-05 2.9233719e-05 -1.1241081)
(5.2963002e-06 4.4004645e-05 -1.1240827)
(2.3490299e-06 2.3490299e-06 -1.1241049)
(0.00010201584 2.2458935e-06 -1.1241356)
(8.3678028e-05 -1.887362e-05 -1.1241471)
(-1.5955489e-05 -1.3239728e-05 -1.1241455)
(2.8142553e-05 6.0794645e-05 -1.1240929)
(2.2458935e-06 0.00010201584 -1.1241356)
(3.9571995e-05 3.9571995e-05 -1.124186)
(6.6555657e-05 -3.1391903e-05 -1.124205)
(-8.6561823e-06 -3.1661458e-05 -1.1241964)
(3.2777098e-05 8.2041279e-05 -1.1241024)
(-1.887362e-05 8.3678028e-05 -1.1241471)
(-3.1391903e-05 6.6555657e-05 -1.124205)
(1.2444575e-05 1.2444575e-05 -1.1242234)
(-1.6135193e-05 -5.8810538e-05 -1.1241968)
(2.9233719e-05 -1.241211e-05 -1.1241081)
(-1.3239728e-05 -1.5955489e-05 -1.1241455)
(-3.1661458e-05 -8.6561823e-06 -1.1241964)
(-5.8810539e-05 -1.6135193e-05 -1.1241968)
(-5.6159591e-05 -5.6159591e-05 -1.124179)
(4.4031803e-05 4.4031803e-05 -1.3463518)
(2.2564359e-05 -1.3015123e-06 -1.3463891)
(4.7600043e-05 1.2895078e-05 -1.3463912)
(6.8809741e-05 1.6984116e-05 -1.3464197)
(-1.4849098e-05 1.600975e-05 -1.3464278)
(-1.3015123e-06 2.2564359e-05 -1.3463891)
(-2.4140729e-05 -2.4140729e-05 -1.3464043)
(7.5028486e-05 -4.6408025e-05 -1.3464367)
(7.348175e-05 -7.0758651e-05 -1.3464665)
(-1.5823464e-05 -5.7439942e-05 -1.3464672)
(1.2895078e-05 4.7600043e-05 -1.3463912)
(-4.6408025e-05 7.5028486e-05 -1.3464367)
(9.8212099e-07 9.8212099e-07 -1.3464845)
(5.7777825e-05 -6.9835006e-05 -1.3465158)
(-5.9699586e-06 -5.5577695e-05 -1.3465089)
(1.6984116e-05 6.8809741e-05 -1.3464197)
(-7.0758651e-05 7.348175e-05 -1.3464665)
(-6.9835006e-05 5.7777825e-05 -1.3465158)
(1.6921934e-05 1.6921934e-05 -1.3465368)
(-6.3185901e-06 -4.7736547e-05 -1.3465057)
(1.600975e-05 -1.4849098e-05 -1.3464278)
(-5.7439942e-05 -1.5823464e-05 -1.3464672)
(-5.5577695e-05 -5.9699586e-06 -1.3465089)
(-4.7736547e-05 -6.3185901e-06 -1.3465057)
(-4.9075613e-05 -4.9075613e-05 -1.3464815)
(3.1090753e-05 3.1090753e-05 -1.0714719)
(4.6301974e-06 -4.8750306e-06 -1.0715108)
(3.0147706e-05 -2.1698753e-06 -1.0715014)
(4.5393072e-05 1.5727556e-06 -1.0715456)
(-1.7840377e-05 3.0173569e-06 -1.0715535)
(-4.8750306e-06 4.6301974e-06 -1.0715108)
(-4.5260745e-05 -4.5260745e-05 -1.0715163)
(3.9819385e-05 -9.1017609e-05 -1.0715421)
(5.3173921e-05 -0.0001149506 -1.0715871)
(-1.6395776e-05 -9.4270357e-05 -1.0715889)
(-2.1698753e-06 3.0147706e-05 -1.0715014)
(-9.1017609e-05 3.9819385e-05 -1.0715421)
(-3.9542153e-05 -3.9542153e-05 -1.0715758)
(4.2140324e-05 -0.0001017111 -1.0716153)
(-4.0535458e-06 -7.0188745e-05 -1.0716108)
(1.5727556e-06 4.5393072e-05 -1.0715456)
(-0.0001149506 5.3173921e-05 -1.0715871)
(-0.0001017111 4.2140324e-05 -1.0716153)
(2.2527328e-05 2.2527328e-05 -1.0716345)
(4.6191255e-06 -3.1473473e-05 -1.0716016)
(3.0173569e-06 -1.7840377e-05 -1.0715535)
(-9.4270357e-05 -1.6395776e-05 -1.0715889)
(-7.0188745e-05 -4.0535458e-06 -1.0716108)
(-3.1473473e-05 4.6191255e-06 -1.0716016)
(-4.005408e-05 -4.005408e-05 -1.0715724)
(1.8072751e-05 1.8072751e-05 -0.23988247)
(-7.0122045e-06 -4.9632872e-06 -0.23992139)
(1.2823034e-05 -1.4227042e-05 -0.23990106)
(1.6722852e-05 -1.0700998e-05 -0.23995098)
(-2.0147676e-05 -7.5828671e-06 -0.23995368)
(-4.9632872e-06 -7.0122044e-06 -0.23992139)
(-5.5461894e-05 -5.5461894e-05 -0.23992042)
(4.2164674e-06 -0.00012078187 -0.23992977)
(2.6689114e-05 -0.00014046272 -0.23998002)
(-1.7029544e-05 -0.0001147044 -0.23997993)
(-1.4227042e-05 1.2823034e-05 -0.23990106)
(-0.00012078187 4.2164675e-06 -0.23992977)
(-7.2177792e-05 -7.2177792e-05 -0.23993587)
(2.2800323e-05 -0.00011722164 -0.23997384)
(-2.975462e-06 -6.8264832e-05 -0.23997159)
(-1.0700998e-05 1.6722852e-05 -0.23995098)
(-0.00014046272 2.6689114e-05 -0.23998002)
(-0.00011722164 2.2800323e-05 -0.23997384)
(3.0602074e-05 3.0602074e-05 -0.23998392)
(1.5608325e-05 -9.3285689e-06 -0.23995373)
(-7.5828671e-06 -2.0147676e-05 -0.23995368)
(-0.0001147044 -1.7029545e-05 -0.23997993)
(-6.8264832e-05 -2.975462e-06 -0.23997159)
(-9.328569e-06 1.5608326e-05 -0.23995373)
(-2.9595891e-05 -2.9595891e-05 -0.23992244)
(5.143601e-06 5.143601e-06 0.98677911)
(-1.3959039e-05 -4.2298105e-06 0.98674192)
(5.5626532e-07 -2.1315083e-05 0.98676268)
(-7.2319563e-06 -1.7789534e-05 0.98672147)
(-1.9641775e-05 -1.4485308e-05 0.98673115)
(-4.2298105e-06 -1.3959039e-05 0.98674192)
(-5.3647065e-05 -5.3647064e-05 0.98673403)
(-1.9783321e-05 -0.00012583422 0.9867439)
(3.0127051e-06 -0.00013781423 0.9867033)
(-1.6337549e-05 -0.0001121809 0.98671035)
(-2.1315083e-05 5.5626526e-07 0.98676268)
(-0.00012583422 -1.9783321e-05 0.9867439)
(-8.36109e-05 -8.36109e-05 0.98677114)
(6.4213676e-06 -0.00010561033 0.98674711)
(-2.552889e-06 -4.3978918e-05 0.98674674)
(-1.7789534e-05 -7.2319564e-06 0.98672147)
(-0.00013781423 3.012705e-06 0.9867033)
(-0.00010561033 6.4213676e-06 0.98674711)
(4.2644686e-05 4.2644686e-05 0.98675129)
(2.4750058e-05 1.7677264e-05 0.98676826)
(-1.4485308e-05 -1.9641775e-05 0.98673115)
(-0.0001121809 -1.6337549e-05 0.98671035)
(-4.3978918e-05 -2.552889e-06 0.98674674)
(1.7677264e-05 2.4750058e-05 0.98676826)
(-1.9197837e-05 -1.9197837e-05 0.98679138)
(-6.7221416e-06 -6.7221416e-06 2.2254816)
(-2.344668e-05 -1.0222463e-05 2.2254658)
(-7.633391e-06 -2.6747865e-05 2.2254787)
(-1.4804491e-05 -2.2814195e-05 2.2254569)
(-1.3689712e-05 -2.1453018e-05 2.2254839)
(-1.0222463e-05 -2.344668e-05 2.2254658)
(-5.3485266e-05 -5.3485266e-05 2.2254588)
(-2.652099e-05 -0.00011231883 2.2254851)
(-6.8622199e-06 -0.00011482156 2.2254634)
(-1.2328534e-05 -9.9118888e-05 2.2254883)
(-2.6747865e-05 -7.633391e-06 2.2254787)
(-0.00011231883 -2.652099e-05 2.2254851)
(-6.8969688e-05 -6.8969688e-05 2.2255435)
(-1.6045504e-06 -6.9222906e-05 2.2255368)
(-3.2212625e-06 -1.0350127e-05 2.2255468)
(-2.2814195e-05 -1.4804491e-05 2.2254569)
(-0.00011482156 -6.8622201e-06 2.2254634)
(-6.9222906e-05 -1.6045504e-06 2.2255368)
(5.175734e-05 5.175734e-05 2.2255434)
(2.6919984e-05 3.5316763e-05 2.2255443)
(-2.1453018e-05 -1.3689712e-05 2.2254839)
(-9.9118888e-05 -1.2328535e-05 2.2254883)
(-1.0350127e-05 -3.2212625e-06 2.2255468)
(3.5316763e-05 2.6919984e-05 2.2255443)
(-1.4181647e-05 -1.4181647e-05 2.2255639)
(-5.4155477e-06 -5.4155477e-06 1.16687)
(-1.6922337e-05 -8.8912437e-06 1.166893)
(-8.3166087e-06 -1.7011084e-05 1.1669195)
(-2.0275555e-06 -1.3488641e-05 1.1669147)
(-1.6733079e-06 -1.1529611e-05 1.1669334)
(-8.8912437e-06 -1.6922337e-05 1.166893)
(-3.4315642e-05 -3.4315642e-05 1.1669299)
(-1.5212705e-05 -6.1002498e-05 1.1669973)
(6.1946552e-06 -5.7909251e-05 1.166978)
(2.8572283e-07 -4.9214163e-05 1.1669895)
(-1.7011084e-05 -8.3166087e-06 1.1669195)
(-6.1002498e-05 -1.5212705e-05 1.1669973)
(-3.1910218e-05 -3.1910218e-05 1.1671164)
(9.7607792e-06 -2.5619679e-05 1.1671071)
(4.1234172e-06 1.20118e-05 1.1670979)
(-1.3488641e-05 -2.0275556e-06 1.1669147)
(-5.7909251e-05 6.1946552e-06 1.166978)
(-2.5619679e-05 9.7607792e-06 1.1671071)
(5.0116673e-05 5.0116673e-05 1.1670754)
(2.5373376e-05 3.4761987e-05 1.1669724)
(-1.1529611e-05 -1.6733079e-06 1.1669334)
(-4.9214163e-05 2.8572283e-07 1.1669895)
(1.20118e-05 4.1234171e-06 1.1670979)
(3.4761987e-05 2.5373376e-05 1.1669724)
(-6.1130404e-06 -6.1130405e-06 1.1670049)
)
;

boundaryField
{
    wall_minX
    {
        type            extrapolatedCalculated;
        value           nonuniform List<vector> 
100
(
(9.6207764e-12 1.1177571e-05 -1.0730189)
(-1.7347235e-16 1.324183e-05 -1.0729605)
(0 -1.0831796e-05 -1.0729748)
(0 -1.1259083e-05 -1.0730012)
(0 -2.6345361e-06 -1.0730172)
(0 2.4917247e-05 -0.95071067)
(0 2.6450695e-05 -0.95067793)
(0 -2.8552002e-05 -0.95069169)
(0 -2.9813074e-05 -0.95070737)
(0 -8.1241649e-06 -0.95072367)
(0 3.3001947e-05 -0.73435697)
(0 3.2218816e-05 -0.73433356)
(0 -4.0267489e-05 -0.73434298)
(0 -4.3236196e-05 -0.73434818)
(0 -1.3501875e-05 -0.73436166)
(0 4.0522192e-05 -0.43302869)
(0 4.0438478e-05 -0.43300571)
(0 -4.3170564e-05 -0.43300896)
(0 -4.8494116e-05 -0.43300344)
(0 -1.7112242e-05 -0.43301175)
(0 4.8319019e-05 -0.075699725)
(0 5.1940671e-05 -0.075676411)
(0 -3.7998706e-05 -0.075675037)
(0 -4.6021609e-05 -0.075659845)
(0 -1.9040507e-05 -0.075663561)
(0 5.6065333e-05 0.29770495)
(0 6.512684e-05 0.29772741)
(0 -2.6604877e-05 0.29773123)
(0 -3.7018706e-05 0.2977547)
(0 -1.9589991e-05 0.29775473)
(0 6.3294138e-05 0.63671197)
(0 7.8220122e-05 0.63673211)
(0 -1.07044e-05 0.63673625)
(0 -2.2515644e-05 0.63676662)
(0 -1.9021552e-05 0.63676958)
(0 6.9487389e-05 0.88293056)
(0 8.9400425e-05 0.88294672)
(0 7.903042e-06 0.88294916)
(0 -3.6823876e-06 0.88298458)
(0 -1.7610726e-05 0.88298958)
(0 7.4068037e-05 0.97654906)
(0 9.6818579e-05 0.97655947)
(0 2.7155617e-05 0.97655845)
(0 1.7901855e-05 0.97659635)
(0 -1.5691493e-05 0.97660227)
(0 7.6429394e-05 0.86834274)
(0 9.8786049e-05 0.86834566)
(0 4.4776133e-05 0.86834005)
(0 4.0140805e-05 0.86837702)
(0 -1.3662247e-05 0.86838262)
(0 7.601683e-05 0.53786656)
(0 9.4127661e-05 0.53786058)
(0 5.8509326e-05 0.53785036)
(0 6.0471798e-05 0.53788226)
(0 -1.1956741e-05 0.53788627)
(0 7.2447605e-05 0.015785876)
(0 8.2586494e-05 0.01577031)
(0 6.6448834e-05 0.015756874)
(0 7.6049568e-05 0.015779137)
(0 -1.0989454e-05 0.01578044)
(0 6.5639314e-05 -0.59663424)
(0 6.5126177e-05 -0.59665904)
(0 6.7336532e-05 -0.59667282)
(0 8.403795e-05 -0.5966647)
(0 -1.1087584e-05 -0.59666683)
(0 5.5912963e-05 -1.1240503)
(0 4.4004645e-05 -1.1240827)
(0 6.0794645e-05 -1.1240929)
(0 8.2041279e-05 -1.1241024)
(0 -1.241211e-05 -1.1241081)
(0 4.4031803e-05 -1.3463518)
(0 2.2564359e-05 -1.3463891)
(0 4.7600043e-05 -1.3463912)
(0 6.8809741e-05 -1.3464197)
(0 -1.4849098e-05 -1.3464278)
(0 3.1090753e-05 -1.0714719)
(0 4.6301974e-06 -1.0715108)
(0 3.0147706e-05 -1.0715014)
(0 4.5393072e-05 -1.0715456)
(0 -1.7840377e-05 -1.0715535)
(0 1.8072751e-05 -0.23988247)
(0 -7.0122044e-06 -0.23992139)
(0 1.2823034e-05 -0.23990106)
(0 1.6722852e-05 -0.23995098)
(0 -2.0147676e-05 -0.23995368)
(0 5.143601e-06 0.98677911)
(0 -1.3959039e-05 0.98674192)
(0 5.5626526e-07 0.98676268)
(0 -7.2319564e-06 0.98672147)
(0 -1.9641775e-05 0.98673115)
(0 -6.7221416e-06 2.2254816)
(0 -2.344668e-05 2.2254658)
(0 -7.633391e-06 2.2254787)
(0 -1.4804491e-05 2.2254569)
(0 -1.3689712e-05 2.2254839)
(0 -5.4155477e-06 1.16687)
(0 -1.6922337e-05 1.166893)
(0 -8.3166087e-06 1.1669195)
(0 -2.0275556e-06 1.1669147)
(0 -1.6733079e-06 1.1669334)
)
;
    }
    wall_maxX
    {
        type            extrapolatedCalculated;
        value           nonuniform List<vector> 
100
(
(2.1857516e-14 4.7819398e-06 -1.0730172)
(0 5.7712832e-06 -1.0729913)
(0 -1.7102301e-06 -1.0729941)
(0 -7.059561e-07 -1.0729941)
(0 -2.6490167e-07 -1.0729991)
(0 1.1599909e-05 -0.95072367)
(0 1.7337729e-05 -0.95070379)
(0 8.9547127e-07 -0.95069748)
(0 -5.3480211e-06 -0.95069321)
(0 -4.2037512e-06 -0.95071045)
(0 1.8031809e-05 -0.73436166)
(0 3.1953704e-05 -0.73434106)
(0 8.8745857e-06 -0.73432858)
(0 -1.3666995e-05 -0.73432143)
(0 -1.175706e-05 -0.73434543)
(0 2.533477e-05 -0.43301175)
(0 5.0421672e-05 -0.43298904)
(0 2.0527599e-05 -0.43297289)
(0 -2.2202511e-05 -0.4329639)
(0 -2.0207062e-05 -0.43298926)
(0 3.3168668e-05 -0.075663561)
(0 7.0813772e-05 -0.075640143)
(0 3.401595e-05 -0.075623254)
(0 -3.0033503e-05 -0.075613363)
(0 -2.8659122e-05 -0.075638162)
(0 4.0947214e-05 0.29775473)
(0 9.0728782e-05 0.29777704)
(0 4.7307329e-05 0.29779164)
(0 -3.7110571e-05 0.29780135)
(0 -3.6739959e-05 0.29777797)
(0 4.8042012e-05 0.63676958)
(0 0.00010772303 0.63678882)
(0 5.8320544e-05 0.63679812)
(0 -4.3707304e-05 0.63680651)
(0 -4.4245225e-05 0.63678516)
(0 5.3772111e-05 0.88298958)
(0 0.00011926094 0.88300365)
(0 6.499239e-05 0.88300469)
(0 -5.0063646e-05 0.8830108)
(0 -5.0968844e-05 0.88299223)
(0 5.7420618e-05 0.97660227)
(0 0.00012283082 0.97660908)
(0 6.5471975e-05 0.97659931)
(0 -5.6169541e-05 0.97660256)
(0 -5.6627749e-05 0.97658774)
(0 5.8312701e-05 0.86838262)
(0 0.00011629673 0.8683804)
(0 5.8467305e-05 0.8683582)
(0 -6.1633201e-05 0.86835858)
(0 -6.0848549e-05 0.86834871)
(0 5.5940795e-05 0.53788627)
(0 9.8408367e-05 0.53787395)
(0 4.3652993e-05 0.53783928)
(0 -6.5657415e-05 0.53783745)
(0 -6.3208823e-05 0.53783373)
(0 5.0098304e-05 0.01578044)
(0 6.9307231e-05 0.015757998)
(0 2.1974546e-05 0.015712891)
(0 -6.7177234e-05 0.015710058)
(0 -6.3328003e-05 0.015713403)
(0 4.0979484e-05 -0.59666683)
(0 3.0858788e-05 -0.59669813)
(0 -4.2878739e-06 -0.59674938)
(0 -6.514555e-05 -0.59675176)
(0 -6.0978742e-05 -0.59674101)
(0 2.9233719e-05 -1.1241081)
(0 -1.3239728e-05 -1.1241455)
(0 -3.1661458e-05 -1.1241964)
(0 -5.8810538e-05 -1.1241968)
(0 -5.6159591e-05 -1.124179)
(0 1.600975e-05 -1.3464278)
(0 -5.7439942e-05 -1.3464672)
(0 -5.5577695e-05 -1.3465089)
(0 -4.7736547e-05 -1.3465057)
(0 -4.9075613e-05 -1.3464815)
(0 3.0173569e-06 -1.0715535)
(0 -9.4270357e-05 -1.0715889)
(0 -7.0188745e-05 -1.0716108)
(0 -3.1473473e-05 -1.0716016)
(0 -4.005408e-05 -1.0715724)
(0 -7.5828671e-06 -0.23995368)
(0 -0.0001147044 -0.23997993)
(0 -6.8264832e-05 -0.23997159)
(0 -9.3285689e-06 -0.23995373)
(0 -2.9595891e-05 -0.23992244)
(0 -1.4485308e-05 0.98673115)
(0 -0.0001121809 0.98671035)
(0 -4.3978918e-05 0.98674674)
(0 1.7677264e-05 0.98676826)
(0 -1.9197837e-05 0.98679138)
(0 -2.1453018e-05 2.2254839)
(0 -9.9118888e-05 2.2254883)
(0 -1.0350127e-05 2.2255468)
(0 3.5316763e-05 2.2255443)
(0 -1.4181647e-05 2.2255639)
(0 -1.1529611e-05 1.1669334)
(0 -4.9214163e-05 1.1669895)
(0 1.20118e-05 1.1670979)
(0 3.4761987e-05 1.1669724)
(0 -6.1130405e-06 1.1670049)
)
;
    }
    wall_minY
    {
        type            extrapolatedCalculated;
        value           nonuniform List<vector> 
100
(
(1.1177571e-05 9.6207764e-12 -1.0730189)
(2.4917247e-05 0 -0.95071067)
(3.3001947e-05 0 -0.73435697)
(4.0522192e-05 0 -0.43302869)
(4.8319019e-05 0 -0.075699725)
(5.6065333e-05 0 0.29770495)
(6.3294138e-05 0 0.63671197)
(6.9487389e-05 0 0.88293056)
(7.4068037e-05 0 0.97654906)
(7.6429394e-05 0 0.86834274)
(7.601683e-05 0 0.53786656)
(7.2447605e-05 0 0.015785876)
(6.5639314e-05 0 -0.59663424)
(5.5912963e-05 0 -1.1240503)
(4.4031803e-05 0 -1.3463518)
(3.1090753e-05 0 -1.0714719)
(1.8072751e-05 0 -0.23988247)
(5.143601e-06 0 0.98677911)
(-6.7221416e-06 0 2.2254816)
(-5.4155477e-06 0 1.16687)
(1.324183e-05 4.2205822e-13 -1.0729605)
(2.6450695e-05 0 -0.95067793)
(3.2218816e-05 0 -0.73433356)
(4.0438478e-05 0 -0.43300571)
(5.1940671e-05 0 -0.075676411)
(6.512684e-05 0 0.29772741)
(7.8220122e-05 0 0.63673211)
(8.9400425e-05 0 0.88294672)
(9.6818579e-05 0 0.97655947)
(9.8786049e-05 0 0.86834566)
(9.4127661e-05 0 0.53786058)
(8.2586494e-05 0 0.01577031)
(6.5126177e-05 0 -0.59665904)
(4.4004645e-05 0 -1.1240827)
(2.2564359e-05 0 -1.3463891)
(4.6301974e-06 0 -1.0715108)
(-7.0122045e-06 0 -0.23992139)
(-1.3959039e-05 0 0.98674192)
(-2.344668e-05 0 2.2254658)
(-1.6922337e-05 0 1.166893)
(-1.0831796e-05 8.4793284e-13 -1.0729748)
(-2.8552002e-05 0 -0.95069169)
(-4.0267489e-05 0 -0.73434298)
(-4.3170564e-05 0 -0.43300896)
(-3.7998706e-05 0 -0.075675037)
(-2.6604877e-05 0 0.29773123)
(-1.07044e-05 0 0.63673625)
(7.903042e-06 0 0.88294916)
(2.7155617e-05 0 0.97655845)
(4.4776133e-05 0 0.86834005)
(5.8509326e-05 0 0.53785036)
(6.6448834e-05 0 0.015756874)
(6.7336532e-05 0 -0.59667282)
(6.0794645e-05 0 -1.1240929)
(4.7600043e-05 0 -1.3463912)
(3.0147706e-05 0 -1.0715014)
(1.2823034e-05 0 -0.23990106)
(5.5626532e-07 0 0.98676268)