/*--------------------------------*- C++ -*----------------------------------*\
| =========                 |                                                 |
| \\      /  F ield         | OpenFOAM: The Open Source CFD Toolbox           |
|  \\    /   O peration     | Version:  v2106                                 |
|   \\  /    A nd           | Website:  www.openfoam.com                      |
|    \\/     M anipulation  |                                                 |
\*---------------------------------------------------------------------------*/
FoamFile
{
    version     2.0;
    format      ascii;
    arch        "LSB;label=32;scalar=64";
    class       volScalarField;
    location    "50";
    object      Tmode1;
}
// * * * * * * * * * * * * * * * * * * * * * * * * * * * * * * * * * * * * * //

dimensions      [0 0 0 0 0 0 0];

internalField   nonuniform List<scalar> 
500
(
-0.00333808
-0.00333806
-0.00333808
-0.00333811
-0.00333812
-0.00333806
-0.00333806
-0.00333809
-0.00333811
-0.00333812
-0.00333808
-0.00333809
-0.00333812
-0.00333813
-0.00333814
-0.00333811
-0.00333811
-0.00333813
-0.00333814
-0.00333814
-0.00333812
-0.00333812
-0.00333814
-0.00333814
-0.00333813
-0.00992652
-0.00992649
-0.00992655
-0.00992662
-0.00992665
-0.00992649
-0.0099265
-0.00992658
-0.00992664
-0.00992666
-0.00992655
-0.00992658
-0.00992664
-0.00992668
-0.00992668
-0.00992662
-0.00992664
-0.00992668
-0.00992669
-0.00992668
-0.00992665
-0.00992666
-0.00992668
-0.00992668
-0.00992667
-0.0162503
-0.0162503
-0.0162504
-0.0162505
-0.0162505
-0.0162503
-0.0162503
-0.0162504
-0.0162505
-0.0162505
-0.0162504
-0.0162504
-0.0162505
-0.0162505
-0.0162506
-0.0162505
-0.0162505
-0.0162505
-0.0162506
-0.0162505
-0.0162505
-0.0162505
-0.0162506
-0.0162505
-0.0162505
-0.022128
-0.022128
-0.0221281
-0.0221282
-0.0221283
-0.022128
-0.022128
-0.0221282
-0.0221283
-0.0221283
-0.0221281
-0.0221282
-0.0221283
-0.0221283
-0.0221283
-0.0221282
-0.0221283
-0.0221283
-0.0221283
-0.0221283
-0.0221283
-0.0221283
-0.0221283
-0.0221283
-0.0221283
-0.0273709
-0.0273709
-0.027371
-0.0273711
-0.0273712
-0.0273709
-0.0273709
-0.027371
-0.0273711
-0.0273712
-0.027371
-0.027371
-0.0273711
-0.0273712
-0.0273712
-0.0273711
-0.0273711
-0.0273712
-0.0273711
-0.0273711
-0.0273712
-0.0273712
-0.0273712
-0.0273711
-0.0273711
-0.03178
-0.03178
-0.0317801
-0.0317802
-0.0317803
-0.03178
-0.03178
-0.0317802
-0.0317802
-0.0317803
-0.0317801
-0.0317802
-0.0317802
-0.0317803
-0.0317802
-0.0317802
-0.0317802
-0.0317803
-0.0317802
-0.0317802
-0.0317803
-0.0317803
-0.0317802
-0.0317802
-0.0317802
-0.0351441
-0.0351441
-0.0351442
-0.0351444
-0.0351444
-0.0351441
-0.0351441
-0.0351443
-0.0351444
-0.0351444
-0.0351442
-0.0351443
-0.0351443
-0.0351443
-0.0351443
-0.0351444
-0.0351444
-0.0351443
-0.0351443
-0.0351442
-0.0351444
-0.0351444
-0.0351443
-0.0351442
-0.0351442
-0.0372378
-0.0372378
-0.037238
-0.0372381
-0.0372381
-0.0372378
-0.0372379
-0.037238
-0.0372381
-0.0372381
-0.037238
-0.037238
-0.0372381
-0.037238
-0.037238
-0.0372381
-0.0372381
-0.037238
-0.0372379
-0.0372379
-0.0372381
-0.0372381
-0.037238
-0.0372379
-0.0372379
-0.0378207
-0.0378207
-0.0378208
-0.037821
-0.037821
-0.0378207
-0.0378207
-0.0378209
-0.0378209
-0.0378209
-0.0378208
-0.0378209
-0.0378209
-0.0378208
-0.0378208
-0.037821
-0.0378209
-0.0378208
-0.0378207
-0.0378207
-0.037821
-0.0378209
-0.0378208
-0.0378207
-0.0378207
-0.0366373
-0.0366373
-0.0366374
-0.0366376
-0.0366376
-0.0366373
-0.0366373
-0.0366374
-0.0366375
-0.0366375
-0.0366374
-0.0366374
-0.0366374
-0.0366374
-0.0366373
-0.0366376
-0.0366375
-0.0366374
-0.0366372
-0.0366372
-0.0366376
-0.0366375
-0.0366373
-0.0366372
-0.0366372
-0.0334194
-0.0334194
-0.0334195
-0.0334196
-0.0334196
-0.0334194
-0.0334194
-0.0334195
-0.0334196
-0.0334196
-0.0334195
-0.0334195
-0.0334195
-0.0334194
-0.0334193
-0.0334196
-0.0334196
-0.0334194
-0.0334192
-0.0334192
-0.0334196
-0.0334196
-0.0334193
-0.0334192
-0.0334192
-0.0278903
-0.0278903
-0.0278903
-0.0278904
-0.0278904
-0.0278903
-0.0278903
-0.0278903
-0.0278903
-0.0278903
-0.0278903
-0.0278903
-0.0278902
-0.0278901
-0.0278901
-0.0278904
-0.0278903
-0.0278901
-0.0278899
-0.0278899
-0.0278904
-0.0278903
-0.0278901
-0.0278899
-0.0278899
-0.019773
-0.019773
-0.019773
-0.0197731
-0.0197731
-0.019773
-0.019773
-0.019773
-0.019773
-0.019773
-0.019773
-0.019773
-0.0197729
-0.0197728
-0.0197727
-0.0197731
-0.019773
-0.0197728
-0.0197725
-0.0197725
-0.0197731
-0.019773
-0.0197727
-0.0197725
-0.0197725
-0.00880582
-0.00880581
-0.00880579
-0.00880584
-0.0088058
-0.00880581
-0.00880576
-0.00880572
-0.0088057
-0.00880566
-0.00880579
-0.00880572
-0.00880554
-0.0088054
-0.00880532
-0.00880584
-0.0088057
-0.0088054
-0.00880517
-0.00880513
-0.0088058
-0.00880566
-0.00880532
-0.00880513
-0.00880513
0.00523229
0.00523231
0.00523236
0.00523235
0.00523241
0.00523231
0.00523237
0.00523246
0.00523251
0.00523257
0.00523236
0.00523246
0.00523268
0.00523285
0.00523292
0.00523235
0.00523251
0.00523285
0.00523308
0.0052331
0.00523241
0.00523257
0.00523292
0.0052331
0.0052331
0.0224788
0.0224788
0.0224789
0.0224789
0.022479
0.0224788
0.0224789
0.022479
0.0224791
0.0224792
0.0224789
0.022479
0.0224793
0.0224794
0.0224795
0.0224789
0.0224791
0.0224794
0.0224797
0.0224797
0.022479
0.0224792
0.0224795
0.0224797
0.0224797
0.042926
0.042926
0.0429261
0.0429261
0.0429262
0.042926
0.042926
0.0429262
0.0429263
0.0429264
0.0429261
0.0429262
0.0429264
0.0429266
0.0429267
0.0429261
0.0429263
0.0429266
0.0429268
0.0429268
0.0429262
0.0429264
0.0429267
0.0429268
0.0429268
0.0663456
0.0663456
0.0663457
0.0663458
0.0663458
0.0663456
0.0663456
0.0663458
0.0663459
0.066346
0.0663457
0.0663458
0.066346
0.0663462
0.0663462
0.0663458
0.0663459
0.0663462
0.0663463
0.0663463
0.0663458
0.066346
0.0663462
0.0663463
0.0663463
0.0922231
0.0922231
0.0922232
0.0922233
0.0922233
0.0922231
0.0922231
0.0922233
0.0922234
0.0922234
0.0922232
0.0922233
0.0922234
0.0922236
0.0922236
0.0922233
0.0922234
0.0922236
0.0922237
0.0922236
0.0922233
0.0922234
0.0922236
0.0922236
0.0922236
0.119739
0.119739
0.119739
0.119739
0.119739
0.119739
0.119739
0.119739
0.119739
0.119739
0.119739
0.119739
0.119739
0.119739
0.119739
0.119739
0.119739
0.119739
0.119739
0.119739
0.119739
0.119739
0.119739
0.119739
0.119739
)
;

boundaryField
{
    wall_minX
    {
        type            zeroGradient;
    }
    wall_maxX
    {
        type            zeroGradient;
    }
    wall_minY
    {
        type            zeroGradient;
    }
    wall_maxY
    {
        type            zeroGradient;
    }
    inlet_minZ
    {
        type            fixedValue;
        value           uniform 0;
    }
    outlet_maxZ
    {
        type            fixedValue;
        value           uniform 0;
    }
}


// ************************************************************************* //
