/*--------------------------------*- C++ -*----------------------------------*\
| =========                 |                                                 |
| \\      /  F ield         | OpenFOAM: The Open Source CFD Toolbox           |
|  \\    /   O peration     | Version:  v2106                                 |
|   \\  /    A nd           | Website:  www.openfoam.com                      |
|    \\/     M anipulation  |                                                 |
\*---------------------------------------------------------------------------*/
FoamFile
{
    version     2.0;
    format      ascii;
    arch        "LSB;label=32;scalar=64";
    class       volScalarField;
    location    "50";
    object      Tmode_lapla3;
}
// * * * * * * * * * * * * * * * * * * * * * * * * * * * * * * * * * * * * * //

dimensions      [0 -2 0 0 0 0 0];

internalField   nonuniform List<scalar> 
500
(
0.74273892
0.74228493
0.74194954
0.74235177
0.74236639
0.74228493
0.74143542
0.74175264
0.74207123
0.74213589
0.74194954
0.74175264
0.74188548
0.74214126
0.74220627
0.74235177
0.74207123
0.74214126
0.74229181
0.74224606
0.74236639
0.74213589
0.74220627
0.74224606
0.74221078
2.226639
2.2256745
2.2253486
2.2260726
2.2261397
2.2256745
2.224457
2.2250628
2.2256244
2.2258609
2.2253486
2.2250628
2.2253041
2.2257071
2.2259088
2.2260726
2.2256244
2.2257071
2.2258661
2.2258693
2.2261397
2.2258609
2.2259088
2.2258693
2.2260259
3.7045277
3.7033048
3.7031016
3.7040401
3.7041664
3.7033048
3.701827
3.7026797
3.7034146
3.7038562
3.7031016
3.7026797
3.702976
3.7034315
3.7037945
3.7040401
3.7034146
3.7034315
3.7035328
3.7037026
3.7041664
3.7038562
3.7037945
3.7037026
3.7041857
5.1640714
5.1626357
5.1624462
5.1635757
5.1637769
5.1626357
5.1609269
5.1618924
5.1627482
5.1633898
5.1624462
5.1618924
5.1621273
5.162607
5.1631641
5.1635757
5.1627482
5.162607
5.162632
5.1630999
5.1637769
5.1633898
5.1631641
5.1630999
5.1639009
6.5776673
6.5760189
6.5758095
6.5770798
6.5773362
6.5760189
6.5740844
6.5751151
6.576055
6.5768719
6.5758095
6.5751151
6.5752463
6.575719
6.5764535
6.5770798
6.576055
6.575719
6.5756372
6.5764396
6.5773362
6.5768719
6.5764535
6.5764396
6.5775568
7.8936878
7.8918572
7.8916258
7.8930125
7.8933142
7.8918572
7.8897326
7.8908004
7.8918068
7.8927809
7.8916258
7.8908004
7.8908075
7.8912616
7.8921602
7.8930125
7.8918068
7.8912616
7.891066
7.8922058
7.8933142
7.8927809
7.8921602
7.8922058
7.8936235
9.023952
9.0219752
9.0217272
9.0232019
9.0235367
9.0219752
9.0197081
9.0207838
9.0218339
9.0229421
9.0217272
9.0207838
9.0206492
9.0210713
9.0221166
9.0232019
9.0218339
9.0210713
9.0207591
9.0222285
9.0235367
9.0229421
9.0221166
9.0222285
9.0239221
9.825869
9.8237833
9.8235291
9.8250553
9.8254081
9.8237833
9.8214293
9.8224827
9.8235441
9.8247591
9.8235291
9.8224827
9.8221916
9.8225631
9.8237326
9.8250553
9.8235441
9.8225631
9.8221323
9.8239172
9.8254081
9.8247591
9.8237326
9.8239172
9.8258551
10.079715
10.077559
10.077313
10.078848
10.079201
10.077559
10.075179
10.076183
10.077215
10.078505
10.077313
10.076183
10.075727
10.076026
10.077291
10.078848
10.077215
10.076026
10.075477
10.077554
10.079201
10.078505
10.077291
10.077554
10.079697
9.4658347
9.4636487
9.4634261
9.4649261
9.4652616
9.4636487
9.4613065
9.4622404
9.4632007
9.4645292
9.4634261
9.4622404
9.4616234
9.4618277
9.4631537
9.4649261
9.4632007
9.4618277
9.4611667
9.4634998
9.4652616
9.4645292
9.4631537
9.4634998
9.4658011
7.5571944
7.5550258
7.5548417
7.5562682
7.556567
7.5550258
7.5527846
7.5536391
7.5544889
7.5558172
7.5548417
7.5536391
7.5528806
7.5529759
7.5543207
7.5562682
7.5544889
7.5529759
7.5522168
7.5547511
7.556567
7.5558172
7.5543207
7.5547511
7.5571529
3.8599628
3.8578664
3.857733
3.8590575
3.8593034
3.8578664
3.8557886
3.8565618
3.8572776
3.8585662
3.857733
3.8565618
3.8556995
3.8556843
3.8570017
3.8590575
3.8572776
3.8556843
3.8548505
3.8575107
3.8593034
3.8585662
3.8570017
3.8575107
3.8599457
-2.0477373
-2.0496995
-2.0497723
-2.0485706
-2.0483872
-2.0496995
-2.0515508
-2.0508626
-2.050285
-2.0490709
-2.0497723
-2.0508626
-2.0517789
-2.0518916
-2.0506475
-2.0485706
-2.050285
-2.0518916
-2.0527726
-2.050079
-2.0483872
-2.0490709
-2.0506475
-2.050079
-2.0476842
-10.23208
-10.233844
-10.233846
-10.232792
-10.232671
-10.233844
-10.2354
-10.23482
-10.234371
-10.233257
-10.233846
-10.23482
-10.235743
-10.235934
-10.234802
-10.232792
-10.234371
-10.235934
-10.236844
-10.234214
-10.232671
-10.233257
-10.234802
-10.234214
-10.231928
-19.9893
-19.990805
-19.990723
-19.989865
-19.989797
-19.990805
-19.991991
-19.991572
-19.991247
-19.990247
-19.990723
-19.991572
-19.992477
-19.99274
-19.991744
-19.989865
-19.991247
-19.99274
-19.993682
-19.991197
-19.989797
-19.990247
-19.991744
-19.991197
-19.989072
-29.464399
-29.465596
-29.465411
-29.464831
-29.464795
-29.465596
-29.46633
-29.466149
-29.465974
-29.465091
-29.465411
-29.466149
-29.467044
-29.467401
-29.466554
-29.464831
-29.465974
-29.467401
-29.46841
-29.466114
-29.464795
-29.465091
-29.466554
-29.466114
-29.464168
-35.66094
-35.661787
-35.661485
-35.661268
-35.661246
-35.661787
-35.662006
-35.662103
-35.662136
-35.661381
-35.661485
-35.662103
-35.663005
-35.663508
-35.662819
-35.661268
-35.662136
-35.663508
-35.664625
-35.662516
-35.661246
-35.661381
-35.662819
-35.662516
-35.660742
-35.254786
-35.255249
-35.254859
-35.255005
-35.254977
-35.255249
-35.254992
-35.255241
-35.255505
-35.254911
-35.254859
-35.255241
-35.256076
-35.256723
-35.25622
-35.255005
-35.255505
-35.256723
-35.257901
-35.255948
-35.254977
-35.254911
-35.25622
-35.255948
-35.254313
-26.259266
-26.259345
-26.259097
-26.259444
-26.259362
-26.259345
-26.259076
-26.259354
-26.259718
-26.259338
-26.259097
-26.259354
-26.260054
-26.260664
-26.260518
-26.259444
-26.259718
-26.260664
-26.261631
-26.260033
-26.259362
-26.259338
-26.260518
-26.260033
-26.258782
781.0561
781.05628
781.05621
781.05585
781.05611
781.05628
781.05642
781.05609
781.05579
781.0562
781.05621
781.05609
781.05551
781.0551
781.05527
781.05585
781.05579
781.0551
781.05445
781.05595
781.05611
781.0562
781.05527
781.05595
781.05684
)
;

boundaryField
{
    wall_minX
    {
        type            extrapolatedCalculated;
        value           nonuniform List<scalar> 
100
(
0.74273892
0.74228493
0.74194954
0.74235177
0.74236639
2.226639
2.2256745
2.2253486
2.2260726
2.2261397
3.7045277
3.7033048
3.7031016
3.7040401
3.7041664
5.1640714
5.1626357
5.1624462
5.1635757
5.1637769
6.5776673
6.5760189
6.5758095
6.5770798
6.5773362
7.8936878
7.8918572
7.8916258
7.8930125
7.8933142
9.023952
9.0219752
9.0217272
9.0232019
9.0235367
9.825869
9.8237833
9.8235291
9.8250553
9.8254081
10.079715
10.077559
10.077313
10.078848
10.079201
9.4658347
9.4636487
9.4634261
9.4649261
9.4652616
7.5571944
7.5550258
7.5548417
7.5562682
7.556567
3.8599628
3.8578664
3.857733
3.8590575
3.8593034
-2.0477373
-2.0496995
-2.0497723
-2.0485706
-2.0483872
-10.23208
-10.233844
-10.233846
-10.232792
-10.232671
-19.9893
-19.990805
-19.990723
-19.989865
-19.989797
-29.464399
-29.465596
-29.465411
-29.464831
-29.464795
-35.66094
-35.661787
-35.661485
-35.661268
-35.661246
-35.254786
-35.255249
-35.254859
-35.255005
-35.254977
-26.259266
-26.259345
-26.259097
-26.259444
-26.259362
781.0561
781.05628
781.05621
781.05585
781.05611
)
;
    }
    wall_maxX
    {
        type            extrapolatedCalculated;
        value           nonuniform List<scalar> 
100
(
0.74236639
0.74213589
0.74220627
0.74224606
0.74221078
2.2261397
2.2258609
2.2259088
2.2258693
2.2260259
3.7041664
3.7038562
3.7037945
3.7037026
3.7041857
5.1637769
5.1633898
5.1631641
5.1630999
5.1639009
6.5773362
6.5768719
6.5764535
6.5764396
6.5775568
7.8933142
7.8927809
7.8921602
7.8922058
7.8936235
9.0235367
9.0229421
9.0221166
9.0222285
9.0239221
9.8254081
9.8247591
9.8237326
9.8239172
9.8258551
10.079201
10.078505
10.077291
10.077554
10.079697
9.4652616
9.4645292
9.4631537
9.4634998
9.4658011
7.556567
7.5558172
7.5543207
7.5547511
7.5571529
3.8593034
3.8585662
3.8570017
3.8575107
3.8599457
-2.0483872
-2.0490709
-2.0506475
-2.050079
-2.0476842
-10.232671
-10.233257
-10.234802
-10.234214
-10.231928
-19.989797
-19.990247
-19.991744
-19.991197
-19.989072
-29.464795
-29.465091
-29.466554
-29.466114
-29.464168
-35.661246
-35.661381
-35.662819
-35.662516
-35.660742
-35.254977
-35.254911
-35.25622
-35.255948
-35.254313
-26.259362
-26.259338
-26.260518
-26.260033
-26.258782
781.05611
781.0562
781.05527
781.05595
781.05684
)
;
    }
    wall_minY
    {
        type            extrapolatedCalculated;
        value           nonuniform List<scalar> 
100
(
0.74273892
2.226639
3.7045277
5.1640714
6.5776673
7.8936878
9.023952
9.825869
10.079715
9.4658347
7.5571944
3.8599628
-2.0477373
-10.23208
-19.9893
-29.464399
-35.66094
-35.254786
-26.259266
781.0561
0.74228493
2.2256745
3.7033048
5.1626357
6.5760189
7.8918572
9.0219752
9.8237833
10.077559
9.4636487
7.5550258
3.8578664
-2.0496995
-10.233844
-19.990805
-29.465596
-35.661787
-35.255249
-26.259345
781.05628
0.74194954
2.2253486
3.7031016
5.1624462
6.5758095
7.8916258
9.0217272
9.8235291
10.077313
9.4634261
7.5548417
3.857733
-2.0497723
-10.233846
-19.990723
-29.465411
-35.661485
-35.254859
-26.259097
781.05621
0.74235177
2.2260726
3.7040401
5.1635757
6.5770798
7.8930125
9.0232019
9.8250553
10.078848
9.4649261
7.5562682
3.8590575
-2.0485706
-10.232792
-19.989865
-29.464831
-35.661268
-35.255005
-26.259444
781.05585
0.74236639
2.2261397
3.7041664
5.1637769
6.5773362
7.8933142
9.0235367
9.8254081
10.079201
9.4652616
7.556567
3.8593034
-2.0483872
-10.232671
-19.989797
-29.464795
-35.661246
-35.254977
-26.259362
781.05611
)
;
    }
    wall_maxY
    {
        type            extrapolatedCalculated;
        value           nonuniform List<scalar> 
100
(
0.74236639
2.2261397
3.7041664
5.1637769
6.5773362
7.8933142
9.0235367
9.8254081
10.079201
9.4652616
7.556567
3.8593034
-2.0483872
-10.232671
-19.989797
-29.464795
-35.661246
-35.254977
-26.259362
781.05611
0.74213589
2.2258609
3.7038562
5.1633898
6.5768719
7.8927809
9.0229421
9.8247591
10.078505
9.4645292
7.5558172
3.8585662
-2.0490709
-10.233257
-19.990247
-29.465091
-35.661381
-35.254911
-26.259338
781.0562
0.74220627
2.2259088
3.7037945
5.1631641
6.5764535
7.8921602
9.0221166
9.8237326
10.077291
9.4631537
7.5543207
3.8570017
-2.0506475
-10.234802
-19.991744
-29.466554
-35.662819
-35.25622
-26.260518
781.05527
0.74224606
2.2258693
3.7037026
5.1630999
6.5764396
7.8922058
9.0222285
9.8239172
10.077554
9.4634998
7.5547511
3.8575107
-2.050079
-10.234214
-19.991197
-29.466114
-35.662516
-35.255948
-26.260033
781.05595
0.74221078
2.2260259
3.7041857
5.1639009
6.5775568
7.8936235
9.0239221
9.8258551
10.079697
9.4658011
7.5571529
3.8599457
-2.0476842
-10.231928
-19.989072
-29.464168
-35.660742
-35.254313
-26.258782
781.05684
)
;
    }
    inlet_minZ
    {
        type            extrapolatedCalculated;
        value           nonuniform List<scalar> 
25
(
0.74273892
0.74228493
0.74194954
0.74235177
0.74236639
0.74228493
0.74143542
0.74175264
0.74207123
0.74213589
0.74194954
0.74175264
0.74188548
0.74214126
0.74220627
0.74235177
0.74207123
0.74214126
0.74229181
0.74224606
0.74236639
0.74213589
0.74220627
0.74224606
0.74221078
)
;
    }
    outlet_maxZ
    {
        type            extrapolatedCalculated;
        value           nonuniform List<scalar> 
25
(
781.0561
781.05628
781.05621
781.05585
781.05611
781.05628
781.05642
781.05609
781.05579
781.0562
781.05621
781.05609
781.05551
781.0551
781.05527
781.05585
781.05579
781.0551
781.05445
781.05595
781.05611
781.0562
781.05527
781.05595
781.05684
)
;
    }
}


// ************************************************************************* //
