/*--------------------------------*- C++ -*----------------------------------*\
| =========                 |                                                 |
| \\      /  F ield         | OpenFOAM: The Open Source CFD Toolbox           |
|  \\    /   O peration     | Version:  v2106                                 |
|   \\  /    A nd           | Website:  www.openfoam.com                      |
|    \\/     M anipulation  |                                                 |
\*---------------------------------------------------------------------------*/
FoamFile
{
    version     2.0;
    format      ascii;
    arch        "LSB;label=32;scalar=64";
    class       volScalarField;
    location    "50";
    object      Tmode3;
}
// * * * * * * * * * * * * * * * * * * * * * * * * * * * * * * * * * * * * * //

dimensions      [0 0 0 0 0 0 0];

internalField   nonuniform List<scalar> 
500
(
-0.0106906
-0.0106898
-0.0106907
-0.0106912
-0.0106914
-0.0106898
-0.0106898
-0.0106907
-0.0106911
-0.0106913
-0.0106907
-0.0106907
-0.0106915
-0.0106917
-0.0106916
-0.0106912
-0.0106911
-0.0106917
-0.0106917
-0.0106915
-0.0106914
-0.0106913
-0.0106916
-0.0106915
-0.0106913
-0.0306811
-0.0306797
-0.0306819
-0.0306831
-0.0306837
-0.0306797
-0.0306799
-0.0306821
-0.0306829
-0.0306833
-0.0306819
-0.0306821
-0.0306838
-0.0306841
-0.0306839
-0.0306831
-0.0306829
-0.0306841
-0.0306839
-0.0306834
-0.0306837
-0.0306833
-0.0306839
-0.0306834
-0.030683
-0.0466168
-0.0466152
-0.0466184
-0.0466199
-0.0466208
-0.0466152
-0.0466158
-0.0466187
-0.0466195
-0.04662
-0.0466184
-0.0466187
-0.0466209
-0.0466208
-0.0466204
-0.0466199
-0.0466195
-0.0466208
-0.04662
-0.0466193
-0.0466208
-0.04662
-0.0466204
-0.0466193
-0.0466191
-0.056192
-0.0561902
-0.0561939
-0.0561953
-0.0561962
-0.0561902
-0.056191
-0.0561941
-0.0561945
-0.0561949
-0.0561939
-0.0561941
-0.0561963
-0.0561955
-0.0561948
-0.0561953
-0.0561945
-0.0561955
-0.0561938
-0.0561929
-0.0561962
-0.0561949
-0.0561948
-0.0561929
-0.0561929
-0.0577128
-0.0577107
-0.0577148
-0.0577156
-0.0577163
-0.0577107
-0.0577115
-0.0577147
-0.0577142
-0.0577145
-0.0577148
-0.0577147
-0.0577166
-0.0577147
-0.0577137
-0.0577156
-0.0577142
-0.0577147
-0.057712
-0.0577109
-0.0577163
-0.0577145
-0.0577137
-0.0577109
-0.0577112
-0.0503692
-0.0503668
-0.0503709
-0.050371
-0.0503714
-0.0503668
-0.0503676
-0.0503705
-0.050369
-0.0503689
-0.0503709
-0.0503705
-0.050372
-0.0503689
-0.0503675
-0.050371
-0.050369
-0.0503689
-0.0503651
-0.0503638
-0.0503714
-0.0503689
-0.0503675
-0.0503638
-0.0503644
-0.0345081
-0.0345053
-0.0345094
-0.0345084
-0.0345085
-0.0345053
-0.034506
-0.0345085
-0.0345058
-0.0345054
-0.0345094
-0.0345085
-0.0345095
-0.0345053
-0.0345035
-0.0345084
-0.0345058
-0.0345053
-0.0345004
-0.0344989
-0.0345085
-0.0345054
-0.0345035
-0.0344989
-0.0344997
-0.0118691
-0.011866
-0.01187
-0.0118679
-0.0118676
-0.011866
-0.0118667
-0.0118687
-0.0118647
-0.011864
-0.01187
-0.0118687
-0.0118692
-0.0118638
-0.0118616
-0.0118679
-0.0118647
-0.0118638
-0.011858
-0.0118563
-0.0118676
-0.011864
-0.0118616
-0.0118563
-0.0118574
0.0142914
0.0142948
0.0142909
0.0142942
0.0142949
0.0142948
0.014294
0.0142925
0.0142978
0.0142989
0.0142909
0.0142925
0.0142924
0.0142989
0.0143015
0.0142942
0.0142978
0.0142989
0.0143055
0.0143073
0.0142949
0.0142989
0.0143015
0.0143073
0.0143059
0.0393084
0.0393119
0.0393082
0.0393127
0.0393137
0.0393119
0.039311
0.03931
0.0393164
0.0393179
0.0393082
0.03931
0.03931
0.0393174
0.0393203
0.0393127
0.0393164
0.0393174
0.0393245
0.0393266
0.0393137
0.0393179
0.0393203
0.0393266
0.0393249
0.0576016
0.0576052
0.0576015
0.0576071
0.0576084
0.0576052
0.0576041
0.0576033
0.0576108
0.0576126
0.0576015
0.0576033
0.0576032
0.0576113
0.0576145
0.0576071
0.0576108
0.0576113
0.0576187
0.0576209
0.0576084
0.0576126
0.0576145
0.0576209
0.0576192
0.0637044
0.0637078
0.0637041
0.0637106
0.0637121
0.0637078
0.0637064
0.0637057
0.063714
0.0637159
0.0637041
0.0637057
0.0637051
0.0637137
0.063717
0.0637106
0.063714
0.0637137
0.063721
0.0637235
0.0637121
0.0637159
0.063717
0.0637235
0.0637217
0.0538727
0.0538757
0.0538721
0.0538791
0.0538806
0.0538757
0.053874
0.0538731
0.0538818
0.0538838
0.0538721
0.0538731
0.0538718
0.0538804
0.0538838
0.0538791
0.0538818
0.0538804
0.0538875
0.0538902
0.0538806
0.0538838
0.0538838
0.0538902
0.0538885
0.0280665
0.028069
0.0280654
0.0280725
0.0280739
0.028069
0.028067
0.0280658
0.0280744
0.0280764
0.0280654
0.0280658
0.0280636
0.0280717
0.0280751
0.0280725
0.0280744
0.0280717
0.0280782
0.0280813
0.0280739
0.0280764
0.0280751
0.0280813
0.0280797
-0.00832001
-0.00831816
-0.00832146
-0.00831485
-0.00831379
-0.00831816
-0.00832025
-0.00832191
-0.00831393
-0.00831214
-0.00832146
-0.00832191
-0.00832513
-0.00831784
-0.00831452
-0.00831485
-0.00831393
-0.00831784
-0.0083121
-0.00830863
-0.00831379
-0.00831214
-0.00831452
-0.00830863
-0.00830995
-0.0440363
-0.0440352
-0.044038
-0.0440324
-0.0440317
-0.0440352
-0.0440371
-0.0440392
-0.0440324
-0.044031
-0.044038
-0.0440392
-0.0440433
-0.0440372
-0.0440342
-0.0440324
-0.0440324
-0.0440372
-0.0440324
-0.0440286
-0.0440317
-0.044031
-0.0440342
-0.0440286
-0.0440296
-0.0640158
-0.0640154
-0.0640174
-0.0640132
-0.0640129
-0.0640154
-0.0640169
-0.0640192
-0.064014
-0.0640129
-0.0640174
-0.0640192
-0.0640236
-0.0640191
-0.0640165
-0.0640132
-0.064014
-0.0640191
-0.0640152
-0.0640112
-0.0640129
-0.0640129
-0.0640165
-0.0640112
-0.0640118
-0.0543108
-0.0543111
-0.0543121
-0.0543095
-0.0543095
-0.0543111
-0.0543121
-0.0543141
-0.0543106
-0.05431
-0.0543121
-0.0543141
-0.0543182
-0.0543151
-0.0543132
-0.0543095
-0.0543106
-0.0543151
-0.0543121
-0.054308
-0.0543095
-0.05431
-0.0543132
-0.054308
-0.0543083
-0.00862847
-0.00862945
-0.00862989
-0.00862845
-0.00862845
-0.00862945
-0.00863058
-0.0086321
-0.00863
-0.0086297
-0.00862989
-0.0086321
-0.00863512
-0.00863321
-0.00863206
-0.00862845
-0.00863
-0.00863321
-0.00863075
-0.00862732
-0.00862845
-0.0086297
-0.00863206
-0.00862732
-0.0086278
0.0668154
0.0668148
0.0668145
0.066815
0.0668154
0.0668148
0.066814
0.0668132
0.0668141
0.0668146
0.0668145
0.0668132
0.0668117
0.0668126
0.0668134
0.066815
0.0668141
0.0668126
0.0668139
0.0668164
0.0668154
0.0668146
0.0668134
0.0668164
0.066816
)
;

boundaryField
{
    wall_minX
    {
        type            zeroGradient;
    }
    wall_maxX
    {
        type            zeroGradient;
    }
    wall_minY
    {
        type            zeroGradient;
    }
    wall_maxY
    {
        type            zeroGradient;
    }
    inlet_minZ
    {
        type            fixedValue;
        value           uniform 0;
    }
    outlet_maxZ
    {
        type            fixedValue;
        value           uniform 0;
    }
}


// ************************************************************************* //
