/*--------------------------------*- C++ -*----------------------------------*\
| =========                 |                                                 |
| \\      /  F ield         | OpenFOAM: The Open Source CFD Toolbox           |
|  \\    /   O peration     | Version:  v2106                                 |
|   \\  /    A nd           | Website:  www.openfoam.com                      |
|    \\/     M anipulation  |                                                 |
\*---------------------------------------------------------------------------*/
FoamFile
{
    version     2.0;
    format      ascii;
    arch        "LSB;label=32;scalar=64";
    class       volScalarField;
    location    "50";
    object      Tmode_lapla4;
}
// * * * * * * * * * * * * * * * * * * * * * * * * * * * * * * * * * * * * * //

dimensions      [0 -2 0 0 0 0 0];

internalField   nonuniform List<scalar> 
500
(
2.8775807
2.8718904
2.8732042
2.8744111
2.8744088
2.8718904
2.8687753
2.8712634
2.872152
2.872451
2.8732042
2.8712634
2.8732147
2.8738189
2.8736416
2.8744111
2.872152
2.8738189
2.8740728
2.8735444
2.8744088
2.872451
2.8736416
2.8735444
2.8730552
8.4059975
8.3949147
8.3987619
8.400713
8.4012499
8.3949147
8.3900583
8.3948335
8.395946
8.3978602
8.3987619
8.3948335
8.3985879
8.3989333
8.39957
8.400713
8.395946
8.3989333
8.3985011
8.3985645
8.4012499
8.3978602
8.39957
8.3985645
8.3994897
13.246748
13.232786
13.239
13.240884
13.242639
13.232786
13.22746
13.233702
13.234139
13.238113
13.239
13.233702
13.238522
13.237716
13.239769
13.240884
13.234139
13.237716
13.235871
13.23748
13.242639
13.238113
13.239769
13.23748
13.2418
16.908138
16.891248
16.899526
16.900754
16.903449
16.891248
16.885568
16.892517
16.891702
16.897579
16.899526
16.892517
16.897885
16.895521
16.898989
16.900754
16.891702
16.895521
16.891995
16.895503
16.903449
16.897579
16.898989
16.895503
16.903407
18.851411
18.831621
18.841987
18.841975
18.845568
18.831621
18.825891
18.833081
18.830576
18.838295
18.841987
18.833081
18.838803
18.834587
18.839455
18.841975
18.830576
18.834587
18.829246
18.834855
18.845568
18.838295
18.839455
18.834855
18.846362
18.520372
18.497818
18.510458
18.508655
18.513174
18.497818
18.492511
18.499553
18.494959
18.50448
18.510458
18.499553
18.505587
18.499298
18.505545
18.508655
18.494959
18.499298
18.492134
18.499876
18.513174
18.50448
18.505545
18.499876
18.514871
15.416139
15.390983
15.406153
15.401961
15.407452
15.390983
15.386653
15.393199
15.386082
15.397344
15.406153
15.393199
15.399618
15.391037
15.398596
15.401961
15.386082
15.391037
15.382103
15.391879
15.407452
15.397344
15.398596
15.391879
15.410144
9.2455548
9.2179992
9.2359853
9.2287892
9.2353149
9.2179992
9.2152391
9.2210252
9.2109276
9.2238384
9.2359853
9.2210252
9.2280383
9.2169592
9.2256978
9.2287892
9.2109276
9.2169592
9.2063616
9.2179183
9.2353149
9.2238384
9.2256978
9.2179183
9.2391263
0.15936168
0.1296931
0.15075085
0.13999136
0.14762849
0.1296931
0.12906757
0.13396905
0.12047018
0.13488956
0.15075085
0.13396905
0.14194981
0.12821298
0.13790993
0.13999136
0.12047018
0.12821298
0.11613017
0.12900671
0.14762849
0.13488956
0.13790993
0.12900671
0.15270383
-10.934845
-10.966188
-10.941942
-10.956655
-10.94783
-10.966188
-10.964246
-10.960161
-10.977364
-10.961642
-10.941942
-10.960161
-10.950684
-10.967134
-10.956802
-10.956655
-10.977364
-10.967134
-10.980441
-10.966963
-10.94783
-10.961642
-10.956802
-10.966963
-10.941364
-22.06704
-22.099397
-22.072132
-22.090883
-22.080824
-22.099397
-22.094726
-22.091164
-22.112155
-22.095419
-22.072132
-22.091164
-22.079566
-22.098613
-22.08807
-22.090883
-22.112155
-22.098613
-22.11279
-22.099714
-22.080824
-22.095419
-22.08807
-22.099714
-22.072917
-30.096489
-30.128923
-30.099263
-30.121682
-30.110411
-30.128923
-30.121778
-30.118236
-30.142757
-30.125396
-30.099263
-30.118236
-30.103909
-30.125195
-30.114933
-30.121682
-30.142757
-30.125195
-30.139787
-30.128367
-30.110411
-30.125396
-30.114933
-30.128367
-30.101155
-31.104097
-31.135381
-31.104546
-31.129681
-31.117343
-31.135381
-31.126563
-31.122374
-31.149717
-31.132221
-31.104546
-31.122374
-31.104898
-31.127746
-31.118265
-31.129681
-31.149717
-31.127746
-31.142186
-31.13383
-31.117343
-31.132221
-31.118265
-31.13383
-31.106994
-21.601043
-21.629719
-21.599575
-21.625816
-21.612725
-21.629719
-21.620608
-21.615046
-21.643948
-21.626894
-21.599575
-21.615046
-21.594359
-21.617707
-21.609432
-21.625816
-21.643948
-21.617707
-21.631304
-21.627394
-21.612725
-21.626894
-21.609432
-21.627394
-21.60166
-0.5991272
-0.62364406
-0.5965952
-0.62170959
-0.60837582
-0.62364406
-0.61608932
-0.60852754
-0.63713057
-0.62114331
-0.5965952
-0.60852754
-0.58508502
-0.6074575
-0.60063903
-0.62170959
-0.63713057
-0.6074575
-0.6193831
-0.62104063
-0.60837582
-0.62114331
-0.60063903
-0.62104063
-0.59702607
28.109659
28.090725
28.112052
28.090678
28.103564
28.090725
28.094716
28.104533
28.078601
28.092922
28.112052
28.104533
28.129642
28.110062
28.115424
28.090678
28.078601
28.110062
28.100706
28.092886
28.103564
28.092922
28.115424
28.092886
28.11468
55.06403
55.051754
55.065051
55.049806
55.061434
55.051754
55.050631
55.062039
55.041292
55.053463
55.065051
55.062039
55.08689
55.071931
55.076131
55.049806
55.041292
55.071931
55.065862
55.052053
55.061434
55.053463
55.076131
55.052053
55.07121
67.609093
67.604136
67.608489
67.600279
67.609707
67.604136
67.598509
67.608837
67.594779
67.604502
67.608489
67.608837
67.629975
67.620408
67.624063
67.600279
67.594779
67.620408
67.617225
67.598619
67.609707
67.604502
67.624063
67.598619
67.61481
56.260685
56.262816
56.2622
56.25938
56.265173
56.262816
56.261213
56.268349
56.259931
56.267245
56.2622
56.268349
56.283168
56.277212
56.282858
56.25938
56.259931
56.277212
56.274103
56.255921
56.265173
56.267245
56.282858
56.255921
56.272457
-121.59452
-121.59287
-121.59179
-121.59206
-121.59251
-121.59287
-121.59053
-121.58484
-121.58937
-121.59057
-121.59179
-121.58484
-121.57528
-121.57861
-121.57922
-121.59206
-121.58937
-121.57861
-121.58112
-121.60282
-121.59251
-121.59057
-121.57922
-121.60282
-121.59125
)
;

boundaryField
{
    wall_minX
    {
        type            extrapolatedCalculated;
        value           nonuniform List<scalar> 
100
(
2.8775807
2.8718904
2.8732042
2.8744111
2.8744088
8.4059975
8.3949147
8.3987619
8.400713
8.4012499
13.246748
13.232786
13.239
13.240884
13.242639
16.908138
16.891248
16.899526
16.900754
16.903449
18.851411
18.831621
18.841987
18.841975
18.845568
18.520372
18.497818
18.510458
18.508655
18.513174
15.416139
15.390983
15.406153
15.401961
15.407452
9.2455548
9.2179992
9.2359853
9.2287892
9.2353149
0.15936168
0.1296931
0.15075085
0.13999136
0.14762849
-10.934845
-10.966188
-10.941942
-10.956655
-10.94783
-22.06704
-22.099397
-22.072132
-22.090883
-22.080824
-30.096489
-30.128923
-30.099263
-30.121682
-30.110411
-31.104097
-31.135381
-31.104546
-31.129681
-31.117343
-21.601043
-21.629719
-21.599575
-21.625816
-21.612725
-0.5991272
-0.62364406
-0.5965952
-0.62170959
-0.60837582
28.109659
28.090725
28.112052
28.090678
28.103564
55.06403
55.051754
55.065051
55.049806
55.061434
67.609093
67.604136
67.608489
67.600279
67.609707
56.260685
56.262816
56.2622
56.25938
56.265173
-121.59452
-121.59287
-121.59179
-121.59206
-121.59251
)
;
    }
    wall_maxX
    {
        type            extrapolatedCalculated;
        value           nonuniform List<scalar> 
100
(
2.8744088
2.872451
2.8736416
2.8735444
2.8730552
8.4012499
8.3978602
8.39957
8.3985645
8.3994897
13.242639
13.238113
13.239769
13.23748
13.2418
16.903449
16.897579
16.898989
16.895503
16.903407
18.845568
18.838295
18.839455
18.834855
18.846362
18.513174
18.50448
18.505545
18.499876
18.514871
15.407452
15.397344
15.398596
15.391879
15.410144
9.2353149
9.2238384
9.2256978
9.2179183
9.2391263
0.14762849
0.13488956
0.13790993
0.12900671
0.15270383
-10.94783
-10.961642
-10.956802
-10.966963
-10.941364
-22.080824
-22.095419
-22.08807
-22.099714
-22.072917
-30.110411
-30.125396
-30.114933
-30.128367
-30.101155
-31.117343
-31.132221
-31.118265
-31.13383
-31.106994
-21.612725
-21.626894
-21.609432
-21.627394
-21.60166
-0.60837582
-0.62114331
-0.60063903
-0.62104063
-0.59702607
28.103564
28.092922
28.115424
28.092886
28.11468
55.061434
55.053463
55.076131
55.052053
55.07121
67.609707
67.604502
67.624063
67.598619
67.61481
56.265173
56.267245
56.282858
56.255921
56.272457
-121.59251
-121.59057
-121.57922
-121.60282
-121.59125
)
;
    }
    wall_minY
    {
        type            extrapolatedCalculated;
        value           nonuniform List<scalar> 
100
(
2.8775807
8.4059975
13.246748
16.908138
18.851411
18.520372
15.416139
9.2455548
0.15936168
-10.934845
-22.06704
-30.096489
-31.104097
-21.601043
-0.5991272
28.109659
55.06403
67.609093
56.260685
-121.59452
2.8718904
8.3949147
13.232786
16.891248
18.831621
18.497818
15.390983
9.2179992
0.1296931
-10.966188
-22.099397
-30.128923
-31.135381
-21.629719
-0.62364406
28.090725
55.051754
67.604136
56.262816
-121.59287
2.8732042
8.3987619
13.239
16.899526
18.841987
18.510458
15.406153
9.2359853
0.15075085
-10.941942
-22.072132
-30.099263
-31.104546
-21.599575
-0.5965952
28.112052
55.065051
67.608489
56.2622
-121.59179
2.8744111
8.400713
13.240884
16.900754
18.841975
18.508655
15.401961
9.2287892
0.13999136
-10.956655
-22.090883
-30.121682
-31.129681
-21.625816
-0.62170959
28.090678
55.049806
67.600279
56.25938
-121.59206
2.8744088
8.4012499
13.242639
16.903449
18.845568
18.513174
15.407452
9.2353149
0.14762849
-10.94783
-22.080824
-30.110411
-31.117343
-21.612725
-0.60837582
28.103564
55.061434
67.609707
56.265173
-121.59251
)
;
    }
    wall_maxY
    {
        type            extrapolatedCalculated;
        value           nonuniform List<scalar> 
100
(
2.8744088
8.4012499
13.242639
16.903449
18.845568
18.513174
15.407452
9.2353149
0.14762849
-10.94783
-22.080824
-30.110411
-31.117343
-21.612725
-0.60837582
28.103564
55.061434
67.609707
56.265173
-121.59251
2.872451
8.3978602
13.238113
16.897579
18.838295
18.50448
15.397344
9.2238384
0.13488956
-10.961642
-22.095419
-30.125396
-31.132221
-21.626894
-0.62114331
28.092922
55.053463
67.604502
56.267245
-121.59057
2.8736416
8.39957
13.239769
16.898989
18.839455
18.505545
15.398596
9.2256978
0.13790993
-10.956802
-22.08807
-30.114933
-31.118265
-21.609432
-0.60063903
28.115424
55.076131
67.624063
56.282858
-121.57922
2.8735444
8.3985645
13.23748
16.895503
18.834855
18.499876
15.391879
9.2179183
0.12900671
-10.966963
-22.099714
-30.128367
-31.13383
-21.627394
-0.62104063
28.092886
55.052053
67.598619
56.255921
-121.60282
2.8730552
8.3994897
13.2418
16.903407
18.846362
18.514871
15.410144
9.2391263
0.15270383
-10.941364
-22.072917
-30.101155
-31.106994
-21.60166
-0.59702607
28.11468
55.07121
67.61481
56.272457
-121.59125
)
;
    }
    inlet_minZ
    {
        type            extrapolatedCalculated;
        value           nonuniform List<scalar> 
25
(
2.8775807
2.8718904
2.8732042
2.8744111
2.8744088
2.8718904
2.8687753
2.8712634
2.872152
2.872451
2.8732042
2.8712634
2.8732147
2.8738189
2.8736416
2.8744111
2.872152
2.8738189
2.8740728
2.8735444
2.8744088
2.872451
2.8736416
2.8735444
2.8730552
)
;
    }
    outlet_maxZ
    {
        type            extrapolatedCalculated;
        value           nonuniform List<scalar> 
25
(
-121.59452
-121.59287
-121.59179
-121.59206
-121.59251
-121.59287
-121.59053
-121.58484
-121.58937
-121.59057
-121.59179
-121.58484
-121.57528
-121.57861
-121.57922
-121.59206
-121.58937
-121.57861
-121.58112
-121.60282
-121.59251
-121.59057
-121.57922
-121.60282
-121.59125
)
;
    }
}


// ************************************************************************* //
