/*--------------------------------*- C++ -*----------------------------------*\
| =========                 |                                                 |
| \\      /  F ield         | OpenFOAM: The Open Source CFD Toolbox           |
|  \\    /   O peration     | Version:  v2106                                 |
|   \\  /    A nd           | Website:  www.openfoam.com                      |
|    \\/     M anipulation  |                                                 |
\*---------------------------------------------------------------------------*/
FoamFile
{
    version     2.0;
    format      ascii;
    arch        "LSB;label=32;scalar=64";
    class       volVectorField;
    location    "50";
    object      Tmode_grad3;
}
// * * * * * * * * * * * * * * * * * * * * * * * * * * * * * * * * * * * * * //

dimensions      [0 -1 0 0 0 0 0];

internalField   nonuniform List<vector> 
500
(
(1.2532102e-06 1.2532103e-06 -0.7116831)
(2.3625716e-06 1.3696533e-06 -0.71167654)
(-1.3168384e-06 5.718393e-07 -0.71167545)
(-2.734004e-06 5.7165365e-07 -0.71168207)
(-6.2294294e-07 5.1239961e-07 -0.7116857)
(1.3696534e-06 2.3625718e-06 -0.71167654)
(1.3405106e-06 1.3405106e-06 -0.71166985)
(-2.5138381e-06 2.3311871e-07 -0.71167257)
(-2.8231641e-06 5.9415079e-07 -0.71167913)
(-6.8219698e-07 6.7362864e-07 -0.71168313)
(5.7183956e-07 -1.3168385e-06 -0.71167545)
(2.3311858e-07 -2.5138381e-06 -0.71167257)
(-2.0631983e-06 -2.0631983e-06 -0.71167481)
(-2.2934941e-06 -1.1083614e-06 -0.71167995)
(-5.6995771e-07 -5.238422e-07 -0.71168328)
(5.7165365e-07 -2.7340041e-06 -0.71168207)
(5.9415079e-07 -2.8231641e-06 -0.71167913)
(-1.1083614e-06 -2.2934941e-06 -0.71167995)
(-1.283808e-06 -1.283808e-06 -0.71168287)
(-2.9251752e-07 -7.5781407e-07 -0.71168474)
(5.1239961e-07 -6.2294294e-07 -0.7116857)
(6.7362865e-07 -6.8219698e-07 -0.71168313)
(-5.2384221e-07 -5.699577e-07 -0.71168328)
(-7.5781407e-07 -2.9251752e-07 -0.71168474)
(-2.1929508e-07 -2.1929509e-07 -0.71168637)
(2.801191e-06 2.801191e-06 -0.67952694)
(4.3781631e-06 2.5751209e-06 -0.67952337)
(-4.3473855e-06 1.1653407e-06 -0.67952446)
(-7.1610952e-06 1.2226382e-06 -0.67952934)
(-1.758222e-06 1.0293948e-06 -0.67953253)
(2.5751209e-06 4.3781631e-06 -0.67952337)
(1.9243877e-06 1.9243877e-06 -0.67952049)
(-6.3761095e-06 2.6197479e-07 -0.67952275)
(-7.3650141e-06 1.3981525e-06 -0.67952739)
(-1.9514655e-06 1.6016297e-06 -0.67953103)
(1.1653407e-06 -4.3473855e-06 -0.67952446)
(2.6197479e-07 -6.3761095e-06 -0.67952275)
(-4.8736207e-06 -4.8736207e-06 -0.67952399)
(-5.8214403e-06 -2.2759783e-06 -0.67952721)
(-1.6225706e-06 -8.488195e-07 -0.67953028)
(1.2226382e-06 -7.1610952e-06 -0.67952934)
(1.3981525e-06 -7.3650141e-06 -0.67952739)
(-2.2759783e-06 -5.8214403e-06 -0.67952721)
(-3.3402129e-06 -3.3402129e-06 -0.67952874)
(-1.0000263e-06 -2.3651794e-06 -0.6795311)
(1.0293948e-06 -1.758222e-06 -0.67953253)
(1.6016297e-06 -1.9514655e-06 -0.67953103)
(-8.488195e-07 -1.6225706e-06 -0.67953028)
(-2.3651794e-06 -1.0000263e-06 -0.6795311)
(-9.7254826e-07 -9.7254825e-07 -0.67953377)
(3.629404e-06 3.629404e-06 -0.62023456)
(4.8451265e-06 3.290331e-06 -0.62023231)
(-7.2798619e-06 1.7076571e-06 -0.62023348)
(-1.0810828e-05 1.8718813e-06 -0.62023729)
(-2.7532972e-06 1.5149135e-06 -0.62024006)
(3.290331e-06 4.8451265e-06 -0.62023231)
(1.9625062e-06 1.9625062e-06 -0.62023024)
(-9.4075364e-06 6.9642701e-07 -0.62023171)
(-1.1099944e-05 2.718112e-06 -0.62023511)
(-3.110265e-06 2.9316358e-06 -0.62023835)
(1.7076571e-06 -7.2798619e-06 -0.62023348)
(6.9642701e-07 -9.4075364e-06 -0.62023171)
(-6.5242561e-06 -6.5242561e-06 -0.6202318)
(-8.5756194e-06 -2.4657088e-06 -0.62023383)
(-2.610948e-06 -5.9717908e-07 -0.62023671)
(1.8718813e-06 -1.0810828e-05 -0.62023729)
(2.718112e-06 -1.1099944e-05 -0.62023511)
(-2.4657088e-06 -8.5756194e-06 -0.62023383)
(-5.1728666e-06 -5.1728666e-06 -0.62023459)
(-1.8645785e-06 -4.2486482e-06 -0.62023739)
(1.5149135e-06 -2.7532972e-06 -0.62024006)
(2.9316358e-06 -3.110265e-06 -0.62023835)
(-5.9717908e-07 -2.610948e-06 -0.62023671)
(-4.2486482e-06 -1.8645785e-06 -0.62023739)
(-1.9948024e-06 -1.9948024e-06 -0.62024055)
(4.301994e-06 4.301994e-06 -0.53157237)
(5.4597328e-06 3.9597585e-06 -0.53157029)
(-9.3259719e-06 2.3487606e-06 -0.53157067)
(-1.373557e-05 2.6761152e-06 -0.53157344)
(-3.6019044e-06 2.1655512e-06 -0.53157568)
(3.9597585e-06 5.4597328e-06 -0.53157029)
(2.5298828e-06 2.5298828e-06 -0.53156818)
(-1.1251437e-05 1.9421826e-06 -0.53156856)
(-1.4010384e-05 4.8541068e-06 -0.53157085)
(-4.1124684e-06 4.9439143e-06 -0.53157356)
(2.3487606e-06 -9.3259719e-06 -0.53157067)
(1.9421826e-06 -1.1251437e-05 -0.53156856)
(-7.0017479e-06 -7.0017479e-06 -0.5315675)
(-1.0733839e-05 -1.7606061e-06 -0.53156857)
(-3.5420328e-06 1.1017796e-07 -0.53157116)
(2.6761152e-06 -1.373557e-05 -0.53157344)
(4.8541068e-06 -1.4010384e-05 -0.53157085)
(-1.7606061e-06 -1.0733839e-05 -0.53156857)
(-6.8984587e-06 -6.8984587e-06 -0.53156871)
(-2.865279e-06 -6.2033706e-06 -0.53157169)
(2.1655512e-06 -3.6019044e-06 -0.53157568)
(4.9439143e-06 -4.1124684e-06 -0.53157356)
(1.1017796e-07 -3.5420328e-06 -0.53157116)
(-6.2033706e-06 -2.865279e-06 -0.53157169)
(-3.0786407e-06 -3.0786407e-06 -0.53157491)
(5.0116244e-06 5.0116244e-06 -0.41418292)
(6.5446706e-06 4.6985898e-06 -0.4141808)
(-1.0422657e-05 3.1107677e-06 -0.41418048)
(-1.5821273e-05 3.5940219e-06 -0.41418229)
(-4.2475875e-06 2.9262138e-06 -0.41418396)
(4.6985898e-06 6.5446706e-06 -0.4141808)
(3.6933855e-06 3.6933856e-06 -0.41417856)
(-1.2079509e-05 3.8619607e-06 -0.41417811)
(-1.6098104e-05 7.579643e-06 -0.41417947)
(-4.9153957e-06 7.4481574e-06 -0.4141816)
(3.1107677e-06 -1.0422657e-05 -0.41418048)
(3.8619607e-06 -1.2079509e-05 -0.41417811)
(-6.5364e-06 -6.5364e-06 -0.41417623)
(-1.2235076e-05 -3.2454399e-07 -0.41417651)
(-4.3352446e-06 1.2684336e-06 -0.41417867)
(3.5940219e-06 -1.5821273e-05 -0.41418229)
(7.579643e-06 -1.6098104e-05 -0.41417947)
(-3.2454399e-07 -1.2235076e-05 -0.41417651)
(-8.29327e-06 -8.29327e-06 -0.41417609)
(-3.8534106e-06 -7.994801e-06 -0.41417893)
(2.9262138e-06 -4.2475875e-06 -0.41418396)
(7.4481574e-06 -4.9153957e-06 -0.4141816)
(1.2684336e-06 -4.3352446e-06 -0.41417867)
(-7.994801e-06 -3.8534106e-06 -0.41417893)
(-4.1362653e-06 -4.1362653e-06 -0.41418197)
(5.7168168e-06 5.7168168e-06 -0.26950155)
(7.8978285e-06 5.4490956e-06 -0.26949952)
(-1.0822073e-05 3.9300543e-06 -0.26949875)
(-1.7211457e-05 4.560046e-06 -0.26949976)
(-4.7111867e-06 3.7370265e-06 -0.26950089)
(5.4490956e-06 7.8978285e-06 -0.26949952)
(5.2176847e-06 5.2176847e-06 -0.26949733)
(-1.2155648e-05 6.1948157e-06 -0.26949628)
(-1.7500998e-05 1.0639198e-05 -0.26949686)
(-5.5342062e-06 1.023202e-05 -0.26949844)
(3.9300543e-06 -1.0822073e-05 -0.26949875)
(6.1948157e-06 -1.2155648e-05 -0.26949628)
(-5.4005607e-06 -5.4005607e-06 -0.26949384)
(-1.3174252e-05 1.6164995e-06 -0.26949347)
(-4.9826381e-06 2.780014e-06 -0.26949519)
(4.560046e-06 -1.7211457e-05 -0.26949976)
(1.0639198e-05 -1.7500998e-05 -0.26949686)
(1.6164995e-06 -1.3174252e-05 -0.26949347)
(-9.3204238e-06 -9.3204238e-06 -0.26949261)
(-4.7585299e-06 -9.5085207e-06 -0.26949517)
(3.7370265e-06 -4.7111867e-06 -0.26950089)
(1.023202e-05 -5.5342062e-06 -0.26949844)
(2.780014e-06 -4.9826381e-06 -0.26949519)
(-9.5085207e-06 -4.7585299e-06 -0.26949517)
(-5.1080361e-06 -5.1080361e-06 -0.26949791)
(6.3709513e-06 6.3709513e-06 -0.10036142)
(9.3528253e-06 6.1555917e-06 -0.10035959)
(-1.0665933e-05 4.7582541e-06 -0.10035852)
(-1.7961177e-05 5.5288817e-06 -0.10035879)
(-4.9992304e-06 4.5585924e-06 -0.10035939)
(6.1555917e-06 9.3528253e-06 -0.10035959)
(6.9337795e-06 6.9337795e-06 -0.1003576)
(-1.1605998e-05 8.7728368e-06 -0.10035609)
(-1.8260669e-05 1.3863813e-05 -0.10035594)
(-5.9695198e-06 1.3146445e-05 -0.10035696)
(4.7582541e-06 -1.0665933e-05 -0.10035852)
(8.7728368e-06 -1.1605998e-05 -0.10035609)
(-3.7358995e-06 -3.7358995e-06 -0.10035325)
(-1.3587568e-05 3.9171174e-06 -0.10035232)
(-5.4774754e-06 4.5411475e-06 -0.10035356)
(5.5288817e-06 -1.7961177e-05 -0.10035879)
(1.3863813e-05 -1.8260669e-05 -0.10035594)
(3.9171174e-06 -1.3587568e-05 -0.10035232)
(-9.9836224e-06 -9.9836224e-06 -0.1003511)
(-5.5534997e-06 -1.0711739e-05 -0.1003533)
(4.5585924e-06 -4.9992304e-06 -0.10035939)
(1.3146445e-05 -5.9695198e-06 -0.10035696)
(4.5411475e-06 -5.4774754e-06 -0.10035356)
(-1.0711739e-05 -5.5534997e-06 -0.1003533)
(-5.9628866e-06 -5.9628866e-06 -0.10035566)
(6.9396889e-06 6.9396889e-06 0.088096858)
(1.0793944e-05 6.7744252e-06 0.088098389)
(-1.0026211e-05 5.5557114e-06 0.088099622)
(-1.8073277e-05 6.4623016e-06 0.088100084)
(-5.1084373e-06 5.3571603e-06 0.088100028)
(6.7744252e-06 1.0793944e-05 0.088098389)
(8.7179777e-06 8.7179777e-06 0.088100054)
(-1.0494396e-05 1.1463495e-05 0.088101899)
(-1.8371104e-05 1.7107855e-05 0.088102763)
(-6.2135787e-06 1.6055504e-05 0.088102327)
(5.5557114e-06 -1.0026211e-05 0.088099622)
(1.1463495e-05 -1.0494396e-05 0.088101899)
(-1.6363337e-06 -1.6363337e-06 0.088104959)
(-1.3481268e-05 6.4527411e-06 0.088106416)
(-5.8100043e-06 6.4374148e-06 0.088105676)
(6.4623016e-06 -1.8073277e-05 0.088100084)
(1.7107855e-05 -1.8371104e-05 0.088102763)
(6.4527411e-06 -1.3481268e-05 0.088106416)
(-1.0297355e-05 -1.0297355e-05 0.088107916)
(-6.2237962e-06 -1.1607608e-05 0.088106113)
(5.3571603e-06 -5.1084373e-06 0.088100028)
(1.6055504e-05 -6.2135787e-06 0.088102327)
(6.4374148e-06 -5.8100043e-06 0.088105676)
(-1.1607608e-05 -6.2237962e-06 0.088106113)
(-6.6835062e-06 -6.6835063e-06 0.088104172)
(7.3916034e-06 7.3916034e-06 0.28710971)
(1.2115976e-05 7.2650914e-06 0.28711084)
(-8.9711813e-06 6.2768387e-06 0.28711211)
(-1.7554775e-05 7.3145779e-06 0.28711326)
(-5.036682e-06 6.0914869e-06 0.28711373)
(7.2650914e-06 1.2115976e-05 0.28711084)
(1.0443828e-05 1.0443828e-05 0.28711205)
(-8.8969516e-06 1.411026e-05 0.28711407)
(-1.7832802e-05 2.019608e-05 0.2871156)
(-6.2597729e-06 1.8794589e-05 0.28711575)
(6.2768387e-06 -8.9711813e-06 0.28711211)
(1.411026e-05 -8.8969516e-06 0.28711407)
(7.8106996e-07 7.8106996e-07 0.28711715)
(-1.2870445e-05 9.0701522e-06 0.28711905)
(-5.971009e-06 8.3262869e-06 0.28711883)
(7.3145779e-06 -1.7554775e-05 0.28711326)
(2.019608e-05 -1.7832802e-05 0.2871156)
(9.0701522e-06 -1.2870445e-05 0.28711905)
(-1.0287585e-05 -1.0287585e-05 0.28712072)
(-6.7556831e-06 -1.2215441e-05 0.28711935)
(6.0914869e-06 -5.036682e-06 0.28711373)
(1.8794589e-05 -6.2597729e-06 0.28711575)
(8.3262869e-06 -5.971009e-06 0.28711883)
(-1.2215441e-05 -6.7556831e-06 0.28711935)
(-7.2562463e-06 -7.2562463e-06 0.28711788)
(7.6907668e-06 7.6907668e-06 0.48251996)
(1.3198487e-05 7.5850262e-06 0.48252057)
(-7.6063923e-06 6.863091e-06 0.48252175)
(-1.6455789e-05 8.0250192e-06 0.48252346)
(-4.7913733e-06 6.7063654e-06 0.48252442)
(7.5850262e-06 1.3198487e-05 0.48252057)
(1.1956974e-05 1.1956974e-05 0.48252121)
(-6.9464027e-06 1.6505039e-05 0.48252321)
(-1.6690878e-05 2.2901819e-05 0.48252527)
(-6.1100272e-06 2.1155325e-05 0.48252599)
(6.863091e-06 -7.6063923e-06 0.48252175)
(1.6505039e-05 -6.9464027e-06 0.48252321)
(3.338453e-06 3.338453e-06 0.48252604)
(-1.1805504e-05 1.1568556e-05 0.48252822)
(-5.955703e-06 1.0035386e-05 0.48252853)
(8.0250193e-06 -1.6455789e-05 0.48252346)
(2.2901819e-05 -1.6690878e-05 0.48252527)
(1.1568556e-05 -1.1805504e-05 0.48252822)
(-9.9939455e-06 -9.9939455e-06 0.48252992)
(-7.1321406e-06 -1.2558896e-05 0.48252905)
(6.7063654e-06 -4.7913733e-06 0.48252442)
(2.1155325e-05 -6.1100272e-06 0.48252599)
(1.0035386e-05 -5.955703e-06 0.48252853)
(-1.2558896e-05 -7.1321406e-06 0.48252905)
(-7.6656697e-06 -7.6656697e-06 0.4825281)
(7.7955002e-06 7.7955002e-06 0.65270379)
(1.3903684e-05 7.6906424e-06 0.65270376)
(-6.0830579e-06 7.2472503e-06 0.6527047)
(-1.4884311e-05 8.5209466e-06 0.6527068)
(-4.3938801e-06 7.1356104e-06 0.65270817)
(7.6906424e-06 1.3903684e-05 0.65270376)
(1.3081309e-05 1.3081309e-05 0.6527037)
(-4.8376016e-06 1.8401602e-05 0.65270546)
(-1.5051771e-05 2.4964547e-05 0.65270786)
(-5.7792163e-06 2.2905815e-05 0.65270908)
(7.2472503e-06 -6.0830579e-06 0.6527047)
(1.8401602e-05 -4.8376016e-06 0.65270546)
(5.8001804e-06 5.8001804e-06 0.65270777)
(-1.0380098e-05 1.3719254e-05 0.65271005)
(-5.7663679e-06 1.1391258e-05 0.65271086)
(8.5209466e-06 -1.4884311e-05 0.6527068)
(2.4964547e-05 -1.5051771e-05 0.65270786)
(1.3719254e-05 -1.0380098e-05 0.65271005)
(-9.4606934e-06 -9.4606934e-06 0.65271162)
(-7.3312138e-06 -1.2647839e-05 0.65271133)
(7.1356104e-06 -4.3938801e-06 0.65270817)
(2.2905815e-05 -5.7792163e-06 0.65270908)
(1.1391258e-05 -5.7663679e-06 0.65271086)
(-1.2647839e-05 -7.3312138e-06 0.65271133)
(-7.8911319e-06 -7.8911319e-06 0.65271097)
(7.664944e-06 7.664944e-06 0.76682899)
(1.410098e-05 7.5448674e-06 0.7668282)
(-4.5665011e-06 7.3710609e-06 0.76682879)
(-1.2987124e-05 8.7338696e-06 0.76683111)
(-3.8780395e-06 7.3170405e-06 0.76683278)
(7.5448674e-06 1.410098e-05 0.7668282)
(1.3660155e-05 1.3660155e-05 0.76682736)
(-2.7829977e-06 1.9577281e-05 0.76682874)
(-1.3068155e-05 2.6153882e-05 0.76683127)
(-5.2948686e-06 2.3851975e-05 0.7668329)
(7.3710609e-06 -4.5665011e-06 0.76682879)
(1.9577281e-05 -2.7829977e-06 0.76682874)
(7.9272253e-06 7.9272253e-06 0.76683032)
(-8.7124304e-06 1.5330509e-05 0.76683252)
(-5.4126438e-06 1.2283114e-05 0.7668338)
(8.7338696e-06 -1.2987124e-05 0.76683111)
(2.6153882e-05 -1.3068155e-05 0.76683127)
(1.5330509e-05 -8.7124304e-06 0.76683252)
(-8.7122666e-06 -8.7122666e-06 0.76683389)
(-7.3264653e-06 -1.2452435e-05 0.76683425)
(7.3170405e-06 -3.8780395e-06 0.76683278)
(2.3851975e-05 -5.2948686e-06 0.7668329)
(1.2283114e-05 -5.4126438e-06 0.7668338)
(-1.2452435e-05 -7.3264653e-06 0.76683425)
(-7.9060893e-06 -7.9060893e-06 0.76683456)
(7.272173e-06 7.272173e-06 0.78490643)
(1.3711529e-05 7.1286536e-06 0.78490486)
(-3.1690529e-06 7.2120343e-06 0.78490507)
(-1.0895204e-05 8.6260691e-06 0.78490754)
(-3.2819209e-06 7.2167839e-06 0.7849094)
(7.1286536e-06 1.3711529e-05 0.78490486)
(1.3621321e-05 1.3621321e-05 0.78490321)
(-9.2292959e-07 1.9929852e-05 0.78490422)
(-1.088808e-05 2.6366206e-05 0.78490676)
(-4.6912062e-06 2.3924608e-05 0.7849087)
(7.2120343e-06 -3.1690529e-06 0.78490507)
(1.9929852e-05 -9.2292958e-07 0.78490422)
(9.575832e-06 9.575832e-06 0.78490505)
(-6.900448e-06 1.6341561e-05 0.78490709)
(-4.909653e-06 1.2739436e-05 0.78490879)
(8.6260691e-06 -1.0895204e-05 0.78490754)
(2.6366206e-05 -1.088808e-05 0.78490676)
(1.6341561e-05 -6.900448e-06 0.78490709)
(-7.7244759e-06 -7.7244758e-06 0.78490831)
(-7.0926229e-06 -1.1886604e-05 0.78490937)
(7.2167839e-06 -3.2819209e-06 0.7849094)
(2.3924608e-05 -4.6912062e-06 0.7849087)
(1.2739436e-05 -4.909653e-06 0.78490879)
(-1.1886604e-05 -7.0926229e-06 0.78490937)
(-7.684405e-06 -7.684405e-06 0.78491041)
(6.6167425e-06 6.6167425e-06 0.66206659)
(1.2746162e-05 6.449072e-06 0.66206427)
(-1.8825118e-06 6.8033105e-06 0.66206417)
(-8.6581353e-06 8.2130694e-06 0.66206686)
(-2.6363835e-06 6.8495544e-06 0.66206884)
(6.449072e-06 1.2746162e-05 0.66206427)
(1.3026014e-05 1.3026014e-05 0.66206187)
(7.6348422e-07 1.9554141e-05 0.66206268)
(-8.5887696e-06 2.5697592e-05 0.66206525)
(-3.9998985e-06 2.3237557e-05 0.66206742)
(6.8033105e-06 -1.8825118e-06 0.66206417)
(1.9554141e-05 7.6348423e-07 0.66206268)
(1.0789066e-05 1.0789066e-05 0.66206295)
(-4.974719e-06 1.6885137e-05 0.66206489)
(-4.2764068e-06 1.2954138e-05 0.66206695)
(8.2130694e-06 -8.6581353e-06 0.66206686)
(2.5697592e-05 -8.5887696e-06 0.66206525)
(1.6885137e-05 -4.974719e-06 0.66206489)
(-6.4236983e-06 -6.4236983e-06 0.66206613)
(-6.6205644e-06 -1.0836647e-05 0.66206786)
(6.8495544e-06 -2.6363834e-06 0.66206884)
(2.3237557e-05 -3.9998985e-06 0.66206742)
(1.2954138e-05 -4.2764068e-06 0.66206695)
(-1.0836647e-05 -6.6205644e-06 0.66206786)
(-7.2183728e-06 -7.2183728e-06 0.66206957)
(5.7250599e-06 5.7250599e-06 0.35981576)
(1.1295502e-05 5.5340359e-06 0.35981279)
(-5.7829098e-07 6.2207344e-06 0.35981247)
(-6.2259682e-06 7.557122e-06 0.35981553)
(-1.9598435e-06 6.2726796e-06 0.35981758)
(5.5340359e-06 1.1295502e-05 0.35981279)
(1.2039014e-05 1.2039014e-05 0.35980973)
(2.4563382e-06 1.8705519e-05 0.35981054)
(-6.1480504e-06 2.4401182e-05 0.35981328)
(-3.2442859e-06 2.2033572e-05 0.35981562)
(6.2207344e-06 -5.7829098e-07 0.35981247)
(1.8705519e-05 2.4563382e-06 0.35981054)
(1.1783877e-05 1.1783877e-05 0.3598105)
(-2.8979149e-06 1.7222283e-05 0.3598125)
(-3.5382498e-06 1.3177223e-05 0.35981481)
(7.557122e-06 -6.2259682e-06 0.35981553)
(2.4401182e-05 -6.1480504e-06 0.35981328)
(1.7222283e-05 -2.8979149e-06 0.3598125)
(-4.7547048e-06 -4.7547048e-06 0.35981389)
(-5.9409924e-06 -9.2659198e-06 0.3598161)
(6.2726796e-06 -1.9598435e-06 0.35981758)
(2.2033572e-05 -3.2442859e-06 0.35981562)
(1.3177223e-05 -3.5382498e-06 0.35981481)
(-9.2659198e-06 -5.9409924e-06 0.3598161)
(-6.5457264e-06 -6.5457264e-06 0.35981828)
(4.6342768e-06 4.6342768e-06 -0.1347523)
(9.4549089e-06 4.4127429e-06 -0.13475581)
(8.6345362e-07 5.5196491e-06 -0.13475634)
(-3.5452779e-06 6.713373e-06 -0.13475291)
(-1.2701586e-06 5.5386393e-06 -0.1347509)
(4.4127429e-06 9.4549089e-06 -0.13475581)
(1.0782967e-05 1.0782967e-05 -0.13475944)
(4.3143988e-06 1.7580553e-05 -0.1347587)
(-3.5167926e-06 2.2665099e-05 -0.13475578)
(-2.4448923e-06 2.0468486e-05 -0.13475337)
(5.5196491e-06 8.6345361e-07 -0.13475634)
(1.7580553e-05 4.3143988e-06 -0.1347587)
(1.2745586e-05 1.2745586e-05 -0.13475907)
(-6.5734499e-07 1.7486983e-05 -0.13475704)
(-2.7345673e-06 1.3438396e-05 -0.13475462)
(6.713373e-06 -3.5452779e-06 -0.13475291)
(2.2665099e-05 -3.5167926e-06 -0.13475578)
(1.7486983e-05 -6.5734499e-07 -0.13475704)
(-2.823982e-06 -2.823982e-06 -0.13475569)
(-5.1439503e-06 -7.3734762e-06 -0.13475333)
(5.5386393e-06 -1.2701586e-06 -0.1347509)
(2.0468486e-05 -2.4448923e-06 -0.13475337)
(1.3438396e-05 -2.7345673e-06 -0.13475462)
(-7.3734762e-06 -5.1439503e-06 -0.13475333)
(-5.7675635e-06 -5.7675635e-06 -0.13475106)
(3.3840032e-06 3.3840032e-06 -0.78602975)
(7.2604729e-06 3.1153594e-06 -0.78603359)
(2.3250039e-06 4.6480194e-06 -0.78603436)
(-7.8459211e-07 5.6479395e-06 -0.78603111)
(-6.1675199e-07 4.6252371e-06 -0.78602939)
(3.1153594e-06 7.2604729e-06 -0.78603359)
(9.1564971e-06 9.1564971e-06 -0.78603752)
(6.1238741e-06 1.597684e-05 -0.78603741)
(-8.1876557e-07 2.0276352e-05 -0.78603481)
(-1.6394544e-06 1.8310738e-05 -0.78603251)
(4.6480194e-06 2.3250039e-06 -0.78603436)
(1.597684e-05 6.123874e-06 -0.78603741)
(1.3444859e-05 1.3444859e-05 -0.78603871)
(1.5493057e-06 1.7305481e-05 -0.78603724)
(-1.9271618e-06 1.3211083e-05 -0.78603493)
(5.6479395e-06 -7.8459213e-07 -0.78603111)
(2.0276352e-05 -8.1876556e-07 -0.78603481)
(1.7305481e-05 1.5493057e-06 -0.78603724)
(-1.0525419e-06 -1.0525419e-06 -0.78603672)
(-4.3690534e-06 -5.7043692e-06 -0.78603459)
(4.6252371e-06 -6.1675199e-07 -0.78602939)
(1.8310738e-05 -1.6394544e-06 -0.78603251)
(1.3211083e-05 -1.9271618e-06 -0.78603493)
(-5.7043692e-06 -4.3690534e-06 -0.78603459)
(-5.02838e-06 -5.02838e-06 -0.78603255)
(2.0706945e-06 2.0706945e-06 -1.4952034)
(4.8441846e-06 1.7960252e-06 -1.4952071)
(3.3464774e-06 3.4833752e-06 -1.4952078)
(1.4253289e-06 4.249087e-06 -1.4952058)
(-1.2200378e-07 3.4569549e-06 -1.4952049)
(1.7960252e-06 4.8441846e-06 -1.4952071)
(6.9632056e-06 6.9632055e-06 -1.4952103)
(7.02607e-06 1.3226463e-05 -1.4952113)
(1.3856985e-06 1.6533766e-05 -1.4952101)
(-9.1413584e-07 1.4928777e-05 -1.4952083)
(3.4833752e-06 3.3464774e-06 -1.4952078)
(1.3226463e-05 7.0260701e-06 -1.4952113)
(1.2917038e-05 1.2917038e-05 -1.4952142)
(3.1276424e-06 1.5574848e-05 -1.4952145)
(-1.1919964e-06 1.1363704e-05 -1.4952123)
(4.249087e-06 1.4253289e-06 -1.4952058)
(1.6533766e-05 1.3856985e-06 -1.4952101)
(1.5574848e-05 3.1276424e-06 -1.4952145)
(-1.6763493e-07 -1.676349e-07 -1.4952159)
(-3.721565e-06 -4.9919978e-06 -1.4952137)
(3.4569549e-06 -1.2200377e-07 -1.4952049)
(1.4928777e-05 -9.1413585e-07 -1.4952083)
(1.1363704e-05 -1.1919964e-06 -1.4952123)
(-4.9919978e-06 -3.721565e-06 -1.4952137)
(-4.4082383e-06 -4.4082383e-06 -1.4952114)
(9.2696446e-07 9.2696445e-07 -2.1103529)
(2.8150959e-06 9.7822775e-07 -2.1103558)
(3.5593854e-06 2.324351e-06 -2.1103567)
(2.1802823e-06 2.793945e-06 -2.110357)
(3.0364077e-08 2.3594977e-06 -2.1103571)
(9.7822775e-07 2.8150959e-06 -2.1103558)
(4.9111757e-06 4.9111757e-06 -2.1103581)
(6.2829613e-06 9.5709845e-06 -2.1103605)
(2.2330024e-06 1.1642267e-05 -2.1103618)
(-4.0408322e-07 1.082008e-05 -2.110361)
(2.324351e-06 3.5593854e-06 -2.1103567)
(9.5709845e-06 6.2829613e-06 -2.1103605)
(1.0290476e-05 1.0290476e-05 -2.1103656)
(3.4293778e-06 1.153842e-05 -2.1103685)
(-5.1776032e-07 7.7258875e-06 -2.1103673)
(2.793945e-06 2.1802823e-06 -2.110357)
(1.1642267e-05 2.2330024e-06 -2.1103618)
(1.153842e-05 3.4293778e-06 -2.1103685)
(-3.3158632e-07 -3.3158633e-07 -2.1103722)
(-2.9457718e-06 -4.7677641e-06 -2.1103697)
(2.3594977e-06 3.0364074e-08 -2.1103571)
(1.082008e-05 -4.0408322e-07 -2.110361)
(7.7258875e-06 -5.1776033e-07 -2.1103673)
(-4.767764e-06 -2.9457718e-06 -2.1103697)
(-3.4752121e-06 -3.4752121e-06 -2.110366)
(1.0877809e-07 1.087781e-07 8.0411326)
(1.0590547e-06 3.1822302e-07 8.0411313)
(2.1882859e-06 9.1973623e-07 8.0411286)
(9.8767677e-07 1.0364881e-06 8.0411245)
(-2.0314769e-07 8.5273096e-07 8.0411251)
(3.1822302e-07 1.0590547e-06 8.0411313)
(2.2754919e-06 2.2754919e-06 8.0411294)
(3.2656835e-06 4.2976858e-06 8.0411235)
(8.8716887e-07 4.9925522e-06 8.0411186)
(-3.8690484e-07 4.7103118e-06 8.0411202)
(9.1973624e-07 2.1882859e-06 8.0411286)
(4.2976858e-06 3.2656835e-06 8.0411235)
(4.9053461e-06 4.9053462e-06 8.0411136)
(1.4003027e-06 5.1896393e-06 8.0411068)
(-3.9130799e-07 2.7268751e-06 8.0411085)
(1.0364881e-06 9.8767676e-07 8.0411245)
(4.9925522e-06 8.8716886e-07 8.0411186)
(5.1896393e-06 1.4003027e-06 8.0411068)
(-1.2913022e-06 -1.2913022e-06 8.0411006)
(-2.0287476e-06 -3.6681877e-06 8.0411096)
(8.5273097e-07 -2.0314769e-07 8.0411251)
(4.7103118e-06 -3.8690484e-07 8.0411202)
(2.7268751e-06 -3.9130799e-07 8.0411085)
(-3.6681877e-06 -2.0287477e-06 8.0411096)
(-1.9758983e-06 -1.9758983e-06 8.041119)
)
;

boundaryField
{
    wall_minX
    {
        type            extrapolatedCalculated;
        value           nonuniform List<vector> 
100
(
(-5.1233323e-12 1.2532103e-06 -0.7116831)
(0 2.3625718e-06 -0.71167654)
(0 -1.3168385e-06 -0.71167545)
(0 -2.7340041e-06 -0.71168207)
(0 -6.2294294e-07 -0.7116857)
(0 2.801191e-06 -0.67952694)
(0 4.3781631e-06 -0.67952337)
(0 -4.3473855e-06 -0.67952446)
(0 -7.1610952e-06 -0.67952934)
(0 -1.758222e-06 -0.67953253)
(0 3.629404e-06 -0.62023456)
(0 4.8451265e-06 -0.62023231)
(0 -7.2798619e-06 -0.62023348)
(0 -1.0810828e-05 -0.62023729)
(0 -2.7532972e-06 -0.62024006)
(0 4.301994e-06 -0.53157237)
(0 5.4597328e-06 -0.53157029)
(0 -9.3259719e-06 -0.53157067)
(0 -1.373557e-05 -0.53157344)
(0 -3.6019044e-06 -0.53157568)
(0 5.0116244e-06 -0.41418292)
(0 6.5446706e-06 -0.4141808)
(0 -1.0422657e-05 -0.41418048)
(0 -1.5821273e-05 -0.41418229)
(0 -4.2475875e-06 -0.41418396)
(0 5.7168168e-06 -0.26950155)
(0 7.8978285e-06 -0.26949952)
(0 -1.0822073e-05 -0.26949875)
(0 -1.7211457e-05 -0.26949976)
(0 -4.7111867e-06 -0.26950089)
(0 6.3709513e-06 -0.10036142)
(0 9.3528253e-06 -0.10035959)
(0 -1.0665933e-05 -0.10035852)
(0 -1.7961177e-05 -0.10035879)
(0 -4.9992304e-06 -0.10035939)
(0 6.9396889e-06 0.088096858)
(0 1.0793944e-05 0.088098389)
(0 -1.0026211e-05 0.088099622)
(0 -1.8073277e-05 0.088100084)
(0 -5.1084373e-06 0.088100028)
(0 7.3916034e-06 0.28710971)
(0 1.2115976e-05 0.28711084)
(0 -8.9711813e-06 0.28711211)
(0 -1.7554775e-05 0.28711326)
(0 -5.036682e-06 0.28711373)
(0 7.6907668e-06 0.48251996)
(0 1.3198487e-05 0.48252057)
(0 -7.6063923e-06 0.48252175)
(0 -1.6455789e-05 0.48252346)
(0 -4.7913733e-06 0.48252442)
(0 7.7955002e-06 0.65270379)
(0 1.3903684e-05 0.65270376)
(0 -6.0830579e-06 0.6527047)
(0 -1.4884311e-05 0.6527068)
(0 -4.3938801e-06 0.65270817)
(0 7.664944e-06 0.76682899)
(0 1.410098e-05 0.7668282)
(0 -4.5665011e-06 0.76682879)
(0 -1.2987124e-05 0.76683111)
(0 -3.8780395e-06 0.76683278)
(0 7.272173e-06 0.78490643)
(0 1.3711529e-05 0.78490486)
(0 -3.1690529e-06 0.78490507)
(0 -1.0895204e-05 0.78490754)
(0 -3.2819209e-06 0.7849094)
(0 6.6167425e-06 0.66206659)
(0 1.2746162e-05 0.66206427)
(0 -1.8825118e-06 0.66206417)
(0 -8.6581353e-06 0.66206686)
(0 -2.6363834e-06 0.66206884)
(0 5.7250599e-06 0.35981576)
(0 1.1295502e-05 0.35981279)
(0 -5.7829098e-07 0.35981247)
(0 -6.2259682e-06 0.35981553)
(0 -1.9598435e-06 0.35981758)
(0 4.6342768e-06 -0.1347523)
(0 9.4549089e-06 -0.13475581)
(0 8.6345361e-07 -0.13475634)
(0 -3.5452779e-06 -0.13475291)
(0 -1.2701586e-06 -0.1347509)
(0 3.3840032e-06 -0.78602975)
(0 7.2604729e-06 -0.78603359)
(0 2.3250039e-06 -0.78603436)
(0 -7.8459213e-07 -0.78603111)
(0 -6.1675199e-07 -0.78602939)
(0 2.0706945e-06 -1.4952034)
(0 4.8441846e-06 -1.4952071)
(0 3.3464774e-06 -1.4952078)
(0 1.4253289e-06 -1.4952058)
(0 -1.2200377e-07 -1.4952049)
(0 9.2696445e-07 -2.1103529)
(0 2.8150959e-06 -2.1103558)
(0 3.5593854e-06 -2.1103567)
(0 2.1802823e-06 -2.110357)
(0 3.0364074e-08 -2.1103571)
(0 1.087781e-07 8.0411326)
(0 1.0590547e-06 8.0411313)
(0 2.1882859e-06 8.0411286)
(0 9.8767676e-07 8.0411245)
(0 -2.0314769e-07 8.0411251)
)
;
    }
    wall_maxX
    {
        type            extrapolatedCalculated;
        value           nonuniform List<vector> 
100
(
(3.469447e-16 5.1239961e-07 -0.7116857)
(0 6.7362864e-07 -0.71168313)
(0 -5.238422e-07 -0.71168328)
(0 -7.5781407e-07 -0.71168474)
(0 -2.1929509e-07 -0.71168637)
(0 1.0293948e-06 -0.67953253)
(0 1.6016297e-06 -0.67953103)
(0 -8.488195e-07 -0.67953028)
(0 -2.3651794e-06 -0.6795311)
(0 -9.7254825e-07 -0.67953377)
(0 1.5149135e-06 -0.62024006)
(0 2.9316358e-06 -0.62023835)
(0 -5.9717908e-07 -0.62023671)
(0 -4.2486482e-06 -0.62023739)
(0 -1.9948024e-06 -0.62024055)
(0 2.1655512e-06 -0.53157568)
(0 4.9439143e-06 -0.53157356)
(0 1.1017796e-07 -0.53157116)
(0 -6.2033706e-06 -0.53157169)
(0 -3.0786407e-06 -0.53157491)
(0 2.9262138e-06 -0.41418396)
(0 7.4481574e-06 -0.4141816)
(0 1.2684336e-06 -0.41417867)
(0 -7.994801e-06 -0.41417893)
(0 -4.1362653e-06 -0.41418197)
(0 3.7370265e-06 -0.26950089)
(0 1.023202e-05 -0.26949844)
(0 2.780014e-06 -0.26949519)
(0 -9.5085207e-06 -0.26949517)
(0 -5.1080361e-06 -0.26949791)
(0 4.5585924e-06 -0.10035939)
(0 1.3146445e-05 -0.10035696)
(0 4.5411475e-06 -0.10035356)
(0 -1.0711739e-05 -0.1003533)
(0 -5.9628866e-06 -0.10035566)
(0 5.3571603e-06 0.088100028)
(0 1.6055504e-05 0.088102327)
(0 6.4374148e-06 0.088105676)
(0 -1.1607608e-05 0.088106113)
(0 -6.6835063e-06 0.088104172)
(0 6.0914869e-06 0.28711373)
(0 1.8794589e-05 0.28711575)
(0 8.3262869e-06 0.28711883)
(0 -1.2215441e-05 0.28711935)
(0 -7.2562463e-06 0.28711788)
(0 6.7063654e-06 0.48252442)
(0 2.1155325e-05 0.48252599)
(0 1.0035386e-05 0.48252853)
(0 -1.2558896e-05 0.48252905)
(0 -7.6656697e-06 0.4825281)
(0 7.1356104e-06 0.65270817)
(0 2.2905815e-05 0.65270908)
(0 1.1391258e-05 0.65271086)
(0 -1.2647839e-05 0.65271133)
(0 -7.8911319e-06 0.65271097)
(0 7.3170405e-06 0.76683278)
(0 2.3851975e-05 0.7668329)
(0 1.2283114e-05 0.7668338)
(0 -1.2452435e-05 0.76683425)
(0 -7.9060893e-06 0.76683456)
(0 7.2167839e-06 0.7849094)
(0 2.3924608e-05 0.7849087)
(0 1.2739436e-05 0.78490879)
(0 -1.1886604e-05 0.78490937)
(0 -7.684405e-06 0.78491041)
(0 6.8495544e-06 0.66206884)
(0 2.3237557e-05 0.66206742)
(0 1.2954138e-05 0.66206695)
(0 -1.0836647e-05 0.66206786)
(0 -7.2183728e-06 0.66206957)
(0 6.2726796e-06 0.35981758)
(0 2.2033572e-05 0.35981562)
(0 1.3177223e-05 0.35981481)
(0 -9.2659198e-06 0.3598161)
(0 -6.5457264e-06 0.35981828)
(0 5.5386393e-06 -0.1347509)
(0 2.0468486e-05 -0.13475337)
(0 1.3438396e-05 -0.13475462)
(0 -7.3734762e-06 -0.13475333)
(0 -5.7675635e-06 -0.13475106)
(0 4.6252371e-06 -0.78602939)
(0 1.8310738e-05 -0.78603251)
(0 1.3211083e-05 -0.78603493)
(0 -5.7043692e-06 -0.78603459)
(0 -5.02838e-06 -0.78603255)
(0 3.4569549e-06 -1.4952049)
(0 1.4928777e-05 -1.4952083)
(0 1.1363704e-05 -1.4952123)
(0 -4.9919978e-06 -1.4952137)
(0 -4.4082383e-06 -1.4952114)
(0 2.3594977e-06 -2.1103571)
(0 1.082008e-05 -2.110361)
(0 7.7258875e-06 -2.1103673)
(0 -4.7677641e-06 -2.1103697)
(0 -3.4752121e-06 -2.110366)
(0 8.5273096e-07 8.0411251)
(0 4.7103118e-06 8.0411202)
(0 2.7268751e-06 8.0411085)
(0 -3.6681877e-06 8.0411096)
(0 -1.9758983e-06 8.041119)
)
;
    }
    wall_minY
    {
        type            extrapolatedCalculated;
        value           nonuniform List<vector> 
100
(
(1.2532102e-06 -5.1233323e-12 -0.7116831)
(2.801191e-06 0 -0.67952694)
(3.629404e-06 0 -0.62023456)
(4.301994e-06 0 -0.53157237)
(5.0116244e-06 0 -0.41418292)
(5.7168168e-06 0 -0.26950155)
(6.3709513e-06 0 -0.10036142)
(6.9396889e-06 0 0.088096858)
(7.3916034e-06 0 0.28710971)
(7.6907668e-06 0 0.48251996)
(7.7955002e-06 0 0.65270379)
(7.664944e-06 0 0.76682899)
(7.272173e-06 0 0.78490643)
(6.6167425e-06 0 0.66206659)
(5.7250599e-06 0 0.35981576)
(4.6342768e-06 0 -0.1347523)
(3.3840032e-06 0 -0.78602975)
(2.0706945e-06 0 -1.4952034)
(9.2696446e-07 0 -2.1103529)
(1.0877809e-07 0 8.0411326)
(2.3625716e-06 -1.2177759e-13 -0.71167654)
(4.3781631e-06 0 -0.67952337)
(4.8451265e-06 0 -0.62023231)
(5.4597328e-06 0 -0.53157029)
(6.5446706e-06 0 -0.4141808)
(7.8978285e-06 0 -0.26949952)
(9.3528253e-06 0 -0.10035959)
(1.0793944e-05 0 0.088098389)
(1.2115976e-05 0 0.28711084)
(1.3198487e-05 0 0.48252057)
(1.3903684e-05 0 0.65270376)
(1.410098e-05 0 0.7668282)
(1.3711529e-05 0 0.78490486)
(1.2746162e-05 0 0.66206427)
(1.1295502e-05 0 0.35981279)
(9.4549089e-06 0 -0.13475581)
(7.2604729e-06 0 -0.78603359)
(4.8441846e-06 0 -1.4952071)
(2.8150959e-06 0 -2.1103558)
(1.0590547e-06 0 8.0411313)
(-1.3168384e-06 -5.1174343e-13 -0.71167545)
(-4.3473855e-06 0 -0.67952446)
(-7.2798619e-06 0 -0.62023348)
(-9.3259719e-06 0 -0.53157067)
(-1.0422657e-05 0 -0.41418048)
(-1.0822073e-05 0 -0.26949875)
(-1.0665933e-05 0 -0.10035852)
(-1.0026211e-05 0 0.088099622)
(-8.9711813e-06 0 0.28711211)
(-7.6063923e-06 0 0.48252175)
(-6.0830579e-06 0 0.6527047)
(-4.5665011e-06 0 0.76682879)
(-3.1690529e-06 0 0.78490507)
(-1.8825118e-06 0 0.66206417)
(-5.7829098e-07 0 0.35981247)