/*--------------------------------*- C++ -*----------------------------------*\
| =========                 |                                                 |
| \\      /  F ield         | OpenFOAM: The Open Source CFD Toolbox           |
|  \\    /   O peration     | Version:  v2106                                 |
|   \\  /    A nd           | Website:  www.openfoam.com                      |
|    \\/     M anipulation  |                                                 |
\*---------------------------------------------------------------------------*/
FoamFile
{
    version     2.0;
    format      ascii;
    arch        "LSB;label=32;scalar=64";
    class       volScalarField;
    location    "50";
    object      Tmode_lapla1;
}
// * * * * * * * * * * * * * * * * * * * * * * * * * * * * * * * * * * * * * //

dimensions      [0 -2 0 0 0 0 0];

internalField   nonuniform List<scalar> 
500
(
0.11404649
0.11410198
0.11392491
0.11400028
0.11400618
0.11410198
0.11390415
0.11388595
0.11395005
0.11397019
0.11392491
0.11388595
0.11383387
0.11389087
0.11393632
0.11400028
0.11395005
0.11389087
0.11392869
0.11395369
0.11400618
0.11397019
0.11393632
0.11395369
0.11398015
0.34686829
0.34692005
0.34663474
0.34677661
0.34679006
0.34692005
0.34661665
0.34658255
0.34671536
0.34676481
0.34663474
0.34658255
0.34648127
0.34659924
0.34670149
0.34677661
0.34671536
0.34659924
0.34667218
0.3467368
0.34679006
0.34676481
0.34670149
0.3467368
0.34681402
0.59420283
0.59422794
0.59388718
0.59409281
0.59410225
0.59422794
0.59381282
0.59378543
0.59400377
0.59408971
0.59388718
0.59378543
0.59365231
0.5938403
0.59399509
0.59409281
0.59400377
0.5938403
0.59396159
0.59407848
0.59410225
0.59408971
0.59399509
0.59407848
0.59417615
0.86608362
0.86610364
0.86569171
0.86597298
0.86599754
0.86610364
0.86559357
0.86555911
0.86586584
0.865992
0.86569171
0.86555911
0.86537996
0.86564314
0.86585868
0.86597298
0.86586584
0.86564314
0.86581781
0.86601408
0.86599754
0.865992
0.86585868
0.86601408
0.86611444
1.1731846
1.1732002
1.1727124
1.173069
1.1731044
1.1732002
1.1725958
1.1725557
1.1729501
1.1731087
1.1727124
1.1725557
1.172328
1.1726634
1.1729312
1.173069
1.1729501
1.1726634
1.1728852
1.1731609
1.1731044
1.1731087
1.1729312
1.1731609
1.173259
1.5270038
1.5270212
1.5264578
1.526895
1.5269376
1.5270212
1.526328
1.5262872
1.5267725
1.5269565
1.5264578
1.5262872
1.5260114
1.526419
1.5267307
1.526895
1.5267725
1.526419
1.5266839
1.5270329
1.5269376
1.5269565
1.5267307
1.5270329
1.5271241
1.9403774
1.9404047
1.9397667
1.9402897
1.9403348
1.9404047
1.9396303
1.9395925
1.9401717
1.9403731
1.9397667
1.9395925
1.9392679
1.939747
1.9400939
1.9402897
1.9401717
1.939747
1.9400504
1.9404657
1.9403348
1.9403731
1.9400939
1.9404657
1.9405453
2.4281084
2.4281538
2.4274436
2.4280554
2.4280979
2.4281538
2.4273087
2.4272748
2.4279493
2.4281594
2.4274436
2.4272748
2.4268985
2.4274469
2.4278199
2.4280554
2.4279493
2.4274469
2.4277823
2.4282582
2.4280979
2.4281594
2.4278199
2.4282582
2.4283222
3.0077755
3.0078463
3.0070686
3.0077679
3.0078025
3.0078463
3.0069443
3.0069108
3.007679
3.0078895
3.0070686
3.0069108
3.0064777
3.0070903
3.0074811
3.0077679
3.007679
3.0070903
3.0074492
3.0079828
3.0078025
3.0078895
3.0074811
3.0079828
3.0080288
3.7002196
3.7003199
3.6994844
3.7002628
3.7002847
3.7003199
3.6993802
3.6993383
3.7001931
3.7003965
3.6994844
3.6993383
3.6988408
3.6995083
3.6999101
3.7002628
3.7001931
3.6995083
3.6998798
3.700472
3.7002847
3.7003965
3.6999101
3.700472
3.7004996
4.5281274
4.5282568
4.5273795
4.5282192
4.5282246
4.5282568
4.5273047
4.5272403
4.5281665
4.5283569
4.5273795
4.5272403
4.5266695
4.5273767
4.5277841
4.5282192
4.5281665
4.5273767
4.5277469
4.5284035
4.5282246
4.5283569
4.5277841
4.5284035
4.5284145
5.5092876
5.5094396
5.5085457
5.5094171
5.5094034
5.5094396
5.5085078
5.508403
5.5093746
5.5095477
5.5085457
5.508403
5.5077508
5.5084752
5.5088838
5.5094171
5.5093746
5.5084752
5.5088279
5.5095582
5.5094034
5.5095477
5.5088838
5.5095582
5.5095564
6.6392008
6.6393625
6.6384867
6.6393487
6.6393153
6.6393625
6.6384905
6.6383273
6.6393062
6.6394589
6.6384867
6.6383273
6.6375904
6.6383017
6.6387069
6.6393487
6.6393062
6.6383017
6.6386198
6.6394343
6.6393153
6.6394589
6.6387069
6.6394343
6.6394239
7.858293
7.8584471
7.8576326
7.8584362
7.8583841
7.8584471
7.8576788
7.8574448
7.8583825
7.858512
7.8576326
7.8574448
7.8566304
7.8572927
7.8576871
7.8584362
7.8583825
7.8572927
7.8575606
7.8584654
7.8583841
7.858512
7.8576871
7.8584654
7.8584488
9.0065431
9.0066707
9.0059654
9.0066598
9.006592
9.0066707
9.0060501
9.0057442
9.0065865
9.0066899
9.0059654
9.0057442
9.0048752
9.0054513
9.0058236
9.0066598
9.0065865
9.0054513
9.0056588
9.0066486
9.006592
9.0066899
9.0058236
9.0066486
9.0066234
9.7864993
9.7865833
9.7860346
9.7865753
9.7864969
9.7865833
9.7861488
9.7857851
9.7864806
9.7865548
9.7860346
9.7857851
9.7849039
9.7853616
9.7856961
9.7865753
9.7864806
9.7853616
9.7855061
9.7865575
9.7864969
9.7865548
9.7856961
9.7865575
9.7865153
9.7791349
9.7791604
9.7788071
9.7791652
9.7790846
9.7791604
9.7789351
9.7785466
9.7790578
9.7791015
9.7788071
9.7785466
9.7777169
9.7780373
9.7783166
9.7791652
9.7790578
9.7780373
9.7781263
9.7791952
9.7790846
9.7791015
9.7783166
9.7791952
9.7791237
8.5623057
8.5622556
8.5621105
8.5622877
8.5622194
8.5622556
8.562214
8.5618629
8.5621845
8.562202
8.5621105
8.5618629
8.5611739
8.5613663
8.5615747
8.5622877
8.5621845
8.5613663
8.5614275
8.5624485
8.5622194
8.562202
8.5615747
8.5624485
8.5623303
5.9334527
5.9333176
5.9332927
5.9333394
5.9333151
5.9333176
5.933259
5.9329983
5.9331817
5.9331828
5.9332927
5.9329983
5.9325189
5.9326436
5.9327392
5.9333394
5.9331817
5.9326436
5.9327407
5.9335849
5.9333151
5.9331828
5.9327392
5.9335849
5.9333418
88.960692
88.960633
88.960578
88.960576
88.96066
88.960633
88.960537
88.96035
88.960459
88.96058
88.960578
88.96035
88.960066
88.960153
88.960311
88.960576
88.960459
88.960153
88.960265
88.960994
88.96066
88.96058
88.960311
88.960994
88.96074
)
;

boundaryField
{
    wall_minX
    {
        type            extrapolatedCalculated;
        value           nonuniform List<scalar> 
100
(
0.11404649
0.11410198
0.11392491
0.11400028
0.11400618
0.34686829
0.34692005
0.34663474
0.34677661
0.34679006
0.59420283
0.59422794
0.59388718
0.59409281
0.59410225
0.86608362
0.86610364
0.86569171
0.86597298
0.86599754
1.1731846
1.1732002
1.1727124
1.173069
1.1731044
1.5270038
1.5270212
1.5264578
1.526895
1.5269376
1.9403774
1.9404047
1.9397667
1.9402897
1.9403348
2.4281084
2.4281538
2.4274436
2.4280554
2.4280979
3.0077755
3.0078463
3.0070686
3.0077679
3.0078025
3.7002196
3.7003199
3.6994844
3.7002628
3.7002847
4.5281274
4.5282568
4.5273795
4.5282192
4.5282246
5.5092876
5.5094396
5.5085457
5.5094171
5.5094034
6.6392008
6.6393625
6.6384867
6.6393487
6.6393153
7.858293
7.8584471
7.8576326
7.8584362
7.8583841
9.0065431
9.0066707
9.0059654
9.0066598
9.006592
9.7864993
9.7865833
9.7860346
9.7865753
9.7864969
9.7791349
9.7791604
9.7788071
9.7791652
9.7790846
8.5623057
8.5622556
8.5621105
8.5622877
8.5622194
5.9334527
5.9333176
5.9332927
5.9333394
5.9333151
88.960692
88.960633
88.960578
88.960576
88.96066
)
;
    }
    wall_maxX
    {
        type            extrapolatedCalculated;
        value           nonuniform List<scalar> 
100
(
0.11400618
0.11397019
0.11393632
0.11395369
0.11398015
0.34679006
0.34676481
0.34670149
0.3467368
0.34681402
0.59410225
0.59408971
0.59399509
0.59407848
0.59417615
0.86599754
0.865992
0.86585868
0.86601408
0.86611444
1.1731044
1.1731087
1.1729312
1.1731609
1.173259
1.5269376
1.5269565
1.5267307
1.5270329
1.5271241
1.9403348
1.9403731
1.9400939
1.9404657
1.9405453
2.4280979
2.4281594
2.4278199
2.4282582
2.4283222
3.0078025
3.0078895
3.0074811
3.0079828
3.0080288
3.7002847
3.7003965
3.6999101
3.700472
3.7004996
4.5282246
4.5283569
4.5277841
4.5284035
4.5284145
5.5094034
5.5095477
5.5088838
5.5095582
5.5095564
6.6393153
6.6394589
6.6387069
6.6394343
6.6394239
7.8583841
7.858512
7.8576871
7.8584654
7.8584488
9.006592
9.0066899
9.0058236
9.0066486
9.0066234
9.7864969
9.7865548
9.7856961
9.7865575
9.7865153
9.7790846
9.7791015
9.7783166
9.7791952
9.7791237
8.5622194
8.562202
8.5615747
8.5624485
8.5623303
5.9333151
5.9331828
5.9327392
5.9335849
5.9333418
88.96066
88.96058
88.960311
88.960994
88.96074
)
;
    }
    wall_minY
    {
        type            extrapolatedCalculated;
        value           nonuniform List<scalar> 
100
(
0.11404649
0.34686829
0.59420283
0.86608362
1.1731846
1.5270038
1.9403774
2.4281084
3.0077755
3.7002196
4.5281274
5.5092876
6.6392008
7.858293
9.0065431
9.7864993
9.7791349
8.5623057
5.9334527
88.960692
0.11410198
0.34692005
0.59422794
0.86610364
1.1732002
1.5270212
1.9404047
2.4281538
3.0078463
3.7003199
4.5282568
5.5094396
6.6393625
7.8584471
9.0066707
9.7865833
9.7791604
8.5622556
5.9333176
88.960633
0.11392491
0.34663474
0.59388718
0.86569171
1.1727124
1.5264578
1.9397667
2.4274436
3.0070686
3.6994844
4.5273795
5.5085457
6.6384867
7.8576326
9.0059654
9.7860346
9.7788071
8.5621105
5.9332927
88.960578
0.11400028
0.34677661
0.59409281
0.86597298
1.173069
1.526895
1.9402897
2.4280554
3.0077679
3.7002628
4.5282192
5.5094171
6.6393487
7.8584362
9.0066598
9.7865753
9.7791652
8.5622877
5.9333394
88.960576
0.11400618
0.34679006
0.59410225
0.86599754
1.1731044
1.5269376
1.9403348
2.4280979
3.0078025
3.7002847
4.5282246
5.5094034
6.6393153
7.8583841
9.006592
9.7864969
9.7790846
8.5622194
5.9333151
88.96066
)
;
    }
    wall_maxY
    {
        type            extrapolatedCalculated;
        value           nonuniform List<scalar> 
100
(
0.11400618
0.34679006
0.59410225
0.86599754
1.1731044
1.5269376
1.9403348
2.4280979
3.0078025
3.7002847
4.5282246
5.5094034
6.6393153
7.8583841
9.006592
9.7864969
9.7790846
8.5622194
5.9333151
88.96066
0.11397019
0.34676481
0.59408971
0.865992
1.1731087
1.5269565
1.9403731
2.4281594
3.0078895
3.7003965
4.5283569
5.5095477
6.6394589
7.858512
9.0066899
9.7865548
9.7791015
8.562202
5.9331828
88.96058
0.11393632
0.34670149
0.59399509
0.86585868
1.1729312
1.5267307
1.9400939
2.4278199
3.0074811
3.6999101
4.5277841
5.5088838
6.6387069
7.8576871
9.0058236
9.7856961
9.7783166
8.5615747
5.9327392
88.960311
0.11395369
0.3467368
0.59407848
0.86601408
1.1731609
1.5270329
1.9404657
2.4282582
3.0079828
3.700472
4.5284035
5.5095582
6.6394343
7.8584654
9.0066486
9.7865575
9.7791952
8.5624485
5.9335849
88.960994
0.11398015
0.34681402
0.59417615
0.86611444
1.173259
1.5271241
1.9405453
2.4283222
3.0080288
3.7004996
4.5284145
5.5095564
6.6394239
7.8584488
9.0066234
9.7865153
9.7791237
8.5623303
5.9333418
88.96074
)
;
    }
    inlet_minZ
    {
        type            extrapolatedCalculated;
        value           nonuniform List<scalar> 
25
(
0.11404649
0.11410198
0.11392491
0.11400028
0.11400618
0.11410198
0.11390415
0.11388595
0.11395005
0.11397019
0.11392491
0.11388595
0.11383387
0.11389087
0.11393632
0.11400028
0.11395005
0.11389087
0.11392869
0.11395369
0.11400618
0.11397019
0.11393632
0.11395369
0.11398015
)
;
    }
    outlet_maxZ
    {
        type            extrapolatedCalculated;
        value           nonuniform List<scalar> 
25
(
88.960692
88.960633
88.960578
88.960576
88.96066
88.960633
88.960537
88.96035
88.960459
88.96058
88.960578
88.96035
88.960066
88.960153
88.960311
88.960576
88.960459
88.960153
88.960265
88.960994
88.96066
88.96058
88.960311
88.960994
88.96074
)
;
    }
}


// ************************************************************************* //
