/*--------------------------------*- C++ -*----------------------------------*\
| =========                 |                                                 |
| \\      /  F ield         | OpenFOAM: The Open Source CFD Toolbox           |
|  \\    /   O peration     | Version:  v2106                                 |
|   \\  /    A nd           | Website:  www.openfoam.com                      |
|    \\/     M anipulation  |                                                 |
\*---------------------------------------------------------------------------*/
FoamFile
{
    version     2.0;
    format      ascii;
    arch        "LSB;label=32;scalar=64";
    class       volVectorField;
    location    "50";
    object      Tmode_grad1;
}
// * * * * * * * * * * * * * * * * * * * * * * * * * * * * * * * * * * * * * //

dimensions      [0 -1 0 0 0 0 0];

internalField   nonuniform List<vector> 
500
(
(1.1641294e-07 1.1641294e-07 -0.47876159)
(6.8357963e-07 3.6641786e-07 -0.47876088)
(3.194866e-07 1.9329397e-07 -0.47875916)
(-3.3342636e-07 1.5805713e-07 -0.47875987)
(-9.596868e-08 1.1724926e-07 -0.47876044)
(3.6641786e-07 6.8357967e-07 -0.47876088)
(7.9890105e-07 7.9890105e-07 -0.47875901)
(6.9454933e-09 4.9999666e-07 -0.47875815)
(-4.4749358e-07 4.4150298e-07 -0.47875908)
(-1.3677655e-07 3.1949451e-07 -0.47875987)
(1.9329405e-07 3.1948659e-07 -0.47875916)
(4.9999662e-07 6.9454935e-09 -0.47875815)
(-3.7911477e-08 -3.7911477e-08 -0.47875743)
(-5.1392852e-07 1.6285896e-08 -0.47875838)
(-1.7730766e-07 5.1905076e-10 -0.4787594)
(1.5805713e-07 -3.3342641e-07 -0.47875987)
(4.4150298e-07 -4.4749358e-07 -0.47875908)
(1.6285896e-08 -5.1392852e-07 -0.47875838)
(-4.0906305e-07 -4.0906305e-07 -0.47875911)
(-1.4728778e-07 -3.4822512e-07 -0.47875997)
(1.1724926e-07 -9.5968679e-08 -0.47876044)
(3.1949451e-07 -1.3677655e-07 -0.47875987)
(5.1905041e-10 -1.7730766e-07 -0.4787594)
(-3.4822512e-07 -1.4728778e-07 -0.47875997)
(-1.3674903e-07 -1.3674903e-07 -0.47876078)
(3.6272272e-07 3.6272272e-07 -0.47377384)
(1.5927035e-06 7.7015029e-07 -0.47377315)
(5.4278749e-07 4.2880003e-07 -0.47377236)
(-9.1588289e-07 3.247352e-07 -0.47377306)
(-2.7336732e-07 2.0972019e-07 -0.4737736)
(7.7015029e-07 1.5927035e-06 -0.47377315)
(1.6918195e-06 1.6918195e-06 -0.47377208)
(-1.2533515e-07 1.0971412e-06 -0.4737717)
(-1.2445027e-06 9.235618e-07 -0.47377262)
(-3.8838233e-07 6.0047206e-07 -0.47377341)
(4.2880003e-07 5.4278749e-07 -0.47377236)
(1.0971412e-06 -1.2533515e-07 -0.4737717)
(-2.2547016e-07 -2.2547016e-07 -0.47377134)
(-1.4125521e-06 -9.4700722e-08 -0.47377227)
(-4.8876048e-07 -1.493777e-07 -0.47377322)
(3.247352e-07 -9.158829e-07 -0.47377306)
(9.235618e-07 -1.2445027e-06 -0.47377262)
(-9.4700721e-08 -1.4125521e-06 -0.47377227)
(-1.1684102e-06 -1.1684102e-06 -0.47377304)
(-4.2483365e-07 -1.0374268e-06 -0.4737739)
(2.0972019e-07 -2.7336732e-07 -0.4737736)
(6.0047206e-07 -3.8838233e-07 -0.47377341)
(-1.493777e-07 -4.8876048e-07 -0.47377322)
(-1.0374268e-06 -4.2483365e-07 -0.4737739)
(-4.0143822e-07 -4.0143822e-07 -0.47377466)
(5.7298396e-07 5.7298396e-07 -0.46436593)
(2.165739e-06 1.0825869e-06 -0.4643654)
(4.0854936e-07 6.3405902e-07 -0.46436497)
(-1.5810555e-06 4.5254579e-07 -0.46436585)
(-4.5556115e-07 2.4766132e-07 -0.46436646)
(1.0825869e-06 2.165739e-06 -0.4643654)
(2.2573516e-06 2.2573516e-06 -0.46436457)
(-5.3651226e-07 1.5150482e-06 -0.46436444)
(-2.160652e-06 1.2362007e-06 -0.46436552)
(-6.6044563e-07 7.0835344e-07 -0.46436637)
(6.3405902e-07 4.0854936e-07 -0.46436497)
(1.5150482e-06 -5.3651226e-07 -0.46436444)
(-6.1260159e-07 -6.1260159e-07 -0.46436426)
(-2.3877502e-06 -3.9653571e-07 -0.46436531)
(-8.0745931e-07 -4.958488e-07 -0.4643663)
(4.5254579e-07 -1.5810555e-06 -0.46436585)
(1.2362007e-06 -2.160652e-06 -0.46436552)
(-3.9653571e-07 -2.3877502e-06 -0.46436531)
(-2.0438992e-06 -2.0438992e-06 -0.46436621)
(-7.2665435e-07 -1.7936211e-06 -0.46436718)
(2.4766132e-07 -4.5556115e-07 -0.46436646)
(7.0835344e-07 -6.6044563e-07 -0.46436637)
(-4.958488e-07 -8.0745931e-07 -0.4643663)
(-1.7936211e-06 -7.2665435e-07 -0.46436718)
(-6.4060724e-07 -6.4060724e-07 -0.46436788)
(7.1622527e-07 7.1622527e-07 -0.44976694)
(2.5541436e-06 1.3285046e-06 -0.44976656)
(1.0044674e-07 7.8610935e-07 -0.44976625)
(-2.4032534e-06 5.4362512e-07 -0.44976725)
(-6.8259628e-07 2.6786553e-07 -0.44976794)
(1.3285046e-06 2.5541436e-06 -0.44976656)
(2.6589697e-06 2.6589697e-06 -0.44976587)
(-1.0768725e-06 1.8123953e-06 -0.44976585)
(-3.1806191e-06 1.4628267e-06 -0.44976702)
(-9.5835588e-07 7.5783463e-07 -0.4497679)
(7.8610935e-07 1.0044674e-07 -0.44976625)
(1.8123953e-06 -1.0768725e-06 -0.44976585)
(-1.0956963e-06 -1.0956963e-06 -0.44976573)
(-3.4578141e-06 -7.9016249e-07 -0.44976684)
(-1.152591e-06 -9.6035696e-07 -0.44976786)
(5.4362512e-07 -2.4032534e-06 -0.44976725)
(1.4628267e-06 -3.1806191e-06 -0.44976702)
(-7.9016249e-07 -3.4578141e-06 -0.44976684)
(-3.0452798e-06 -3.0452798e-06 -0.44976781)
(-1.0718189e-06 -2.619359e-06 -0.44976884)
(2.6786553e-07 -6.8259628e-07 -0.44976794)
(7.5783463e-07 -9.5835588e-07 -0.4497679)
(-9.6035696e-07 -1.152591e-06 -0.44976786)
(-2.619359e-06 -1.0718189e-06 -0.44976884)
(-8.6864383e-07 -8.6864383e-07 -0.44976951)
(8.265522e-07 8.2655221e-07 -0.42937888)
(2.8521148e-06 1.541477e-06 -0.4293786)
(-2.8697274e-07 9.0431236e-07 -0.42937837)
(-3.272828e-06 6.0942307e-07 -0.42937944)
(-9.157125e-07 2.7374437e-07 -0.42938013)
(1.541477e-06 2.8521148e-06 -0.4293786)
(2.9687551e-06 2.9687551e-06 -0.42937801)
(-1.6850537e-06 2.0365655e-06 -0.42937807)
(-4.21868e-06 1.646924e-06 -0.42937928)
(-1.2513912e-06 7.8794881e-07 -0.42938013)
(9.0431236e-07 -2.8697274e-07 -0.42937837)
(2.0365655e-06 -1.6850537e-06 -0.42937807)
(-1.6088038e-06 -1.6088038e-06 -0.42937799)
(-4.5214447e-06 -1.1863039e-06 -0.4293791)
(-1.4883626e-06 -1.4334787e-06 -0.42938007)
(6.0942307e-07 -3.272828e-06 -0.42937944)
(1.646924e-06 -4.21868e-06 -0.42937928)
(-1.1863039e-06 -4.5214447e-06 -0.4293791)
(-4.0433549e-06 -4.0433549e-06 -0.42938003)
(-1.4161744e-06 -3.4369892e-06 -0.42938102)
(2.7374437e-07 -9.157125e-07 -0.42938013)
(7.8794881e-07 -1.2513912e-06 -0.42938013)
(-1.4334787e-06 -1.4883626e-06 -0.42938007)
(-3.4369892e-06 -1.4161744e-06 -0.42938102)
(-1.0841188e-06 -1.0841188e-06 -0.42938163)
(9.038907e-07 9.038907e-07 -0.40238219)
(3.0627495e-06 1.7229171e-06 -0.40238201)
(-7.414731e-07 9.9098037e-07 -0.40238185)
(-4.161669e-06 6.5400389e-07 -0.40238296)
(-1.1421883e-06 2.6877078e-07 -0.40238361)
(1.7229171e-06 3.0627495e-06 -0.40238201)
(3.193384e-06 3.193384e-06 -0.40238151)
(-2.3448429e-06 2.1997642e-06 -0.40238163)
(-5.2449834e-06 1.8109388e-06 -0.40238285)
(-1.5274214e-06 8.2570323e-07 -0.40238363)
(9.9098037e-07 -7.414731e-07 -0.40238185)
(2.1997642e-06 -2.3448429e-06 -0.40238163)
(-2.1239184e-06 -2.1239184e-06 -0.40238155)
(-5.53573e-06 -1.5383146e-06 -0.40238262)
(-1.799012e-06 -1.8501047e-06 -0.40238349)
(6.5400389e-07 -4.161669e-06 -0.40238296)
(1.8109388e-06 -5.2449834e-06 -0.40238285)
(-1.5383146e-06 -5.53573e-06 -0.40238262)
(-4.9711697e-06 -4.9711697e-06 -0.40238346)
(-1.7352814e-06 -4.1842456e-06 -0.40238436)
(2.6877078e-07 -1.1421883e-06 -0.40238361)
(8.2570323e-07 -1.5274214e-06 -0.40238363)
(-1.8501047e-06 -1.799012e-06 -0.40238349)
(-4.1842456e-06 -1.7352814e-06 -0.40238436)
(-1.2743959e-06 -1.2743959e-06 -0.40238487)
(9.4789456e-07 9.4789456e-07 -0.36771393)
(3.1936013e-06 1.8735584e-06 -0.36771385)
(-1.2389082e-06 1.0516749e-06 -0.36771373)
(-5.038329e-06 6.8482874e-07 -0.36771484)
(-1.3517742e-06 2.6092484e-07 -0.36771543)
(1.8735584e-06 3.1936013e-06 -0.36771385)
(3.3492718e-06 3.3492718e-06 -0.36771343)
(-3.0220027e-06 2.3305184e-06 -0.36771357)
(-6.224454e-06 1.9903298e-06 -0.36771475)
(-1.7756781e-06 9.083812e-07 -0.36771544)
(1.0516749e-06 -1.2389082e-06 -0.36771373)
(2.3305184e-06 -3.0220027e-06 -0.36771357)
(-2.5978502e-06 -2.5978502e-06 -0.36771345)
(-6.4604662e-06 -1.7951447e-06 -0.36771442)
(-2.0730733e-06 -2.1562056e-06 -0.36771517)
(6.8482874e-07 -5.038329e-06 -0.36771484)
(1.9903298e-06 -6.224454e-06 -0.36771475)
(-1.7951447e-06 -6.4604662e-06 -0.36771442)
(-5.7828095e-06 -5.7828095e-06 -0.36771511)
(-2.0163853e-06 -4.8173053e-06 -0.36771589)
(2.6092484e-07 -1.3517742e-06 -0.36771543)
(9.083812e-07 -1.7756781e-06 -0.36771544)
(-2.1562056e-06 -2.0730733e-06 -0.36771517)
(-4.8173053e-06 -2.0163853e-06 -0.36771589)
(-1.4294038e-06 -1.4294038e-06 -0.36771629)
(9.6259741e-07 9.6259741e-07 -0.32403481)
(3.2658746e-06 1.9970769e-06 -0.32403479)
(-1.7361523e-06 1.0977267e-06 -0.32403469)
(-5.8578322e-06 7.1400351e-07 -0.32403573)
(-1.5331342e-06 2.6200075e-07 -0.32403621)
(1.9970769e-06 3.2658746e-06 -0.32403479)
(3.4685686e-06 3.4685686e-06 -0.32403446)
(-3.6607623e-06 2.4759411e-06 -0.32403455)
(-7.1114211e-06 2.2335178e-06 -0.32403562)
(-1.985137e-06 1.0817609e-06 -0.32403617)
(1.0977267e-06 -1.7361523e-06 -0.32403469)
(2.4759411e-06 -3.6607623e-06 -0.32403455)
(-2.9712031e-06 -2.9712031e-06 -0.32403432)
(-7.2520123e-06 -1.8994092e-06 -0.32403512)
(-2.3009721e-06 -2.3009275e-06 -0.32403573)
(7.1400351e-07 -5.8578322e-06 -0.32403573)
(2.2335177e-06 -7.1114211e-06 -0.32403562)
(-1.8994092e-06 -7.2520123e-06 -0.32403512)
(-6.4411455e-06 -6.4411455e-06 -0.32403562)
(-2.2528159e-06 -5.3047834e-06 -0.32403626)
(2.6200075e-07 -1.5331342e-06 -0.32403621)
(1.0817609e-06 -1.985137e-06 -0.32403617)
(-2.3009275e-06 -2.3009721e-06 -0.32403573)
(-5.3047834e-06 -2.2528159e-06 -0.32403626)
(-1.5433974e-06 -1.5433974e-06 -0.32403653)
(9.5635156e-07 9.5635156e-07 -0.26968172)
(3.3113829e-06 2.0989454e-06 -0.26968176)
(-2.1736327e-06 1.1453759e-06 -0.26968162)
(-6.5606151e-06 7.5742391e-07 -0.2696825)
(-1.6734179e-06 2.8650639e-07 -0.26968284)
(2.0989454e-06 3.3113829e-06 -0.26968176)
(3.5949194e-06 3.5949194e-06 -0.26968148)
(-4.1859149e-06 2.696913e-06 -0.26968145)
(-7.8489193e-06 2.5964487e-06 -0.26968232)
(-2.1443354e-06 1.3948243e-06 -0.26968271)
(1.1453759e-06 -2.1736327e-06 -0.26968162)
(2.696913e-06 -4.1859149e-06 -0.26968145)
(-3.1721034e-06 -3.1721034e-06 -0.26968104)
(-7.8627038e-06 -1.7919685e-06 -0.2696816)
(-2.4745008e-06 -2.2386643e-06 -0.26968203)
(7.5742391e-07 -6.5606151e-06 -0.2696825)
(2.5964487e-06 -7.8489193e-06 -0.26968232)
(-1.7919685e-06 -7.8627038e-06 -0.2696816)
(-6.9154802e-06 -6.9154802e-06 -0.26968185)
(-2.4421326e-06 -5.6257705e-06 -0.26968234)
(2.8650639e-07 -1.6734179e-06 -0.26968284)
(1.3948243e-06 -2.1443354e-06 -0.26968271)
(-2.2386643e-06 -2.4745008e-06 -0.26968203)
(-5.6257705e-06 -2.4421326e-06 -0.26968234)
(-1.6146943e-06 -1.6146943e-06 -0.2696825)
(9.4076554e-07 9.4076555e-07 -0.20260747)
(3.3665453e-06 2.1842443e-06 -0.20260751)
(-2.4805898e-06 1.2134093e-06 -0.20260731)
(-7.0738575e-06 8.3260171e-07 -0.20260792)
(-1.7585804e-06 3.4971772e-07 -0.20260807)
(2.1842443e-06 3.3665453e-06 -0.20260751)
(3.775511e-06 3.775511e-06 -0.20260727)
(-4.5080537e-06 3.0589165e-06 -0.20260705)
(-8.3693949e-06 3.1328908e-06 -0.20260762)
(-2.2414644e-06 1.8908541e-06 -0.2026078)
(1.2134093e-06 -2.4805898e-06 -0.20260731)
(3.0589165e-06 -4.5080537e-06 -0.20260705)
(-3.12321e-06 -3.12321e-06 -0.20260639)
(-8.24192e-06 -1.4207707e-06 -0.20260664)
(-2.5866049e-06 -1.9369382e-06 -0.20260687)
(8.3260171e-07 -7.0738575e-06 -0.20260792)
(3.1328908e-06 -8.3693949e-06 -0.20260762)
(-1.4207707e-06 -8.24192e-06 -0.20260664)
(-7.183123e-06 -7.183123e-06 -0.20260659)
(-2.5855761e-06 -5.771499e-06 -0.20260695)
(3.4971773e-07 -1.7585804e-06 -0.20260807)
(1.8908541e-06 -2.2414644e-06 -0.2026078)
(-1.9369382e-06 -2.5866049e-06 -0.20260687)
(-5.771499e-06 -2.5855761e-06 -0.20260695)
(-1.6455222e-06 -1.6455222e-06 -0.202607)
(9.2845265e-07 9.2845265e-07 -0.1203296)
(3.4628865e-06 2.2546795e-06 -0.12032962)
(-2.5853045e-06 1.3187233e-06 -0.12032936)
(-7.3173537e-06 9.5459365e-07 -0.12032957)
(-1.7745611e-06 4.6418009e-07 -0.1203295)
(2.2546795e-06 3.4628865e-06 -0.12032962)
(4.0482925e-06 4.0482925e-06 -0.12032944)
(-4.5354333e-06 3.6159072e-06 -0.12032897)
(-8.5991686e-06 3.8783018e-06 -0.12032913)
(-2.2649747e-06 2.5931156e-06 -0.12032907)
(1.3187233e-06 -2.5853045e-06 -0.12032936)
(3.6159072e-06 -4.5354333e-06 -0.12032897)
(-2.7552952e-06 -2.7552952e-06 -0.12032803)
(-8.3401453e-06 -7.5567776e-07 -0.12032788)
(-2.6313519e-06 -1.3895011e-06 -0.1203279)
(9.5459365e-07 -7.3173537e-06 -0.12032957)
(3.8783018e-06 -8.5991686e-06 -0.12032913)
(-7.5567776e-07 -8.3401453e-06 -0.12032788)
(-7.2333744e-06 -7.2333744e-06 -0.12032751)
(-2.6875236e-06 -5.7489892e-06 -0.12032777)
(4.6418009e-07 -1.7745611e-06 -0.1203295)
(2.5931156e-06 -2.2649747e-06 -0.12032907)
(-1.3895011e-06 -2.6313519e-06 -0.1203279)
(-5.7489892e-06 -2.6875236e-06 -0.12032777)
(-1.6417617e-06 -1.6417617e-06 -0.12032772)
(9.2934795e-07 9.2934795e-07 -0.019961027)
(3.6139851e-06 2.3051497e-06 -0.019961)
(-2.4319058e-06 1.4696464e-06 -0.019960688)
(-7.2163416e-06 1.1298407e-06 -0.019960417)
(-1.7096485e-06 6.3446403e-07 -0.019960092)
(2.3051497e-06 3.6139851e-06 -0.019961)
(4.4244328e-06 4.4244328e-06 -0.019960901)
(-4.1948694e-06 4.3865337e-06 -0.019960179)
(-8.4691152e-06 4.827158e-06 -0.019959826)
(-2.2050251e-06 3.4853815e-06 -0.019959512)
(1.4696464e-06 -2.4319058e-06 -0.019960688)
(4.3865337e-06 -4.1948694e-06 -0.019960179)
(-2.0291805e-06 -2.0291805e-06 -0.019958977)
(-8.1174938e-06 1.9080226e-07 -0.019958387)
(-2.6041662e-06 -6.3302178e-07 -0.019958194)
(1.1298407e-06 -7.2163416e-06 -0.019960417)
(4.827158e-06 -8.4691152e-06 -0.019959826)
(1.9080226e-07 -8.1174938e-06 -0.019958387)
(-7.0729565e-06 -7.0729565e-06 -0.019957728)
(-2.7542411e-06 -5.5847224e-06 -0.019957884)
(6.3446403e-07 -1.7096485e-06 -0.019960092)
(3.4853815e-06 -2.2050251e-06 -0.019959512)
(-6.3302178e-07 -2.6041662e-06 -0.019958194)
(-5.5847224e-06 -2.7542411e-06 -0.019957884)
(-1.6120101e-06 -1.6120101e-06 -0.01995777)
(9.4611561e-07 9.4611561e-07 0.10151823)
(3.8014444e-06 2.3208938e-06 0.10151829)
(-2.0022529e-06 1.6582463e-06 0.10151858)
(-6.72169e-06 1.3489609e-06 0.10151939)
(-1.5581108e-06 8.5106605e-07 0.10151997)
(2.3208938e-06 3.8014444e-06 0.10151829)
(4.8696404e-06 4.8696404e-06 0.10151825)
(-3.4601522e-06 5.3268679e-06 0.10151916)
(-7.9324604e-06 5.9083149e-06 0.10152007)
(-2.0560057e-06 4.4917396e-06 0.10152064)
(1.6582463e-06 -2.0022529e-06 0.10151858)
(5.3268679e-06 -3.4601522e-06 0.10151916)
(-9.635784e-07 -9.635784e-07 0.10152051)
(-7.5568182e-06 1.3413572e-06 0.10152153)
(-2.5024943e-06 2.3808131e-07 0.10152195)
(1.3489609e-06 -6.72169e-06 0.10151939)
(5.9083149e-06 -7.9324604e-06 0.10152007)
(1.3413572e-06 -7.5568182e-06 0.10152153)
(-6.7308007e-06 -6.7308007e-06 0.10152241)
(-2.7915229e-06 -5.3252259e-06 0.10152234)
(8.5106605e-07 -1.5581108e-06 0.10151997)
(4.4917396e-06 -2.0560057e-06 0.10152064)
(2.3808131e-07 -2.5024943e-06 0.10152195)
(-5.3252259e-06 -2.7915229e-06 0.10152234)
(-1.5654444e-06 -1.5654444e-06 0.1015225)
(9.7041386e-07 9.7041386e-07 0.24648742)
(3.965996e-06 2.2769972e-06 0.24648747)
(-1.33651e-06 1.8547378e-06 0.24648763)
(-5.833668e-06 1.5812912e-06 0.24648893)
(-1.3245219e-06 1.0858281e-06 0.24648973)
(2.2769972e-06 3.965996e-06 0.24648747)
(5.2924819e-06 5.2924819e-06 0.24648721)
(-2.380069e-06 6.3104149e-06 0.24648815)
(-6.9870325e-06 6.9691804e-06 0.24648957)
(-1.819985e-06 5.4654227e-06 0.24649039)
(1.8547378e-06 -1.33651e-06 0.24648763)
(6.3104149e-06 -2.380069e-06 0.24648815)
(3.4018856e-07 3.4018856e-07 0.24648943)
(-6.6786602e-06 2.5407446e-06 0.24649081)
(-2.327027e-06 1.0688222e-06 0.24649144)
(1.5812912e-06 -5.833668e-06 0.24648893)
(6.9691804e-06 -6.9870325e-06 0.24648957)
(2.5407446e-06 -6.6786602e-06 0.24649081)
(-6.2583989e-06 -6.2583989e-06 0.2464918)
(-2.8012666e-06 -5.0304649e-06 0.24649182)
(1.0858281e-06 -1.3245219e-06 0.24648973)
(5.4654227e-06 -1.819985e-06 0.24649039)
(1.0688222e-06 -2.327027e-06 0.24649144)
(-5.0304649e-06 -2.8012666e-06 0.24649182)
(-1.5084044e-06 -1.5084044e-06 0.246492)
(9.8305579e-07 9.8305579e-07 0.41512992)
(4.0124807e-06 2.1424049e-06 0.41512991)
(-5.4191899e-07 2.0082608e-06 0.41512979)
(-4.6210968e-06 1.7750614e-06 0.41513146)
(-1.0275206e-06 1.2921123e-06 0.4151324)
(2.1424049e-06 4.0124807e-06 0.41512991)
(5.5502881e-06 5.5502881e-06 0.41512933)
(-1.0929342e-06 7.1301077e-06 0.41513009)
(-5.6953196e-06 7.782663e-06 0.41513189)
(-1.5104697e-06 6.1985595e-06 0.41513289)
(2.0082608e-06 -5.4191899e-07 0.41512979)
(7.1301077e-06 -1.0929342e-06 0.41513009)
(1.6904559e-06 1.6904559e-06 0.41513101)
(-5.552645e-06 3.5649205e-06 0.41513258)
(-2.0835895e-06 1.6635671e-06 0.41513339)
(1.7750614e-06 -4.6210968e-06 0.41513146)
(7.782663e-06 -5.6953196e-06 0.41513189)
(3.5649205e-06 -5.552645e-06 0.41513258)
(-5.7222083e-06 -5.7222083e-06 0.41513351)
(-2.7780387e-06 -4.7579545e-06 0.41513365)
(1.2921123e-06 -1.0275206e-06 0.4151324)
(6.1985595e-06 -1.5104697e-06 0.41513289)
(1.6635671e-06 -2.0835895e-06 0.41513339)
(-4.7579545e-06 -2.7780387e-06 0.41513365)
(-1.4407536e-06 -1.4407536e-06 0.41513388)
(9.6162147e-07 9.6162147e-07 0.60305451)
(3.8371384e-06 1.8908824e-06 0.60305438)
(2.1962072e-07 2.0572276e-06 0.60305388)
(-3.2277939e-06 1.8660412e-06 0.60305569)
(-7.0180558e-07 1.4121413e-06 0.60305663)
(1.8908824e-06 3.8371384e-06 0.60305438)
(5.4805477e-06 5.4805477e-06 0.60305345)
(1.82359e-07 7.531875e-06 0.60305379)
(-4.1954234e-06 8.0847556e-06 0.60305572)
(-1.1557055e-06 6.4588939e-06 0.60305679)
(2.0572276e-06 2.1962072e-07 0.60305388)
(7.531875e-06 1.82359e-07 0.60305379)
(2.8238286e-06 2.8238286e-06 0.60305403)
(-4.3007749e-06 4.1579617e-06 0.60305555)
(-1.7857134e-06 1.830057e-06 0.60305649)
(1.8660412e-06 -3.2277939e-06 0.60305569)
(8.0847556e-06 -4.1954234e-06 0.60305572)
(4.1579617e-06 -4.3007749e-06 0.60305555)
(-5.189195e-06 -5.189195e-06 0.60305625)
(-2.707642e-06 -4.5415648e-06 0.60305656)
(1.4121413e-06 -7.0180559e-07 0.60305663)
(6.4588939e-06 -1.1557055e-06 0.60305679)
(1.830057e-06 -1.7857134e-06 0.60305649)
(-4.5415648e-06 -2.707642e-06 0.60305656)
(-1.3539598e-06 -1.3539598e-06 0.60305688)
(8.9754898e-07 8.9754899e-07 0.79870527)
(3.3834537e-06 1.5245778e-06 0.79870505)
(7.6868123e-07 1.9508213e-06 0.79870416)
(-1.865745e-06 1.7964366e-06 0.79870581)
(-3.9819728e-07 1.394266e-06 0.79870659)
(1.5245778e-06 3.3834537e-06 0.79870505)
(4.9633623e-06 4.9633623e-06 0.7987039)
(1.1764693e-06 7.2792031e-06 0.79870361)
(-2.700578e-06 7.641173e-06 0.79870534)
(-8.0036786e-07 6.0545654e-06 0.79870632)
(1.9508213e-06 7.6868123e-07 0.79870416)
(7.2792031e-06 1.1764693e-06 0.79870361)
(3.446492e-06 3.446492e-06 0.79870289)
(-3.0903826e-06 4.0886381e-06 0.79870409)
(-1.4559357e-06 1.4387408e-06 0.79870509)
(1.7964366e-06 -1.865745e-06 0.79870581)
(7.641173e-06 -2.700578e-06 0.79870534)
(4.0886381e-06 -3.0903826e-06 0.79870409)
(-4.7083291e-06 -4.7083291e-06 0.79870442)
(-2.566966e-06 -4.3677986e-06 0.79870502)
(1.394266e-06 -3.9819728e-07 0.79870659)
(6.0545654e-06 -8.0036786e-07 0.79870632)
(1.4387408e-06 -1.4559357e-06 0.79870509)
(-4.3677986e-06 -2.566966e-06 0.79870502)
(-1.2289153e-06 -1.2289153e-06 0.79870552)
(8.1287073e-07 8.1287073e-07 0.98211455)
(2.7231122e-06 1.1221229e-06 0.98211426)
(9.78025e-07 1.6879339e-06 0.98211321)
(-7.9667078e-07 1.5535902e-06 0.98211439)
(-1.8059311e-07 1.2334028e-06 0.98211482)
(1.1221229e-06 2.7231122e-06 0.98211426)
(4.0357069e-06 4.0357069e-06 0.98211327)
(1.625226e-06 6.264321e-06 0.98211233)
(-1.4784674e-06 6.3659714e-06 0.98211353)
(-5.0078052e-07 4.9631841e-06 0.98211427)
(1.6879339e-06 9.78025e-07 0.98211321)
(6.264321e-06 1.625226e-06 0.98211233)
(3.3082895e-06 3.3082895e-06 0.98211063)
(-2.0978077e-06 3.2409488e-06 0.98211129)
(-1.1157847e-06 5.2535474e-07 0.98211234)
(1.5535902e-06 -7.9667078e-07 0.98211439)
(6.3659714e-06 -1.4784674e-06 0.98211353)
(3.2409488e-06 -2.0978077e-06 0.98211129)
(-4.2614022e-06 -4.2614022e-06 0.98211129)
(-2.3111766e-06 -4.1138702e-06 0.9821124)
(1.2334028e-06 -1.8059311e-07 0.98211482)
(4.9631841e-06 -5.0078052e-07 0.98211427)
(5.2535474e-07 -1.1157847e-06 0.98211234)
(-4.1138702e-06 -2.3111766e-06 0.9821124)
(-1.01743e-06 -1.01743e-06 0.98211332)
(7.078629e-07 7.078629e-07 1.1270676)
(2.0466702e-06 8.6175131e-07 1.1270668)
(8.9052403e-07 1.3621212e-06 1.1270658)
(-2.5735913e-07 1.22521e-06 1.1270663)
(-1.0867157e-07 1.0278101e-06 1.1270663)
(8.6175131e-07 2.0466702e-06 1.1270668)
(3.0280576e-06 3.0280576e-06 1.1270658)
(1.435712e-06 4.6991954e-06 1.1270642)
(-7.588257e-07 4.5424268e-06 1.1270648)
(-3.0607142e-07 3.5728566e-06 1.1270652)
(1.3621212e-06 8.9052403e-07 1.1270658)
(4.6991954e-06 1.435712e-06 1.1270642)
(2.4048932e-06 2.4048932e-06 1.1270617)
(-1.3836979e-06 1.8490241e-06 1.1270619)
(-7.5505168e-07 -4.3697126e-07 1.1270629)
(1.22521e-06 -2.5735913e-07 1.1270663)
(4.5424268e-06 -7.588257e-07 1.1270648)
(1.8490241e-06 -1.3836979e-06 1.1270619)
(-3.6006902e-06 -3.6006902e-06 1.1270621)
(-1.8300683e-06 -3.3827634e-06 1.1270639)
(1.0278101e-06 -1.0867157e-07 1.1270663)
(3.5728566e-06 -3.0607142e-07 1.1270652)
(-4.3697126e-07 -7.5505168e-07 1.1270629)
(-3.3827634e-06 -1.8300683e-06 1.1270639)
(-6.0976718e-07 -6.0976718e-07 1.1270652)
(3.0738148e-07 3.0738148e-07 2.3725413)
(9.2998914e-07 4.3139409e-07 2.3725397)
(4.6800125e-07 6.6433483e-07 2.3725381)
(-2.3471835e-07 5.5317935e-07 2.3725381)
(-1.5586845e-07 4.4443001e-07 2.3725387)
(4.313941e-07 9.2998914e-07 2.3725397)
(1.4654192e-06 1.4654192e-06 2.3725375)
(6.5067913e-07 2.1746162e-06 2.3725347)
(-5.6457558e-07 1.9716187e-06 2.3725353)
(-2.6461779e-07 1.4953998e-06 2.3725364)
(6.6433483e-07 4.6800125e-07 2.3725381)
(2.1746162e-06 6.5067913e-07 2.3725347)
(9.7420077e-07 9.7420077e-07 2.3725306)
(-9.1393482e-07 5.3359655e-07 2.3725312)
(-4.7334774e-07 -7.288229e-07 2.3725333)
(5.5317935e-07 -2.3471835e-07 2.3725381)
(1.9716187e-06 -5.6457557e-07 2.3725353)
(5.3359655e-07 -9.1393482e-07 2.3725312)
(-2.2675993e-06 -2.2675993e-06 2.372533)
(-1.1062308e-06 -1.8223135e-06 2.3725381)
(4.4443001e-07 -1.5586845e-07 2.3725387)
(1.4953998e-06 -2.6461779e-07 2.3725364)
(-7.2882291e-07 -4.7334774e-07 2.3725333)
(-1.8223135e-06 -1.1062308e-06 2.3725381)
(-1.7649057e-07 -1.7649057e-07 2.3725392)
)
;

boundaryField
{
    wall_minX
    {
        type            extrapolatedCalculated;
        value           nonuniform List<vector> 
100
(
(-2.7755576e-13 1.1641294e-07 -0.47876159)
(0 6.8357967e-07 -0.47876088)
(0 3.1948659e-07 -0.47875916)
(0 -3.3342641e-07 -0.47875987)
(0 -9.5968679e-08 -0.47876044)
(0 3.6272272e-07 -0.47377384)
(0 1.5927035e-06 -0.47377315)
(0 5.4278749e-07 -0.47377236)
(0 -9.158829e-07 -0.47377306)
(0 -2.7336732e-07 -0.4737736)
(0 5.7298396e-07 -0.46436593)
(0 2.165739e-06 -0.4643654)
(0 4.0854936e-07 -0.46436497)
(0 -1.5810555e-06 -0.46436585)
(0 -4.5556115e-07 -0.46436646)
(0 7.1622527e-07 -0.44976694)
(0 2.5541436e-06 -0.44976656)
(0 1.0044674e-07 -0.44976625)
(0 -2.4032534e-06 -0.44976725)
(0 -6.8259628e-07 -0.44976794)
(0 8.2655221e-07 -0.42937888)
(0 2.8521148e-06 -0.4293786)
(0 -2.8697274e-07 -0.42937837)
(0 -3.272828e-06 -0.42937944)
(0 -9.157125e-07 -0.42938013)
(0 9.038907e-07 -0.40238219)
(0 3.0627495e-06 -0.40238201)
(0 -7.414731e-07 -0.40238185)
(0 -4.161669e-06 -0.40238296)
(0 -1.1421883e-06 -0.40238361)
(0 9.4789456e-07 -0.36771393)
(0 3.1936013e-06 -0.36771385)
(0 -1.2389082e-06 -0.36771373)
(0 -5.038329e-06 -0.36771484)
(0 -1.3517742e-06 -0.36771543)
(0 9.6259741e-07 -0.32403481)
(0 3.2658746e-06 -0.32403479)
(0 -1.7361523e-06 -0.32403469)
(0 -5.8578322e-06 -0.32403573)
(0 -1.5331342e-06 -0.32403621)
(0 9.5635156e-07 -0.26968172)
(0 3.3113829e-06 -0.26968176)
(0 -2.1736327e-06 -0.26968162)
(0 -6.5606151e-06 -0.2696825)
(0 -1.6734179e-06 -0.26968284)
(0 9.4076555e-07 -0.20260747)
(0 3.3665453e-06 -0.20260751)
(0 -2.4805898e-06 -0.20260731)
(0 -7.0738575e-06 -0.20260792)
(0 -1.7585804e-06 -0.20260807)
(0 9.2845265e-07 -0.1203296)
(0 3.4628865e-06 -0.12032962)
(0 -2.5853045e-06 -0.12032936)
(0 -7.3173537e-06 -0.12032957)
(0 -1.7745611e-06 -0.1203295)
(0 9.2934795e-07 -0.019961027)
(0 3.6139851e-06 -0.019961)
(0 -2.4319058e-06 -0.019960688)
(0 -7.2163416e-06 -0.019960417)
(0 -1.7096485e-06 -0.019960092)
(0 9.4611561e-07 0.10151823)
(0 3.8014444e-06 0.10151829)
(0 -2.0022529e-06 0.10151858)
(0 -6.72169e-06 0.10151939)
(0 -1.5581108e-06 0.10151997)
(0 9.7041386e-07 0.24648742)
(0 3.965996e-06 0.24648747)
(0 -1.33651e-06 0.24648763)
(0 -5.833668e-06 0.24648893)
(0 -1.3245219e-06 0.24648973)
(0 9.8305579e-07 0.41512992)
(0 4.0124807e-06 0.41512991)
(0 -5.4191899e-07 0.41512979)
(0 -4.6210968e-06 0.41513146)
(0 -1.0275206e-06 0.4151324)
(0 9.6162147e-07 0.60305451)
(0 3.8371384e-06 0.60305438)
(0 2.1962072e-07 0.60305388)
(0 -3.2277939e-06 0.60305569)
(0 -7.0180559e-07 0.60305663)
(0 8.9754899e-07 0.79870527)
(0 3.3834537e-06 0.79870505)
(0 7.6868123e-07 0.79870416)
(0 -1.865745e-06 0.79870581)
(0 -3.9819728e-07 0.79870659)
(0 8.1287073e-07 0.98211455)
(0 2.7231122e-06 0.98211426)
(0 9.78025e-07 0.98211321)
(0 -7.9667078e-07 0.98211439)
(0 -1.8059311e-07 0.98211482)
(0 7.078629e-07 1.1270676)
(0 2.0466702e-06 1.1270668)
(0 8.9052403e-07 1.1270658)
(0 -2.5735913e-07 1.1270663)
(0 -1.0867157e-07 1.1270663)
(0 3.0738148e-07 2.3725413)
(0 9.2998914e-07 2.3725397)
(0 4.6800125e-07 2.3725381)
(0 -2.3471835e-07 2.3725381)
(0 -1.5586845e-07 2.3725387)
)
;
    }
    wall_maxX
    {
        type            extrapolatedCalculated;
        value           nonuniform List<vector> 
100
(
(0 1.1724926e-07 -0.47876044)
(0 3.1949451e-07 -0.47875987)
(0 5.1905076e-10 -0.4787594)
(0 -3.4822512e-07 -0.47875997)
(0 -1.3674903e-07 -0.47876078)
(0 2.0972019e-07 -0.4737736)
(0 6.0047206e-07 -0.47377341)
(0 -1.493777e-07 -0.47377322)
(0 -1.0374268e-06 -0.4737739)
(0 -4.0143822e-07 -0.47377466)
(0 2.4766132e-07 -0.46436646)
(0 7.0835344e-07 -0.46436637)
(0 -4.958488e-07 -0.4643663)
(0 -1.7936211e-06 -0.46436718)
(0 -6.4060724e-07 -0.46436788)
(0 2.6786553e-07 -0.44976794)
(0 7.5783463e-07 -0.4497679)
(0 -9.6035696e-07 -0.44976786)
(0 -2.619359e-06 -0.44976884)
(0 -8.6864383e-07 -0.44976951)
(0 2.7374437e-07 -0.42938013)
(0 7.8794881e-07 -0.42938013)
(0 -1.4334787e-06 -0.42938007)
(0 -3.4369892e-06 -0.42938102)
(0 -1.0841188e-06 -0.42938163)
(0 2.6877078e-07 -0.40238361)
(0 8.2570323e-07 -0.40238363)
(0 -1.8501047e-06 -0.40238349)
(0 -4.1842456e-06 -0.40238436)
(0 -1.2743959e-06 -0.40238487)
(0 2.6092484e-07 -0.36771543)
(0 9.083812e-07 -0.36771544)
(0 -2.1562056e-06 -0.36771517)
(0 -4.8173053e-06 -0.36771589)
(0 -1.4294038e-06 -0.36771629)
(0 2.6200075e-07 -0.32403621)
(0 1.0817609e-06 -0.32403617)
(0 -2.3009275e-06 -0.32403573)
(0 -5.3047834e-06 -0.32403626)
(0 -1.5433974e-06 -0.32403653)
(0 2.8650639e-07 -0.26968284)
(0 1.3948243e-06 -0.26968271)
(0 -2.2386643e-06 -0.26968203)
(0 -5.6257705e-06 -0.26968234)
(0 -1.6146943e-06 -0.2696825)
(0 3.4971772e-07 -0.20260807)
(0 1.8908541e-06 -0.2026078)
(0 -1.9369382e-06 -0.20260687)
(0 -5.771499e-06 -0.20260695)
(0 -1.6455222e-06 -0.202607)
(0 4.6418009e-07 -0.1203295)
(0 2.5931156e-06 -0.12032907)
(0 -1.3895011e-06 -0.1203279)
(0 -5.7489892e-06 -0.12032777)
(0 -1.6417617e-06 -0.12032772)
(0 6.3446403e-07 -0.019960092)
(0 3.4853815e-06 -0.019959512)
(0 -6.3302178e-07 -0.019958194)
(0 -5.5847224e-06 -0.019957884)
(0 -1.6120101e-06 -0.01995777)
(0 8.5106605e-07 0.10151997)
(0 4.4917396e-06 0.10152064)
(0 2.3808131e-07 0.10152195)
(0 -5.3252259e-06 0.10152234)
(0 -1.5654444e-06 0.1015225)
(0 1.0858281e-06 0.24648973)
(0 5.4654227e-06 0.24649039)
(0 1.0688222e-06 0.24649144)
(0 -5.0304649e-06 0.24649182)
(0 -1.5084044e-06 0.246492)
(0 1.2921123e-06 0.4151324)
(0 6.1985595e-06 0.41513289)
(0 1.6635671e-06 0.41513339)
(0 -4.7579545e-06 0.41513365)
(0 -1.4407536e-06 0.41513388)
(0 1.4121413e-06 0.60305663)
(0 6.4588939e-06 0.60305679)
(0 1.830057e-06 0.60305649)
(0 -4.5415648e-06 0.60305656)
(0 -1.3539598e-06 0.60305688)
(0 1.394266e-06 0.79870659)
(0 6.0545654e-06 0.79870632)
(0 1.4387408e-06 0.79870509)
(0 -4.3677986e-06 0.79870502)
(0 -1.2289153e-06 0.79870552)
(0 1.2334028e-06 0.98211482)
(0 4.9631841e-06 0.98211427)
(0 5.2535474e-07 0.98211234)
(0 -4.1138702e-06 0.9821124)
(0 -1.01743e-06 0.98211332)
(0 1.0278101e-06 1.1270663)
(0 3.5728566e-06 1.1270652)
(0 -4.3697126e-07 1.1270629)
(0 -3.3827634e-06 1.1270639)
(0 -6.0976718e-07 1.1270652)
(0 4.4443001e-07 2.3725387)
(0 1.4953998e-06 2.3725364)
(0 -7.288229e-07 2.3725333)
(0 -1.8223135e-06 2.3725381)
(0 -1.7649057e-07 2.3725392)
)
;
    }
    wall_minY
    {
        type            extrapolatedCalculated;
        value           nonuniform List<vector> 
100
(
(1.1641294e-07 -2.7755576e-13 -0.47876159)
(3.6272272e-07 0 -0.47377384)
(5.7298396e-07 0 -0.46436593)
(7.1622527e-07 0 -0.44976694)
(8.265522e-07 0 -0.42937888)
(9.038907e-07 0 -0.40238219)
(9.4789456e-07 0 -0.36771393)
(9.6259741e-07 0 -0.32403481)
(9.5635156e-07 0 -0.26968172)
(9.4076554e-07 0 -0.20260747)
(9.2845265e-07 0 -0.1203296)
(9.2934795e-07 0 -0.019961027)
(9.4611561e-07 0 0.10151823)
(9.7041386e-07 0 0.24648742)
(9.8305579e-07 0 0.41512992)
(9.6162147e-07 0 0.60305451)
(8.9754898e-07 0 0.79870527)
(8.1287073e-07 0 0.98211455)
(7.078629e-07 0 1.1270676)
(3.0738148e-07 0 2.3725413)
(6.8357963e-07 -2.7755576e-15 -0.47876088)
(1.5927035e-06 0 -0.47377315)
(2.165739e-06 0 -0.4643654)
(2.5541436e-06 0 -0.44976656)
(2.8521148e-06 0 -0.4293786)
(3.0627495e-06 0 -0.40238201)
(3.1936013e-06 0 -0.36771385)
(3.2658746e-06 0 -0.32403479)
(3.3113829e-06 0 -0.26968176)
(3.3665453e-06 0 -0.20260751)
(3.4628865e-06 0 -0.12032962)
(3.6139851e-06 0 -0.019961)
(3.8014444e-06 0 0.10151829)
(3.965996e-06 0 0.24648747)
(4.0124807e-06 0 0.41512991)
(3.8371384e-06 0 0.60305438)
(3.3834537e-06 0 0.79870505)
(2.7231122e-06 0 0.98211426)
(2.0466702e-06 0 1.1270668)
(9.2998914e-07 0 2.3725397)
(3.194866e-07 -1.6237012e-13 -0.47875916)
(5.4278749e-07 0 -0.47377236)
(4.0854936e-07 0 -0.46436497)
(1.0044674e-07 0 -0.44976625)
(-2.8697274e-07 0 -0.42937837)
(-7.414731e-07 0 -0.40238185)
(-1.2389082e-06 0 -0.36771373)
(-1.7361523e-06 0 -0.32403469)
(-2.1736327e-06 0 -0.26968162)
(-2.4805898e-06 0 -0.20260731)
(-2.5853045e-06 0 -0.12032936)
(-2.4319058e-06 0 -0.019960688)
(-2.0022529e-06 0 0.10151858)