/*--------------------------------*- C++ -*----------------------------------*\
| =========                 |                                                 |
| \\      /  F ield         | OpenFOAM: The Open Source CFD Toolbox           |
|  \\    /   O peration     | Version:  v2106                                 |
|   \\  /    A nd           | Website:  www.openfoam.com                      |
|    \\/     M anipulation  |                                                 |
\*---------------------------------------------------------------------------*/
FoamFile
{
    version     2.0;
    format      ascii;
    arch        "LSB;label=32;scalar=64";
    class       volScalarField;
    location    "50";
    object      Tmode_lapla4;
}
// * * * * * * * * * * * * * * * * * * * * * * * * * * * * * * * * * * * * * //

dimensions      [0 -2 0 0 0 0 0];

internalField   nonuniform List<scalar> 
500
(
10.6441
10.4971
10.6039
10.5984
10.5951
10.4971
10.5177
10.5849
10.5764
10.5723
10.6039
10.5849
10.6533
10.6417
10.615
10.5984
10.5764
10.6417
10.6314
10.6061
10.5951
10.5723
10.615
10.6061
10.5812
29.4532
29.1966
29.4007
29.3868
29.39
29.1966
29.2233
29.3533
29.3218
29.3353
29.4007
29.3533
29.4851
29.4429
29.4032
29.3868
29.3218
29.4429
29.4039
29.3671
29.39
29.3353
29.4032
29.3671
29.3438
41.2436
40.9474
41.2159
41.183
41.2115
40.9474
41.0067
41.1749
41.0979
41.1333
41.2159
41.1749
41.3472
41.2542
41.2143
41.183
41.0979
41.2542
41.1663
41.129
41.2115
41.1333
41.2143
41.129
41.1616
42.7969
42.4555
42.781
42.7204
42.7579
42.4555
42.5356
42.7373
42.6087
42.6585
42.781
42.7373
42.9458
42.7967
42.7506
42.7204
42.6087
42.7967
42.6545
42.6075
42.7579
42.6585
42.7506
42.6075
42.7057
32.723
32.3454
32.7199
32.6325
32.6776
32.3454
32.4445
32.6754
32.4972
32.56
32.7199
32.6754
32.9162
32.7139
32.6625
32.6325
32.4972
32.7139
32.5211
32.4639
32.6776
32.56
32.6625
32.4639
32.6261
12.3361
11.934
12.3468
12.2351
12.2867
11.934
12.049
12.3047
12.0813
12.1547
12.3468
12.3047
12.5735
12.3234
12.2667
12.2351
12.0813
12.3234
12.0855
12.0169
12.2867
12.1547
12.2667
12.0169
12.2378
-13.9945
-14.4078
-13.9702
-14.1009
-14.0445
-14.4078
-14.2819
-14.0057
-14.267
-14.1859
-13.9702
-14.0057
-13.714
-14.004
-14.0659
-14.1009
-14.267
-14.004
-14.2796
-14.3616
-14.0445
-14.1859
-14.0659
-14.3616
-14.0891
-39.0904
-39.5003
-39.054
-39.1959
-39.1366
-39.5003
-39.3705
-39.0784
-39.3674
-39.282
-39.054
-39.0784
-38.7702
-39.0899
-39.1565
-39.1959
-39.3674
-39.0899
-39.3943
-39.4915
-39.1366
-39.282
-39.1565
-39.4915
-39.1761
-54.2211
-54.6128
-54.1756
-54.3188
-54.2593
-54.6128
-54.4874
-54.1848
-54.4889
-54.4027
-54.1756
-54.1848
-53.8686
-54.2055
-54.2759
-54.3188
-54.4889
-54.2055
-54.529
-54.6424
-54.2593
-54.4027
-54.2759
-54.6424
-54.2936
-51.6082
-51.9675
-51.5582
-51.6916
-51.6348
-51.9675
-51.856
-51.5497
-51.8542
-51.7705
-51.5582
-51.5497
-51.2362
-51.5767
-51.6487
-51.6916
-51.8542
-51.5767
-51.9088
-52.0375
-51.6348
-51.7705
-51.6487
-52.0375
-51.6647
-27.9587
-28.274
-27.9098
-28.0227
-27.972
-28.274
-28.1845
-27.8834
-28.1732
-28.095
-27.9098
-27.8834
-27.5859
-27.9161
-27.9864
-28.0227
-28.1732
-27.9161
-28.2468
-28.3862
-27.972
-28.095
-27.9864
-28.3862
-27.9985
12.002
11.7382
12.0439
11.9597
12.001
11.7382
11.8003
12.0852
11.8239
11.8947
12.0439
12.0852
12.3519
12.0447
11.9807
11.9597
11.8239
12.0447
11.7246
11.5831
12.001
11.8947
11.9807
11.5831
11.9773
53.9917
53.7821
54.0227
53.9705
53.9999
53.7821
53.8165
54.0726
53.85
53.9125
54.0227
54.0726
54.2939
54.0195
53.9669
53.9705
53.85
54.0195
53.7179
53.5867
53.9999
53.9125
53.9669
53.5867
53.9794
77.1155
76.9578
77.1351
77.1118
77.128
76.9578
76.9704
77.1852
77.0059
77.06
77.1351
77.1852
77.3488
77.1128
77.076
77.1118
77.0059
77.1128
76.8354
76.7297
77.128
77.06
77.076
76.7297
77.1124
62.7281
62.616
62.74
62.7361
62.7395
62.616
62.6188
62.7812
62.643
62.6893
62.74
62.7812
62.8803
62.6827
62.6643
62.7361
62.643
62.6827
62.4332
62.3677
62.7395
62.6893
62.6643
62.3677
62.7313
7.17549
7.10165
7.18783
7.18865
7.18143
7.10165
7.10978
7.21316
7.10726
7.14629
7.18783
7.21316
7.24791
7.08381
7.0832
7.18865
7.10726
7.08381
6.86371
6.84932
7.18143
7.14629
7.0832
6.84932
7.18353
-68.8006
-68.8421
-68.7777
-68.7877
-68.8018
-68.8421
-68.8149
-68.7696
-68.8563
-68.8246
-68.7777
-68.7696
-68.7901
-68.9286
-68.9155
-68.7877
-68.8563
-68.9286
-69.1186
-69.0783
-68.8018
-68.8246
-68.9155
-69.0783
-68.7841
-124.183
-124.197
-124.145
-124.174
-124.189
-124.197
-124.148
-124.146
-124.223
-124.199
-124.145
-124.146
-124.201
-124.317
-124.298
-124.174
-124.223
-124.317
-124.472
-124.384
-124.189
-124.199
-124.298
-124.384
-124.139
-120.109
-120.098
-120.071
-120.112
-120.121
-120.098
-120.064
-120.087
-120.15
-120.134
-120.071
-120.087
-120.151
-120.236
-120.224
-120.112
-120.15
-120.236
-120.34
-120.232
-120.121
-120.134
-120.224
-120.232
-120.061
467.293
467.313
467.306
467.269
467.28
467.313
467.323
467.289
467.251
467.277
467.306
467.289
467.234
467.188
467.21
467.269
467.251
467.188
467.136
467.254
467.28
467.277
467.21
467.254
467.349
)
;

boundaryField
{
    wall_minX
    {
        type            extrapolatedCalculated;
        value           nonuniform List<scalar> 
100
(
10.6441
10.4971
10.6039
10.5984
10.5951
29.4532
29.1966
29.4007
29.3868
29.39
41.2436
40.9474
41.2159
41.183
41.2115
42.7969
42.4555
42.781
42.7204
42.7579
32.723
32.3454
32.7199
32.6325
32.6776
12.3361
11.934
12.3468
12.2351
12.2867
-13.9945
-14.4078
-13.9702
-14.1009
-14.0445
-39.0904
-39.5003
-39.054
-39.1959
-39.1366
-54.2211
-54.6128
-54.1756
-54.3188
-54.2593
-51.6082
-51.9675
-51.5582
-51.6916
-51.6348
-27.9587
-28.274
-27.9098
-28.0227
-27.972
12.002
11.7382
12.0439
11.9597
12.001
53.9917
53.7821
54.0227
53.9705
53.9999
77.1155
76.9578
77.1351
77.1118
77.128
62.7281
62.616
62.74
62.7361
62.7395
7.17549
7.10165
7.18783
7.18865
7.18143
-68.8006
-68.8421
-68.7777
-68.7877
-68.8018
-124.183
-124.197
-124.145
-124.174
-124.189
-120.109
-120.098
-120.071
-120.112
-120.121
467.293
467.313
467.306
467.269
467.28
)
;
    }
    wall_maxX
    {
        type            extrapolatedCalculated;
        value           nonuniform List<scalar> 
100
(
10.5951
10.5723
10.615
10.6061
10.5812
29.39
29.3353
29.4032
29.3671
29.3438
41.2115
41.1333
41.2143
41.129
41.1616
42.7579
42.6585
42.7506
42.6075
42.7057
32.6776
32.56
32.6625
32.4639
32.6261
12.2867
12.1547
12.2667
12.0169
12.2378
-14.0445
-14.1859
-14.0659
-14.3616
-14.0891
-39.1366
-39.282
-39.1565
-39.4915
-39.1761
-54.2593
-54.4027
-54.2759
-54.6424
-54.2936
-51.6348
-51.7705
-51.6487
-52.0375
-51.6647
-27.972
-28.095
-27.9864
-28.3862
-27.9985
12.001
11.8947
11.9807
11.5831
11.9773
53.9999
53.9125
53.9669
53.5867
53.9794
77.128
77.06
77.076
76.7297
77.1124
62.7395
62.6893
62.6643
62.3677
62.7313
7.18143
7.14629
7.0832
6.84932
7.18353
-68.8018
-68.8246
-68.9155
-69.0783
-68.7841
-124.189
-124.199
-124.298
-124.384
-124.139
-120.121
-120.134
-120.224
-120.232
-120.061
467.28
467.277
467.21
467.254
467.349
)
;
    }
    wall_minY
    {
        type            extrapolatedCalculated;
        value           nonuniform List<scalar> 
100
(
10.6441
29.4532
41.2436
42.7969
32.723
12.3361
-13.9945
-39.0904
-54.2211
-51.6082
-27.9587
12.002
53.9917
77.1155
62.7281
7.17549
-68.8006
-124.183
-120.109
467.293
10.4971
29.1966
40.9474
42.4555
32.3454
11.934
-14.4078
-39.5003
-54.6128
-51.9675
-28.274
11.7382
53.7821
76.9578
62.616
7.10165
-68.8421
-124.197
-120.098
467.313
10.6039
29.4007
41.2159
42.781
32.7199
12.3468
-13.9702
-39.054
-54.1756
-51.5582
-27.9098
12.0439
54.0227
77.1351
62.74
7.18783
-68.7777
-124.145
-120.071
467.306
10.5984
29.3868
41.183
42.7204
32.6325
12.2351
-14.1009
-39.1959
-54.3188
-51.6916
-28.0227
11.9597
53.9705
77.1118
62.7361
7.18865
-68.7877
-124.174
-120.112
467.269
10.5951
29.39
41.2115
42.7579
32.6776
12.2867
-14.0445
-39.1366
-54.2593
-51.6348
-27.972
12.001
53.9999
77.128
62.7395
7.18143
-68.8018
-124.189
-120.121
467.28
)
;
    }
    wall_maxY
    {
        type            extrapolatedCalculated;
        value           nonuniform List<scalar> 
100
(
10.5951
29.39
41.2115
42.7579
32.6776
12.2867
-14.0445
-39.1366
-54.2593
-51.6348
-27.972
12.001
53.9999
77.128
62.7395
7.18143
-68.8018
-124.189
-120.121
467.28
10.5723
29.3353
41.1333
42.6585
32.56
12.1547
-14.1859
-39.282
-54.4027
-51.7705
-28.095
11.8947
53.9125
77.06
62.6893
7.14629
-68.8246
-124.199
-120.134
467.277
10.615
29.4032
41.2143
42.7506
32.6625
12.2667
-14.0659
-39.1565
-54.2759
-51.6487
-27.9864
11.9807
53.9669
77.076
62.6643
7.0832
-68.9155
-124.298
-120.224
467.21
10.6061
29.3671
41.129
42.6075
32.4639
12.0169
-14.3616
-39.4915
-54.6424
-52.0375
-28.3862
11.5831
53.5867
76.7297
62.3677
6.84932
-69.0783
-124.384
-120.232
467.254
10.5812
29.3438
41.1616
42.7057
32.6261
12.2378
-14.0891
-39.1761
-54.2936
-51.6647
-27.9985
11.9773
53.9794
77.1124
62.7313
7.18353
-68.7841
-124.139
-120.061
467.349
)
;
    }
    inlet_minZ
    {
        type            extrapolatedCalculated;
        value           nonuniform List<scalar> 
25
(
10.6441
10.4971
10.6039
10.5984
10.5951
10.4971
10.5177
10.5849
10.5764
10.5723
10.6039
10.5849
10.6533
10.6417
10.615
10.5984
10.5764
10.6417
10.6314
10.6061
10.5951
10.5723
10.615
10.6061
10.5812
)
;
    }
    outlet_maxZ
    {
        type            extrapolatedCalculated;
        value           nonuniform List<scalar> 
25
(
467.293
467.313
467.306
467.269
467.28
467.313
467.323
467.289
467.251
467.277
467.306
467.289
467.234
467.188
467.21
467.269
467.251
467.188
467.136
467.254
467.28
467.277
467.21
467.254
467.349
)
;
    }
}


// ************************************************************************* //
