/*--------------------------------*- C++ -*----------------------------------*\
| =========                 |                                                 |
| \\      /  F ield         | OpenFOAM: The Open Source CFD Toolbox           |
|  \\    /   O peration     | Version:  v2106                                 |
|   \\  /    A nd           | Website:  www.openfoam.com                      |
|    \\/     M anipulation  |                                                 |
\*---------------------------------------------------------------------------*/
FoamFile
{
    version     2.0;
    format      ascii;
    arch        "LSB;label=32;scalar=64";
    class       volVectorField;
    location    "50";
    object      Tmode_grad0;
}
// * * * * * * * * * * * * * * * * * * * * * * * * * * * * * * * * * * * * * //

dimensions      [0 -1 0 0 0 0 0];

internalField   nonuniform List<vector> 
500
(
(-4.3372981e-09 -4.3372973e-09 -0.04651019)
(4.5216156e-08 1.8602453e-08 -0.046510197)
(7.6520475e-08 1.8658138e-08 -0.046510006)
(3.0354258e-08 1.4319092e-08 -0.046509916)
(3.7031289e-09 9.8974141e-09 -0.046509896)
(1.8602455e-08 4.5216156e-08 -0.046510197)
(7.9708116e-08 7.9708117e-08 -0.04651009)
(7.009543e-08 7.2968793e-08 -0.046509902)
(1.7213173e-08 5.6678188e-08 -0.046509839)
(-7.1854918e-10 3.8581932e-08 -0.046509845)
(1.8658138e-08 7.6520474e-08 -0.046510006)
(7.2968793e-08 7.009543e-08 -0.046509902)
(5.3490546e-08 5.3490546e-08 -0.046509742)
(-4.0326028e-09 3.572117e-08 -0.046509718)
(-8.3610414e-09 1.8859639e-08 -0.046509767)
(1.4319092e-08 3.0354258e-08 -0.046509916)
(5.6678187e-08 1.7213173e-08 -0.046509839)
(3.572117e-08 -4.0326028e-09 -0.046509718)
(-1.7417734e-08 -1.7417735e-08 -0.046509725)
(-1.195957e-08 -2.4091102e-08 -0.046509794)
(9.8974141e-09 3.7031288e-09 -0.046509896)
(3.8581932e-08 -7.1854914e-10 -0.046509845)
(1.8859638e-08 -8.3610413e-09 -0.046509767)
(-2.4091102e-08 -1.195957e-08 -0.046509794)
(-1.2809953e-08 -1.2809953e-08 -0.046509866)
(6.3305952e-09 6.3305951e-09 -0.046705333)
(1.4000061e-07 5.1204593e-08 -0.046705286)
(1.91344e-07 4.8305949e-08 -0.046705151)
(7.3984861e-08 3.4070801e-08 -0.046705098)
(8.7637183e-09 2.1449279e-08 -0.046705091)
(5.1204593e-08 1.4000061e-07 -0.046705286)
(2.0296364e-07 2.0296364e-07 -0.046705191)
(1.6564331e-07 1.7777345e-07 -0.046705067)
(3.3699856e-08 1.2750841e-07 -0.046705048)
(-3.8578046e-09 7.7782654e-08 -0.046705067)
(4.8305949e-08 1.91344e-07 -0.046705151)
(1.7777345e-07 1.6564332e-07 -0.046705067)
(1.1588877e-07 1.1588877e-07 -0.046704973)
(-2.6005932e-08 6.4384737e-08 -0.046704991)
(-2.4386784e-08 1.9848073e-08 -0.046705046)
(3.4070801e-08 7.3984861e-08 -0.046705098)
(1.2750841e-07 3.3699856e-08 -0.046705048)
(6.4384737e-08 -2.6005932e-08 -0.046704991)
(-6.2340839e-08 -6.2340839e-08 -0.046705036)
(-3.3548914e-08 -7.5179832e-08 -0.046705104)
(2.1449279e-08 8.7637182e-09 -0.046705091)
(7.7782654e-08 -3.8578047e-09 -0.046705067)
(1.9848073e-08 -2.4386784e-08 -0.046705046)
(-7.5179832e-08 -3.3548914e-08 -0.046705104)
(-3.2946113e-08 -3.2946113e-08 -0.046705156)
(2.691231e-08 2.6912311e-08 -0.047065212)
(2.2788033e-07 8.2210989e-08 -0.047065157)
(2.6448383e-07 7.4010307e-08 -0.047065061)
(8.9727628e-08 4.7745136e-08 -0.047065046)
(8.503775e-09 2.58146e-08 -0.047065059)
(8.2210989e-08 2.2788033e-07 -0.047065157)
(2.9852732e-07 2.9852732e-07 -0.047065075)
(2.1278505e-07 2.5058207e-07 -0.047064996)
(1.7434068e-08 1.6393163e-07 -0.047065017)
(-1.342676e-08 8.417454e-08 -0.047065054)
(7.4010307e-08 2.6448383e-07 -0.047065061)
(2.5058206e-07 2.1278505e-07 -0.047064996)
(1.2988813e-07 1.2988813e-07 -0.047064947)
(-7.6679897e-08 4.7497783e-08 -0.047065002)
(-4.4667618e-08 -1.7689239e-08 -0.047065069)
(4.7745136e-08 8.9727628e-08 -0.047065046)
(1.6393163e-07 1.7434068e-08 -0.047065017)
(4.7497783e-08 -7.6679898e-08 -0.047065002)
(-1.3014331e-07 -1.301433e-07 -0.047065081)
(-5.6884775e-08 -1.3420255e-07 -0.047065155)
(2.58146e-08 8.5037748e-09 -0.047065059)
(8.417454e-08 -1.3426761e-08 -0.047065054)
(-1.7689239e-08 -4.4667618e-08 -0.047065069)
(-1.3420255e-07 -5.6884775e-08 -0.047065155)
(-4.7373783e-08 -4.7373783e-08 -0.047065195)
(4.3072477e-08 4.3072477e-08 -0.047604055)
(2.9052459e-07 1.0557672e-07 -0.047604013)
(3.0171673e-07 9.1696486e-08 -0.04760395)
(7.6736453e-08 5.3835687e-08 -0.047603963)
(6.2373164e-10 2.4317098e-08 -0.047603992)
(1.0557672e-07 2.9052459e-07 -0.047604013)
(3.634606e-07 3.634606e-07 -0.047603952)
(2.2410519e-07 2.9257455e-07 -0.047603906)
(-2.4332629e-08 1.716667e-07 -0.047603952)
(-2.8894858e-08 6.7139895e-08 -0.047604002)
(9.1696486e-08 3.0171673e-07 -0.04760395)
(2.9257455e-07 2.2410519e-07 -0.047603906)
(1.0992283e-07 1.0992283e-07 -0.047603888)
(-1.486982e-07 -2.832193e-11 -0.047603966)
(-6.9060806e-08 -8.0576426e-08 -0.047604041)
(5.3835687e-08 7.6736453e-08 -0.047603963)
(1.716667e-07 -2.4332629e-08 -0.047603952)
(-2.8322017e-11 -1.486982e-07 -0.047603966)
(-2.1483188e-07 -2.1483188e-07 -0.047604064)
(-8.2593594e-08 -2.0143384e-07 -0.047604141)
(2.4317098e-08 6.2373148e-10 -0.047603992)
(6.7139895e-08 -2.8894858e-08 -0.047604002)
(-8.0576426e-08 -6.9060806e-08 -0.047604041)
(-2.0143384e-07 -8.2593594e-08 -0.047604141)
(-6.0128775e-08 -6.0128775e-08 -0.047604179)
(5.4956997e-08 5.4956997e-08 -0.048320637)
(3.326341e-07 1.2267109e-07 -0.048320606)
(3.1449867e-07 1.0347568e-07 -0.048320569)
(4.764174e-08 5.4991734e-08 -0.048320598)
(-1.110555e-08 1.9035873e-08 -0.048320635)
(1.2267109e-07 3.326341e-07 -0.048320606)
(4.0541213e-07 4.0541213e-07 -0.048320563)
(2.1297963e-07 3.1312703e-07 -0.04832054)
(-7.9017973e-08 1.6109372e-07 -0.048320599)
(-4.7061411e-08 3.565337e-08 -0.048320655)
(1.0347568e-07 3.1449867e-07 -0.048320569)
(3.1312703e-07 2.1297963e-07 -0.04832054)
(7.0180264e-08 7.0180264e-08 -0.048320543)
(-2.2983192e-07 -6.4122784e-08 -0.048320631)
(-9.4732452e-08 -1.5635769e-07 -0.048320707)
(5.4991734e-08 4.764174e-08 -0.048320598)
(1.6109372e-07 -7.9017973e-08 -0.048320599)
(-6.4122785e-08 -2.2983192e-07 -0.048320631)
(-3.0555592e-07 -3.0555592e-07 -0.048320735)
(-1.0855135e-07 -2.7222436e-07 -0.048320811)
(1.9035874e-08 -1.110555e-08 -0.048320635)
(3.565337e-08 -4.7061411e-08 -0.048320655)
(-1.5635769e-07 -9.4732452e-08 -0.048320707)
(-2.7222436e-07 -1.0855135e-07 -0.048320811)
(-7.2511406e-08 -7.2511406e-08 -0.048320847)
(6.3630378e-08 6.3630378e-08 -0.049213214)
(3.5891586e-07 1.3464092e-07 -0.049213192)
(3.1051432e-07 1.1074078e-07 -0.049213174)
(1.0310015e-08 5.283775e-08 -0.049213212)
(-2.4489343e-08 1.1450785e-08 -0.049213253)
(1.3464092e-07 3.5891586e-07 -0.049213192)
(4.2958146e-07 4.2958146e-07 -0.049213162)
(1.8780956e-07 3.1812036e-07 -0.049213158)
(-1.3862497e-07 1.3858406e-07 -0.049213222)
(-6.5876309e-08 -4.2776398e-09 -0.049213277)
(1.1074078e-07 3.1051432e-07 -0.049213174)
(3.1812036e-07 1.8780956e-07 -0.049213158)
(1.9516926e-08 1.9516926e-08 -0.049213177)
(-3.1208799e-07 -1.3600041e-07 -0.049213265)
(-1.1973048e-07 -2.3706736e-07 -0.049213337)
(5.283775e-08 1.0310015e-08 -0.049213212)
(1.3858406e-07 -1.3862497e-07 -0.049213222)
(-1.3600041e-07 -3.1208799e-07 -0.049213265)
(-3.9520926e-07 -3.9520926e-07 -0.049213368)
(-1.3325427e-07 -3.4197867e-07 -0.049213439)
(1.1450785e-08 -2.4489343e-08 -0.049213253)
(-4.2776396e-09 -6.5876309e-08 -0.049213277)
(-2.3706736e-07 -1.1973048e-07 -0.049213337)
(-3.4197867e-07 -1.3325427e-07 -0.049213439)
(-8.4243422e-08 -8.4243422e-08 -0.049213472)
(6.9728292e-08 6.9728292e-08 -0.050279532)
(3.7206036e-07 1.4205567e-07 -0.050279517)
(2.9416424e-07 1.1415699e-07 -0.050279518)
(-3.071241e-08 4.8233734e-08 -0.05027956)
(-3.8272484e-08 2.4708141e-09 -0.050279601)
(1.4205567e-07 3.7206036e-07 -0.050279517)
(4.3870341e-07 4.3870341e-07 -0.050279501)
(1.5343134e-07 3.1064191e-07 -0.050279513)
(-1.9824167e-07 1.0770276e-07 -0.050279577)
(-8.4035403e-08 -4.8934275e-08 -0.050279629)
(1.1415699e-07 2.9416424e-07 -0.050279518)
(3.1064191e-07 1.5343134e-07 -0.050279513)
(-3.6836412e-08 -3.6836412e-08 -0.050279543)
(-3.9028859e-07 -2.1026805e-07 -0.050279628)
(-1.4269717e-07 -3.1747345e-07 -0.050279692)
(4.8233733e-08 -3.071241e-08 -0.05027956)
(1.0770276e-07 -1.9824167e-07 -0.050279577)
(-2.1026805e-07 -3.9028859e-07 -0.050279628)
(-4.7887871e-07 -4.7887871e-07 -0.050279724)
(-1.5550567e-07 -4.0690217e-07 -0.050279786)
(2.4708141e-09 -3.8272483e-08 -0.050279601)
(-4.8934275e-08 -8.4035403e-08 -0.050279629)
(-3.1747345e-07 -1.4269717e-07 -0.050279692)
(-4.0690217e-07 -1.5550567e-07 -0.050279786)
(-9.4712814e-08 -9.4712814e-08 -0.050279814)
(7.3541392e-08 7.3541392e-08 -0.05151683)
(3.7343818e-07 1.451641e-07 -0.051516822)
(2.6792874e-07 1.1400351e-07 -0.051516838)
(-7.2715611e-08 4.1639653e-08 -0.051516883)
(-5.1678842e-08 -7.3507921e-09 -0.051516922)
(1.451641e-07 3.7343818e-07 -0.051516822)
(4.3413135e-07 4.3413135e-07 -0.051516819)
(1.1264207e-07 2.9227189e-07 -0.051516844)
(-2.5474706e-07 7.0520925e-08 -0.051516905)
(-1.0066929e-07 -9.5949671e-08 -0.051516952)
(1.1400351e-07 2.6792874e-07 -0.051516838)
(2.9227189e-07 1.1264207e-07 -0.051516844)
(-9.5681685e-08 -9.5681685e-08 -0.051516885)
(-4.6093717e-07 -2.8340977e-07 -0.051516962)
(-1.6265924e-07 -3.939507e-07 -0.051517016)
(4.1639653e-08 -7.2715611e-08 -0.051516883)
(7.0520924e-08 -2.5474706e-07 -0.051516905)
(-2.8340977e-07 -4.6093717e-07 -0.051516962)
(-5.5301607e-07 -5.5301607e-07 -0.051517048)
(-1.7436324e-07 -4.6406916e-07 -0.051517098)
(-7.3507921e-09 -5.1678842e-08 -0.051516922)
(-9.5949671e-08 -1.0066929e-07 -0.051516952)
(-3.939507e-07 -1.6265924e-07 -0.051517016)
(-4.6406916e-07 -1.7436324e-07 -0.051517098)
(-1.033613e-07 -1.033613e-07 -0.051517121)
(7.5169512e-08 7.5169512e-08 -0.052921882)
(3.6376924e-07 1.4409123e-07 -0.052921881)
(2.332771e-07 1.1038713e-07 -0.052921912)
(-1.1403541e-07 3.3321285e-08 -0.052921957)
(-6.419836e-08 -1.7657765e-08 -0.052921993)
(1.4409123e-07 3.6376924e-07 -0.052921881)
(4.1659566e-07 4.1659566e-07 -0.05292189)
(6.712219e-08 2.6388556e-07 -0.052921928)
(-3.0610275e-07 2.8386078e-08 -0.052921985)
(-1.1517741e-07 -1.4368012e-07 -0.052922024)
(1.1038713e-07 2.332771e-07 -0.052921912)
(2.6388556e-07 6.712219e-08 -0.052921928)
(-1.5493248e-07 -1.5493248e-07 -0.052921978)
(-5.2160109e-07 -3.5293903e-07 -0.052922045)
(-1.7890916e-07 -4.6382018e-07 -0.052922088)
(3.3321285e-08 -1.1403541e-07 -0.052921957)
(2.8386078e-08 -3.0610275e-07 -0.052921985)
(-3.5293903e-07 -5.2160109e-07 -0.052922045)
(-6.1499045e-07 -6.1499045e-07 -0.052922118)
(-1.8909818e-07 -5.112578e-07 -0.052922155)
(-1.7657765e-08 -6.419836e-08 -0.052921993)
(-1.4368012e-07 -1.1517741e-07 -0.052922024)
(-4.6382018e-07 -1.7890916e-07 -0.052922088)
(-5.112578e-07 -1.8909818e-07 -0.052922155)
(-1.0975406e-07 -1.0975406e-07 -0.052922171)
(7.463087e-08 7.4630871e-08 -0.054491105)
(3.4356998e-07 1.3896343e-07 -0.05449111)
(1.9121469e-07 1.0337273e-07 -0.054491156)
(-1.5362719e-07 2.3471602e-08 -0.054491201)
(-7.5478798e-08 -2.8186668e-08 -0.054491232)
(1.3896343e-07 3.4356998e-07 -0.05449111)
(3.8668277e-07 3.8668277e-07 -0.054491131)
(1.7976941e-08 2.2614391e-07 -0.054491181)
(-3.5096628e-07 -1.7613858e-08 -0.054491232)
(-1.2713707e-07 -1.9079964e-07 -0.054491264)
(1.0337273e-07 1.9121469e-07 -0.054491156)
(2.261439e-07 1.7976941e-08 -0.054491181)
(-2.1308194e-07 -2.1308194e-07 -0.05449124)
(-5.7057073e-07 -4.1690346e-07 -0.054491295)
(-1.9093599e-07 -5.249311e-07 -0.054491325)
(2.3471602e-08 -1.5362719e-07 -0.054491201)
(-1.7613859e-08 -3.5096628e-07 -0.054491232)
(-4.1690346e-07 -5.7057073e-07 -0.054491295)
(-6.6281544e-07 -6.6281544e-07 -0.054491353)
(-1.9915549e-07 -5.4675955e-07 -0.054491375)
(-2.8186668e-08 -7.5478798e-08 -0.054491232)
(-1.9079964e-07 -1.2713707e-07 -0.054491264)
(-5.249311e-07 -1.9093599e-07 -0.054491325)
(-5.4675955e-07 -1.9915549e-07 -0.054491375)
(-1.135654e-07 -1.135654e-07 -0.054491383)
(7.1941308e-08 7.1941309e-08 -0.056220589)
(3.13464e-07 1.2999311e-07 -0.0562206)
(1.426513e-07 9.3080488e-08 -0.056220658)
(-1.9079035e-07 1.2299746e-08 -0.056220703)
(-8.5259746e-08 -3.8688436e-08 -0.05622073)
(1.2999311e-07 3.13464e-07 -0.0562206)
(3.4517277e-07 3.4517277e-07 -0.056220632)
(-3.3888736e-08 1.7985324e-07 -0.056220694)
(-3.8844374e-07 -6.631228e-08 -0.056220738)
(-1.3624793e-07 -2.3599851e-07 -0.056220761)
(9.3080487e-08 1.426513e-07 -0.056220658)
(1.7985324e-07 -3.3888736e-08 -0.056220694)
(-2.6883374e-07 -2.6883374e-07 -0.056220758)
(-6.066421e-07 -4.7353744e-07 -0.056220801)
(-1.983839e-07 -5.7535681e-07 -0.056220816)
(1.2299746e-08 -1.9079035e-07 -0.056220703)
(-6.631228e-08 -3.8844373e-07 -0.056220738)
(-4.7353744e-07 -6.066421e-07 -0.056220801)
(-6.949668e-07 -6.949668e-07 -0.056220842)
(-2.0412751e-07 -5.6922227e-07 -0.056220849)
(-3.8688436e-08 -8.5259746e-08 -0.05622073)
(-2.3599851e-07 -1.3624793e-07 -0.056220761)
(-5.7535681e-07 -1.983839e-07 -0.056220816)
(-5.6922227e-07 -2.0412751e-07 -0.056220849)
(-1.1455421e-07 -1.1455421e-07 -0.056220847)
(6.7182872e-08 6.7182872e-08 -0.05810561)
(2.7443042e-07 1.1754159e-07 -0.058105627)
(8.8710735e-08 7.977567e-08 -0.058105695)
(-2.2492385e-07 1.132868e-10 -0.058105738)
(-9.3318985e-08 -4.8855992e-08 -0.058105759)
(1.1754159e-07 2.7443042e-07 -0.058105627)
(2.9331961e-07 2.9331962e-07 -0.058105668)
(-8.7431721e-08 1.2629078e-07 -0.058105739)
(-4.1787134e-07 -1.1616168e-07 -0.058105776)
(-1.4228826e-07 -2.7771672e-07 -0.058105789)
(7.977567e-08 8.8710735e-08 -0.058105695)
(1.2629078e-07 -8.7431721e-08 -0.058105739)
(-3.2077056e-07 -3.2077056e-07 -0.058105807)
(-6.2893135e-07 -5.2096108e-07 -0.058105837)
(-2.0102234e-07 -6.1314004e-07 -0.058105837)
(1.1328693e-10 -2.2492385e-07 -0.058105738)
(-1.1616168e-07 -4.1787135e-07 -0.058105776)
(-5.2096108e-07 -6.2893135e-07 -0.058105837)
(-7.1024083e-07 -7.1024083e-07 -0.058105859)
(-2.0374091e-07 -5.7752772e-07 -0.05810585)
(-4.8855992e-08 -9.3318985e-08 -0.058105759)
(-2.7771672e-07 -1.4228826e-07 -0.058105789)
(-6.1314004e-07 -2.0102234e-07 -0.058105837)
(-5.7752772e-07 -2.0374091e-07 -0.05810585)
(-1.1254694e-07 -1.1254694e-07 -0.058105839)
(6.0570568e-08 6.0570568e-08 -0.0601386)
(2.2802263e-07 1.0216661e-07 -0.060138622)
(3.1039644e-08 6.3956391e-08 -0.060138698)
(-2.5524996e-07 -1.2599741e-08 -0.060138739)
(-9.9415216e-08 -5.8251678e-08 -0.060138753)
(1.0216661e-07 2.2802263e-07 -0.060138622)
(2.3310136e-07 2.3310137e-07 -0.060138671)
(-1.4110989e-07 6.7520888e-08 -0.060138748)
(-4.3856206e-07 -1.64948e-07 -0.060138776)
(-1.4506715e-07 -3.1389707e-07 -0.06013878)
(6.3956391e-08 3.1039644e-08 -0.060138698)
(6.7520887e-08 -1.4110989e-07 -0.060138748)
(-3.6700973e-07 -3.6700973e-07 -0.060138818)
(-6.3666792e-07 -5.5689646e-07 -0.060138832)
(-1.9871459e-07 -6.360732e-07 -0.060138818)
(-1.2599741e-08 -2.5524996e-07 -0.060138739)
(-1.64948e-07 -4.3856206e-07 -0.060138776)
(-5.5689646e-07 -6.3666792e-07 -0.060138832)
(-7.0762554e-07 -7.0762554e-07 -0.060138834)
(-1.9785165e-07 -5.7069635e-07 -0.060138808)
(-5.8251678e-08 -9.9415217e-08 -0.060138753)
(-3.1389707e-07 -1.4506715e-07 -0.06013878)
(-6.360732e-07 -1.9871459e-07 -0.060138818)
(-5.7069635e-07 -1.9785165e-07 -0.060138808)
(-1.0742847e-07 -1.0742847e-07 -0.060138788)
(5.2513959e-08 5.2513959e-08 -0.062303907)
(1.7655439e-07 8.4652691e-08 -0.062303932)
(-2.7874619e-08 4.6428965e-08 -0.062304012)
(-2.8048736e-07 -2.5096892e-08 -0.062304048)
(-1.0321953e-07 -6.623931e-08 -0.062304055)
(8.4652691e-08 1.7655439e-07 -0.062303932)
(1.674269e-07 1.674269e-07 -0.062303987)
(-1.9249899e-07 6.6705024e-09 -0.062304065)
(-4.4948978e-07 -2.0955359e-07 -0.062304083)
(-1.4436195e-07 -3.4178285e-07 -0.062304075)
(4.6428965e-08 -2.7874619e-08 -0.062304012)
(6.6705025e-09 -1.9249899e-07 -0.062304065)
(-4.0485511e-07 -4.0485511e-07 -0.062304131)
(-6.2894072e-07 -5.7842307e-07 -0.062304129)
(-1.9137237e-07 -6.4153629e-07 -0.062304099)
(-2.5096892e-08 -2.8048736e-07 -0.062304048)
(-2.0955359e-07 -4.4948978e-07 -0.062304083)
(-5.7842307e-07 -6.2894072e-07 -0.062304129)
(-6.8617096e-07 -6.8617096e-07 -0.062304108)
(-1.8643743e-07 -5.4781289e-07 -0.062304066)
(-6.623931e-08 -1.0321953e-07 -0.062304055)
(-3.4178285e-07 -1.4436195e-07 -0.062304075)
(-6.4153629e-07 -1.9137237e-07 -0.062304099)
(-5.4781289e-07 -1.8643743e-07 -0.062304066)
(-9.9133655e-08 -9.9133655e-08 -0.062304036)
(4.3658138e-08 4.3658138e-08 -0.064567543)
(1.2323231e-07 6.6022748e-08 -0.064567569)
(-8.4387775e-08 2.8356981e-08 -0.064567647)
(-2.9848036e-07 -3.6325219e-08 -0.064567675)
(-1.0423165e-07 -7.1925544e-08 -0.064567673)
(6.6022748e-08 1.2323231e-07 -0.064567569)
(1.0028058e-07 1.0028058e-07 -0.064567625)
(-2.3790972e-07 -5.1878137e-08 -0.0645677)
(-4.4890415e-07 -2.4580367e-07 -0.064567705)
(-1.3983198e-07 -3.577809e-07 -0.064567684)
(2.8356981e-08 -8.4387775e-08 -0.064567647)
(-5.1878137e-08 -2.3790972e-07 -0.0645677)
(-4.3047203e-07 -4.3047203e-07 -0.064567756)
(-6.0438312e-07 -5.8179763e-07 -0.064567734)
(-1.7888314e-07 -6.2640316e-07 -0.064567688)
(-3.6325218e-08 -2.9848036e-07 -0.064567675)
(-2.4580367e-07 -4.4890415e-07 -0.064567705)
(-5.8179763e-07 -6.0438312e-07 -0.064567734)
(-6.4483529e-07 -6.4483529e-07 -0.064567688)
(-1.69569e-07 -5.0794575e-07 -0.06456763)
(-7.1925544e-08 -1.0423165e-07 -0.064567673)
(-3.577809e-07 -1.3983198e-07 -0.064567684)
(-6.2640316e-07 -1.7888314e-07 -0.064567688)
(-5.0794575e-07 -1.69569e-07 -0.06456763)
(-8.7623446e-08 -8.7623446e-08 -0.06456759)
(3.4871e-08 3.4871e-08 -0.0668618)
(7.2209384e-08 4.752959e-08 -0.066861825)
(-1.3335678e-07 1.128931e-08 -0.066861895)
(-3.057675e-07 -4.4871889e-08 -0.066861908)
(-1.0167189e-07 -7.409589e-08 -0.066861893)
(4.752959e-08 7.2209384e-08 -0.066861825)
(3.6836849e-08 3.6836849e-08 -0.066861878)
(-2.71959e-07 -1.023359e-07 -0.066861941)
(-4.338453e-07 -2.6834055e-07 -0.066861927)
(-1.3089589e-07 -3.5732622e-07 -0.066861892)
(1.128931e-08 -1.3335678e-07 -0.066861895)
(-1.023359e-07 -2.71959e-07 -0.066861941)
(-4.3853418e-07 -4.3853418e-07 -0.06686198)
(-5.6075782e-07 -5.6227129e-07 -0.066861933)
(-1.6099567e-07 -5.8693426e-07 -0.06686187)
(-4.4871889e-08 -3.057675e-07 -0.066861908)
(-2.6834055e-07 -4.338453e-07 -0.066861927)
(-5.6227129e-07 -5.6075782e-07 -0.066861933)
(-5.8224539e-07 -5.8224538e-07 -0.066861859)
(-1.4733788e-07 -4.4999955e-07 -0.066861784)
(-7.409589e-08 -1.0167189e-07 -0.066861893)
(-3.5732622e-07 -1.3089589e-07 -0.066861892)
(-5.8693426e-07 -1.6099567e-07 -0.06686187)
(-4.4999955e-07 -1.4733788e-07 -0.066861784)
(-7.2831785e-08 -7.2831784e-08 -0.066861735)
(2.7090353e-08 2.7090353e-08 -0.069069065)
(2.8472577e-08 3.0589401e-08 -0.069069086)
(-1.6766628e-07 -2.8126052e-09 -0.06906914)
(-2.9699732e-07 -4.8895056e-08 -0.06906913)
(-9.4329326e-08 -7.1126455e-08 -0.069069098)
(3.0589401e-08 2.8472577e-08 -0.069069086)
(-1.6381861e-08 -1.6381861e-08 -0.069069133)
(-2.8689297e-07 -1.3723415e-07 -0.069069174)
(-3.9946809e-07 -2.703574e-07 -0.069069132)
(-1.1656072e-07 -3.3462347e-07 -0.069069079)
(-2.8126055e-09 -1.6766628e-07 -0.06906914)
(-1.3723415e-07 -2.8689297e-07 -0.069069174)
(-4.2164183e-07 -4.2164183e-07 -0.069069185)
(-4.9438663e-07 -5.1371082e-07 -0.069069105)
(-1.3717337e-07 -5.1851575e-07 -0.069069024)
(-4.8895056e-08 -2.9699732e-07 -0.06906913)
(-2.703574e-07 -3.9946809e-07 -0.069069132)
(-5.1371082e-07 -4.9438663e-07 -0.069069105)
(-4.9634201e-07 -4.9634201e-07 -0.069068998)
(-1.1976401e-07 -3.7254633e-07 -0.069068907)
(-7.1126455e-08 -9.4329326e-08 -0.069069098)
(-3.3462347e-07 -1.1656072e-07 -0.069069079)
(-5.1851575e-07 -1.3717337e-07 -0.069069024)
(-3.7254633e-07 -1.1976401e-07 -0.069068907)
(-5.464291e-08 -5.464291e-08 -0.069068848)
(2.0803265e-08 2.0803265e-08 -0.071015593)
(-2.7658388e-09 1.6501517e-08 -0.071015612)
(-1.7757593e-07 -1.166325e-08 -0.071015639)
(-2.6417113e-07 -4.6164413e-08 -0.071015594)
(-8.0377287e-08 -6.1038117e-08 -0.071015539)
(1.6501517e-08 -2.7658387e-09 -0.071015612)
(-5.1465611e-08 -5.1465611e-08 -0.071015649)
(-2.7157483e-07 -1.4718315e-07 -0.071015655)
(-3.3823343e-07 -2.4342066e-07 -0.071015574)
(-9.5250991e-08 -2.8269173e-07 -0.071015496)
(-1.166325e-08 -1.7757593e-07 -0.071015639)
(-1.4718315e-07 -2.7157483e-07 -0.071015655)
(-3.6953099e-07 -3.6953099e-07 -0.071015625)
(-3.996797e-07 -4.281777e-07 -0.071015504)
(-1.06558e-07 -4.1569657e-07 -0.071015401)
(-4.6164413e-08 -2.6417113e-07 -0.071015594)
(-2.4342066e-07 -3.3823343e-07 -0.071015574)
(-4.281777e-07 -3.996797e-07 -0.071015504)
(-3.8439901e-07 -3.8439901e-07 -0.071015357)
(-8.6930238e-08 -2.744566e-07 -0.071015253)
(-6.1038117e-08 -8.0377287e-08 -0.071015539)
(-2.8269173e-07 -9.5250991e-08 -0.071015496)
(-4.1569657e-07 -1.06558e-07 -0.071015401)
(-2.744566e-07 -8.6930238e-08 -0.071015253)
(-3.3263058e-08 -3.3263057e-08 -0.071015187)
(1.4834287e-08 1.4834288e-08 -0.072489382)
(-1.7498767e-08 6.014581e-09 -0.072489405)
(-1.5033212e-07 -1.3454252e-08 -0.072489392)
(-1.9664129e-07 -3.4907083e-08 -0.072489298)
(-5.7372913e-08 -4.2485525e-08 -0.072489212)
(6.0145809e-09 -1.7498767e-08 -0.072489405)
(-5.9931576e-08 -5.9931577e-08 -0.072489429)
(-2.1171462e-07 -1.225555e-07 -0.072489385)
(-2.401882e-07 -1.7952532e-07 -0.07248925)
(-6.4951356e-08 -1.9630676e-07 -0.072489145)
(-1.3454252e-08 -1.5033212e-07 -0.072489392)
(-1.225555e-07 -2.1171462e-07 -0.072489385)
(-2.6992587e-07 -2.6992587e-07 -0.0724893)
(-2.7039255e-07 -2.9757381e-07 -0.072489128)
(-6.8560541e-08 -2.7532731e-07 -0.072489005)
(-3.4907083e-08 -1.9664129e-07 -0.072489298)
(-1.7952532e-07 -2.401882e-07 -0.07248925)
(-2.9757381e-07 -2.7039255e-07 -0.072489128)
(-2.4558965e-07 -2.4558965e-07 -0.07248894)
(-5.0120356e-08 -1.5926538e-07 -0.072488831)
(-4.2485525e-08 -5.7372913e-08 -0.072489212)
(-1.9630676e-07 -6.4951356e-08 -0.072489145)
(-2.7532731e-07 -6.8560541e-08 -0.072489005)
(-1.5926538e-07 -5.0120356e-08 -0.072488831)
(-1.1011027e-08 -1.1011027e-08 -0.072488775)
(5.4718544e-09 5.4718544e-09 -0.094084613)
(-1.3218075e-08 5.0155315e-10 -0.094084644)
(-7.0500069e-08 -6.9864381e-09 -0.094084575)
(-8.3908423e-08 -1.4423385e-08 -0.094084403)
(-2.3222807e-08 -1.6257317e-08 -0.094084276)
(5.0155315e-10 -1.3218075e-08 -0.094084644)
(-3.1905514e-08 -3.1905514e-08 -0.094084652)
(-9.2887476e-08 -5.4949872e-08 -0.09408454)
(-9.7814741e-08 -7.3600205e-08 -0.094084325)
(-2.5056739e-08 -7.5913613e-08 -0.094084185)
(-6.986438e-09 -7.0500069e-08 -0.094084575)
(-5.4949872e-08 -9.2887476e-08 -0.09408454)
(-1.1219476e-07 -1.1219476e-07 -0.094084383)
(-1.0487216e-07 -1.1800341e-07 -0.094084136)
(-2.4765079e-08 -1.0163973e-07 -0.094083993)
(-1.4423385e-08 -8.3908423e-08 -0.094084403)
(-7.3600205e-08 -9.7814742e-08 -0.094084325)
(-1.1800341e-07 -1.0487216e-07 -0.094084136)
(-8.7259715e-08 -8.7259715e-08 -0.09408389)
(-1.4147623e-08 -4.4172853e-08 -0.094083798)
(-1.6257317e-08 -2.3222807e-08 -0.094084276)
(-7.5913613e-08 -2.5056739e-08 -0.094084185)
(-1.0163973e-07 -2.4765079e-08 -0.094083993)
(-4.4172853e-08 -1.4147623e-08 -0.094083798)
(3.9594953e-09 3.9594953e-09 -0.094083799)
)
;

boundaryField
{
    wall_minX
    {
        type            extrapolatedCalculated;
        value           nonuniform List<vector> 
100
(
(-1.1927959e-12 -4.3372973e-09 -0.04651019)
(0 4.5216156e-08 -0.046510197)
(0 7.6520474e-08 -0.046510006)
(0 3.0354258e-08 -0.046509916)
(0 3.7031288e-09 -0.046509896)
(0 6.3305951e-09 -0.046705333)
(0 1.4000061e-07 -0.046705286)
(0 1.91344e-07 -0.046705151)
(0 7.3984861e-08 -0.046705098)
(0 8.7637182e-09 -0.046705091)
(0 2.6912311e-08 -0.047065212)
(0 2.2788033e-07 -0.047065157)
(0 2.6448383e-07 -0.047065061)
(0 8.9727628e-08 -0.047065046)
(0 8.5037748e-09 -0.047065059)
(0 4.3072477e-08 -0.047604055)
(0 2.9052459e-07 -0.047604013)
(0 3.0171673e-07 -0.04760395)
(0 7.6736453e-08 -0.047603963)
(0 6.2373148e-10 -0.047603992)
(0 5.4956997e-08 -0.048320637)
(0 3.326341e-07 -0.048320606)
(0 3.1449867e-07 -0.048320569)
(0 4.764174e-08 -0.048320598)
(0 -1.110555e-08 -0.048320635)
(0 6.3630378e-08 -0.049213214)
(0 3.5891586e-07 -0.049213192)
(0 3.1051432e-07 -0.049213174)
(0 1.0310015e-08 -0.049213212)
(0 -2.4489343e-08 -0.049213253)
(0 6.9728292e-08 -0.050279532)
(0 3.7206036e-07 -0.050279517)
(0 2.9416424e-07 -0.050279518)
(0 -3.071241e-08 -0.05027956)
(0 -3.8272483e-08 -0.050279601)
(0 7.3541392e-08 -0.05151683)
(0 3.7343818e-07 -0.051516822)
(0 2.6792874e-07 -0.051516838)
(0 -7.2715611e-08 -0.051516883)
(0 -5.1678842e-08 -0.051516922)
(0 7.5169512e-08 -0.052921882)
(0 3.6376924e-07 -0.052921881)
(0 2.332771e-07 -0.052921912)
(0 -1.1403541e-07 -0.052921957)
(0 -6.419836e-08 -0.052921993)
(0 7.4630871e-08 -0.054491105)
(0 3.4356998e-07 -0.05449111)
(0 1.9121469e-07 -0.054491156)
(0 -1.5362719e-07 -0.054491201)
(0 -7.5478798e-08 -0.054491232)
(0 7.1941309e-08 -0.056220589)
(0 3.13464e-07 -0.0562206)
(0 1.426513e-07 -0.056220658)
(0 -1.9079035e-07 -0.056220703)
(0 -8.5259746e-08 -0.05622073)
(0 6.7182872e-08 -0.05810561)
(0 2.7443042e-07 -0.058105627)
(0 8.8710735e-08 -0.058105695)
(0 -2.2492385e-07 -0.058105738)
(0 -9.3318985e-08 -0.058105759)
(0 6.0570568e-08 -0.0601386)
(0 2.2802263e-07 -0.060138622)
(0 3.1039644e-08 -0.060138698)
(0 -2.5524996e-07 -0.060138739)
(0 -9.9415217e-08 -0.060138753)
(0 5.2513959e-08 -0.062303907)
(0 1.7655439e-07 -0.062303932)
(0 -2.7874619e-08 -0.062304012)
(0 -2.8048736e-07 -0.062304048)
(0 -1.0321953e-07 -0.062304055)
(0 4.3658138e-08 -0.064567543)
(0 1.2323231e-07 -0.064567569)
(0 -8.4387775e-08 -0.064567647)
(0 -2.9848036e-07 -0.064567675)
(0 -1.0423165e-07 -0.064567673)
(0 3.4871e-08 -0.0668618)
(0 7.2209384e-08 -0.066861825)
(0 -1.3335678e-07 -0.066861895)
(0 -3.057675e-07 -0.066861908)
(0 -1.0167189e-07 -0.066861893)
(0 2.7090353e-08 -0.069069065)
(0 2.8472577e-08 -0.069069086)
(0 -1.6766628e-07 -0.06906914)
(0 -2.9699732e-07 -0.06906913)
(0 -9.4329326e-08 -0.069069098)
(0 2.0803265e-08 -0.071015593)
(0 -2.7658387e-09 -0.071015612)
(0 -1.7757593e-07 -0.071015639)
(0 -2.6417113e-07 -0.071015594)
(0 -8.0377287e-08 -0.071015539)
(0 1.4834288e-08 -0.072489382)
(0 -1.7498767e-08 -0.072489405)
(0 -1.5033212e-07 -0.072489392)
(0 -1.9664129e-07 -0.072489298)
(0 -5.7372913e-08 -0.072489212)
(0 5.4718544e-09 -0.094084613)
(0 -1.3218075e-08 -0.094084644)
(0 -7.0500069e-08 -0.094084575)
(0 -8.3908423e-08 -0.094084403)
(0 -2.3222807e-08 -0.094084276)
)
;
    }
    wall_maxX
    {
        type            extrapolatedCalculated;
        value           nonuniform List<vector> 
100
(
(0 9.8974141e-09 -0.046509896)
(0 3.8581932e-08 -0.046509845)
(0 1.8859639e-08 -0.046509767)
(0 -2.4091102e-08 -0.046509794)
(0 -1.2809953e-08 -0.046509866)
(0 2.1449279e-08 -0.046705091)
(0 7.7782654e-08 -0.046705067)
(0 1.9848073e-08 -0.046705046)
(0 -7.5179832e-08 -0.046705104)
(0 -3.2946113e-08 -0.046705156)
(0 2.58146e-08 -0.047065059)
(0 8.417454e-08 -0.047065054)
(0 -1.7689239e-08 -0.047065069)
(0 -1.3420255e-07 -0.047065155)
(0 -4.7373783e-08 -0.047065195)
(0 2.4317098e-08 -0.047603992)
(0 6.7139895e-08 -0.047604002)
(0 -8.0576426e-08 -0.047604041)
(0 -2.0143384e-07 -0.047604141)
(0 -6.0128775e-08 -0.047604179)
(0 1.9035873e-08 -0.048320635)
(0 3.565337e-08 -0.048320655)
(0 -1.5635769e-07 -0.048320707)
(0 -2.7222436e-07 -0.048320811)
(0 -7.2511406e-08 -0.048320847)
(0 1.1450785e-08 -0.049213253)
(0 -4.2776398e-09 -0.049213277)
(0 -2.3706736e-07 -0.049213337)
(0 -3.4197867e-07 -0.049213439)
(0 -8.4243422e-08 -0.049213472)
(0 2.4708141e-09 -0.050279601)
(0 -4.8934275e-08 -0.050279629)
(0 -3.1747345e-07 -0.050279692)
(0 -4.0690217e-07 -0.050279786)
(0 -9.4712814e-08 -0.050279814)
(0 -7.3507921e-09 -0.051516922)
(0 -9.5949671e-08 -0.051516952)
(0 -3.939507e-07 -0.051517016)
(0 -4.6406916e-07 -0.051517098)
(0 -1.033613e-07 -0.051517121)
(0 -1.7657765e-08 -0.052921993)
(0 -1.4368012e-07 -0.052922024)
(0 -4.6382018e-07 -0.052922088)
(0 -5.112578e-07 -0.052922155)
(0 -1.0975406e-07 -0.052922171)
(0 -2.8186668e-08 -0.054491232)
(0 -1.9079964e-07 -0.054491264)
(0 -5.249311e-07 -0.054491325)
(0 -5.4675955e-07 -0.054491375)
(0 -1.135654e-07 -0.054491383)
(0 -3.8688436e-08 -0.05622073)
(0 -2.3599851e-07 -0.056220761)
(0 -5.7535681e-07 -0.056220816)
(0 -5.6922227e-07 -0.056220849)
(0 -1.1455421e-07 -0.056220847)
(0 -4.8855992e-08 -0.058105759)
(0 -2.7771672e-07 -0.058105789)
(0 -6.1314004e-07 -0.058105837)
(0 -5.7752772e-07 -0.05810585)
(0 -1.1254694e-07 -0.058105839)
(0 -5.8251678e-08 -0.060138753)
(0 -3.1389707e-07 -0.06013878)
(0 -6.360732e-07 -0.060138818)
(0 -5.7069635e-07 -0.060138808)
(0 -1.0742847e-07 -0.060138788)
(0 -6.623931e-08 -0.062304055)
(0 -3.4178285e-07 -0.062304075)
(0 -6.4153629e-07 -0.062304099)
(0 -5.4781289e-07 -0.062304066)
(0 -9.9133655e-08 -0.062304036)
(0 -7.1925544e-08 -0.064567673)
(0 -3.577809e-07 -0.064567684)
(0 -6.2640316e-07 -0.064567688)
(0 -5.0794575e-07 -0.06456763)
(0 -8.7623446e-08 -0.06456759)
(0 -7.409589e-08 -0.066861893)
(0 -3.5732622e-07 -0.066861892)
(0 -5.8693426e-07 -0.06686187)
(0 -4.4999955e-07 -0.066861784)
(0 -7.2831784e-08 -0.066861735)
(0 -7.1126455e-08 -0.069069098)
(0 -3.3462347e-07 -0.069069079)
(0 -5.1851575e-07 -0.069069024)
(0 -3.7254633e-07 -0.069068907)
(0 -5.464291e-08 -0.069068848)
(0 -6.1038117e-08 -0.071015539)
(0 -2.8269173e-07 -0.071015496)
(0 -4.1569657e-07 -0.071015401)
(0 -2.744566e-07 -0.071015253)
(0 -3.3263057e-08 -0.071015187)
(0 -4.2485525e-08 -0.072489212)
(0 -1.9630676e-07 -0.072489145)
(0 -2.7532731e-07 -0.072489005)
(0 -1.5926538e-07 -0.072488831)
(0 -1.1011027e-08 -0.072488775)
(0 -1.6257317e-08 -0.094084276)
(0 -7.5913613e-08 -0.094084185)
(0 -1.0163973e-07 -0.094083993)
(0 -4.4172853e-08 -0.094083798)
(0 3.9594953e-09 -0.094083799)
)
;
    }
    wall_minY
    {
        type            extrapolatedCalculated;
        value           nonuniform List<vector> 
100
(
(-4.3372981e-09 -1.1927959e-12 -0.04651019)
(6.3305952e-09 0 -0.046705333)
(2.691231e-08 0 -0.047065212)
(4.3072477e-08 0 -0.047604055)
(5.4956997e-08 0 -0.048320637)
(6.3630378e-08 0 -0.049213214)
(6.9728292e-08 0 -0.050279532)
(7.3541392e-08 0 -0.05151683)
(7.5169512e-08 0 -0.052921882)
(7.463087e-08 0 -0.054491105)
(7.1941308e-08 0 -0.056220589)
(6.7182872e-08 0 -0.05810561)
(6.0570568e-08 0 -0.0601386)
(5.2513959e-08 0 -0.062303907)