/*--------------------------------*- C++ -*----------------------------------*\
| =========                 |                                                 |
| \\      /  F ield         | OpenFOAM: The Open Source CFD Toolbox           |
|  \\    /   O peration     | Version:  v2106                                 |
|   \\  /    A nd           | Website:  www.openfoam.com                      |
|    \\/     M anipulation  |                                                 |
\*---------------------------------------------------------------------------*/
FoamFile
{
    version     2.0;
    format      ascii;
    arch        "LSB;label=32;scalar=64";
    class       volScalarField;
    location    "50";
    object      Tmode1;
}
// * * * * * * * * * * * * * * * * * * * * * * * * * * * * * * * * * * * * * //

dimensions      [0 0 0 0 0 0 0];

internalField   nonuniform List<scalar> 
500
(
0.037933024
0.037933031
0.037933052
0.037933044
0.037933038
0.037933031
0.037933053
0.037933063
0.037933054
0.037933045
0.037933052
0.037933063
0.037933072
0.037933062
0.037933051
0.037933044
0.037933054
0.037933062
0.037933054
0.037933045
0.037933038
0.037933045
0.037933051
0.037933045
0.037933037
0.028388196
0.028388217
0.028388259
0.028388239
0.028388223
0.028388217
0.028388264
0.028388285
0.028388259
0.028388235
0.028388259
0.028388285
0.028388303
0.028388276
0.028388247
0.028388239
0.028388259
0.028388276
0.028388255
0.028388229
0.028388223
0.028388235
0.028388247
0.028388229
0.028388205
0.018982071
0.018982105
0.018982157
0.018982121
0.018982094
0.018982105
0.01898217
0.018982195
0.018982149
0.018982109
0.018982157
0.018982195
0.018982218
0.018982171
0.018982122
0.018982121
0.018982149
0.018982171
0.018982133
0.018982089
0.018982094
0.018982109
0.018982122
0.018982089
0.018982051
0.0098135582
0.0098136012
0.0098136604
0.0098136052
0.0098135643
0.0098136012
0.0098136809
0.0098137076
0.0098136378
0.0098135803
0.0098136604
0.0098137076
0.0098137329
0.0098136637
0.0098135946
0.0098136052
0.0098136378
0.0098136637
0.0098136062
0.0098135419
0.0098135643
0.0098135803
0.0098135946
0.0098135419
0.0098134898
0.00099139322
0.00099144282
0.00099150731
0.00099143134
0.00099137639
0.00099144282
0.0009915353
0.00099156157
0.0009914679
0.00099139282
0.00099150731
0.00099156157
0.00099158877
0.00099149721
0.00099140791
0.00099143134
0.0009914679
0.00099149721
0.00099142045
0.00099133548
0.00099137639
0.00099139282
0.00099140791
0.00099133548
0.00099127043
-0.0073615971
-0.0073615429
-0.0073614746
-0.0073615725
-0.0073616411
-0.0073615429
-0.0073614395
-0.0073614152
-0.0073615333
-0.007361625
-0.0073614746
-0.0073614152
-0.0073613866
-0.0073615001
-0.007361608
-0.0073615725
-0.0073615333
-0.0073615001
-0.0073615948
-0.007361699
-0.0073616411
-0.007361625
-0.007361608
-0.007361699
-0.0073617754
-0.015103894
-0.015103838
-0.015103767
-0.015103887
-0.015103968
-0.015103838
-0.015103725
-0.015103704
-0.015103846
-0.015103953
-0.015103767
-0.015103704
-0.015103673
-0.015103807
-0.015103932
-0.015103887
-0.015103846
-0.015103807
-0.015103918
-0.015104039
-0.015103968
-0.015103953
-0.015103932
-0.015104039
-0.015104125
-0.022070154
-0.022070097
-0.022070024
-0.022070166
-0.022070258
-0.022070097
-0.022069977
-0.022069958
-0.022070123
-0.022070242
-0.022070024
-0.022069958
-0.022069925
-0.022070077
-0.022070215
-0.022070166
-0.022070123
-0.022070077
-0.022070199
-0.022070334
-0.022070258
-0.022070242
-0.022070215
-0.022070334
-0.022070427
-0.028065287
-0.028065229
-0.028065154
-0.028065316
-0.028065417
-0.028065229
-0.028065103
-0.028065085
-0.028065271
-0.028065399
-0.028065154
-0.028065085
-0.028065046
-0.028065212
-0.028065361
-0.028065316
-0.028065271
-0.028065212
-0.028065342
-0.028065489
-0.028065417
-0.028065399
-0.028065361
-0.028065489
-0.028065586
-0.032857423
-0.032857367
-0.032857289
-0.032857466
-0.032857572
-0.032857367
-0.032857236
-0.032857216
-0.032857416
-0.032857551
-0.032857289
-0.032857216
-0.032857166
-0.032857341
-0.032857496
-0.032857466
-0.032857416
-0.032857341
-0.032857473
-0.032857628
-0.032857572
-0.032857551
-0.032857496
-0.032857628
-0.032857727
-0.036169585
-0.03616953
-0.036169447
-0.036169633
-0.036169739
-0.03616953
-0.036169394
-0.036169368
-0.036169576
-0.036169712
-0.036169447
-0.036169368
-0.036169302
-0.036169478
-0.036169636
-0.036169633
-0.036169576
-0.036169478
-0.036169606
-0.036169767
-0.036169739
-0.036169712
-0.036169636
-0.036169767
-0.036169866
-0.037670608
-0.037670552
-0.037670463
-0.037670649
-0.037670752
-0.037670552
-0.037670414
-0.037670375
-0.037670581
-0.037670714
-0.037670463
-0.037670375
-0.037670288
-0.037670456
-0.037670612
-0.037670649
-0.037670581
-0.037670456
-0.037670574
-0.037670739
-0.037670752
-0.037670714
-0.037670612
-0.037670739
-0.037670836
-0.036968026
-0.03696797
-0.036967874
-0.03696805
-0.036968143
-0.03696797
-0.03696783
-0.036967775
-0.036967969
-0.036968092
-0.036967874
-0.036967775
-0.036967661
-0.036967813
-0.036967963
-0.03696805
-0.036967969
-0.036967813
-0.036967915
-0.036968083
-0.036968143
-0.036968092
-0.036967963
-0.036968083
-0.036968176
-0.033609878
-0.03360982
-0.03360972
-0.033609874
-0.033609953
-0.03360982
-0.033609684
-0.033609608
-0.033609779
-0.033609888
-0.03360972
-0.033609608
-0.033609467
-0.033609595
-0.033609734
-0.033609874
-0.033609779
-0.033609595
-0.033609677
-0.033609845
-0.033609953
-0.033609888
-0.033609734
-0.033609845
-0.033609936
-0.02710853
-0.027108471
-0.027108369
-0.027108492
-0.027108554
-0.027108471
-0.027108342
-0.027108249
-0.027108386
-0.027108476
-0.027108369
-0.027108249
-0.027108084
-0.027108181
-0.027108306
-0.027108492
-0.027108386
-0.027108181
-0.027108243
-0.02710841
-0.027108554
-0.027108476
-0.027108306
-0.02710841
-0.027108496
-0.017004682
-0.017004624
-0.017004528
-0.017004615
-0.017004657
-0.017004624
-0.01700451
-0.017004405
-0.017004503
-0.017004572
-0.017004528
-0.017004405
-0.017004227
-0.017004292
-0.017004399
-0.017004615
-0.017004503
-0.017004292
-0.017004337
-0.017004499
-0.017004657
-0.017004572
-0.017004399
-0.017004499
-0.017004581
-0.0029863493
-0.0029862954
-0.0029862139
-0.0029862647
-0.0029862885
-0.0029862954
-0.0029862039
-0.0029860969
-0.0029861569
-0.0029862049
-0.0029862139
-0.0029860969
-0.0029859227
-0.002985959
-0.0029860464
-0.0029862647
-0.0029861569
-0.002985959
-0.0029859933
-0.0029861473
-0.0029862885
-0.0029862049
-0.0029860464
-0.0029861473
-0.0029862211
0.014943529
0.014943578
0.014943638
0.014943617
0.014943606
0.014943578
0.014943645
0.01494374
0.01494371
0.01494368
0.014943638
0.01494374
0.014943889
0.014943872
0.014943805
0.014943617
0.01494371
0.014943872
0.01494384
0.014943701
0.014943606
0.01494368
0.014943805
0.014943701
0.01494364
0.036298233
0.036298275
0.036298315
0.036298311
0.036298304
0.036298275
0.036298327
0.036298396
0.036298384
0.036298366
0.036298315
0.036298396
0.036298503
0.036298492
0.036298447
0.036298311
0.036298384
0.036298492
0.036298458
0.036298348
0.036298304
0.036298366
0.036298447
0.036298348
0.036298312
0.060026232
0.060026251
0.060026269
0.060026269
0.06002626
0.060026251
0.060026277
0.060026309
0.060026303
0.060026287
0.060026269
0.060026309
0.060026356
0.060026348
0.06002632
0.060026269
0.060026303
0.060026348
0.060026324
0.060026257
0.06002626
0.060026287
0.06002632
0.060026257
0.060026247
)
;

boundaryField
{
    wall_minX
    {
        type            calculated;
        value           nonuniform List<scalar> 
100
(
0.037933024
0.037933031
0.037933052
0.037933044
0.037933038
0.028388196
0.028388217
0.028388259
0.028388239
0.028388223
0.018982071
0.018982105
0.018982157
0.018982121
0.018982094
0.0098135582
0.0098136012
0.0098136604
0.0098136052
0.0098135643
0.00099139322
0.00099144282
0.00099150731
0.00099143134
0.00099137639
-0.0073615971
-0.0073615429
-0.0073614746
-0.0073615725
-0.0073616411
-0.015103894
-0.015103838
-0.015103767
-0.015103887
-0.015103968
-0.022070154
-0.022070097
-0.022070024
-0.022070166
-0.022070258
-0.028065287
-0.028065229
-0.028065154
-0.028065316
-0.028065417
-0.032857423
-0.032857367
-0.032857289
-0.032857466
-0.032857572
-0.036169585
-0.03616953
-0.036169447
-0.036169633
-0.036169739
-0.037670608
-0.037670552
-0.037670463
-0.037670649
-0.037670752
-0.036968026
-0.03696797
-0.036967874
-0.03696805
-0.036968143
-0.033609878
-0.03360982
-0.03360972
-0.033609874
-0.033609953
-0.02710853
-0.027108471
-0.027108369
-0.027108492
-0.027108554
-0.017004682
-0.017004624
-0.017004528
-0.017004615
-0.017004657
-0.0029863493
-0.0029862954
-0.0029862139
-0.0029862647
-0.0029862885
0.014943529
0.014943578
0.014943638
0.014943617
0.014943606
0.036298233
0.036298275
0.036298315
0.036298311
0.036298304
0.060026232
0.060026251
0.060026269
0.060026269
0.06002626
)
;
    }
    wall_maxX
    {
        type            calculated;
        value           nonuniform List<scalar> 
100
(
0.037933038
0.037933045
0.037933051
0.037933045
0.037933037
0.028388223
0.028388235
0.028388247
0.028388229
0.028388205
0.018982094
0.018982109
0.018982122
0.018982089
0.018982051
0.0098135643
0.0098135803
0.0098135946
0.0098135419
0.0098134898
0.00099137639
0.00099139282
0.00099140791
0.00099133548
0.00099127043
-0.0073616411
-0.007361625
-0.007361608
-0.007361699
-0.0073617754
-0.015103968
-0.015103953
-0.015103932
-0.015104039
-0.015104125
-0.022070258
-0.022070242
-0.022070215
-0.022070334
-0.022070427
-0.028065417
-0.028065399
-0.028065361
-0.028065489
-0.028065586
-0.032857572
-0.032857551
-0.032857496
-0.032857628
-0.032857727
-0.036169739
-0.036169712
-0.036169636
-0.036169767
-0.036169866
-0.037670752
-0.037670714
-0.037670612
-0.037670739
-0.037670836
-0.036968143
-0.036968092
-0.036967963
-0.036968083
-0.036968176
-0.033609953
-0.033609888
-0.033609734
-0.033609845
-0.033609936
-0.027108554
-0.027108476
-0.027108306
-0.02710841
-0.027108496
-0.017004657
-0.017004572
-0.017004399
-0.017004499
-0.017004581
-0.0029862885
-0.0029862049
-0.0029860464
-0.0029861473
-0.0029862211
0.014943606
0.01494368
0.014943805
0.014943701
0.01494364
0.036298304
0.036298366
0.036298447
0.036298348
0.036298312
0.06002626
0.060026287
0.06002632
0.060026257
0.060026247
)
;
    }
    wall_minY
    {
        type            calculated;
        value           nonuniform List<scalar> 
100
(
0.037933024
0.028388196
0.018982071
0.0098135582
0.00099139322
-0.0073615971
-0.015103894
-0.022070154
-0.028065287
-0.032857423
-0.036169585
-0.037670608
-0.036968026
-0.033609878
-0.02710853
-0.017004682
-0.0029863493
0.014943529
0.036298233
0.060026232
0.037933031
0.028388217
0.018982105
0.0098136012
0.00099144282
-0.0073615429
-0.015103838
-0.022070097
-0.028065229
-0.032857367
-0.03616953
-0.037670552
-0.03696797
-0.03360982
-0.027108471
-0.017004624
-0.0029862954
0.014943578
0.036298275
0.060026251
0.037933052
0.028388259
0.018982157
0.0098136604
0.00099150731
-0.0073614746
-0.015103767
-0.022070024
-0.028065154
-0.032857289
-0.036169447
-0.037670463
-0.036967874
-0.03360972
-0.027108369
-0.017004528
-0.0029862139
0.014943638
0.036298315
0.060026269
0.037933044
0.028388239
0.018982121
0.0098136052
0.00099143134
-0.0073615725
-0.015103887
-0.022070166
-0.028065316
-0.032857466
-0.036169633
-0.037670649
-0.03696805
-0.033609874
-0.027108492
-0.017004615
-0.0029862647
0.014943617
0.036298311
0.060026269
0.037933038
0.028388223
0.018982094
0.0098135643
0.00099137639
-0.0073616411
-0.015103968
-0.022070258
-0.028065417
-0.032857572
-0.036169739
-0.037670752
-0.036968143
-0.033609953
-0.027108554
-0.017004657
-0.0029862885
0.014943606
0.036298304
0.06002626
)
;
    }
    wall_maxY
    {
        type            calculated;
        value           nonuniform List<scalar> 
100
(
0.037933038
0.028388223
0.018982094
0.0098135643
0.00099137639
-0.0073616411
-0.015103968
-0.022070258
-0.028065417
-0.032857572
-0.036169739
-0.037670752
-0.036968143
-0.033609953
-0.027108554
-0.017004657
-0.0029862885
0.014943606
0.036298304
0.06002626
0.037933045
0.028388235
0.018982109
0.0098135803
0.00099139282
-0.007361625
-0.015103953
-0.022070242
-0.028065399
-0.032857551
-0.036169712
-0.037670714
-0.036968092
-0.033609888
-0.027108476
-0.017004572
-0.0029862049
0.01494368
0.036298366
0.060026287
0.037933051
0.028388247
0.018982122
0.0098135946
0.00099140791
-0.007361608
-0.015103932
-0.022070215
-0.028065361
-0.032857496
-0.036169636
-0.037670612
-0.036967963
-0.033609734
-0.027108306
-0.017004399
-0.0029860464
0.014943805
0.036298447
0.06002632
0.037933045
0.028388229
0.018982089
0.0098135419
0.00099133548
-0.007361699
-0.015104039
-0.022070334
-0.028065489
-0.032857628
-0.036169767
-0.037670739
-0.036968083
-0.033609845
-0.02710841
-0.017004499
-0.0029861473
0.014943701
0.036298348
0.060026257
0.037933037
0.028388205
0.018982051
0.0098134898
0.00099127043
-0.0073617754
-0.015104125
-0.022070427
-0.028065586
-0.032857727
-0.036169866
-0.037670836
-0.036968176
-0.033609936
-0.027108496
-0.017004581
-0.0029862211
0.01494364
0.036298312
0.060026247
)
;
    }
    inlet_minZ
    {
        type            calculated;
        value           uniform 0.042728241;
    }
    outlet_maxZ
    {
        type            calculated;
        value           uniform 0.089682352;
    }
}


// ************************************************************************* //
