/*--------------------------------*- C++ -*----------------------------------*\
| =========                 |                                                 |
| \\      /  F ield         | OpenFOAM: The Open Source CFD Toolbox           |
|  \\    /   O peration     | Version:  v2106                                 |
|   \\  /    A nd           | Website:  www.openfoam.com                      |
|    \\/     M anipulation  |                                                 |
\*---------------------------------------------------------------------------*/
FoamFile
{
    version     2.0;
    format      ascii;
    arch        "LSB;label=32;scalar=64";
    class       volScalarField;
    location    "50";
    object      Tmode_lapla0;
}
// * * * * * * * * * * * * * * * * * * * * * * * * * * * * * * * * * * * * * //

dimensions      [0 -2 0 0 0 0 0];

internalField   nonuniform List<scalar> 
500
(
0.0624405
0.0623873
0.0623904
0.0624219
0.0624219
0.0623873
0.0623477
0.0623938
0.0624173
0.0624166
0.0623904
0.0623938
0.0624246
0.062442
0.0624343
0.0624219
0.0624173
0.062442
0.0624515
0.0624352
0.0624219
0.0624166
0.0624343
0.0624352
0.0624199
0.188819
0.188728
0.188756
0.188813
0.188813
0.188728
0.188686
0.188773
0.188811
0.188811
0.188756
0.188773
0.18883
0.188851
0.188832
0.188813
0.188811
0.188851
0.188854
0.188819
0.188813
0.188811
0.188832
0.188819
0.188799
0.319821
0.319727
0.319776
0.319849
0.319848
0.319727
0.31969
0.31981
0.319851
0.319848
0.319776
0.31981
0.319882
0.319895
0.319864
0.319849
0.319851
0.319895
0.319879
0.319831
0.319848
0.319848
0.319864
0.319831
0.319825
0.458723
0.458627
0.458685
0.458772
0.458767
0.458627
0.458591
0.458733
0.458774
0.458767
0.458685
0.458733
0.45881
0.458812
0.458771
0.458772
0.458774
0.458812
0.458775
0.458722
0.458767
0.458767
0.458771
0.458722
0.458735
0.608971
0.608875
0.608934
0.609036
0.609024
0.608875
0.608835
0.608995
0.609037
0.609026
0.608934
0.608995
0.609073
0.609064
0.609014
0.609036
0.609037
0.609064
0.609006
0.608952
0.609024
0.609026
0.609014
0.608952
0.608983
0.774363
0.774272
0.774326
0.774445
0.774427
0.774272
0.774225
0.774402
0.774449
0.774431
0.774326
0.774402
0.774475
0.77446
0.7744
0.774445
0.774449
0.77446
0.774383
0.774329
0.774427
0.774431
0.7744
0.774329
0.774378
0.959257
0.959175
0.959218
0.959359
0.959333
0.959175
0.95912
0.959309
0.959366
0.959341
0.959218
0.959309
0.959374
0.959356
0.959288
0.959359
0.959366
0.959356
0.959262
0.95921
0.959333
0.959341
0.959288
0.95921
0.959275
1.16886
1.1688
1.16882
1.16899
1.16895
1.1688
1.16873
1.16893
1.169
1.16897
1.16882
1.16893
1.16898
1.16896
1.16889
1.16899
1.169
1.16896
1.16885
1.16881
1.16895
1.16897
1.16889
1.16881
1.16889
1.40965
1.4096
1.40961
1.4098
1.40975
1.4096
1.40953
1.40972
1.40981
1.40977
1.40961
1.40972
1.40975
1.40974
1.40966
1.4098
1.40981
1.40974
1.40962
1.40959
1.40975
1.40977
1.40966
1.40959
1.40967
1.68963
1.6896
1.68958
1.68979
1.68974
1.6896
1.68951
1.68971
1.68982
1.68977
1.68958
1.68971
1.6897
1.6897
1.68962
1.68979
1.68982
1.6897
1.68957
1.68955
1.68974
1.68977
1.68962
1.68955
1.68965
2.01789
2.0179
2.01784
2.01807
2.01801
2.0179
2.0178
2.01797
2.0181
2.01805
2.01784
2.01797
2.01793
2.01794
2.01786
2.01807
2.0181
2.01794
2.0178
2.0178
2.01801
2.01805
2.01786
2.0178
2.01791
2.40202
2.40205
2.40197
2.40221
2.40214
2.40205
2.40195
2.40209
2.40224
2.40218
2.40197
2.40209
2.40201
2.40202
2.40195
2.40221
2.40224
2.40202
2.40187
2.40191
2.40214
2.40218
2.40195
2.40191
2.40202
2.84109
2.84114
2.84104
2.84128
2.8412
2.84114
2.84104
2.84115
2.8413
2.84123
2.84104
2.84115
2.84101
2.84102
2.84096
2.84128
2.8413
2.84102
2.84087
2.84095
2.8412
2.84123
2.84096
2.84095
2.84107
3.3124
3.31246
3.31236
3.31257
3.31248
3.31246
3.31238
3.31244
3.31258
3.31251
3.31236
3.31244
3.31225
3.31225
3.3122
3.31257
3.31258
3.31225
3.31209
3.31223
3.31248
3.31251
3.3122
3.31223
3.31235
3.75298
3.75304
3.75295
3.75312
3.75303
3.75304
3.753
3.75299
3.75312
3.75305
3.75295
3.75299
3.75276
3.75275
3.75272
3.75312
3.75312
3.75275
3.75259
3.75278
3.75303
3.75305
3.75272
3.75278
3.7529
4.04434
4.0444
4.04433
4.04445
4.04436
4.0444
4.0444
4.04434
4.04443
4.04436
4.04433
4.04434
4.04408
4.04404
4.04402
4.04445
4.04443
4.04404
4.04388
4.04413
4.04436
4.04436
4.04402
4.04413
4.04424
4.01854
4.0186
4.01856
4.01862
4.01853
4.0186
4.01864
4.01855
4.01858
4.01852
4.01856
4.01855
4.01827
4.01822
4.0182
4.01862
4.01858
4.01822
4.01806
4.01835
4.01853
4.01852
4.0182
4.01835
4.01845
3.50579
3.50583
3.50582
3.50582
3.50575
3.50583
3.5059
3.50579
3.50578
3.50573
3.50582
3.50579
3.50554
3.50547
3.50546
3.50582
3.50578
3.50547
3.50534
3.50564
3.50575
3.50573
3.50546
3.50564
3.50572
2.42428
2.42429
2.42429
2.42426
2.42421
2.42429
2.42433
2.42422
2.4242
2.42416
2.42429
2.42422
2.42403
2.42398
2.42396
2.42426
2.4242
2.42398
2.4239
2.42418
2.42421
2.42416
2.42396
2.42418
2.4242
143.484
143.484
143.484
143.484
143.484
143.484
143.484
143.484
143.484
143.484
143.484
143.484
143.484
143.484
143.484
143.484
143.484
143.484
143.484
143.484
143.484
143.484
143.484
143.484
143.484
)
;

boundaryField
{
    wall_minX
    {
        type            extrapolatedCalculated;
        value           nonuniform List<scalar> 
100
(
0.0624405
0.0623873
0.0623904
0.0624219
0.0624219
0.188819
0.188728
0.188756
0.188813
0.188813
0.319821
0.319727
0.319776
0.319849
0.319848
0.458723
0.458627
0.458685
0.458772
0.458767
0.608971
0.608875
0.608934
0.609036
0.609024
0.774363
0.774272
0.774326
0.774445
0.774427
0.959257
0.959175
0.959218
0.959359
0.959333
1.16886
1.1688
1.16882
1.16899
1.16895
1.40965
1.4096
1.40961
1.4098
1.40975
1.68963
1.6896
1.68958
1.68979
1.68974
2.01789
2.0179
2.01784
2.01807
2.01801
2.40202
2.40205
2.40197
2.40221
2.40214
2.84109
2.84114
2.84104
2.84128
2.8412
3.3124
3.31246
3.31236
3.31257
3.31248
3.75298
3.75304
3.75295
3.75312
3.75303
4.04434
4.0444
4.04433
4.04445
4.04436
4.01854
4.0186
4.01856
4.01862
4.01853
3.50579
3.50583
3.50582
3.50582
3.50575
2.42428
2.42429
2.42429
2.42426
2.42421
143.484
143.484
143.484
143.484
143.484
)
;
    }
    wall_maxX
    {
        type            extrapolatedCalculated;
        value           nonuniform List<scalar> 
100
(
0.0624219
0.0624166
0.0624343
0.0624352
0.0624199
0.188813
0.188811
0.188832
0.188819
0.188799
0.319848
0.319848
0.319864
0.319831
0.319825
0.458767
0.458767
0.458771
0.458722
0.458735
0.609024
0.609026
0.609014
0.608952
0.608983
0.774427
0.774431
0.7744
0.774329
0.774378
0.959333
0.959341
0.959288
0.95921
0.959275
1.16895
1.16897
1.16889
1.16881
1.16889
1.40975
1.40977
1.40966
1.40959
1.40967
1.68974
1.68977
1.68962
1.68955
1.68965
2.01801
2.01805
2.01786
2.0178
2.01791
2.40214
2.40218
2.40195
2.40191
2.40202
2.8412
2.84123
2.84096
2.84095
2.84107
3.31248
3.31251
3.3122
3.31223
3.31235
3.75303
3.75305
3.75272
3.75278
3.7529
4.04436
4.04436
4.04402
4.04413
4.04424
4.01853
4.01852
4.0182
4.01835
4.01845
3.50575
3.50573
3.50546
3.50564
3.50572
2.42421
2.42416
2.42396
2.42418
2.4242
143.484
143.484
143.484
143.484
143.484
)
;
    }
    wall_minY
    {
        type            extrapolatedCalculated;
        value           nonuniform List<scalar> 
100
(
0.0624405
0.188819
0.319821
0.458723
0.608971
0.774363
0.959257
1.16886
1.40965
1.68963
2.01789
2.40202
2.84109
3.3124
3.75298
4.04434
4.01854
3.50579
2.42428
143.484
0.0623873
0.188728
0.319727
0.458627
0.608875
0.774272
0.959175
1.1688
1.4096
1.6896
2.0179
2.40205
2.84114
3.31246
3.75304
4.0444
4.0186
3.50583
2.42429
143.484
0.0623904
0.188756
0.319776
0.458685
0.608934
0.774326
0.959218
1.16882
1.40961
1.68958
2.01784
2.40197
2.84104
3.31236
3.75295
4.04433
4.01856
3.50582
2.42429
143.484
0.0624219
0.188813
0.319849
0.458772
0.609036
0.774445
0.959359
1.16899
1.4098
1.68979
2.01807
2.40221
2.84128
3.31257
3.75312
4.04445
4.01862
3.50582
2.42426
143.484
0.0624219
0.188813
0.319848
0.458767
0.609024
0.774427
0.959333
1.16895
1.40975
1.68974
2.01801
2.40214
2.8412
3.31248
3.75303
4.04436
4.01853
3.50575
2.42421
143.484
)
;
    }
    wall_maxY
    {
        type            extrapolatedCalculated;
        value           nonuniform List<scalar> 
100
(
0.0624219
0.188813
0.319848
0.458767
0.609024
0.774427
0.959333
1.16895
1.40975
1.68974
2.01801
2.40214
2.8412
3.31248
3.75303
4.04436
4.01853
3.50575
2.42421
143.484
0.0624166
0.188811
0.319848
0.458767
0.609026
0.774431
0.959341
1.16897
1.40977
1.68977
2.01805
2.40218
2.84123
3.31251
3.75305
4.04436
4.01852
3.50573
2.42416
143.484
0.0624343
0.188832
0.319864
0.458771
0.609014
0.7744
0.959288
1.16889
1.40966
1.68962
2.01786
2.40195
2.84096
3.3122
3.75272
4.04402
4.0182
3.50546
2.42396
143.484
0.0624352
0.188819
0.319831
0.458722
0.608952
0.774329
0.95921
1.16881
1.40959
1.68955
2.0178
2.40191
2.84095
3.31223
3.75278
4.04413
4.01835
3.50564
2.42418
143.484
0.0624199
0.188799
0.319825
0.458735
0.608983
0.774378
0.959275
1.16889
1.40967
1.68965
2.01791
2.40202
2.84107
3.31235
3.7529
4.04424
4.01845
3.50572
2.4242
143.484
)
;
    }
    inlet_minZ
    {
        type            extrapolatedCalculated;
        value           nonuniform List<scalar> 
25
(
0.0624405
0.0623873
0.0623904
0.0624219
0.0624219
0.0623873
0.0623477
0.0623938
0.0624173
0.0624166
0.0623904
0.0623938
0.0624246
0.062442
0.0624343
0.0624219
0.0624173
0.062442
0.0624515
0.0624352
0.0624219
0.0624166
0.0624343
0.0624352
0.0624199
)
;
    }
    outlet_maxZ
    {
        type            extrapolatedCalculated;
        value           nonuniform List<scalar> 
25
(
143.484
143.484
143.484
143.484
143.484
143.484
143.484
143.484
143.484
143.484
143.484
143.484
143.484
143.484
143.484
143.484
143.484
143.484
143.484
143.484
143.484
143.484
143.484
143.484
143.484
)
;
    }
}


// ************************************************************************* //
