/*--------------------------------*- C++ -*----------------------------------*\
| =========                 |                                                 |
| \\      /  F ield         | OpenFOAM: The Open Source CFD Toolbox           |
|  \\    /   O peration     | Version:  v2106                                 |
|   \\  /    A nd           | Website:  www.openfoam.com                      |
|    \\/     M anipulation  |                                                 |
\*---------------------------------------------------------------------------*/
FoamFile
{
    version     2.0;
    format      ascii;
    arch        "LSB;label=32;scalar=64";
    class       volScalarField;
    location    "50";
    object      Tmode_lapla2;
}
// * * * * * * * * * * * * * * * * * * * * * * * * * * * * * * * * * * * * * //

dimensions      [0 -2 0 0 0 0 0];

internalField   nonuniform List<scalar> 
500
(
0.918428
0.91721
0.917589
0.91801
0.918002
0.91721
0.91671
0.917549
0.917852
0.917837
0.917589
0.917549
0.918185
0.918393
0.918212
0.91801
0.917852
0.918393
0.91849
0.918193
0.918002
0.917837
0.918212
0.918193
0.917911
2.74628
2.74415
2.7452
2.74594
2.74596
2.74415
2.74364
2.74523
2.74565
2.74572
2.7452
2.74523
2.74643
2.74658
2.74623
2.74594
2.74565
2.74658
2.74648
2.74592
2.74596
2.74572
2.74623
2.74592
2.74561
4.5454
4.54306
4.54468
4.54553
4.54563
4.54306
4.54276
4.5449
4.54518
4.54532
4.54468
4.5449
4.54642
4.54626
4.54578
4.54553
4.54518
4.54626
4.54573
4.54504
4.54563
4.54532
4.54578
4.54504
4.54515
6.28736
6.28478
6.28678
6.28766
6.28775
6.28478
6.28461
6.28709
6.28715
6.28732
6.28678
6.28709
6.28878
6.28824
6.28765
6.28766
6.28715
6.28824
6.28722
6.2865
6.28775
6.28732
6.28765
6.2865
6.28713
7.92507
7.92225
7.92456
7.92541
7.92547
7.92225
7.92218
7.92492
7.92472
7.92492
7.92456
7.92492
7.92669
7.92576
7.92507
7.92541
7.92472
7.92576
7.92424
7.92356
7.92547
7.92492
7.92507
7.92356
7.92473
9.3838
9.3808
9.38336
9.38416
9.38418
9.3808
9.38083
9.38375
9.38328
9.38351
9.38336
9.38375
9.38554
9.38423
9.38347
9.38416
9.38328
9.38423
9.38223
9.38164
9.38418
9.38351
9.38347
9.38164
9.38334
10.5468
10.5437
10.5464
10.5471
10.5471
10.5437
10.5438
10.5468
10.5461
10.5463
10.5464
10.5468
10.5486
10.5469
10.5461
10.5471
10.5461
10.5469
10.5445
10.544
10.5471
10.5463
10.5461
10.544
10.5462
11.2353
11.2321
11.235
11.2356
11.2355
11.2321
11.2323
11.2353
11.2343
11.2346
11.235
11.2353
11.237
11.235
11.2342
11.2356
11.2343
11.235
11.2322
11.2319
11.2355
11.2346
11.2342
11.2319
11.2345
11.1833
11.1801
11.1831
11.1835
11.1834
11.1801
11.1804
11.1834
11.1822
11.1824
11.1831
11.1834
11.1849
11.1826
11.1818
11.1835
11.1822
11.1826
11.1795
11.1793
11.1834
11.1824
11.1818
11.1793
11.1824
10.0132
10.01
10.013
10.0133
10.0132
10.01
10.0104
10.0133
10.0118
10.0121
10.013
10.0133
10.0147
10.0121
10.0113
10.0133
10.0118
10.0121
10.0087
10.0087
10.0132
10.0121
10.0113
10.0087
10.0121
7.22943
7.22637
7.22941
7.2295
7.22929
7.22637
7.22692
7.22966
7.22788
7.22817
7.22941
7.22966
7.23085
7.22802
7.22724
7.2295
7.22788
7.22802
7.22441
7.22468
7.22929
7.22817
7.22724
7.22468
7.22834
2.27062
2.26775
2.27071
2.27063
2.27036
2.26775
2.2684
2.27095
2.26896
2.26922
2.27071
2.27095
2.27198
2.269
2.26823
2.27063
2.26896
2.269
2.26531
2.2657
2.27036
2.26922
2.26823
2.2657
2.26952
-5.3225
-5.32508
-5.32229
-5.32251
-5.32283
-5.32508
-5.32436
-5.32202
-5.32415
-5.32392
-5.32229
-5.32202
-5.32113
-5.32417
-5.32492
-5.32251
-5.32415
-5.32417
-5.32784
-5.32737
-5.32283
-5.32392
-5.32492
-5.32737
-5.32352
-15.5666
-15.5688
-15.5662
-15.5666
-15.5669
-15.5688
-15.568
-15.5659
-15.5681
-15.5679
-15.5662
-15.5659
-15.5651
-15.5681
-15.5689
-15.5666
-15.5681
-15.5681
-15.5717
-15.5712
-15.5669
-15.5679
-15.5689
-15.5712
-15.5674
-27.5422
-27.5439
-27.5417
-27.5421
-27.5425
-27.5439
-27.5431
-27.5413
-27.5434
-27.5433
-27.5417
-27.5413
-27.5407
-27.5435
-27.5442
-27.5421
-27.5434
-27.5435
-27.5469
-27.5465
-27.5425
-27.5433
-27.5442
-27.5465
-27.5429
-38.9447
-38.9459
-38.944
-38.9446
-38.945
-38.9459
-38.945
-38.9437
-38.9457
-38.9455
-38.944
-38.9437
-38.9433
-38.9459
-38.9465
-38.9446
-38.9457
-38.9459
-38.9491
-38.9487
-38.945
-38.9455
-38.9465
-38.9487
-38.9453
-46.1108
-46.1114
-46.11
-46.1107
-46.111
-46.1114
-46.1104
-46.1097
-46.1116
-46.1114
-46.11
-46.1097
-46.1096
-46.112
-46.1125
-46.1107
-46.1116
-46.112
-46.115
-46.1146
-46.111
-46.1114
-46.1125
-46.1146
-46.1114
-45.0156
-45.0156
-45.0146
-45.0155
-45.0158
-45.0156
-45.0145
-45.0143
-45.016
-45.0159
-45.0146
-45.0143
-45.0145
-45.0166
-45.017
-45.0155
-45.016
-45.0166
-45.0193
-45.0188
-45.0158
-45.0159
-45.017
-45.0188
-45.0158
-33.2936
-33.2931
-33.2927
-33.2936
-33.2938
-33.2931
-33.2922
-33.2923
-33.2938
-33.2937
-33.2927
-33.2923
-33.2928
-33.2945
-33.2948
-33.2936
-33.2938
-33.2945
-33.2966
-33.296
-33.2938
-33.2937
-33.2948
-33.296
-33.2933
640.51
640.511
640.51
640.51
640.51
640.511
640.511
640.511
640.51
640.51
640.51
640.511
640.51
640.509
640.509
640.51
640.51
640.509
640.508
640.509
640.51
640.51
640.509
640.509
640.511
)
;

boundaryField
{
    wall_minX
    {
        type            extrapolatedCalculated;
        value           nonuniform List<scalar> 
100
(
0.918428
0.91721
0.917589
0.91801
0.918002
2.74628
2.74415
2.7452
2.74594
2.74596
4.5454
4.54306
4.54468
4.54553
4.54563
6.28736
6.28478
6.28678
6.28766
6.28775
7.92507
7.92225
7.92456
7.92541
7.92547
9.3838
9.3808
9.38336
9.38416
9.38418
10.5468
10.5437
10.5464
10.5471
10.5471
11.2353
11.2321
11.235
11.2356
11.2355
11.1833
11.1801
11.1831
11.1835
11.1834
10.0132
10.01
10.013
10.0133
10.0132
7.22943
7.22637
7.22941
7.2295
7.22929
2.27062
2.26775
2.27071
2.27063
2.27036
-5.3225
-5.32508
-5.32229
-5.32251
-5.32283
-15.5666
-15.5688
-15.5662
-15.5666
-15.5669
-27.5422
-27.5439
-27.5417
-27.5421
-27.5425
-38.9447
-38.9459
-38.944
-38.9446
-38.945
-46.1108
-46.1114
-46.11
-46.1107
-46.111
-45.0156
-45.0156
-45.0146
-45.0155
-45.0158
-33.2936
-33.2931
-33.2927
-33.2936
-33.2938
640.51
640.511
640.51
640.51
640.51
)
;
    }
    wall_maxX
    {
        type            extrapolatedCalculated;
        value           nonuniform List<scalar> 
100
(
0.918002
0.917837
0.918212
0.918193
0.917911
2.74596
2.74572
2.74623
2.74592
2.74561
4.54563
4.54532
4.54578
4.54504
4.54515
6.28775
6.28732
6.28765
6.2865
6.28713
7.92547
7.92492
7.92507
7.92356
7.92473
9.38418
9.38351
9.38347
9.38164
9.38334
10.5471
10.5463
10.5461
10.544
10.5462
11.2355
11.2346
11.2342
11.2319
11.2345
11.1834
11.1824
11.1818
11.1793
11.1824
10.0132
10.0121
10.0113
10.0087
10.0121
7.22929
7.22817
7.22724
7.22468
7.22834
2.27036
2.26922
2.26823
2.2657
2.26952
-5.32283
-5.32392
-5.32492
-5.32737
-5.32352
-15.5669
-15.5679
-15.5689
-15.5712
-15.5674
-27.5425
-27.5433
-27.5442
-27.5465
-27.5429
-38.945
-38.9455
-38.9465
-38.9487
-38.9453
-46.111
-46.1114
-46.1125
-46.1146
-46.1114
-45.0158
-45.0159
-45.017
-45.0188
-45.0158
-33.2938
-33.2937
-33.2948
-33.296
-33.2933
640.51
640.51
640.509
640.509
640.511
)
;
    }
    wall_minY
    {
        type            extrapolatedCalculated;
        value           nonuniform List<scalar> 
100
(
0.918428
2.74628
4.5454
6.28736
7.92507
9.3838
10.5468
11.2353
11.1833
10.0132
7.22943
2.27062
-5.3225
-15.5666
-27.5422
-38.9447
-46.1108
-45.0156
-33.2936
640.51
0.91721
2.74415
4.54306
6.28478
7.92225
9.3808
10.5437
11.2321
11.1801
10.01
7.22637
2.26775
-5.32508
-15.5688
-27.5439
-38.9459
-46.1114
-45.0156
-33.2931
640.511
0.917589
2.7452
4.54468
6.28678
7.92456
9.38336
10.5464
11.235
11.1831
10.013
7.22941
2.27071
-5.32229
-15.5662
-27.5417
-38.944
-46.11
-45.0146
-33.2927
640.51
0.91801
2.74594
4.54553
6.28766
7.92541
9.38416
10.5471
11.2356
11.1835
10.0133
7.2295
2.27063
-5.32251
-15.5666
-27.5421
-38.9446
-46.1107
-45.0155
-33.2936
640.51
0.918002
2.74596
4.54563
6.28775
7.92547
9.38418
10.5471
11.2355
11.1834
10.0132
7.22929
2.27036
-5.32283
-15.5669
-27.5425
-38.945
-46.111
-45.0158
-33.2938
640.51
)
;
    }
    wall_maxY
    {
        type            extrapolatedCalculated;
        value           nonuniform List<scalar> 
100
(
0.918002
2.74596
4.54563
6.28775
7.92547
9.38418
10.5471
11.2355
11.1834
10.0132
7.22929
2.27036
-5.32283
-15.5669
-27.5425
-38.945
-46.111
-45.0158
-33.2938
640.51
0.917837
2.74572
4.54532
6.28732
7.92492
9.38351
10.5463
11.2346
11.1824
10.0121
7.22817
2.26922
-5.32392
-15.5679
-27.5433
-38.9455
-46.1114
-45.0159
-33.2937
640.51
0.918212
2.74623
4.54578
6.28765
7.92507
9.38347
10.5461
11.2342
11.1818
10.0113
7.22724
2.26823
-5.32492
-15.5689
-27.5442
-38.9465
-46.1125
-45.017
-33.2948
640.509
0.918193
2.74592
4.54504
6.2865
7.92356
9.38164
10.544
11.2319
11.1793
10.0087
7.22468
2.2657
-5.32737
-15.5712
-27.5465
-38.9487
-46.1146
-45.0188
-33.296
640.509
0.917911
2.74561
4.54515
6.28713
7.92473
9.38334
10.5462
11.2345
11.1824
10.0121
7.22834
2.26952
-5.32352
-15.5674
-27.5429
-38.9453
-46.1114
-45.0158
-33.2933
640.511
)
;
    }
    inlet_minZ
    {
        type            extrapolatedCalculated;
        value           nonuniform List<scalar> 
25
(
0.918428
0.91721
0.917589
0.91801
0.918002
0.91721
0.91671
0.917549
0.917852
0.917837
0.917589
0.917549
0.918185
0.918393
0.918212
0.91801
0.917852
0.918393
0.91849
0.918193
0.918002
0.917837
0.918212
0.918193
0.917911
)
;
    }
    outlet_maxZ
    {
        type            extrapolatedCalculated;
        value           nonuniform List<scalar> 
25
(
640.51
640.511
640.51
640.51
640.51
640.511
640.511
640.511
640.51
640.51
640.51
640.511
640.51
640.509
640.509
640.51
640.51
640.509
640.508
640.509
640.51
640.51
640.509
640.509
640.511
)
;
    }
}


// ************************************************************************* //
