/*--------------------------------*- C++ -*----------------------------------*\
| =========                 |                                                 |
| \\      /  F ield         | OpenFOAM: The Open Source CFD Toolbox           |
|  \\    /   O peration     | Version:  v2106                                 |
|   \\  /    A nd           | Website:  www.openfoam.com                      |
|    \\/     M anipulation  |                                                 |
\*---------------------------------------------------------------------------*/
FoamFile
{
    version     2.0;
    format      ascii;
    arch        "LSB;label=32;scalar=64";
    class       volScalarField;
    location    "100";
    object      error;
}
// * * * * * * * * * * * * * * * * * * * * * * * * * * * * * * * * * * * * * //

dimensions      [0 0 0 1 0 0 0];

internalField   nonuniform List<scalar> 
20000
(
0.00013368326
0.00013363312
0.00013363619
0.00013362785
0.00013362917
0.00013362917
0.00013362347
0.00013366527
0.00013365343
0.00013364598
0.00013356324
0.00013362741
0.0001336375
0.00013363575
0.00013362917
0.00013357771
0.00013357376
0.00013362127
0.00013361469
0.00013360592
0.00013356587
0.00013363224
0.00013357947
0.00013362873
0.00013362829
0.00013362478
0.00013362215
0.00013362171
0.00013361864
0.00013361075
0.00013356236
0.00013362961
0.0001335799
0.00013362785
0.00013362741
0.00013362478
0.00013362259
0.00013362347
0.0001336261
0.00013361777
0.00013361601
0.00013357683
0.00013362654
0.00013362698
0.00013362698
0.00013362434
0.00013362259
0.00013362347
0.00013367624
0.00013366922
0.00013361996
0.00013357376
0.00013362303
0.00013362391
0.00013362434
0.00013367141
0.00013367361
0.00013367361
0.00013367887
0.00013367536
0.0001336182
0.00013357069
0.0001336204
0.00013362215
0.00013362259
0.00013367361
0.00013367975
0.00013368062
0.00013367931
0.00013372989
0.00013361557
0.00013361908
0.0001336204
0.00013362259
0.00013362303
0.00013367317
0.00013368062
0.00013373427
0.00013367887
0.00013373296
0.00013365387
0.00013361338
0.00013361733
0.00013362478
0.00013367536
0.00013367843
0.00013367887
0.00013367843
0.00013367843
0.00013373822
0.00013364773
0.0001336068
0.00013361031
0.00013361645
0.0001336204
0.00013367361
0.00013372813
0.00013373164
0.00013373734
0.00013379538
0.00012690964
0.00012690397
0.00012689087
0.00012688564
0.00012692809
0.00012692678
0.00012692329
0.00012692286
0.00012692111
0.00012691544
0.00012690266
0.00012690266
0.00012694074
0.00012693638
0.00012693114
0.00012692722
0.00012692373
0.00012692417
0.00012692242
0.00012691806
0.00012688956
0.0001269403
0.00012693551
0.00012693289
0.00012692984
0.00012692766
0.00012692547
0.0001269246
0.00012692373
0.00012692111
0.00012688433
0.00012693594
0.00012693245
0.00012693245
0.00012693071
0.00012693027
0.00012692766
0.00012692591
0.00012692722
0.00012692591
0.00012692766
0.00012693071
0.00012692984
0.00012693071
0.00012693114
0.00012693027
0.00012697534
0.0001269294
0.00012697796
0.00012697578
0.00012692635
0.00012692722
0.00012692766
0.00012692984
0.00012693027
0.00012692896
0.00012697752
0.00012697752
0.00012697927
0.00012697796
0.00012692329
0.00012692373
0.00012692547
0.00012692766
0.00012697534
0.00012697752
0.0001269784
0.00012697883
0.0001269797
0.0001269797
0.00012692286
0.00012692373
0.0001269246
0.00012692635
0.00012692984
0.00012697752
0.00012697927
0.00012698276
0.00012697927
0.00012694293
0.00012692111
0.00012692242
0.00012692373
0.00012692722
0.0001269784
0.0001269797
0.0001269797
0.00012697927
0.00012693988
0.00012699149
0.00012691588
0.00012691806
0.00012692111
0.00012692591
0.00012697578
0.00012697796
0.0001269797
0.00012694293
0.00012699106
0.00012699847
0.00012028562
0.00012028605
0.00012028171
0.00012027477
0.0001203044
0.0001202992
0.0001202966
0.00012029443
0.00012029356
0.00012029096
0.00012028605
0.00012028258
0.00012027998
0.00012030961
0.00012030397
0.00012030007
0.00012029703
0.00012029486
0.00012029399
0.00012033925
0.00012028171
0.00012027998
0.00012031221
0.00012030701
0.0001203044
0.0001203005
0.00012034402
0.00012034316
0.00012034359
0.00012034229
0.00012027434
0.00012030961
0.00012030701
0.00012030527
0.00012034923
0.00012034749
0.00012034663
0.00012034619
0.00012034749
0.00012034749
0.0001203044
0.00012030397
0.0001203044
0.00012034923
0.0001203488
0.0001203488
0.00012034923
0.00012035183
0.0001203527
0.00012035096
0.0001202992
0.00012030007
0.0001203005
0.00012034749
0.0001203488
0.0001203501
0.00012035357
0.000120354
0.00012031786
0.00012031743
0.0001202966
0.00012029703
0.00012034402
0.00012034663
0.00012034923
0.00012035357
0.000120354
0.0001203183
0.0001203196
0.0001203196
0.00012029399
0.00012029486
0.00012034316
0.00012034619
0.00012035183
0.000120354
0.0001203183
0.00012032133
0.00012036789
0.00012036659
0.00012029356
0.00012029399
0.00012034316
0.00012034749
0.0001203527
0.00012031786
0.0001203196
0.00012036789
0.00012036659
0.00012036833
0.00012029096
0.00012033925
0.00012034272
0.00012034749
0.00012035096
0.00012031743
0.0001203196
0.00012036703
0.00012036789
0.00012037006
0.0001137412
0.0001137412
0.00011377197
0.00011376463
0.0001137941
0.00011378893
0.0001137859
0.00011378288
0.00011374651
0.00011374522
0.0001137412
0.00011377326
0.00011376852
0.00011376291
0.00011379324
0.00011378893
0.00011378504
0.00011378418
0.00011374737
0.00011374651
0.00011377197
0.00011376852
0.00011376463
0.00011379583
0.00011379238
0.00011378893
0.00011378634
0.00011378634
0.00011378634
0.00011374996
0.00011376463
0.00011376291
0.00011379583
0.0001137941
0.00011379065
0.00011378893
0.00011378936
0.00011379022
0.00011379151
0.00011375557
0.0001137941
0.00011379324
0.00011379238
0.00011379065
0.00011378979
0.00011379108
0.00011379324
0.00011379669
0.00011375989
0.00011375902
0.00011378893
0.00011378893
0.00011378893
0.00011378893
0.00011379108
0.00011379367
0.00011379755
0.00011379885
0.00011380878
0.00011380878
0.0001137859
0.00011378504
0.00011378634
0.00011378936
0.00011379324
0.00011379755
0.00011384559
0.00011381267
0.00011381267
0.00011381267
0.00011378288
0.00011378418
0.00011378634
0.00011379065
0.00011379669
0.00011379885
0.00011381224
0.00011381569
0.00011381439
0.00011381396
0.00011374651
0.00011374737
0.00011378634
0.00011379151
0.00011375989
0.00011380878
0.00011381267
0.00011381439
0.00011381569
0.00011381526
0.00011374522
0.00011374651
0.00011374996
0.00011375557
0.00011375902
0.00011380878
0.00011381267
0.00011381396
0.00011381526
0.00011381612
0.00010730055
0.00010729669
0.00010729197
0.00010732214
0.00010731613
0.00010731141
0.00010730883
0.00010730669
0.00010730669
0.00010730497
0.00010729669
0.0001072924
0.00010732471
0.0001073187
0.00010731484
0.00010734587
0.00010734372
0.00010730755
0.00010730712
0.00010730712
0.00010729197
0.00010732471
0.00010732128
0.00010735274
0.00010734887
0.00010734587
0.00010734544
0.00010734587
0.00010731098
0.00010731141
0.00010732214
0.0001073187
0.00010735274
0.00010735016
0.00010734759
0.00010734716
0.0001073493
0.00010735059
0.00010731656
0.00010731656
0.00010731613
0.00010731484
0.00010734887
0.00010734759
0.00010734845
0.00010735102
0.00010735317
0.0001073566
0.00010732085
0.00010731999
0.00010731141
0.00010734587
0.00010734587
0.00010734716
0.00010735102
0.0001073536
0.00010735746
0.00010736003
0.00010732385
0.00010732471
0.00010730883
0.00010734372
0.00010734544
0.0001073493
0.00010735317
0.00010735746
0.00010736003
0.000107329
0.000107329
0.000107329
0.00010730669
0.00010730755
0.00010734587
0.00010735059
0.0001073566
0.00010736003
0.000107329
0.00010733201
0.00010733072
0.00010733072
0.00010730669
0.00010730712
0.00010731098
0.00010731656
0.00010732085
0.00010732385
0.000107329
0.00010733072
0.00010737936
0.00010737721
0.00010730497
0.00010730712
0.00010731141
0.00010731656
0.00010731999
0.00010732471
0.000107329
0.00010733072
0.00010737721
0.00010737807
0.0001009226
0.00010092004
0.00010091577
0.00010094706
0.00010094279
0.00010093852
0.00010093724
0.00010093681
0.00010093767
0.0001009822
0.00010092004
0.00010091534
0.00010091321
0.00010094407
0.00010094023
0.00010093767
0.00010093681
0.00010093767
0.00010093852
0.0001009398
0.00010091577
0.00010091321
0.00010094621
0.00010094236
0.00010097536
0.00010097408
0.00010097494
0.00010094108
0.00010094279
0.00010094364
0.00010094706
0.00010094407
0.00010094236
0.00010097622
0.00010097494
0.00010097622
0.0001009792
0.00010098134
0.00010094834
0.00010094834
0.00010094279
0.00010094023
0.00010097536
0.00010097494
0.00010097792
0.00010098048
0.00010098262
0.00010098689
0.00010095261
0.00010095218
0.00010093852
0.00010093767
0.00010097408
0.00010097622
0.00010098048
0.00010098219
0.00010098689
0.00010099116
0.00010095602
0.00010095773
0.00010093724
0.00010093681
0.00010097494
0.0001009792
0.00010098262
0.00010098689
0.00010099073
0.00010096072
0.00010096115
0.00010096157
0.00010093681
0.00010093767
0.00010094108
0.00010098134
0.00010098689
0.00010099116
0.00010096072
0.00010096371
0.00010096413
0.00010096328
0.00010093767
0.00010093852
0.00010094279
0.00010094834
0.00010095261
0.00010095602
0.00010096115
0.00010096413
0.00010096413
0.00010096542
0.0001009822
0.0001009398
0.00010094364
0.00010094834
0.00010095218
0.00010095773
0.00010096157
0.00010096328
0.00010096542
0.00010096584
9.4579899e-05
9.4577776e-05
9.4610175e-05
9.4651926e-05
9.4684749e-05
9.4682202e-05
9.4683051e-05
9.4683476e-05
9.4685599e-05
9.4684325e-05
9.4577776e-05
9.4654474e-05
9.4607627e-05
9.4649379e-05
9.4636628e-05
9.4682202e-05
9.4682626e-05
9.4685174e-05
9.4640875e-05
9.4642573e-05
9.4610175e-05
9.4607627e-05
9.4640875e-05
9.4638327e-05
9.4637902e-05
9.4638327e-05
9.464045e-05
9.4642998e-05
9.4645121e-05
9.4691543e-05
9.4651926e-05
9.4649379e-05
9.4638327e-05
9.4638751e-05
9.4674547e-05
9.467667e-05
9.4679642e-05
9.4648093e-05
9.4650641e-05
9.4651065e-05
9.4684749e-05
9.4636628e-05
9.4637902e-05
9.4674547e-05
9.4677519e-05
9.4680916e-05
9.4683888e-05
9.4689408e-05
9.4655312e-05
9.4655736e-05
9.4682202e-05
9.4682202e-05
9.4638327e-05
9.467667e-05
9.4680916e-05
9.4683464e-05
9.4688559e-05
9.4692805e-05
9.4659133e-05
9.4660832e-05
9.4683051e-05
9.4682626e-05
9.464045e-05
9.4679642e-05
9.4683888e-05
9.4688559e-05
9.4691531e-05
9.466253e-05
9.4664653e-05
9.4665078e-05
9.4683476e-05
9.4685174e-05
9.4642998e-05
9.4648093e-05
9.4689408e-05
9.4692805e-05
9.466253e-05
9.4667201e-05
9.466805e-05
9.4667201e-05
9.4685599e-05
9.4640875e-05
9.4645121e-05
9.4650641e-05
9.4655312e-05
9.4659133e-05
9.4664653e-05
9.466805e-05
9.466805e-05
9.4669324e-05
9.4684325e-05
9.4642573e-05
9.4691543e-05
9.4651065e-05
9.4655736e-05
9.4660832e-05
9.4665078e-05
9.4667201e-05
9.4669324e-05
9.4715322e-05
8.8388439e-05
8.8386749e-05
8.8384637e-05
8.8417287e-05
8.841602e-05
8.8416442e-05
8.8453738e-05
8.8419821e-05
8.8422778e-05
8.8466844e-05
8.8386749e-05
8.8382526e-05
8.8417287e-05
8.8415175e-05
8.841602e-05
8.8452049e-05
8.8453738e-05
8.8421933e-05
8.8424045e-05
8.8425735e-05
8.8384637e-05
8.8417287e-05
8.8416865e-05
8.8452471e-05
8.8453316e-05
8.8454583e-05
8.8457117e-05
8.8460496e-05
8.8428269e-05
8.8428691e-05
8.8417287e-05
8.8415175e-05
8.8452471e-05
8.845416e-05
8.8455428e-05
8.8457962e-05
8.8461763e-05
8.8466409e-05
8.8469366e-05
8.8469366e-05
8.841602e-05
8.841602e-05
8.8453316e-05
8.8455428e-05
8.8494413e-05
8.8498637e-05
8.8502016e-05
8.8472745e-05
8.8472745e-05
8.847359e-05
8.8416442e-05
8.8452049e-05
8.8454583e-05
8.8457962e-05
8.8498637e-05
8.8501171e-05
8.8506239e-05
8.8474857e-05
8.8477391e-05
8.8478658e-05
8.8453738e-05
8.8453738e-05
8.8457117e-05
8.8461763e-05
8.8502016e-05
8.8506239e-05
8.847359e-05
8.8435015e-05
8.8483727e-05
8.8483727e-05
8.8419821e-05
8.8421933e-05
8.8460496e-05
8.8466409e-05
8.8472745e-05
8.8474857e-05
8.8435015e-05
8.8440083e-05
8.8484994e-05
8.8487106e-05
8.8422778e-05
8.8424045e-05
8.8428269e-05
8.8469366e-05
8.8472745e-05
8.8477391e-05
8.8483727e-05
8.8484994e-05
8.8489218e-05
8.8488373e-05
8.8466844e-05
8.8425735e-05
8.8428691e-05
8.8469366e-05
8.847359e-05
8.8478658e-05
8.8483727e-05
8.8487106e-05
8.8488373e-05
8.8489218e-05
8.2265532e-05
8.2264229e-05
8.2263221e-05
8.2297842e-05
8.2299312e-05
8.2345458e-05
8.2348063e-05
8.2350415e-05
8.2309186e-05
8.2352054e-05
8.2264229e-05
8.2260364e-05
8.226196e-05
8.2297295e-05
8.2299858e-05
8.2301287e-05
8.2304018e-05
8.2308304e-05
8.2310614e-05
8.2312211e-05
8.2263221e-05
8.226196e-05
8.2298682e-05
8.2301077e-05
8.230322e-05
8.2340277e-05
8.2308556e-05
8.2312211e-05
8.2314984e-05
8.2314564e-05
8.2297842e-05
8.2297295e-05
8.2301077e-05
8.2304228e-05
8.234137e-05
8.2344689e-05
8.2348975e-05
8.2318556e-05
8.2320362e-05
8.2320446e-05
8.2299312e-05
8.2299858e-05
8.230322e-05
8.234137e-05
8.2347042e-05
8.2351244e-05
8.2354101e-05
8.235868e-05
8.2323892e-05
8.2325362e-05
8.2345458e-05
8.2301287e-05
8.2340277e-05
8.2344689e-05
8.2351244e-05
8.2352966e-05
8.2357168e-05
8.2316064e-05
8.2319762e-05
8.2331833e-05
8.2348063e-05
8.2304018e-05
8.2308556e-05
8.2348975e-05
8.2354101e-05
8.2357168e-05
8.2359311e-05
8.2321274e-05
8.2324047e-05
8.2335614e-05
8.2350415e-05
8.2308304e-05
8.2312211e-05
8.2318556e-05
8.235868e-05
8.2316064e-05
8.2321274e-05
8.2326022e-05
8.2337169e-05
8.2339522e-05
8.2309186e-05
8.2310614e-05
8.2314984e-05
8.2320362e-05
8.2323892e-05
8.2319762e-05
8.2324047e-05
8.2337169e-05
8.2339185e-05
8.2341034e-05
8.2352054e-05
8.2312211e-05
8.2314564e-05
8.2320446e-05
8.2325362e-05
8.2331833e-05
8.2335614e-05
8.2339522e-05
8.2341034e-05
8.2343093e-05
7.6252498e-05
7.6252456e-05
7.6254002e-05
7.6255716e-05
7.6293918e-05
7.6294795e-05
7.6298306e-05
7.6301441e-05
7.6270972e-05
7.6268297e-05
7.6252456e-05
7.6250282e-05
7.625488e-05
7.6257889e-05
7.6295339e-05
7.6297136e-05
7.6301023e-05
7.6305495e-05
7.6273521e-05
7.6274692e-05
7.6254002e-05
7.625488e-05
7.6214785e-05
7.6252109e-05
7.6299477e-05
7.6257668e-05
7.6261639e-05
7.6265233e-05
7.6232883e-05
7.6311932e-05
7.6255716e-05
7.6257889e-05
7.6252109e-05
7.6300647e-05
7.6258922e-05
7.6263269e-05
7.6266989e-05
7.6271377e-05
7.62733e-05
7.6273676e-05
7.6293918e-05
7.6295339e-05
7.6299477e-05
7.6258922e-05
7.626586e-05
7.6269497e-05
7.6272464e-05
7.6276853e-05
7.627794e-05
7.6279486e-05
7.6294795e-05
7.6297136e-05
7.6257668e-05
7.6263269e-05
7.6269497e-05
7.6271879e-05
7.6275933e-05
7.6280531e-05
7.6284125e-05
7.6285756e-05
7.6298306e-05
7.6301023e-05
7.6261639e-05
7.6266989e-05
7.6272464e-05
7.6275933e-05
7.6278232e-05
7.6285003e-05
7.6287009e-05
7.6289266e-05
7.6301441e-05
7.6305495e-05
7.6265233e-05
7.6271377e-05
7.6276853e-05
7.6280531e-05
7.6285003e-05
7.6288472e-05
7.6292401e-05
7.6292401e-05
7.6270972e-05
7.6273521e-05
7.6232883e-05
7.62733e-05
7.627794e-05
7.6284125e-05
7.6287009e-05
7.6292401e-05
7.6292568e-05
7.6295034e-05
7.6268297e-05
7.6274692e-05
7.6311932e-05
7.6273676e-05
7.6279486e-05
7.6285756e-05
7.6289266e-05
7.6292401e-05
7.6295034e-05
7.6295703e-05
7.0257166e-05
7.0259037e-05
7.0262987e-05
7.0266688e-05
7.0270056e-05
7.0316928e-05
7.0276625e-05
7.0280076e-05
7.0284733e-05
7.032595e-05
7.0259037e-05
7.0258912e-05
7.0265399e-05
7.0269598e-05
7.0273091e-05
7.0276251e-05
7.0280825e-05
7.0285191e-05
7.0288559e-05
7.0288476e-05
7.0262987e-05
7.0265399e-05
7.0271594e-05
7.0274463e-05
7.0278081e-05
7.0282571e-05
7.0286729e-05
7.0289931e-05
7.0291968e-05
7.0290679e-05
7.0266688e-05
7.0269598e-05
7.0274463e-05
7.0278995e-05
7.0283403e-05
7.0288517e-05
7.0291053e-05
7.0295502e-05
7.029833e-05
7.0297083e-05
7.0270056e-05
7.0273091e-05
7.0278081e-05
7.0283403e-05
7.0291137e-05
7.0294047e-05
7.0297498e-05
7.0301906e-05
7.0303777e-05
7.0303153e-05
7.0316928e-05
7.0276251e-05
7.0282571e-05
7.0288517e-05
7.0294047e-05
7.0287715e-05
7.029154e-05
7.0296446e-05
7.0299814e-05
7.0299274e-05
7.0276625e-05
7.0280825e-05
7.0286729e-05
7.0291053e-05
7.0297498e-05
7.029154e-05
7.0294908e-05
7.0301519e-05
7.0303598e-05
7.0347393e-05
7.0280076e-05
7.0285191e-05
7.0289931e-05
7.0295502e-05
7.0301906e-05
7.0296446e-05
7.0301519e-05
7.030576e-05
7.0307507e-05
7.030734e-05
7.0284733e-05
7.0288559e-05
7.0291968e-05
7.029833e-05
7.0303777e-05
7.0299814e-05
7.0303598e-05
7.0307507e-05
7.0320533e-05
7.0354004e-05
7.032595e-05
7.0288476e-05
7.0290679e-05
7.0297083e-05
7.0303153e-05
7.0299274e-05
7.0347393e-05
7.030734e-05
7.0354004e-05
7.0352715e-05
6.4363794e-05
6.4366938e-05
6.4372729e-05
6.4377775e-05
6.4382698e-05
6.4386586e-05
6.4391467e-05
6.4394528e-05
6.4398665e-05
6.443818e-05
6.4366938e-05
6.4367806e-05
6.4376121e-05
6.438063e-05
6.4386627e-05
6.4391426e-05
6.4395893e-05
6.4399326e-05
6.4402594e-05
6.4401271e-05
6.4372729e-05
6.4376121e-05
6.4381995e-05
6.438671e-05
6.4392377e-05
6.4397424e-05
6.4400898e-05
6.440367e-05
6.4405076e-05
6.4402842e-05
6.4377775e-05
6.438063e-05
6.438671e-05
6.439217e-05
6.4397465e-05
6.4402718e-05
6.440458e-05
6.4408385e-05
6.4411695e-05
6.4408468e-05
6.4382698e-05
6.4386627e-05
6.4392377e-05
6.4397465e-05
6.4405614e-05
6.4408054e-05
6.4411612e-05
6.4414631e-05
6.4416369e-05
6.4414301e-05
6.4386586e-05
6.4391426e-05
6.4397424e-05
6.4402718e-05
6.4408054e-05
6.4368457e-05
6.4371559e-05
6.4375613e-05
6.4378881e-05
6.4376523e-05
6.4391467e-05
6.4395893e-05
6.4400898e-05
6.440458e-05
6.4411612e-05
6.4371559e-05
6.4375158e-05
6.4380866e-05
6.4383307e-05
6.4422822e-05
6.4394528e-05
6.4399326e-05
6.440367e-05
6.4408385e-05
6.4414631e-05
6.4375613e-05
6.4380866e-05
6.4385871e-05
6.4385375e-05
6.4384217e-05
6.4398665e-05
6.4402594e-05
6.4405076e-05
6.4411695e-05
6.4416369e-05
6.4378881e-05
6.4383307e-05
6.4385375e-05
6.4431177e-05
6.442853e-05
6.443818e-05
6.4401271e-05
6.4402842e-05
6.4408468e-05
6.4414301e-05
6.4376523e-05
6.4422822e-05
6.4384217e-05
6.442853e-05
6.4425717e-05
5.848903e-05
5.8492486e-05
5.8499688e-05
5.8505244e-05
5.8512898e-05
5.855158e-05
5.8556683e-05
5.8559563e-05
5.8562856e-05
5.860081e-05
5.8492486e-05
5.8493021e-05
5.8502486e-05
5.8508412e-05
5.8516478e-05
5.8522034e-05
5.8561168e-05
5.8564008e-05
5.8567053e-05
5.856586e-05
5.8499688e-05
5.8502486e-05
5.8508906e-05
5.851475e-05
5.8521828e-05
5.8527795e-05
5.8565572e-05
5.8567917e-05
5.8568205e-05
5.8565572e-05
5.8505244e-05
5.8508412e-05
5.851475e-05
5.8520347e-05
5.8526766e-05
5.8533021e-05
5.8569234e-05
5.8571127e-05
5.8574131e-05
5.8570263e-05
5.8512898e-05
5.8516478e-05
5.8521828e-05
5.8526766e-05
5.853619e-05
5.8539153e-05
5.8541211e-05
5.8576436e-05
5.857767e-05
5.8576847e-05
5.855158e-05
5.8522034e-05
5.8527795e-05
5.8533021e-05
5.8539153e-05
5.854405e-05
5.8546108e-05
5.8582403e-05
5.8584378e-05
5.8581744e-05
5.8556683e-05
5.8561168e-05
5.8565572e-05
5.8569234e-05
5.8541211e-05
5.8546108e-05
5.8583349e-05
5.8586024e-05
5.8586477e-05
5.858409e-05
5.8559563e-05
5.8564008e-05
5.8567917e-05
5.8571127e-05
5.8576436e-05
5.8582403e-05
5.8586024e-05
5.8588082e-05
5.859014e-05
5.8588329e-05
5.8562856e-05
5.8567053e-05
5.8568205e-05
5.8574131e-05
5.857767e-05
5.8584378e-05
5.8586477e-05
5.859014e-05
5.8589605e-05
5.8588288e-05
5.860081e-05
5.856586e-05
5.8565572e-05
5.8570263e-05
5.8576847e-05
5.8581744e-05
5.858409e-05
5.8588329e-05
5.8588288e-05
5.858623e-05
5.2698379e-05
5.2702473e-05
5.2709842e-05
5.2716393e-05
5.27254e-05
5.2774255e-05
5.2779578e-05
5.2782853e-05
5.278531e-05
5.2778759e-05
5.2702473e-05
5.2746824e-05
5.271148e-05
5.2719259e-05
5.2728676e-05
5.2778759e-05
5.2740958e-05
5.2786129e-05
5.2788994e-05
5.2788585e-05
5.2709842e-05
5.271148e-05
5.271885e-05
5.2724991e-05
5.2733179e-05
5.2740139e-05
5.2743005e-05
5.2744234e-05
5.2788176e-05
5.278531e-05
5.2716393e-05
5.2719259e-05
5.2724991e-05
5.2731132e-05
5.2737683e-05
5.2743824e-05
5.2745462e-05
5.274669e-05
5.2749556e-05
5.2790223e-05
5.27254e-05
5.2728676e-05
5.2733179e-05
5.2737683e-05
5.2746281e-05
5.2749965e-05
5.2751603e-05
5.2752013e-05
5.2752831e-05
5.2752013e-05
5.2774255e-05
5.2778759e-05
5.2740139e-05
5.2743824e-05
5.2749965e-05
5.2755697e-05
5.2757335e-05
5.2757744e-05
5.2758563e-05
5.275365e-05
5.2779578e-05
5.2740958e-05
5.2743005e-05
5.2745462e-05
5.2751603e-05
5.2757335e-05
5.2758973e-05
5.276061e-05
5.2758563e-05
5.2757335e-05
5.2782853e-05
5.2786129e-05
5.2744234e-05
5.274669e-05
5.2752013e-05
5.2757744e-05
5.276061e-05
5.2762248e-05
5.2762248e-05
5.2761839e-05
5.278531e-05
5.2788994e-05
5.2788176e-05
5.2749556e-05
5.2752831e-05
5.2758563e-05
5.2758563e-05
5.2762248e-05
5.2807009e-05
5.2805781e-05
5.2778759e-05
5.2788585e-05
5.278531e-05
5.2790223e-05
5.2752013e-05
5.275365e-05
5.2757335e-05
5.2761839e-05
5.2805781e-05
5.2803324e-05
4.6967924e-05
4.697159e-05
4.6978514e-05
4.6985439e-05
4.6995622e-05
4.7000918e-05
4.7004991e-05
4.7008657e-05
4.7009879e-05
4.7081417e-05
4.697159e-05
4.6970775e-05
4.6980144e-05
4.698829e-05
4.6997659e-05
4.7002954e-05
4.7009472e-05
4.7010286e-05
4.7012323e-05
4.7047067e-05
4.6978514e-05
4.6980144e-05
4.6987068e-05
4.6992771e-05
4.7000918e-05
4.7007842e-05
4.7010694e-05
4.7010694e-05
4.7011101e-05
4.7042587e-05
4.6985439e-05
4.698829e-05
4.6992771e-05
4.6998066e-05
4.7006213e-05
4.7010694e-05
4.7011101e-05
4.701273e-05
4.7013952e-05
4.7045438e-05
4.6995622e-05
4.6997659e-05
4.7000918e-05
4.7006213e-05
4.7013545e-05
4.7014767e-05
4.7016397e-05
4.7016804e-05
4.7016804e-05
4.7013952e-05
4.7000918e-05
4.7002954e-05
4.7007842e-05
4.7010694e-05
4.7014767e-05
4.7018841e-05
4.7020063e-05
4.7018841e-05
4.7019248e-05
4.7017211e-05
4.7004991e-05
4.7009472e-05
4.7010694e-05
4.7011101e-05
4.7016397e-05
4.7020063e-05
4.7021285e-05
4.7022507e-05
4.7020877e-05
4.7051548e-05
4.7008657e-05
4.7010286e-05
4.7010694e-05
4.701273e-05
4.7016804e-05
4.7018841e-05
4.7022507e-05
4.7059287e-05
4.7058065e-05
4.7056436e-05
4.7009879e-05
4.7012323e-05
4.7011101e-05
4.7013952e-05
4.7016804e-05
4.7019248e-05
4.7020877e-05
4.7058065e-05
4.705888e-05
4.7055621e-05
4.7081417e-05
4.7047067e-05
4.7042587e-05
4.7045438e-05
4.7013952e-05
4.7017211e-05
4.7051548e-05
4.7056436e-05
4.7055621e-05
4.7054807e-05
4.1287781e-05
4.1290618e-05
4.1297913e-05
4.1303587e-05
4.1313313e-05
4.1318987e-05
4.1321824e-05
4.1325066e-05
4.1325877e-05
4.1320608e-05
4.1290618e-05
4.1288997e-05
4.1298318e-05
4.1305613e-05
4.131534e-05
4.1320203e-05
4.1324661e-05
4.1326687e-05
4.1328308e-05
4.1329524e-05
4.1298318e-05
4.1298318e-05
4.1304803e-05
4.1310071e-05
4.1317771e-05
4.1322635e-05
4.1325877e-05
4.1327498e-05
4.1326282e-05
4.1358419e-05
4.1303587e-05
4.1305613e-05
4.1310071e-05
4.1314124e-05
4.1320203e-05
4.1323445e-05
4.1324256e-05
4.1325472e-05
4.1324256e-05
4.1356797e-05
4.1313313e-05
4.131534e-05
4.1317771e-05
4.1320203e-05
4.1325877e-05
4.1326687e-05
4.1328308e-05
4.1327903e-05
4.1325472e-05
4.1359229e-05
4.1318987e-05
4.1320203e-05
4.1322635e-05
4.1323445e-05
4.1326687e-05
4.1329119e-05
4.1328308e-05
4.1327498e-05
4.136004e-05
4.1358419e-05
4.1321824e-05
4.1324661e-05
4.1325877e-05
4.1324256e-05
4.1328308e-05
4.1328308e-05
4.1329119e-05
4.1364092e-05
4.136004e-05
4.1357203e-05
4.1325066e-05
4.1326687e-05
4.1327498e-05
4.1325472e-05
4.1327903e-05
4.1327498e-05
4.1364092e-05
4.1364092e-05
4.136085e-05
4.1360445e-05
4.1325877e-05
4.1328308e-05
4.1326282e-05
4.1324256e-05
4.1325472e-05
4.136004e-05
4.136004e-05
4.136085e-05
4.1404753e-05
4.1401916e-05
4.1320608e-05
4.1329524e-05
4.1358419e-05
4.1356797e-05
4.1359229e-05
4.1358419e-05
4.1357203e-05
4.1360445e-05
4.1401916e-05
4.1433647e-05
3.5625217e-05
3.5627233e-05
3.5635701e-05
3.5639733e-05
3.5648201e-05
3.5652233e-05
3.568824e-05
3.5691869e-05
3.5691466e-05
3.568703e-05
3.5627233e-05
3.5627636e-05
3.5634491e-05
3.5642152e-05
3.5648201e-05
3.5652637e-05
3.5689853e-05
3.5690659e-05
3.5690256e-05
3.5691466e-05
3.5636104e-05
3.5634491e-05
3.5641346e-05
3.5644975e-05
3.5650217e-05
3.5653846e-05
3.5690659e-05
3.5690659e-05
3.5690659e-05
3.5691466e-05
3.5639733e-05
3.5642152e-05
3.5644975e-05
3.5645782e-05
3.565062e-05
3.565304e-05
3.5685821e-05
3.5685821e-05
3.5687434e-05
3.568703e-05
3.5648201e-05
3.5648201e-05
3.5650217e-05
3.565062e-05
3.5654653e-05
3.5655056e-05
3.5686627e-05
3.5686224e-05
3.5684208e-05
3.5685014e-05
3.5652233e-05
3.5652637e-05
3.5653846e-05
3.565304e-05
3.5655056e-05
3.568824e-05
3.5685417e-05
3.5685821e-05
3.5727083e-05
3.5759057e-05
3.568824e-05
3.5689853e-05
3.5690659e-05
3.5685821e-05
3.5686627e-05
3.5685417e-05
3.5727889e-05
3.576067e-05
3.5757041e-05
3.5756234e-05
3.5691869e-05
3.5690659e-05
3.5690659e-05
3.5685821e-05
3.5686224e-05
3.5685821e-05
3.576067e-05
3.5758654e-05
3.5757041e-05
3.5753815e-05
3.5691466e-05
3.5690256e-05
3.5690659e-05
3.5687434e-05
3.5684208e-05
3.5727083e-05
3.5757041e-05
3.5757041e-05
3.5754621e-05
3.5750589e-05
3.568703e-05
3.5691466e-05
3.5691466e-05
3.568703e-05
3.5685014e-05
3.5759057e-05
3.5756234e-05
3.5753815e-05
3.5750589e-05
3.5786999e-05
3.005202e-05
3.0050816e-05
3.0058841e-05
3.0061248e-05
3.0068069e-05
3.0069673e-05
3.0071278e-05
3.0074087e-05
3.0074488e-05
3.0073284e-05
3.0050014e-05
3.0053224e-05
3.0054829e-05
3.006205e-05
3.0065661e-05
3.0067667e-05
3.0070476e-05
3.0111932e-05
3.0111932e-05
3.0110729e-05
3.0058841e-05
3.005523e-05
3.0060847e-05
3.0066063e-05
3.006847e-05
3.0070476e-05
3.0071679e-05
3.0071278e-05
3.0070877e-05
3.014495e-05
3.0061248e-05
3.006205e-05
3.0066063e-05
3.0029835e-05
3.0031841e-05
3.0108723e-05
3.010792e-05
3.0108723e-05
3.0139333e-05
3.0140537e-05
3.0068069e-05
3.0065661e-05
3.006847e-05
3.0031841e-05
3.0108723e-05
3.0107519e-05
3.0105513e-05
3.0137728e-05
3.0136123e-05
3.0137728e-05
3.0069673e-05
3.0067667e-05
3.0070476e-05
3.0108321e-05
3.0107519e-05
3.0105112e-05
3.0102303e-05
3.0132512e-05
3.013171e-05
3.0131309e-05
3.0071278e-05
3.0070476e-05
3.0071679e-05
3.010792e-05
3.0105513e-05
3.0102303e-05
3.0133315e-05
3.0128901e-05
3.0126895e-05
3.0161919e-05
3.0074087e-05
3.0111932e-05
3.0071278e-05
3.0108723e-05
3.0137728e-05
3.0132512e-05
3.0128901e-05
3.0159512e-05
3.0156302e-05
3.01555e-05
3.0074488e-05
3.0111932e-05
3.0070877e-05
3.0139333e-05
3.0136123e-05
3.013171e-05
3.0126895e-05
3.0156302e-05
3.0158709e-05
3.0154296e-05
3.0073284e-05
3.0110729e-05
3.014495e-05
3.0140537e-05
3.0137728e-05
3.0131309e-05
3.0161919e-05
3.01555e-05
3.0154296e-05
3.015229e-05
2.4501947e-05
2.4536809e-05
2.4540801e-05
2.4543596e-05
2.4550781e-05
2.4550382e-05
2.4551979e-05
2.4554374e-05
2.4557568e-05
2.4561161e-05
2.4534813e-05
2.4540801e-05
2.4538007e-05
2.4541999e-05
2.4541999e-05
2.4540801e-05
2.45416e-05
2.4540402e-05
2.4540801e-05
2.4540801e-05
2.4540402e-05
2.4539204e-05
2.4536809e-05
2.4545991e-05
2.4547588e-05
2.4548386e-05
2.4544394e-05
2.4543995e-05
2.4574053e-05
2.457086e-05
2.4543596e-05
2.4543196e-05
2.454639e-05
2.4543196e-05
2.4542398e-05
2.4540402e-05
2.4535611e-05
2.457086e-05
2.4570061e-05
2.4567267e-05
2.4508334e-05
2.4542797e-05
2.4547588e-05
2.4542398e-05
2.4540402e-05
2.4533615e-05
2.4530821e-05
2.4564472e-05
2.4562875e-05
2.4562875e-05
2.4550382e-05
2.45416e-05
2.4548785e-05
2.4540402e-05
2.4533615e-05
2.4530022e-05
2.4558883e-05
2.4559282e-05
2.4594943e-05
2.4600133e-05
2.4551979e-05
2.4541999e-05
2.4544394e-05
2.4536011e-05
2.453122e-05
2.4558883e-05
2.4594145e-05
2.4629393e-05
2.4619812e-05
2.4628195e-05
2.4554774e-05
2.4540402e-05
2.4543995e-05
2.457086e-05
2.4564472e-05
2.4559282e-05
2.4629393e-05
2.46258e-05
2.4617816e-05
2.4625001e-05
2.4557568e-05
2.4540801e-05
2.4574053e-05
2.4570061e-05
2.4562875e-05
2.4594943e-05
2.4619812e-05
2.4617816e-05
2.4621409e-05
2.4619812e-05
2.456156e-05
2.4540801e-05
2.457086e-05
2.4567267e-05
2.4562875e-05
2.4600133e-05
2.4628195e-05
2.4625001e-05
2.4619812e-05
2.4605041e-05
1.8977434e-05
1.9039649e-05
1.9034485e-05
1.9032101e-05
1.9016493e-05
1.9053154e-05
1.9017273e-05
1.9026012e-05
1.9034354e-05
1.9049846e-05
1.907553e-05
1.9050771e-05
1.9047593e-05
1.903806e-05
1.9029718e-05
1.9064407e-05
1.9061627e-05
1.9025746e-05
1.9036471e-05
1.9064277e-05
1.9070366e-05
1.9046004e-05
1.9067188e-05
1.903091e-05
1.9032498e-05
1.903369e-05
1.9064804e-05
1.9060832e-05
1.9063216e-05
1.9067969e-05
1.9069571e-05
1.9036471e-05
1.9030512e-05
1.9069571e-05
1.906838e-05
1.9029718e-05
1.9063613e-05
1.9091933e-05
1.9095508e-05
1.9093125e-05
1.9012917e-05
1.9070763e-05
1.9032101e-05
1.9067982e-05
1.905964e-05
1.9059243e-05
1.9085974e-05
1.9081605e-05
1.9088358e-05
1.9085974e-05
1.9050374e-05
1.9063216e-05
1.9033293e-05
1.9029718e-05
1.9058846e-05
1.9053285e-05
1.9080016e-05
1.9074057e-05
1.9076441e-05
1.9080413e-05
1.9058318e-05
1.9060832e-05
1.9064407e-05
1.9063613e-05
1.9085974e-05
1.9080016e-05
1.9077633e-05
1.9074455e-05
1.9134286e-05
1.9112706e-05
1.9025218e-05
1.9025348e-05
1.9060435e-05
1.9091536e-05
1.9081208e-05
1.9074057e-05
1.9074455e-05
1.9111514e-05
1.9127136e-05
1.910635e-05
1.9034354e-05
1.9036074e-05
1.9062818e-05
1.9095111e-05
1.9088358e-05
1.9076441e-05
1.9133889e-05
1.9126739e-05
1.9128328e-05
1.9076441e-05
1.9050244e-05
1.9064277e-05
1.9110603e-05
1.909233e-05
1.9085577e-05
1.9080016e-05
1.9112308e-05
1.9105953e-05
1.9076441e-05
1.9067305e-05
0.00013676629
0.00013671547
0.00013675238
0.00013674158
0.00013674328
0.00013674328
0.00013673589
0.0001367759
0.00013672762
0.00013671795
0.00013663906
0.00013670808
0.00013675409
0.00013675181
0.00013674328
0.00013669076
0.00013668564
0.00013673304
0.00013672451
0.00013668021
0.0001366754
0.00013674726
0.00013669303
0.00013670979
0.00013670922
0.00013673759
0.00013673418
0.00013673361
0.00013672963
0.00013671939
0.00013667085
0.00013674385
0.00013666067
0.00013670865
0.00013670808
0.00013673759
0.00013673475
0.00013673589
0.0001367393
0.00013672849
0.00013672622
0.00013668962
0.00013670694
0.00013670751
0.00013674044
0.00013673703
0.00013673475
0.00013673589
0.00013679012
0.00013678102
0.00013673134
0.00013668564
0.00013673532
0.00013673646
0.00013673703
0.00013678386
0.00013678671
0.00013678671
0.00013679353
0.00013678898
0.00013672906
0.00013668166
0.00013673191
0.00013673418
0.00013673475
0.00013678671
0.00013679467
0.00013682873
0.00013682703
0.00013687841
0.00013672565
0.0001367302
0.00013673191
0.00013673475
0.00013673532
0.00013678614
0.00013682873
0.0001368841
0.00013682646
0.00013688239
0.00013672818
0.00013672281
0.00013672793
0.00013673759
0.00013678898
0.00013679296
0.00013682646
0.00013682589
0.00013682589
0.00013688922
0.00013672022
0.00013668135
0.00013671883
0.00013672679
0.00013673191