/*--------------------------------*- C++ -*----------------------------------*\
| =========                 |                                                 |
| \\      /  F ield         | OpenFOAM: The Open Source CFD Toolbox           |
|  \\    /   O peration     | Version:  v2106                                 |
|   \\  /    A nd           | Website:  www.openfoam.com                      |
|    \\/     M anipulation  |                                                 |
\*---------------------------------------------------------------------------*/
FoamFile
{
    version     2.0;
    format      ascii;
    arch        "LSB;label=32;scalar=64";
    class       volVectorField;
    location    "97.5";
    object      flux;
}
// * * * * * * * * * * * * * * * * * * * * * * * * * * * * * * * * * * * * * //

dimensions      [0 1 -1 1 0 0 0];

internalField   nonuniform List<vector> 
4000
(
(5.9803417e-08 5.9803414e-08 0.72581039)
(1.3140056e-07 5.3022621e-08 0.72581083)
(6.6168946e-08 5.1450656e-08 0.72581105)
(3.5853354e-08 5.0840161e-08 0.72581117)
(1.1460913e-08 5.0482053e-08 0.72581123)
(-9.757325e-09 5.0154293e-08 0.72581123)
(-2.7863275e-08 4.9707964e-08 0.72581118)
(-4.1084769e-08 4.8887474e-08 0.72581108)
(-4.3884349e-08 4.703963e-08 0.72581096)
(-1.3882971e-08 4.2544536e-08 0.72581084)
(5.3022624e-08 1.3140056e-07 0.72581083)
(1.1887142e-07 1.188714e-07 0.72581122)
(6.2895256e-08 1.1493687e-07 0.72581142)
(3.440045e-08 1.129949e-07 0.72581154)
(1.0432111e-08 1.1167192e-07 0.7258116)
(-1.0918459e-08 1.1042128e-07 0.7258116)
(-2.9763504e-08 1.0883202e-07 0.72581154)
(-4.508727e-08 1.0628869e-07 0.72581144)
(-5.3398756e-08 1.0154634e-07 0.7258113)
(-1.8378065e-08 9.2356087e-08 0.72581114)
(5.1450648e-08 6.6168958e-08 0.72581105)
(1.1493687e-07 6.2895264e-08 0.72581142)
(6.0292448e-08 6.0292428e-08 0.72581162)
(3.2588406e-08 5.8339793e-08 0.72581173)
(8.8872828e-09 5.6707117e-08 0.72581178)
(-1.2597218e-08 5.5102695e-08 0.72581178)
(-3.1995857e-08 5.3248832e-08 0.72581172)
(-4.8370457e-08 5.0836801e-08 0.72581161)
(-5.7816955e-08 4.7617308e-08 0.72581146)
(-2.0009804e-08 4.4097838e-08 0.72581129)
(5.0840161e-08 3.5853356e-08 0.72581117)
(1.1299489e-07 3.440046e-08 0.72581154)
(5.8339785e-08 3.25884e-08 0.72581173)
(3.0815139e-08 3.081513e-08 0.72581184)
(7.195013e-09 2.9123469e-08 0.72581189)
(-1.4376743e-08 2.7431965e-08 0.72581188)
(-3.4029397e-08 2.5627628e-08 0.72581181)
(-5.0718794e-08 2.3633031e-08 0.7258117)
(-6.0137719e-08 2.1539867e-08 0.72581154)
(-2.0724378e-08 1.9888616e-08 0.72581137)
(5.048205e-08 1.1460906e-08 0.72581123)
(1.1167191e-07 1.0432102e-08 0.7258116)
(5.6707119e-08 8.8872967e-09 0.72581178)
(2.9123475e-08 7.1950104e-09 0.72581189)
(5.5041174e-09 5.5041173e-09 0.72581194)
(-1.6093058e-08 3.832838e-09 0.72581192)
(-3.5794791e-08 2.1592055e-09 0.72581185)
(-5.2458219e-08 5.0176148e-10 0.72581173)
(-6.156137e-08 -9.9179698e-10 0.72581157)
(-2.1110638e-08 -1.9696759e-09 0.72581139)
(5.0154292e-08 -9.7573281e-09 0.72581123)
(1.1042128e-07 -1.091846e-08 0.7258116)
(5.5102694e-08 -1.2597213e-08 0.72581178)
(2.7431959e-08 -1.4376744e-08 0.72581188)
(3.8328406e-09 -1.6093054e-08 0.72581192)
(-1.7721655e-08 -1.7721649e-08 0.7258119)
(-3.7360474e-08 -1.9275678e-08 0.72581182)
(-5.3869797e-08 -2.0730205e-08 0.7258117)
(-6.2609157e-08 -2.1960393e-08 0.72581154)
(-2.1376297e-08 -2.2714376e-08 0.72581135)
(4.9707962e-08 -2.7863279e-08 0.72581118)
(1.0883202e-07 -2.976351e-08 0.72581154)
(5.3248835e-08 -3.1995859e-08 0.72581172)
(2.5627633e-08 -3.4029406e-08 0.72581181)
(2.1592128e-09 -3.5794797e-08 0.72581185)
(-1.9275682e-08 -3.7360468e-08 0.72581182)
(-3.8803348e-08 -3.8803342e-08 0.72581175)
(-5.5142934e-08 -4.0150401e-08 0.72581162)
(-6.3545541e-08 -4.1326161e-08 0.72581145)
(-2.1613293e-08 -4.2092968e-08 0.72581127)
(4.888747e-08 -4.1084772e-08 0.72581108)
(1.062887e-07 -4.508728e-08 0.72581144)
(5.0836799e-08 -4.8370466e-08 0.72581161)
(2.3633021e-08 -5.0718792e-08 0.7258117)
(5.0177858e-10 -5.2458223e-08 0.72581173)
(-2.07302e-08 -5.3869803e-08 0.7258117)
(-4.0150407e-08 -5.5142928e-08 0.72581162)
(-5.6392616e-08 -5.6392608e-08 0.72581149)
(-6.4551724e-08 -5.7631358e-08 0.72581132)
(-2.1887502e-08 -5.8617415e-08 0.72581113)
(4.7039624e-08 -4.3884344e-08 0.72581096)
(1.0154633e-07 -5.3398754e-08 0.7258113)
(4.7617323e-08 -5.7816961e-08 0.72581146)
(2.1539876e-08 -6.0137704e-08 0.72581154)
(-9.9179797e-10 -6.1561368e-08 0.72581157)
(-2.1960387e-08 -6.2609166e-08 0.72581154)
(-4.1326153e-08 -6.3545539e-08 0.72581145)
(-5.7631363e-08 -6.4551712e-08 0.72581132)
(-6.5770348e-08 -6.5770333e-08 0.72581114)
(-2.2270665e-08 -6.7104558e-08 0.72581095)
(4.254453e-08 -1.3882967e-08 0.72581084)
(9.2356083e-08 -1.837806e-08 0.72581114)
(4.4097849e-08 -2.0009799e-08 0.72581129)
(1.9888614e-08 -2.0724376e-08 0.72581137)
(-1.9696842e-09 -2.111064e-08 0.72581139)
(-2.2714371e-08 -2.13763e-08 0.72581135)
(-4.2092952e-08 -2.1613296e-08 0.72581127)
(-5.861741e-08 -2.1887499e-08 0.72581113)
(-6.7104569e-08 -2.2270661e-08 0.72581095)
(-2.2776985e-08 -2.2776981e-08 0.72581076)
(2.6270173e-07 2.6270173e-07 1.0796504)
(5.8881111e-07 2.2965751e-07 1.0796509)
(3.1200676e-07 2.2233252e-07 1.0796512)
(1.7189855e-07 2.1944544e-07 1.0796514)
(5.4141193e-08 2.1770622e-07 1.0796515)
(-4.9942757e-08 2.1609807e-07 1.0796514)
(-1.3995515e-07 2.1389419e-07 1.0796514)
(-2.0836029e-07 2.0977048e-07 1.0796512)
(-2.3202428e-07 1.999513e-07 1.079651)
(-7.6123657e-08 1.7167116e-07 1.0796508)
(2.2965751e-07 5.8881111e-07 1.0796509)
(5.282573e-07 5.2825729e-07 1.0796514)
(2.9668866e-07 5.0987984e-07 1.0796517)
(1.649591e-07 5.0060834e-07 1.0796518)
(4.9120131e-08 4.9416606e-07 1.0796519)
(-5.5660813e-08 4.8803078e-07 1.0796519)
(-1.4944653e-07 4.8019987e-07 1.0796518)
(-2.2927463e-07 4.6753202e-07 1.0796516)
(-2.8917327e-07 4.4301766e-07 1.0796514)
(-1.044038e-07 3.888347e-07 1.0796511)
(2.2233251e-07 3.1200677e-07 1.0796512)
(5.0987984e-07 2.9668867e-07 1.0796517)
(2.8435781e-07 2.843578e-07 1.0796519)
(1.5618477e-07 2.7490591e-07 1.0796521)
(4.1563638e-08 2.6692672e-07 1.0796522)
(-6.3908951e-08 2.5905421e-07 1.0796521)
(-1.6045391e-07 2.4993807e-07 1.079652)
(-2.455425e-07 2.3804726e-07 1.0796519)
(-3.107216e-07 2.2211725e-07 1.0796516)
(-1.1224563e-07 2.0511887e-07 1.0796513)
(2.1944544e-07 1.7189854e-07 1.0796514)
(5.0060833e-07 1.6495909e-07 1.0796518)
(2.7490591e-07 1.5618476e-07 1.0796521)
(1.4752802e-07 1.4752802e-07 1.0796522)
(3.3268439e-08 1.3923811e-07 1.0796523)
(-7.2649462e-08 1.3093313e-07 1.0796523)
(-1.7045349e-07 1.2206445e-07 1.0796522)
(-2.5709545e-07 1.1225365e-07 1.079652)
(-3.2210165e-07 1.0195755e-07 1.0796517)
(-1.1573605e-07 9.3876057e-08 1.0796514)
(2.1770622e-07 5.4141186e-08 1.0796515)
(4.9416606e-07 4.9120122e-08 1.0796519)
(2.6692673e-07 4.1563641e-08 1.0796522)
(1.3923812e-07 3.3268448e-08 1.0796523)
(2.4968749e-08 2.4968746e-08 1.0796524)
(-8.108262e-08 1.6757104e-08 1.0796523)
(-1.7913339e-07 8.5270049e-09 1.0796522)
(-2.656494e-07 3.7085547e-10 1.079652)
(-3.2909919e-07 -6.9818798e-09 1.0796518)
(-1.1763329e-07 -1.1794176e-08 1.0796514)
(2.1609806e-07 -4.9942757e-08 1.0796514)
(4.8803079e-07 -5.5660812e-08 1.0796519)
(2.5905423e-07 -6.3908957e-08 1.0796521)
(1.3093312e-07 -7.2649462e-08 1.0796523)
(1.6757095e-08 -8.1082622e-08 1.0796523)
(-8.9091204e-08 -8.9091207e-08 1.0796523)
(-1.8683974e-07 -9.6742592e-08 1.0796522)
(-2.7260433e-07 -1.039179e-07 1.079652)
(-3.3426668e-07 -1.1000429e-07 1.0796517)
(-1.1894425e-07 -1.1374911e-07 1.0796514)
(2.1389418e-07 -1.3995515e-07 1.0796514)
(4.8019987e-07 -1.4944653e-07 1.0796518)
(2.4993808e-07 -1.6045391e-07 1.079652)
(1.2206445e-07 -1.7045349e-07 1.0796522)
(8.5270041e-09 -1.7913339e-07 1.0796522)
(-9.6742591e-08 -1.8683974e-07 1.0796522)
(-1.9396009e-07 -1.9396008e-07 1.0796521)
(-2.789111e-07 -2.0064365e-07 1.0796519)
(-3.3893039e-07 -2.0654027e-07 1.0796516)
(-1.2012983e-07 -2.1046154e-07 1.0796513)
(2.0977048e-07 -2.0836029e-07 1.0796512)
(4.6753202e-07 -2.2927461e-07 1.0796516)
(2.3804726e-07 -2.4554249e-07 1.0796519)
(1.1225365e-07 -2.5709545e-07 1.079652)
(3.7085312e-10 -2.6564939e-07 1.079652)
(-1.039179e-07 -2.7260433e-07 1.079652)
(-2.0064365e-07 -2.7891108e-07 1.0796519)
(-2.8518452e-07 -2.8518452e-07 1.0796517)
(-3.4408457e-07 -2.9159583e-07 1.0796514)
(-1.2155842e-07 -2.9705032e-07 1.079651)
(1.999513e-07 -2.3202428e-07 1.079651)
(4.4301767e-07 -2.8917326e-07 1.0796514)
(2.2211725e-07 -3.107216e-07 1.0796516)
(1.0195754e-07 -3.2210164e-07 1.0796517)
(-6.9818783e-09 -3.2909919e-07 1.0796518)
(-1.1000428e-07 -3.3426668e-07 1.0796517)
(-2.0654028e-07 -3.3893038e-07 1.0796516)
(-2.9159584e-07 -3.4408457e-07 1.0796514)
(-3.5079619e-07 -3.507962e-07 1.0796511)
(-1.2376616e-07 -3.5973657e-07 1.0796507)
(1.7167115e-07 -7.6123651e-08 1.0796508)
(3.888347e-07 -1.044038e-07 1.0796511)
(2.0511888e-07 -1.1224563e-07 1.0796513)
(9.3876062e-08 -1.1573604e-07 1.0796514)
(-1.1794189e-08 -1.1763329e-07 1.0796514)
(-1.1374909e-07 -1.1894425e-07 1.0796514)
(-2.1046153e-07 -1.2012983e-07 1.0796513)
(-2.9705034e-07 -1.2155842e-07 1.079651)
(-3.5973657e-07 -1.2376616e-07 1.0796507)
(-1.2751867e-07 -1.2751867e-07 1.0796504)
(4.2659366e-07 4.2659366e-07 1.0796412)
(9.688016e-07 3.7298623e-07 1.0796416)
(5.2995501e-07 3.6090973e-07 1.0796419)
(2.9380137e-07 3.5598743e-07 1.079642)
(8.7776318e-08 3.5293768e-07 1.0796421)
(-9.8305341e-08 3.5007267e-07 1.0796421)
(-2.6343865e-07 3.4611216e-07 1.079642)
(-3.9830544e-07 3.386389e-07 1.0796418)
(-4.7672542e-07 3.2064375e-07 1.0796416)
(-1.6568963e-07 2.6813141e-07 1.0796413)
(3.7298623e-07 9.6880161e-07 1.0796416)
(8.7027571e-07 8.7027572e-07 1.079642)
(5.0445681e-07 8.3964569e-07 1.0796423)
(2.8184329e-07 8.2368609e-07 1.0796424)
(7.8904176e-08 8.1234399e-07 1.0796425)
(-1.0854362e-07 8.0140921e-07 1.0796425)
(-2.805893e-07 7.873598e-07 1.0796424)
(-4.3650805e-07 7.6450301e-07 1.0796422)
(-5.8248666e-07 7.1994624e-07 1.0796419)
(-2.1820198e-07 6.2059304e-07 1.0796416)
(3.6090973e-07 5.2995501e-07 1.0796419)
(8.3964569e-07 5.0445681e-07 1.0796423)
(4.8336538e-07 4.8336538e-07 1.0796425)
(2.6649966e-07 4.6685111e-07 1.0796426)
(6.5499435e-08 4.5272231e-07 1.0796427)
(-1.2328952e-07 4.3867733e-07 1.0796427)
(-3.0034484e-07 4.2234877e-07 1.0796426)
(-4.65719e-07 4.0100849e-07 1.0796424)
(-6.206354e-07 3.7245341e-07 1.0796421)
(-2.319251e-07 3.426203e-07 1.0796418)
(3.5598743e-07 2.9380137e-07 1.079642)
(8.2368608e-07 2.8184329e-07 1.0796424)
(4.6685111e-07 2.6649967e-07 1.0796426)
(2.5120023e-07 2.5120023e-07 1.0796428)
(5.0730402e-08 2.3644976e-07 1.0796428)
(-1.3891717e-07 2.2161098e-07 1.0796428)
(-3.1825815e-07 2.0572669e-07 1.0796427)
(-4.8640341e-07 1.8813786e-07 1.0796425)
(-6.4087484e-07 1.6970492e-07 1.0796422)
(-2.3809071e-07 1.5537535e-07 1.0796418)
(3.5293768e-07 8.7776321e-08 1.0796421)
(8.1234399e-07 7.8904176e-08 1.0796425)
(4.5272232e-07 6.5499443e-08 1.0796427)
(2.3644975e-07 5.0730415e-08 1.0796428)
(3.5910182e-08 3.5910189e-08 1.0796429)
(-1.5401259e-07 2.1211774e-08 1.0796428)
(-3.3381796e-07 6.4501372e-09 1.0796427)
(-5.0174077e-07 -8.2026169e-09 1.0796425)
(-6.533979e-07 -2.1421331e-08 1.0796422)
(-2.4147814e-07 -3.0057422e-08 1.0796419)
(3.5007266e-07 -9.8305337e-08 1.0796421)
(8.014092e-07 -1.0854362e-07 1.0796425)
(4.3867735e-07 -1.2328953e-07 1.0796427)
(2.2161098e-07 -1.3891716e-07 1.0796428)
(2.1211761e-08 -1.5401259e-07 1.0796428)
(-1.6837722e-07 -1.6837722e-07 1.0796428)
(-3.4767255e-07 -1.8214374e-07 1.0796427)
(-5.1427488e-07 -1.9511326e-07 1.0796425)
(-6.6272965e-07 -2.0618882e-07 1.0796422)
(-2.4384811e-07 -2.1306348e-07 1.0796418)
(3.4611216e-07 -2.6343866e-07 1.079642)
(7.873598e-07 -2.8058931e-07 1.0796424)
(4.2234878e-07 -3.0034485e-07 1.0796426)
(2.0572669e-07 -3.1825817e-07 1.0796427)
(6.4501195e-09 -3.3381796e-07 1.0796427)
(-1.8214374e-07 -3.4767255e-07 1.0796427)
(-3.60554e-07 -3.6055402e-07 1.0796425)
(-5.2578586e-07 -3.7279642e-07 1.0796423)
(-6.7134812e-07 -3.8385735e-07 1.079642)
(-2.4606125e-07 -3.9153586e-07 1.0796417)
(3.386389e-07 -3.9830544e-07 1.0796418)
(7.6450301e-07 -4.3650806e-07 1.0796422)
(4.0100849e-07 -4.65719e-07 1.0796424)
(1.8813786e-07 -4.8640341e-07 1.0796425)
(-8.2026227e-09 -5.0174078e-07 1.0796425)
(-1.9511327e-07 -5.1427487e-07 1.0796425)
(-3.7279642e-07 -5.2578584e-07 1.0796423)
(-5.3757821e-07 -5.3757821e-07 1.0796421)
(-6.8146909e-07 -5.5042876e-07 1.0796418)
(-2.4896712e-07 -5.6293346e-07 1.0796414)
(3.2064375e-07 -4.7672542e-07 1.0796416)
(7.1994623e-07 -5.8248665e-07 1.0796419)
(3.7245342e-07 -6.206354e-07 1.0796421)
(1.6970491e-07 -6.4087483e-07 1.0796422)
(-2.1421337e-08 -6.5339789e-07 1.0796422)
(-2.061888e-07 -6.6272964e-07 1.0796422)
(-3.8385735e-07 -6.7134809e-07 1.079642)
(-5.5042878e-07 -6.8146908e-07 1.0796418)
(-6.9670337e-07 -6.9670336e-07 1.0796415)
(-2.5439772e-07 -7.2536538e-07 1.0796411)
(2.6813141e-07 -1.6568964e-07 1.0796413)
(6.2059304e-07 -2.1820197e-07 1.0796416)
(3.4262031e-07 -2.319251e-07 1.0796418)
(1.5537537e-07 -2.3809071e-07 1.0796418)
(-3.005743e-08 -2.4147814e-07 1.0796419)
(-2.1306346e-07 -2.4384811e-07 1.0796418)
(-3.9153585e-07 -2.4606124e-07 1.0796417)
(-5.6293348e-07 -2.4896711e-07 1.0796414)
(-7.2536538e-07 -2.5439772e-07 1.0796411)
(-2.6807513e-07 -2.6807513e-07 1.0796407)
(5.7499624e-07 5.7499624e-07 1.0796269)
(1.3111122e-06 5.0284024e-07 1.0796273)
(7.2398593e-07 4.865261e-07 1.0796275)
(3.997106e-07 4.7974491e-07 1.0796277)
(1.0974223e-07 4.754543e-07 1.0796277)
(-1.5693195e-07 4.7136418e-07 1.0796277)
(-3.9857059e-07 4.6566329e-07 1.0796276)
(-6.0418427e-07 4.548436e-07 1.0796274)
(-7.4169698e-07 4.2864712e-07 1.0796272)
(-2.6250109e-07 3.5179485e-07 1.0796269)
(5.0284024e-07 1.3111122e-06 1.0796273)
(1.178407e-06 1.178407e-06 1.0796277)
(6.8934293e-07 1.1367763e-06 1.0796279)
(3.831029e-07 1.1146449e-06 1.079628)
(9.7171136e-08 1.0986357e-06 1.0796281)
(-1.7161847e-07 1.0830201e-06 1.0796281)
(-4.2335145e-07 1.0628244e-06 1.079628)
(-6.5970852e-07 1.0298273e-06 1.0796278)
(-8.9627011e-07 9.6525869e-07 1.0796275)
(-3.3935337e-07 8.2074663e-07 1.0796271)
(4.865261e-07 7.2398593e-07 1.0796275)
(1.1367763e-06 6.8934294e-07 1.0796279)
(6.6022386e-07 6.6022387e-07 1.0796281)
(3.6157002e-07 6.3707079e-07 1.0796282)
(7.8117431e-08 6.1702797e-07 1.0796283)
(-1.9274325e-07 5.9695126e-07 1.0796283)
(-4.5176344e-07 5.7350945e-07 1.0796281)
(-7.0174995e-07 5.4281215e-07 1.0796279)
(-9.5077764e-07 5.0176384e-07 1.0796277)
(-3.5884247e-07 4.5936314e-07 1.0796273)
(4.7974491e-07 3.9971061e-07 1.0796277)
(1.1146449e-06 3.8310289e-07 1.079628)
(6.3707078e-07 3.6157002e-07 1.0796282)
(3.39907e-07 3.3990701e-07 1.0796284)
(5.7051611e-08 3.188824e-07 1.0796284)
(-2.1513699e-07 2.9763528e-07 1.0796284)
(-4.7749056e-07 2.7482671e-07 1.0796282)
(-7.3145412e-07 2.4953949e-07 1.079628)
(-9.7971913e-07 2.2306279e-07 1.0796277)
(-3.676205e-07 2.026108e-07 1.0796274)
(4.7545429e-07 1.0974222e-07 1.0796277)
(1.0986357e-06 9.7171134e-08 1.0796281)
(6.1702797e-07 7.811743e-08 1.0796283)
(3.188824e-07 5.7051617e-08 1.0796284)
(3.5845697e-08 3.5845704e-08 1.0796284)
(-2.3679895e-07 1.4754192e-08 1.0796284)
(-4.9985923e-07 -6.4804745e-09 1.0796283)
(-7.5351386e-07 -2.7598777e-08 1.079628)
(-9.9770632e-07 -4.6667194e-08 1.0796278)
(-3.7247713e-07 -5.9108742e-08 1.0796274)
(4.7136418e-07 -1.5693197e-07 1.0796277)
(1.0830202e-06 -1.7161848e-07 1.0796281)
(5.9695127e-07 -1.9274325e-07 1.0796283)
(2.9763528e-07 -2.1513699e-07 1.0796284)
(1.4754186e-08 -2.3679895e-07 1.0796284)
(-2.5746317e-07 -2.5746317e-07 1.0796283)
(-5.1984353e-07 -2.7733777e-07 1.0796282)
(-7.7164084e-07 -2.9615204e-07 1.079628)
(-1.0112291e-06 -3.1231789e-07 1.0796277)
(-3.7591487e-07 -3.2242099e-07 1.0796273)
(4.6566329e-07 -3.9857059e-07 1.0796276)
(1.0628244e-06 -4.2335146e-07 1.079628)
(5.7350946e-07 -4.5176344e-07 1.0796281)
(2.748267e-07 -4.7749056e-07 1.0796282)
(-6.4804782e-09 -4.9985924e-07 1.0796283)
(-2.7733777e-07 -5.1984354e-07 1.0796282)
(-5.3854811e-07 -5.3854812e-07 1.0796281)
(-7.8849398e-07 -5.5653072e-07 1.0796278)
(-1.0239753e-06 -5.7307756e-07 1.0796275)
(-3.7921253e-07 -5.8486311e-07 1.0796271)
(4.548436e-07 -6.0418428e-07 1.0796274)
(1.0298273e-06 -6.5970851e-07 1.0796278)
(5.4281216e-07 -7.0174995e-07 1.0796279)
(2.4953948e-07 -7.3145413e-07 1.079628)
(-2.7598789e-08 -7.5351386e-07 1.079628)
(-2.9615205e-07 -7.7164083e-07 1.079628)
(-5.5653072e-07 -7.8849398e-07 1.0796278)
(-8.0617028e-07 -8.061703e-07 1.0796276)
(-1.0395615e-06 -8.2618656e-07 1.0796273)
(-3.837719e-07 -8.4670389e-07 1.0796269)
(4.2864713e-07 -7.4169697e-07 1.0796272)
(9.6525871e-07 -8.9627011e-07 1.0796275)
(5.0176384e-07 -9.5077764e-07 1.0796277)
(2.230628e-07 -9.7971913e-07 1.0796277)
(-4.666718e-08 -9.9770632e-07 1.0796278)
(-3.1231789e-07 -1.0112291e-06 1.0796277)
(-5.7307757e-07 -1.0239752e-06 1.0796275)
(-8.2618656e-07 -1.0395615e-06 1.0796273)
(-1.0645089e-06 -1.0645089e-06 1.079627)
(-3.9289076e-07 -1.1148007e-06 1.0796266)
(3.5179484e-07 -2.6250108e-07 1.0796269)
(8.2074663e-07 -3.3935337e-07 1.0796271)
(4.5936314e-07 -3.5884247e-07 1.0796273)
(2.026108e-07 -3.676205e-07 1.0796274)
(-5.9108736e-08 -3.7247714e-07 1.0796274)
(-3.2242098e-07 -3.7591487e-07 1.0796273)
(-5.8486312e-07 -3.7921252e-07 1.0796271)
(-8.4670391e-07 -3.837719e-07 1.0796269)
(-1.1148007e-06 -3.9289076e-07 1.0796266)
(-4.1729979e-07 -4.1729979e-07 1.0796261)
(7.1521037e-07 7.1521037e-07 1.0796077)
(1.6307271e-06 6.2519948e-07 1.0796081)
(8.993119e-07 6.0489406e-07 1.0796084)
(4.909566e-07 5.9636735e-07 1.0796085)
(1.2025316e-07 5.9089356e-07 1.0796085)
(-2.2513331e-07 5.8561399e-07 1.0796085)
(-5.426743e-07 5.7820466e-07 1.0796084)
(-8.1908041e-07 5.6408619e-07 1.0796082)
(-1.0142849e-06 5.2980128e-07 1.0796079)
(-3.6136566e-07 4.2897814e-07 1.0796077)
(6.2519948e-07 1.6307271e-06 1.0796081)
(1.4652526e-06 1.4652526e-06 1.0796085)
(8.560637e-07 1.4132893e-06 1.0796087)
(4.6995586e-07 1.3853476e-06 1.0796088)
(1.0412312e-07 1.3648764e-06 1.0796089)
(-2.4416667e-07 1.344716e-06 1.0796088)
(-5.7496601e-07 1.3184946e-06 1.0796087)
(-8.9168548e-07 1.2755161e-06 1.0796085)
(-1.216947e-06 1.1912361e-06 1.0796082)
(-4.621888e-07 1.0022969e-06 1.0796079)
(6.0489406e-07 8.993119e-07 1.0796084)
(1.4132893e-06 8.560637e-07 1.0796087)
(8.1940687e-07 8.1940687e-07 1.0796089)
(4.4254373e-07 7.8995885e-07 1.079609)
(7.9621602e-08 7.6423262e-07 1.079609)
(-2.715152e-07 7.3829163e-07 1.079609)
(-6.1187418e-07 7.0788323e-07 1.0796089)
(-9.4633882e-07 6.6799283e-07 1.0796087)
(-1.2875041e-06 6.1467023e-07 1.0796084)
(-4.8732515e-07 5.5996625e-07 1.079608)
(5.9636735e-07 4.909566e-07 1.0796085)
(1.3853476e-06 4.6995585e-07 1.0796088)
(7.8995885e-07 4.4254373e-07 1.079609)
(4.1478161e-07 4.1478161e-07 1.0796091)
(5.24559e-08 3.8768704e-07 1.0796091)
(-3.0051605e-07 3.6019063e-07 1.0796091)
(-6.4526481e-07 3.3059272e-07 1.079609)
(-9.8489849e-07 2.9773739e-07 1.0796088)
(-1.3249735e-06 2.633544e-07 1.0796085)
(-4.9865812e-07 2.369048e-07 1.0796081)
(5.9089356e-07 1.2025316e-07 1.0796085)
(1.3648764e-06 1.0412312e-07 1.0796089)
(7.6423262e-07 7.9621613e-08 1.079609)
(3.8768704e-07 5.2455913e-08 1.0796091)
(2.5030615e-08 2.5030627e-08 1.0796092)
(-3.2860952e-07 -2.3222216e-09 1.0796091)
(-6.7432742e-07 -2.9927986e-08 1.079609)
(-1.0135771e-06 -5.7432752e-08 1.0796088)
(-1.3483367e-06 -8.228832e-08 1.0796085)
(-5.0495822e-07 -9.8490482e-08 1.0796081)
(5.8561399e-07 -2.2513331e-07 1.0796085)
(1.344716e-06 -2.4416666e-07 1.0796088)
(7.3829164e-07 -2.715152e-07 1.079609)
(3.6019062e-07 -3.0051606e-07 1.0796091)
(-2.3222343e-09 -3.2860952e-07 1.0796091)
(-3.5547466e-07 -3.5547466e-07 1.0796091)
(-7.0037534e-07 -3.8140037e-07 1.0796089)
(-1.0372588e-06 -4.0604511e-07 1.0796087)
(-1.3660313e-06 -4.2732045e-07 1.0796084)
(-5.0945956e-07 -4.406763e-07 1.079608)
(5.7820467e-07 -5.4267431e-07 1.0796084)
(1.3184946e-06 -5.7496601e-07 1.0796087)
(7.0788322e-07 -6.1187418e-07 1.0796089)
(3.3059272e-07 -6.4526482e-07 1.079609)
(-2.9927983e-08 -6.7432743e-07 1.079609)
(-3.8140037e-07 -7.0037534e-07 1.0796089)
(-7.2489787e-07 -7.2489787e-07 1.0796088)
(-1.0594972e-06 -7.486866e-07 1.0796085)
(-1.3829679e-06 -7.7084504e-07 1.0796082)
(-5.1386212e-07 -7.868522e-07 1.0796078)
(5.6408619e-07 -8.1908041e-07 1.0796082)
(1.2755161e-06 -8.9168549e-07 1.0796085)
(6.6799283e-07 -9.4633881e-07 1.0796087)
(2.9773737e-07 -9.8489848e-07 1.0796088)
(-5.7432755e-08 -1.0135771e-06 1.0796088)
(-4.060451e-07 -1.0372588e-06 1.0796087)
(-7.486866e-07 -1.0594972e-06 1.0796085)
(-1.083206e-06 -1.083206e-06 1.0796083)
(-1.4041968e-06 -1.1106352e-06 1.079608)
(-5.20131e-07 -1.1393706e-06 1.0796076)
(5.2980128e-07 -1.0142849e-06 1.0796079)
(1.1912362e-06 -1.216947e-06 1.0796082)
(6.1467023e-07 -1.2875041e-06 1.0796084)
(2.6335439e-07 -1.3249735e-06 1.0796085)
(-8.2288336e-08 -1.3483367e-06 1.0796085)
(-4.2732044e-07 -1.3660312e-06 1.0796084)
(-7.7084502e-07 -1.3829679e-06 1.0796082)
(-1.1106352e-06 -1.4041968e-06 1.079608)
(-1.4391325e-06 -1.4391325e-06 1.0796076)
(-5.3301903e-07 -1.5110152e-06 1.0796072)
(4.2897814e-07 -3.6136566e-07 1.0796077)
(1.0022969e-06 -4.621888e-07 1.0796079)
(5.5996626e-07 -4.8732516e-07 1.079608)
(2.3690481e-07 -4.9865812e-07 1.0796081)
(-9.8490476e-08 -5.0495821e-07 1.0796081)
(-4.406763e-07 -5.0945954e-07 1.079608)
(-7.8685221e-07 -5.1386212e-07 1.0796078)
(-1.1393706e-06 -5.20131e-07 1.0796076)
(-1.5110152e-06 -5.3301904e-07 1.0796072)
(-5.6805282e-07 -5.6805283e-07 1.0796068)
(8.487952e-07 8.487952e-07 1.0795839)
(1.9321219e-06 7.4148928e-07 1.0795843)
(1.0593016e-06 7.1736403e-07 1.0795845)
(5.6950916e-07 7.0717622e-07 1.0795846)
(1.2078471e-07 7.0056975e-07 1.0795846)
(-3.0098565e-07 6.941399e-07 1.0795846)
(-6.9249188e-07 6.8506744e-07 1.0795845)
(-1.0377133e-06 6.6773066e-07 1.0795843)
(-1.2877548e-06 6.2555557e-07 1.0795841)
(-4.5993311e-07 5.0136703e-07 1.0795838)
(7.4148928e-07 1.9321219e-06 1.0795843)
(1.7349752e-06 1.7349752e-06 1.0795846)
(1.007832e-06 1.6731529e-06 1.0795848)
(5.4431775e-07 1.6396817e-06 1.0795849)
(1.0123023e-07 1.6149356e-06 1.079585)
(-3.2423911e-07 1.5903806e-06 1.0795849)
(-7.3210573e-07 1.5582973e-06 1.0795848)
(-1.1269811e-06 1.5055864e-06 1.0795846)
(-1.5373003e-06 1.4020857e-06 1.0795843)
(-5.8412166e-07 1.1698607e-06 1.079584)
(7.1736401e-07 1.0593016e-06 1.0795845)
(1.6731529e-06 1.007832e-06 1.0795848)
(9.6400813e-07 9.6400812e-07 1.079585)
(5.1129184e-07 9.2855661e-07 1.0795851)
(7.1483678e-08 8.9737159e-07 1.0795851)
(-3.5762396e-07 8.6575636e-07 1.0795851)
(-7.7728612e-07 8.2857307e-07 1.079585)
(-1.1939249e-06 7.797236e-07 1.0795848)
(-1.6234805e-06 7.144398e-07 1.0795845)
(-6.1474976e-07 6.4777032e-07 1.0795841)
(7.0717621e-07 5.6950916e-07 1.0795846)
(1.6396817e-06 5.4431775e-07 1.0795849)
(9.2855661e-07 5.1129184e-07 1.0795851)
(4.7768122e-07 4.7768122e-07 1.0795852)
(3.8429979e-08 4.4473291e-07 1.0795852)
(-3.9303763e-07 4.1117657e-07 1.0795852)
(-8.1813849e-07 3.7496846e-07 1.079585)
(-1.2411144e-06 3.347303e-07 1.0795848)
(-1.6692535e-06 2.9263454e-07 1.0795845)
(-6.2856797e-07 2.6034452e-07 1.0795841)
(7.0056974e-07 1.2078471e-07 1.0795846)
(1.6149356e-06 1.0123022e-07 1.079585)
(8.973716e-07 7.1483673e-08 1.0795851)
(4.4473291e-07 3.8429973e-08 1.0795852)
(4.9790302e-09 4.9790265e-09 1.0795852)
(-4.2738841e-07 -2.8465568e-08 1.0795852)
(-8.5373239e-07 -6.2293147e-08 1.079585)
(-1.2762588e-06 -9.6050664e-08 1.0795848)
(-1.6978663e-06 -1.265776e-07 1.0795845)
(-6.3627644e-07 -1.4646172e-07 1.0795841)
(6.9413989e-07 -3.0098565e-07 1.0795846)
(1.5903806e-06 -3.2423912e-07 1.0795849)
(8.6575637e-07 -3.5762397e-07 1.0795851)
(4.1117657e-07 -3.9303763e-07 1.0795852)
(-2.8465562e-08 -4.2738841e-07 1.0795852)
(-4.603098e-07 -4.6030981e-07 1.0795851)
(-8.8572359e-07 -4.9217268e-07 1.079585)
(-1.3053988e-06 -5.2256288e-07 1.0795847)
(-1.7196646e-06 -5.4888876e-07 1.0795844)
(-6.4182405e-07 -5.6546267e-07 1.079584)
(6.8506743e-07 -6.9249189e-07 1.0795845)
(1.5582973e-06 -7.3210573e-07 1.0795848)
(8.2857308e-07 -7.7728613e-07 1.079585)
(3.7496847e-07 -8.1813849e-07 1.079585)
(-6.229315e-08 -8.5373239e-07 1.079585)
(-4.9217267e-07 -8.857236e-07 1.079585)
(-9.1598546e-07 -9.1598547e-07 1.0795848)
(-1.3329749e-06 -9.4553963e-07 1.0795846)
(-1.740766e-06 -9.7329428e-07 1.0795843)
(-6.4732571e-07 -9.9351179e-07 1.0795839)
(6.6773066e-07 -1.0377133e-06 1.0795843)
(1.5055864e-06 -1.1269811e-06 1.0795846)
(7.797236e-07 -1.1939249e-06 1.0795848)
(3.3473031e-07 -1.2411144e-06 1.0795848)
(-9.6050663e-08 -1.2762588e-06 1.0795848)
(-5.2256288e-07 -1.3053989e-06 1.0795847)
(-9.4553962e-07 -1.3329749e-06 1.0795846)
(-1.3627077e-06 -1.3627077e-06 1.0795843)
(-1.7676368e-06 -1.3975505e-06 1.079584)
(-6.5530239e-07 -1.4344586e-06 1.0795836)
(6.2555557e-07 -1.2877548e-06 1.0795841)
(1.4020857e-06 -1.5373003e-06 1.0795843)
(7.1443981e-07 -1.6234805e-06 1.0795845)
(2.9263455e-07 -1.6692535e-06 1.0795845)
(-1.2657761e-07 -1.6978662e-06 1.0795845)
(-5.4888876e-07 -1.7196646e-06 1.0795844)
(-9.7329426e-07 -1.740766e-06 1.0795843)
(-1.3975505e-06 -1.7676367e-06 1.079584)
(-1.812517e-06 -1.812517e-06 1.0795837)
(-6.7193116e-07 -1.9056911e-06 1.0795833)
(5.0136703e-07 -4.5993311e-07 1.0795838)
(1.1698607e-06 -5.8412165e-07 1.079584)
(6.4777033e-07 -6.1474976e-07 1.0795841)
(2.6034452e-07 -6.2856797e-07 1.0795841)
(-1.4646172e-07 -6.3627644e-07 1.0795841)
(-5.6546267e-07 -6.4182404e-07 1.079584)
(-9.9351178e-07 -6.4732571e-07 1.0795839)
(-1.4344586e-06 -6.5530239e-07 1.0795836)
(-1.9056911e-06 -6.7193116e-07 1.0795833)
(-7.1741846e-07 -7.1741847e-07 1.0795828)
(9.7584083e-07 9.7584082e-07 1.0795556)
(2.216402e-06 8.5186835e-07 1.079556)
(1.2058375e-06 8.2408595e-07 1.0795562)
(6.3711973e-07 8.1231374e-07 1.0795563)
(1.1312772e-07 8.0462384e-07 1.0795563)
(-3.8225361e-07 7.9708736e-07 1.0795562)
(-8.449617e-07 7.8640857e-07 1.0795561)
(-1.2560809e-06 7.6595944e-07 1.0795559)
(-1.5577541e-06 7.161538e-07 1.0795557)
(-5.5678439e-07 5.6937222e-07 1.0795554)
(8.5186836e-07 2.216402e-06 1.079556)
(1.9887697e-06 1.9887697e-06 1.0795563)
(1.1465056e-06 1.9175265e-06 1.0795565)
(6.0792657e-07 1.8787832e-06 1.0795566)
(9.0288162e-08 1.8499473e-06 1.0795566)
(-4.0957652e-07 1.8211657e-06 1.0795565)
(-8.9165358e-07 1.7834229e-06 1.0795564)
(-1.3614631e-06 1.7213027e-06 1.0795562)
(-1.852635e-06 1.599219e-06 1.079556)
(-7.0356597e-07 1.3251568e-06 1.0795556)
(8.2408595e-07 1.2058375e-06 1.0795562)
(1.9175265e-06 1.1465056e-06 1.0795565)
(1.095851e-06 1.095851e-06 1.0795566)
(5.6954056e-07 1.0546716e-06 1.0795567)
(5.5510182e-08 1.0182582e-06 1.0795568)
(-4.4877807e-07 9.8118321e-07 1.0795567)
(-9.4482466e-07 9.374598e-07 1.0795566)
(-1.4402848e-06 8.7995008e-07 1.0795564)
(-1.9539e-06 8.0310567e-07 1.0795561)
(-7.3949248e-07 7.2488959e-07 1.0795557)
(8.1231374e-07 6.3711973e-07 1.0795563)
(1.8787832e-06 6.0792657e-07 1.0795566)
(1.0546716e-06 5.6954055e-07 1.0795567)
(5.3033376e-07 5.3033374e-07 1.0795568)
(1.6799768e-08 4.9176503e-07 1.0795568)
(-4.9037489e-07 4.5236905e-07 1.0795568)
(-9.9288671e-07 4.0977345e-07 1.0795566)
(-1.4958172e-06 3.6239188e-07 1.0795564)
(-2.0076955e-06 3.1283399e-07 1.0795561)
(-7.5571002e-07 2.7490074e-07 1.0795558)
(8.0462384e-07 1.1312773e-07 1.0795563)
(1.8499473e-06 9.0288162e-08 1.0795566)
(1.0182582e-06 5.5510177e-08 1.0795568)
(4.9176504e-07 1.6799772e-08 1.0795568)
(-2.2454508e-08 -2.245452e-08 1.0795568)
(-5.3076966e-07 -6.1783371e-08 1.0795568)
(-1.0348018e-06 -1.0163683e-07 1.0795566)
(-1.5372243e-06 -1.4146054e-07 1.0795564)
(-2.0413912e-06 -1.7749238e-07 1.0795561)
(-7.6478132e-07 -2.0094735e-07 1.0795557)
(7.9708736e-07 -3.8225361e-07 1.0795562)
(1.8211656e-06 -4.0957653e-07 1.0795565)
(9.8118321e-07 -4.4877808e-07 1.0795567)
(4.5236906e-07 -4.9037489e-07 1.0795568)
(-6.1783374e-08 -5.3076966e-07 1.0795568)
(-5.695572e-07 -5.6955721e-07 1.0795567)
(-1.0725639e-06 -6.0718915e-07 1.0795565)
(-1.5716728e-06 -6.4317736e-07 1.0795563)
(-2.0671823e-06 -6.7443225e-07 1.079556)
(-7.7134667e-07 -6.9414707e-07 1.0795556)
(7.8640857e-07 -8.4496171e-07 1.0795561)
(1.7834229e-06 -8.916536e-07 1.0795564)
(9.374598e-07 -9.4482467e-07 1.0795566)
(4.0977346e-07 -9.9288672e-07 1.0795566)
(-1.0163683e-07 -1.0348018e-06 1.0795566)
(-6.0718915e-07 -1.0725639e-06 1.0795565)
(-1.108422e-06 -1.108422e-06 1.0795564)
(-1.6044674e-06 -1.1436192e-06 1.0795562)
(-2.0923609e-06 -1.176863e-06 1.0795559)
(-7.7792453e-07 -1.2012096e-06 1.0795555)
(7.6595944e-07 -1.2560809e-06 1.0795559)
(1.7213027e-06 -1.3614631e-06 1.0795562)
(8.7995009e-07 -1.4402848e-06 1.0795564)
(3.623919e-07 -1.4958172e-06 1.0795564)
(-1.4146054e-07 -1.5372243e-06 1.0795564)
(-6.4317736e-07 -1.5716728e-06 1.0795563)
(-1.1436192e-06 -1.6044674e-06 1.0795562)
(-1.6401137e-06 -1.6401137e-06 1.0795559)
(-2.1247727e-06 -1.6822396e-06 1.0795556)
(-7.8757775e-07 -1.7271598e-06 1.0795552)
(7.1615379e-07 -1.5577541e-06 1.0795557)
(1.599219e-06 -1.852635e-06 1.079556)
(8.0310569e-07 -1.9539e-06 1.0795561)
(3.12834e-07 -2.0076955e-06 1.0795561)
(-1.7749237e-07 -2.0413912e-06 1.0795561)
(-6.7443224e-07 -2.0671823e-06 1.079556)
(-1.176863e-06 -2.0923609e-06 1.0795559)
(-1.6822396e-06 -2.1247727e-06 1.0795556)
(-2.1794069e-06 -2.1794069e-06 1.0795553)
(-8.0787129e-07 -2.2934051e-06 1.0795549)
(5.6937221e-07 -5.5678438e-07 1.0795554)
(1.3251568e-06 -7.0356596e-07 1.0795556)
(7.248896e-07 -7.3949248e-07 1.0795557)
(2.7490073e-07 -7.5571002e-07 1.0795558)
(-2.0094735e-07 -7.6478132e-07 1.0795557)
(-6.9414705e-07 -7.7134667e-07 1.0795556)
(-1.2012096e-06 -7.7792452e-07 1.0795555)
(-1.7271598e-06 -7.8757775e-07 1.0795552)
(-2.2934051e-06 -8.0787129e-07 1.0795549)
(-8.6357656e-07 -8.6357656e-07 1.0795545)
(1.0959752e-06 1.0959752e-06 1.0795231)
(2.4833694e-06 9.560659e-07 1.0795234)
(1.3398848e-06 9.2480144e-07 1.0795236)
(6.9514352e-07 9.1152375e-07 1.0795237)
(9.8966555e-08 9.0280231e-07 1.0795237)
(-4.6681012e-07 8.9420823e-07 1.0795236)
(-9.9740766e-07 8.8199035e-07 1.0795235)
(-1.4710257e-06 8.5855669e-07 1.0795233)
(-1.8210619e-06 8.0143285e-07 1.0795231)
(-6.5088835e-07 6.3298136e-07 1.0795228)
(9.5606589e-07 2.4833694e-06 1.0795234)
(2.2266088e-06 2.2266088e-06 1.0795237)