/*--------------------------------*- C++ -*----------------------------------*\
| =========                 |                                                 |
| \\      /  F ield         | OpenFOAM: The Open Source CFD Toolbox           |
|  \\    /   O peration     | Version:  v2106                                 |
|   \\  /    A nd           | Website:  www.openfoam.com                      |
|    \\/     M anipulation  |                                                 |
\*---------------------------------------------------------------------------*/
FoamFile
{
    version     2.0;
    format      ascii;
    arch        "LSB;label=32;scalar=64";
    class       volScalarField;
    location    "55";
    object      gradTx;
}
// * * * * * * * * * * * * * * * * * * * * * * * * * * * * * * * * * * * * * //

dimensions      [0 -1 0 1 0 0 0];

internalField   nonuniform List<scalar> 
4000
(
0.00031577089
0.00017819654
-0.00039547451
-0.00015220922
-6.5798446e-05
3.4526587e-06
5.18057e-05
6.4872973e-05
2.9686161e-05
-2.9181144e-07
5.8098162e-05
-0.00016463961
-0.00034966778
-0.00014832816
-6.0739109e-05
1.3424167e-05
7.1992487e-05
0.00010001554
5.6472572e-05
3.1556491e-06
8.7213449e-05
-0.00011721987
-0.00034404723
-0.00014355361
-5.3434839e-05
2.4874024e-05
9.1658281e-05
0.00013778988
0.00012599387
3.2733217e-05
8.8635976e-05
-0.00011321235
-0.00033939213
-0.00013705562
-4.4880977e-05
3.6033447e-05
0.00010597036
0.00015479233
0.00014239063
3.7656025e-05
8.9800821e-05
-0.00010856426
-0.0003327747
-0.0001290941
-3.5873391e-05
4.6215226e-05
0.00011744322
0.00016683126
0.00015237559
4.0322554e-05
9.2008869e-05
-0.00010084874
-0.00032353401
-0.00011949417
-2.6603457e-05
5.4998694e-05
0.00012568768
0.00017411917
0.00015768711
4.1650451e-05
9.6448492e-05
-8.7142903e-05
-0.00031016542
-0.00010775289
-1.6908137e-05
6.2546869e-05
0.00013124715
0.00017768823
0.00015940248
4.1939675e-05
0.00010546673
-6.0996149e-05
-0.00028955613
-9.370924e-05
-6.8861384e-06
6.8802633e-05
0.00013424139
0.00017760757
0.00015715679
4.0967461e-05
0.00011987687
-1.4225989e-05
-0.00025538863
-7.8711516e-05
2.4187009e-06
7.3403838e-05
0.00013473555
0.00017358676
0.00014914372
3.7781042e-05
0.00012332433
3.5311553e-05
-0.00020363808
-6.7327517e-05
8.4103391e-06
7.5829524e-05
0.00013371107
0.00016734881
0.0001350457
3.1568779e-05
0.001137904
0.00056073168
-0.0016327953
-0.00073735069
-0.00031231914
2.771958e-05
0.00026637788
0.00032081902
7.0697569e-05
-4.8735073e-05
0.00029759862
-0.00059520383
-0.0015192421
-0.00071958733
-0.00028741706
7.6775918e-05
0.00036786674
0.00049886798
0.00012345476
-8.6528299e-05
0.0003672803
-0.00047161383
-0.0014896303
-0.00069464225
-0.00025146091
0.00013287342
0.00046501297
0.00068924998
0.00045665472
5.0419767e-05
0.00037330076
-0.00045203882
-0.001465089
-0.00066242884
-0.00020962001
0.00018736971
0.00053514725
0.0007749971
0.00054487166
7.8241287e-05
0.00037912254
-0.00042890539
-0.0014324718
-0.00062347198
-0.00016562862
0.000237028
0.0005908854
0.00083317281
0.00059273708
9.0921631e-05
0.00038990215
-0.00039118059
-0.0013872919
-0.00057659656
-0.00012036793
0.0002799111
0.00063109956
0.0008686068
0.00061821406
9.7177504e-05
0.00041182677
-0.00032375156
-0.001321878
-0.00051931739
-7.3087244e-05
0.00031672193
0.00065811847
0.00088576163
0.00062609959
9.8385579e-05
0.00045756138
-0.0001925455
-0.0012200114
-0.00045072413
-2.4415622e-05
0.00034714416
0.0006723755
0.00088432962
0.00061290847
9.2663252e-05
0.00053052607
4.4679393e-05
-0.0010457489
-0.00037539457
2.0522454e-05
0.00036931075
0.00067384129
0.00086102776
0.00056298675
7.1844919e-05
0.00049273284
0.00019341165
-0.0007985945
-0.00031464177
4.892678e-05
0.00038050667
0.00066706991
0.00082121678
0.00045200623
1.867624e-05
0.0015279687
0.00051733192
-0.0025987367
-0.0012458722
-0.00050898374
0.00010162565
0.00054870152
0.00064844205
-6.8029356e-05
-0.00023774843
0.00035540173
-0.0011145645
-0.0024582321
-0.0012171049
-0.00046548059
0.00018868608
0.0007398512
0.001031736
0.00013776608
-0.00026783032
0.00044003768
-0.00095940451
-0.0024115108
-0.0011729182
-0.00040146846
0.00028787207
0.00090944178
0.0013639277
0.00070189544
-4.0708336e-05
0.00044907145
-0.00092733867
-0.0023680295
-0.0011154887
-0.00032687021
0.00038520768
0.0010350726
0.0015193829
0.00086427135
1.0858768e-05
0.0004592159
-0.00088645052
-0.0023098946
-0.0010461247
-0.00024863344
0.00047343822
0.0011339097
0.0016224462
0.00094927181
3.3445454e-05
0.00047807355
-0.00081982339
-0.0022294192
-0.00096265369
-0.00016818226
0.00054960055
0.0012051901
0.0016850334
0.00099398175
4.4349241e-05
0.00051725619
-0.00070020409
-0.002113373
-0.00086055856
-8.4240574e-05
0.00061483507
0.0012527728
0.0017146507
0.0010066847
4.6003383e-05
0.00060550667
-0.00045908313
-0.0019341978
-0.00073818574
1.9351774e-06
0.00066846361
0.001276983
0.0017089586
0.00097645622
3.2855525e-05
0.00077278553
1.528154e-05
-0.0016257261
-0.00060204005
8.1409874e-05
0.00070703961
0.0012766981
0.0016553573
0.00084696378
-2.4742987e-05
0.00074270363
0.00031084167
-0.0012076925
-0.00049080937
0.00013164558
0.00072587651
0.0012594575
0.0015492377
0.00042643942
-0.00024749405
0.0018514297
0.00044594909
-0.0034484977
-0.0016778891
-0.00064502017
0.00023689641
0.00091623551
0.0011235851
-3.5082398e-05
-0.00037584117
0.00040590899
-0.0015720383
-0.0032798791
-0.0016379567
-0.0005836093
0.00035917537
0.0011887479
0.0016971691
0.00028235195
-0.0004199164
0.00050610481
-0.0013845574
-0.0032162316
-0.0015747073
-0.00049199802
0.00050059343
0.001428758
0.0021668702
0.0010599563
-0.00011237127
0.00051832139
-0.0013397721
-0.0031539728
-0.0014924827
-0.000385378
0.00063968056
0.0016083063
0.0023903111
0.0012939763
-3.8215279e-05
0.00053272643
-0.0012813756
-0.0030707576
-0.001393378
-0.00027376607
0.00076538472
0.0017488467
0.0025367148
0.0014148397
-6.0623537e-06
0.00055926198
-0.0011867499
-0.0029557415
-0.0012742508
-0.00015912549
0.00087376307
0.0018500458
0.0026252974
0.0014778809
9.2619139e-06
0.00061424573
-0.0010176786
-0.0027902524
-0.0011285867
-3.9683566e-05
0.0009663447
0.0019171614
0.002666475
0.0014948998
1.1292978e-05
0.00074093692
-0.00067422745
-0.0025361831
-0.00095416208
8.2614029e-05
0.0010420778
0.0019504141
0.0026559474
0.0014477808
-9.0697066e-06
0.00099663505
2.5606436e-05
-0.0020971105
-0.00075874205
0.00019530283
0.0010961049
0.0019478114
0.0025713176
0.0012316018
-0.00010781917
0.00095255982
0.00042081128
-0.0015245588
-0.00059927867
0.00026651862
0.0011221379
0.001920314
0.0023926494
0.00036588921
-0.00058621144
0.0021465964
0.00037126522
-0.0042252173
-0.0020463762
-0.00072420404
0.00042728213
0.001344337
0.0016768406
9.6856758e-05
-0.00047822978
0.00045050457
-0.0019970026
-0.0040255119
-0.0019944469
-0.00064499339
0.00058390012
0.0016952389
0.0024336006
0.0005108698
-0.00054312733
0.00056775118
-0.0017737571
-0.0039433468
-0.0019118504
-0.00052632237
0.00076628652
0.0020032118
0.0030361406
0.0014899085
-0.00016116117
0.00058364151
-0.0017151321
-0.0038619126
-0.0018050928
-0.00038848998
0.0009457808
0.0022346818
0.0033250651
0.0017921969
-6.5788396e-05
0.00060237074
-0.0016392313
-0.0037539928
-0.0016769483
-0.00024449345
0.0011076768
0.0024153203
0.0035130305
0.001947325
-2.4541639e-05
0.0006364486
-0.0015172504
-0.0036054092
-0.0015232639
-9.6821663e-05
0.0012470493
0.0025451398
0.0036263159
0.0020276618
-5.0715175e-06
0.00070678274
-0.0013002269
-0.0033921121
-0.001335558
5.6775064e-05
0.0013657621
0.002630636
0.003677997
0.0020482257
-2.8502446e-06
0.0008703832
-0.00085837561
-0.0030659663
-0.0011111554
0.00021363634
0.001462365
0.0026718667
0.0036618989
0.0019844715
-3.009997e-05
0.0012112894
5.907317e-05
-0.0025006476
-0.00085866816
0.00035802591
0.0015307286
0.002666219
0.003546994
0.0016861236
-0.00016764835
0.0011463919
0.00053467607
-0.0017846392
-0.00065373886
0.00044910123
0.0015632657
0.0026286764
0.0032997969
0.0003469686
-0.00092286996
0.002414421
0.00028686314
-0.0049433494
-0.0023622097
-0.000754508
0.00066384333
0.0018180831
0.002279301
0.00029312263
-0.00055521195
0.00048510901
-0.0024050698
-0.0047115223
-0.0022978438
-0.00065785586
0.00085359327
0.0022444106
0.0032130793
0.000801041
-0.00064001464
0.00061979909
-0.0021446834
-0.0046097658
-0.0021957646
-0.00051280375
0.0010754238
0.0026174759
0.0039429926
0.001971662
-0.00018780094
0.00063966045
-0.0020714861
-0.0045089017
-0.0020648333
-0.00034469207
0.0012938054
0.0028986694
0.0042945804
0.0023389283
-7.2381147e-05
0.00066270969
-0.0019782383
-0.0043767553
-0.00190846
-0.00016942661
0.0014904749
0.0031176803
0.0045222268
0.0025266681
-2.2515009e-05
0.00070409521
-0.0018297819
-0.0041957379
-0.0017214562
1.0000291e-05
0.0016595383
0.0032747979
0.0046589633
0.0026233343
8.4925509e-07
0.00078920965
-0.0015666578
-0.0039365431
-0.0014934088
0.00019630627
0.0018031623
0.003377639
0.0047203025
0.0026468334
3.1012227e-06
0.00098831356
-0.001030389
-0.0035414791
-0.0012212518
0.00038612881
0.001919497
0.0034260436
0.0046981666
0.0025664487
-3.0940216e-05
0.0014117285
9.7033765e-05
-0.002855042
-0.00091417458
0.00056068917
0.002001238
0.0034168423
0.0045535891
0.0021901701
-0.00020495597
0.0013269258
0.00064815027
-0.0020035917
-0.00066624567
0.00067053477
0.0020396624
0.0033691581
0.0042415033
0.00038329671
-0.0012355225
0.0026534088
0.00018847597
-0.005608914
-0.0026335319
-0.00074473593
0.00093592109
0.0023235286
0.002912985
0.00053724678
-0.00061107436
0.00050821728
-0.0028014168
-0.0053450771
-0.002556634
-0.00063117215
0.0011573662
0.0028219071
0.0040167637
0.0011387481
-0.00071289818
0.00066014702
-0.002503861
-0.0052233026
-0.00243523
-0.00046059755
0.0014169335
0.0032569422
0.0048679697
0.0024912839
-0.00019417706
0.00068410855
-0.0024158054
-0.00510307
-0.0022806927
-0.00026330445
0.0016725228
0.0035855131
0.005279203
0.0029202708
-5.9770327e-05
0.00071141228
-0.0023055592
-0.0049473613
-0.0020970616
-5.8023672e-05
0.0019024262
0.0038410786
0.0055445827
0.0031389648
-1.7409138e-06
0.00075981773
-0.002131667
-0.0047352023
-0.0018781188
0.00015177404
0.0020998158
0.0040241731
0.0057035861
0.0032511036
2.5305967e-05
0.00085904232
-0.0018245468
-0.0044322047
-0.0016115688
0.00036926931
0.0022671512
0.0041434729
0.0057740337
0.0032773011
2.755518e-05
0.0010920701
-0.0011982533
-0.0039715963
-0.0012939824
0.00059043401
0.00240221
0.0041986154
0.0057460397
0.0031809768
-1.2985912e-05
0.0015948948
0.00013043784
-0.0031697654
-0.00093495572
0.00079365239
0.0024966022
0.0041859265
0.0055732301
0.0027313051
-0.00022123574
0.001493071
0.00075578379
-0.0021900736
-0.00064630149
0.00092126684
0.0025405463
0.0041284887
0.0052000437
0.0004733895
-0.001518263
0.0028623106
7.4211947e-05
-0.0062243416
-0.0028662065
-0.00070273355
0.0012335687
0.0028484352
0.003564148
0.0008185573
-0.00064822593
0.0005193882
-0.0031871814
-0.0059292206
-0.0027769127
-0.00057292819
0.0014850973
0.0034151164
0.0048299334
0.0015131591
-0.00076381837
0.00068804838
-0.0028531703
-0.0057874436
-0.0026365994
-0.00037787287
0.001780512
0.0039087499
0.0057957763
0.003037322
-0.00018246042
0.00071613554
-0.0027502835
-0.0056481823
-0.0024592366
-0.00015267052
0.0020714642
0.004282189
0.0062634326
0.0035246395
-3.0131872e-05
0.0007475776
-0.0026235632
-0.0054697676
-0.0022494894
8.1227597e-05
0.0023329378
0.0045723888
0.0065645116
0.0037725865
3.5603307e-05
0.00080267245
-0.0024254228
-0.0052279246
-0.0020001361
0.00031990029
0.0025572208
0.0047801186
0.0067446205
0.0038993893
6.6139908e-05
0.00091526332
-0.00207662
-0.0048834006
-0.0016970635
0.00056698416
0.0027470638
0.0049150762
0.0068238015
0.0039282691
6.8427996e-05
0.0011804599
-0.0013651081
-0.004360852
-0.0013364972
0.0008178299
0.0028999082
0.0049767433
0.0067905405
0.0038172249
2.1861736e-05
0.0017591202
0.00015500829
-0.0034499014
-0.00092832826
0.001048172
0.0030063537
0.0049609961
0.0065915916
0.0032992686
-0.00021827308
0.0016435278
0.00085365657
-0.0023493716
-0.00060123268
0.0011925797
0.0030555908
0.0048945789
0.00616154
0.00061175018
-0.0017698172
0.0030404366
-5.603929e-05
-0.0067901224
-0.0030643708
-0.00063502932
0.0015481551
0.0033823482
0.004221513
0.0011288089
-0.00066839858
0.00051878617
-0.0035614926
-0.0064648438
-0.0029629794
-0.00048977512
0.0018279871
0.0040132111
0.0056403409
0.0019152818
-0.00079453521
0.0007034677
-0.0031922251
-0.0063033827
-0.0028043771
-0.0002714511
0.0021571725
0.0045617981
0.0067135831
0.0035999265
-0.00015470728
0.00073563857
-0.0030747529
-0.006145652
-0.0026051587
-1.9781475e-05
0.0024814707
0.0049774081
0.0072342043
0.0041419561
1.4416721e-05
0.00077106195
-0.0029322314
-0.005945562
-0.002370602
0.00024118953
0.0027727175
0.0053001983
0.0075688314
0.0044173687
8.7381299e-05
0.00083247471
-0.0027111747
-0.0056756584
-0.0020925181
0.00050712149
0.0030223767
0.0055311721
0.0077688639
0.0045580265
0.00012121732
0.00095761662
-0.0023232141
-0.0052920784
-0.001755057
0.00078209546
0.0032334881
0.0056810142
0.0078564838
0.004589673
0.00012361883
0.00125305
-0.0015317247
-0.0047114615
-0.0013541179
0.0010608856
0.0034031926
0.005749102
0.0078187569
0.004465407
7.160085e-05
0.0019035019
0.00016885598
-0.0036982151
-0.00089980867
0.0013167551
0.0035211406
0.0057309072
0.0075961243
0.0038847405
-0.00019791446
0.0017773653
0.00093939292
-0.0024847872
-0.00053667578
0.001476956
0.0035754969
0.0056564825
0.0071138244
0.00079203595
-0.0019902022
0.0031875935
-0.00020116196
-0.0073056156
-0.0032308923
-0.00054692919
0.0018723325
0.0039162913
0.0048754071
0.0014609468
-0.00067306787
0.0005069659
-0.0039223551
-0.006951625
-0.00311783
-0.00038712874
0.0021785249
0.0046068506
0.0064373789
0.0023371781
-0.00080666326
0.00070679808
-0.0035194133
-0.0067710321
-0.0029417289
-0.00014690474
0.0025392182
0.0052064646
0.0076102091
0.0041702773
-0.00011285525
0.0007429596
-0.0033877715
-0.0065955721
-0.0027217931
0.00012962789
0.0028946706
0.0056613448
0.0081800829
0.0047631355
7.1857663e-05
0.00078217293
-0.00323025
-0.0063749951
-0.0024638898
0.00041598069
0.0032137522
0.0060145402
0.0085459664
0.0050641135
0.00015154665
0.00084949323
-0.0029877471
-0.0060788155
-0.0021589076
0.00070742805
0.0034871683
0.0062672887
0.0087646838
0.0052177828
0.00018848439
0.0009863012
-0.0025633643
-0.0056588494
-0.0017893558
0.0010084783
0.0037182439
0.0064312223
0.0088604644
0.0052523128
0.0001910851
0.0013098661
-0.0016975738
-0.0050243213
-0.001350832
0.001313372
0.0039038503
0.0065056603
0.0088191659
0.0051164545
0.00013423611
0.0020276157
0.00017143773
-0.0039161454
-0.00085359853
0.0015930792
0.0040327419
0.0064857044
0.0085754926
0.0044789829
-0.00016201927
0.0018940203
0.0010117566
-0.002598364
-0.00045699567
0.0017680193
0.0040920495
0.006404332
0.008045836
0.0010078503
-0.0021798523
0.0033039919
-0.00035921131
-0.007769534
-0.0033677327
-0.00044273598
0.0021998422
0.004442461
0.0055172911
0.0018085858
-0.00066361654
0.00048474699
-0.0042671265
-0.0073885591
-0.0032435379
-0.00026939227
0.0025302985
0.0051878881
0.0072116332
0.0027715574
-0.00080176839
0.00069871507
-0.0038324302
-0.0071895884
-0.0030508783
-8.7823679e-06
0.002920058
0.0058343289
0.0084756993
0.0047402533
-5.8776498e-05
0.00073873026
-0.0036871809
-0.0069972977
-0.002811516
0.0002908546
0.0033043005
0.006325374
0.0090908581
0.0053797898
0.00014023631
0.00078151159
-0.0035155758
-0.0067575665
-0.0025318775
0.00060075347
0.003649133
0.0067066386
0.0094855537
0.0057043086
0.00022611214
0.00085429274
-0.0032532273
-0.0064370508
-0.0022019802
0.00091583946
0.0039445727
0.0069795947
0.009721636
0.0058700897
0.00026594061
0.0010018158
-0.0027953601
-0.0059835645
-0.0018028025
0.0012410257
0.004194221
0.0071567732
0.0098252736
0.0059076132
0.00026882616
0.0013512442
-0.0018613594
-0.0052995649
-0.0013296705
0.0015700601
0.0043947073
0.0072374755
0.0097813229
0.0057618449
0.00020778762
0.0021313771
0.00016304809
-0.0041043395
-0.00079294813
0.0018718036
0.0045339409
0.0072164601
0.0095193422
0.0050737024
-0.00011246056
0.0019932252
0.0010703081
-0.0026913325
-0.00036561516
0.00206036
0.0045980119
0.0071292307
0.0089474122
0.0012528987
-0.0023394148
0.003390174
-0.00052768254
-0.0081802621
-0.0034762291
-0.000325975
0.002525307
0.0049539886
0.0061394917
0.0021657729
-0.0006414011
0.00045313482
-0.0045928061
-0.0077742896
-0.0033415427
-0.00014018335
0.0028777892
0.0057491416
0.0079546302
0.0032115749
-0.00078141656
0.00068009161
-0.0041285848
-0.0075578802
-0.0031334023
0.00013916327
0.0032940054
0.0064379548
0.0093010874
0.0053022612
5.6871405e-06
0.00072378319
-0.0039704242
-0.0073498024
-0.0028760468
0.00046000005
0.003704509
0.0069618621
0.0099573208
0.0059840739
0.00021763314
0.00076988254
-0.003785758
-0.0070923843
-0.0025764244
0.0007914692
0.0040728646
0.0073687085
0.01037823
0.0063299833
0.00030912537
0.00084764429
-0.0035052859
-0.006749619
-0.0022237408
0.0011281843
0.0043884752
0.007660197
0.010630264
0.0065069098
0.00035161724
0.0010048707
-0.0030170595
-0.0062656645
-0.0017975652
0.0014754354
0.0046552047
0.0078497003
0.010741404
0.0065475067
0.00035486673
0.0013777463
-0.0020213197
-0.0055368985
-0.0012929871
0.0018265192
0.0048694669
0.0079365349
0.010695705
0.0063935194
0.00029028635
0.0022149631
0.00014453625
-0.004262974
-0.00072042238
0.0021483789
0.0050183783
0.0079151409
0.010418183
0.0056609923
-5.1128007e-05
0.0020749476
0.0011151686
-0.0027643994
-0.00026526504
0.0023493551
0.0050869904
0.0078231446
0.0098091905
0.0015210035
-0.0024697062
0.0034469602
-0.00070369844
-0.0085360755
-0.0035573076
-0.00019958558
0.0028440536
0.0054447682
0.006735043
0.0025268745
-0.00060777914
0.00041326649
-0.0048962247
-0.008107332
-0.0034128662
-2.5259993e-06
0.0032161969
0.0062842263
0.0086586885
0.003650735
-0.00074719431
0.00065194267
-0.0044049958
-0.0078745961
-0.0031904504
0.00029378355
0.0036561071
0.007010729
0.010078257
0.0058491505
7.8708608e-05
0.00069909545
-0.0042347453
-0.0076519097
-0.0029166666
0.00063377972
0.0040901887
0.007564013
0.010771132
0.0065686095
0.00030215119
0.00074823694
-0.0040381386
-0.0073783965
-0.0025989431
0.00098471075
0.0044797023
0.0079938086
0.011215511
0.0069336403
0.00039865823
0.0008304685
-0.0037413762
-0.007015604
-0.0022257394
0.0013409171
0.0048135121
0.0083020443
0.011481985
0.007120675
0.00044356879
0.00099633246
-0.0032260852
-0.0065044046
-0.0017753478
0.0017080342
0.0050957277
0.0085028676
0.011600207
0.0071643822
0.00044725101
0.0013901073
-0.0021754154
-0.0057358172
-0.0012426597
0.0020789483
0.0053225711
0.008595639
0.011553622
0.0070038473
0.00037977354
0.0022787628
0.00011712895
-0.0043919609
-0.00063809427
0.0024188874
0.0054804238
0.0085745042
0.011263317
0.0062333119
2.0074068e-05
0.0021393476
0.0011468606
-0.0028179427
-0.00015816984
0.0026310138
0.0055533129
0.0084788114
0.010622552
0.0018061006
-0.0025717006
0.0034754071
-0.00088414671
-0.0088352953
-0.0036116416
-6.6071285e-05
0.0031519758
0.0059093346
0.0072975924
0.0028865223
-0.00056411921
0.00036637078
-0.0051741795
-0.008386229
-0.0034582713
0.00014099968
0.0035413038
0.0067874361
0.0093168289
0.0040828474
-0.00070071443
0.00061538523
-0.0046587265
-0.0081384412
-0.0032229043
0.00045238509
0.0040020089
0.0075467463
0.010799858
0.006374176
0.00015847215
0.00066574825
-0.0044773254
-0.0079024505
-0.0029343787
0.0008093759
0.0044568465
0.0081257582
0.011524745
0.0071264529
0.00039191408
0.00071763212
-0.0042699892
-0.0076145486
-0.0026005576
0.001177538
0.0048650256
0.0085757363
0.011989714
0.0075082279
0.00049280617
0.00080379556
-0.0039588691
-0.0072340743
-0.0022092259
0.001550978
0.0052149498
0.008898827
0.012269023
0.0077042638
0.0005398735
0.00097718415
-0.0034199561
-0.006699006
-0.001737541
0.0019356413
0.0055109537
0.0091098781
0.012393833
0.0077510672
0.00054404462
0.0013891966
-0.0023214573
-0.0058957522
-0.0011802359
0.0023240468
0.0057490916
0.0092083178
0.012347168
0.0075856164
0.00047430511
0.0023233418
8.230929e-05
-0.0044910894
-0.00054768499
0.0026799186
0.0059150733
0.009188023
0.012046803
0.0067834851
9.9233055e-05
0.0021867466
0.0011661963
-0.0028521467
-4.6183945e-05
0.0029018577
0.005991931
0.0090896704
0.011379585
0.002102243
-0.002646523
0.0034767729
-0.0010657855
-0.0090764007
-0.0036397694
7.2387459e-05
0.003445433
0.0063427804
0.0078213429
0.0032395918
-0.00051180191
0.00031373641
-0.0054235341
-0.0086096614
-0.003478379
0.00028814534
0.0038493749
0.0072536621
0.0099227219
0.0045020129
-0.00064361346
0.00057160714
-0.0048868837
-0.0083482479
-0.0032314938
0.00061261865
0.004327858
0.0080407311
0.011459254
0.0068709873
0.00024317685
0.00062489594
-0.0046953813
-0.0081003734
-0.0029300237
0.00098432823
0.0048005068
0.0086416805
0.012211359
0.0076510868
0.00048507029
0.00067920072
-0.0044786082
-0.0077998926
-0.0025822173
0.0013673804
0.0052247448
0.0091089552
0.012693919
0.0080471342
0.0005896932
0.00076873452
-0.0041551501
-0.0074041905
-0.002175262
0.0017556883
0.005588595
0.0094449096
0.012984367
0.0082509991
0.00063863912
0.00094849531
-0.0035961832
-0.0068487607
-0.0016853304
0.0021554686
0.0058965933
0.0096650102
0.013115199
0.0083008298
0.00064334136
0.001375989
-0.0024571993
-0.0060161721
-0.0011070379
0.0025589174
0.00614465
0.009768772
0.013069188
0.0081320398
0.00057195974
0.0023494146
4.172806e-05
-0.0045601238
-0.00045066554
0.0029284764
0.0063178734
0.0097498318
0.012761426
0.0073047119
0.00018443751
0.0022176031
0.0011741962
-0.0028670981
6.9109001e-05
0.0031588297
0.0063983456
0.0096498127
0.01207307
0.0024036131
-0.0026954395
0.0034524868
-0.0012453274
-0.00925811
-0.0036421791
0.00021385074
0.0037211776
0.0067406996
0.0083010218
0.003581198
-0.00045221621
0.00025668589
-0.0056412953
-0.008776528
-0.0034737533
0.00043691229
0.0041370852
0.0076783373
0.010470657
0.0049026266
-0.00057754472
0.00052184154
-0.0050866935
-0.008503055
-0.0032168814
0.000772398
0.0046302314
0.0084879834
0.012050499
0.0073336335
0.00033104421
0.00057774056
-0.0048862403
-0.0082448226
-0.0029043623
0.001156454
0.0051176429
0.0091069627
0.01282489
0.0081364268
0.00057980115
0.00063412538
-0.0046613958
-0.0079336639
-0.0025447781
0.0015519594
0.0055552348
0.009588546
0.013321944
0.0085441959
0.00068748031
0.00072644825
-0.004327693
-0.0075252809
-0.0021248009
0.0019526746
0.0059307306
0.0099352843
0.013621754
0.0087546577
0.00073801183
0.00091139714
-0.003752342
-0.0069531063
-0.0016197747
0.0023650472
0.0062488417
0.010163174
0.013757968
0.0088073907
0.00074327272
0.00135154
-0.0025804092
-0.0060966555
-0.0010242384
0.0027809962
0.0065053591
0.010271834
0.01371327
0.0086367703
0.00067084915
0.0023578209
-2.8643456e-06
-0.0045988741
-0.0003483302
0.0031619112
0.0066848653
0.010254691
0.013400693
0.0077905874
0.00027378864
0.0022324924
0.0011720263
-0.0028628553
0.00018632394
0.0033992272
0.0067685539
0.010153947
0.012696467
0.0027045441
-0.0027198464
0.0034041223
-0.0014195083
-0.0093794395
-0.0036193716
0.00035655943
0.0039763034
0.0070991506
0.0087318626
0.0039067029
-0.00038675286
0.00019655299
-0.0058246742
-0.0088860036
-0.0034449631
0.0005854923
0.0044014695
0.0080574002
0.010955529
0.0052793904
-0.00050416858
0.00046734501
-0.0052555601
-0.008602164
-0.0031797228
0.00092984148
0.0049060866
0.0088843432
0.012568318
0.007756576
0.00042032797
0.00052551026
-0.0050473987
-0.0083351938
-0.0028581357
0.0013237906
0.0054051281
0.0095173529
0.01335996
0.0085768351
0.00067433091
0.00058361735
-0.0048159113
-0.0080153367
-0.0024890621
0.0017292321
0.0058532874
0.010010174
0.01386833
0.0089937125
0.00078437575
0.00067813217
-0.0044741167
-0.0075968956
-0.0020587451
0.0021398148
0.0062380706
0.01036554
0.014175656
0.0092094875
0.00083618688
0.00086706137
-0.0038861281
-0.007011678
-0.0015418614
0.0025621746
0.0065643364
0.010599885
0.014316539
0.0092649415
0.00084201892
0.0013169652
-0.002688924
-0.0061369428
-0.00093291461
0.0029880016
0.0068277816
0.010712941
0.014273732
0.0090939216
0.00076912981
0.002349506
-4.9672192e-05
-0.0046072474
-0.00024184984
0.00337787
0.0070125458
0.010697961
0.013958824
0.0082351248
0.00036541307
0.0022320903
0.001160949
-0.0028394981
0.00030422185
0.003620654
0.0070990106
0.010597375
0.013243915
0.0029995457
-0.0027212563
0.0033333714
-0.0015851449
-0.0094397459
-0.0035719051
0.00049889236
0.00420821
0.0074146314
0.0091095972
0.004211728
-0.00031679625
0.00013466318
-0.0059711344
-0.0089375801
-0.0033926261
0.00073222504
0.004639886
0.0083872706
0.011372828
0.0056273312
-0.00042514125
0.00040937837
-0.0053911134
-0.00864518
-0.0031207111
0.0010832301
0.0051527261
0.0092261666
0.013008101
0.0081347066
0.00050932518
0.00046944041
-0.0051765685
-0.008371174
-0.0027921082
0.0014845547
0.0056602015
0.009869142
0.013811891
0.0089671391
0.00076693788
0.00052889766
-0.0049399194
-0.0080446621
-0.002415899
0.0018973515
0.0061160782
0.010370066
0.014328338
0.0093904658
0.0008786464
0.00062499553
-0.0045922308
-0.0076188443
-0.0019779868
0.0023151988
0.0065077274
0.010731841
0.014641275
0.0096102264
0.00093142012
0.00081668169
-0.0039954033
-0.0070243466
-0.0014525469
0.0027448774
0.0068401258
0.01097124
0.014786051
0.0096681652
0.00093782075
0.0012734217
-0.0027806955
-0.006136973
-0.00083408781
0.0031778977
0.0071089013
0.011088118
0.014745625
0.0094980901
0.00086501528
0.0023255022
-9.6899035e-05
-0.0045852837
-0.00013231046
0.0035742616
0.0072978391
0.011075589
0.014430757
0.0086327812
0.00045747621
0.0022171572
0.0011422831
-0.002797165
0.00042167137
0.003820985
0.0073866007
0.010975982
0.013710241
0.0032833339
-0.0027012829
0.0032420214
-0.001739184
-0.0094387563
-0.0035004278
0.00063933529
0.0044145767
0.0076840639
0.0094304539
0.0044921708
-0.00024371527
7.2316184e-05
-0.0060784315
-0.0089310954
-0.0033174417
0.00087556737
0.0048499915
0.0086648333
0.011718637
0.0059418212
-0.00034210285
0.00034918976
-0.005491247
-0.0086320393
-0.0030406079
0.0012309773
0.0053677719
0.0095103097
0.013365901
0.008463367
0.00059638776
0.00041075673
-0.0052717145
-0.0083527684
-0.0027070984
0.0016371125
0.0058804431
0.010159147
0.014176697
0.0093026505
0.00085596592
0.00047118047
-0.0050314271
-0.0080216959
-0.0023261566
0.0020546371
0.0063411424
0.010664996
0.014697945
0.0097297395
0.00096862926
0.00056824478
-0.0046800725
-0.0075912233
-0.0018834385
0.0024771004
0.0067371892
0.011030914
0.015014544
0.0099521232
0.0010220396
0.00076145702
-0.0040782319
-0.0069912443
-0.0013527861
0.0029113833
0.0070736473
0.011273908
0.015162374
0.010012258
0.0010289915
0.0012220911
-0.0028538267
-0.0060969098
-0.00072875203
0.0033488675
0.0073461014
0.011393965
0.015124732
0.009844378
0.0009567886
0.0022869123
-0.00014278506
-0.0045331836
-2.07418e-05
0.0037492296
0.0075380766
0.011384096
0.01481215
0.0089784828
0.00054819582
0.0021885247
0.0011173695
-0.0027360804
0.00053762045
0.0039983401
0.0076286199
0.01128622
0.014090957
0.0035508618
-0.0026616254
0.0031319328
-0.0018787448
-0.0093765888
-0.0034057018
0.00077645811
0.0045933441
0.007904782
0.0096911559
0.004744222
-0.000168854
1.0770339e-05
-0.0061446451
-0.008866754
-0.0032202138
0.0010140706
0.0050297219
0.0088874258
0.011989632
0.0062185992
-0.00025666524
0.00028799925
-0.0055541494
-0.0085630288
-0.0029402665
0.0013716063
0.0055491473
0.0097341158
0.013638428
0.0087383675
0.00067993387
0.00035066017
-0.0053310851
-0.0082803198
-0.0026040012
0.0017799572
0.0060637549
0.010384699
0.014451089
0.0095791842
0.00093983574
0.00041165791
-0.0050887142
-0.0079468162
-0.002220763
0.0021995533
0.0065263567
0.010892275
0.014973842
0.010007338
0.0010527428
0.0005090685
-0.0047359369
-0.0075144332
-0.0017760542
0.0026239558
0.0069243021
0.011260035
0.015292121
0.010230957
0.0011064573
0.00070257644
-0.004132911
-0.0069127833
-0.0012435535
0.0030601005
0.0072627098
0.011505121
0.015442113
0.010292949
0.0011139286
0.0011641644
-0.0029066031
-0.0060171601
-0.00061789545
0.0034992923
0.0075371484
0.011627648
0.01540757
0.010128415
0.0010428144
0.0022348938
-0.00018563934
-0.0044513266
9.1861307e-05
0.0039011324
0.0077309807
0.01162057
0.015099381
0.0092676498
0.00063585517
0.0021470825
0.0010875425
-0.0026565751
0.00065107476
0.0041510647
0.0078227593
0.011525106
0.014382271
0.0037973502
-0.002604052
0.0030050174
-0.002001156
-0.0092537663
-0.0032886206
0.00090889684
0.0047426987
0.0080745218
0.009888922
0.0049643821
-9.3522385e-05
-4.8771536e-05
-0.0061682048
-0.0087451394
-0.0031018684
0.0011463626
0.0051772769
0.0090528279
0.01218308
0.00645379
-0.00017040014
0.0002269849
-0.0055783294
-0.0084387989
-0.0028206489
0.0015037325
0.0056950603
0.0098954047
0.01382305
0.0089560048
0.00075845894
0.00029031307
-0.0053532373
-0.0081545203
-0.0024838055
0.0019116918
0.0062083456
0.010543632
0.014632462
0.0097930747
0.0010170557
0.00035148638
-0.0051103577
-0.007820736
-0.0021007231
0.0023306918
0.0066699235
0.011049734
0.015153432
0.010219602
0.0011294978
0.00044862361
-0.0047584016
-0.0073891911
-0.0016568462
0.0027543462
0.0070672542
0.011417021
0.015471388
0.010443052
0.0011831794
0.00064120522
-0.0041579961
-0.0067896673
-0.0011258599
0.0031896004
0.0074054793
0.011662657
0.015622604
0.010506516
0.0011911246
0.0011008277
-0.0029375187
-0.0058983868
-0.00050251707
0.003627735
0.0076801773
0.011786889
0.015591387
0.010346375
0.0011215502
0.002170644
-0.00022386803
-0.0043402858
0.00020452188
0.0040285267
0.0078746513
0.011782656
0.015289551
0.0094962172
0.00071881569
0.0020937662
0.001054104
-0.0025591021
0.00076108019
0.0042777123
0.0079670915
0.011690212
0.014581088
0.0040183174
-0.002530383
0.0028632185
-0.0021039889
-0.0090712253
-0.0031502235
0.0010353381
0.0048610581
0.0081914115
0.010021463
0.005149476
-1.8987362e-05
-0.00010517498
-0.0061479115
-0.008567223
-0.0029634676
0.0012711323
0.0052911051
0.0091592503
0.012296834
0.0066439214
-8.4827845e-05
0.00016727001
-0.0055626371
-0.0082603712
-0.0026828395
0.0016260477
0.0058039892
0.0099924604
0.013917786
0.0091130752
0.00083054582
0.00023082653
-0.0053370575
-0.0079764193
-0.002347607
0.0020310131
0.0063127151
0.010634271
0.014718896
0.0099411895
0.0010862317
0.0002917739
-0.0050952531
-0.0076445106
-0.0019671326
0.002446756
0.0067703555
0.011135718
0.015234818
0.010363424
0.001197507
0.00038802265
-0.0047463479
-0.0072165385
-0.0015268987