/*--------------------------------*- C++ -*----------------------------------*\
| =========                 |                                                 |
| \\      /  F ield         | OpenFOAM: The Open Source CFD Toolbox           |
|  \\    /   O peration     | Version:  v2106                                 |
|   \\  /    A nd           | Website:  www.openfoam.com                      |
|    \\/     M anipulation  |                                                 |
\*---------------------------------------------------------------------------*/
FoamFile
{
    version     2.0;
    format      ascii;
    arch        "LSB;label=32;scalar=64";
    class       volScalarField;
    location    "55";
    object      gradTz;
}
// * * * * * * * * * * * * * * * * * * * * * * * * * * * * * * * * * * * * * //

dimensions      [0 -1 0 1 0 0 0];

internalField   nonuniform List<scalar> 
4000
(
559.58293
559.58502
559.58366
559.58314
559.58287
559.5828
559.58289
559.58308
559.58324
559.58319
559.58502
559.58549
559.58429
559.58378
559.58351
559.58346
559.58359
559.58385
559.58413
559.58405
559.58366
559.58429
559.58311
559.58261
559.58236
559.58234
559.5825
559.58283
559.58324
559.58339
559.58314
559.58378
559.58261
559.58212
559.58189
559.58189
559.58209
559.58246
559.58292
559.58311
559.58287
559.58351
559.58236
559.58189
559.58169
559.58171
559.58194
559.58234
559.58283
559.58304
559.5828
559.58346
559.58234
559.58189
559.58171
559.58176
559.58201
559.58243
559.58294
559.58316
559.58289
559.58359
559.5825
559.58209
559.58194
559.58201
559.58228
559.58271
559.58322
559.58345
559.58308
559.58385
559.58283
559.58246
559.58234
559.58243
559.58271
559.58315
559.58365
559.58387
559.58324
559.58413
559.58324
559.58292
559.58283
559.58294
559.58322
559.58365
559.58414
559.58433
559.58319
559.58405
559.58339
559.58311
559.58304
559.58316
559.58345
559.58387
559.58433
559.58444
827.06777
827.06959
827.06811
827.06739
827.06702
827.06695
827.06712
827.06744
827.0677
827.06735
827.06959
827.07004
827.06864
827.06793
827.06757
827.06753
827.06775
827.06819
827.06868
827.06827
827.06811
827.06864
827.06727
827.06658
827.06624
827.06623
827.06651
827.06705
827.06773
827.06762
827.06739
827.06793
827.06658
827.0659
827.0656
827.06562
827.06595
827.06655
827.06731
827.06727
827.06702
827.06757
827.06624
827.0656
827.06532
827.06538
827.06575
827.0664
827.06721
827.0672
827.06695
827.06753
827.06623
827.06562
827.06538
827.06548
827.06588
827.06656
827.06739
827.06739
827.06712
827.06775
827.06651
827.06595
827.06575
827.06588
827.0663
827.067
827.06784
827.06785
827.06744
827.06819
827.06705
827.06655
827.0664
827.06656
827.067
827.0677
827.06853
827.06852
827.0677
827.06868
827.06773
827.06731
827.06721
827.06739
827.06784
827.06853
827.06932
827.06923
827.06735
827.06827
827.06762
827.06727
827.0672
827.06739
827.06785
827.06852
827.06923
827.06881
821.95206
821.95313
821.95195
821.95132
821.95101
821.95098
821.95122
821.95163
821.95202
821.95153
821.95313
821.9533
821.95216
821.95153
821.95124
821.95124
821.95152
821.95206
821.95272
821.95222
821.95195
821.95216
821.95103
821.95043
821.95015
821.95019
821.95052
821.95115
821.952
821.95176
821.95132
821.95153
821.95043
821.94985
821.9496
821.94967
821.95005
821.95074
821.95167
821.95149
821.95101
821.95124
821.95015
821.9496
821.94938
821.94949
821.94991
821.95065
821.95162
821.95147
821.95098
821.95124
821.95019
821.94967
821.94949
821.94963
821.95008
821.95085
821.95184
821.95171
821.95122
821.95152
821.95052
821.95005
821.94991
821.95008
821.95056
821.95134
821.95234
821.95221
821.95163
821.95206
821.95115
821.95074
821.95065
821.95085
821.95134
821.95213
821.95312
821.95296
821.95202
821.95272
821.952
821.95167
821.95162
821.95184
821.95234
821.95312
821.95405
821.95378
821.95153
821.95222
821.95176
821.95149
821.95147
821.95171
821.95221
821.95296
821.95378
821.95288
817.02195
817.02288
817.0218
817.02125
817.021
817.02103
817.02133
817.02183
817.02236
817.022
817.02288
817.02302
817.02199
817.02145
817.02122
817.02127
817.02161
817.02223
817.02301
817.0226
817.0218
817.02199
817.02099
817.02046
817.02025
817.02034
817.02073
817.02143
817.0224
817.02222
817.02125
817.02145
817.02046
817.01996
817.01977
817.0199
817.02033
817.0211
817.02214
817.02202
817.021
817.02122
817.02025
817.01977
817.01962
817.01978
817.02025
817.02106
817.02214
817.02206
817.02103
817.02127
817.02034
817.0199
817.01978
817.01997
817.02047
817.02131
817.02242
817.02234
817.02133
817.02161
817.02073
817.02033
817.02025
817.02047
817.021
817.02185
817.02297
817.02289
817.02183
817.02223
817.02143
817.0211
817.02106
817.02131
817.02185
817.0227
817.02381
817.02371
817.02236
817.02301
817.0224
817.02214
817.02214
817.02242
817.02297
817.02381
817.02486
817.02464
817.022
817.0226
817.02222
817.02202
817.02206
817.02234
817.02289
817.02371
817.02464
817.02363
812.27039
812.27124
812.27023
812.26974
812.26955
812.26963
812.26997
812.27053
812.27113
812.27086
812.27124
812.27135
812.2704
812.26992
812.26974
812.26985
812.27024
812.2709
812.27175
812.27142
812.27023
812.2704
812.26947
812.26901
812.26885
812.26899
812.26943
812.27018
812.2712
812.27109
812.26974
812.26992
812.26901
812.26857
812.26844
812.26861
812.26909
812.2699
812.27099
812.27094
812.26955
812.26974
812.26885
812.26844
812.26834
812.26854
812.26906
812.26991
812.27105
812.27102
812.26963
812.26985
812.26899
812.26861
812.26854
812.26878
812.26933
812.2702
812.27136
812.27135
812.26997
812.27024
812.26943
812.26909
812.26906
812.26933
812.2699
812.27079
812.27195
812.27194
812.27053
812.2709
812.27018
812.2699
812.26991
812.2702
812.27079
812.27168
812.27283
812.2728
812.27113
812.27175
812.2712
812.27099
812.27105
812.27136
812.27195
812.27283
812.27393
812.27379
812.27086
812.27142
812.27109
812.27094
812.27102
812.27135
812.27194
812.2728
812.27379
812.27281
807.68921
807.68997
807.68903
807.68859
807.68844
807.68857
807.68895
807.68955
807.69019
807.68999
807.68997
807.69006
807.68917
807.68874
807.68861
807.68876
807.68918
807.68988
807.69076
807.69051
807.68903
807.68917
807.6883
807.68789
807.68778
807.68796
807.68843
807.68921
807.69026
807.69021
807.68859
807.68874
807.68789
807.6875
807.68741
807.68763
807.68814
807.68898
807.6901
807.6901
807.68844
807.68861
807.68778
807.68741
807.68736
807.6876
807.68815
807.68903
807.69018
807.69022
807.68857
807.68876
807.68796
807.68763
807.6876
807.68787
807.68845
807.68935
807.69053
807.69058
807.68895
807.68918
807.68843
807.68814
807.68815
807.68845
807.68905
807.68997
807.69115
807.6912
807.68955
807.68988
807.68921
807.68898
807.68903
807.68935
807.68997
807.69088
807.69205
807.69208
807.69019
807.69076
807.69026
807.6901
807.69018
807.69053
807.69115
807.69205
807.69318
807.6931
807.68999
807.69051
807.69021
807.6901
807.69022
807.69058
807.6912
807.69208
807.6931
807.6922
803.27007
803.27074
803.26986
803.26946
803.26936
803.26951
803.26992
803.27054
803.27121
803.27107
803.27074
803.2708
803.26996
803.26958
803.26948
803.26966
803.27011
803.27083
803.27173
803.27155
803.26986
803.26996
803.26915
803.26878
803.26871
803.26892
803.26941
803.27021
803.27127
803.27128
803.26946
803.26958
803.26878
803.26844
803.26839
803.26863
803.26917
803.27001
803.27114
803.2712
803.26936
803.26948
803.26871
803.26839
803.26837
803.26864
803.26921
803.27009
803.27125
803.27134
803.26951
803.26966
803.26892
803.26863
803.26864
803.26894
803.26954
803.27045
803.27162
803.27172
803.26992
803.27011
803.26941
803.26917
803.26921
803.26954
803.27016
803.27108
803.27226
803.27236
803.27054
803.27083
803.27021
803.27001
803.27009
803.27045
803.27108
803.272
803.27317
803.27325
803.27121
803.27173
803.27127
803.27114
803.27125
803.27162
803.27226
803.27317
803.2743
803.27428
803.27107
803.27155
803.27128
803.2712
803.27134
803.27172
803.27236
803.27325
803.27428
803.27348
799.00448
799.00506
799.00424
799.00388
799.00381
799.00399
799.00442
799.00505
799.00573
799.00564
799.00506
799.00508
799.0043
799.00396
799.0039
799.0041
799.00457
799.00529
799.00619
799.00607
799.00424
799.0043
799.00355
799.00322
799.00318
799.00341
799.00392
799.00472
799.00577
799.00583
799.00388
799.00396
799.00322
799.00292
799.0029
799.00316
799.00371
799.00455
799.00566
799.00578
799.00381
799.0039
799.00318
799.0029
799.00291
799.0032
799.00378
799.00466
799.0058
799.00594
799.00399
799.0041
799.00341
799.00316
799.0032
799.00352
799.00412
799.00502
799.00619
799.00633
799.00442
799.00457
799.00392
799.00371
799.00378
799.00412
799.00475
799.00566
799.00683
799.00697
799.00505
799.00529
799.00472
799.00455
799.00466
799.00502
799.00566
799.00657
799.00773
799.00786
799.00573
799.00619
799.00577
799.00566
799.0058
799.00619
799.00683
799.00773
799.00885
799.00889
799.00564
799.00607
799.00583
799.00578
799.00594
799.00633
799.00697
799.00786
799.00889
799.00818
794.88387
794.88436
794.88359
794.88327
794.88323
794.88343
794.88387
794.8845
794.88518
794.88514
794.88436
794.88434
794.88362
794.88331
794.88328
794.8835
794.88397
794.88469
794.88558
794.88552
794.88359
794.88362
794.88293
794.88264
794.88262
794.88287
794.88338
794.88417
794.88519
794.8853
794.88327
794.88331
794.88264
794.88237
794.88237
794.88265
794.8832
794.88403
794.88511
794.88527
794.88323
794.88328
794.88262
794.88237
794.88241
794.88271
794.88329
794.88415
794.88527
794.88544
794.88343
794.8835
794.88287
794.88265
794.88271
794.88304
794.88364
794.88452
794.88566
794.88584
794.88387
794.88397
794.88338
794.8832
794.88329
794.88364
794.88426
794.88515
794.88629
794.88648
794.8845
794.88469
794.88417
794.88403
794.88415
794.88452
794.88515
794.88605
794.88718
794.88735
794.88518
794.88558
794.88519
794.88511
794.88527
794.88566
794.88629
794.88718
794.88828
794.88836
794.88514
794.88552
794.8853
794.88527
794.88544
794.88584
794.88648
794.88735
794.88836
794.88775
790.89956
790.89996
790.89926
790.89898
790.89896
790.89917
790.89961
790.90023
790.90091
790.90091
790.89996
790.89991
790.89925
790.89899
790.89897
790.89921
790.89968
790.90038
790.90125
790.90124
790.89926
790.89925
790.89862
790.89837
790.89837
790.89863
790.89914
790.8999
790.9009
790.90104
790.89898
790.89899
790.89837
790.89813
790.89816
790.89844
790.89898
790.89979
790.90084
790.90103
790.89896
790.89897
790.89837
790.89816
790.89821
790.89852
790.89909
790.89993
790.90101
790.90121
790.89917
790.89921
790.89863
790.89844
790.89852
790.89885
790.89944
790.9003
790.9014
790.90161
790.89961
790.89968
790.89914
790.89898
790.89909
790.89944
790.90005
790.90092
790.90202
790.90224
790.90023
790.90038
790.8999
790.89979
790.89993
790.9003
790.90092
790.90179
790.90288
790.90309
790.90091
790.90125
790.9009
790.90084
790.90101
790.9014
790.90202
790.90288
790.90394
790.90407
790.90091
790.90124
790.90104
790.90103
790.90121
790.90161
790.90224
790.90309
790.90407
790.90355
787.04288
787.04318
787.04255
787.04231
787.04231
787.04253
787.04296
787.04357
787.04423
787.04427
787.04318
787.0431
787.04251
787.04228
787.04229
787.04253
787.04299
787.04367
787.04451
787.04454
787.04255
787.04251
787.04194
787.04173
787.04175
787.04201
787.04251
787.04324
787.0442
787.04438
787.04231
787.04228
787.04173
787.04153
787.04157
787.04186
787.04238
787.04316
787.04416
787.04438
787.04231
787.04229
787.04175
787.04157
787.04164
787.04195
787.0425
787.0433
787.04433
787.04457
787.04253
787.04253
787.04201
787.04186
787.04195
787.04228
787.04285
787.04367
787.04471
787.04496
787.04296
787.04299
787.04251
787.04238
787.0425
787.04285
787.04344
787.04427
787.04532
787.04556
787.04357
787.04367
787.04324
787.04316
787.0433
787.04367
787.04427
787.0451
787.04614
787.04638
787.04423
787.04451
787.0442
787.04416
787.04433
787.04471
787.04532
787.04614
787.04716
787.04733
787.04427
787.04454
787.04438
787.04438
787.04457
787.04496
787.04556
787.04638
787.04733
787.04689
783.30511
783.30533
783.30477
783.30456
783.30458
783.30481
783.30522
783.30581
783.30644
783.30653
783.30533
783.30522
783.3047
783.3045
783.30453
783.30477
783.30522
783.30587
783.30666
783.30674
783.30477
783.3047
783.3042
783.30401
783.30406
783.30432
783.30479
783.30549
783.3064
783.3066
783.30456
783.3045
783.30401
783.30385
783.30391
783.30419
783.3047
783.30543
783.30638
783.30662
783.30458
783.30453
783.30406
783.30391
783.30399
783.30429
783.30482
783.30558
783.30655
783.30681
783.30481
783.30477
783.30432
783.30419
783.30429
783.30462
783.30516
783.30594
783.30692
783.30719
783.30522
783.30522
783.30479
783.3047
783.30482
783.30516
783.30572
783.30651
783.3075
783.30777
783.30581
783.30587
783.30549
783.30543
783.30558
783.30594
783.30651
783.3073
783.30828
783.30854
783.30644
783.30666
783.3064
783.30638
783.30655
783.30692
783.3075
783.30828
783.30924
783.30944
783.30653
783.30674
783.3066
783.30662
783.30681
783.30719
783.30777
783.30854
783.30944
783.30909
779.6776
779.67773
779.67724
779.67707
779.67711
779.67733
779.67773
779.67829
779.67889
779.67901
779.67773
779.6776
779.67715
779.67698
779.67703
779.67727
779.67769
779.6783
779.67905
779.67918
779.67724
779.67715
779.67671
779.67656
779.67662
779.67688
779.67733
779.67799
779.67883
779.67906
779.67707
779.67698
779.67656
779.67643
779.67651
779.67678
779.67726
779.67795
779.67883
779.67909
779.67711
779.67703
779.67662
779.67651
779.6766
779.67689
779.67739
779.6781
779.679
779.67928
779.67733
779.67727
779.67688
779.67678
779.67689
779.6772
779.67772
779.67844
779.67936
779.67964
779.67773
779.67769
779.67733
779.67726
779.67739
779.67772
779.67825
779.67898
779.6799
779.68018
779.67829
779.6783
779.67799
779.67795
779.6781
779.67844
779.67898
779.67971
779.68063
779.68091
779.67889
779.67905
779.67883
779.67883
779.679
779.67936
779.6799
779.68063
779.68153
779.68175
779.67901
779.67918
779.67906
779.67909
779.67928
779.67964
779.68018
779.68091
779.68175
779.68149
776.15173
776.15178
776.15137
776.15123
776.15129
776.15151
776.15189
776.1524
776.15297
776.15312
776.15178
776.15163
776.15125
776.15112
776.15118
776.15141
776.15182
776.15238
776.15308
776.15323
776.15137
776.15125
776.15089
776.15077
776.15085
776.15109
776.15152
776.15212
776.1529
776.15314
776.15123
776.15112
776.15077
776.15067
776.15076
776.15103
776.15147
776.1521
776.15291
776.15319
776.15129
776.15118
776.15085
776.15076
776.15086
776.15114
776.15161
776.15226
776.15309
776.15337
776.15151
776.15141
776.15109
776.15103
776.15114
776.15144
776.15192
776.15258
776.15342
776.15371
776.15189
776.15182
776.15152
776.15147
776.15161
776.15192
776.15241
776.15308
776.15392
776.15422
776.1524
776.15238
776.15212
776.1521
776.15226
776.15258
776.15308
776.15376
776.1546
776.15488
776.15297
776.15308
776.1529
776.15291
776.15309
776.15342
776.15392
776.1546
776.15542
776.15567
776.15312
776.15323
776.15314
776.15319
776.15337
776.15371
776.15422
776.15488
776.15567
776.15548
772.719
772.71897
772.71864
772.71855
772.71861
772.71883
772.71918
772.71966
772.72019
772.72035
772.71897
772.71881
772.7185
772.71842
772.71849
772.71871
772.71908
772.7196
772.72024
772.72042
772.71864
772.7185
772.71822
772.71814
772.71822
772.71846
772.71885
772.7194
772.7201
772.72036
772.71855
772.71842
772.71814
772.71807
772.71817
772.71842
772.71883
772.7194
772.72013
772.72041
772.71861
772.71849
772.71822
772.71817
772.71828
772.71854
772.71897
772.71956
772.7203
772.72059
772.71883
772.71871
772.71846
772.71842
772.71854
772.71882
772.71926
772.71986
772.72061
772.72091
772.71918
772.71908
772.71885
772.71883
772.71897
772.71926
772.71971
772.72031
772.72107
772.72137
772.71966
772.7196
772.7194
772.7194
772.71956
772.71986
772.72031
772.72092
772.72168
772.72197
772.72019
772.72024
772.7201
772.72013
772.7203
772.72061
772.72107
772.72168
772.72242
772.72269
772.72035
772.72042
772.72036
772.72041
772.72059
772.72091
772.72137
772.72197
772.72269
772.72258
769.37105
769.37094
769.3707
769.37064
769.37072
769.37092
769.37125
769.37168
769.37216
769.37235
769.37094
769.37077
769.37054
769.37049
769.37057
769.37079
769.37113
769.37159
769.37216
769.37237
769.3707
769.37054
769.37033
769.37029
769.37038
769.3706
769.37096
769.37145
769.37207
769.37233
769.37064
769.37049
769.37029
769.37025
769.37036
769.37059
769.37096
769.37147
769.37211
769.3724
769.37072
769.37057
769.37038
769.37036
769.37047
769.37072
769.3711
769.37162
769.37228
769.37257
769.37092
769.37079
769.3706
769.37059
769.37072
769.37098
769.37137
769.3719
769.37256
769.37286
769.37125
769.37113
769.37096
769.37096
769.3711
769.37137
769.37177
769.3723
769.37297
769.37327
769.37168
769.37159
769.37145
769.37147
769.37162
769.3719
769.3723
769.37284
769.37351
769.3738
769.37216
769.37216
769.37207
769.37211
769.37228
769.37256
769.37297
769.37351
769.37417
769.37444
769.37235
769.37237
769.37233
769.3724
769.37257
769.37286
769.37327
769.3738
769.37444
769.3744
766.09966
766.09948
766.09932
766.0993
766.09939
766.09958
766.09987
766.10026
766.10068
766.10089
766.09948
766.0993
766.09915
766.09913
766.09923
766.09943
766.09973
766.10014
766.10064
766.10086
766.09932
766.09915
766.09901
766.09901
766.09911
766.09932
766.09963
766.10006
766.10059
766.10086
766.0993
766.09913
766.09901
766.09901
766.09912
766.09934
766.09966
766.1001
766.10065
766.10093
766.09939
766.09923
766.09911
766.09912
766.09924
766.09946
766.0998
766.10025
766.10081
766.10109
766.09958
766.09943
766.09932
766.09934
766.09946
766.0997
766.10004
766.1005
766.10106
766.10135
766.09987
766.09973
766.09963
766.09966
766.0998
766.10004
766.10039
766.10085
766.10142
766.10171
766.10026
766.10014
766.10006
766.1001
766.10025
766.1005
766.10085
766.10131
766.10188
766.10217
766.10068
766.10064
766.10059
766.10065
766.10081
766.10106
766.10142
766.10188
766.10245
766.10272
766.10089
766.10086
766.10086
766.10093
766.10109
766.10135
766.10171
766.10217
766.10272
766.10275
762.89681
762.89657
762.89649
762.89651
762.89661
762.89679
762.89705
762.89738
762.89775
762.89796
762.89657
762.89638
762.89632
762.89634
762.89644
762.89663
762.89689
762.89723
762.89765
762.8979
762.89649
762.89632
762.89626
762.89629
762.8964
762.89659
762.89686
762.89721
762.89765
762.89792
762.89651
762.89634
762.89629
762.89632
762.89644
762.89663
762.89691
762.89727
762.89773
762.898
762.89661
762.89644
762.8964
762.89644
762.89656
762.89676
762.89705
762.89742
762.89788
762.89815
762.89679
762.89663
762.89659
762.89663
762.89676
762.89697
762.89726
762.89764
762.8981
762.89838
762.89705
762.89689
762.89686
762.89691
762.89705
762.89726
762.89756
762.89793
762.8984
762.89868
762.89738
762.89723
762.89721
762.89727
762.89742
762.89764
762.89793
762.89832
762.89879
762.89907
762.89775
762.89765
762.89765
762.89773
762.89788
762.8981
762.8984
762.89879
762.89925
762.89953
762.89796
762.8979
762.89792
762.898
762.89815
762.89838
762.89868
762.89907
762.89953
762.89962
759.75472
759.75442
759.75443
759.75448
759.75459
759.75476
759.75498
759.75525
759.75556
759.75578
759.75442
759.75423
759.75425
759.7543
759.75442
759.75459
759.75481
759.75509
759.75543
759.75568
759.75443
759.75425
759.75427
759.75433
759.75445
759.75462
759.75484
759.75512
759.75547
759.75573
759.75448
759.7543
759.75433
759.7544
759.75452
759.75469
759.75492
759.75521
759.75556
759.75582
759.75459
759.75442
759.75445
759.75452
759.75464
759.75482
759.75505
759.75534
759.7557
759.75596
759.75476
759.75459
759.75462
759.75469
759.75482
759.755
759.75524
759.75553
759.75589
759.75615
759.75498
759.75481
759.75484
759.75492
759.75505
759.75524
759.75547
759.75577
759.75613
759.75639
759.75525
759.75509
759.75512
759.75521
759.75534
759.75553
759.75577
759.75607
759.75643
759.7567
759.75556
759.75543
759.75547
759.75556
759.7557
759.75589
759.75613
759.75643
759.7568
759.75707
759.75578
759.75568
759.75573
759.75582
759.75596
759.75615
759.75639
759.7567
759.75707
759.75721
756.66585
756.66549
756.66558
756.66568
756.6658
756.66595
756.66612
756.66634
756.66658
756.66681
756.66549
756.66531
756.6654
756.6655
756.66562
756.66577
756.66594
756.66615
756.66641
756.66667
756.66558
756.6654
756.6655
756.66559
756.66572
756.66587
756.66604
756.66625
756.6665
756.66675
756.66568
756.6655
756.66559
756.66569
756.66582
756.66597
756.66615
756.66635
756.6666
756.66684
756.6658
756.66562
756.66572
756.66582
756.66594
756.66609
756.66627
756.66648
756.66673
756.66697
756.66595
756.66577
756.66587
756.66597
756.66609
756.66625
756.66642
756.66663
756.66688
756.66712
756.66612
756.66594
756.66604
756.66615
756.66627
756.66642
756.6666
756.66681
756.66706
756.66731
756.66634
756.66615
756.66625
756.66635
756.66648
756.66663
756.66681
756.66702
756.66728
756.66753
756.66658
756.66641
756.6665
756.6666
756.66673
756.66688
756.66706
756.66728
756.66754
756.6678
756.66681
756.66667
756.66675
756.66684
756.66697
756.66712
756.66731
756.66753
756.6678
756.66799
753.62292
753.62252
753.62269
753.62282
753.62295
753.62308
753.62322
753.62337
753.62355
753.62377
753.62252
753.62234
753.62251
753.62264
753.62277
753.6229
753.62303
753.62317
753.62334
753.6236
753.62269
753.62251
753.62269
753.62282
753.62294
753.62307
753.6232
753.62333
753.62348
753.6237
753.62282
753.62264
753.62282
753.62295
753.62307
753.6232
753.62332
753.62345
753.62359
753.62381
753.62295
753.62277
753.62294
753.62307
753.6232
753.62332
753.62344
753.62356
753.6237
753.62392
753.62308
753.6229
753.62307
753.6232
753.62332
753.62344
753.62356
753.62368
753.62382
753.62403
753.62322
753.62303
753.6232
753.62332
753.62344
753.62356
753.62368
753.6238
753.62394
753.62416
753.62337
753.62317
753.62333
753.62345
753.62356
753.62368
753.6238
753.62392
753.62407
753.62429
753.62355
753.62334
753.62348
753.62359
753.6237
753.62382
753.62394
753.62407
753.62422
753.62446
753.62377
753.6236
753.6237
753.62381
753.62392
753.62403
753.62416
753.62429
753.62446
753.6247
750.61898
750.61853
750.61879
750.61895
750.61909
750.6192
750.61929
750.61938
750.61949
750.61971
750.61853
750.61837
750.61862
750.61878
750.61891
750.61902
750.6191
750.61917
750.61925
750.6195
750.61879
750.61862
750.61886
750.61903
750.61916
750.61926
750.61934
750.61939
750.61943
750.61964
750.61895
750.61878
750.61903
750.61919
750.61931
750.61941
750.61948
750.61952
750.61956
750.61975
750.61909
750.61891
750.61916
750.61931
750.61944
750.61953
750.61959
750.61963
750.61966
750.61984
750.6192
750.61902
750.61926
750.61941
750.61953
750.61962
750.61968
750.61971
750.61973
750.61992
750.61929
750.6191
750.61934
750.61948
750.61959
750.61968
750.61973
750.61976
750.61979
750.61998
750.61938
750.61917
750.61939
750.61952
750.61963
750.61971
750.61976
750.6198
750.61983
750.62002
750.61949
750.61925
750.61943
750.61956
750.61966
750.61973
750.61979
750.61983
750.61987
750.62009
750.61971
750.6195
750.61964
750.61975
750.61984
750.61992
750.61998
750.62002
750.62009
750.62037
747.64737
747.64689
747.64723
747.64743
747.64757
747.64766
747.6477
747.64773
747.64777
747.64798
747.64689
747.64674
747.64706
747.64726
747.6474
747.64748
747.64752
747.64751
747.6475
747.64774
747.64723
747.64706
747.64738
747.64758
747.64771
747.64779
747.64781
747.64778
747.64773
747.64791
747.64743
747.64726
747.64758
747.64777
747.64789
747.64796
747.64798
747.64793
747.64786
747.64802
747.64757
747.6474
747.64771
747.64789
747.64801
747.64807
747.64808
747.64803
747.64794
747.6481
747.64766
747.64748
747.64779
747.64796
747.64807
747.64813
747.64813
747.64807
747.64798
747.64814
747.6477
747.64752
747.64781
747.64798
747.64808
747.64813
747.64812
747.64806
747.64797
747.64813
747.64773
747.64751
747.64778
747.64793
747.64803
747.64807
747.64806
747.648
747.64792
747.64808
747.64777
747.6475
747.64773
747.64786
747.64794
747.64798
747.64797
747.64792
747.64785
747.64804
747.64798
747.64774
747.64791
747.64802
747.6481
747.64814
747.64813
747.64808
747.64804
747.64836
744.7018
744.70129
744.70171
744.70193
744.70208
744.70215
744.70215
744.7021
744.70207
744.70227
744.70129
744.70115
744.70155
744.70178
744.70192
744.70198
744.70196
744.70188
744.70178
744.70201
744.70171
744.70155
744.70194
744.70216
744.7023
744.70235
744.70232
744.70221
744.70205
744.7022
744.70193
744.70178
744.70216
744.70238
744.7025
744.70255
744.7025
744.70238
744.70219
744.70232
744.70208
744.70192
744.7023
744.7025
744.70262
744.70265
744.7026
744.70246
744.70226
744.70238
744.70215
744.70198
744.70235
744.70255
744.70265
744.70267
744.70261
744.70246
744.70226
744.70238
744.70215
744.70196
744.70232
744.7025
744.7026
744.70261
744.70254
744.70239
744.70218
744.7023
744.7021
744.70188
744.70221
744.70238
744.70246
744.70246
744.70239
744.70224
744.70204
744.70217
744.70207
744.70178
744.70205
744.70219
744.70226
744.70226
744.70218
744.70204
744.70186
744.70202
744.70227
744.70201
744.7022
744.70232
744.70238
744.70238
744.7023
744.70217
744.70202
744.70237
741.77631
741.77577
741.77627
741.77653
741.77667
741.77672
741.77668
741.77656
741.77646
741.77665
741.77577
741.77566
741.77613
741.77638
741.77652
741.77656
741.7765
741.77634
741.77615
741.77637
741.77627
741.77613
741.77659
741.77684
741.77697
741.77699
741.77691
741.77672
741.77646
741.77658
741.77653
741.77638
741.77684
741.77708
741.7772
741.77721
741.77711
741.7769
741.77661
741.7767
741.77667
741.77652
741.77697
741.7772
741.77731
741.77731
741.77719
741.77697
741.77666
741.77674
741.77672
741.77656
741.77699
741.77721
741.77731
741.77729
741.77717
741.77693
741.77662
741.7767
741.77668
741.7765
741.77691
741.77711
741.77719
741.77717
741.77704
741.77679
741.77648
741.77656
741.77656
741.77634
741.77672
741.7769
741.77697
741.77693
741.77679
741.77655
741.77624
741.77633
741.77646
741.77615
741.77646
741.77661
741.77666
741.77662
741.77648
741.77624
741.77595
741.77608
741.77665
741.77637
741.77658
741.7767
741.77674
741.7767
741.77656
741.77633
741.77608
741.77645
738.86534
738.86478
738.86535
738.86564
738.86578
738.8658
738.86571
738.86554
738.86536
738.86553
738.86478
738.86469
738.86522
738.86551
738.86565
738.86566
738.86554
738.86532
738.86503
738.86523
738.86535
738.86522
738.86575
738.86602
738.86615
738.86615
738.86601
738.86575
738.86538
738.86546
738.86564
738.86551
738.86602
738.86629
738.8664
738.86638
738.86623
738.86593
738.86553
738.86559
738.86578
738.86565
738.86615
738.8664
738.86651
738.86647
738.8663
738.86599
738.86557
738.86561
738.8658
738.86566
738.86615
738.86638
738.86647
738.86642
738.86624
738.86591
738.86548
738.86552
738.86571
738.86554
738.86601
738.86623
738.8663
738.86624
738.86604
738.86571
738.86528
738.86531
738.86554
738.86532
738.86575
738.86593
738.86599
738.86591
738.86571
738.86538
738.86495
738.865
738.86536
738.86503
738.86538
738.86553
738.86557
738.86548
738.86528
738.86495
738.86455
738.86464
738.86553
738.86523
738.86546
738.86559
738.86561
738.86552
738.86531
738.865
738.86464
738.86503
735.96369
735.96312
735.96376
735.96407
735.96421
735.96421
735.96407
735.96383
735.96358
735.96373
735.96312
735.96305
735.96365
735.96396
735.96409
735.96408
735.96391
735.96361
735.96324
735.96341
735.96376
735.96365
735.96423
735.96453
735.96466
735.96462
735.96443
735.96409
735.96362
735.96367
735.96407
735.96396
735.96453
735.96482
735.96493
735.96488
735.96466
735.96429
735.96378
735.96379
735.96421
735.96409
735.96466
735.96493
735.96502
735.96495
735.96472
735.96432
735.96379
735.96379
735.96421
735.96408
735.96462
735.96488
735.96495
735.96487
735.96462
735.96421
735.96367
735.96366
735.96407
735.96391
735.96443
735.96466
735.96472
735.96462
735.96436
735.96394
735.96339
735.96339
735.96383
735.96361
735.96409
735.96429
735.96432
735.96421
735.96394
735.96352
735.96298
735.96299
735.96358
735.96324
735.96362
735.96378
735.96379
735.96367
735.96339
735.96298
735.96247
735.96253
735.96373
735.96341
735.96367
735.96379
735.96379
735.96366
735.96339
735.96299
735.96253
735.96292
733.06658
733.066
733.0667
733.06704
733.06718
733.06715
733.06696
733.06665
733.06633
733.06646
733.066
733.06596
733.06661
733.06694
733.06707
733.06703
733.06681
733.06644
733.06598
733.06612
733.0667
733.06661
733.06725
733.06757
733.06769
733.06763
733.06738
733.06696
733.06639
733.0664
733.06704
733.06694
733.06757
733.06787
733.06798
733.06789
733.06762
733.06716
733.06655
733.06653
733.06718
733.06707
733.06769
733.06798
733.06806
733.06796
733.06766
733.06718
733.06655
733.06651
733.06715
733.06703
733.06763
733.06789
733.06796
733.06783
733.06752
733.06703
733.06638
733.06633
733.06696
733.06681
733.06738
733.06762
733.06766
733.06752
733.0672
733.06669
733.06604
733.06599
733.06665
733.06644
733.06696
733.06716
733.06718
733.06703
733.06669
733.06618
733.06554
733.0655
733.06633
733.06598
733.06639
733.06655
733.06655
733.06638
733.06604
733.06554
733.06492
733.06494
733.06646
733.06612
733.0664
733.06653
733.06651
733.06633
733.06599
733.0655
733.06494
733.06534
730.16961
730.16903
730.16979
730.17015
730.17028
730.17023
730.16999
730.16962
730.16922
730.16933
730.16903
730.16902
730.16973
730.17007
730.1702
730.17012
730.16986
730.16941
730.16886
730.16898
730.16979
730.16973
730.17042
730.17075
730.17086
730.17077
730.17047
730.16997
730.16931
730.16927
730.17015
730.17007
730.17075
730.17107
730.17116
730.17104
730.17072
730.17018
730.16947
730.1694
730.17028
730.1702
730.17086
730.17116
730.17124
730.1711
730.17074
730.17018
730.16944
730.16935
730.17023
730.17012
730.17077
730.17104
730.1711
730.17093
730.17056
730.16998
730.16923
730.16913
730.16999
730.16986
730.17047
730.17072
730.17074
730.17056
730.17018
730.16959
730.16883
730.16873
730.16962
730.16941
730.16997
730.17018
730.17018
730.16998
730.16959
730.16899
730.16824
730.16816
730.16922
730.16886
730.16931
730.16947
730.16944
730.16923
730.16883
730.16824
730.16752
730.16749
730.16933
730.16898
730.16927
730.1694
730.16935
730.16913
730.16873
730.16816
730.16749
730.1679
727.26883
727.26825
727.26906
727.26943
727.26956
727.26947
727.26919
727.26875
727.26829
727.26836
727.26825
727.26826
727.26902
727.26938
727.26949
727.26939
727.26907
727.26856
727.26792
727.26801
727.26906
727.26902
727.26975
727.2701
727.2702
727.27007
727.26972
727.26915
727.26839
727.26831
727.26943
727.26938
727.2701
727.27043
727.27051
727.27036
727.26997
727.26936
727.26855
727.26843
727.26956