/*--------------------------------*- C++ -*----------------------------------*\
| =========                 |                                                 |
| \\      /  F ield         | OpenFOAM: The Open Source CFD Toolbox           |
|  \\    /   O peration     | Version:  v2106                                 |
|   \\  /    A nd           | Website:  www.openfoam.com                      |
|    \\/     M anipulation  |                                                 |
\*---------------------------------------------------------------------------*/
FoamFile
{
    version     2.0;
    format      ascii;
    arch        "LSB;label=32;scalar=64";
    class       volScalarField;
    location    "55";
    object      laplacianT;
}
// * * * * * * * * * * * * * * * * * * * * * * * * * * * * * * * * * * * * * //

dimensions      [0 -2 0 1 0 0 0];

internalField   nonuniform List<scalar> 
4000
(
40513.667
40513.398
40513.548
40513.482
40513.461
40513.456
40513.463
40513.475
40513.485
40513.478
40513.398
40513.436
40513.469
40513.411
40513.392
40513.388
40513.396
40513.412
40513.422
40513.41
40513.548
40513.469
40513.52
40513.463
40513.445
40513.443
40513.454
40513.476
40513.494
40513.468
40513.482
40513.411
40513.463
40513.408
40513.391
40513.391
40513.405
40513.429
40513.454
40513.437
40513.461
40513.392
40513.445
40513.391
40513.376
40513.377
40513.393
40513.42
40513.446
40513.431
40513.456
40513.388
40513.443
40513.391
40513.377
40513.381
40513.398
40513.426
40513.454
40513.439
40513.463
40513.396
40513.454
40513.405
40513.393
40513.398
40513.417
40513.446
40513.474
40513.459
40513.475
40513.412
40513.476
40513.429
40513.42
40513.426
40513.446
40513.475
40513.503
40513.487
40513.485
40513.422
40513.494
40513.454
40513.446
40513.454
40513.474
40513.503
40513.528
40513.511
40513.478
40513.41
40513.468
40513.437
40513.431
40513.439
40513.459
40513.487
40513.511
40513.489
-520.31877
-521.61244
-520.84462
-520.91766
-520.91983
-520.91971
-520.92036
-520.92271
-520.93133
-520.92684
-521.61244
-521.78084
-521.35079
-521.40677
-521.4081
-521.40843
-521.4116
-521.4261
-521.48361
-521.35611
-520.84462
-521.35079
-520.8912
-520.94446
-520.94554
-520.94545
-520.9469
-520.95822
-521.03455
-521.05398
-520.91766
-521.40677
-520.94446
-520.99746
-520.99862
-520.9987
-521.00013
-521.00901
-521.0748
-521.07318
-520.91983
-521.4081
-520.94554
-520.99862
-520.99985
-521.00005
-521.00184
-521.01155
-521.07835
-521.07598
-520.91971
-521.40843
-520.94545
-520.9987
-521.00005
-521.00029
-521.00213
-521.01193
-521.07898
-521.07681
-520.92036
-521.4116
-520.9469
-521.00013
-521.00184
-521.00213
-521.00401
-521.01387
-521.08103
-521.07908
-520.92271
-521.4261
-520.95822
-521.00901
-521.01155
-521.01193
-521.01387
-521.02385
-521.09134
-521.09014
-520.93133
-521.48361
-521.03455
-521.0748
-521.07835
-521.07898
-521.08103
-521.09134
-521.16
-521.16096
-520.92684
-521.35611
-521.05398
-521.07318
-521.07598
-521.07681
-521.07908
-521.09014
-521.16096
-521.1474
-501.22412
-502.86758
-501.82438
-501.92245
-501.92653
-501.92688
-501.92955
-501.94108
-501.98663
-501.78001
-502.86758
-503.03538
-502.43699
-502.51371
-502.51647
-502.51711
-502.52293
-502.5579
-502.74381
-502.38928
-501.82438
-502.43699
-501.803
-501.87606
-501.87849
-501.87847
-501.88087
-501.9057
-502.11386
-501.98368
-501.92245
-502.51371
-501.87606
-501.94873
-501.95125
-501.95156
-501.95418
-501.97537
-502.16724
-502.00736
-501.92653
-502.51647
-501.87849
-501.95125
-501.95384
-501.95431
-501.95747
-501.97983
-502.17291
-502.01127
-501.92688
-502.51711
-501.87847
-501.95156
-501.95431
-501.95483
-501.95804
-501.98056
-502.17405
-502.01262
-501.92955
-502.52293
-501.88087
-501.95418
-501.95747
-501.95804
-501.96134
-501.98398
-502.17778
-502.01699
-501.94108
-502.5579
-501.9057
-501.97537
-501.97983
-501.98056
-501.98398
-502.00701
-502.20199
-502.04424
-501.98663
-502.74381
-502.11386
-502.16724
-502.17291
-502.17405
-502.17778
-502.20199
-502.40137
-502.2552
-501.78001
-502.38928
-501.98368
-502.00736
-502.01127
-502.01262
-502.01699
-502.04424
-502.2552
-501.90211
-482.77099
-484.79023
-483.4879
-483.60889
-483.61475
-483.61543
-483.61979
-483.64321
-483.76265
-483.43392
-484.79023
-485.00801
-484.24802
-484.34385
-484.348
-484.34878
-484.35597
-484.40799
-484.74719
-484.19865
-483.4879
-484.24802
-483.44684
-483.53814
-483.54188
-483.54192
-483.54463
-483.581
-483.94963
-483.69965
-483.60889
-484.34385
-483.53814
-483.62892
-483.63276
-483.63326
-483.6364
-483.66775
-484.01471
-483.72767
-483.61475
-484.348
-483.54188
-483.63276
-483.63669
-483.63737
-483.64122
-483.67405
-484.02233
-483.73264
-483.61543
-484.34878
-483.54192
-483.63326
-483.63737
-483.63809
-483.64203
-483.67507
-484.02389
-483.73441
-483.61979
-484.35597
-483.54463
-483.6364
-483.64122
-483.64203
-483.64605
-483.67928
-484.02863
-483.74036
-483.64321
-484.40799
-483.581
-483.66775
-483.67405
-483.67507
-483.67928
-483.7132
-484.06505
-483.78458
-483.76265
-484.74719
-483.94963
-484.01471
-484.02233
-484.02389
-484.02863
-484.06505
-484.42814
-484.1917
-483.43392
-484.19865
-483.69965
-483.72767
-483.73264
-483.73441
-483.74036
-483.78458
-484.1917
-483.4468
-465.14176
-467.51647
-465.96693
-466.10975
-466.11735
-466.11827
-466.12367
-466.15587
-466.34498
-465.90705
-467.51647
-467.78032
-466.86594
-466.97999
-466.98551
-466.98651
-466.99488
-467.06115
-467.54933
-466.81638
-465.96693
-466.86594
-465.90504
-466.01373
-466.01875
-466.01891
-466.02178
-466.06705
-466.59282
-466.22913
-466.10975
-466.97999
-466.01373
-466.12179
-466.12692
-466.12764
-466.13113
-466.16998
-466.66902
-466.26132
-466.11735
-466.98551
-466.01875
-466.12692
-466.13215
-466.13309
-466.13746
-466.17806
-466.6785
-466.26733
-466.11827
-466.98651
-466.01891
-466.12764
-466.13309
-466.13406
-466.13853
-466.1794
-466.6805
-466.2695
-466.12367
-466.99488
-466.02178
-466.13113
-466.13746
-466.13853
-466.14311
-466.18418
-466.68593
-466.27654
-466.15587
-467.06115
-466.06705
-466.16998
-466.17806
-466.1794
-466.18418
-466.22612
-466.73137
-466.33442
-466.34498
-467.54933
-466.59282
-466.66902
-466.6785
-466.6805
-466.68593
-466.73137
-467.25454
-466.94498
-465.90705
-466.81638
-466.22913
-466.26132
-466.26733
-466.2695
-466.27654
-466.33442
-466.94498
-465.81123
-448.35686
-451.05991
-449.27713
-449.44076
-449.45005
-449.45129
-449.45781
-449.49829
-449.75429
-449.21508
-451.05991
-451.36177
-450.30185
-450.43327
-450.44012
-450.44139
-450.45102
-450.5308
-451.16309
-450.25856
-449.27713
-450.30185
-449.19036
-449.31563
-449.32191
-449.32223
-449.32536
-449.37887
-450.05677
-449.58838
-449.44076
-450.43327
-449.31563
-449.44015
-449.44655
-449.44753
-449.45148
-449.49719
-450.14356
-449.62454
-449.45005
-450.44012
-449.32191
-449.44655
-449.45305
-449.45428
-449.45928
-449.50698
-450.15485
-449.63158
-449.45129
-450.44139
-449.32223
-449.44753
-449.45428
-449.45555
-449.46067
-449.50868
-450.15731
-449.63418
-449.45781
-450.45102
-449.32536
-449.45148
-449.45928
-449.46067
-449.4659
-449.51415
-450.16354
-449.6423
-449.49829
-450.5308
-449.37887
-449.49719
-449.50698
-449.50868
-449.51415
-449.56341
-450.21709
-449.7123
-449.75429
-451.16309
-450.05677
-450.14356
-450.15485
-450.15731
-450.16354
-450.21709
-450.89446
-450.52262
-449.21508
-450.25856
-449.58838
-449.62454
-449.63158
-449.63418
-449.6423
-449.7123
-450.52262
-449.01585
-432.431
-435.43395
-433.4333
-433.6166
-433.62751
-433.62907
-433.63672
-433.68514
-434.0055
-433.37302
-435.43395
-435.76608
-434.57033
-434.71819
-434.72632
-434.72786
-434.73871
-434.83132
-435.6019
-434.53979
-433.4333
-434.57033
-433.3183
-433.45926
-433.46674
-433.46723
-433.47063
-433.53185
-434.3556
-433.79245
-433.6166
-434.71819
-433.45926
-433.59935
-433.60697
-433.60822
-433.61263
-433.66471
-434.45241
-433.83236
-433.62751
-434.72632
-433.46674
-433.60697
-433.6147
-433.61622
-433.62185
-433.67616
-434.46543
-433.8404
-433.62907
-434.72786
-433.46723
-433.60822
-433.61622
-433.61778
-433.62354
-433.67821
-434.46835
-433.84343
-433.63672
-434.73871
-433.47063
-433.61263
-433.62185
-433.62354
-433.62943
-433.68437
-434.47537
-433.85262
-433.68514
-434.83132
-433.53185
-433.66471
-433.67616
-433.67821
-433.68437
-433.74046
-434.53651
-433.93387
-434.0055
-435.6019
-434.3556
-434.45241
-434.46543
-434.46835
-434.47537
-434.53651
-435.36155
-434.93703
-433.37302
-434.53979
-433.79245
-433.83236
-433.8404
-433.84343
-433.85262
-433.93387
-434.93703
-433.07746
-417.37711
-420.65045
-418.44844
-418.65016
-418.66262
-418.6645
-418.67321
-418.72919
-419.11107
-418.39354
-420.65045
-421.0054
-419.68424
-419.84749
-419.85686
-419.85865
-419.87065
-419.97533
-420.87751
-419.67229
-418.44844
-419.68424
-418.30242
-418.45808
-418.46672
-418.46738
-418.47102
-418.53941
-419.50176
-418.85398
-418.65016
-419.84749
-418.45808
-418.61276
-418.62155
-418.62306
-418.62792
-418.6859
-419.60793
-418.89739
-418.66262
-419.85686
-418.46672
-418.62155
-418.63045
-418.63226
-418.63848
-418.69892
-419.62261
-418.90636
-418.6645
-419.85865
-418.46738
-418.62306
-418.63226
-418.6341
-418.64048
-418.70131
-419.62597
-418.90982
-418.67321
-419.87065
-418.47102
-418.62792
-418.63848
-418.64048
-418.64699
-418.70813
-419.63375
-418.92004
-418.72919
-419.97533
-418.53941
-418.6859
-418.69892
-418.70131
-418.70813
-418.77056
-419.70194
-419.01178
-419.11107
-420.87751
-419.50176
-419.60793
-419.62261
-419.62597
-419.63375
-419.70194
-420.66732
-420.19923
-418.39354
-419.67229
-418.85398
-418.89739
-418.90636
-418.90982
-418.92004
-419.01178
-420.19923
-418.00923
-403.2046
-406.71798
-404.33214
-404.5509
-404.56481
-404.567
-404.57673
-404.63983
-405.08003
-404.2859
-406.71798
-407.08865
-405.65308
-405.83061
-405.84113
-405.84318
-405.85624
-405.97215
-406.99847
-405.66496
-404.33214
-405.65308
-404.15287
-404.32214
-404.33188
-404.33271
-404.33658
-404.41155
-405.50443
-404.78219
-404.5509
-405.83061
-404.32214
-404.49035
-404.50024
-404.50201
-404.50727
-404.57066
-405.61926
-404.82882
-404.56481
-405.84113
-404.33188
-404.50024
-404.51024
-404.51233
-404.51912
-404.58516
-405.63549
-404.83868
-404.567
-405.84318
-404.33271
-404.50201
-404.51233
-404.51446
-404.52141
-404.58789
-405.63928
-404.84254
-404.57673
-405.85624
-404.33658
-404.50727
-404.51912
-404.52141
-404.52851
-404.59532
-405.64777
-404.85374
-404.63983
-405.97215
-404.41155
-404.57066
-404.58516
-404.58789
-404.59532
-404.66356
-405.72246
-404.9552
-405.08003
-406.99847
-405.50443
-405.61926
-405.63549
-405.63928
-405.64777
-405.72246
-406.82006
-406.31716
-404.2859
-405.66496
-404.78219
-404.82882
-404.83868
-404.84254
-404.85374
-404.9552
-406.31716
-403.82066
-389.91917
-393.64165
-391.09037
-391.3247
-391.33997
-391.34246
-391.35313
-391.42287
-391.91785
-391.05574
-393.64165
-394.02137
-392.4829
-392.67347
-392.68508
-392.68737
-392.7014
-392.82764
-393.96993
-392.52317
-391.09037
-392.4829
-390.8762
-391.05792
-391.06869
-391.06968
-391.07375
-391.15469
-392.3693
-391.58274
-391.3247
-392.67347
-391.05792
-391.23849
-391.24942
-391.25144
-391.25708
-391.32534
-392.49203
-391.6323
-391.33997
-392.68508
-391.06869
-391.24942
-391.26046
-391.26282
-391.27012
-391.34123
-392.50972
-391.64299
-391.34246
-392.68737
-391.06968
-391.25144
-391.26282
-391.26521
-391.27269
-391.34429
-392.51391
-391.64723
-391.35313
-392.7014
-391.07375
-391.25708
-391.27012
-391.27269
-391.28032
-391.35227
-392.52305
-391.65932
-391.42287
-392.82764
-391.15469
-391.32534
-391.34123
-391.34429
-391.35227
-391.42577
-392.60364
-391.76971
-391.91785
-393.96993
-392.3693
-392.49203
-392.50972
-392.51391
-392.52305
-392.60364
-393.82461
-393.29537
-391.05574
-392.52317
-391.58274
-391.6323
-391.64299
-391.64723
-391.65932
-391.76971
-393.29537
-390.51756
-377.52281
-381.42309
-378.7255
-378.97383
-378.99036
-378.99313
-379.00467
-379.08053
-379.62644
-378.70509
-381.42309
-381.80564
-380.17618
-380.37851
-380.39112
-380.39365
-380.40854
-380.54417
-381.79361
-380.24873
-378.7255
-380.17618
-378.47535
-378.66829
-378.68001
-378.68117
-378.68541
-378.77168
-380.09857
-379.2577
-378.97383
-380.37851
-378.66829
-378.85999
-378.87188
-378.87414
-378.88012
-378.95273
-380.22839
-379.30988
-378.99036
-380.39112
-378.68001
-378.87188
-378.88388
-378.8865
-378.89426
-378.96989
-380.2474
-379.32132
-378.99313
-380.39365
-378.68117
-378.87414
-378.8865
-378.88915
-378.8971
-378.97325
-380.25198
-379.32592
-379.00467
-380.40854
-378.68541
-378.88012
-378.89426
-378.8971
-378.90522
-378.98174
-380.26171
-379.33882
-379.08053
-380.54417
-378.77168
-378.95273
-378.96989
-378.97325
-378.98174
-379.05992
-380.34756
-379.45728
-379.62644
-381.79361
-380.09857
-380.22839
-380.2474
-380.25198
-380.26171
-380.34756
-381.68241
-381.13493
-378.70509
-380.24873
-379.2577
-379.30988
-379.32132
-379.32592
-379.33882
-379.45728
-381.13493
-378.10201
-366.01385
-370.06047
-367.23631
-367.49697
-367.51464
-367.51768
-367.53001
-367.61144
-368.20416
-367.23233
-370.06047
-370.44013
-368.73195
-368.94466
-368.9582
-368.96094
-368.97659
-369.12061
-370.46782
-368.83994
-367.23631
-368.73195
-366.94969
-367.15254
-367.16513
-367.16645
-367.17082
-367.26177
-368.6909
-367.80555
-367.49697
-368.94466
-367.15254
-367.35409
-367.36685
-367.36934
-367.37562
-367.452
-368.82695
-367.86001
-367.51464
-368.9582
-367.16513
-367.36685
-367.37973
-367.38259
-367.39077
-367.47032
-368.84717
-367.87213
-367.51768
-368.96094
-367.16645
-367.36934
-367.38259
-367.38548
-367.39386
-367.47396
-368.8521
-367.87707
-367.53001
-368.97659
-367.17082
-367.37562
-367.39077
-367.39386
-367.40241
-367.4829
-368.86236
-367.89068
-367.61144
-369.12061
-367.26177
-367.452
-367.47032
-367.47396
-367.4829
-367.56518
-368.95283
-368.01634
-368.20416
-370.46782
-368.6909
-368.82695
-368.84717
-368.8521
-368.86236
-368.95283
-370.39144
-369.83341
-367.23233
-368.83994
-367.80555
-367.86001
-367.87213
-367.87707
-367.89068
-368.01634
-369.83341
-366.57242
-355.38696
-359.54857
-356.618
-356.88928
-356.90797
-356.91126
-356.92429
-357.0107
-357.64585
-356.63229
-359.54857
-359.92016
-358.14573
-358.36741
-358.38177
-358.38471
-358.40102
-358.55239
-359.9875
-358.29161
-356.618
-358.14573
-356.295
-356.50641
-356.51979
-356.52126
-356.52573
-356.62068
-358.14151
-357.22124
-356.88928
-358.36741
-356.50641
-356.71645
-356.73
-356.73271
-356.73924
-356.81883
-358.28291
-357.27763
-356.90797
-358.38177
-356.51979
-356.73
-356.74367
-356.74676
-356.75529
-356.83819
-358.3042
-357.29036
-356.91126
-358.38471
-356.52126
-356.73271
-356.74676
-356.74988
-356.75862
-356.84209
-358.30945
-357.29559
-356.92429
-358.40102
-356.52573
-356.73924
-356.75529
-356.75862
-356.76754
-356.85142
-358.32017
-357.30984
-357.0107
-358.55239
-356.62068
-356.81883
-356.83819
-356.84209
-356.85142
-356.93717
-358.41459
-357.44177
-357.64585
-359.9875
-358.14151
-358.28291
-358.3042
-358.30945
-358.32017
-358.41459
-359.94635
-359.38499
-356.63229
-358.29161
-357.22124
-357.27763
-357.29036
-357.29559
-357.30984
-357.44177
-359.38499
-355.92356
-345.63328
-349.87881
-346.8623
-347.14242
-347.16201
-347.16552
-347.17917
-347.26994
-347.94295
-346.89632
-349.87881
-350.23769
-348.40966
-348.63885
-348.65394
-348.65706
-348.6739
-348.83156
-350.34427
-348.59513
-346.8623
-348.40966
-346.50358
-346.72216
-346.73623
-346.73784
-346.74239
-346.84064
-348.44222
-347.49625
-347.14242
-348.63885
-346.72216
-346.9393
-346.95355
-346.95646
-346.96319
-347.04541
-348.58803
-347.55421
-347.16201
-348.65394
-346.73623
-346.95355
-346.96791
-346.97121
-346.98004
-347.06568
-348.61026
-347.56747
-347.16552
-348.65706
-346.73784
-346.95646
-346.97121
-346.97453
-346.98357
-347.06981
-348.6158
-347.57297
-347.17917
-348.6739
-346.74239
-346.96319
-346.98004
-346.98357
-346.99281
-347.07947
-348.6269
-347.58775
-347.26994
-348.83156
-346.84064
-347.04541
-347.06568
-347.06981
-347.07947
-347.16808
-348.72459
-347.72501
-347.94295
-350.34427
-348.44222
-348.58803
-348.61026
-348.6158
-348.6269
-348.72459
-350.33846
-349.78047
-346.89632
-348.59513
-347.49625
-347.55421
-347.56747
-347.57297
-347.58775
-347.72501
-349.78047
-346.14665
-336.74048
-341.03934
-337.95755
-338.24467
-338.26502
-338.26874
-338.28291
-338.37742
-339.08352
-338.01234
-341.03934
-341.38146
-339.51254
-339.74774
-339.76345
-339.76673
-339.784
-339.94684
-341.52651
-339.73859
-337.95755
-339.51254
-337.56432
-337.78863
-337.80329
-337.80504
-337.80963
-337.91048
-339.5815
-338.61868
-338.24467
-339.74774
-337.78863
-338.01145
-338.0263
-338.02938
-338.03629
-338.12054
-339.7308
-338.67786
-338.26502
-339.76345
-337.80329
-338.0263
-338.04126
-338.04475
-338.05381
-338.14158
-339.75382
-338.69155
-338.26874
-339.76673
-337.80504
-338.02938
-338.04475
-338.04824
-338.05754
-338.14593
-339.75962
-338.69728
-338.28291
-339.784
-337.80963
-338.03629
-338.05381
-338.05754
-338.06702
-338.15584
-339.77102
-338.7125
-338.37742
-339.94684
-337.91048
-338.12054
-338.14158
-338.14593
-338.15584
-338.24669
-339.87129
-338.85412
-339.08352
-341.52651
-339.5815
-339.7308
-339.75382
-339.75962
-339.77102
-339.87129
-341.55587
-341.00739
-338.01234
-339.73859
-338.61868
-338.67786
-338.69155
-338.69728
-338.7125
-338.85412
-341.00739
-337.22945
-328.69291
-333.01517
-329.88877
-330.18104
-330.20202
-330.20592
-330.22053
-330.31812
-331.0524
-329.965
-333.01517
-333.33709
-331.43996
-331.67963
-331.69586
-331.69928
-331.71687
-331.88379
-333.51951
-331.70682
-329.88877
-331.43996
-329.46279
-329.69137
-329.70653
-329.70841
-329.713
-329.81577
-331.54465
-330.57339
-330.18104
-331.67963
-329.69137
-329.91842
-329.93377
-329.93701
-329.94404
-330.02975
-331.69647
-330.63339
-330.20202
-331.69586
-329.70653
-329.93377
-329.94923
-329.95288
-329.96213
-330.05142
-331.72014
-330.64744
-330.20592
-331.69928
-329.70841
-329.93701
-329.95288
-329.95654
-329.96602
-330.05595
-331.72615
-330.65337
-330.22053
-331.71687
-329.713
-329.94404
-329.96213
-329.96602
-329.97569
-330.06606
-331.73779
-330.66892
-330.31812
-331.88379
-329.81577
-330.02975
-330.05142
-330.05595
-330.06606
-330.15851
-331.83995
-330.81393
-331.0524
-333.51951
-331.54465
-331.69647
-331.72014
-331.72615
-331.73779
-331.83995
-333.58357
-333.05015
-329.965
-331.70682
-330.57339
-330.63339
-330.64744
-330.65337
-330.66892
-330.81393
-333.05015
-329.15639
-321.47169
-325.78828
-322.63786
-322.93339
-322.95487
-322.95892
-322.97386
-323.07389
-323.83132
-322.73578
-325.78828
-326.08714
-324.17441
-324.417
-324.43365
-324.43718
-324.45496
-324.62484
-326.30551
-324.48161
-322.63786
-324.17441
-322.18139
-322.41276
-322.42833
-322.43031
-322.43488
-322.53886
-324.31386
-323.34208
-322.93339
-324.417
-322.41276
-322.64257
-322.65832
-322.66171
-322.66881
-322.75539
-324.46723
-323.40253
-322.95487
-324.43365
-322.42833
-322.65832
-322.67418
-322.67798
-322.68735
-322.77756
-324.49139
-323.41684
-322.95892
-324.43718
-322.43031
-322.66171
-322.67798
-322.68176
-322.69137
-322.78223
-324.49757
-323.42292
-322.97386
-324.45496
-322.43488
-322.66881
-322.68735
-322.69137
-322.70117
-322.79248
-324.50937
-323.4387
-323.07389
-324.62484
-322.53886
-322.75539
-322.77756
-322.78223
-322.79248
-322.8859
-324.61273
-323.58613
-323.83132
-326.30551
-324.31386
-324.46723
-324.49139
-324.49757
-324.50937
-324.61273
-326.40353
-325.89013
-322.73578
-324.48161
-323.34208
-323.40253
-323.41684
-323.42292
-323.4387
-323.58613
-325.89013
-321.90867
-315.05492
-319.33777
-316.18367
-316.48059
-316.50242
-316.5066
-316.52178
-316.62357
-317.39907
-316.30318
-319.33777
-319.61131
-317.6954
-317.93937
-317.95632
-317.95995
-317.97781
-318.14952
-319.86391
-318.04177
-316.18367
-317.6954
-315.69946
-315.93214
-315.94801
-315.95009
-315.95461
-316.05911
-317.86837
-316.90346
-316.48059
-317.93937
-315.93214
-316.16325
-316.1793
-316.1828
-316.18993
-316.27681
-318.02232
-316.96398
-316.50242
-317.95632
-315.94801
-316.1793
-316.19546
-316.19936
-316.2088
-316.29933
-318.04681
-316.97846
-316.5066
-317.95995
-315.95009
-316.1828
-316.19936
-316.20327
-316.21294
-316.30412
-318.05314
-316.98466
-316.52178
-317.97781
-315.95461
-316.18993
-316.2088
-316.21294
-316.2228
-316.31444
-318.06502
-317.00058
-316.62357
-318.14952
-316.05911
-316.27681
-316.29933
-316.30412
-316.31444
-316.40821
-318.16889
-317.14944
-317.39907
-319.86391
-317.86837
-318.02232
-318.04681
-318.05314
-318.06502
-318.16889
-319.99489
-319.50583
-316.30318
-318.04177
-316.90346
-316.96398
-316.97846
-316.98466
-317.00058
-317.14944
-319.50583
-315.46447
-309.41782
-313.64001
-310.50224
-310.79866
-310.82071
-310.82498
-310.84029
-310.94319
-311.73162
-310.64283
-313.64001
-313.88656
-311.97965
-312.22345
-312.2406
-312.2443
-312.26212
-312.43456
-314.17139
-312.36335
-310.50224
-311.97965
-309.99348
-310.22599
-310.24206
-310.24423
-310.24867
-310.35301
-312.18464
-311.23345
-310.79866
-312.22345
-310.22599
-310.45693
-310.47318
-310.47678
-310.48389
-310.57049
-312.3382
-311.29366
-310.82071
-312.2406
-310.24206
-310.47318
-310.48953
-310.49352
-310.50296
-310.59322
-312.36286
-311.30822
-310.82498
-312.2443
-310.24423
-310.47678
-310.49352
-310.49751
-310.50718
-310.5981
-312.36929
-311.3145
-310.84029
-312.26212
-310.24867
-310.48389
-310.50296
-310.50718
-310.51705
-310.60842
-312.38118
-311.33044
-310.94319
-312.43456
-310.35301
-310.57049
-310.59322
-310.5981
-310.60842
-310.70194
-312.48489
-311.47976
-311.73162
-314.17139
-312.18464
-312.3382
-312.36286
-312.36929
-312.38118
-312.48489
-314.33408
-313.87304
-310.64283
-312.36335
-311.23345
-311.29366
-311.30822
-311.3145
-311.33044
-311.47976
-313.87304
-309.79909
-304.53292
-308.6688
-305.56691
-305.86096
-305.88308
-305.88743
-305.90278
-306.00611
-306.80234
-305.72772
-308.6688
-308.88731
-307.00125
-307.24334
-307.26059
-307.26433
-307.28201
-307.45406
-309.2021
-307.41981
-305.56691
-307.00125
-305.0372
-305.26809
-305.28426
-305.28649
-305.29083
-305.39435
-307.23651
-306.30529
-305.86096
-307.24334
-305.26809
-305.4974
-305.51374
-305.51741
-305.52446
-305.61025
-307.3887
-306.36481
-305.88308
-307.26059
-305.28426
-305.51374
-305.53018
-305.53424
-305.54362
-305.63304
-307.41339
-306.37935
-305.88743
-307.26433
-305.28649
-305.51741
-305.53424
-305.53829
-305.5479
-305.63798
-307.41987
-306.38567
-305.90278
-307.28201
-305.29083
-305.52446
-305.54362
-305.5479
-305.55771
-305.64823
-307.4317
-306.40154
-306.00611
-307.45406
-305.39435
-305.61025
-305.63304
-305.63798
-305.64823
-305.7409
-307.53458
-306.55037
-306.80234
-309.2021
-307.23651
-307.3887
-307.41339
-307.41987
-307.4317
-307.53458
-309.395
-308.96504
-305.72772
-307.41981
-306.30529
-306.36481
-306.37935
-306.38567
-306.40154
-306.55037
-308.96504
-304.88512
-300.37026
-304.39561
-301.34854
-301.63839
-301.66046
-301.66484
-301.68013
-301.78324
-302.58214
-301.52839
-304.39561
-304.58555
-302.73183
-302.97071
-302.98794
-302.9917
-303.00912
-303.1797
-304.9278
-303.18217
-301.34854
-302.73183
-300.80186
-301.02968
-301.04585
-301.04814
-301.05234
-301.15439
-302.99537
-302.08979
-301.63839
-302.97071
-301.02968
-301.25595
-301.27228
-301.27599
-301.28294
-301.36737
-303.14526
-302.14825
-301.66046
-302.98794
-301.04585
-301.27228
-301.2887
-301.2928
-301.30206
-301.39008
-303.16981
-302.16269
-301.66484
-302.9917
-301.04814
-301.27599
-301.2928
-301.29688
-301.30638
-301.39505
-303.17631
-302.16901
-301.68013
-303.00912
-301.05234
-301.28294
-301.30206
-301.30638
-301.31606
-301.40518
-303.18799
-302.1847
-301.78324
-303.1797
-301.15439
-301.36737
-301.39008
-301.39505
-301.40518
-301.49642
-303.28941
-302.3321
-302.58214
-304.9278
-302.99537
-303.14526
-303.16981
-303.17631
-303.18799
-303.28941
-305.14921
-304.75272
-301.52839
-303.18217
-302.08979
-302.14825
-302.16269
-302.16901
-302.1847
-302.3321
-304.75272
-300.69268
-296.89761
-300.7897
-297.81573
-298.09958
-298.12145
-298.12585
-298.14098
-298.24321
-299.03972
-298.0131
-300.7897
-300.95112
-299.14076
-299.37495
-299.39205
-299.39581
-299.41286
-299.58092
-301.3181
-299.61925
-297.81573
-299.14076
-297.25638
-297.47973
-297.49579
-297.49812
-297.50217
-297.60213
-299.43039
-298.5555
-298.09958
-299.37495
-297.47973
-297.70155
-297.71776
-297.7215
-297.7283
-297.81086
-299.57704
-298.61254
-298.12145
-299.39205
-297.49579
-297.71776
-297.73407
-297.73818
-297.74727
-297.83335
-299.60131
-298.62678
-298.12585
-299.39581
-297.49812
-297.7215
-297.73818
-297.74227
-297.75159
-297.83832
-299.60778
-298.63305
-298.14098
-299.41286
-297.50217
-297.7283
-297.74727
-297.75159
-297.7611
-297.84825
-299.61926
-298.64848
-298.24321
-299.58092
-297.60213
-297.81086
-297.83335
-297.83832
-297.84825
-297.93751
-299.71858
-298.79353
-299.03972
-301.3181
-299.43039
-299.57704
-299.60131
-299.60778
-299.61926
-299.71858
-301.56611
-301.20486
-298.0131
-299.61925
-298.5555
-298.61254
-298.62678
-298.63305
-298.64848
-298.79353
-301.20486
-297.1896
-294.08066
-297.81838
-294.935
-295.2111
-295.23263
-295.23702
-295.2519
-295.35262
-296.14177
-295.14805
-297.81838
-297.95182
-296.19536
-296.42342
-296.44029
-296.44402
-296.4606
-296.62511
-298.34061
-296.69785
-294.935
-296.19536
-294.36756
-294.58507
-294.60093
-294.60328
-294.60715
-294.70442
-296.5087
-295.66892
-295.2111
-296.42342
-294.58507
-294.80107
-294.81708
-294.82082
-294.82743
-294.90762
-296.65121
-295.72418
-295.23263
-296.44029
-294.60093
-294.81708
-294.83317
-294.83727
-294.84613
-294.92976
-296.67504
-295.73813
-295.23702
-296.44402
-294.60328
-294.82082
-294.83727
-294.84134
-294.85043
-294.93469
-296.68145
-295.74433
-295.2519
-296.4606
-294.60715
-294.82743
-294.84613
-294.85043
-294.85969
-294.94438
-296.69264
-295.75939
-295.35262
-296.62511
-294.70442
-294.90762
-294.92976
-294.93469
-294.94438
-295.03112
-296.78928
-295.9012
-296.14177
-298.34061
-296.5087
-296.65121
-296.67504
-296.68145
-296.69264
-296.78928
-298.61313
-298.28827
-295.14805
-296.69785
-295.66892
-295.72418
-295.73813
-295.74433
-295.75939
-295.9012
-298.28827
-294.34164
-291.88326
-295.44716
-292.67099
-292.93766
-292.95873
-292.96307
-292.97761
-293.0762
-293.85313
-292.89764
-295.44716
-295.55368
-293.86109
-294.08164
-294.09818
-294.10186
-294.11787
-294.27783
-295.9612
-294.38299
-292.67099
-293.86109
-292.10029
-292.31064
-292.3262
-292.32856
-292.33223
-292.42625
-294.19559
-293.39474
-292.93766
-294.08164
-292.31064
-292.51952
-292.53522
-292.53893
-292.54532
-292.62268
-294.33309
-293.44787
-292.95873
-294.09818
-292.3262
-292.53522
-292.551
-292.55505
-292.56363
-292.64432
-294.35634
-293.46145
-292.96307
-294.10186
-292.32856
-292.53893
-292.55505
-292.55908
-292.56788
-292.64919
-294.36264
-293.46753
-292.97761
-294.11787
-292.33223
-292.54532
-292.56363
-292.56788
-292.57685
-292.65857
-294.37348
-293.48213
-293.0762
-294.27783
-292.42625
-292.62268
-292.64432
-292.64919
-292.65857
-292.74228
-294.46687
-293.61987
-293.85313
-295.9612
-294.19559
-294.33309
-294.35634
-294.36264
-294.37348
-294.46687
-296.25596
-295.96806
-292.89764
-294.38299
-293.39474
-293.44787
-293.46145
-293.46753
-293.48213
-293.61987
-295.96806
-292.11272
-290.26764
-293.64004
-290.98675
-291.24237
-291.26285
-291.26712
-291.28122
-291.37709
-292.13709
-291.22466
-293.64004
-293.72114
-292.1018
-292.3135
-292.32961
-292.33321
-292.34856
-292.50303
-294.14416
-292.6381
-290.98675
-292.1018
-290.4178
-290.61972
-290.63489
-290.63724
-290.64069
-290.73091
-292.45477
-291.69602
-291.24237
-292.3135
-290.61972
-290.82022
-290.83552
-290.83918
-290.8453
-290.9194
-292.58642
-291.7467
-291.26285
-292.32961
-290.63489
-290.83552
-290.85088
-290.85487
-290.86312
-290.94041
-292.60894
-291.75983
-291.26712
-292.33321
-290.63724
-290.83918
-290.85487
-290.85883
-290.86729
-290.94517
-292.6151
-291.76574
-291.28122
-292.34856
-290.64069
-290.8453
-290.86312
-290.86729
-290.87591
-290.95419
-292.62552
-291.7798
-291.37709
-292.50303
-290.73091
-290.9194
-290.94041
-290.94517
-290.95419
-291.0344
-292.71512
-291.91264
-292.13709
-294.14416
-292.45477
-292.58642
-292.60894
-292.6151
-292.62552
-292.71512
-294.45875
-294.20779
-291.22466
-292.6381
-291.69602
-291.7467
-291.75983
-291.76574
-291.7798
-291.91264
-294.20779
-290.46514
-289.19466
-292.35967
-289.84389
-290.08692
-290.10669
-290.11086
-290.12444
-290.21701
-290.95554
-290.09049
-292.35967
-292.41726
-290.87989
-291.0815
-291.09708
-291.10059
-291.11518
-291.26326
-292.85244
-291.42525
-289.84389
-290.87989
-289.28183
-289.47412
-289.48881
-289.49114
-289.49434
-289.58028
-291.24852
-290.53446
-290.08692
-291.0815
-289.47412
-289.66505
-289.67986
-289.68344
-289.68926
-289.75968
-291.37353
-290.58237
-290.10669
-291.09708
-289.48881
-289.67986
-289.69472
-289.69861
-289.70648
-289.77994
-291.39519
-290.59496
-290.11086
-291.10059
-289.49114
-289.68344
-289.69861
-289.70247
-289.71054
-289.78458
-291.40116
-290.60068
-290.12444
-291.11518
-289.49434
-289.68926
-289.70648
-289.71054
-289.71877
-289.79318
-291.41111
-290.61411
-290.21701
-291.26326
-289.58028
-289.75968
-289.77994
-289.78458
-289.79318
-289.86944
-291.49641
-290.74129
-290.95554
-292.85244
-291.24852
-291.37353
-291.39519
-291.40116
-291.41111
-291.49641
-293.18433
-292.96974
-290.09049
-291.42525
-290.53446
-290.58237
-290.59496
-290.60068
-290.61411
-290.74129
-292.96974
-289.35983
-288.62402
-291.56757
-289.20285
-289.43185
-289.45078
-289.45483
-289.46781
-289.55654
-290.26925
-289.45539
-291.56757
-291.60395
-290.15662
-290.34694
-290.3619
-290.36528
-290.37903
-290.51988
-292.04788
-290.70539
-289.20285
-290.15662
-288.65293
-288.83445
-288.84856
-288.85085
-288.8538
-288.93497
-290.53798
-289.87059
-289.43185
-290.34694
-288.83445
-289.01467
-289.0289
-289.03238
-289.03787
-289.10423
-290.6556
-289.91544
-289.45078
-290.3619
-288.84856
-289.0289
-289.04318
-289.04695
-289.05439
-289.12362
-290.67626
-289.92742
-289.45483
-290.36528
-288.85085
-289.03238
-289.04695
-289.05068
-289.05832
-289.1281
-290.68201
-289.9329
-289.46781
-290.37903
-288.8538
-289.03787
-289.05439
-289.05832
-289.0661
-289.13623
-290.69142
-289.94563
-289.55654
-290.51988
-288.93497
-289.10423
-289.12362
-289.1281
-289.13623
-289.20813
-290.77196
-290.06642
-290.26925