/*--------------------------------*- C++ -*----------------------------------*\
| =========                 |                                                 |
| \\      /  F ield         | OpenFOAM: The Open Source CFD Toolbox           |
|  \\    /   O peration     | Version:  v2106                                 |
|   \\  /    A nd           | Website:  www.openfoam.com                      |
|    \\/     M anipulation  |                                                 |
\*---------------------------------------------------------------------------*/
FoamFile
{
    version     2.0;
    format      ascii;
    arch        "LSB;label=32;scalar=64";
    class       volScalarField;
    location    "55";
    object      T;
}
// * * * * * * * * * * * * * * * * * * * * * * * * * * * * * * * * * * * * * //

dimensions      [0 0 0 1 0 0 0];

internalField   nonuniform List<scalar> 
4000
(
275.12269
275.1227
275.12269
275.12269
275.12269
275.12269
275.12269
275.12269
275.12269
275.12269
275.1227
275.1227
275.1227
275.12269
275.12269
275.12269
275.12269
275.12269
275.1227
275.1227
275.12269
275.1227
275.12269
275.12269
275.12269
275.12269
275.12269
275.12269
275.12269
275.12269
275.12269
275.12269
275.12269
275.12269
275.12269
275.12269
275.12269
275.12269
275.12269
275.12269
275.12269
275.12269
275.12269
275.12269
275.12269
275.12269
275.12269
275.12269
275.12269
275.12269
275.12269
275.12269
275.12269
275.12269
275.12269
275.12269
275.12269
275.12269
275.12269
275.12269
275.12269
275.12269
275.12269
275.12269
275.12269
275.12269
275.12269
275.12269
275.12269
275.12269
275.12269
275.12269
275.12269
275.12269
275.12269
275.12269
275.12269
275.12269
275.12269
275.12269
275.12269
275.1227
275.12269
275.12269
275.12269
275.12269
275.12269
275.12269
275.1227
275.1227
275.12269
275.1227
275.12269
275.12269
275.12269
275.12269
275.12269
275.12269
275.1227
275.1227
283.41942
283.41945
283.41943
283.41942
283.41941
283.41941
283.41941
283.41942
283.41942
283.41942
283.41945
283.41946
283.41944
283.41943
283.41943
283.41942
283.41943
283.41943
283.41944
283.41943
283.41943
283.41944
283.41942
283.41941
283.41941
283.41941
283.41941
283.41941
283.41942
283.41942
283.41942
283.41943
283.41941
283.4194
283.4194
283.4194
283.4194
283.41941
283.41942
283.41942
283.41941
283.41943
283.41941
283.4194
283.41939
283.41939
283.4194
283.41941
283.41941
283.41942
283.41941
283.41942
283.41941
283.4194
283.41939
283.41939
283.4194
283.41941
283.41942
283.41942
283.41941
283.41943
283.41941
283.4194
283.4194
283.4194
283.4194
283.41941
283.41942
283.41943
283.41942
283.41943
283.41941
283.41941
283.41941
283.41941
283.41941
283.41942
283.41943
283.41943
283.41942
283.41944
283.41942
283.41942
283.41941
283.41942
283.41942
283.41943
283.41944
283.41944
283.41942
283.41943
283.41942
283.41942
283.41942
283.41942
283.41943
283.41943
283.41944
283.41944
291.66405
291.66409
291.66406
291.66404
291.66403
291.66403
291.66403
291.66404
291.66405
291.66404
291.66409
291.6641
291.66407
291.66405
291.66404
291.66404
291.66405
291.66406
291.66407
291.66406
291.66406
291.66407
291.66404
291.66402
291.66401
291.66401
291.66402
291.66403
291.66405
291.66405
291.66404
291.66405
291.66402
291.66401
291.664
291.664
291.66401
291.66402
291.66404
291.66404
291.66403
291.66404
291.66401
291.664
291.66399
291.66399
291.664
291.66402
291.66403
291.66404
291.66403
291.66404
291.66401
291.664
291.66399
291.664
291.664
291.66402
291.66404
291.66404
291.66403
291.66405
291.66402
291.66401
291.664
291.664
291.66401
291.66403
291.66405
291.66405
291.66404
291.66406
291.66403
291.66402
291.66402
291.66402
291.66403
291.66405
291.66406
291.66406
291.66405
291.66407
291.66405
291.66404
291.66403
291.66404
291.66405
291.66406
291.66408
291.66408
291.66404
291.66406
291.66405
291.66404
291.66404
291.66404
291.66405
291.66406
291.66408
291.66407
299.85846
299.85851
299.85847
299.85845
299.85843
299.85843
299.85844
299.85845
299.85846
299.85845
299.85851
299.85853
299.85848
299.85846
299.85845
299.85845
299.85846
299.85847
299.85849
299.85848
299.85847
299.85848
299.85844
299.85842
299.85841
299.85841
299.85842
299.85844
299.85846
299.85846
299.85845
299.85846
299.85842
299.8584
299.85839
299.85839
299.8584
299.85842
299.85845
299.85845
299.85843
299.85845
299.85841
299.85839
299.85838
299.85838
299.8584
299.85842
299.85845
299.85845
299.85843
299.85845
299.85841
299.85839
299.85838
299.85839
299.8584
299.85842
299.85845
299.85845
299.85844
299.85846
299.85842
299.8584
299.8584
299.8584
299.85842
299.85844
299.85847
299.85847
299.85845
299.85847
299.85844
299.85842
299.85842
299.85842
299.85844
299.85846
299.85849
299.85849
299.85846
299.85849
299.85846
299.85845
299.85845
299.85845
299.85847
299.85849
299.85852
299.85852
299.85845
299.85848
299.85846
299.85845
299.85845
299.85845
299.85847
299.85849
299.85852
299.8585
308.00448
308.00455
308.00449
308.00446
308.00445
308.00445
308.00446
308.00448
308.00449
308.00448
308.00455
308.00456
308.00451
308.00448
308.00447
308.00447
308.00448
308.0045
308.00453
308.00451
308.00449
308.00451
308.00446
308.00443
308.00442
308.00442
308.00443
308.00446
308.00449
308.00449
308.00446
308.00448
308.00443
308.0044
308.00439
308.0044
308.00441
308.00444
308.00448
308.00448
308.00445
308.00447
308.00442
308.00439
308.00438
308.00439
308.00441
308.00444
308.00448
308.00448
308.00445
308.00447
308.00442
308.0044
308.00439
308.00439
308.00441
308.00445
308.00449
308.00449
308.00446
308.00448
308.00443
308.00441
308.00441
308.00441
308.00443
308.00447
308.00451
308.00451
308.00448
308.0045
308.00446
308.00444
308.00444
308.00445
308.00447
308.0045
308.00454
308.00454
308.00449
308.00453
308.00449
308.00448
308.00448
308.00449
308.00451
308.00454
308.00458
308.00457
308.00448
308.00451
308.00449
308.00448
308.00448
308.00449
308.00451
308.00454
308.00457
308.00455
316.10387
316.10394
316.10387
316.10384
316.10383
316.10383
316.10384
316.10386
316.10388
316.10387
316.10394
316.10395
316.10389
316.10386
316.10385
316.10385
316.10386
316.10389
316.10393
316.10391
316.10387
316.10389
316.10383
316.1038
316.10379
316.10379
316.10381
316.10384
316.10389
316.10388
316.10384
316.10386
316.1038
316.10377
316.10376
316.10376
316.10378
316.10382
316.10387
316.10387
316.10383
316.10385
316.10379
316.10376
316.10375
316.10375
316.10378
316.10382
316.10387
316.10387
316.10383
316.10385
316.10379
316.10376
316.10375
316.10376
316.10379
316.10383
316.10388
316.10388
316.10384
316.10386
316.10381
316.10378
316.10378
316.10379
316.10381
316.10386
316.10391
316.10391
316.10386
316.10389
316.10384
316.10382
316.10382
316.10383
316.10386
316.1039
316.10395
316.10395
316.10388
316.10393
316.10389
316.10387
316.10387
316.10388
316.10391
316.10395
316.104
316.10399
316.10387
316.10391
316.10388
316.10387
316.10387
316.10388
316.10391
316.10395
316.10399
316.10396
324.15827
324.15835
324.15827
324.15824
324.15822
324.15822
324.15824
324.15827
324.1583
324.15828
324.15835
324.15836
324.15829
324.15826
324.15824
324.15824
324.15826
324.1583
324.15834
324.15832
324.15827
324.15829
324.15822
324.15819
324.15817
324.15818
324.1582
324.15824
324.1583
324.15829
324.15824
324.15826
324.15819
324.15815
324.15814
324.15815
324.15818
324.15822
324.15828
324.15828
324.15822
324.15824
324.15817
324.15814
324.15813
324.15814
324.15817
324.15822
324.15828
324.15828
324.15822
324.15824
324.15818
324.15815
324.15814
324.15815
324.15818
324.15823
324.1583
324.1583
324.15824
324.15826
324.1582
324.15818
324.15817
324.15818
324.15822
324.15827
324.15833
324.15833
324.15827
324.1583
324.15824
324.15822
324.15822
324.15823
324.15827
324.15832
324.15838
324.15838
324.1583
324.15834
324.1583
324.15828
324.15828
324.1583
324.15833
324.15838
324.15844
324.15844
324.15828
324.15832
324.15829
324.15828
324.15828
324.1583
324.15833
324.15838
324.15844
324.15839
332.16927
332.16935
332.16927
332.16923
332.16921
332.16922
332.16924
332.16927
332.16931
332.16929
332.16935
332.16937
332.16929
332.16925
332.16923
332.16924
332.16926
332.16931
332.16936
332.16934
332.16927
332.16929
332.16921
332.16917
332.16916
332.16917
332.1692
332.16925
332.16931
332.16931
332.16923
332.16925
332.16917
332.16914
332.16913
332.16914
332.16917
332.16922
332.16929
332.16929
332.16921
332.16923
332.16916
332.16913
332.16912
332.16913
332.16916
332.16922
332.16929
332.16929
332.16922
332.16924
332.16917
332.16914
332.16913
332.16914
332.16918
332.16924
332.16931
332.16932
332.16924
332.16926
332.1692
332.16917
332.16916
332.16918
332.16922
332.16928
332.16935
332.16936
332.16927
332.16931
332.16925
332.16922
332.16922
332.16924
332.16928
332.16934
332.16941
332.16941
332.16931
332.16936
332.16931
332.16929
332.16929
332.16931
332.16935
332.16941
332.16948
332.16948
332.16929
332.16934
332.16931
332.16929
332.16929
332.16932
332.16936
332.16941
332.16948
332.16943
340.13836
340.13845
340.13836
340.13831
340.1383
340.1383
340.13833
340.13837
340.13841
340.13839
340.13845
340.13847
340.13838
340.13834
340.13832
340.13833
340.13836
340.13841
340.13847
340.13844
340.13836
340.13838
340.13829
340.13825
340.13824
340.13825
340.13828
340.13834
340.13841
340.13841
340.13831
340.13834
340.13825
340.13821
340.1382
340.13821
340.13825
340.13831
340.13839
340.1384
340.1383
340.13832
340.13824
340.1382
340.13819
340.13821
340.13825
340.13831
340.1384
340.1384
340.1383
340.13833
340.13825
340.13821
340.13821
340.13822
340.13827
340.13833
340.13842
340.13842
340.13833
340.13836
340.13828
340.13825
340.13825
340.13827
340.13831
340.13838
340.13847
340.13847
340.13837
340.13841
340.13834
340.13831
340.13831
340.13833
340.13838
340.13845
340.13854
340.13854
340.13841
340.13847
340.13841
340.13839
340.1384
340.13842
340.13847
340.13854
340.13862
340.13861
340.13839
340.13844
340.13841
340.1384
340.1384
340.13842
340.13847
340.13854
340.13861
340.13855
348.06695
348.06704
348.06694
348.0669
348.06688
348.06688
348.06691
348.06696
348.06701
348.06699
348.06704
348.06706
348.06696
348.06692
348.0669
348.06691
348.06694
348.067
348.06707
348.06705
348.06694
348.06696
348.06687
348.06683
348.06681
348.06682
348.06686
348.06693
348.06702
348.06701
348.0669
348.06692
348.06683
348.06679
348.06677
348.06679
348.06683
348.0669
348.06699
348.067
348.06688
348.0669
348.06681
348.06677
348.06676
348.06678
348.06683
348.0669
348.067
348.067
348.06688
348.06691
348.06682
348.06679
348.06678
348.0668
348.06685
348.06693
348.06703
348.06703
348.06691
348.06694
348.06686
348.06683
348.06683
348.06685
348.0669
348.06698
348.06708
348.06708
348.06696
348.067
348.06693
348.0669
348.0669
348.06693
348.06698
348.06706
348.06716
348.06716
348.06701
348.06707
348.06702
348.06699
348.067
348.06703
348.06708
348.06716
348.06725
348.06725
348.06699
348.06705
348.06701
348.067
348.067
348.06703
348.06708
348.06716
348.06725
348.06718
355.95635
355.95645
355.95634
355.95629
355.95628
355.95628
355.95632
355.95637
355.95643
355.95641
355.95645
355.95646
355.95636
355.95632
355.9563
355.95631
355.95635
355.95641
355.95649
355.95647
355.95634
355.95636
355.95627
355.95622
355.9562
355.95622
355.95626
355.95634
355.95643
355.95643
355.95629
355.95632
355.95622
355.95618
355.95616
355.95618
355.95623
355.95631
355.95641
355.95642
355.95628
355.9563
355.9562
355.95616
355.95615
355.95618
355.95623
355.95631
355.95642
355.95642
355.95628
355.95631
355.95622
355.95618
355.95618
355.9562
355.95625
355.95634
355.95645
355.95646
355.95632
355.95635
355.95626
355.95623
355.95623
355.95625
355.95631
355.9564
355.95651
355.95652
355.95637
355.95641
355.95634
355.95631
355.95631
355.95634
355.9564
355.95648
355.95659
355.9566
355.95643
355.95649
355.95643
355.95641
355.95642
355.95645
355.95651
355.95659
355.9567
355.95669
355.95641
355.95647
355.95643
355.95642
355.95642
355.95646
355.95652
355.9566
355.95669
355.95662
363.8078
363.80791
363.80779
363.80774
363.80772
363.80773
363.80777
363.80783
363.8079
363.80788
363.80791
363.80792
363.80781
363.80776
363.80775
363.80776
363.8078
363.80788
363.80796
363.80794
363.80779
363.80781
363.80771
363.80766
363.80765
363.80766
363.80771
363.80779
363.8079
363.8079
363.80774
363.80776
363.80766
363.80762
363.8076
363.80763
363.80768
363.80776
363.80788
363.80788
363.80772
363.80775
363.80765
363.8076
363.8076
363.80762
363.80768
363.80777
363.80789
363.80789
363.80773
363.80776
363.80766
363.80763
363.80762
363.80765
363.80771
363.8078
363.80792
363.80793
363.80777
363.8078
363.80771
363.80768
363.80768
363.80771
363.80777
363.80787
363.80799
363.808
363.80783
363.80788
363.80779
363.80776
363.80777
363.8078
363.80787
363.80796
363.80808
363.80809
363.8079
363.80796
363.8079
363.80788
363.80789
363.80792
363.80799
363.80808
363.80819
363.80819
363.80788
363.80794
363.8079
363.80788
363.80789
363.80793
363.808
363.80809
363.80819
363.80812
371.62245
371.62256
371.62244
371.62238
371.62237
371.62238
371.62242
371.62249
371.62256
371.62254
371.62256
371.62257
371.62246
371.62241
371.62239
371.62241
371.62245
371.62253
371.62263
371.6226
371.62244
371.62246
371.62235
371.6223
371.62229
371.62231
371.62236
371.62245
371.62256
371.62256
371.62238
371.62241
371.6223
371.62225
371.62224
371.62227
371.62232
371.62242
371.62254
371.62255
371.62237
371.62239
371.62229
371.62224
371.62223
371.62226
371.62232
371.62242
371.62255
371.62256
371.62238
371.62241
371.62231
371.62227
371.62226
371.62229
371.62236
371.62246
371.62259
371.6226
371.62242
371.62245
371.62236
371.62232
371.62232
371.62236
371.62243
371.62253
371.62266
371.62267
371.62249
371.62253
371.62245
371.62242
371.62242
371.62246
371.62253
371.62263
371.62276
371.62277
371.62256
371.62263
371.62256
371.62254
371.62255
371.62259
371.62266
371.62276
371.62288
371.62288
371.62254
371.6226
371.62256
371.62255
371.62256
371.6226
371.62267
371.62277
371.62288
371.62281
379.40136
379.40146
379.40134
379.40128
379.40127
379.40128
379.40133
379.4014
379.40147
379.40146
379.40146
379.40147
379.40136
379.4013
379.40129
379.40131
379.40136
379.40144
379.40154
379.40152
379.40134
379.40136
379.40124
379.40119
379.40118
379.4012
379.40126
379.40135
379.40148
379.40148
379.40128
379.4013
379.40119
379.40114
379.40113
379.40116
379.40122
379.40132
379.40145
379.40147
379.40127
379.40129
379.40118
379.40113
379.40113
379.40116
379.40123
379.40133
379.40147
379.40148
379.40128
379.40131
379.4012
379.40116
379.40116
379.40119
379.40126
379.40137
379.40151
379.40152
379.40133
379.40136
379.40126
379.40122
379.40123
379.40126
379.40134
379.40144
379.40158
379.4016
379.4014
379.40144
379.40135
379.40132
379.40133
379.40137
379.40144
379.40155
379.40169
379.40171
379.40147
379.40154
379.40148
379.40145
379.40147
379.40151
379.40158
379.40169
379.40182
379.40183
379.40146
379.40152
379.40148
379.40147
379.40148
379.40152
379.4016
379.40171
379.40183
379.40175
387.14549
387.14559
387.14547
387.14541
387.14539
387.14541
387.14546
387.14554
387.14562
387.1456
387.14559
387.1456
387.14548
387.14543
387.14541
387.14543
387.14549
387.14558
387.14569
387.14567
387.14547
387.14548
387.14537
387.14532
387.1453
387.14533
387.14539
387.14549
387.14562
387.14563
387.14541
387.14543
387.14532
387.14527
387.14526
387.14529
387.14535
387.14546
387.1456
387.14561
387.14539
387.14541
387.1453
387.14526
387.14525
387.14528
387.14536
387.14547
387.14561
387.14563
387.14541
387.14543
387.14533
387.14529
387.14528
387.14532
387.1454
387.14551
387.14566
387.14567
387.14546
387.14549
387.14539
387.14535
387.14536
387.1454
387.14547
387.14559
387.14574
387.14576
387.14554
387.14558
387.14549
387.14546
387.14547
387.14551
387.14559
387.14571
387.14585
387.14587
387.14562
387.14569
387.14562
387.1456
387.14561
387.14566
387.14574
387.14585
387.14599
387.146
387.1456
387.14567
387.14563
387.14561
387.14563
387.14567
387.14576
387.14587
387.146
387.14592
394.85574
394.85584
394.85571
394.85565
394.85564
394.85566
394.85571
394.85579
394.85588
394.85586
394.85584
394.85585
394.85573
394.85567
394.85566
394.85568
394.85574
394.85583
394.85595
394.85593
394.85571
394.85573
394.85561
394.85556
394.85554
394.85557
394.85564
394.85574
394.85588
394.85589
394.85565
394.85567
394.85556
394.85551
394.8555
394.85553
394.8556
394.85571
394.85586
394.85587
394.85564
394.85566
394.85554
394.8555
394.85549
394.85553
394.8556
394.85572
394.85587
394.85589
394.85566
394.85568
394.85557
394.85553
394.85553
394.85557
394.85565
394.85577
394.85592
394.85594
394.85571
394.85574
394.85564
394.8556
394.8556
394.85565
394.85573
394.85585
394.856
394.85603
394.85579
394.85583
394.85574
394.85571
394.85572
394.85577
394.85585
394.85597
394.85613
394.85615
394.85588
394.85595
394.85588
394.85586
394.85587
394.85592
394.856
394.85613
394.85627
394.85628
394.85586
394.85593
394.85589
394.85587
394.85589
394.85594
394.85603
394.85615
394.85628
394.8562
402.53291
402.53301
402.53288
402.53282
402.53281
402.53283
402.53289
402.53297
402.53306
402.53305
402.53301
402.53302
402.53289
402.53284
402.53282
402.53285
402.53291
402.53301
402.53313
402.53312
402.53288
402.53289
402.53277
402.53272
402.53271
402.53274
402.53281
402.53292
402.53306
402.53307
402.53282
402.53284
402.53272
402.53267
402.53266
402.5327
402.53277
402.53289
402.53304
402.53306
402.53281
402.53282
402.53271
402.53266
402.53266
402.5327
402.53278
402.5329
402.53306
402.53308
402.53283
402.53285
402.53274
402.5327
402.5327
402.53274
402.53282
402.53295
402.53311
402.53313
402.53289
402.53291
402.53281
402.53277
402.53278
402.53282
402.53291
402.53304
402.5332
402.53322
402.53297
402.53301
402.53292
402.53289
402.5329
402.53295
402.53304
402.53316
402.53332
402.53334
402.53306
402.53313
402.53306
402.53304
402.53306
402.53311
402.5332
402.53332
402.53347
402.53349
402.53305
402.53312
402.53307
402.53306
402.53308
402.53313
402.53322
402.53334
402.53349
402.5334
410.17773
410.17783
410.1777
410.17764
410.17763
410.17765
410.17771
410.1778
410.17789
410.17788
410.17783
410.17783
410.17771
410.17765
410.17764
410.17767
410.17773
410.17784
410.17796
410.17795
410.1777
410.17771
410.17759
410.17754
410.17753
410.17756
410.17763
410.17774
410.17789
410.17791
410.17764
410.17765
410.17754
410.17749
410.17748
410.17752
410.17759
410.17771
410.17787
410.17789
410.17763
410.17764
410.17753
410.17748
410.17748
410.17752
410.1776
410.17773
410.17789
410.17791
410.17765
410.17767
410.17756
410.17752
410.17752
410.17756
410.17765
410.17778
410.17794
410.17797
410.17771
410.17773
410.17763
410.17759
410.1776
410.17765
410.17774
410.17787
410.17803
410.17806
410.1778
410.17784
410.17774
410.17771
410.17773
410.17778
410.17787
410.178
410.17816
410.17819
410.17789
410.17796
410.17789
410.17787
410.17789
410.17794
410.17803
410.17816
410.17832
410.17834
410.17788
410.17795
410.17791
410.17789
410.17791
410.17797
410.17806
410.17819
410.17834
410.17825
417.79084
417.79094
417.79081
417.79075
417.79074
417.79077
417.79083
417.79092
417.79102
417.79101
417.79094
417.79094
417.79082
417.79076
417.79075
417.79078
417.79085
417.79096
417.79108
417.79107
417.79081
417.79082
417.7907
417.79065
417.79064
417.79067
417.79075
417.79086
417.79101
417.79103
417.79075
417.79076
417.79065
417.7906
417.79059
417.79063
417.79071
417.79083
417.79099
417.79102
417.79074
417.79075
417.79064
417.79059
417.79059
417.79063
417.79072
417.79085
417.79101
417.79104
417.79077
417.79078
417.79067
417.79063
417.79063
417.79068
417.79077
417.7909
417.79107
417.7911
417.79083
417.79085
417.79075
417.79071
417.79072
417.79077
417.79086
417.79099
417.79116
417.79119
417.79092
417.79096
417.79086
417.79083
417.79085
417.7909
417.79099
417.79113
417.7913
417.79133
417.79102
417.79108
417.79101
417.79099
417.79101
417.79107
417.79116
417.7913
417.79146
417.79148
417.79101
417.79107
417.79103
417.79102
417.79104
417.7911
417.79119
417.79133
417.79148
417.7914
425.37282
425.37292
425.37279
425.37273
425.37272
425.37274
425.37281
425.3729
425.373
425.373
425.37292
425.37292
425.37279
425.37274
425.37273
425.37276
425.37283
425.37294
425.37307
425.37306
425.37279
425.37279
425.37267
425.37262
425.37262
425.37265
425.37273
425.37284
425.373
425.37302
425.37273
425.37274
425.37262
425.37257
425.37257
425.37261
425.37269
425.37282
425.37298
425.37301
425.37272
425.37273
425.37262
425.37257
425.37257
425.37261
425.3727
425.37283
425.373
425.37303
425.37274
425.37276
425.37265
425.37261
425.37261
425.37266
425.37275
425.37289
425.37306
425.37309
425.37281
425.37283
425.37273
425.37269
425.3727
425.37275
425.37285
425.37298
425.37316
425.37319
425.3729
425.37294
425.37284
425.37282
425.37283
425.37289
425.37298
425.37312
425.37329
425.37332
425.373
425.37307
425.373
425.37298
425.373
425.37306
425.37316
425.37329
425.37346
425.37348
425.373
425.37306
425.37302
425.37301
425.37303
425.37309
425.37319
425.37332
425.37348
425.3734
432.92416
432.92425
432.92412
432.92407
432.92406
432.92408
432.92415
432.92425
432.92435
432.92434
432.92425
432.92425
432.92413
432.92407
432.92407
432.9241
432.92417
432.92428
432.92441
432.92441
432.92412
432.92413
432.92401
432.92396
432.92395
432.92399
432.92407
432.92419
432.92434
432.92437
432.92407
432.92407
432.92396
432.92391
432.92391
432.92395
432.92403
432.92416
432.92433
432.92436
432.92406
432.92407
432.92395
432.92391
432.92391
432.92396
432.92404
432.92418
432.92435
432.92438
432.92408
432.9241
432.92399
432.92395
432.92396
432.924
432.9241
432.92423
432.92441
432.92444
432.92415
432.92417
432.92407
432.92403
432.92404
432.9241
432.92419
432.92433
432.9245
432.92454
432.92425
432.92428
432.92419
432.92416
432.92418
432.92423
432.92433
432.92447
432.92464
432.92468
432.92435
432.92441
432.92434
432.92433
432.92435
432.92441
432.9245
432.92464
432.92481
432.92483
432.92434
432.92441
432.92437
432.92436
432.92438
432.92444
432.92454
432.92468
432.92483
432.92476
440.44528
440.44537
440.44524
440.44519
440.44518
440.44521
440.44527
440.44537
440.44547
440.44547
440.44537
440.44536
440.44524
440.44519
440.44519
440.44522
440.44529
440.4454
440.44554
440.44553
440.44524
440.44524
440.44513
440.44508
440.44507
440.44511
440.44519
440.44531
440.44547
440.44549
440.44519
440.44519
440.44508
440.44503
440.44503
440.44507
440.44516
440.44529
440.44545
440.44549
440.44518
440.44519
440.44507
440.44503
440.44504
440.44508
440.44517
440.4453
440.44548
440.44551
440.44521
440.44522
440.44511
440.44507
440.44508
440.44513
440.44522
440.44536
440.44554
440.44557
440.44527
440.44529
440.44519
440.44516
440.44517
440.44522
440.44532
440.44546
440.44563
440.44567
440.44537
440.4454
440.44531
440.44529
440.4453
440.44536
440.44546
440.4456
440.44577
440.44581
440.44547
440.44554
440.44547
440.44545
440.44548
440.44554
440.44563
440.44577
440.44594
440.44597
440.44547
440.44553
440.44549
440.44549
440.44551
440.44557
440.44567
440.44581
440.44597
440.44589
447.93654
447.93662
447.9365
447.93644
447.93644
447.93647
447.93654
447.93663
447.93674
447.93674
447.93662
447.93662
447.9365
447.93645
447.93644
447.93648
447.93655
447.93666
447.9368
447.9368
447.9365
447.9365
447.93639
447.93634
447.93634
447.93637
447.93645
447.93657
447.93673
447.93676
447.93644
447.93645
447.93634
447.9363
447.9363
447.93634
447.93642
447.93655
447.93672
447.93675
447.93644
447.93644
447.93634
447.9363
447.9363
447.93635
447.93644
447.93657
447.93674
447.93678
447.93647
447.93648
447.93637
447.93634
447.93635
447.9364
447.93649
447.93663
447.9368
447.93684
447.93654
447.93655
447.93645
447.93642
447.93644
447.93649
447.93659
447.93673
447.9369
447.93694
447.93663
447.93666
447.93657
447.93655
447.93657
447.93663
447.93673
447.93686
447.93704
447.93708
447.93674
447.9368
447.93673
447.93672
447.93674
447.9368
447.9369
447.93704
447.93721
447.93723
447.93674
447.9368
447.93676
447.93675
447.93678
447.93684
447.93694
447.93708
447.93723
447.93716
455.39823
455.39831
455.39818
455.39813
455.39813
455.39816
455.39823
455.39832
455.39843
455.39843
455.39831
455.3983
455.39819
455.39814
455.39813
455.39817
455.39824
455.39835
455.39849
455.39849
455.39818
455.39819
455.39808
455.39803
455.39803
455.39807
455.39815
455.39827
455.39842
455.39845
455.39813
455.39814
455.39803
455.39799
455.39799
455.39803
455.39812
455.39825
455.39841
455.39845
455.39813
455.39813
455.39803
455.39799
455.398
455.39804
455.39813
455.39826
455.39843
455.39847
455.39816
455.39817
455.39807
455.39803
455.39804
455.39809
455.39819
455.39832
455.3985
455.39854
455.39823
455.39824
455.39815
455.39812
455.39813
455.39819
455.39828
455.39842
455.39859
455.39863
455.39832
455.39835
455.39827
455.39825
455.39826
455.39832
455.39842
455.39856
455.39873
455.39877
455.39843
455.39849
455.39842
455.39841
455.39843
455.3985
455.39859
455.39873
455.3989
455.39893
455.39843
455.39849
455.39845
455.39845
455.39847
455.39854
455.39863
455.39877
455.39893
455.39886
462.83058
462.83065
462.83053
462.83048
462.83048
462.83051
462.83058
462.83068
462.83078
462.83078
462.83065
462.83064
462.83053
462.83049
462.83048
462.83052
462.83059
462.8307
462.83083
462.83084
462.83053
462.83053
462.83043
462.83038
462.83038
462.83042
462.8305
462.83062
462.83077
462.8308
462.83048
462.83049
462.83038
462.83034
462.83035
462.83039
462.83047
462.8306
462.83076
462.8308
462.83048
462.83048
462.83038
462.83035
462.83035
462.8304
462.83049
462.83062
462.83079
462.83083
462.83051
462.83052
462.83042
462.83039
462.8304
462.83045
462.83054
462.83068
462.83085
462.83089
462.83058
462.83059
462.8305
462.83047
462.83049
462.83054
462.83064
462.83077
462.83094
462.83099
462.83068
462.8307
462.83062
462.8306
462.83062
462.83068
462.83077
462.83091
462.83108
462.83112
462.83078
462.83083
462.83077
462.83076
462.83079
462.83085
462.83094
462.83108
462.83125
462.83127
462.83078
462.83084
462.8308
462.8308
462.83083
462.83089
462.83099
462.83112
462.83127
462.83121
470.23375
470.23382
470.23371
470.23366
470.23366
470.23369
470.23376
470.23386
470.23396
470.23397
470.23382
470.23381
470.23371
470.23367
470.23366
470.2337
470.23377
470.23388
470.23401
470.23402
470.23371
470.23371
470.23361
470.23357
470.23357
470.23361
470.23368
470.2338
470.23395
470.23398
470.23366
470.23367
470.23357
470.23353
470.23353
470.23358
470.23366
470.23378
470.23394
470.23398
470.23366
470.23366
470.23357
470.23353
470.23354
470.23359
470.23368
470.2338
470.23397
470.23401
470.23369
470.2337
470.23361
470.23358
470.23359
470.23364
470.23373
470.23386
470.23403
470.23407
470.23376
470.23377
470.23368
470.23366
470.23368
470.23373
470.23382
470.23396
470.23412
470.23417
470.23386
470.23388
470.2338
470.23378
470.2338
470.23386
470.23396
470.23409
470.23426
470.2343
470.23396
470.23401
470.23395
470.23394
470.23397
470.23403
470.23412
470.23426
470.23442
470.23445
470.23397
470.23402
470.23398
470.23398
470.23401
470.23407
470.23417
470.2343
470.23445
470.23439
477.60788
477.60794
477.60784
477.6078
477.60779
477.60783
477.60789
477.60799
477.60809
477.6081
477.60794
477.60793
477.60784
477.6078
477.6078
477.60783
477.6079
477.60801
477.60813
477.60814
477.60784
477.60784
477.60774
477.6077
477.6077
477.60774
477.60782
477.60793
477.60808
477.60811
477.6078
477.6078
477.6077
477.60767
477.60767
477.60772
477.6078
477.60792
477.60807
477.60811
477.60779
477.6078
477.6077
477.60767
477.60768
477.60773
477.60781
477.60794
477.6081
477.60814
477.60783
477.60783
477.60774
477.60772
477.60773
477.60778
477.60787
477.60799
477.60816
477.6082
477.60789
477.6079
477.60782
477.6078
477.60781
477.60787
477.60796
477.60809
477.60825
477.60829
477.60799
477.60801
477.60793
477.60792
477.60794
477.60799
477.60809
477.60822
477.60838
477.60842
477.60809
477.60813
477.60808
477.60807
477.6081
477.60816
477.60825
477.60838
477.60854
477.60857
477.6081
477.60814
477.60811
477.60811
477.60814
477.6082
477.60829
477.60842
477.60857
477.60851
484.95303
484.95308
484.95298
484.95295
484.95295
484.95298
484.95304
484.95313
484.95323
484.95324
484.95308
484.95307
484.95298
484.95294
484.95295
484.95298
484.95305
484.95315
484.95327
484.95328
484.95298
484.95298
484.95289
484.95286
484.95286
484.9529
484.95297
484.95308
484.95322
484.95326
484.95295
484.95294
484.95286
484.95283
484.95283
484.95287
484.95295
484.95307
484.95322
484.95326
484.95295
484.95295
484.95286
484.95283
484.95284
484.95289
484.95297
484.95309
484.95324
484.95328
484.95298
484.95298
484.9529
484.95287
484.95289
484.95294
484.95302
484.95315
484.9533
484.95334
484.95304
484.95305
484.95297
484.95295
484.95297
484.95302
484.95311
484.95324
484.95339
484.95343
484.95313
484.95315
484.95308
484.95307
484.95309
484.95315
484.95324
484.95336
484.95352
484.95356
484.95323
484.95327
484.95322
484.95322
484.95324
484.9533
484.95339
484.95352
484.95367
484.9537
484.95324
484.95328
484.95326
484.95326
484.95328
484.95334
484.95343
484.95356
484.9537
484.95365
492.26921
492.26926
492.26917
492.26914
492.26914
492.26917
492.26923
492.26932
492.26941
492.26942
492.26926
492.26925
492.26917
492.26913
492.26914
492.26917
492.26924
492.26933
492.26945
492.26947
492.26917
492.26917
492.26909
492.26905
492.26906
492.2691
492.26917
492.26927
492.26941
492.26944
492.26914
492.26913
492.26905
492.26903
492.26903
492.26907
492.26915
492.26926
492.2694
492.26944
492.26914
492.26914
492.26906
492.26903
492.26904
492.26909
492.26917
492.26928
492.26943
492.26947
492.26917
492.26917
492.2691
492.26907
492.26909
492.26914
492.26922
492.26934
492.26948
492.26952
492.26923
492.26924
492.26917
492.26915
492.26917
492.26922
492.2693
492.26942
492.26957
492.26961
492.26932
492.26933
492.26927
492.26926
492.26928
492.26934
492.26942
492.26954
492.26969
492.26973
492.26941
492.26945
492.26941
492.2694
492.26943
492.26948
492.26957
492.26969
492.26983
492.26987
492.26942
492.26947
492.26944
492.26944
492.26947
492.26952
492.26961
492.26973
492.26987
492.26982
499.55642
499.55646
499.55638
499.55635
499.55635
499.55638
499.55644
499.55653
499.55661
499.55663
499.55646
499.55645
499.55638
499.55635
499.55635
499.55638
499.55645
499.55654
499.55665
499.55666
499.55638
499.55638
499.5563
499.55627
499.55628
499.55632
499.55638
499.55648
499.55661
499.55664
499.55635
499.55635
499.55627
499.55625
499.55626
499.5563
499.55637
499.55647
499.55661
499.55664
499.55635
499.55635