/*--------------------------------*- C++ -*----------------------------------*\
| =========                 |                                                 |
| \\      /  F ield         | OpenFOAM: The Open Source CFD Toolbox           |
|  \\    /   O peration     | Version:  v2106                                 |
|   \\  /    A nd           | Website:  www.openfoam.com                      |
|    \\/     M anipulation  |                                                 |
\*---------------------------------------------------------------------------*/
FoamFile
{
    version     2.0;
    format      ascii;
    arch        "LSB;label=32;scalar=64";
    class       volVectorField;
    location    "47.5";
    object      flux;
}
// * * * * * * * * * * * * * * * * * * * * * * * * * * * * * * * * * * * * * //

dimensions      [0 1 -1 1 0 0 0];

internalField   nonuniform List<vector> 
4000
(
(7.8700286e-07 7.8700286e-07 0.70226559)
(4.430239e-07 1.4429096e-07 0.7022708)
(-9.8727958e-07 2.1690283e-07 0.70226741)
(-3.8014703e-07 2.2046042e-07 0.7022661)
(-1.6432602e-07 2.2336906e-07 0.70226542)
(8.6169558e-09 2.2888032e-07 0.70226525)
(1.2940876e-07 2.399605e-07 0.70226548)
(1.62164e-07 2.6246732e-07 0.70226595)
(7.4484734e-08 2.9843884e-07 0.70226634)
(-5.7708197e-10 3.0711283e-07 0.70226622)
(1.4429096e-07 4.430239e-07 0.7022708)
(-4.1212616e-07 -4.1212615e-07 0.70227198)
(-8.7302539e-07 -2.9384556e-07 0.70226898)
(-3.7044769e-07 -2.8382753e-07 0.70226769)
(-1.5169617e-07 -2.7222263e-07 0.70226704)
(3.3504115e-08 -2.5296375e-07 0.70226691)
(1.7978926e-07 -2.18754e-07 0.70226723)
(2.4988151e-07 -1.5349398e-07 0.70226788)
(1.41453e-07 -3.6755749e-08 0.70226857)
(8.0969066e-09 8.6965838e-08 0.70226837)
(2.1690283e-07 -9.8727958e-07 0.70226741)
(-2.9384556e-07 -8.7302539e-07 0.70226898)
(-8.5898097e-07 -8.5898096e-07 0.70226603)
(-3.5852411e-07 -8.4735511e-07 0.70226477)
(-1.3346223e-07 -8.3083579e-07 0.70226416)
(6.2085583e-08 -8.0776962e-07 0.70226409)
(2.2887854e-07 -7.7439877e-07 0.7022645)
(3.4416226e-07 -7.2295229e-07 0.70226532)
(3.1494455e-07 -6.3766709e-07 0.70226634)
(8.1903975e-08 -5.0851359e-07 0.70226672)
(2.2046042e-07 -3.8014704e-07 0.7022661)
(-2.8382754e-07 -3.7044769e-07 0.70226769)
(-8.4735512e-07 -3.5852411e-07 0.70226477)
(-3.4230251e-07 -3.4230252e-07 0.70226355)
(-1.1211068e-07 -3.2242958e-07 0.70226298)
(8.9941139e-08 -2.9846754e-07 0.70226298)
(2.646066e-07 -2.691597e-07 0.70226348)
(3.8661318e-07 -2.3410197e-07 0.7022644)
(3.558917e-07 -1.9665713e-07 0.70226554)
(9.4199246e-08 -1.682286e-07 0.70226602)
(2.2336907e-07 -1.6432601e-07 0.70226542)
(-2.7222263e-07 -1.5169618e-07 0.70226704)
(-8.308358e-07 -1.3346223e-07 0.70226416)
(-3.2242957e-07 -1.1211068e-07 0.70226298)
(-8.9627249e-08 -8.9627252e-08 0.70226247)
(1.1535546e-07 -6.6488847e-08 0.70226253)
(2.932441e-07 -4.2288098e-08 0.7022631)
(4.1666482e-07 -1.7270948e-08 0.7022641)
(3.8081791e-07 5.9572675e-09 0.70226532)
(1.0085633e-07 2.0915858e-08 0.70226585)
(2.2888032e-07 8.6169565e-09 0.70226525)
(-2.5296375e-07 3.350411e-08 0.70226691)
(-8.0776962e-07 6.2085588e-08 0.70226409)
(-2.9846754e-07 8.9941138e-08 0.70226298)
(-6.6488848e-08 1.1535546e-07 0.70226253)
(1.3728029e-07 1.3728028e-07 0.70226264)
(3.138245e-07 1.561228e-07 0.70226327)
(4.3485855e-07 1.7174089e-07 0.70226432)
(3.9407851e-07 1.8323022e-07 0.70226559)
(1.0417164e-07 1.8928849e-07 0.70226615)
(2.399605e-07 1.2940876e-07 0.70226548)
(-2.18754e-07 1.7978926e-07 0.70226723)
(-7.7439877e-07 2.2887854e-07 0.7022645)
(-2.691597e-07 2.646066e-07 0.70226348)
(-4.2288109e-08 2.9324411e-07 0.7022631)
(1.561228e-07 3.138245e-07 0.70226327)
(3.2770472e-07 3.2770471e-07 0.70226394)
(4.4377224e-07 3.351846e-07 0.70226502)
(3.9836551e-07 3.3642684e-07 0.7022663)
(1.0489518e-07 3.3387781e-07 0.70226687)
(2.6246731e-07 1.6216401e-07 0.70226595)
(-1.5349397e-07 2.4988151e-07 0.70226788)
(-7.2295228e-07 3.4416225e-07 0.70226532)
(-2.3410197e-07 3.8661318e-07 0.7022644)
(-1.7270945e-08 4.1666481e-07 0.7022641)
(1.717409e-07 4.3485856e-07 0.70226432)
(3.351846e-07 4.4377223e-07 0.70226502)
(4.4358067e-07 4.4358068e-07 0.70226612)
(3.9277172e-07 4.3356101e-07 0.70226739)
(1.0247229e-07 4.1800998e-07 0.70226793)
(2.9843884e-07 7.4484735e-08 0.70226634)
(-3.6755755e-08 1.4145301e-07 0.70226857)
(-6.376671e-07 3.1494454e-07 0.70226634)
(-1.9665714e-07 3.558917e-07 0.70226554)
(5.9572738e-09 3.8081791e-07 0.70226532)
(1.8323022e-07 3.9407851e-07 0.70226559)
(3.3642684e-07 3.983655e-07 0.7022663)
(4.3356101e-07 3.9277172e-07 0.70226739)
(3.7279481e-07 3.7279482e-07 0.70226861)
(9.4527822e-08 3.3764425e-07 0.70226907)
(3.0711283e-07 -5.7708511e-10 0.70226622)
(8.6965837e-08 8.0969065e-09 0.70226837)
(-5.0851359e-07 8.1903976e-08 0.70226672)
(-1.682286e-07 9.4199246e-08 0.70226602)
(2.0915864e-08 1.0085633e-07 0.70226585)
(1.8928849e-07 1.0417164e-07 0.70226615)
(3.3387781e-07 1.0489518e-07 0.70226687)
(4.1800998e-07 1.0247229e-07 0.70226793)
(3.3764424e-07 9.4527823e-08 0.70226907)
(7.9038574e-08 7.9038576e-08 0.70226936)
(2.8542511e-06 2.8542511e-06 1.0447842)
(1.4017642e-06 7.4472184e-07 1.0447889)
(-4.1029411e-06 9.1962464e-07 1.0447851)
(-1.8534325e-06 9.3477026e-07 1.0447833)
(-7.8507047e-07 9.494008e-07 1.0447823)
(6.9624321e-08 9.7648182e-07 1.0447821)
(6.6968755e-07 1.0315563e-06 1.0447826)
(8.0717443e-07 1.1464364e-06 1.0447834)
(1.7978079e-07 1.3297541e-06 1.0447841)
(-1.2153129e-07 1.2352808e-06 1.0447832)
(7.4472183e-07 1.4017642e-06 1.0447889)
(-1.5001757e-06 -1.5001757e-06 1.04479)
(-3.8178685e-06 -1.1899014e-06 1.0447864)
(-1.8087682e-06 -1.1406768e-06 1.0447846)
(-7.2250313e-07 -1.0825461e-06 1.0447837)
(1.9285762e-07 -9.8776698e-07 1.0447836)
(9.246195e-07 -8.1836758e-07 1.0447842)
(1.2544711e-06 -4.8876042e-07 1.0447853)
(3.1304728e-07 1.0718966e-07 1.0447865)
(-2.1600465e-07 4.8142352e-07 1.0447855)
(9.1962464e-07 -4.1029411e-06 1.0447851)
(-1.1899014e-06 -3.8178685e-06 1.0447864)
(-3.7434422e-06 -3.7434422e-06 1.044783)
(-1.7460772e-06 -3.6817643e-06 1.0447812)
(-6.3216066e-07 -3.599812e-06 1.0447804)
(3.3380286e-07 -3.4863014e-06 1.0447803)
(1.1686941e-06 -3.3219493e-06 1.044781)
(1.7327317e-06 -3.0660048e-06 1.0447824)
(1.1499647e-06 -2.6282098e-06 1.0447841)
(1.2795795e-07 -2.0073776e-06 1.0447839)
(9.3477026e-07 -1.8534325e-06 1.0447833)
(-1.1406768e-06 -1.8087682e-06 1.0447846)
(-3.6817643e-06 -1.7460772e-06 1.0447812)
(-1.665138e-06 -1.665138e-06 1.0447795)
(-5.2704028e-07 -1.567264e-06 1.0447787)
(4.7072037e-07 -1.4494975e-06 1.0447788)
(1.3449162e-06 -1.3055886e-06 1.0447796)
(1.9482106e-06 -1.1332393e-06 1.0447811)
(1.3716745e-06 -9.4394213e-07 1.0447831)
(1.9788353e-07 -7.912561e-07 1.044783)
(9.494008e-07 -7.8507048e-07 1.0447823)
(-1.0825461e-06 -7.2250313e-07 1.0447837)
(-3.599812e-06 -6.3216066e-07 1.0447804)
(-1.567264e-06 -5.2704027e-07 1.0447787)
(-4.1652011e-07 -4.1652012e-07 1.044778)
(5.954783e-07 -3.0281016e-07 1.0447782)
(1.4849523e-06 -1.8402238e-07 1.0447791)
(2.0943781e-06 -6.1734691e-08 1.0447807)
(1.4919479e-06 5.1179758e-08 1.0447828)
(2.2974864e-07 1.225591e-07 1.0447828)
(9.7648183e-07 6.9624322e-08 1.0447821)
(-9.8776697e-07 1.9285762e-07 1.0447836)
(-3.4863014e-06 3.3380286e-07 1.0447803)
(-1.4494975e-06 4.7072038e-07 1.0447788)
(-3.0281017e-07 5.954783e-07 1.0447782)
(7.0321811e-07 7.0321812e-07 1.0447784)
(1.5859916e-06 7.9570758e-07 1.0447794)
(2.1834127e-06 8.7215404e-07 1.0447811)
(1.5559683e-06 9.2786529e-07 1.0447833)
(2.4546976e-07 9.5601156e-07 1.0447833)
(1.0315563e-06 6.6968755e-07 1.0447826)
(-8.1836757e-07 9.2461949e-07 1.0447842)
(-3.3219493e-06 1.1686941e-06 1.044781)
(-1.3055886e-06 1.3449161e-06 1.0447796)
(-1.8402238e-07 1.4849523e-06 1.0447791)
(7.9570758e-07 1.5859916e-06 1.0447794)
(1.6538883e-06 1.6538883e-06 1.0447805)
(2.2265358e-06 1.6897361e-06 1.0447823)
(1.5758054e-06 1.6934622e-06 1.0447844)
(2.4851282e-07 1.6764928e-06 1.0447844)
(1.1464364e-06 8.0717443e-07 1.0447834)
(-4.887604e-07 1.2544711e-06 1.0447853)
(-3.0660047e-06 1.7327317e-06 1.0447824)
(-1.1332393e-06 1.9482106e-06 1.0447811)
(-6.1734693e-08 2.0943781e-06 1.0447807)
(8.7215404e-07 2.1834127e-06 1.0447811)
(1.6897361e-06 2.2265358e-06 1.0447823)
(2.2229867e-06 2.2229867e-06 1.044784)
(1.5427249e-06 2.1645319e-06 1.0447861)
(2.3415678e-07 2.0646283e-06 1.0447861)
(1.3297541e-06 1.7978081e-07 1.0447841)
(1.0718967e-07 3.1304729e-07 1.0447865)
(-2.6282098e-06 1.1499647e-06 1.0447841)
(-9.4394213e-07 1.3716745e-06 1.0447831)
(5.117976e-08 1.4919479e-06 1.0447828)
(9.2786529e-07 1.5559683e-06 1.0447833)
(1.6934623e-06 1.5758054e-06 1.0447844)
(2.1645319e-06 1.5427249e-06 1.0447861)
(1.417447e-06 1.417447e-06 1.0447881)
(1.8191039e-07 1.138926e-06 1.0447879)
(1.2352808e-06 -1.2153128e-07 1.0447832)
(4.8142353e-07 -2.1600464e-07 1.0447855)
(-2.0073776e-06 1.2795795e-07 1.0447839)
(-7.9125609e-07 1.9788353e-07 1.044783)
(1.225591e-07 2.2974864e-07 1.0447828)
(9.5601156e-07 2.4546976e-07 1.0447833)
(1.6764928e-06 2.4851282e-07 1.0447844)
(2.0646283e-06 2.3415678e-07 1.0447861)
(1.138926e-06 1.8191039e-07 1.0447879)
(4.8476118e-08 4.847612e-08 1.0447869)
(3.8572247e-06 3.8572247e-06 1.0451982)
(1.2986985e-06 8.947185e-07 1.0452009)
(-6.5717856e-06 1.1084819e-06 1.0451979)
(-3.1515132e-06 1.1313463e-06 1.0451963)
(-1.2876061e-06 1.1570009e-06 1.0451955)
(2.5686349e-07 1.2046795e-06 1.0451954)
(1.3879952e-06 1.3037369e-06 1.045196)
(1.64145e-06 1.5268202e-06 1.0451971)
(-1.6749918e-07 1.9496853e-06 1.045198)
(-5.9903824e-07 1.8742947e-06 1.0451968)
(8.947185e-07 1.2986985e-06 1.0452009)
(-2.8244161e-06 -2.824416e-06 1.0452014)
(-6.216844e-06 -2.4324509e-06 1.0451984)
(-3.0787345e-06 -2.3513246e-06 1.0451968)
(-1.1776063e-06 -2.2479292e-06 1.0451961)
(4.7696746e-07 -2.0794657e-06 1.0451961)
(1.8712063e-06 -1.7770235e-06 1.0451968)
(2.6103727e-06 -1.1674262e-06 1.0451982)
(3.5371247e-07 3.1763129e-08 1.0451998)
(-6.7442892e-07 7.7982519e-07 1.0451986)
(1.1084819e-06 -6.5717856e-06 1.0451979)
(-2.4324509e-06 -6.216844e-06 1.0451984)
(-6.0986943e-06 -6.0986943e-06 1.0451955)
(-2.9669915e-06 -5.9887343e-06 1.045194)
(-1.0157471e-06 -5.8417397e-06 1.0451933)
(7.2776923e-07 -5.6382605e-06 1.0451934)
(2.3000346e-06 -5.3448276e-06 1.0451942)
(3.4502365e-06 -4.8917495e-06 1.0451958)
(1.7797522e-06 -4.1118198e-06 1.045198)
(-1.0033021e-07 -3.0550336e-06 1.0451974)
(1.1313463e-06 -3.1515132e-06 1.0451963)
(-2.3513246e-06 -3.0787345e-06 1.0451968)
(-5.9887343e-06 -2.9669915e-06 1.045194)
(-2.82178e-06 -2.82178e-06 1.0451925)
(-8.2713243e-07 -2.6464011e-06 1.0451918)
(9.7387962e-07 -2.4353543e-06 1.045192)
(2.6177173e-06 -2.177209e-06 1.045193)
(3.8433805e-06 -1.8677646e-06 1.0451948)
(2.1904285e-06 -1.5234587e-06 1.0451971)
(3.0095222e-08 -1.2421368e-06 1.0451967)
(1.1570009e-06 -1.2876061e-06 1.0451955)
(-2.2479292e-06 -1.1776063e-06 1.0451961)
(-5.8417397e-06 -1.0157471e-06 1.0451933)
(-2.6464011e-06 -8.2713242e-07 1.0451918)
(-6.2932145e-07 -6.2932145e-07 1.0451913)
(1.1969613e-06 -4.2590925e-07 1.0451916)
(2.8676243e-06 -2.1366602e-07 1.0451926)
(4.1039868e-06 4.2359517e-09 1.0451945)
(2.4053801e-06 2.0520703e-07 1.045197)
(8.721774e-08 3.3225593e-07 1.0451966)
(1.2046795e-06 2.5686348e-07 1.0451954)
(-2.0794657e-06 4.7696746e-07 1.0451961)
(-5.6382605e-06 7.2776923e-07 1.0451934)
(-2.4353543e-06 9.7387962e-07 1.045192)
(-4.2590926e-07 1.1969613e-06 1.0451916)
(1.3895351e-06 1.3895351e-06 1.0451919)
(3.0478625e-06 1.5544874e-06 1.0451931)
(4.2622535e-06 1.6901075e-06 1.045195)
(2.5184485e-06 1.7876788e-06 1.0451976)
(1.1479449e-07 1.8353379e-06 1.0451972)
(1.3037369e-06 1.3879952e-06 1.045196)
(-1.7770235e-06 1.8712063e-06 1.0451968)
(-5.3448276e-06 2.3000346e-06 1.0451942)
(-2.177209e-06 2.6177173e-06 1.045193)
(-2.1366602e-07 2.8676243e-06 1.0451926)
(1.5544874e-06 3.0478625e-06 1.0451931)
(3.1681967e-06 3.1681967e-06 1.0451943)
(4.3371782e-06 3.2294582e-06 1.0451963)
(2.5506105e-06 3.2288129e-06 1.0451989)
(1.189905e-07 3.1853014e-06 1.0451985)
(1.5268202e-06 1.64145e-06 1.0451971)
(-1.1674262e-06 2.6103727e-06 1.0451982)
(-4.8917495e-06 3.4502365e-06 1.0451958)
(-1.8677646e-06 3.8433805e-06 1.0451948)
(4.2359495e-09 4.1039868e-06 1.0451945)
(1.6901075e-06 4.2622535e-06 1.045195)
(3.2294582e-06 4.3371782e-06 1.0451963)
(4.3228697e-06 4.3228697e-06 1.0451983)
(2.4742917e-06 4.1875123e-06 1.0452008)
(8.578682e-08 3.9194729e-06 1.0452005)
(1.9496853e-06 -1.6749917e-07 1.045198)
(3.176314e-08 3.5371248e-07 1.0451998)
(-4.1118198e-06 1.7797522e-06 1.045198)
(-1.5234587e-06 2.1904285e-06 1.0451971)
(2.0520704e-07 2.4053801e-06 1.045197)
(1.7876788e-06 2.5184485e-06 1.0451976)
(3.2288129e-06 2.5506105e-06 1.0451989)
(4.1875123e-06 2.4742917e-06 1.0452008)
(2.1472137e-06 2.1472137e-06 1.0452032)
(-5.9702425e-08 1.0850456e-06 1.0452026)
(1.8742947e-06 -5.9903823e-07 1.0451968)
(7.7982518e-07 -6.7442893e-07 1.0451986)
(-3.0550336e-06 -1.0033022e-07 1.0451974)
(-1.2421368e-06 3.0095221e-08 1.0451967)
(3.3225594e-07 8.7217738e-08 1.0451966)
(1.8353379e-06 1.1479449e-07 1.0451972)
(3.1853014e-06 1.189905e-07 1.0451985)
(3.9194729e-06 8.5786818e-08 1.0452005)
(1.0850456e-06 -5.9702425e-08 1.0452026)
(-6.2232518e-07 -6.2232518e-07 1.0452003)
(4.7039002e-06 4.7039002e-06 1.045839)
(1.1246764e-06 1.028627e-06 1.0458415)
(-8.7750198e-06 1.2832347e-06 1.0458387)
(-4.2707646e-06 1.3143359e-06 1.0458372)
(-1.6420324e-06 1.3509909e-06 1.0458366)
(6.0249456e-07 1.4185049e-06 1.0458367)
(2.3317817e-06 1.5583892e-06 1.0458374)
(2.8608646e-06 1.8806669e-06 1.0458387)
(-8.3406287e-08 2.5310755e-06 1.0458401)
(-9.533982e-07 2.4197094e-06 1.0458391)
(1.028627e-06 1.1246764e-06 1.0458415)
(-4.0063223e-06 -4.0063223e-06 1.0458419)
(-8.3464564e-06 -3.5298241e-06 1.0458392)
(-4.1691302e-06 -3.4158426e-06 1.0458378)
(-1.485779e-06 -3.2672556e-06 1.0458372)
(9.1359201e-07 -3.026493e-06 1.0458373)
(3.0250248e-06 -2.596315e-06 1.0458382)
(4.319894e-06 -1.7225207e-06 1.0458398)
(7.2515751e-07 5.7741637e-08 1.0458418)
(-1.0647643e-06 1.064121e-06 1.0458407)
(1.2832347e-06 -8.7750198e-06 1.0458387)
(-3.5298241e-06 -8.3464564e-06 1.0458392)
(-8.1845402e-06 -8.1845401e-06 1.0458366)
(-4.0081961e-06 -8.0261286e-06 1.0458352)
(-1.2526828e-06 -7.8144042e-06 1.0458346)
(1.2734351e-06 -7.5217614e-06 1.0458349)
(3.635754e-06 -7.1006693e-06 1.0458359)
(5.5149211e-06 -6.4541468e-06 1.0458377)
(2.7032353e-06 -5.337005e-06 1.0458402)
(-2.8247866e-07 -3.8804753e-06 1.0458397)
(1.3143359e-06 -4.2707646e-06 1.0458372)
(-3.4158426e-06 -4.1691302e-06 1.0458378)
(-8.0261286e-06 -4.0081961e-06 1.0458352)
(-3.7989942e-06 -3.7989942e-06 1.0458339)
(-9.8141175e-07 -3.5468475e-06 1.0458334)
(1.6273269e-06 -3.2437532e-06 1.0458337)
(4.0926394e-06 -2.8731248e-06 1.0458348)
(6.0835583e-06 -2.4292761e-06 1.0458368)
(3.2988291e-06 -1.9319569e-06 1.0458395)
(-9.3744414e-08 -1.5261133e-06 1.0458392)
(1.3509909e-06 -1.6420324e-06 1.0458366)
(-3.2672556e-06 -1.485779e-06 1.0458372)
(-7.8144042e-06 -1.2526828e-06 1.0458346)
(-3.5468475e-06 -9.8141175e-07 1.0458334)
(-6.9744176e-07 -6.9744177e-07 1.045833)
(1.9471578e-06 -4.0576122e-07 1.0458334)
(4.4502311e-06 -1.0185611e-07 1.0458346)
(6.4560891e-06 2.0932957e-07 1.0458367)
(3.6063982e-06 4.9608425e-07 1.0458395)
(-1.1916251e-08 6.7732635e-07 1.0458393)
(1.4185049e-06 6.0249455e-07 1.0458367)
(-3.026493e-06 9.13592e-07 1.0458373)
(-7.5217614e-06 1.2734351e-06 1.0458349)
(-3.2437532e-06 1.6273269e-06 1.0458337)
(-4.0576122e-07 1.9471578e-06 1.0458334)
(2.2229126e-06 2.2229126e-06 1.0458339)
(4.7077302e-06 2.4584855e-06 1.0458352)
(6.6814986e-06 2.6512054e-06 1.0458373)
(3.7668259e-06 2.7887106e-06 1.0458402)
(2.7083655e-08 2.8549859e-06 1.04584)
(1.5583892e-06 2.3317817e-06 1.0458374)
(-2.596315e-06 3.0250248e-06 1.0458382)
(-7.1006693e-06 3.635754e-06 1.0458359)
(-2.8731248e-06 4.0926394e-06 1.0458348)
(-1.0185611e-07 4.4502311e-06 1.0458346)
(2.4584855e-06 4.7077302e-06 1.0458352)
(4.8785239e-06 4.8785239e-06 1.0458366)
(6.7863141e-06 4.9631848e-06 1.0458388)
(3.8101787e-06 4.956651e-06 1.0458416)
(3.2267278e-08 4.886784e-06 1.0458415)
(1.8806669e-06 2.8608646e-06 1.0458387)
(-1.7225206e-06 4.319894e-06 1.0458398)
(-6.4541468e-06 5.5149211e-06 1.0458377)
(-2.4292761e-06 6.0835583e-06 1.0458368)
(2.0932957e-07 6.4560891e-06 1.0458367)
(2.6512054e-06 6.6814987e-06 1.0458373)
(4.9631848e-06 6.7863141e-06 1.0458388)
(6.7596258e-06 6.7596258e-06 1.045841)
(3.690425e-06 6.544509e-06 1.0458438)
(-1.9494389e-08 6.0903002e-06 1.0458436)
(2.5310755e-06 -8.3406275e-08 1.0458401)
(5.7741643e-08 7.2515751e-07 1.0458418)
(-5.337005e-06 2.7032353e-06 1.0458402)
(-1.9319569e-06 3.2988291e-06 1.0458395)
(4.9608426e-07 3.6063982e-06 1.0458395)
(2.7887106e-06 3.7668259e-06 1.0458402)
(4.956651e-06 3.8101787e-06 1.0458416)
(6.5445089e-06 3.690425e-06 1.0458438)
(3.1408531e-06 3.1408531e-06 1.0458465)
(-2.7053854e-07 9.4019805e-07 1.045846)
(2.4197094e-06 -9.5339819e-07 1.0458391)
(1.064121e-06 -1.0647643e-06 1.0458407)
(-3.8804753e-06 -2.8247866e-07 1.0458397)
(-1.5261133e-06 -9.3744412e-08 1.0458392)
(6.7732635e-07 -1.1916251e-08 1.0458393)
(2.8549859e-06 2.7083649e-08 1.04584)
(4.886784e-06 3.2267274e-08 1.0458415)
(6.0903002e-06 -1.9494394e-08 1.0458436)
(9.4019805e-07 -2.7053854e-07 1.045846)
(-1.4865977e-06 -1.4865977e-06 1.0458434)
(5.4888672e-06 5.4888672e-06 1.0467022)
(9.4124644e-07 1.149502e-06 1.0467044)
(-1.0817291e-05 1.4492295e-06 1.0467018)
(-5.2406148e-06 1.4899166e-06 1.0467005)
(-1.8550816e-06 1.5378655e-06 1.0466999)
(1.0933817e-06 1.6251071e-06 1.0467002)
(3.4418835e-06 1.8051591e-06 1.046701)
(4.294632e-06 2.223917e-06 1.0467025)
(2.5414131e-07 3.0964169e-06 1.0467041)
(-1.2211284e-06 2.9310499e-06 1.0467033)
(1.149502e-06 9.4124644e-07 1.0467044)
(-5.1182108e-06 -5.1182108e-06 1.0467047)
(-1.030667e-05 -4.5474151e-06 1.0467022)
(-5.1076608e-06 -4.3973335e-06 1.046701)
(-1.6522959e-06 -4.2030252e-06 1.0467005)
(1.4943222e-06 -3.8907368e-06 1.0467007)
(4.3400983e-06 -3.3351135e-06 1.0467018)
(6.2315187e-06 -2.2039715e-06 1.0467035)
(1.3148409e-06 1.4432345e-07 1.0467057)
(-1.3864954e-06 1.3627099e-06 1.0467048)
(1.4492295e-06 -1.0817291e-05 1.0467018)
(-4.5474151e-06 -1.030667e-05 1.0467022)
(-1.0096414e-05 -1.0096414e-05 1.0466998)
(-4.8962249e-06 -9.887961e-06 1.0466985)
(-1.3484849e-06 -9.6116905e-06 1.0466981)
(1.9612933e-06 -9.2312966e-06 1.0466985)
(5.1286487e-06 -8.6851816e-06 1.0466996)
(7.7740688e-06 -7.8500778e-06 1.0467016)
(3.8208226e-06 -6.4027746e-06 1.0467042)
(-4.0887081e-07 -4.5699798e-06 1.0467039)
(1.4899166e-06 -5.2406148e-06 1.0467005)
(-4.3973335e-06 -5.1076608e-06 1.046701)
(-9.887961e-06 -4.8962249e-06 1.0466985)
(-4.6229371e-06 -4.6229371e-06 1.0466974)
(-9.9563151e-07 -4.2948913e-06 1.046697)
(2.4208311e-06 -3.9014488e-06 1.0466975)
(5.7213172e-06 -3.4208835e-06 1.0466987)
(8.5139257e-06 -2.846309e-06 1.0467008)
(4.594939e-06 -2.1997694e-06 1.0467037)
(-1.6463213e-07 -1.6749759e-06 1.0467036)
(1.5378655e-06 -1.8550817e-06 1.0466999)
(-4.2030252e-06 -1.6522959e-06 1.0467005)
(-9.6116905e-06 -1.3484849e-06 1.0466981)
(-4.2948913e-06 -9.9563151e-07 1.046697)
(-6.2699665e-07 -6.2699664e-07 1.0466967)
(2.8353011e-06 -2.4894494e-07 1.0466973)
(6.1837885e-06 1.4428648e-07 1.0466986)
(8.9951828e-06 5.4589466e-07 1.0467009)
(4.9921558e-06 9.1559507e-07 1.0467038)
(-5.9008451e-08 1.148816e-06 1.0467038)
(1.6251071e-06 1.0933817e-06 1.0467002)
(-3.8907368e-06 1.4943222e-06 1.0467007)
(-9.2312966e-06 1.9612933e-06 1.0466985)
(-3.9014488e-06 2.4208311e-06 1.0466975)
(-2.4894495e-07 2.8353011e-06 1.0466973)
(3.1921142e-06 3.1921142e-06 1.0466979)
(6.5161568e-06 3.4960455e-06 1.0466993)
(9.2852343e-06 3.743388e-06 1.0467016)
(5.1978604e-06 3.9184471e-06 1.0467046)
(-9.1515195e-09 4.0017838e-06 1.0467046)
(1.8051591e-06 3.4418835e-06 1.046701)
(-3.3351135e-06 4.3400983e-06 1.0467018)
(-8.6851816e-06 5.1286487e-06 1.0466996)
(-3.4208835e-06 5.7213172e-06 1.0466987)
(1.4428648e-07 6.1837885e-06 1.0466986)
(3.4960455e-06 6.5161568e-06 1.0466993)
(6.7350622e-06 6.7350623e-06 1.0467008)
(9.4175844e-06 6.8406651e-06 1.0467031)
(5.2505516e-06 6.8262844e-06 1.0467062)
(-3.4506358e-09 6.7302559e-06 1.0467062)
(2.223917e-06 4.294632e-06 1.0467025)
(-2.2039714e-06 6.2315187e-06 1.0467035)
(-7.8500778e-06 7.7740688e-06 1.0467016)
(-2.846309e-06 8.5139257e-06 1.0467008)
(5.4589467e-07 8.9951828e-06 1.0467009)
(3.743388e-06 9.2852343e-06 1.0467016)
(6.8406651e-06 9.4175844e-06 1.0467031)
(9.3764565e-06 9.3764565e-06 1.0467055)
(5.0874512e-06 9.0824815e-06 1.0467085)
(-7.3170525e-08 8.4500258e-06 1.0467084)
(3.0964169e-06 2.5414131e-07 1.0467041)
(1.4432344e-07 1.3148409e-06 1.0467057)
(-6.4027747e-06 3.8208226e-06 1.0467042)
(-2.1997694e-06 4.594939e-06 1.0467037)
(9.1559509e-07 4.9921558e-06 1.0467038)
(3.9184471e-06 5.1978604e-06 1.0467046)
(6.8262844e-06 5.2505516e-06 1.0467062)
(9.0824815e-06 5.0874512e-06 1.0467085)
(4.3241209e-06 4.3241209e-06 1.0467114)
(-4.2508781e-07 8.984703e-07 1.046711)
(2.9310499e-06 -1.2211284e-06 1.0467033)
(1.3627099e-06 -1.3864954e-06 1.0467048)
(-4.5699798e-06 -4.088708e-07 1.0467039)
(-1.6749759e-06 -1.6463212e-07 1.0467036)
(1.148816e-06 -5.9008448e-08 1.0467038)
(4.0017838e-06 -9.151522e-09 1.0467046)
(6.7302559e-06 -3.4506383e-09 1.0467062)
(8.4500258e-06 -7.3170525e-08 1.0467084)
(8.9847029e-07 -4.2508781e-07 1.046711)
(-2.3569375e-06 -2.3569375e-06 1.0467085)
(6.213038e-06 6.213038e-06 1.0477791)
(7.3150963e-07 1.246452e-06 1.0477812)
(-1.2732233e-05 1.592818e-06 1.0477787)
(-6.0859978e-06 1.6439647e-06 1.0477775)
(-1.9445938e-06 1.7033286e-06 1.0477771)
(1.709033e-06 1.8099266e-06 1.0477774)
(4.6825811e-06 2.0291543e-06 1.0477784)
(5.8718279e-06 2.5419176e-06 1.04778)
(7.605501e-07 3.6321984e-06 1.0477817)
(-1.4270072e-06 3.4144396e-06 1.0477811)
(1.246452e-06 7.3150963e-07 1.0477812)
(-6.1988212e-06 -6.1988212e-06 1.0477814)
(-1.2135964e-05 -5.5291222e-06 1.0477791)
(-5.920232e-06 -5.3406416e-06 1.0477779)
(-1.6956509e-06 -5.1004818e-06 1.0477775)
(2.1977715e-06 -4.7180874e-06 1.0477779)
(5.7805675e-06 -4.0403008e-06 1.047779)
(8.2763942e-06 -2.6590128e-06 1.0477809)
(2.0693333e-06 2.4438967e-07 1.0477832)
(-1.6447661e-06 1.6645277e-06 1.0477825)
(1.592818e-06 -1.2732233e-05 1.0477787)
(-5.5291222e-06 -1.2135964e-05 1.0477791)
(-1.1874053e-05 -1.1874053e-05 1.0477767)
(-5.6573574e-06 -1.1614323e-05 1.0477756)
(-1.3220396e-06 -1.1273979e-05 1.0477753)
(2.7692138e-06 -1.0807716e-05 1.0477758)
(6.7416556e-06 -1.0140017e-05 1.047777)
(1.0156518e-05 -9.1222292e-06 1.0477791)
(5.0840905e-06 -7.3540488e-06 1.0477819)
(-4.8024861e-07 -5.1611903e-06 1.0477817)
(1.6439647e-06 -6.0859978e-06 1.0477775)
(-5.3406417e-06 -5.920232e-06 1.0477779)
(-1.1614323e-05 -5.6573574e-06 1.0477756)
(-5.3201574e-06 -5.3201574e-06 1.0477746)
(-8.8904453e-07 -4.9174065e-06 1.0477743)
(3.3317332e-06 -4.4357365e-06 1.0477749)
(7.4660546e-06 -3.8483126e-06 1.0477762)
(1.1062363e-05 -3.1471916e-06 1.0477784)
(6.0303725e-06 -2.3560433e-06 1.0477814)
(-1.8286039e-07 -1.7172433e-06 1.0477814)
(1.7033286e-06 -1.9445938e-06 1.0477771)
(-5.1004818e-06 -1.6956509e-06 1.0477775)
(-1.1273979e-05 -1.3220396e-06 1.0477753)
(-4.9174065e-06 -8.8904453e-07 1.0477743)
(-4.3761873e-07 -4.3761872e-07 1.0477742)
(3.8383077e-06 2.4537226e-08 1.0477748)
(8.0302005e-06 5.0442588e-07 1.0477763)
(1.1648787e-05 9.9339538e-07 1.0477786)
(6.5140389e-06 1.4430779e-06 1.0477816)
(-5.438194e-08 1.7260839e-06 1.0477817)
(1.8099266e-06 1.709033e-06 1.0477774)
(-4.7180874e-06 2.1977715e-06 1.0477779)
(-1.0807716e-05 2.7692138e-06 1.0477758)
(-4.4357365e-06 3.3317332e-06 1.0477749)
(2.4537228e-08 3.8383077e-06 1.0477748)
(4.2737778e-06 4.2737778e-06 1.0477755)
(8.4349127e-06 4.6437279e-06 1.0477771)
(1.2001015e-05 4.9433978e-06 1.0477794)
(6.7630611e-06 5.1539726e-06 1.0477825)
(5.8102706e-09 5.2529739e-06 1.0477827)
(2.0291543e-06 4.6825811e-06 1.0477784)
(-4.0403009e-06 5.7805675e-06 1.047779)
(-1.0140017e-05 6.7416556e-06 1.047777)
(-3.8483126e-06 7.4660546e-06 1.0477762)
(5.0442589e-07 8.0302005e-06 1.0477763)
(4.6437279e-06 8.4349127e-06 1.0477771)
(8.6998205e-06 8.6998205e-06 1.0477786)
(1.2159032e-05 8.8245229e-06 1.0477811)
(6.823615e-06 8.800865e-06 1.0477842)
(1.1618937e-08 8.678091e-06 1.0477843)
(2.5419176e-06 5.8718279e-06 1.04778)
(-2.6590128e-06 8.2763942e-06 1.0477809)
(-9.1222292e-06 1.0156518e-05 1.0477791)
(-3.1471916e-06 1.1062363e-05 1.0477784)
(9.9339539e-07 1.1648787e-05 1.0477786)
(4.9433979e-06 1.2001015e-05 1.0477794)
(8.8245229e-06 1.2159032e-05 1.0477811)
(1.2102059e-05 1.2102059e-05 1.0477835)
(6.6166292e-06 1.1729787e-05 1.0477866)
(-7.6039061e-08 1.0926251e-05 1.0477866)
(3.6321984e-06 7.6055009e-07 1.0477817)
(2.4438968e-07 2.0693333e-06 1.0477832)
(-7.3540487e-06 5.0840905e-06 1.0477819)
(-2.3560433e-06 6.0303725e-06 1.0477814)
(1.4430779e-06 6.5140389e-06 1.0477816)
(5.1539726e-06 6.7630611e-06 1.0477825)
(8.800865e-06 6.823615e-06 1.0477842)
(1.1729787e-05 6.6166292e-06 1.0477866)
(5.6478069e-06 5.6478069e-06 1.0477895)
(-5.2407171e-07 9.9691849e-07 1.0477893)
(3.4144396e-06 -1.4270072e-06 1.0477811)
(1.6645277e-06 -1.6447661e-06 1.0477825)
(-5.1611903e-06 -4.8024861e-07 1.0477817)
(-1.7172433e-06 -1.8286039e-07 1.0477814)
(1.7260839e-06 -5.4381936e-08 1.0477817)
(5.2529739e-06 5.8102641e-09 1.0477827)
(8.678091e-06 1.1618945e-08 1.0477843)
(1.0926251e-05 -7.6039057e-08 1.0477866)
(9.9691848e-07 -5.2407171e-07 1.0477893)
(-3.1766311e-06 -3.1766311e-06 1.047787)
(6.8710727e-06 6.8710727e-06 1.0490603)
(4.8374747e-07 1.3150072e-06 1.0490622)
(-1.4532594e-05 1.708004e-06 1.0490598)
(-6.8255021e-06 1.7700627e-06 1.0490587)
(-1.9310985e-06 1.8408028e-06 1.0490584)
(2.4239308e-06 1.9662356e-06 1.0490588)
(6.0197703e-06 2.2233566e-06 1.0490599)
(7.5480515e-06 2.8271248e-06 1.0490615)
(1.3962193e-06 4.1296944e-06 1.0490633)
(-1.5808807e-06 3.8663109e-06 1.0490629)
(1.3150072e-06 4.8374747e-07 1.0490622)
(-7.2608567e-06 -7.2608567e-06 1.0490623)
(-1.3850011e-05 -6.4910748e-06 1.0490601)
(-6.6263038e-06 -6.2630184e-06 1.049059)
(-1.6368392e-06 -5.9773835e-06 1.0490587)
(2.9977614e-06 -5.5267666e-06 1.0490592)
(7.311104e-06 -4.7308538e-06 1.0490604)
(1.0407558e-05 -3.1078978e-06 1.0490623)
(2.9549987e-06 3.3451534e-07 1.0490647)
(-1.8442642e-06 1.9552476e-06 1.0490642)
(1.708004e-06 -1.4532594e-05 1.0490598)
(-6.4910748e-06 -1.3850011e-05 1.0490601)
(-1.3534756e-05 -1.3534756e-05 1.0490578)
(-6.3118108e-06 -1.322332e-05 1.0490568)
(-1.1948468e-06 -1.2819886e-05 1.0490566)
(3.6704604e-06 -1.2270111e-05 1.0490572)
(8.4386388e-06 -1.1484847e-05 1.0490585)
(1.261342e-05 -1.0291e-05 1.0490606)
(6.4593646e-06 -8.213049e-06 1.0490635)
(-5.003926e-07 -5.6746325e-06 1.0490635)
(1.7700627e-06 -6.8255021e-06 1.0490587)
(-6.2630184e-06 -6.6263038e-06 1.049059)
(-1.322332e-05 -6.3118108e-06 1.0490568)
(-5.9114345e-06 -5.9114345e-06 1.0490559)
(-6.8362977e-07 -5.4356333e-06 1.0490558)
(4.3328005e-06 -4.8682935e-06 1.0490564)
(9.2902142e-06 -4.1775403e-06 1.0490578)
(1.3679357e-05 -3.354434e-06 1.0490601)
(7.5713671e-06 -2.4238439e-06 1.0490631)
(-1.5198647e-07 -1.675612e-06 1.0490632)
(1.8408028e-06 -1.9310985e-06 1.0490584)
(-5.9773835e-06 -1.6368392e-06 1.0490587)
(-1.2819886e-05 -1.1948468e-06 1.0490566)
(-5.4356333e-06 -6.8362976e-07 1.0490558)
(-1.5170584e-07 -1.5170584e-07 1.0490557)
(4.9285534e-06 3.9193765e-07 1.0490564)
(9.9524983e-06 9.5554382e-07 1.0490579)
(1.4367117e-05 1.5286849e-06 1.0490603)
(8.1381868e-06 2.0553497e-06 1.0490634)
(-1.5713307e-09 2.3861176e-06 1.0490636)
(1.9662356e-06 2.4239308e-06 1.0490588)
(-5.5267666e-06 2.9977614e-06 1.0490592)
(-1.2270111e-05 3.6704604e-06 1.0490572)
(-4.8682935e-06 4.3328005e-06 1.0490564)
(3.9193764e-07 4.9285534e-06 1.0490564)
(5.4400502e-06 5.4400501e-06 1.0490572)
(1.0426961e-05 5.873666e-06 1.0490588)
(1.4779162e-05 6.2236468e-06 1.0490612)
(8.4287999e-06 6.4682526e-06 1.0490644)
(6.8525482e-08 6.5821369e-06 1.0490646)
(2.2233566e-06 6.0197703e-06 1.0490599)
(-4.7308538e-06 7.311104e-06 1.0490604)
(-1.1484847e-05 8.4386388e-06 1.0490585)
(-4.1775403e-06 9.2902141e-06 1.0490578)
(9.5554381e-07 9.9524983e-06 1.0490579)
(5.873666e-06 1.0426961e-05 1.0490588)
(1.0736095e-05 1.0736095e-05 1.0490604)
(1.4961703e-05 1.0878968e-05 1.0490629)
(8.4966769e-06 1.0846069e-05 1.0490661)
(7.4351509e-08 1.069722e-05 1.0490663)
(2.8271248e-06 7.5480515e-06 1.0490615)
(-3.1078978e-06 1.0407558e-05 1.0490623)
(-1.0291e-05 1.261342e-05 1.0490606)
(-3.354434e-06 1.3679357e-05 1.0490601)
(1.5286849e-06 1.4367117e-05 1.0490603)
(6.2236468e-06 1.4779162e-05 1.0490612)
(1.0878968e-05 1.4961703e-05 1.0490629)
(1.4889137e-05 1.4889137e-05 1.0490654)
(8.2470515e-06 1.444134e-05 1.0490685)
(-3.0707592e-08 1.3474473e-05 1.0490687)
(4.1296944e-06 1.3962193e-06 1.0490633)
(3.3451533e-07 2.9549987e-06 1.0490647)
(-8.213049e-06 6.4593646e-06 1.0490635)
(-2.4238439e-06 7.5713671e-06 1.0490631)
(2.0553497e-06 8.1381868e-06 1.0490634)
(6.4682527e-06 8.4287999e-06 1.0490644)
(1.0846069e-05 8.4966769e-06 1.0490661)
(1.444134e-05 8.2470515e-06 1.0490685)
(7.0820134e-06 7.0820134e-06 1.0490715)
(-5.7022614e-07 1.2344262e-06 1.0490715)
(3.8663109e-06 -1.5808807e-06 1.0490629)
(1.9552476e-06 -1.8442642e-06 1.0490642)
(-5.6746325e-06 -5.003926e-07 1.0490635)
(-1.675612e-06 -1.5198646e-07 1.0490632)
(2.3861176e-06 -1.5713292e-09 1.0490636)
(6.5821369e-06 6.8525481e-08 1.0490646)
(1.069722e-05 7.4351513e-08 1.0490663)
(1.3474473e-05 -3.0707594e-08 1.0490687)
(1.2344262e-06 -5.7022615e-07 1.0490715)
(-3.9290988e-06 -3.9290988e-06 1.0490693)
(7.458199e-06 7.458199e-06 1.0505349)
(1.9217281e-07 1.3533832e-06 1.0505365)
(-1.6222186e-05 1.7921981e-06 1.0505342)
(-7.4723189e-06 1.8653573e-06 1.0505332)
(-1.8332e-06 1.9472993e-06 1.050533)
(3.2137436e-06 2.0909184e-06 1.0505335)
(7.4229385e-06 2.3844232e-06 1.0505346)
(9.2888498e-06 3.0756562e-06 1.0505363)
(2.1356445e-06 4.5836208e-06 1.0505382)
(-1.6879677e-06 4.2824972e-06 1.0505379)
(1.3533832e-06 1.9217281e-07 1.0505365)
(-8.3068297e-06 -8.3068297e-06 1.0505366)
(-1.5454225e-05 -7.4377171e-06 1.0505344)
(-7.2396672e-06 -7.1697118e-06 1.0505335)
(-1.4948584e-06 -6.8394551e-06 1.0505333)
(3.8694295e-06 -6.3229392e-06 1.0505338)