/*--------------------------------*- C++ -*----------------------------------*\
| =========                 |                                                 |
| \\      /  F ield         | OpenFOAM: The Open Source CFD Toolbox           |
|  \\    /   O peration     | Version:  v2106                                 |
|   \\  /    A nd           | Website:  www.openfoam.com                      |
|    \\/     M anipulation  |                                                 |
\*---------------------------------------------------------------------------*/
FoamFile
{
    version     2.0;
    format      ascii;
    arch        "LSB;label=32;scalar=64";
    class       volScalarField;
    location    "47.5";
    object      gradTy;
}
// * * * * * * * * * * * * * * * * * * * * * * * * * * * * * * * * * * * * * //

dimensions      [0 -1 0 1 0 0 0];

internalField   nonuniform List<scalar> 
4000
(
0.00061721401
0.00011316147
0.00017010798
0.00017289805
0.00017517918
0.00017950143
0.00018819116
0.00020584233
0.00023405332
0.00024085597
0.00034744544
-0.0003232136
-0.000230451
-0.00022259427
-0.00021349302
-0.00019838907
-0.00017155978
-0.00012037902
-2.8826023e-05
6.8203733e-05
-0.00077428281
-0.00068467794
-0.00067366348
-0.0006645458
-0.00065159038
-0.00063350053
-0.00060732914
-0.00056698178
-0.0005000961
-0.00039880631
-0.0002981337
-0.0002905269
-0.00028117573
-0.0002684538
-0.00025286827
-0.00023407583
-0.0002110909
-0.00018359656
-0.00015423011
-0.00013193478
-0.00012887414
-0.00011896908
-0.00010466894
-8.7923802e-05
-7.0290972e-05
-5.2144472e-05
-3.3164818e-05
-1.3544895e-05
4.6720402e-06
1.6403448e-05
6.757925e-06
2.6275897e-05
4.8691176e-05
7.053714e-05
9.0468552e-05
0.00010766328
0.0001224407
0.00013468932
0.00014369993
0.00014845118
0.00010148997
0.00014100133
0.00017950004
0.00020752009
0.00022997931
0.00024611967
0.00025700534
0.00026287151
0.00026384575
0.00026184665
0.00012717857
0.0001959718
0.00026991232
0.00030320483
0.0003267731
0.0003410417
0.00034803233
0.0003478821
0.00034002409
0.00032782805
5.8415318e-05
0.00011093578
0.00024699807
0.00027911124
0.00029865984
0.00030905959
0.0003124217
0.00030803472
0.00029236766
0.00026480051
-4.5258414e-07
6.3500711e-06
6.4233923e-05
7.3876598e-05
7.9097478e-05
8.1697537e-05
8.2264978e-05
8.0364803e-05
7.4134288e-05
6.1986707e-05
0.0022242268
0.00058033793
0.00071663412
0.00072843663
0.00073983775
0.00076094112
0.00080385893
0.00089338134
0.0010362349
0.00096261488
0.00109235
-0.001169039
-0.00092725219
-0.00088889301
-0.00084359364
-0.00076973528
-0.00063772773
-0.00038087539
8.3529482e-05
0.00037515798
-0.003197291
-0.002975143
-0.0029171451
-0.0028690814
-0.0028052187
-0.0027167635
-0.0025886891
-0.0023892397
-0.00204808
-0.0015642853
-0.0014443208
-0.0014095153
-0.0013606622
-0.001297589
-0.0012213189
-0.0011295472
-0.0010174036
-0.0008830972
-0.00073558398
-0.00061660062
-0.00061178037
-0.00056302362
-0.00049262263
-0.00041070567
-0.00032458085
-0.0002359703
-0.00014340277
-4.8107875e-05
3.9882752e-05
9.5506396e-05
5.4256012e-05
0.00015028779
0.00026012192
0.00036681738
0.00046403725
0.00054799546
0.00062006954
0.00067964182
0.00072305581
0.00074498929
0.00052186614
0.00072052645
0.00091072603
0.0010480503
0.001157176
0.0012359127
0.0012888224
0.0013167574
0.0013196611
0.0013064373
0.00062900527
0.00097756929
0.0013502625
0.0015181784
0.0016320821
0.0017014639
0.0017350683
0.0017323026
0.0016867506
0.0016088989
0.00014009744
0.00024394775
0.0008961308
0.0010689021
0.0011626274
0.0012125164
0.0012279748
0.0012021963
0.0011045712
0.00088752864
-9.4705449e-05
-0.00016832552
9.9713546e-05
0.00015420432
0.00017903578
0.00019128675
0.00019365811
0.0001824709
0.00014175696
3.7775892e-05
0.0029869188
0.00069284306
0.00085837501
0.00087608057
0.00089594677
0.00093286761
0.0010095747
0.0011823237
0.0015097777
0.0014513975
0.001005673
-0.0021871427
-0.0018836168
-0.0018207951
-0.0017407288
-0.0016102757
-0.0013760735
-0.00090401976
2.4596411e-05
0.00060387317
-0.0050889932
-0.0048141369
-0.0047226456
-0.004637496
-0.0045236678
-0.0043660996
-0.004138874
-0.0037880239
-0.0031840696
-0.0023657262
-0.0024404371
-0.0023840795
-0.0022975491
-0.0021851017
-0.0020492936
-0.0018858653
-0.0016859653
-0.0014463408
-0.0011797207
-0.00096187341
-0.00099708346
-0.00091190289
-0.00078656408
-0.00064050653
-0.00048732765
-0.00032981135
-0.00016545655
3.2801938e-06
0.00015890616
0.00025728901
0.00019890736
0.00036934926
0.00056356264
0.00075414316
0.00092689092
0.0010760143
0.0012037484
0.0013087685
0.0013843247
0.0014212305
0.0010748218
0.0014490059
0.0017810777
0.0020270817
0.0022206022
0.0023601732
0.0024533564
0.0025007954
0.0025002957
0.0024666016
0.0012710896
0.0020213941
0.0026717595
0.0029761984
0.0031780042
0.0033005611
0.0033585805
0.0033475004
0.0032426836
0.0030351219
-0.00012970632
0.0002739043
0.0013781866
0.001696202
0.001862654
0.0019502108
0.0019751161
0.0019160171
0.0016627376
0.00084022668
-0.0004638772
-0.00052225747
-7.7692706e-05
2.3304835e-05
6.7538795e-05
8.8893401e-05
9.2142668e-05
6.6430731e-05
-4.6231761e-05
-0.00048190989
0.0036199362
0.00079159074
0.00098752683
0.0010114612
0.0010396694
0.0010916255
0.001199275
0.0014472872
0.0019478159
0.001862113
0.00086550659
-0.0030831075
-0.0027164134
-0.0026286979
-0.0025143512
-0.0023290698
-0.0019980218
-0.001325584
4.4435686e-05
0.00081890556
-0.0067529094
-0.0064231037
-0.0062984998
-0.0061765927
-0.006013658
-0.0057884516
-0.0054643956
-0.0049668572
-0.0041071488
-0.0029862609
-0.0032866122
-0.0032083983
-0.0030845499
-0.0029235565
-0.0027295144
-0.0024962649
-0.0022110438
-0.0018694753
-0.0014867579
-0.0011744367
-0.0012636435
-0.001143397
-0.0009640154
-0.00075525589
-0.00053672377
-0.00031225788
-7.8384456e-05
0.0001610918
0.0003817669
0.00052124368
0.00046365609
0.00070306442
0.00097998553
0.0012523268
0.0014984561
0.0017106661
0.0018919538
0.0020402633
0.0021460818
0.0021970847
0.0017944474
0.0023279399
0.0027979332
0.0031495343
0.0034247228
0.003622884
0.00375432
0.0038194716
0.0038144433
0.0037606763
0.0022016087
0.0033244201
0.0042440661
0.004681667
0.0049683521
0.0051418184
0.0052224801
0.0052019416
0.005036396
0.0046868549
-6.4186183e-05
0.00055805262
0.0020803034
0.0025386489
0.002775342
0.0028988008
0.0029321633
0.0028400056
0.0024170766
0.00072353931
-0.00073369769
-0.00081940059
-0.00021738445
-7.2142007e-05
-9.1702774e-06
2.084251e-05
2.4831622e-05
-1.5002117e-05
-0.00020819578
-0.001144027
0.0041980854
0.00087918089
0.0011084234
0.0011395424
0.0011762155
0.0012429411
0.0013806515
0.0017009326
0.0023682523
0.0022417737
0.00071989946
-0.0039145934
-0.0034780284
-0.0033632407
-0.0032146267
-0.0029757771
-0.0025508162
-0.0016856775
0.00011038382
0.0010422501
-0.0082734581
-0.0078829157
-0.0077221053
-0.007562673
-0.0073513714
-0.0070604323
-0.0066427434
-0.0060040254
-0.004897075
-0.0034952868
-0.004008213
-0.0039065249
-0.0037448113
-0.0035357909
-0.0032848896
-0.0029839704
-0.0026164164
-0.0021769608
-0.0016824637
-0.0012810825
-0.001418834
-0.0012637361
-0.0010313704
-0.00076149531
-0.00047954992
-0.00019040218
0.00011035556
0.00041752013
0.00070028043
0.00087865628
0.00083625814
0.001142912
0.0015000686
0.00185154
0.0021685418
0.0024414455
0.0026739031
0.0028630795
0.0029969709
0.0030607099
0.0026324778
0.0033194652
0.0039225774
0.0043758721
0.004729587
0.0049837944
0.0051512211
0.0052319897
0.0052209905
0.0051475445
0.0032846909
0.0047660921
0.0059458909
0.0065117606
0.0068798436
0.0071016855
0.0072029114
0.007171455
0.0069466118
0.0064628867
0.00019437652
0.0010056381
0.0029223041
0.0035143766
0.0038181825
0.0039755127
0.0040158128
0.0038910675
0.0033072445
0.00068718268
-0.00093396345
-0.0010604421
-0.00031271926
-0.00012591664
-4.5131809e-05
-6.999417e-06
-2.6391736e-06
-5.5963475e-05
-0.00032512258
-0.0018026714
0.0047231133
0.00094754506
0.0012108505
0.0012497319
0.00129486
0.0013758952
0.0015425507
0.0019323501
0.0027611748
0.002595636
0.00055608906
-0.0047123051
-0.0042032046
-0.004059923
-0.003877355
-0.0035866611
-0.0030714119
-0.0020213651
0.00018578351
0.0012653637
-0.0096789651
-0.0092256848
-0.0090265829
-0.0088291375
-0.0085704104
-0.0082159604
-0.0077083794
-0.0069346628
-0.0055905025
-0.003923505
-0.0046265383
-0.004500524
-0.0043006887
-0.0040443515
-0.0037381828
-0.0033720201
-0.002925464
-0.0023924759
-0.0017910496
-0.0013054378
-0.0014782683
-0.0012890234
-0.0010050065
-0.00067584629
-0.00033267512
1.8653051e-05
0.0003834615
0.00075517312
0.001097019
0.0013121584
0.0012991964
0.0016707324
0.0021051395
0.0025327635
0.0029178584
0.0032489001
0.0035301338
0.0037579409
0.0039180182
0.0039932784
0.0035596695
0.0043943519
0.0051249656
0.0056756495
0.0061045098
0.0064121695
0.0066135506
0.0067083482
0.006690363
0.006597031
0.0044637275
0.0062916637
0.0077209229
0.0084095406
0.0088553372
0.0091230981
0.0092432216
0.0091999106
0.0089169109
0.008306068
0.00057816549
0.0015730943
0.0038648943
0.0045842521
0.0049519323
0.0051412373
0.0051872698
0.0050299202
0.0042934272
0.00075785116
-0.0010848021
-0.001250341
-0.00036508203
-0.00013900934
-4.1340813e-05
4.4169269e-06
8.8326499e-06
-5.7804417e-05
-0.00039839601
-0.0024148551
0.0051919869
0.0009936584
0.0012906186
0.0013375121
0.0013909655
0.0014857462
0.0016800344
0.0021362595
0.0031205197
0.0029214995
0.00036553393
-0.0054865185
-0.004904849
-0.004732523
-0.0045166889
-0.0041761894
-0.0035747738
-0.0023484199
0.00025276971
0.0014774431
-0.01098126
-0.010465479
-0.010227265
-0.009991935
-0.0096870886
-0.0092716617
-0.0086782929
-0.0077761863
-0.0062060238
-0.0042879209
-0.0051575526
-0.0050070323
-0.0047693925
-0.0044668564
-0.0041073269
-0.003678628
-0.0031566741
-0.0025347103
-0.0018315285
-0.0012661422
-0.0014591956
-0.0012368444
-0.00090286188
-0.00051657107
-0.00011463347
0.0002961598
0.00072203743
0.0011551198
0.0015530833
0.0018030214
0.0018315943
0.0022651978
0.0027735094
0.0032739935
0.0037241622
0.0041106644
0.0044383172
0.0047027728
0.0048876038
0.0049736582
0.0045487176
0.0055244876
0.0063764871
0.007019963
0.0075204048
0.0078789231
0.0081125133
0.0082204719
0.0081956118
0.0080831366
0.0057035322
0.0078642602
0.0095310757
0.010336529
0.010856221
0.011167575
0.011305508
0.011250674
0.010912304
0.010181711
0.0010550247
0.0022328846
0.0048808878
0.00572115
0.0061494558
0.0063690516
0.0064203412
0.0062317163
0.0053513785
0.0009327689
-0.0011945605
-0.0013935807
-0.00037811151
-0.00011484549
-1.187343e-06
5.1779889e-05
5.6182209e-05
-2.3203567e-05
-0.00043087973
-0.0029689433
0.005602159
0.0010165815
0.0013461935
0.0014011465
0.0014626964
0.0015705746
0.0017910381
0.0023102515
0.0034429453
0.0032167591
0.00014434886
-0.0062395995
-0.0055867741
-0.0053854646
-0.0051373954
-0.0047494191
-0.0040663709
-0.0026731253
0.00030282519
0.0016706885
-0.012185149
-0.011608301
-0.011331014
-0.011058473
-0.010709189
-0.010235644
-0.0095609507
-0.008537517
-0.006753642
-0.004598942
-0.0056127654
-0.005438011
-0.0051633867
-0.0048161861
-0.004405537
-0.0039173001
-0.0033238316
-0.0026176945
-0.0018182604
-0.0011775771
-0.0013769918
-0.0011228495
-0.00074094619
-0.00030002122
0.00015793982
0.00062526315
0.001109069
0.0016002623
0.0020513321
0.0023341538
0.0024139748
0.0029064873
0.0034849993
0.0040547257
0.0045667046
0.0050058549
0.0053775617
0.0056768187
0.0058852232
0.0059816202
0.0055756737
0.006685189
0.0076519675
0.0083833164
0.0089515731
0.0093583155
0.0096225368
0.0097432255
0.0097123151
0.0095821984
0.0069772359
0.0094550967
0.011346432
0.012262405
0.012852003
0.013204668
0.013359665
0.013294447
0.012904777
0.012062689
0.00160417
0.0029639315
0.0059479837
0.0069025064
0.0073881012
0.007636398
0.0076929027
0.0074753709
0.0064611453
0.0012013461
-0.0012679017
-0.0014940879
-0.00035599282
-5.7621154e-05
7.112935e-05
0.00013092665
0.00013539406
4.4182196e-05
-0.00042599768
-0.0034623506
0.0059521828
0.0010165639
0.0013774361
0.0014403649
0.001509703
0.0016299502
0.0018749911
0.0024534073
0.0037266114
0.0034795353
-0.00010785543
-0.0069699755
-0.0062483502
-0.0060185436
-0.0057395606
-0.0053067197
-0.0045469884
-0.0029971215
0.00033211383
0.0018403303
-0.01329164
-0.012655938
-0.012340208
-0.012031555
-0.011639858
-0.01111138
-0.010360205
-0.0092230349
-0.0072388206
-0.0048630867
-0.0060003071
-0.0058019067
-0.0054915175
-0.0051015571
-0.0046423525
-0.0040978732
-0.0034370759
-0.0026518791
-0.001762079
-0.0010508132
-0.001244453
-0.00096007504
-0.00053262911
-3.9899252e-05
0.00047105484
0.0009917378
0.0015301386
0.0020760342
0.002577077
0.0028908192
0.0030294412
0.0035773734
0.0042220134
0.0048570264
0.00542729
0.0059161102
0.0063294365
0.0066616737
0.006892564
0.0069989578
0.0066200906
0.0078552762
0.0089296888
0.0097436209
0.010375683
0.010827917
0.011121246
0.01125445
0.011218673
0.011072807
0.0082628126
0.011040243
0.013141915
0.014161628
0.014816912
0.015208566
0.015380039
0.015305992
0.01486981
0.013925242
0.0022095783
0.0037487703
0.0070470301
0.0081087185
0.008648096
0.0089235035
0.0089853801
0.0087418603
0.0076046294
0.0015513551
-0.0013081606
-0.0015552367
-0.00030268295
2.8585864e-05
0.00017149423
0.00023774733
0.0002424234
0.00014050358
-0.00038728888
-0.0038950126
0.0062415906
0.00099462404
0.0013850511
0.0014557727
0.0015325235
0.001664335
0.0019322185
0.0025657115
0.0039706201
0.0037086731
-0.00038905595
-0.0076738652
-0.0068865402
-0.0066290533
-0.0063207285
-0.0058459063
-0.0050148554
-0.0033194944
0.00033944358
0.001983839
-0.014299524
-0.013607801
-0.013254712
-0.012911401
-0.012479621
-0.01189971
-0.01107729
-0.0098345361
-0.0076644222
-0.0050844069
-0.0063258206
-0.0061046121
-0.0057600089
-0.0053295218
-0.0048246319
-0.0042275047
-0.0035038862
-0.0026450982
-0.00167124
-0.00089442747
-0.0010719796
-0.00075913627
-0.00028883261
0.00025255508
0.0008131845
0.0013838054
0.0019732419
0.002570227
0.0031179264
0.0034605201
0.0036636131
0.0042631556
0.0049694861
0.0056654866
0.0062902319
0.006825544
0.0072779282
0.0076412616
0.0078935361
0.008009593
0.0076644209
0.0090164857
0.010190833
0.011081659
0.011773239
0.012268081
0.012588957
0.01273453
0.012695221
0.012535674
0.0095413821
0.012598985
0.014895681
0.016011853
0.016728327
0.017156537
0.017343935
0.017262801
0.016785269
0.015747783
0.0028575596
0.0045720021
0.0081608931
0.0093221313
0.0099115638
0.010212424
0.010279895
0.010013569
0.0087648772
0.0019704674
-0.0013181702
-0.0015801172
-0.00022190661
0.00013989297
0.00029596844
0.00036828874
0.0003733397
0.00026192445
-0.00031831754
-0.0042676821
0.0064707148
0.00095230534
0.0013703025
0.0014485486
0.0015322768
0.0016747766
0.0019636382
0.0026477622
0.0041747448
0.0039036017
-0.00069559157
-0.0083462101
-0.0074969403
-0.0072128747
-0.0068770051
-0.0063633405
-0.005466731
-0.0036378178
0.0003252742
0.0021002559
-0.015206324
-0.014461959
-0.014072989
-0.013696781
-0.013227533
-0.012599993
-0.01171195
-0.010372319
-0.0080317566
-0.0052653576
-0.0065931725
-0.006350211
-0.0059732373
-0.0055047555
-0.0049573404
-0.0043114554
-0.0035298502
-0.0026033103
-0.0015521325
-0.00071514788
-0.0008680053
-0.00052866327
-1.8471202e-05
0.00056812506
0.001174829
0.001791706
0.0024283711
0.0030725945
0.0036634155
0.0040326569
0.0043042456
0.0049512877
0.0057145197
0.0064668708
0.00714201
0.0077204129
0.0082091232
0.008601545
0.0088740201
0.0089993685
0.0086934159
0.010152894
0.011418939
0.012380568
0.013127084
0.013661457
0.014008216
0.014165984
0.014124512
0.013953417
0.010796285
0.014112945
0.01658829
0.017793138
0.018566007
0.019028182
0.019230904
0.019144478
0.018630944
0.01751049
0.003535731
0.0054194902
0.0092738046
0.010526452
0.011161967
0.011486514
0.011559791
0.011273947
0.009925802
0.0024465502
-0.0013005843
-0.0015717274
-0.00011726322
0.00027253861
0.00044072651
0.00051869957
0.00052429211
0.00040463642
-0.00022267725
-0.0045815315
0.0066405478
0.00089152226
0.0013348476
0.0014202716
0.0015104874
0.0016627339
0.0019705898
0.002700608
0.0043392787
0.0040642173
-0.0010226869
-0.0089812372
-0.0080743794
-0.0077650968
-0.0074036866
-0.0068545564
-0.0058985173
-0.0039487407
0.00029116503
0.0021897324
-0.016008919
-0.015215795
-0.014792779
-0.014385718
-0.013881878
-0.013210801
-0.012263121
-0.010835842
-0.0083412067
-0.0054073628
-0.006805004
-0.0065415444
-0.0061343113
-0.0056306437
-0.0050441377
-0.0043536698
-0.0035192324
-0.0025311435
-0.0014097993
-0.00051834311
-0.00063943921
-0.00027574575
0.00027110125
0.00089917158
0.0015480752
0.0022072668
0.002887098
0.0035744568
0.0042046326
0.0045981738
0.0049408209
0.0056309745
0.0064459903
0.0072497316
0.0079708955
0.0085887545
0.009110865
0.009530208
0.0098215795
0.009955782
0.0096936584
0.011250469
0.012599474
0.013625428
0.014422
0.014992618
0.015363454
0.015533156
0.015490853
0.015310345
0.012012554
0.015565587
0.018202236
0.019487501
0.020311669
0.020805036
0.021022384
0.020932435
0.020388317
0.019195105
0.0042325485
0.0062779625
0.010371022
0.011706442
0.012383822
0.012730159
0.012809396
0.012507349
0.011072066
0.0029676885
-0.001258009
-0.0015330704
7.7025459e-06
0.0004228255
0.00060200665
0.00068518631
0.00069147499
0.00056484785
-0.00010399914
-0.0048380708
0.006752639
0.00081445549
0.0012806302
0.0013728118
0.0014689748
0.0016299666
0.0019547268
0.0027256436
0.0044649392
0.0041908005
-0.0013648178
-0.009572831
-0.0086133004
-0.0082804066
-0.0078956513
-0.0073146496
-0.0063056421
-0.0042483551
0.00023942978
0.00225322
-0.01670397
-0.015866435
-0.015411546
-0.014975939
-0.014440626
-0.01373037
-0.012729374
-0.011224149
-0.0085926347
-0.0055111979
-0.0069631487
-0.0066806317
-0.0062454996
-0.0057097124
-0.0050878061
-0.0043571988
-0.0034753854
-0.0024322909
-0.0012483162
-0.00030838619
-0.00039204123
-6.3090505e-06
0.00057371581
0.0012392601
0.0019262294
0.0026235434
0.0033422282
0.0040683703
0.0047339059
0.0051492567
0.0055642009
0.0062928289
0.0071542101
0.0080040806
0.0087666308
0.0094200794
0.0099724615
0.010416383
0.010725206
0.010867746
0.010653223
0.012296739
0.013719518
0.01480296
0.015644426
0.016247787
0.016640729
0.016821982
0.0167801
0.016592279
0.013176605
0.016941924
0.019721677
0.021078664
0.021948747
0.022470342
0.022701491
0.022609712
0.022040422
0.020784825
0.0049370824
0.0071348177
0.011438657
0.012847768
0.013562562
0.013928655
0.014013925
0.013698952
0.012189037
0.0035221743
-0.001193058
-0.0014671966
0.00014946879
0.00058709452
0.00077608876
0.00086399504
0.00087111487
0.0007387811
3.405033e-05
-0.0050391276
0.0068090132
0.00072347393
0.0012098021
0.0013082515
0.0014097749
0.0015784573
0.0019179395
0.0027245368
0.0045527985
0.0042839555
-0.001715979
-0.010114796
-0.0091080242
-0.0087533542
-0.0083476252
-0.0077385412
-0.0066833168
-0.0045324446
0.00017290021
0.0022922517
-0.017288225
-0.016411058
-0.015926783
-0.015465183
-0.01490174
-0.014156903
-0.013109213
-0.011536151
-0.0087856567
-0.0055772539
-0.007068943
-0.0067689839
-0.006308544
-0.0057439409
-0.0050905608
-0.0043245038
-0.0034010452
-0.0023097959
-0.0010710666
-8.8921579e-05
-0.00013071638
0.00027459223
0.00088409664
0.0015828718
0.0023035338
0.0030345443
0.0037875345
0.0045478736
0.0052445598
0.0056790972
0.0061663581
0.006928605
0.0078306665
0.0087211325
0.0095201822
0.010205133
0.010784459
0.011250438
0.011575122
0.011725394
0.011561439
0.013280558
0.014767536
0.01590131
0.016782243
0.017414639
0.017827548
0.018019827
0.01797951
0.017786413
0.01427605
0.018228339
0.021132267
0.022551895
0.023462246
0.02400892
0.024252909
0.024160882
0.023571766
0.022264227
0.0056389099
0.0079780379
0.012463606
0.013936936
0.01468448
0.015068159
0.015159437
0.014834744
0.013262782
0.0040985091
-0.0011083725
-0.0013772155
0.0003045285
0.00076171975
0.00095929185
0.0010514113
0.0010594732
0.00092268001
0.0001877806
-0.0051868353
0.0068121033
0.00062107307
0.0011246631
0.0012288251
0.0013350796
0.0015103519
0.0018622964
0.0026991701
0.0046042296
0.0043445622
-0.0020698903
-0.010601051
-0.0095529432
-0.009178546
-0.0087543744
-0.0081211672
-0.0070267228
-0.0047966666
9.4753099e-05
0.0023087831
-0.017758738
-0.01684711
-0.016336233
-0.015851417
-0.01526339
-0.014488782
-0.013401275
-0.011770836
-0.0089198372
-0.0056057253
-0.0071234563
-0.0068078315
-0.0063248874
-0.0057349876
-0.0050542725
-0.0042576748
-0.0032985442
-0.0021662578
-0.00088094085
0.00013694014
0.00014026421
0.00056255435
0.001197643
0.0019251893
0.0026749559
0.0034350257
0.00421756
0.0050072974
0.0057307322
0.006181714
0.0067401764
0.0075310017
0.008467828
0.0093931165
0.010223556
0.010935721
0.011538475
0.012023817
0.012362625
0.012519939
0.012408724
0.014191952
0.015733225
0.016909898
0.017824642
0.01848217
0.018912738
0.019115371
0.019077634
0.018881215
0.015299583
0.019412483
0.022421059
0.023893921
0.024838662
0.025407093
0.025662812
0.025571989
0.024968282
0.023619235
0.0063280712
0.0087961593
0.013433521
0.01496127
0.015736719
0.016135686
0.016232841
0.01590153
0.014280088
0.0046854266
-0.0010066243
-0.0012662917
0.00046939572
0.00094311617
0.0011479831
0.0012437707
0.0012528588
0.0011128249
0.00035349456
-0.0052836159
0.0067646903
0.00050982352
0.00102761
0.0011368692
0.0012471875
0.0014279106
0.0017899958
0.002651594
0.0046208613
0.004373738
-0.0024201612
-0.011025782
-0.0099426692
-0.0095507913
-0.00911085
-0.0084576223
-0.0073311533
-0.0050366905
8.37687e-06
0.0023050696
-0.018113031
-0.017172462
-0.01663804
-0.016132991
-0.015524102
-0.014724715
-0.013604482
-0.011927399
-0.0089948261
-0.0055967459
-0.0071276582
-0.0067982919
-0.006295839
-0.0056843536
-0.0049806277
-0.0041585878
-0.0031699637
-0.0020039802
-0.00068048014
0.00036648057
0.00041710126
0.0008536634
0.0015102702
0.0022619395
0.0030360361
0.0038203436
0.0046274742
0.0054416265
0.0061872409
0.0066518225
0.0072793088
0.0080935212
0.0090590055
0.010013141
0.01086967
0.011604579
0.012227077
0.012728927
0.013079985
0.013243564
0.013186477
0.015022002
0.016607409
0.017819319
0.018762017
0.019440602
0.019886364
0.020098528
0.020064247
0.019866362
0.016236918
0.020483216
0.023576448
0.025092872
0.026065932
0.026652639
0.02691884
0.026830522
0.026217304
0.024837101
0.0069950613
0.0095782773
0.014336821
0.01590893
0.016707282
0.017119126
0.017221919
0.01688696
0.015228498
0.0052719318
-0.00089050859
-0.001137632
0.00064061991
0.0011277548
0.0013385937
0.0014374758
0.0014476458
0.0013055522
0.00052751054
-0.0053321588
0.0066698504
0.00039232691
0.00092109453
0.0010347797
0.001148462
0.0013334657
0.001703324
0.0025839851
0.004604538
0.0043728036
-0.0027604264
-0.01138356
-0.01027215
-0.0098652171
-0.0094123019
-0.0087432722
-0.0075921239
-0.0052483072
-8.2735065e-05
0.0022835698
-0.018349204
-0.017385525
-0.016830861
-0.016308747
-0.015682871
-0.014863844
-0.013718142
-0.012005352
-0.0090104594
-0.0055504871
-0.007082541
-0.0067414899
-0.0062226934
-0.0055934995
-0.0048712448
-0.0040290172
-0.0030172438
-0.0018250778
-0.00047198116
0.00059727041
0.00069635034
0.0011443792
0.0018182952
0.002589282
0.0033827775
0.0041863469
0.0050129704
0.0058463998
0.0066094869
0.007084739
0.0077780765
0.0086103695
0.0095982546
0.010575098
0.011452256
0.012205291
0.012843698
0.013359057
0.013720363
0.013889347
0.013887003
0.015762782
0.017381968
0.018621274
0.019585907
0.020281327
0.020739673
0.020960394
0.0209303
0.020732691
0.017078756
0.021430577
0.024588144
0.02613826
0.027133407
0.027734776
0.028010072
0.027925403
0.027307566
0.025906403
0.0076308432
0.010314071
0.01516272
0.016768936
0.017585068
0.018007275
0.018115358
0.017779572
0.016096359
0.0058473513
-0.00076273156
-0.00099446593
0.00081480504
0.0013121823
0.0015276394
0.001629017
0.0016402956
0.0014972774
0.00070618704
-0.0053353942
0.0065309043
0.00027117698
0.00080758472
0.00092497513
0.0010412933
0.0012293846
0.0016046182
0.0024986099
0.0045572838
0.0043432535
-0.0030844596
-0.011669439
-0.010536761
-0.01011736
-0.0096543694
-0.0089738437
-0.0078054618
-0.0054275177
-0.00017507228
0.0022468658
-0.018466025
-0.017485328
-0.016913946
-0.016378093
-0.015739231
-0.014905817
-0.013742022
-0.012004594
-0.0089668306
-0.0054672301
-0.0069892079
-0.006638645
-0.0061068164
-0.0054639303
-0.0047277554
-0.0038707168
-0.0028422624
-0.0016315536
-0.00025757211
0.00082709408
0.00097483774
0.001431452
0.002118354
0.0029037279
0.0037115676
0.004529301
0.0053701907
0.0062176391
0.0069933842
0.0074763125
0.0082313985
0.0090763858
0.010080306
0.011073595
0.011965799
0.012732219
0.013382578
0.013908321
0.014277755
0.014451211
0.014503464
0.016407302
0.01804979
0.019308525
0.020288953
0.020996863
0.021465056
0.021693217
0.021667889
0.021472175
0.017816767
0.022245765
0.025447156
0.027020956
0.028031846
0.02864415
0.028927024
0.028846983
0.028229199
0.026817053
0.0082268737
0.010993839
0.015901257
0.017531203
0.018359905
0.018789876
0.018902795
0.018568834
0.016872866
0.0064013914
-0.00062599401
-0.00084002426
0.00098863138
0.0014930427
0.0017117422
0.0018149949
0.0018273796
0.0016845188
0.00088594906
-0.0052964639
0.0063513704
0.00014892481
0.00068953123
0.00080986224
0.00092806579
0.001118037
0.0014962337
0.0023977911
0.004481269
0.0042867275
-0.0033862711
-0.01187903
-0.010732384
-0.01030324
-0.0098331548
-0.009145497
-0.007967379
-0.0055706069
-0.00026518175
0.0021975959
-0.018462982
-0.017471576
-0.016887192
-0.016341062
-0.015693313
-0.014850842
-0.013676397
-0.011925461
-0.0088643434
-0.0053474203
-0.0068489366
-0.0064911347
-0.0059497072
-0.0052972555
-0.0045518648
-0.0036854775
-0.0026468919
-0.0014253553
-3.9268531e-05
0.001053894
0.0012495998
0.0017118619
0.0024073427
0.0032020815
0.0040191208
0.0048458319
0.0056956728
0.0065517955
0.0073353083
0.007822873
0.0086347413
0.0094869932
0.010500517
0.011503909
0.01240549
0.013180461
0.013838715
0.014371614
0.014746958
0.014923882
0.015029852
0.016949483
0.018604742
0.019874865
0.020864864
0.021580828
0.022056017
0.022290369
0.022270231
0.022077899
0.018443588
0.022921141
0.026145785
0.027733194
0.028753409
0.02937283
0.029661651
0.029587043
0.028973737
0.027560305
0.0087751361
0.011608541
0.016543339
0.018186581
0.019022588
0.019457658
0.019574856
0.019245189
0.017548118
0.0069241989
-0.00048297341
-0.00067751483
0.0011588784
0.0016671005
0.0018876533
0.0019921436
0.0020056029
0.0018639228
0.0010633148
-0.00521869
0.0061349196
2.8047407e-05
0.00056933654
0.00069180609
0.00081112738
0.0010017639
0.0013805134
0.0022838765
0.0043787787
0.0042049854
-0.003660193
-0.012008568
-0.010855467
-0.010419422
-0.0099452835
-0.009254887
-0.0080745324
-0.005674205
-0.0003497322
0.0021383965
-0.018340327
-0.017344689
-0.016751182
-0.016198345
-0.015545875
-0.014699723
-0.013522092
-0.011768762
-0.0087037493
-0.0051917072
-0.0066632261
-0.0063005398
-0.0057530428
-0.0050952334
-0.0043453948
-0.0034751706
-0.0024330422
-0.001208417
0.00018098454
0.0012757278
0.0015178381
0.0019827748
0.0026823731
0.0034813973
0.0043024359
0.0051328846
0.005986308
0.0068457096
0.0076320566
0.0081211926
0.0089840823
0.0098381613
0.010854833
0.011861945
0.012767186
0.013545817
0.014207839
0.014744582
0.015123531
0.015302858
0.015460962
0.017384131
0.019041644
0.020315092
0.021308398
0.022027917
0.022507162
0.022746329
0.022731651
0.022544051
0.018952821
0.023450219
0.026677622
0.028268562
0.029291648
0.02991431
0.03020734
0.030138799
0.029534126
0.028128767
0.0092681747
0.012149838
0.017080776
0.018726893
0.019564921
0.020002376
0.020123198
0.019800098
0.018113166
0.0074064231
-0.00033630499
-0.00051009831
0.0013224475
0.0018312631
0.0020522763
0.0021573538
0.0021718282
0.0020322872
0.0012349223
-0.0051055413
0.0058853324
-8.908082e-05
0.00044932671
0.00057310192
0.00069276175
0.00088285045
0.0012597591
0.0021592103
0.0042521824
0.0040998812
-0.003900954
-0.012054962
-0.010903074
-0.010463066
-0.0099879543
-0.009299212
-0.0081240747
-0.0057353405
-0.00042557084
0.0020718506
-0.018099104
-0.01710583
-0.016507207
-0.015951316
-0.015298333
-0.014453878
-0.013280498
-0.011535807
-0.008486176
-0.005000976
-0.0064338314
-0.0060686789
-0.0055187117
-0.0048598041
-0.0041103165
-0.0032417801
-0.0022026923
-0.00098269275
0.00040127894
0.0014907344
0.0017768843
0.0022415071
0.002940738
0.0037389449
0.004558762
0.0053876891
0.0062393086
0.0070965782
0.007880815
0.0083684523
0.0092758793
0.010126375
0.011139759
0.01214421
0.013047383
0.013824757
0.014486376
0.015023591
0.015403773
0.015584386
0.015792376
0.017706916
0.019356248
0.020624987
0.021615335
0.022333876
0.022814169
0.023056665
0.023047566
0.022865902
0.019339034
0.023827669
0.027037538
0.028621991
0.029641509
0.030263497
0.030558907
0.030496894
0.029904719
0.028516405
0.0096991285
0.012610135
0.01750632
0.019144966
0.019979747
0.02041684
0.020540542
0.020226078
0.018560053
0.0078392741
-0.00018856297
-0.00034086413
0.0014763846
0.0019826026
0.0022026883
0.0023076941
0.0023230971
0.0021865851
0.0013975544
-0.0049606008
0.005606457
-0.00020021427
0.00033172542
0.00045594936
0.00057516258
0.00076349949
0.0011362061
0.0020261057
0.0041039052
0.0039733401
-0.0041037457
-0.012015843
-0.010872931
-0.010431967
-0.0099589806
-0.0092762567
-0.0081136976
-0.0057514857
-0.00048977475
0.0020004397
-0.017741162
-0.016756917
-0.016157287
-0.015602047
-0.014952767
-0.014115364
-0.012953595
-0.011228422
-0.0082131482
-0.004776373
-0.0061627913
-0.0057976356
-0.0052488412
-0.0045931163
-0.0038487768
-0.0029874293
-0.0019579184
-0.0007501839
0.00061971421
0.0016971036
0.00202417
0.0024854952
0.0031798805
0.0039721784
0.0047855675
0.0056077296
0.0064521764
0.0073019238
0.0080791274
0.0085622111
0.0095070431
0.010348608
0.011352326
0.012347781
0.013243185
0.01401439
0.014671421
0.015205702
0.015584694
0.01576543
0.016020441
0.017914351
0.019545212
0.020801292
0.021782458
0.022495487
0.02297377
0.023218007
0.023214458
0.023039788
0.019597754
0.024049302
0.027221677
0.028789749
0.029799309
0.0304167
0.030712582
0.030657388
0.030081271
0.028718539
0.010061762
0.012982613
0.017813687
0.019434662
0.020260975
0.02069495
0.020820703
0.020516731
0.018881853
0.0082145778
-4.2242474e-05
-0.0001728075
0.0016179005
0.0021183759
0.0023361601
0.0024404317
0.0024566511
0.0023239852
0.0015481631
-0.0047875318
0.005302169
-0.00030326022
0.00021862982
0.00034242852
0.00046040958
0.00064580777
0.0010119978
0.0018868193
0.0039363994