/*--------------------------------*- C++ -*----------------------------------*\
| =========                 |                                                 |
| \\      /  F ield         | OpenFOAM: The Open Source CFD Toolbox           |
|  \\    /   O peration     | Version:  v2106                                 |
|   \\  /    A nd           | Website:  www.openfoam.com                      |
|    \\/     M anipulation  |                                                 |
\*---------------------------------------------------------------------------*/
FoamFile
{
    version     2.0;
    format      ascii;
    arch        "LSB;label=32;scalar=64";
    class       volScalarField;
    location    "47.5";
    object      T;
}
// * * * * * * * * * * * * * * * * * * * * * * * * * * * * * * * * * * * * * //

dimensions      [0 0 0 1 0 0 0];

internalField   nonuniform List<scalar> 
4000
(
275.0891
275.08912
275.08911
275.08911
275.08911
275.0891
275.08911
275.08911
275.08911
275.08911
275.08912
275.08913
275.08912
275.08911
275.08911
275.08911
275.08911
275.08911
275.08912
275.08912
275.08911
275.08912
275.08911
275.0891
275.0891
275.0891
275.0891
275.0891
275.08911
275.08911
275.08911
275.08911
275.0891
275.0891
275.0891
275.0891
275.0891
275.0891
275.08911
275.08911
275.08911
275.08911
275.0891
275.0891
275.0891
275.0891
275.0891
275.0891
275.0891
275.08911
275.0891
275.08911
275.0891
275.0891
275.0891
275.0891
275.0891
275.0891
275.08911
275.08911
275.08911
275.08911
275.0891
275.0891
275.0891
275.0891
275.0891
275.0891
275.08911
275.08911
275.08911
275.08911
275.0891
275.0891
275.0891
275.0891
275.0891
275.08911
275.08911
275.08911
275.08911
275.08912
275.08911
275.08911
275.0891
275.08911
275.08911
275.08911
275.08911
275.08912
275.08911
275.08912
275.08911
275.08911
275.08911
275.08911
275.08911
275.08911
275.08912
275.08912
283.25543
283.2555
283.25545
283.25543
283.25542
283.25542
283.25542
283.25543
283.25544
283.25543
283.2555
283.25551
283.25547
283.25545
283.25544
283.25544
283.25545
283.25546
283.25547
283.25546
283.25545
283.25547
283.25543
283.25541
283.2554
283.2554
283.25541
283.25542
283.25544
283.25544
283.25543
283.25545
283.25541
283.2554
283.25539
283.25539
283.25539
283.25541
283.25543
283.25543
283.25542
283.25544
283.2554
283.25539
283.25538
283.25538
283.25539
283.2554
283.25542
283.25543
283.25542
283.25544
283.2554
283.25539
283.25538
283.25538
283.25539
283.25541
283.25543
283.25543
283.25542
283.25545
283.25541
283.25539
283.25539
283.25539
283.2554
283.25542
283.25544
283.25544
283.25543
283.25546
283.25542
283.25541
283.2554
283.25541
283.25542
283.25543
283.25545
283.25546
283.25544
283.25547
283.25544
283.25543
283.25542
283.25543
283.25544
283.25545
283.25547
283.25547
283.25543
283.25546
283.25544
283.25543
283.25543
283.25543
283.25544
283.25546
283.25547
283.25548
291.37244
291.37253
291.37246
291.37243
291.37242
291.37241
291.37242
291.37243
291.37245
291.37243
291.37253
291.37255
291.37249
291.37246
291.37244
291.37244
291.37245
291.37247
291.37249
291.37247
291.37246
291.37249
291.37243
291.3724
291.37238
291.37238
291.37239
291.37242
291.37245
291.37244
291.37243
291.37246
291.3724
291.37237
291.37235
291.37235
291.37237
291.37239
291.37243
291.37243
291.37242
291.37244
291.37238
291.37235
291.37234
291.37234
291.37236
291.37239
291.37242
291.37242
291.37241
291.37244
291.37238
291.37235
291.37234
291.37235
291.37236
291.37239
291.37243
291.37243
291.37242
291.37245
291.37239
291.37237
291.37236
291.37236
291.37238
291.37241
291.37245
291.37245
291.37243
291.37247
291.37242
291.37239
291.37239
291.37239
291.37241
291.37244
291.37248
291.37248
291.37245
291.37249
291.37245
291.37243
291.37242
291.37243
291.37245
291.37248
291.37251
291.37251
291.37243
291.37247
291.37244
291.37243
291.37242
291.37243
291.37245
291.37248
291.37251
291.3725
299.44283
299.44294
299.44285
299.4428
299.44278
299.44278
299.44279
299.44281
299.44283
299.44281
299.44294
299.44296
299.44288
299.44283
299.44281
299.44281
299.44283
299.44286
299.44289
299.44287
299.44285
299.44288
299.44279
299.44275
299.44273
299.44273
299.44275
299.44279
299.44283
299.44283
299.4428
299.44283
299.44275
299.44271
299.44269
299.44269
299.44272
299.44276
299.44281
299.44281
299.44278
299.44281
299.44273
299.44269
299.44268
299.44268
299.44271
299.44275
299.44281
299.4428
299.44278
299.44281
299.44273
299.44269
299.44268
299.44269
299.44272
299.44276
299.44282
299.44282
299.44279
299.44283
299.44275
299.44272
299.44271
299.44272
299.44274
299.44279
299.44285
299.44285
299.44281
299.44286
299.44279
299.44276
299.44275
299.44276
299.44279
299.44284
299.44289
299.44289
299.44283
299.44289
299.44283
299.44281
299.44281
299.44282
299.44285
299.44289
299.44295
299.44294
299.44281
299.44287
299.44283
299.44281
299.4428
299.44282
299.44285
299.44289
299.44294
299.44291
307.46917
307.4693
307.46919
307.46914
307.46911
307.46911
307.46913
307.46916
307.46919
307.46916
307.4693
307.46933
307.46922
307.46917
307.46914
307.46914
307.46917
307.46921
307.46926
307.46923
307.46919
307.46922
307.46912
307.46907
307.46904
307.46905
307.46907
307.46913
307.46919
307.46918
307.46914
307.46917
307.46907
307.46902
307.469
307.469
307.46903
307.46909
307.46916
307.46916
307.46911
307.46914
307.46904
307.469
307.46898
307.46899
307.46902
307.46908
307.46916
307.46916
307.46911
307.46914
307.46905
307.469
307.46899
307.469
307.46904
307.4691
307.46918
307.46918
307.46913
307.46917
307.46907
307.46903
307.46902
307.46904
307.46908
307.46914
307.46922
307.46922
307.46916
307.46921
307.46913
307.46909
307.46908
307.4691
307.46914
307.4692
307.46928
307.46928
307.46919
307.46926
307.46919
307.46916
307.46916
307.46918
307.46922
307.46928
307.46936
307.46935
307.46916
307.46923
307.46918
307.46916
307.46916
307.46918
307.46922
307.46928
307.46935
307.4693
315.45395
315.45409
315.45396
315.4539
315.45387
315.45387
315.45389
315.45394
315.45398
315.45395
315.45409
315.45412
315.45399
315.45393
315.4539
315.45391
315.45394
315.45399
315.45406
315.45403
315.45396
315.45399
315.45387
315.45381
315.45379
315.45379
315.45383
315.4539
315.45398
315.45397
315.4539
315.45393
315.45381
315.45376
315.45373
315.45374
315.45378
315.45386
315.45395
315.45395
315.45387
315.4539
315.45379
315.45373
315.45371
315.45373
315.45377
315.45385
315.45395
315.45395
315.45387
315.45391
315.45379
315.45374
315.45373
315.45374
315.45379
315.45387
315.45397
315.45397
315.45389
315.45394
315.45383
315.45378
315.45377
315.45379
315.45384
315.45392
315.45403
315.45403
315.45394
315.45399
315.4539
315.45386
315.45385
315.45387
315.45392
315.45401
315.45411
315.45411
315.45398
315.45406
315.45398
315.45395
315.45395
315.45397
315.45403
315.45411
315.45421
315.45419
315.45395
315.45403
315.45397
315.45395
315.45395
315.45397
315.45403
315.45411
315.45419
315.45412
323.39948
323.39964
323.39949
323.39942
323.39938
323.39939
323.39942
323.39948
323.39953
323.3995
323.39964
323.39967
323.39953
323.39946
323.39943
323.39943
323.39947
323.39954
323.39963
323.39959
323.39949
323.39953
323.39939
323.39932
323.39929
323.3993
323.39935
323.39943
323.39954
323.39953
323.39942
323.39946
323.39932
323.39926
323.39923
323.39925
323.3993
323.39939
323.3995
323.3995
323.39938
323.39943
323.39929
323.39923
323.39921
323.39923
323.39929
323.39938
323.3995
323.3995
323.39939
323.39943
323.3993
323.39925
323.39923
323.39925
323.39931
323.39941
323.39954
323.39954
323.39942
323.39947
323.39935
323.3993
323.39929
323.39931
323.39937
323.39947
323.3996
323.3996
323.39948
323.39954
323.39943
323.39939
323.39938
323.39941
323.39947
323.39957
323.3997
323.3997
323.39953
323.39963
323.39954
323.3995
323.3995
323.39954
323.3996
323.3997
323.39982
323.39981
323.3995
323.39959
323.39953
323.3995
323.3995
323.39954
323.3996
323.3997
323.39981
323.39972
331.30797
331.30814
331.30797
331.30789
331.30786
331.30787
331.30791
331.30798
331.30805
331.30801
331.30814
331.30817
331.30801
331.30794
331.3079
331.30791
331.30796
331.30805
331.30815
331.30811
331.30797
331.30801
331.30786
331.30779
331.30776
331.30777
331.30783
331.30793
331.30805
331.30804
331.30789
331.30794
331.30779
331.30772
331.30769
331.30771
331.30777
331.30788
331.30802
331.30802
331.30786
331.3079
331.30776
331.30769
331.30767
331.30769
331.30776
331.30787
331.30802
331.30802
331.30787
331.30791
331.30777
331.30771
331.30769
331.30772
331.30779
331.30791
331.30806
331.30806
331.30791
331.30796
331.30783
331.30777
331.30776
331.30779
331.30787
331.30799
331.30814
331.30814
331.30798
331.30805
331.30793
331.30788
331.30787
331.30791
331.30799
331.3081
331.30825
331.30825
331.30805
331.30815
331.30805
331.30802
331.30802
331.30806
331.30814
331.30825
331.30839
331.30838
331.30801
331.30811
331.30804
331.30802
331.30802
331.30806
331.30814
331.30825
331.30838
331.30828
339.18148
339.18165
339.18147
339.18139
339.18135
339.18136
339.18141
339.1815
339.18158
339.18154
339.18165
339.18168
339.18151
339.18143
339.1814
339.18141
339.18147
339.18157
339.18169
339.18164
339.18147
339.18151
339.18135
339.18127
339.18124
339.18126
339.18132
339.18144
339.18159
339.18158
339.18139
339.18143
339.18127
339.18119
339.18117
339.18119
339.18126
339.18139
339.18155
339.18155
339.18135
339.1814
339.18124
339.18117
339.18115
339.18118
339.18125
339.18138
339.18155
339.18156
339.18136
339.18141
339.18126
339.18119
339.18118
339.18121
339.18129
339.18143
339.1816
339.18161
339.18141
339.18147
339.18132
339.18126
339.18125
339.18129
339.18138
339.18152
339.18169
339.1817
339.1815
339.18157
339.18144
339.18139
339.18138
339.18143
339.18152
339.18165
339.18182
339.18183
339.18158
339.18169
339.18159
339.18155
339.18155
339.1816
339.18169
339.18182
339.18199
339.18197
339.18154
339.18164
339.18158
339.18155
339.18156
339.18161
339.1817
339.18183
339.18197
339.18186
347.02191
347.0221
347.0219
347.02181
347.02178
347.02179
347.02185
347.02194
347.02204
347.022
347.0221
347.02213
347.02194
347.02186
347.02182
347.02184
347.02191
347.02202
347.02216
347.02211
347.0219
347.02194
347.02177
347.02168
347.02165
347.02167
347.02175
347.02188
347.02205
347.02204
347.02181
347.02186
347.02168
347.0216
347.02157
347.0216
347.02169
347.02182
347.02201
347.02201
347.02178
347.02182
347.02165
347.02157
347.02155
347.02159
347.02168
347.02182
347.02201
347.02202
347.02179
347.02184
347.02167
347.0216
347.02159
347.02163
347.02173
347.02188
347.02207
347.02208
347.02185
347.02191
347.02175
347.02169
347.02168
347.02173
347.02182
347.02198
347.02217
347.02218
347.02194
347.02202
347.02188
347.02182
347.02182
347.02188
347.02198
347.02213
347.02232
347.02233
347.02204
347.02216
347.02205
347.02201
347.02201
347.02207
347.02217
347.02232
347.02251
347.0225
347.022
347.02211
347.02204
347.02201
347.02202
347.02208
347.02218
347.02233
347.0225
347.02237
354.83104
354.83124
354.83103
354.83093
354.8309
354.83092
354.83098
354.83109
354.8312
354.83116
354.83124
354.83127
354.83107
354.83098
354.83094
354.83097
354.83104
354.83117
354.83133
354.83128
354.83103
354.83107
354.83088
354.83079
354.83076
354.83079
354.83087
354.83102
354.83121
354.8312
354.83093
354.83098
354.83079
354.8307
354.83068
354.83071
354.83081
354.83096
354.83116
354.83117
354.8309
354.83094
354.83076
354.83068
354.83066
354.8307
354.8308
354.83097
354.83118
354.83119
354.83092
354.83097
354.83079
354.83071
354.8307
354.83075
354.83086
354.83102
354.83124
354.83125
354.83098
354.83104
354.83087
354.83081
354.8308
354.83086
354.83097
354.83114
354.83135
354.83137
354.83109
354.83117
354.83102
354.83096
354.83097
354.83102
354.83114
354.83131
354.83152
354.83153
354.8312
354.83133
354.83121
354.83116
354.83118
354.83124
354.83135
354.83152
354.83173
354.83172
354.83116
354.83128
354.8312
354.83117
354.83119
354.83125
354.83137
354.83153
354.83172
354.83158
362.6105
362.6107
362.61048
362.61038
362.61034
362.61036
362.61044
362.61056
362.61068
362.61064
362.6107
362.61072
362.61052
362.61042
362.61039
362.61041
362.6105
362.61064
362.61081
362.61076
362.61048
362.61052
362.61032
362.61022
362.61019
362.61023
362.61032
362.61048
362.61069
362.61069
362.61038
362.61042
362.61022
362.61013
362.61011
362.61015
362.61025
362.61042
362.61064
362.61066
362.61034
362.61039
362.61019
362.61011
362.61009
362.61014
362.61025
362.61043
362.61066
362.61068
362.61036
362.61041
362.61023
362.61015
362.61014
362.61019
362.61031
362.61049
362.61073
362.61075
362.61044
362.6105
362.61032
362.61025
362.61025
362.61031
362.61043
362.61062
362.61085
362.61087
362.61056
362.61064
362.61048
362.61042
362.61043
362.61049
362.61062
362.6108
362.61104
362.61105
362.61068
362.61081
362.61069
362.61064
362.61066
362.61073
362.61085
362.61104
362.61126
362.61126
362.61064
362.61076
362.61069
362.61066
362.61068
362.61075
362.61087
362.61105
362.61126
362.61111
370.36175
370.36195
370.36172
370.36161
370.36158
370.36161
370.36169
370.36182
370.36195
370.36192
370.36195
370.36197
370.36176
370.36165
370.36162
370.36165
370.36175
370.3619
370.36209
370.36204
370.36172
370.36176
370.36155
370.36145
370.36142
370.36146
370.36156
370.36173
370.36196
370.36196
370.36161
370.36165
370.36145
370.36136
370.36133
370.36138
370.36149
370.36168
370.36192
370.36193
370.36158
370.36162
370.36142
370.36133
370.36132
370.36137
370.36149
370.36169
370.36193
370.36196
370.36161
370.36165
370.36146
370.36138
370.36137
370.36143
370.36156
370.36176
370.36201
370.36204
370.36169
370.36175
370.36156
370.36149
370.36149
370.36156
370.36169
370.36189
370.36215
370.36217
370.36182
370.3619
370.36173
370.36168
370.36169
370.36176
370.36189
370.36209
370.36235
370.36237
370.36195
370.36209
370.36196
370.36192
370.36193
370.36201
370.36215
370.36235
370.36259
370.36259
370.36192
370.36204
370.36196
370.36193
370.36196
370.36204
370.36217
370.36237
370.36259
370.36244
378.08611
378.08632
378.08608
378.08597
378.08594
378.08597
378.08606
378.0862
378.08635
378.08631
378.08632
378.08634
378.08612
378.08601
378.08598
378.08602
378.08612
378.08628
378.08648
378.08644
378.08608
378.08612
378.0859
378.0858
378.08577
378.08581
378.08593
378.08611
378.08635
378.08636
378.08597
378.08601
378.0858
378.0857
378.08568
378.08573
378.08586
378.08605
378.08631
378.08633
378.08594
378.08598
378.08577
378.08568
378.08567
378.08573
378.08586
378.08606
378.08633
378.08636
378.08597
378.08602
378.08581
378.08573
378.08573
378.08579
378.08593
378.08614
378.08641
378.08644
378.08606
378.08612
378.08593
378.08586
378.08586
378.08593
378.08608
378.08629
378.08656
378.08659
378.0862
378.08628
378.08611
378.08605
378.08606
378.08614
378.08629
378.0865
378.08677
378.0868
378.08635
378.08648
378.08635
378.08631
378.08633
378.08641
378.08656
378.08677
378.08703
378.08704
378.08631
378.08644
378.08636
378.08633
378.08636
378.08644
378.08659
378.0868
378.08704
378.08688
385.78478
385.78499
385.78474
385.78463
385.7846
385.78463
385.78473
385.78488
385.78504
385.78501
385.78499
385.785
385.78477
385.78467
385.78464
385.78468
385.78479
385.78496
385.78518
385.78514
385.78474
385.78477
385.78455
385.78445
385.78442
385.78447
385.78459
385.78479
385.78504
385.78505
385.78463
385.78467
385.78445
385.78435
385.78433
385.78439
385.78452
385.78473
385.785
385.78503
385.7846
385.78464
385.78442
385.78433
385.78432
385.78439
385.78453
385.78474
385.78502
385.78506
385.78463
385.78468
385.78447
385.78439
385.78439
385.78446
385.7846
385.78483
385.78511
385.78515
385.78473
385.78479
385.78459
385.78452
385.78453
385.7846
385.78476
385.78498
385.78527
385.78531
385.78488
385.78496
385.78479
385.78473
385.78474
385.78483
385.78498
385.78521
385.78549
385.78553
385.78504
385.78518
385.78504
385.785
385.78502
385.78511
385.78527
385.78549
385.78577
385.78578
385.78501
385.78514
385.78505
385.78503
385.78506
385.78515
385.78531
385.78553
385.78578
385.78562
393.45878
393.45899
393.45873
393.45862
393.45859
393.45863
393.45874
393.45889
393.45906
393.45903
393.45899
393.459
393.45876
393.45866
393.45863
393.45867
393.45879
393.45897
393.4592
393.45917
393.45873
393.45876
393.45853
393.45843
393.45841
393.45846
393.45859
393.45879
393.45906
393.45908
393.45862
393.45866
393.45843
393.45833
393.45832
393.45838
393.45852
393.45874
393.45902
393.45905
393.45859
393.45863
393.45841
393.45832
393.45831
393.45838
393.45853
393.45875
393.45905
393.45909
393.45863
393.45867
393.45846
393.45838
393.45838
393.45846
393.45861
393.45884
393.45914
393.45919
393.45874
393.45879
393.45859
393.45852
393.45853
393.45861
393.45877
393.45901
393.45931
393.45935
393.45889
393.45897
393.45879
393.45874
393.45875
393.45884
393.45901
393.45925
393.45955
393.45958
393.45906
393.4592
393.45906
393.45902
393.45905
393.45914
393.45931
393.45955
393.45983
393.45985
393.45903
393.45917
393.45908
393.45905
393.45909
393.45919
393.45935
393.45958
393.45985
393.45969
401.10901
401.10921
401.10895
401.10884
401.10881
401.10885
401.10896
401.10913
401.10931
401.10928
401.10921
401.10922
401.10898
401.10887
401.10884
401.10889
401.10902
401.10921
401.10944
401.10941
401.10895
401.10898
401.10874
401.10864
401.10862
401.10868
401.10881
401.10903
401.1093
401.10933
401.10884
401.10887
401.10864
401.10854
401.10853
401.1086
401.10874
401.10897
401.10926
401.1093
401.10881
401.10884
401.10862
401.10853
401.10852
401.1086
401.10875
401.10899
401.10929
401.10934
401.10885
401.10889
401.10868
401.1086
401.1086
401.10868
401.10884
401.10908
401.1094
401.10944
401.10896
401.10902
401.10881
401.10874
401.10875
401.10884
401.10901
401.10926
401.10957
401.10962
401.10913
401.10921
401.10903
401.10897
401.10899
401.10908
401.10926
401.1095
401.10981
401.10986
401.10931
401.10944
401.1093
401.10926
401.10929
401.1094
401.10957
401.10981
401.11012
401.11014
401.10928
401.10941
401.10933
401.1093
401.10934
401.10944
401.10962
401.10986
401.11014
401.10998
408.7362
408.7364
408.73614
408.73603
408.736
408.73605
408.73616
408.73634
408.73652
408.7365
408.7364
408.7364
408.73616
408.73605
408.73603
408.73608
408.73621
408.73641
408.73666
408.73663
408.73614
408.73616
408.73593
408.73582
408.73581
408.73587
408.73601
408.73623
408.73652
408.73655
408.73603
408.73605
408.73582
408.73573
408.73572
408.73579
408.73594
408.73617
408.73648
408.73652
408.736
408.73603
408.73581
408.73572
408.73571
408.73579
408.73595
408.7362
408.73651
408.73656
408.73605
408.73608
408.73587
408.73579
408.73579
408.73588
408.73604
408.7363
408.73662
408.73667
408.73616
408.73621
408.73601
408.73594
408.73595
408.73604
408.73622
408.73647
408.7368
408.73685
408.73634
408.73641
408.73623
408.73617
408.7362
408.7363
408.73647
408.73673
408.73705
408.7371
408.73652
408.73666
408.73652
408.73648
408.73651
408.73662
408.7368
408.73705
408.73736
408.73739
408.7365
408.73663
408.73655
408.73652
408.73656
408.73667
408.73685
408.7371
408.73739
408.73723
416.34098
416.34117
416.34091
416.3408
416.34077
416.34082
416.34095
416.34112
416.34131
416.3413
416.34117
416.34117
416.34093
416.34082
416.3408
416.34086
416.34099
416.3412
416.34145
416.34143
416.34091
416.34093
416.34069
416.34059
416.34058
416.34064
416.34079
416.34101
416.34131
416.34134
416.3408
416.34082
416.34059
416.3405
416.34049
416.34056
416.34072
416.34096
416.34127
416.34132
416.34077
416.3408
416.34058
416.34049
416.34048
416.34057
416.34073
416.34098
416.34131
416.34136
416.34082
416.34086
416.34064
416.34056
416.34057
416.34066
416.34083
416.34109
416.34142
416.34148
416.34095
416.34099
416.34079
416.34072
416.34073
416.34083
416.34101
416.34127
416.3416
416.34166
416.34112
416.3412
416.34101
416.34096
416.34098
416.34109
416.34127
416.34153
416.34186
416.34192
416.34131
416.34145
416.34131
416.34127
416.34131
416.34142
416.3416
416.34186
416.34218
416.34221
416.3413
416.34143
416.34134
416.34132
416.34136
416.34148
416.34166
416.34192
416.34221
416.34206
423.92381
423.924
423.92374
423.92363
423.92361
423.92366
423.92379
423.92397
423.92417
423.92416
423.924
423.924
423.92376
423.92365
423.92363
423.92369
423.92383
423.92404
423.9243
423.92428
423.92374
423.92376
423.92352
423.92342
423.92341
423.92348
423.92363
423.92386
423.92416
423.9242
423.92363
423.92365
423.92342
423.92333
423.92332
423.9234
423.92356
423.9238
423.92412
423.92418
423.92361
423.92363
423.92341
423.92332
423.92332
423.92341
423.92358
423.92383
423.92416
423.92423
423.92366
423.92369
423.92348
423.9234
423.92341
423.9235
423.92368
423.92394
423.92428
423.92434
423.92379
423.92383
423.92363
423.92356
423.92358
423.92368
423.92386
423.92413
423.92447
423.92453
423.92397
423.92404
423.92386
423.9238
423.92383
423.92394
423.92413
423.9244
423.92473
423.92479
423.92417
423.9243
423.92416
423.92412
423.92416
423.92428
423.92447
423.92473
423.92506
423.92509
423.92416
423.92428
423.9242
423.92418
423.92423
423.92434
423.92453
423.92479
423.92509
423.92494
431.48506
431.48524
431.48498
431.48488
431.48485
431.48491
431.48504
431.48523
431.48543
431.48542
431.48524
431.48523
431.485
431.48489
431.48487
431.48494
431.48508
431.48529
431.48555
431.48554
431.48498
431.485
431.48476
431.48467
431.48465
431.48472
431.48488
431.48511
431.48542
431.48546
431.48488
431.48489
431.48467
431.48457
431.48457
431.48465
431.48481
431.48506
431.48538
431.48544
431.48485
431.48487
431.48465
431.48457
431.48457
431.48466
431.48483
431.48509
431.48543
431.48549
431.48491
431.48494
431.48472
431.48465
431.48466
431.48476
431.48494
431.4852
431.48554
431.48561
431.48504
431.48508
431.48488
431.48481
431.48483
431.48494
431.48512
431.48539
431.48573
431.4858
431.48523
431.48529
431.48511
431.48506
431.48509
431.4852
431.48539
431.48566
431.486
431.48607
431.48543
431.48555
431.48542
431.48538
431.48543
431.48554
431.48573
431.486
431.48633
431.48637
431.48542
431.48554
431.48546
431.48544
431.48549
431.48561
431.4858
431.48607
431.48637
431.48623
439.02494
439.02511
439.02486
439.02475
439.02474
439.02479
439.02493
439.02511
439.02532
439.02532
439.02511
439.0251
439.02487
439.02477
439.02475
439.02482
439.02496
439.02518
439.02544
439.02544
439.02486
439.02487
439.02464
439.02455
439.02454
439.02461
439.02476
439.025
439.02531
439.02536
439.02475
439.02477
439.02455
439.02446
439.02445
439.02454
439.0247
439.02495
439.02528
439.02534
439.02474
439.02475
439.02454
439.02445
439.02446
439.02455
439.02472
439.02498
439.02532
439.02539
439.02479
439.02482
439.02461
439.02454
439.02455
439.02465
439.02483
439.0251
439.02544
439.02551
439.02493
439.02496
439.02476
439.0247
439.02472
439.02483
439.02502
439.02529
439.02563
439.02571
439.02511
439.02518
439.025
439.02495
439.02498
439.0251
439.02529
439.02556
439.0259
439.02597
439.02532
439.02544
439.02531
439.02528
439.02532
439.02544
439.02563
439.0259
439.02623
439.02628
439.02532
439.02544
439.02536
439.02534
439.02539
439.02551
439.02571
439.02597
439.02628
439.02614
446.54356
446.54372
446.54348
446.54338
446.54336
446.54342
446.54355
446.54374
446.54395
446.54395
446.54372
446.54371
446.54348
446.54339
446.54337
446.54344
446.54358
446.5438
446.54407
446.54406
446.54348
446.54348
446.54326
446.54317
446.54316
446.54324
446.54339
446.54363
446.54394
446.54399
446.54338
446.54339
446.54317
446.54308
446.54308
446.54317
446.54333
446.54358
446.54391
446.54397
446.54336
446.54337
446.54316
446.54308
446.54309
446.54318
446.54336
446.54362
446.54395
446.54403
446.54342
446.54344
446.54324
446.54317
446.54318
446.54328
446.54346
446.54373
446.54407
446.54415
446.54355
446.54358
446.54339
446.54333
446.54336
446.54346
446.54365
446.54392
446.54427
446.54434
446.54374
446.5438
446.54363
446.54358
446.54362
446.54373
446.54392
446.5442
446.54454
446.54461
446.54395
446.54407
446.54394
446.54391
446.54395
446.54407
446.54427
446.54454
446.54487
446.54492
446.54395
446.54406
446.54399
446.54397
446.54403
446.54415
446.54434
446.54461
446.54492
446.54478
454.04092
454.04107
454.04083
454.04073
454.04072
454.04078
454.04092
454.04111
454.04131
454.04132
454.04107
454.04105
454.04083
454.04074
454.04073
454.0408
454.04094
454.04116
454.04142
454.04143
454.04083
454.04083
454.04062
454.04053
454.04053
454.0406
454.04076
454.04099
454.0413
454.04135
454.04073
454.04074
454.04053
454.04045
454.04045
454.04053
454.0407
454.04095
454.04127
454.04134
454.04072
454.04073
454.04053
454.04045
454.04046
454.04055
454.04073
454.04099
454.04132
454.0414
454.04078
454.0408
454.0406
454.04053
454.04055
454.04065
454.04084
454.0411
454.04144
454.04152
454.04092
454.04094
454.04076
454.0407
454.04073
454.04084
454.04102
454.04129
454.04163
454.04171
454.04111
454.04116
454.04099
454.04095
454.04099
454.0411
454.04129
454.04156
454.0419
454.04198
454.04131
454.04142
454.0413
454.04127
454.04132
454.04144
454.04163
454.0419
454.04223
454.04228
454.04132
454.04143
454.04135
454.04134
454.0414
454.04152
454.04171
454.04198
454.04228
454.04215
461.5169
461.51704
461.51681
461.51672
461.51671
461.51677
461.5169
461.51709
461.51729
461.5173
461.51704
461.51702
461.51681
461.51672
461.51671
461.51678
461.51693
461.51714
461.5174
461.51741
461.51681
461.51681
461.5166
461.51652
461.51652
461.51659
461.51675
461.51698
461.51728
461.51734
461.51672
461.51672
461.51652
461.51644
461.51645
461.51653
461.5167
461.51694
461.51726
461.51733
461.51671
461.51671
461.51652
461.51645
461.51646
461.51655
461.51672
461.51698
461.51731
461.51739
461.51677
461.51678
461.51659
461.51653
461.51655
461.51665
461.51683
461.51709
461.51743
461.51751
461.5169
461.51693
461.51675
461.5167
461.51672
461.51683
461.51702
461.51728
461.51762
461.5177
461.51709
461.51714
461.51698
461.51694
461.51698
461.51709
461.51728
461.51755
461.51788
461.51796
461.51729
461.5174
461.51728
461.51726
461.51731
461.51743
461.51762
461.51788
461.51821
461.51826
461.5173
461.51741
461.51734
461.51733
461.51739
461.51751
461.5177
461.51796
461.51826
461.51814
468.97129
468.97142
468.9712
468.97112
468.97111
468.97117
468.9713
468.97149
468.97169
468.9717
468.97142
468.9714
468.9712
468.97112
468.97111
468.97118
468.97132
468.97153
468.97179
468.9718
468.9712
468.9712
468.971
468.97092
468.97093
468.971
468.97115
468.97138
468.97168
468.97174
468.97112
468.97112
468.97092
468.97085
468.97086
468.97094
468.97111
468.97135
468.97166
468.97173
468.97111
468.97111
468.97093
468.97086
468.97087
468.97097
468.97114
468.97139
468.97171
468.97179
468.97117
468.97118
468.971
468.97094
468.97097
468.97107
468.97124
468.9715
468.97182
468.97191
468.9713
468.97132
468.97115
468.97111
468.97114
468.97124
468.97143
468.97169
468.97201
468.97209
468.97149
468.97153
468.97138
468.97135
468.97139
468.9715
468.97169
468.97195
468.97227
468.97235
468.97169
468.97179
468.97168
468.97166
468.97171
468.97182
468.97201
468.97227
468.97259
468.97265
468.9717
468.9718
468.97174
468.97173
468.97179
468.97191
468.97209
468.97235
468.97265
468.97253
476.4038
476.40391
476.40371
476.40363
476.40362
476.40369
476.40382
476.404
476.40419
476.40421
476.40391
476.4039
476.4037
476.40363
476.40362
476.40369
476.40383
476.40404
476.40429
476.4043
476.40371
476.4037
476.40352
476.40344
476.40345
476.40352
476.40367
476.4039
476.40418
476.40424
476.40363
476.40363
476.40344
476.40338
476.40339
476.40347
476.40363
476.40386
476.40417
476.40424
476.40362
476.40362
476.40345
476.40339
476.4034
476.4035
476.40366
476.4039
476.40421
476.4043
476.40369
476.40369
476.40352
476.40347
476.4035
476.40359
476.40377
476.40402
476.40433
476.40441
476.40382
476.40383
476.40367
476.40363
476.40366
476.40377
476.40394
476.4042
476.40451
476.4046
476.404
476.40404
476.4039
476.40386
476.4039
476.40402
476.4042
476.40445
476.40477
476.40485
476.40419
476.40429
476.40418
476.40417
476.40421
476.40433
476.40451
476.40477
476.40507
476.40513
476.40421
476.4043
476.40424
476.40424
476.4043
476.40441
476.4046
476.40485
476.40513
476.40503
483.81403
483.81413
483.81394
483.81387
483.81386
483.81393
483.81405
483.81423
483.81442
483.81444
483.81413
483.81411
483.81393
483.81386
483.81386
483.81393
483.81407
483.81427
483.81451
483.81453
483.81394
483.81393
483.81376
483.81369
483.8137
483.81377
483.81392
483.81413
483.81441
483.81447
483.81387
483.81386
483.81369
483.81363
483.81364
483.81373
483.81388
483.81411
483.8144
483.81447
483.81386
483.81386
483.8137
483.81364
483.81366
483.81375
483.81391
483.81415
483.81445
483.81453
483.81393
483.81393
483.81377
483.81373
483.81375
483.81385
483.81402
483.81426
483.81456
483.81464
483.81405
483.81407
483.81392
483.81388
483.81391
483.81402
483.81419
483.81443
483.81474
483.81482
483.81423
483.81427
483.81413
483.81411
483.81415
483.81426
483.81443
483.81468
483.81498
483.81506
483.81442
483.81451
483.81441
483.8144
483.81445
483.81456
483.81474
483.81498
483.81528
483.81534
483.81444
483.81453
483.81447
483.81447
483.81453
483.81464
483.81482
483.81506
483.81534
483.81524
491.20152
491.20161
491.20144
491.20137
491.20137
491.20143
491.20155
491.20172
491.20191
491.20193
491.20161
491.20159
491.20143
491.20136
491.20137
491.20143
491.20156
491.20175
491.20199
491.20201
491.20144
491.20143
491.20127
491.20121
491.20121
491.20129
491.20143
491.20163
491.2019
491.20196
491.20137
491.20136
491.20121
491.20115
491.20116
491.20125
491.20139
491.20161
491.20189
491.20196
491.20137
491.20137
491.20121
491.20116
491.20118
491.20127
491.20143
491.20165
491.20194
491.20201
491.20143
491.20143
491.20129
491.20125
491.20127
491.20137
491.20153
491.20176
491.20205
491.20213
491.20155
491.20156
491.20143
491.20139
491.20143
491.20153
491.20169
491.20192
491.20222
491.2023
491.20172
491.20175
491.20163
491.20161
491.20165
491.20176
491.20192
491.20216
491.20245
491.20253
491.20191
491.20199
491.2019
491.20189
491.20194
491.20205
491.20222
491.20245
491.20273
491.20279
491.20193
491.20201
491.20196
491.20196
491.20201
491.20213
491.2023
491.20253
491.20279
491.2027
498.56574
498.56582
498.56566
498.5656
498.5656
498.56566
498.56578
498.56594
498.56612
498.56614
498.56582
498.5658
498.56565
498.56559
498.5656
498.56567
498.56579
498.56597
498.56619
498.56622
498.56566
498.56565
498.5655
498.56545
498.56546
498.56553
498.56567
498.56586
498.56611
498.56617
498.5656
498.56559
498.56545
498.5654
498.56542
498.56549
498.56564
498.56584
498.5661
498.56617
498.5656
498.5656
498.56546