/*--------------------------------*- C++ -*----------------------------------*\
| =========                 |                                                 |
| \\      /  F ield         | OpenFOAM: The Open Source CFD Toolbox           |
|  \\    /   O peration     | Version:  v2106                                 |
|   \\  /    A nd           | Website:  www.openfoam.com                      |
|    \\/     M anipulation  |                                                 |
\*---------------------------------------------------------------------------*/
FoamFile
{
    version     2.0;
    format      ascii;
    arch        "LSB;label=32;scalar=64";
    class       volScalarField;
    location    "47.5";
    object      gradTx;
}
// * * * * * * * * * * * * * * * * * * * * * * * * * * * * * * * * * * * * * //

dimensions      [0 -1 0 1 0 0 0];

internalField   nonuniform List<scalar> 
4000
(
-0.00021776356
-0.00047256788
-0.00022904058
-0.00011912142
-3.1866455e-05
4.3341266e-05
0.0001070008
0.00015281888
0.00016143826
5.0943891e-05
-0.00018850427
-0.00041893224
-0.00021577247
-0.00011358775
-2.7851591e-05
4.762084e-05
0.00011374247
0.00016711028
0.0001965342
6.779005e-05
-0.00018200646
-0.00040321597
-0.0002053991
-0.00010643904
-2.233082e-05
5.396174e-05
0.00012186455
0.00017879385
0.00021243761
7.3641315e-05
-0.00017965885
-0.00039529075
-0.00019821399
-9.9738921e-05
-1.5613873e-05
6.0240112e-05
0.00012946111
0.00018737215
0.00022084424
7.6271086e-05
-0.00017831736
-0.0003905336
-0.00019155027
-9.3551465e-05
-9.5050335e-06
6.7008943e-05
0.00013577742
0.00019393404
0.00022618965
7.7718541e-05
-0.00017698229
-0.00038575512
-0.00018597626
-8.6913132e-05
-3.2320894e-06
7.2897903e-05
0.00014193555
0.0001990786
0.00023016276
7.8738858e-05
-0.00017546431
-0.00037991313
-0.00017893099
-8.0504253e-05
3.1527605e-06
7.8837485e-05
0.00014731466
0.00020421315
0.00023376831
7.9650008e-05
-0.00017248784
-0.00037089137
-0.00017025763
-7.3000271e-05
9.2423428e-06
8.443513e-05
0.00015258702
0.00020908126
0.00023796491
8.0786759e-05
-0.00016593672
-0.00035393817
-0.00015866912
-6.5364042e-05
1.4859215e-05
8.9116587e-05
0.0001573173
0.00021418865
0.00024307785
8.2451433e-05
-0.00014909055
-0.00031989204
-0.00014594759
-5.9248222e-05
1.8560863e-05
9.2013801e-05
0.00016038918
0.00021839079
0.00024902696
8.4752838e-05
-0.00058787239
-0.0012912363
-0.00064802334
-0.00034150506
-8.7084355e-05
0.00013727123
0.00033150664
0.00048078088
0.00054204094
0.00018088035
-0.0005032146
-0.0011366524
-0.00061044494
-0.00032558588
-7.5328489e-05
0.00015014123
0.00035223951
0.00052634532
0.00066536274
0.00024183911
-0.00048481648
-0.0010925262
-0.00058132603
-0.00030471863
-5.8685e-05
0.0001689368
0.00037670101
0.00056185156
0.00071260119
0.00025901527
-0.00047816233
-0.0010699551
-0.00055991131
-0.00028503685
-3.904796e-05
0.00018809816
0.00039932875
0.00058765554
0.00073778884
0.00026676873
-0.00047420372
-0.0010557398
-0.00054077698
-0.00026624744
-2.0555819e-05
0.00020789151
0.00041853245
0.00060711051
0.00075379206
0.00027111421
-0.00047032509
-0.0010415558
-0.00052363078
-0.00024690767
-1.7603327e-06
0.00022587992
0.00043675937
0.00062290152
0.00076571899
0.00027418774
-0.0004656237
-0.0010240742
-0.00050282007
-0.00022729271
1.7225958e-05
0.000243599
0.0004531392
0.00063821876
0.00077689538
0.00027703603
-0.00045650317
-0.00099636139
-0.00047654154
-0.00020507624
3.5670296e-05
0.00026048669
0.00046917513
0.00065352975
0.00079017831
0.00028076576
-0.00043524741
-0.00094300352
-0.00044150986
-0.00018203378
5.2471945e-05
0.00027470728
0.00048376742
0.00067018131
0.000808697
0.00028713607
-0.00037428863
-0.00082580113
-0.00040411544
-0.00016388537
6.3600443e-05
0.00028359002
0.00049363445
0.00068533135
0.00083752846
0.00029998674
-0.00089001989
-0.0019720321
-0.0010128412
-0.00053470734
-0.00012306991
0.00024829599
0.00057841628
0.00084924275
0.0010118255
0.00035233439
-0.0007615577
-0.0017368689
-0.00095487415
-0.00050956543
-0.00010388443
0.00026967049
0.00061328754
0.00092693008
0.0012249429
0.00045797939
-0.00073324439
-0.0016689463
-0.00090919408
-0.00047582078
-7.6470936e-05
0.00030076915
0.00065402285
0.00098613385
0.0013026088
0.00048597605
-0.00072291301
-0.0016332217
-0.00087443873
-0.0004437767
-4.4232723e-05
0.0003326831
0.00069157034
0.0010291428
0.001344281
0.00049865524
-0.00071648313
-0.0016100597
-0.00084340531
-0.00041269595
-1.3548183e-05
0.00036541577
0.00072365154
0.0010613654
0.0013708275
0.00050585019
-0.00071012269
-0.0015866228
-0.00081478702
-0.00038085392
1.7577922e-05
0.00039540582
0.00075393384
0.0010879298
0.0013908226
0.00051100293
-0.00070223346
-0.0015575865
-0.0007803927
-0.00034804933
4.9174548e-05
0.00042499087
0.00078156737
0.001113789
0.0014100941
0.00051596611
-0.00068687517
-0.0015110162
-0.00073650421
-0.00031122524
7.9941398e-05
0.00045332164
0.00080887325
0.0011406776
0.0014342446
0.00052298958
-0.0006504419
-0.0014206955
-0.00067817995
-0.00027281774
0.0001079615
0.00047741443
0.00083431521
0.0011715491
0.0014723634
0.00053689794
-0.0005447969
-0.001220233
-0.00061716615
-0.00024300652
0.00012648302
0.00049258832
0.00085229519
0.0012029468
0.0015476601
0.00057318742
-0.0011654638
-0.0025874805
-0.0013347999
-0.00069803903
-0.00013688632
0.00037871275
0.00084635892
0.0012445371
0.00151263
0.0005342511
-0.00099723813
-0.0022793534
-0.0012584091
-0.00066428061
-0.00011063262
0.00040846887
0.00089527476
0.0013542793
0.0018159932
0.00068483661
-0.00096004574
-0.0021900391
-0.0011977072
-0.0006185359
-7.2820823e-05
0.00045163768
0.00095229781
0.0014371308
0.0019236272
0.00072342326
-0.00094631091
-0.0021422607
-0.0011503719
-0.00057461673
-2.844519e-05
0.00049602667
0.0010043942
0.0014970303
0.0019814206
0.00074090119
-0.00093754012
-0.002110536
-0.0011080433
-0.00053165424
1.4223948e-05
0.00054147834
0.0010493378
0.0015419541
0.0020183664
0.00075088827
-0.00092880845
-0.0020781952
-0.0010681845
-0.00048757193
5.7512227e-05
0.00058338625
0.0010915523
0.0015793347
0.0020465035
0.00075814472
-0.00091770271
-0.002037611
-0.0010204855
-0.00044181356
0.00010158358
0.00062480483
0.0011306156
0.0016159838
0.0020741903
0.00076532388
-0.00089619788
-0.0019722563
-0.00095906508
-0.00039053199
0.00014467034
0.00066466416
0.0011695419
0.0016551805
0.0021101152
0.00077593947
-0.00084454122
-0.0018450173
-0.00087773458
-0.0003369903
0.00018388794
0.00069883457
0.0012064615
0.0017016157
0.0021698773
0.0007981584
-0.00069395573
-0.0015612591
-0.00079363767
-0.00029579275
0.00020975321
0.00072048797
0.0012331537
0.0017508675
0.002293761
0.00085852861
-0.0014260351
-0.0031624913
-0.001623993
-0.00083516994
-0.00012995884
0.00052619806
0.0011297795
0.0016544265
0.0020244761
0.00071885854
-0.0012196438
-0.0027846078
-0.0015303327
-0.00079326051
-9.6898017e-05
0.00056414737
0.0011925602
0.0017957711
0.0024166151
0.00091361917
-0.0011741128
-0.0026750098
-0.0014554596
-0.0007361879
-4.9050946e-05
0.00061893549
0.0012654434
0.0019018104
0.0025535778
0.00096252882
-0.0011572036
-0.0026160744
-0.0013962782
-0.00068088593
7.1128852e-06
0.00067568234
0.0013318784
0.0019782941
0.0026271511
0.00098469509
-0.0011461732
-0.0025760277
-0.001343085
-0.00062652023
6.135712e-05
0.00073345428
0.0013894098
0.0020356951
0.0026743034
0.00099741604
-0.001135163
-0.0025351665
-0.0012922673
-0.00057047788
0.00011655736
0.00078717547
0.0014434159
0.002083814
0.0027105166
0.0010067553
-0.0011208737
-0.0024832903
-0.0012315501
-0.00051200145
0.00017285023
0.00084029569
0.0014938918
0.002131315
0.0027467431
0.0010162038
-0.0010933093
-0.0023995026
-0.0011529491
-0.00044651148
0.00022809483
0.0008916575
0.0015445169
0.0021830484
0.0027946868
0.0010304625
-0.0010266439
-0.0022359064
-0.001049027
-0.00037811675
0.00027837012
0.00093591561
0.0015931263
0.0022453394
0.0028763397
0.0010610742
-0.0008318833
-0.0018704009
-0.00094241311
-0.00032578593
0.00031146041
0.00096409727
0.001628687
0.0023126449
0.0030480699
0.0011449493
-0.001674152
-0.0037044659
-0.0018865129
-0.00095024369
-0.00010568288
0.00068679263
0.0014223922
0.0020695543
0.0025361171
0.00090229871
-0.0014309212
-0.0032594926
-0.0017763993
-0.00090055533
-6.6124321e-05
0.0007327419
0.0014986891
0.0022416889
0.0030146969
0.0011400651
-0.0013775032
-0.0031306013
-0.0016880419
-0.00083268834
-8.5811337e-06
0.00079881165
0.0015870146
0.0023702891
0.0031801589
0.0011989897
-0.0013575122
-0.0030610216
-0.0016176038
-0.00076650506
5.8831563e-05
0.00086747657
0.0016673899
0.0024629065
0.0032690572
0.0012257002
-0.0013443776
-0.003013046
-0.0015539916
-0.00070107991
0.00012439345
0.00093723565
0.0017372172
0.0025324822
0.0033261744
0.00124109
-0.0013311398
-0.0029639199
-0.0014926479
-0.00063353046
0.00019112901
0.0010024557
0.0018027571
0.0025911383
0.0033703156
0.001252467
-0.0013137448
-0.002901027
-0.0014192569
-0.00056265592
0.00025937259
0.0010670346
0.0018644832
0.0026493405
0.0034149455
0.0012641566
-0.0012802752
-0.0027992975
-0.0013239471
-0.00048332784
0.00032649633
0.0011297217
0.0019266701
0.002713562
0.0034748722
0.0012820135
-0.0011989884
-0.0026002922
-0.0011980394
-0.00040046283
0.00038760447
0.0011838929
0.0019869069
0.002791562
0.0035780432
0.0013208884
-0.00096122195
-0.0021552556
-0.0010695868
-0.00033731242
0.0004277547
0.0012184928
0.0020312267
0.0028766597
0.003796563
0.0014276934
-0.0019098467
-0.0042152064
-0.0021259761
-0.0010466838
-6.7668974e-05
0.00085610315
0.001718648
0.0024827935
0.0030399991
0.0010821503
-0.0016312283
-0.0037059135
-0.0020002036
-0.00098955668
-2.1921122e-05
0.00090970717
0.0018080039
0.0026846804
0.0036020704
0.0013614598
-0.001570318
-0.0035586491
-0.0018990111
-0.0009114207
4.4944018e-05
0.00098664798
0.0019112281
0.0028350744
0.0037950289
0.0014300402
-0.0015473799
-0.0034789484
-0.0018178298
-0.00083481657
0.0001231554
0.0010668064
0.0020050429
0.0029432761
0.0038987156
0.0014611311
-0.0015322333
-0.0034233861
-0.001744271
-0.00075883926
0.00019958101
0.0011481284
0.002086757
0.0030246217
0.003965444
0.0014790909
-0.0015168813
-0.0033663354
-0.0016727533
-0.00068017957
0.00027745442
0.0012244859
0.0021634701
0.0030935133
0.0040173239
0.0014924592
-0.0014964973
-0.0032928412
-0.0015871717
-0.00059735883
0.00035726048
0.0013001655
0.0022361614
0.003162159
0.0040701109
0.0015063271
-0.0014573108
-0.0031737553
-0.0014757142
-0.00050465057
0.00043588161
0.0013738903
0.0023095779
0.003238545
0.0041417713
0.0015276807
-0.001361906
-0.0029405603
-0.0013285759
-0.00040781152
0.00050749767
0.0014377028
0.0023811931
0.0033319224
0.0042658921
0.0015745963
-0.0010825965
-0.0024187254
-0.0011790691
-0.00033423544
0.0005544899
0.0014785571
0.0024340253
0.0034343262
0.004529866
0.0017036633
-0.0021324374
-0.0046943494
-0.0023442213
-0.0011272192
-1.9188532e-05
0.0010300901
0.0020135732
0.0028885735
0.0035305031
0.0012566103
-0.0018201513
-0.0041239048
-0.0022035952
-0.0010630061
3.2482961e-05
0.0010910224
0.0021154258
0.0031189748
0.0041726117
0.0015757412
-0.001752141
-0.0039592165
-0.0020902496
-0.0009751475
0.00010821357
0.001178349
0.0022329209
0.0032902324
0.0043918715
0.0016535517
-0.0017264006
-0.003869933
-0.0019988832
-0.00088861875
0.00019672263
0.0012695019
0.0023396042
0.0034133609
0.0045097262
0.0016888387
-0.0017093322
-0.0038071448
-0.0019158622
-0.000802578
0.00028352815
0.0013618834
0.0024327206
0.0035060055
0.0045856555
0.0017092517
-0.0016919529
-0.0037425309
-0.0018346435
-0.00071330412
0.00037205477
0.0014489359
0.0025201536
0.0035847006
0.0046449745
0.0017245391
-0.0016687106
-0.0036588859
-0.0017373827
-0.00061904358
0.00046296211
0.0015352587
0.0026034197
0.0036634533
0.0047056207
0.0017405142
-0.0016240512
-0.0035231833
-0.001610465
-0.00051350439
0.00055260413
0.0016196349
0.0026876722
0.0037515424
0.0047886161
0.0017652406
-0.0015151098
-0.003257227
-0.0014429966
-0.00040327045
0.00063430182
0.0016927064
0.0027702615
0.0038597707
0.0049329479
0.0018199135
-0.0011959788
-0.0026618149
-0.0012733505
-0.00031972045
0.00068785245
0.0017396002
0.0028313137
0.0039788696
0.0052407538
0.0019704445
-0.0023409705
-0.005140678
-0.0025421947
-0.0011937744
3.6978592e-05
0.0012052759
0.0023029987
0.0032822069
0.0040030294
0.0014242173
-0.0019969337
-0.0045126017
-0.0023876081
-0.0011228953
9.4245246e-05
0.0012731725
0.0024167291
0.003539703
0.0047212195
0.0017812044
-0.001922253
-0.0043315119
-0.0022628062
-0.0010258679
0.00017835876
0.0013703321
0.0025477725
0.0037307784
0.0049654295
0.0018677629
-0.0018938761
-0.0042332132
-0.0021618423
-0.00092997071
0.00027661028
0.0014719168
0.0026666679
0.0038680657
0.005096721
0.0019070295
-0.0018750003
-0.0041636054
-0.0020698816
-0.00083440809
0.00037326031
0.0015747845
0.0027706157
0.0039714703
0.0051813987
0.0019297676
-0.0018556983
-0.004091833
-0.0019794773
-0.00073506915
0.00047188645
0.0016720192
0.0028682593
0.004059482
0.0052477965
0.0019468791
-0.0018297359
-0.0039985491
-0.0018711373
-0.00062995573
0.00057336269
0.0017684485
0.0029615808
0.0041478938
0.005315933
0.0019648654
-0.001779878
-0.0038470593
-0.0017295385
-0.00051222588
0.00067347792
0.0018629843
0.0030562
0.0042471685
0.0054097678
0.001992815
-0.0016580718
-0.0035499776
-0.0015427745
-0.0003892638
0.00076477896
0.001944872
0.0031492674
0.0043696009
0.0055734321
0.0020549099
-0.0013010846
-0.0028846592
-0.001354037
-0.00029625669
0.00082455339
0.0019975186
0.0032181713
0.0045046677
0.0059231727
0.0022259754
-0.002534428
-0.0055525425
-0.0027202727
-0.001247772
9.857831e-05
0.0013786684
0.0025833764
0.0036597625
0.00445359
0.0015836757
-0.002160758
-0.0048707067
-0.0025526791
-0.00117066
0.00016108175
0.0014531042
0.0027082832
0.0039427663
0.0052434313
0.0019763176
-0.0020798708
-0.0046743534
-0.00241721
-0.0010650646
0.00025306356
0.0015594977
0.0028520635
0.0041524874
0.0055110934
0.0020710914
-0.0020490289
-0.004567644
-0.0023072852
-0.00096040458
0.00036044212
0.001670889
0.0029824488
0.0043030848
0.0056550074
0.0021140963
-0.0020284628
-0.0044916461
-0.0022069546
-0.00085591971
0.00046634574
0.0017836077
0.003096574
0.0044166157
0.0057479152
0.002139019
-0.00200736
-0.0044131588
-0.0021079248
-0.00074712236
0.00057445168
0.0018904331
0.0032038543
0.0045134076
0.005820992
0.0021578491
-0.001978839
-0.0043108168
-0.0019891698
-0.00063180969
0.00068588975
0.0019963937
0.0033066502
0.0046109448
0.0058962049
0.0021777365
-0.0019240888
-0.0041444718
-0.0018337592
-0.00050261187
0.00079585713
0.0021005093
0.0034110635
0.0047208024
0.0060003065
0.0022087378
-0.0017901698
-0.0038180919
-0.0016288513
-0.00036768145
0.00089621255
0.0021907228
0.0035140449
0.0048566916
0.0061822976
0.0022778721
-0.0013975279
-0.0030869684
-0.0014221831
-0.00026579005
0.00096184178
0.002248799
0.0035903779
0.0050068951
0.0065718148
0.0024684159
-0.0027118003
-0.0059281739
-0.0028784986
-0.0012902415
0.00016379075
0.0015477611
0.0028516289
0.0040178111
0.0048786788
0.0017338285
-0.0023107981
-0.0051967755
-0.0026989332
-0.0012073781
0.000231147
0.0016282819
0.0029869448
0.0043245776
0.0057352995
0.0021597034
-0.0022242013
-0.0049863652
-0.002553632
-0.0010938729
0.00033042498
0.0017432529
0.0031425708
0.0045516495
0.0060247638
0.0022621076
-0.0021910878
-0.0048719089
-0.0024354235
-0.00098109206
0.00044626315
0.0018637603
0.0032836519
0.0047146337
0.0061804126
0.0023085863
-0.002168959
-0.0047899966
-0.0023273459
-0.00086833684
0.00056077263
0.001985643
0.0034072465
0.0048375915
0.0062809763
0.0023355399
-0.0021461837
-0.0047052747
-0.0022203074
-0.00075074443
0.00067768673
0.0021013904
0.0035235114
0.0049425672
0.0063602821
0.0023559726
-0.0021152785
-0.0045945048
-0.0020918676
-0.00062594667
0.00079840274
0.0022162429
0.0036351553
0.0050486331
0.0064421092
0.0023776383
-0.0020559731
-0.0044143328
-0.0019236003
-0.00048606871
0.00091754622
0.0023292992
0.0037487247
0.0051684005
0.0065558374
0.0024115001
-0.0019107675
-0.0040606665
-0.0017018115
-0.00034000456
0.0010263362
0.0024272845
0.0038609887
0.0053169116
0.0067550335
0.0024872472
-0.0014848926
-0.0032682478
-0.0014784872
-0.00022985615
0.0010974157
0.002490432
0.00394428
0.0054813249
0.0071819234
0.0026960933
-0.0028721186
-0.0062657949
-0.0030167097
-0.0013219277
0.00023111084
0.0017104313
0.0031051186
0.0043533326
0.0052751401
0.0018736271
-0.0024462586
-0.0054893457
-0.0028262765
-0.0012338201
0.00030290301
0.0017965392
0.0032500136
0.0046819743
0.0061932597
0.0023301094
-0.0023544859
-0.0052661782
-0.0026720424
-0.0011131062
0.00040886684
0.0019193818
0.0034165236
0.0049249948
0.0065027411
0.002439512
-0.0023193032
-0.0051446785
-0.002546284
-0.00099289973
0.00053244899
0.0020482561
0.0035674308
0.0050993618
0.0066691644
0.0024891771
-0.0022957474
-0.0050573566
-0.002431122
-0.00087257537
0.00065485767
0.0021785593
0.0036997334
0.0052309916
0.0067767637
0.0025179951
-0.0022714417
-0.0049669225
-0.002316738
-0.00074690888
0.00077986486
0.0023025114
0.0038242676
0.0053435053
0.0068618092
0.0025399039
-0.0022383421
-0.0048484061
-0.0021794051
-0.00061339794
0.00090911294
0.0024255486
0.0039440728
0.0054574477
0.006949746
0.0025632141
-0.0021748451
-0.0046555175
-0.0019993208
-0.00046369907
0.0010367017
0.0025468509
0.0040661002
0.0055863878
0.0070723995
0.0025997273
-0.0020192477
-0.0042767439
-0.0017620176
-0.00030740115
0.0011532564
0.0026520047
0.0041869554
0.0057466054
0.0072875717
0.0026816196
-0.0015627653
-0.0034279165
-0.0015234161
-0.0001896765
0.0012293465
0.0027198332
0.0042766905
0.0059242136
0.0077491997
0.0029074793
-0.0030144844
-0.0065637182
-0.0031346599
-0.0013433742
0.00029931262
0.0018648585
0.003341546
0.0046636711
0.005640144
0.0020021193
-0.0025663904
-0.0057470028
-0.0029345338
-0.0012505643
0.00037509986
0.0019560208
0.0034951258
0.0050121625
0.006614102
0.0024863948
-0.0024700075
-0.0055124532
-0.0027723163
-0.0011233881
0.00048709497
0.0020859813
0.0036714949
0.0052696333
0.0069416927
0.0026021211
-0.002432973
-0.0053846592
-0.0026397853
-0.00099649532
0.00061766108
0.0022224259
0.0038312976
0.0054543072
0.0071178639
0.0026546663
-0.0024081343
-0.0052924671
-0.0025182472
-0.00086934535
0.00074721001
0.0023603477
0.003971492
0.0055937971
0.0072318346
0.0026851705
-0.0023824481
-0.0051968769
-0.0023972241
-0.00073638027
0.00087954259
0.002491742
0.0041035286
0.0057131552
0.007322095
0.0027084199
-0.0023473593
-0.0050713443
-0.0022518422
-0.00059497897
0.0010165262
0.0026222063
0.0042307572
0.0058342719
0.0074155986
0.0027332305
-0.0022800616
-0.0048669279
-0.0020610522
-0.00043638318
0.0011517736
0.0027510072
0.0043604907
0.0059715899
0.0075464204
0.0027721694
-0.0021150318
-0.004465382
-0.0018096975
-0.00027081525
0.0012753742
0.0028626812
0.0044891918
0.0061425255
0.0077762408
0.0028597015
-0.0016307563
-0.0035653793
-0.0015572903
-0.00014624122
0.0013560047
0.0029347711
0.0045848161
0.0063322321
0.0082697587
0.0031011814
-0.0031380857
-0.0068203904
-0.0032320631
-0.0013550038
0.00036736851
0.0020094867
0.0035589036
0.0049464742
0.0059711581
0.0021184479
-0.0026705198
-0.0059684427
-0.0030234777
-0.0012580634
0.00044668542
0.002105142
0.0037202212
0.0053126667
0.0069949494
0.0026275307
-0.0025701206
-0.0057239566
-0.0028542754
-0.0011252092
0.0005640193
0.0022414189
0.0039053623
0.0055830006
0.007338629
0.0027488671
-0.0025314628
-0.005590655
-0.0027157903
-0.00099241257
0.00070076658
0.0023845925
0.004073076
0.0057768426
0.0075234615
0.002803968
-0.0025054936
-0.005494162
-0.0025886246
-0.00085921922
0.00083665572
0.0025292825
0.0042202979
0.0059233323
0.0076431002
0.0028359701
-0.0024785849
-0.0053940042
-0.0024617092
-0.00071977616
0.00097549744
0.0026673089
0.0043590229
0.0060487988
0.0077380182
0.0028604164
-0.0024417235
-0.0052622298
-0.0023091741
-0.00057135563
0.0011193721
0.0028043962
0.0044928905
0.0061763428
0.0078365112
0.002886574
-0.0023710398
-0.0050475454
-0.0021088543
-0.00040484059
0.0012614444
0.0029399015
0.0046295302
0.0063211915
0.0079746938
0.0029276983
-0.0021975951
-0.0046257034
-0.0018449982
-0.00023102383
0.0013913284
0.0030574066
0.0047652831
0.0065017905
0.0082177442
0.0030203299
-0.0016885123
-0.0036800745
-0.0015803422
-0.00010036939
0.0014760011
0.0031333125
0.0048662058
0.0067024244
0.0087401075
0.0032759405
-0.0032422092
-0.0070344406
-0.0033086452
-0.0013571544
0.00043440427
0.0021429709
0.0037554431
0.0051996726
0.0062659311
0.0022218472
-0.0027580538
-0.0061525122
-0.0030928862
-0.0012566806
0.00051676314
0.0022425301
0.0039235044
0.0055813089
0.0073332437
0.0027525987
-0.002654257
-0.0058995973
-0.0029177418
-0.0011189666
0.00063871202
0.0023842833
0.0041162758
0.005862839
0.0076908932
0.002878797
-0.0026142145
-0.0057616088
-0.0027741565
-0.00098108611
0.00078079773
0.002533303
0.0042908662
0.0060646538
0.0078832468
0.0029361137
-0.0025872744
-0.0056614096
-0.0026421473
-0.00084266987
0.00092218965
0.0026838693
0.0044442079
0.0062172399
0.0080078152
0.0029694161
-0.0025593086
-0.005557301
-0.0025101219
-0.00069760845
0.0010666845
0.0028276766
0.0045887659
0.0063480408
0.0081068048
0.0029949083
-0.0025209016
-0.0054200971
-0.0023513744
-0.00054308389
0.0012165633
0.0029705415
0.0047284468
0.0064812252
0.0082096793
0.0030222513
-0.0024472677
-0.0051964682
-0.0021427601
-0.00036967645
0.0013645841
0.0031119156
0.0048711498
0.0066327109
0.0083543698
0.0030653069
-0.0022664774
-0.0047569308
-0.0018680296
-0.00018868294
0.0014999504
0.0032345268
0.0050131169
0.0068218591
0.0086091507
0.0031624667
-0.0017357259
-0.0037715061
-0.0015927571
-5.2754331e-05
0.0015881422
0.0033137796
0.0051187148
0.0070321824
0.0091571375
0.0034306314
-0.0033262485
-0.0072047062
-0.0033641796
-0.0013501193
0.00049966802
0.0022641486
0.0039296461
0.005421462
0.0065224892
0.0023116439
-0.0028284882
-0.0062982332
-0.003142577
-0.0012467318
0.00058456147
0.0023669983
0.0041034153
0.0058161893
0.0076267428
0.0028607917
-0.0027219332
-0.0060384487
-0.0029625699
-0.0011050064
0.00071037364
0.0025133541
0.0043026286
0.0061071796
0.0079961567
0.0029910737
-0.0026807531
-0.0058966235
-0.0028147691
-0.00096289221
0.00085692172
0.0026673011
0.0044830192
0.0063157227
0.0081948451
0.0030502527
-0.0026530081
-0.0057933357
-0.0026787304
-0.00082010662
0.0010029446
0.0028228153
0.004641535
0.0064734642
0.0083235748
0.0030846498
-0.0026241575
-0.0056859179
-0.0025424089
-0.00067032121
0.0011522018
0.0029715168
0.0047910344
0.0066087927
0.0084260251
0.0031110305
-0.0025844417
-0.0055441302
-0.0023784276
-0.00051064541
0.0013071604
0.0031192783
0.0049356672
0.0067467959
0.008532646
0.00313939
-0.0025083114
-0.0053129355
-0.0021628049
-0.0003314148
0.001460217
0.0032656491
0.0050835533
0.0069039841
0.0086829516
0.0031841113
-0.0023212901
-0.0048584126
-0.0018788941
-0.00014436083
0.0016002303
0.00339261
0.0052308587
0.0071005145
0.0089478913
0.0032851999
-0.0017721423
-0.0038392679
-0.0015947026
-3.9967324e-06
0.0016913969
0.0034747203
0.0053404799
0.0073192295
0.0095181221
0.0035642651
-0.0033897124
-0.0073302548
-0.0033985079
-0.0013341745
0.00056250064
0.0023720163
0.0040802073
0.0056102911
0.0067391324
0.0023872571
-0.002881416
-0.0064048254
-0.0031724274
-0.0012285104
0.00064940549
0.0024775226
0.004258613
0.0060156758
0.0078735189
0.0029514156
-0.0027727595
-0.0061397727
-0.0029886676
-0.0010836471
0.0007783053
0.0026275787
0.0044630399
0.0063143323
0.0082524196
0.003084978
-0.0027306957
-0.0059949851
-0.0028375623
-0.00093817536
0.00092841235
0.0027855038
0.0046481185
0.0065283178
0.0084562175
0.0031456543
-0.0027023167
-0.0058892454
-0.0026983326
-0.00079190067
0.0010781659
0.002945007
0.0048108309
0.0066902417
0.0085883143
0.0031809338
-0.0026727591
-0.0057791804
-0.0025585554
-0.00063831482
0.001231265
0.0030976858
0.0049643498
0.006829263
0.008693593
0.0032080401
-0.0026319792
-0.005633683
-0.0023903513
-0.00047447235
0.0013903478
0.0032494326
0.0051130425
0.0069712338
0.0088033025
0.0032372411
-0.0025538219
-0.0053963477
-0.0021690499
-0.00029052383
0.0015474963
0.0033998974
0.0052651995
0.0071331549
0.0089582959
0.0032833521
-0.0023617227
-0.0049296418
-0.0018777094
-9.8562893e-05
0.0016912931
0.0035304247
0.0054169343
0.0073358552
0.0092317604
0.0033877461
-0.0017975642
-0.0038830605
-0.0015863514
4.537084e-05
0.0017848718
0.0036148856
0.0055299024
0.0075616128
0.0098207186
0.003675991
-0.0034322304
-0.0074104032
-0.0034115598
-0.0013095962
0.00062231725
0.0024657118
0.0042060202
0.0057648544
0.0069144344
0.0024481998
-0.0029165316
-0.0064717226
-0.0031823949
-0.0012023067
0.00071069793
0.0025732243
0.0043879628
0.0061783973
0.00807196
0.0030238907
-0.0028064433
-0.0062030356
-0.0029960153
-0.0010551987
0.00084189071
0.0027260555
0.0045963429
0.0064828785
0.0084580112
0.00315991
-0.002763755
-0.0060561781
-0.002842537
-0.00090726625
0.00099463126
0.0028869851
0.0047849682
0.0067009868
0.0086656618
0.0032217094
-0.002734917
-0.0059486381
-0.0027009748
-0.00075840433
0.001147192
0.0030494938
0.0049508739
0.0068660947
0.008800311
0.0032576538
-0.0027048346
-0.0058366046
-0.0025586037
-0.00060196494
0.0013031891
0.0032052083
0.0051074656
0.0070079514
0.0089077687
0.0032853184
-0.002663242
-0.0056882945
-0.002387214
-0.00043496605
0.0014654152
0.0033600047
0.0052593011
0.0071530141
0.0090198899
0.0033151807
-0.0025835395
-0.0054462819
-0.0021615983
-0.00024743393
0.0016256864
0.0035136355
0.0054147905
0.0073186693
0.0091786151
0.003362397
-0.0023875468
-0.0049702704
-0.0018646244
-5.1749822e-05
0.0017723798
0.0036469241
0.005570019
0.0075262894
0.0094589178
0.0034694525
-0.0018118559
-0.0039027052
-0.0015678964
9.4865848e-05
0.0018677933
0.0037332144
0.0056856369
0.0077576972
0.010062972
0.0037650997
-0.0034535566
-0.0074447285
-0.0034033665
-0.0012766767
0.00067859319
0.0025445015
0.0043061688
0.0058840875
0.0070472428
0.0024940799
-0.0029336349
-0.0064985838
-0.0031725299
-0.0011684233
0.0007679049
0.0026533574
0.0044905265
0.0063032388
0.0082207708
0.0030777538
-0.0028227934
-0.006227919
-0.0029846795
-0.0010199774
0.00090058185
0.0028080215
0.004701575
0.0066116675
0.0086115923
0.0032153913
-0.0027797439
-0.0060798968
-0.0028297744
-0.00087049625
0.0010550141
0.0029709633
0.0048925841
0.0068325539
0.0088218152
0.0032779327
-0.0027506245
-0.0059712197
-0.0026867525
-0.00071996486
0.0012094415
0.0031354754
0.0050606601
0.0069998275
0.0089581863
0.0033143203
-0.0027202027
-0.0058579082
-0.0025426652
-0.00056163661
0.0013673746
0.0032932655
0.0052193588
0.0071436448
0.0090671603
0.0033423726
-0.0026780538
-0.0057076996
-0.0023691466
-0.00039251101
0.0015317437
0.0034501569
0.0053734008
0.0072909047
0.0091810016
0.0033727119
-0.0025972976
-0.0054625019
-0.0021406077
-0.0002025516
0.0016941493
0.0036060062
0.0055312637
0.0074592725
0.0093424796
0.0034207423
-0.0023986196
-0.0049801197
-0.0018398316
-4.3509743e-06
0.0018428346
0.003741234
0.0056890284
0.007670532
0.0096278921
0.0035297992
-0.0018149456
-0.0038981525
-0.0015395632
0.00014404246
0.0019394944
0.0038288215
0.005806583
0.0079061629
0.010243317
0.0038310258
-0.0034535729
-0.0074330781
-0.0033740706
-0.001235735
0.0007308528
0.0026077708
0.0043799194
0.005967163
0.0071366796
0.0025246008
-0.0029326338
-0.0064853025
-0.0031429854
-0.001127185
0.00082054493
0.0027172991
0.0045655556
0.0063893386
0.0083189748
0.0031126593
-0.0028217225
-0.0062143284
-0.0029548223
-0.00097831649
0.00095388798
0.0028728425
0.0047779713
0.0066998131
0.008712157
0.0032510664
-0.0027785771
-0.0060660542
-0.0027994456
-0.00082820836
0.0011090598
0.0030367917
0.0049701863
0.0069221156
0.008923656
0.0033139642
-0.0027493559
-0.0059569099
-0.0026558457
-0.00067693567
0.0012644016
0.0032022929
0.0051393962
0.0070905235
0.0090609081
0.0033505704
-0.0027187823
-0.005843019
-0.0025109307
-0.00051769476
0.0014232969
0.0033611856
0.0052992235
0.0072354145
0.0091707262
0.0033788374
-0.002676337
-0.0056918383
-0.002336353
-0.00034748523
0.0015887955
0.0035192045
0.005454522
0.0073839635
0.0092855856
0.0034094667
-0.0025950248
-0.0054449672
-0.0021063
-0.00015626983
0.0017523341
0.0036763114
0.0056137849
0.0075540056
0.0094488206
0.003458015
-0.0023948866
-0.0049591882
-0.0018035761
4.3225188e-05
0.0019020944
0.0038126445
0.0057731131
0.0077676018
0.009737583
0.0035684007
-0.0018068281
-0.0038694898
-0.0015016188
0.00019248129
0.0019994043
0.0039009889
0.0058918793
0.0080060029
0.010360585
0.0038733496
-0.0034322912
-0.0073755754
-0.0033239336
-0.0011871259
0.00077866048
0.0026550164
0.0044267151
0.0060134877
0.0071821413
0.0025395624
-0.0029135464
-0.0064320123
-0.0030940246
-0.0010789486
0.00086818
0.0027645417
0.0046124852
0.0064360847
0.0083659145
0.0031283799
-0.0028032491
-0.0061623997
-0.0029067091
-0.00093057534
0.001001367
0.0029200052
0.0048249583
0.0067466907
0.0087590332
0.0032667032
-0.0027602738
-0.0060147878
-0.0027518186
-0.00078076573
0.0011563216
0.0030839512
0.0050171942
0.0069690386
0.0089705042
0.0033295696
-0.002731131
-0.0059058492
-0.0026085262
-0.00062968449
0.00131162
0.0032494208
0.0051864946
0.0071375425
0.009107791
0.0033661689
-0.0027005941
-0.0057920812
-0.002463677
-0.00047051276
0.0014704977
0.0034084364
0.0053464649
0.0072826138
0.0092177761
0.0033944762
-0.0026581141
-0.0056408603
-0.0022891168
-0.00030026885
0.0016361053
0.0035666085
0.0055020624
0.0074315359
0.0093329452
0.0034252065
-0.0025767473
-0.005393838
-0.0020589681
-0.00010897648
0.0017997685
0.0037240041
0.0056617432
0.0076022037
0.0094969308
0.0034739733
-0.0023763827
-0.0049076573
-0.0017561629
9.0582876e-05
0.0019496804
0.0038606019
0.0058216523
0.0078168196
0.0097872625
0.0035850074
-0.0017875652
-0.0038169461
-0.0014543783
0.00023978135
0.0020470403
0.0039491584
0.005940898
0.008056521
0.010414
0.0038917983
-0.0033898539
-0.0072726246
-0.0032533423
-0.0011312467
0.00082161299
0.0026858384
0.0044461694
0.0060226983
0.0071832978
0.0025388611
-0.0028765017
-0.0063390915
-0.0030260271
-0.0010241093
0.00091040791
0.0027946854
0.004630928
0.0064431112
0.0083612506
0.0031248074
-0.0027674985
-0.0060725027
-0.0028407141
-0.00087714614
0.0010426176
0.0029491105
0.0048421486
0.0067519337
0.0087518821
0.0032621941
-0.0027249583
-0.0059264633
-0.002687265
-0.0007285588
0.0011963994
0.0031120421
0.00503322
0.0069729561
0.0089620213
0.0033246415
-0.0026960735
-0.0058184022