/*--------------------------------*- C++ -*----------------------------------*\
| =========                 |                                                 |
| \\      /  F ield         | OpenFOAM: The Open Source CFD Toolbox           |
|  \\    /   O peration     | Version:  v2106                                 |
|   \\  /    A nd           | Website:  www.openfoam.com                      |
|    \\/     M anipulation  |                                                 |
\*---------------------------------------------------------------------------*/
FoamFile
{
    version     2.0;
    format      ascii;
    arch        "LSB;label=32;scalar=64";
    class       volVectorField;
    location    "47.5";
    object      gradT;
}
// * * * * * * * * * * * * * * * * * * * * * * * * * * * * * * * * * * * * * //

dimensions      [0 -1 0 1 0 0 0];

internalField   nonuniform List<vector> 
4000
(
(-0.00021776356 -0.00021776356 748.98361)
(-0.00047256788 -0.00018850426 748.98237)
(-0.00022904058 -0.00018200647 748.9818)
(-0.00011912142 -0.00017965886 748.98148)
(-3.1866455e-05 -0.00017831736 748.98134)
(4.3341266e-05 -0.00017698228 748.98135)
(0.0001070008 -0.00017546431 748.98151)
(0.00015281888 -0.00017248784 748.98179)
(0.00016143826 -0.00016593671 748.98214)
(5.0943891e-05 -0.00014909055 748.98247)
(-0.00018850427 -0.00047256789 748.98237)
(-0.00041893224 -0.00041893224 748.9813)
(-0.00021577247 -0.00040321598 748.98077)
(-0.00011358775 -0.00039529076 748.98046)
(-2.7851591e-05 -0.0003905336 748.98033)
(4.762084e-05 -0.00038575513 748.98035)
(0.00011374247 -0.00037991313 748.98052)
(0.00016711028 -0.00037089138 748.98081)
(0.0001965342 -0.00035393816 748.98121)
(6.779005e-05 -0.00031989202 748.98165)
(-0.00018200646 -0.00022904059 748.9818)
(-0.00040321597 -0.00021577247 748.98077)
(-0.0002053991 -0.0002053991 748.98027)
(-0.00010643904 -0.00019821398 748.97997)
(-2.233082e-05 -0.00019155027 748.97985)
(5.396174e-05 -0.00018597626 748.97989)
(0.00012186455 -0.00017893099 748.98007)
(0.00017879385 -0.00017025762 748.98038)
(0.00021243761 -0.00015866913 748.9808)
(7.3641315e-05 -0.00014594757 748.98128)
(-0.00017965885 -0.0001191214 748.98148)
(-0.00039529075 -0.00011358775 748.98046)
(-0.00019821399 -0.00010643902 748.97997)
(-9.9738921e-05 -9.9738919e-05 748.97969)
(-1.5613873e-05 -9.3551452e-05 748.97958)
(6.0240112e-05 -8.6913133e-05 748.97963)
(0.00012946111 -8.0504249e-05 748.97983)
(0.00018737215 -7.3000261e-05 748.98016)
(0.00022084424 -6.5364057e-05 748.98059)
(7.6271086e-05 -5.9248217e-05 748.98109)
(-0.00017831736 -3.1866459e-05 748.98134)
(-0.0003905336 -2.7851607e-05 748.98033)
(-0.00019155027 -2.2330825e-05 748.97985)
(-9.3551465e-05 -1.561388e-05 748.97958)
(-9.5050335e-06 -9.5050364e-06 748.97949)
(6.7008943e-05 -3.2320969e-06 748.97955)
(0.00013577742 3.1527549e-06 748.97976)
(0.00019393404 9.2423438e-06 748.9801)
(0.00022618965 1.4859202e-05 748.98055)
(7.7718541e-05 1.8560861e-05 748.98106)
(-0.00017698229 4.3341255e-05 748.98135)
(-0.00038575512 4.7620828e-05 748.98035)
(-0.00018597626 5.3961724e-05 748.97989)
(-8.6913132e-05 6.0240108e-05 748.97963)
(-3.2320894e-06 6.7008935e-05 748.97955)
(7.2897903e-05 7.2897902e-05 748.97962)
(0.00014193555 7.8837476e-05 748.97985)
(0.0001990786 8.4435132e-05 748.9802)
(0.00023016276 8.911659e-05 748.98066)
(7.8738858e-05 9.2013791e-05 748.98117)
(-0.00017546431 0.00010700081 748.98151)
(-0.00037991313 0.00011374248 748.98052)
(-0.00017893099 0.00012186456 748.98007)
(-8.0504253e-05 0.00012946112 748.97983)
(3.1527605e-06 0.00013577742 748.97976)
(7.8837485e-05 0.00014193555 748.97985)
(0.00014731466 0.00014731465 748.98008)
(0.00020421315 0.00015258702 748.98044)
(0.00023376831 0.00015731731 748.98091)
(7.9650008e-05 0.00016038917 748.98143)
(-0.00017248784 0.00015281888 748.98179)
(-0.00037089137 0.00016711028 748.98081)
(-0.00017025763 0.00017879384 748.98038)
(-7.3000271e-05 0.00018737215 748.98016)
(9.2423428e-06 0.00019393405 748.9801)
(8.443513e-05 0.0001990786 748.9802)
(0.00015258702 0.00020421315 748.98044)
(0.00020908126 0.00020908125 748.98082)
(0.00023796491 0.00021418865 748.9813)
(8.0786759e-05 0.00021839078 748.98182)
(-0.00016593672 0.00016143827 748.98214)
(-0.00035393817 0.0001965342 748.98121)
(-0.00015866912 0.0002124376 748.9808)
(-6.5364042e-05 0.00022084424 748.98059)
(1.4859215e-05 0.00022618965 748.98055)
(8.9116587e-05 0.00023016276 748.98066)
(0.0001573173 0.00023376832 748.98091)
(0.00021418865 0.00023796492 748.9813)
(0.00024307785 0.00024307785 748.98179)
(8.2451433e-05 0.00024902697 748.98232)
(-0.00014909055 5.0943896e-05 748.98247)
(-0.00031989204 6.7790067e-05 748.98165)
(-0.00014594759 7.3641317e-05 748.98128)
(-5.9248222e-05 7.6271086e-05 748.98109)
(1.8560863e-05 7.771853e-05 748.98106)
(9.2013801e-05 7.8738851e-05 748.98117)
(0.00016038918 7.9650006e-05 748.98143)
(0.00021839079 8.0786769e-05 748.98182)
(0.00024902696 8.2451438e-05 748.98232)
(8.4752838e-05 8.4752843e-05 748.98288)
(-0.00058787239 -0.0005878724 748.98983)
(-0.0012912363 -0.0005032146 748.98882)
(-0.00064802334 -0.00048481649 748.98833)
(-0.00034150506 -0.00047816233 748.98803)
(-8.7084355e-05 -0.0004742037 748.98791)
(0.00013727123 -0.00047032509 748.98794)
(0.00033150664 -0.0004656237 748.98812)
(0.00048078088 -0.00045650318 748.98841)
(0.00054204094 -0.00043524741 748.98881)
(0.00018088035 -0.00037428865 748.98926)
(-0.0005032146 -0.0012912363 748.98882)
(-0.0011366524 -0.0011366524 748.98796)
(-0.00061044494 -0.0010925262 748.9875)
(-0.00032558588 -0.0010699551 748.98722)
(-7.5328489e-05 -0.0010557398 748.9871)
(0.00015014123 -0.0010415558 748.98714)
(0.00035223951 -0.0010240742 748.98733)
(0.00052634532 -0.00099636139 748.98764)
(0.00066536274 -0.00094300352 748.98809)
(0.00024183911 -0.00082580114 748.98867)
(-0.00048481648 -0.00064802334 748.98833)
(-0.0010925262 -0.00061044494 748.9875)
(-0.00058132603 -0.00058132602 748.98706)
(-0.00030471863 -0.00055991131 748.9868)
(-5.8685e-05 -0.00054077699 748.98669)
(0.0001689368 -0.00052363078 748.98674)
(0.00037670101 -0.00050282007 748.98694)
(0.00056185156 -0.00047654153 748.98727)
(0.00071260119 -0.00044150985 748.98775)
(0.00025901527 -0.00040411543 748.98836)
(-0.00047816233 -0.00034150504 748.98803)
(-0.0010699551 -0.00032558589 748.98722)
(-0.00055991131 -0.00030471863 748.9868)
(-0.00028503685 -0.00028503684 748.98654)
(-3.904796e-05 -0.00026624743 748.98645)
(0.00018809816 -0.00024690766 748.98651)
(0.00039932875 -0.00022729272 748.98672)
(0.00058765554 -0.00020507623 748.98708)
(0.00073778884 -0.00018203377 748.98757)
(0.00026676873 -0.00016388537 748.9882)
(-0.00047420372 -8.7084341e-05 748.98791)
(-0.0010557398 -7.5328486e-05 748.9871)
(-0.00054077698 -5.8685004e-05 748.98669)
(-0.00026624744 -3.9047956e-05 748.98645)
(-2.0555819e-05 -2.0555818e-05 748.98637)
(0.00020789151 -1.7603288e-06 748.98645)
(0.00041853245 1.7225946e-05 748.98667)
(0.00060711051 3.5670289e-05 748.98704)
(0.00075379206 5.247193e-05 748.98754)
(0.00027111421 6.3600446e-05 748.98818)
(-0.00047032509 0.00013727121 748.98794)
(-0.0010415558 0.00015014124 748.98714)
(-0.00052363078 0.00016893679 748.98674)
(-0.00024690767 0.00018809815 748.98651)
(-1.7603327e-06 0.00020789152 748.98645)
(0.00022587992 0.00022587993 748.98653)
(0.00043675937 0.00024359901 748.98677)
(0.00062290152 0.00026048667 748.98715)
(0.00076571899 0.00027470727 748.98766)
(0.00027418774 0.00028359 748.98831)
(-0.0004656237 0.00033150662 748.98812)
(-0.0010240742 0.00035223951 748.98733)
(-0.00050282007 0.00037670099 748.98694)
(-0.00022729271 0.00039932874 748.98672)
(1.7225958e-05 0.00041853242 748.98667)
(0.000243599 0.00043675937 748.98677)
(0.0004531392 0.00045313919 748.98702)
(0.00063821876 0.00046917513 748.9874)
(0.00077689538 0.00048376742 748.98793)
(0.00027703603 0.00049363445 748.98858)
(-0.00045650317 0.00048078089 748.98841)
(-0.00099636139 0.00052634532 748.98764)
(-0.00047654154 0.00056185156 748.98727)
(-0.00020507624 0.00058765554 748.98708)
(3.5670296e-05 0.00060711048 748.98704)
(0.00026048669 0.00062290153 748.98715)
(0.00046917513 0.00063821876 748.9874)
(0.00065352975 0.00065352975 748.9878)
(0.00079017831 0.00067018131 748.98834)
(0.00028076576 0.00068533137 748.989)
(-0.00043524741 0.00054204094 748.98881)
(-0.00094300352 0.00066536274 748.98809)
(-0.00044150986 0.0007126012 748.98775)
(-0.00018203378 0.00073778885 748.98757)
(5.2471945e-05 0.00075379207 748.98754)
(0.00027470728 0.00076571899 748.98766)
(0.00048376742 0.0007768954 748.98793)
(0.00067018131 0.00079017831 748.98834)
(0.000808697 0.000808697 748.98888)
(0.00028713607 0.00083752847 748.98956)
(-0.00037428863 0.00018088035 748.98926)
(-0.00082580113 0.00024183912 748.98867)
(-0.00040411544 0.00025901528 748.98836)
(-0.00016388537 0.00026676873 748.9882)
(6.3600443e-05 0.00027111422 748.98818)
(0.00028359002 0.00027418773 748.98831)
(0.00049363445 0.00027703604 748.98858)
(0.00068533135 0.00028076576 748.989)
(0.00083752846 0.00028713606 748.98956)
(0.00029998674 0.00029998673 748.9903)
(-0.00089001989 -0.00089001988 749.0018)
(-0.0019720321 -0.00076155769 749.00094)
(-0.0010128412 -0.0007332444 749.00051)
(-0.00053470734 -0.000722913 749.00025)
(-0.00012306991 -0.00071648313 749.00015)
(0.00024829599 -0.00071012268 749.0002)
(0.00057841628 -0.00070223346 749.00039)
(0.00084924275 -0.00068687517 749.00071)
(0.0010118255 -0.00065044191 749.00115)
(0.00035233439 -0.0005447969 749.00168)
(-0.0007615577 -0.0019720321 749.00094)
(-0.0017368689 -0.0017368688 749.00019)
(-0.00095487415 -0.0016689463 748.99979)
(-0.00050956543 -0.0016332218 748.99955)
(-0.00010388443 -0.0016100597 748.99945)
(0.00026967049 -0.0015866228 748.99951)
(0.00061328754 -0.0015575865 748.99971)
(0.00092693008 -0.0015110162 749.00005)
(0.0012249429 -0.0014206954 749.00054)
(0.00045797939 -0.001220233 749.00121)
(-0.00073324439 -0.0010128412 749.00051)
(-0.0016689463 -0.00095487415 748.99979)
(-0.00090919408 -0.00090919405 748.99941)
(-0.00047582078 -0.00087443873 748.99918)
(-7.6470936e-05 -0.00084340532 748.99909)
(0.00030076915 -0.00081478703 748.99916)
(0.00065402285 -0.0007803927 748.99938)
(0.00098613385 -0.00073650424 748.99974)
(0.0013026088 -0.00067817994 749.00025)
(0.00048597605 -0.00061716617 749.00095)
(-0.00072291301 -0.00053470734 749.00025)
(-0.0016332217 -0.00050956546 748.99955)
(-0.00087443873 -0.00047582078 748.99918)
(-0.0004437767 -0.00044377668 748.99896)
(-4.4232723e-05 -0.00041269595 748.99889)
(0.0003326831 -0.00038085393 748.99897)
(0.00069157034 -0.00034804932 748.9992)
(0.0010291428 -0.00031122524 748.99957)
(0.001344281 -0.00027281773 749.0001)
(0.00049865524 -0.00024300653 749.00082)
(-0.00071648313 -0.00012306992 749.00015)
(-0.0016100597 -0.00010388445 748.99945)
(-0.00084340531 -7.6470955e-05 748.99909)
(-0.00041269595 -4.4232733e-05 748.99889)
(-1.3548183e-05 -1.3548174e-05 748.99883)
(0.00036541577 1.7577912e-05 748.99892)
(0.00072365154 4.9174542e-05 748.99916)
(0.0010613654 7.994142e-05 748.99955)
(0.0013708275 0.00010796149 749.0001)
(0.00050585019 0.00012648303 749.00082)
(-0.00071012269 0.00024829598 749.0002)
(-0.0015866228 0.00026967049 748.99951)
(-0.00081478702 0.00030076916 748.99916)
(-0.00038085392 0.00033268309 748.99897)
(1.7577922e-05 0.00036541578 748.99892)
(0.00039540582 0.00039540582 748.99903)
(0.00075393384 0.00042499087 748.99928)
(0.0010879298 0.00045332166 748.99968)
(0.0013908226 0.00047741442 749.00024)
(0.00051100293 0.0004925883 749.00096)
(-0.00070223346 0.00057841627 749.00039)
(-0.0015575865 0.00061328756 748.99971)
(-0.0007803927 0.00065402286 748.99938)
(-0.00034804933 0.00069157036 748.9992)
(4.9174548e-05 0.00072365154 748.99916)
(0.00042499087 0.00075393384 748.99928)
(0.00078156737 0.00078156737 748.99954)
(0.001113789 0.00080887324 748.99996)
(0.0014100941 0.00083431522 749.00052)
(0.00051596611 0.0008522952 749.00125)
(-0.00068687517 0.00084924276 749.00071)
(-0.0015110162 0.00092693009 749.00005)
(-0.00073650421 0.00098613382 748.99974)
(-0.00031122524 0.0010291428 748.99957)
(7.9941398e-05 0.0010613654 748.99955)
(0.00045332164 0.0010879298 748.99968)
(0.00080887325 0.001113789 748.99996)
(0.0011406776 0.0011406776 749.00038)
(0.0014342446 0.0011715491 749.00096)
(0.00052298958 0.0012029469 749.0017)
(-0.0006504419 0.0010118255 749.00115)
(-0.0014206955 0.0012249429 749.00054)
(-0.00067817995 0.0013026088 749.00025)
(-0.00027281774 0.001344281 749.0001)
(0.0001079615 0.0013708275 749.0001)
(0.00047741443 0.0013908226 749.00024)
(0.00083431521 0.0014100941 749.00052)
(0.0011715491 0.0014342446 749.00096)
(0.0014723634 0.0014723633 749.00155)
(0.00053689794 0.0015476601 749.00232)
(-0.0005447969 0.00035233438 749.00168)
(-0.001220233 0.00045797939 749.00121)
(-0.00061716615 0.00048597605 749.00095)
(-0.00024300652 0.00049865525 749.00082)
(0.00012648302 0.00050585019 749.00082)
(0.00049258832 0.00051100293 749.00096)
(0.00085229519 0.00051596611 749.00125)
(0.0012029468 0.00052298958 749.0017)
(0.0015476601 0.00053689793 749.00232)
(0.00057318742 0.00057318741 749.00316)
(-0.0011654638 -0.0011654638 749.02019)
(-0.0025874805 -0.00099723813 749.01938)
(-0.0013347999 -0.00096004574 749.019)
(-0.00069803903 -0.00094631091 749.01877)
(-0.00013688632 -0.00093754013 749.0187)
(0.00037871275 -0.00092880844 749.01876)
(0.00084635892 -0.00091770271 749.01897)
(0.0012445371 -0.00089619788 749.01932)
(0.00151263 -0.00084454123 749.01978)
(0.0005342511 -0.00069395573 749.02033)
(-0.00099723813 -0.0025874805 749.01938)
(-0.0022793534 -0.0022793534 749.0187)
(-0.0012584091 -0.0021900391 749.01834)
(-0.00066428061 -0.0021422607 749.01812)
(-0.00011063262 -0.002110536 749.01805)
(0.00040846887 -0.0020781952 749.01813)
(0.00089527476 -0.002037611 749.01835)
(0.0013542793 -0.0019722563 749.01871)
(0.0018159932 -0.0018450173 749.01921)
(0.00068483661 -0.0015612591 749.0199)
(-0.00096004574 -0.0013347999 749.019)
(-0.0021900391 -0.0012584091 749.01834)
(-0.0011977072 -0.0011977072 749.01799)
(-0.0006185359 -0.0011503719 749.01779)
(-7.2820823e-05 -0.0011080433 749.01773)
(0.00045163768 -0.0010681845 749.01782)
(0.00095229781 -0.0010204855 749.01805)
(0.0014371308 -0.00095906507 749.01843)
(0.0019236272 -0.00087773456 749.01896)
(0.00072342326 -0.00079363768 749.01968)
(-0.00094631091 -0.00069803903 749.01877)
(-0.0021422607 -0.0006642806 749.01812)
(-0.0011503719 -0.00061853589 749.01779)
(-0.00057461673 -0.00057461671 749.0176)
(-2.844519e-05 -0.00053165423 749.01755)
(0.00049602667 -0.00048757194 749.01765)
(0.0010043942 -0.00044181357 749.01789)
(0.0014970303 -0.00039053198 749.01829)
(0.0019814206 -0.00033699027 749.01884)
(0.00074090119 -0.00029579275 749.01957)
(-0.00093754012 -0.00013688631 749.0187)
(-0.002110536 -0.00011063261 749.01805)
(-0.0011080433 -7.2820824e-05 749.01773)
(-0.00053165424 -2.8445176e-05 749.01755)
(1.4223948e-05 1.4223972e-05 749.01752)
(0.00054147834 5.751224e-05 749.01763)
(0.0010493378 0.00010158355 749.01788)
(0.0015419541 0.00014467033 749.01829)
(0.0020183664 0.00018388794 749.01886)
(0.00075088827 0.00020975323 749.0196)
(-0.00092880845 0.00037871274 749.01876)
(-0.0020781952 0.00040846885 749.01813)
(-0.0010681845 0.00045163766 749.01782)
(-0.00048757193 0.00049602664 749.01765)
(5.7512227e-05 0.00054147833 749.01763)
(0.00058338625 0.00058338628 749.01775)
(0.0010915523 0.00062480483 749.01802)
(0.0015793347 0.00066466414 749.01844)
(0.0020465035 0.00069883456 749.01901)
(0.00075814472 0.00072048797 749.01976)
(-0.00091770271 0.0008463589 749.01897)
(-0.002037611 0.00089527476 749.01835)
(-0.0010204855 0.00095229781 749.01805)
(-0.00044181356 0.0010043942 749.01789)
(0.00010158358 0.0010493378 749.01788)
(0.00062480483 0.0010915523 749.01802)
(0.0011306156 0.0011306157 749.0183)
(0.0016159838 0.0011695419 749.01873)
(0.0020741903 0.0012064615 749.01932)
(0.00076532388 0.0012331536 749.02007)
(-0.00089619788 0.0012445371 749.01932)
(-0.0019722563 0.0013542793 749.01871)
(-0.00095906508 0.0014371308 749.01843)
(-0.00039053199 0.0014970303 749.01829)
(0.00014467034 0.0015419541 749.01829)
(0.00066466416 0.0015793346 749.01844)
(0.0011695419 0.0016159838 749.01873)
(0.0016551805 0.0016551805 749.01917)
(0.0021101152 0.0017016157 749.01977)
(0.00077593947 0.0017508675 749.02053)
(-0.00084454122 0.00151263 749.01978)
(-0.0018450173 0.0018159932 749.01921)
(-0.00087773458 0.0019236272 749.01896)
(-0.0003369903 0.0019814206 749.01884)
(0.00018388794 0.0020183664 749.01886)
(0.00069883457 0.0020465035 749.01901)
(0.0012064615 0.0020741902 749.01932)
(0.0017016157 0.0021101152 749.01977)
(0.0021698773 0.0021698772 749.02039)
(0.0007981584 0.002293761 749.02118)
(-0.00069395573 0.0005342511 749.02033)
(-0.0015612591 0.00068483659 749.0199)
(-0.00079363767 0.00072342325 749.01968)
(-0.00029579275 0.00074090119 749.01957)
(0.00020975321 0.00075088828 749.0196)
(0.00072048797 0.00075814471 749.01976)
(0.0012331537 0.00076532387 749.02007)
(0.0017508675 0.00077593948 749.02053)
(0.002293761 0.0007981584 749.02118)
(0.00085852861 0.00085852861 749.02203)
(-0.0014260351 -0.0014260351 749.04471)
(-0.0031624913 -0.0012196438 749.04394)
(-0.001623993 -0.0011741128 749.04359)
(-0.00083516994 -0.0011572036 749.04339)
(-0.00012995884 -0.0011461732 749.04334)
(0.00052619806 -0.001135163 749.04342)
(0.0011297795 -0.0011208737 749.04365)
(0.0016544265 -0.0010933093 749.044)
(0.0020244761 -0.0010266439 749.04447)
(0.00071885854 -0.0008318833 749.04502)
(-0.0012196438 -0.0031624913 749.04394)
(-0.0027846078 -0.0027846078 749.04329)
(-0.0015303327 -0.0026750098 749.04296)
(-0.00079326051 -0.0026160744 749.04278)
(-9.6898017e-05 -0.0025760277 749.04273)
(0.00056414737 -0.0025351665 749.04282)
(0.0011925602 -0.0024832903 749.04305)
(0.0017957711 -0.0023995026 749.04342)
(0.0024166151 -0.0022359064 749.04394)
(0.00091361917 -0.0018704009 749.04462)
(-0.0011741128 -0.001623993 749.04359)
(-0.0026750098 -0.0015303327 749.04296)
(-0.0014554596 -0.0014554596 749.04265)
(-0.0007361879 -0.0013962782 749.04247)
(-4.9050946e-05 -0.001343085 749.04244)
(0.00061893549 -0.0012922673 749.04254)
(0.0012654434 -0.0012315501 749.04278)
(0.0019018104 -0.0011529491 749.04317)
(0.0025535778 -0.001049027 749.04372)
(0.00096252882 -0.0009424131 749.04443)
(-0.0011572036 -0.00083516995 749.04339)
(-0.0026160744 -0.00079326052 749.04278)
(-0.0013962782 -0.0007361879 749.04247)
(-0.00068088593 -0.00068088593 749.04231)
(7.1128852e-06 -0.00062652023 749.04228)
(0.00067568234 -0.00057047786 749.0424)
(0.0013318784 -0.00051200143 749.04265)
(0.0019782941 -0.00044651149 749.04306)
(0.0026271511 -0.00037811676 749.04362)
(0.00098469509 -0.00032578593 749.04435)
(-0.0011461732 -0.00012995884 749.04334)
(-0.0025760277 -9.6898017e-05 749.04273)
(-0.001343085 -4.9050946e-05 749.04244)
(-0.00062652023 7.1128863e-06 749.04228)
(6.135712e-05 6.1357104e-05 749.04227)
(0.00073345428 0.00011655736 749.04239)
(0.0013894098 0.00017285023 749.04266)
(0.0020356951 0.00022809484 749.04308)
(0.0026743034 0.00027837009 749.04365)
(0.00099741604 0.00031146038 749.04439)
(-0.001135163 0.00052619809 749.04342)
(-0.0025351665 0.00056414737 749.04282)
(-0.0012922673 0.00061893549 749.04254)
(-0.00057047788 0.00067568236 749.0424)
(0.00011655736 0.00073345427 749.04239)
(0.00078717547 0.00078717547 749.04253)
(0.0014434159 0.00084029568 749.04281)
(0.002083814 0.00089165751 749.04324)
(0.0027105166 0.00093591562 749.04382)
(0.0010067553 0.00096409728 749.04456)
(-0.0011208737 0.0011297795 749.04365)
(-0.0024832903 0.0011925602 749.04305)
(-0.0012315501 0.0012654434 749.04278)
(-0.00051200145 0.0013318784 749.04265)
(0.00017285023 0.0013894098 749.04266)
(0.00084029569 0.0014434159 749.04281)
(0.0014938918 0.0014938918 749.0431)
(0.002131315 0.0015445169 749.04355)
(0.0027467431 0.0015931263 749.04414)
(0.0010162038 0.0016286871 749.04489)
(-0.0010933093 0.0016544265 749.044)
(-0.0023995026 0.0017957711 749.04342)
(-0.0011529491 0.0019018104 749.04317)
(-0.00044651148 0.0019782941 749.04306)
(0.00022809483 0.0020356951 749.04308)
(0.0008916575 0.002083814 749.04324)
(0.0015445169 0.002131315 749.04355)
(0.0021830484 0.0021830484 749.044)
(0.0027946868 0.0022453394 749.0446)
(0.0010304625 0.0023126449 749.04536)
(-0.0010266439 0.0020244761 749.04447)
(-0.0022359064 0.0024166151 749.04394)
(-0.001049027 0.0025535778 749.04372)
(-0.00037811675 0.0026271511 749.04362)
(0.00027837012 0.0026743034 749.04365)
(0.00093591561 0.0027105166 749.04382)
(0.0015931263 0.0027467432 749.04414)
(0.0022453394 0.0027946868 749.0446)
(0.0028763397 0.0028763397 749.04523)
(0.0010610742 0.0030480699 749.04601)
(-0.0008318833 0.00071885853 749.04502)
(-0.0018704009 0.00091361916 749.04462)
(-0.00094241311 0.00096252882 749.04443)
(-0.00032578593 0.0009846951 749.04435)
(0.00031146041 0.00099741604 749.04439)
(0.00096409727 0.0010067553 749.04456)
(0.001628687 0.0010162038 749.04489)
(0.0023126449 0.0010304625 749.04536)
(0.0030480699 0.0010610742 749.04601)
(0.0011449493 0.0011449493 749.04687)
(-0.001674152 -0.001674152 749.07517)
(-0.0037044659 -0.0014309213 749.07444)
(-0.0018865129 -0.0013775032 749.07412)
(-0.00095024369 -0.0013575122 749.07394)
(-0.00010568288 -0.0013443776 749.0739)
(0.00068679263 -0.0013311398 749.074)
(0.0014223922 -0.0013137447 749.07423)
(0.0020695543 -0.0012802752 749.07459)
(0.0025361171 -0.0011989884 749.07506)
(0.00090229871 -0.00096122195 749.07561)
(-0.0014309212 -0.0037044659 749.07444)
(-0.0032594926 -0.0032594927 749.07382)
(-0.0017763993 -0.0031306013 749.07352)
(-0.00090055533 -0.0030610216 749.07335)
(-6.6124321e-05 -0.003013046 749.07332)
(0.0007327419 -0.0029639199 749.07343)
(0.0014986891 -0.0029010269 749.07367)
(0.0022416889 -0.0027992975 749.07405)
(0.0030146969 -0.0026002922 749.07456)
(0.0011400651 -0.0021552557 749.07523)
(-0.0013775032 -0.0018865129 749.07412)
(-0.0031306013 -0.0017763993 749.07352)
(-0.0016880419 -0.0016880419 749.07323)
(-0.00083268834 -0.0016176038 749.07308)
(-8.5811337e-06 -0.0015539916 749.07306)
(0.00079881165 -0.0014926479 749.07317)
(0.0015870146 -0.001419257 749.07342)
(0.0023702891 -0.0013239471 749.07382)
(0.0031801589 -0.0011980394 749.07436)
(0.0011989897 -0.0010695868 749.07506)
(-0.0013575122 -0.0009502437 749.07394)
(-0.0030610216 -0.00090055532 749.07335)
(-0.0016176038 -0.00083268835 749.07308)
(-0.00076650506 -0.00076650505 749.07293)
(5.8831563e-05 -0.00070107992 749.07292)
(0.00086747657 -0.00063353047 749.07305)
(0.0016673899 -0.00056265592 749.07331)
(0.0024629065 -0.00048332787 749.07372)
(0.0032690572 -0.00040046281 749.07428)
(0.0012257002 -0.00033731241 749.07499)
(-0.0013443776 -0.0001056829 749.0739)
(-0.003013046 -6.6124335e-05 749.07332)
(-0.0015539916 -8.5811233e-06 749.07306)
(-0.00070107991 5.8831575e-05 749.07292)
(0.00012439345 0.00012439348 749.07292)
(0.00093723565 0.00019112903 749.07306)
(0.0017372172 0.00025937259 749.07334)
(0.0025324822 0.00032649631 749.07376)
(0.0033261744 0.00038760447 749.07433)
(0.00124109 0.0004277547 749.07505)
(-0.0013311398 0.00068679265 749.074)
(-0.0029639199 0.00073274189 749.07343)
(-0.0014926479 0.00079881165 749.07317)
(-0.00063353046 0.00086747657 749.07305)
(0.00019112901 0.00093723564 749.07306)
(0.0010024557 0.0010024557 749.07321)
(0.0018027571 0.0010670346 749.0735)
(0.0025911383 0.0011297217 749.07393)
(0.0033703156 0.0011838929 749.07451)
(0.001252467 0.0012184928 749.07524)
(-0.0013137448 0.0014223922 749.07423)
(-0.002901027 0.0014986891 749.07367)
(-0.0014192569 0.0015870145 749.07342)
(-0.00056265592 0.0016673898 749.07331)
(0.00025937259 0.0017372172 749.07334)
(0.0010670346 0.0018027572 749.0735)
(0.0018644832 0.0018644832 749.0738)
(0.0026493405 0.0019266701 749.07424)
(0.0034149455 0.0019869069 749.07483)
(0.0012641566 0.0020312267 749.07556)
(-0.0012802752 0.0020695543 749.07459)
(-0.0027992975 0.0022416889 749.07405)
(-0.0013239471 0.0023702891 749.07382)
(-0.00048332784 0.0024629065 749.07372)
(0.00032649633 0.0025324822 749.07376)
(0.0011297217 0.0025911383 749.07393)
(0.0019266701 0.0026493405 749.07424)
(0.002713562 0.002713562 749.0747)
(0.0034748722 0.002791562 749.0753)
(0.0012820135 0.0028766597 749.07604)
(-0.0011989884 0.002536117 749.07506)
(-0.0026002922 0.0030146969 749.07456)
(-0.0011980394 0.0031801589 749.07436)
(-0.00040046283 0.0032690572 749.07428)
(0.00038760447 0.0033261743 749.07433)
(0.0011838929 0.0033703156 749.07451)
(0.0019869069 0.0034149454 749.07483)
(0.002791562 0.0034748722 749.0753)
(0.0035780432 0.0035780432 749.07592)
(0.0013208884 0.003796563 749.07669)
(-0.00096122195 0.0009022987 749.07561)
(-0.0021552556 0.0011400651 749.07523)
(-0.0010695868 0.0011989897 749.07506)
(-0.00033731242 0.0012257002 749.07499)
(0.0004277547 0.00124109 749.07505)
(0.0012184928 0.001252467 749.07524)
(0.0020312267 0.0012641566 749.07556)
(0.0028766597 0.0012820135 749.07604)
(0.003796563 0.0013208884 749.07669)
(0.0014276934 0.0014276934 749.07752)
(-0.0019098467 -0.0019098466 749.11136)
(-0.0042152064 -0.0016312283 749.11068)
(-0.0021259761 -0.001570318 749.11037)
(-0.0010466838 -0.0015473799 749.11022)
(-6.7668974e-05 -0.0015322333 749.1102)
(0.00085610315 -0.0015168814 749.1103)
(0.001718648 -0.0014964973 749.11054)
(0.0024827935 -0.0014573108 749.1109)
(0.0030399991 -0.001361906 749.11136)
(0.0010821503 -0.0010825965 749.11189)
(-0.0016312283 -0.0042152064 749.11068)
(-0.0037059135 -0.0037059135 749.11009)
(-0.0020002036 -0.0035586491 749.10981)
(-0.00098955668 -0.0034789484 749.10966)
(-2.1921122e-05 -0.003423386 749.10965)
(0.00090970717 -0.0033663354 749.10976)
(0.0018080039 -0.0032928412 749.11001)
(0.0026846804 -0.0031737553 749.11038)
(0.0036020704 -0.0029405603 749.11088)
(0.0013614598 -0.0024187255 749.11154)
(-0.001570318 -0.0021259761 749.11037)
(-0.0035586491 -0.0020002036 749.10981)
(-0.0018990111 -0.001899011 749.10954)
(-0.0009114207 -0.0018178298 749.10941)
(4.4944018e-05 -0.0017442709 749.1094)
(0.00098664798 -0.0016727533 749.10953)
(0.0019112281 -0.0015871717 749.10978)
(0.0028350744 -0.0014757143 749.11017)
(0.0037950289 -0.001328576 749.1107)
(0.0014300402 -0.0011790691 749.11138)
(-0.0015473799 -0.0010466837 749.11022)
(-0.0034789484 -0.00098955665 749.10966)
(-0.0018178298 -0.00091142071 749.10941)
(-0.00083481657 -0.00083481656 749.10928)
(0.0001231554 -0.00075883927 749.10929)
(0.0010668064 -0.00068017956 749.10942)
(0.0020050429 -0.00059735882 749.10969)
(0.0029432761 -0.00050465059 749.11009)
(0.0038987156 -0.00040781152 749.11064)
(0.0014611311 -0.00033423544 749.11133)
(-0.0015322333 -6.7668985e-05 749.1102)
(-0.0034233861 -2.192111e-05 749.10965)
(-0.001744271 4.4944005e-05 749.1094)
(-0.00075883926 0.00012315538 749.10929)
(0.00019958101 0.000199581 749.1093)
(0.0011481284 0.0002774544 749.10945)
(0.002086757 0.00035726048 749.10973)
(0.0030246217 0.00043588161 749.11014)
(0.003965444 0.00050749767 749.1107)
(0.0014790909 0.00055448989 749.1114)
(-0.0015168813 0.00085610314 749.1103)
(-0.0033663354 0.00090970714 749.10976)
(-0.0016727533 0.00098664799 749.10953)
(-0.00068017957 0.0010668064 749.10942)
(0.00027745442 0.0011481284 749.10945)
(0.0012244859 0.0012244859 749.1096)
(0.0021634701 0.0013001655 749.10989)
(0.0030935133 0.0013738903 749.11032)
(0.0040173239 0.0014377028 749.11089)
(0.0014924592 0.0014785571 749.11159)
(-0.0014964973 0.001718648 749.11054)
(-0.0032928412 0.0018080038 749.11001)
(-0.0015871717 0.001911228 749.10978)
(-0.00059735883 0.0020050429 749.10969)
(0.00035726048 0.0020867571 749.10973)
(0.0013001655 0.0021634701 749.10989)
(0.0022361614 0.0022361614 749.11019)
(0.003162159 0.0023095779 749.11063)
(0.0040701109 0.0023811931 749.11121)
(0.0015063271 0.0024340253 749.11192)
(-0.0014573108 0.0024827935 749.1109)
(-0.0031737553 0.0026846804 749.11038)
(-0.0014757142 0.0028350744 749.11017)
(-0.00050465057 0.0029432761 749.11009)
(0.00043588161 0.0030246217 749.11014)
(0.0013738903 0.0030935133 749.11032)
(0.0023095779 0.003162159 749.11063)
(0.003238545 0.003238545 749.11108)
(0.0041417713 0.0033319224 749.11167)
(0.0015276807 0.0034343262 749.11239)
(-0.001361906 0.003039999 749.11136)
(-0.0029405603 0.0036020704 749.11088)
(-0.0013285759 0.0037950289 749.1107)
(-0.00040781152 0.0038987156 749.11064)
(0.00050749767 0.003965444 749.1107)
(0.0014377028 0.0040173239 749.11089)
(0.0023811931 0.0040701109 749.11121)
(0.0033319224 0.0041417713 749.11167)
(0.0042658921 0.0042658921 749.11228)
(0.0015745963 0.004529866 749.11302)
(-0.0010825965 0.0010821503 749.11189)
(-0.0024187254 0.0013614598 749.11154)
(-0.0011790691 0.0014300402 749.11138)
(-0.00033423544 0.0014611311 749.11133)
(0.0005544899 0.0014790909 749.1114)
(0.0014785571 0.0014924592 749.11159)
(0.0024340253 0.0015063271 749.11192)
(0.0034343262 0.0015276807 749.11239)
(0.004529866 0.0015745963 749.11302)
(0.0017036633 0.0017036633 749.11384)
(-0.0021324374 -0.0021324374 749.15306)
(-0.0046943494 -0.0018201513 749.15241)
(-0.0023442213 -0.001752141 749.15213)
(-0.0011272192 -0.0017264005 749.152)
(-1.9188532e-05 -0.0017093322 749.15199)
(0.0010300901 -0.0016919529 749.1521)
(0.0020135732 -0.0016687107 749.15234)
(0.0028885735 -0.0016240512 749.15269)
(0.0035305031 -0.0015151098 749.15314)
(0.0012566103 -0.0011959788 749.15365)
(-0.0018201513 -0.0046943494 749.15241)
(-0.0041239048 -0.0041239048 749.15186)
(-0.0022035952 -0.0039592165 749.15161)
(-0.0010630061 -0.003869933 749.15148)
(3.2482961e-05 -0.0038071448 749.15147)
(0.0010910224 -0.0037425309 749.15159)
(0.0021154258 -0.0036588859 749.15184)
(0.0031189748 -0.0035231833 749.1522)
(0.0041726117 -0.003257227 749.15269)
(0.0015757412 -0.0026618149 749.15332)
(-0.001752141 -0.0023442213 749.15213)
(-0.0039592165 -0.0022035952 749.15161)
(-0.0020902496 -0.0020902496 749.15136)
(-0.0009751475 -0.0019988832 749.15124)
(0.00010821357 -0.0019158623 749.15125)
(0.001178349 -0.0018346435 749.15138)
(0.0022329209 -0.0017373827 749.15163)
(0.0032902324 -0.001610465 749.15201)
(0.0043918715 -0.0014429967 749.15253)
(0.0016535517 -0.0012733505 749.15318)
(-0.0017264006 -0.0011272192 749.152)
(-0.003869933 -0.0010630061 749.15148)
(-0.0019988832 -0.0009751475 749.15124)