/*--------------------------------*- C++ -*----------------------------------*\
| =========                 |                                                 |
| \\      /  F ield         | OpenFOAM: The Open Source CFD Toolbox           |
|  \\    /   O peration     | Version:  v2106                                 |
|   \\  /    A nd           | Website:  www.openfoam.com                      |
|    \\/     M anipulation  |                                                 |
\*---------------------------------------------------------------------------*/
FoamFile
{
    version     2.0;
    format      ascii;
    arch        "LSB;label=32;scalar=64";
    class       volScalarField;
    location    "47.5";
    object      laplacianT;
}
// * * * * * * * * * * * * * * * * * * * * * * * * * * * * * * * * * * * * * //

dimensions      [0 -2 0 1 0 0 0];

internalField   nonuniform List<scalar> 
4000
(
0.15059753
0.28047444
0.26450809
0.26422611
0.26425383
0.26432263
0.26424959
0.26420352
0.26413298
0.26403958
0.28047443
0.37820283
0.36478654
0.36480337
0.36485531
0.36469707
0.36485316
0.36462481
0.36454571
0.35108372
0.26450811
0.36478654
0.35197887
0.35135178
0.35183848
0.35168938
0.35155834
0.35161104
0.35137419
0.33804548
0.26422611
0.36480336
0.35135178
0.35192488
0.35121523
0.35170778
0.35146229
0.35137882
0.35127903
0.33783585
0.26425382
0.36485531
0.35183846
0.35121523
0.35201956
0.35133342
0.35166742
0.35141944
0.35126543
0.33781611
0.26432264
0.36469708
0.35168938
0.35170779
0.35133341
0.35180714
0.35136231
0.35146296
0.35128168
0.33780786
0.26424959
0.36485317
0.35155834
0.35146229
0.35166743
0.35136231
0.35157484
0.35126428
0.35116875
0.33773088
0.26420352
0.3646248
0.35161103
0.35137882
0.35141944
0.35146296
0.35126428
0.35130583
0.35104721
0.33761213
0.26413298
0.36454573
0.35137419
0.35127904
0.35126542
0.35128168
0.35116874
0.35104722
0.35091434
0.33744917
0.26403958
0.35108371
0.33804548
0.33783585
0.33781612
0.33780787
0.33773089
0.33761212
0.33744916
0.32400504
0.51596021
0.83258385
0.78497963
0.78359359
0.78358023
0.7837782
0.78354915
0.7834133
0.78315918
0.75951795
0.83258386
1.0551788
1.0156007
1.0152658
1.0152737
1.01507
1.0151863
1.0147275
1.0144269
0.92933683
0.78497964
1.0156007
0.97854695
0.97675307
0.97763059
0.97738306
0.9771037
0.97699065
0.97652798
0.8955837
0.78359359
1.0152658
0.97675306
0.97720988
0.97610909
0.97686221
0.97639777
0.97607142
0.97573005
0.89459024
0.78358021
1.0152737
0.9776306
0.9761091
0.97722257
0.9763326
0.97662865
0.97619748
0.97573225
0.89450837
0.7837782
1.01507
0.97738305
0.9768622
0.97633259
0.97697224
0.97623534
0.97612549
0.97571672
0.89443388
0.78354916
1.0151863
0.97710371
0.97639778
0.97662863
0.97623534
0.97642185
0.97579517
0.97545293
0.89422722
0.78341331
1.0147275
0.97699066
0.97607142
0.9761975
0.97612549
0.97579517
0.97559199
0.97506196
0.89387406
0.78315918
1.0144269
0.97652798
0.97573006
0.97573226
0.97571671
0.97545293
0.97506195
0.97464801
0.89343223
0.75951796
0.92933682
0.89558371
0.89459024
0.89450837
0.89443389
0.89422721
0.89387407
0.89343224
0.8044847
0.99269493
1.4458562
1.3720357
1.36981
1.3697389
1.3700266
1.3696431
1.3693487
1.3688983
1.2889948
1.4458561
1.7606384
1.6992598
1.6990227
1.6989077
1.6986046
1.6987188
1.6979704
1.697249
1.5099767
1.3720357
1.6992598
1.6424279
1.6396701
1.6409605
1.6405003
1.6401335
1.6398248
1.6391103
1.4608043
1.3698099
1.6990227
1.63967
1.6403729
1.6388337
1.639731
1.6391435
1.6384913
1.6377793
1.4593084
1.3697389
1.6989077
1.6409605
1.6388337
1.6402985
1.6390382
1.639312
1.6386874
1.6377967
1.459175
1.3700266
1.6986046
1.6405003
1.6397311
1.6390382
1.6398236
1.6387881
1.6384762
1.6377018
1.4590047
1.3696431
1.6987188
1.6401335
1.6391435
1.639312
1.6387881
1.6388976
1.6379756
1.6372451
1.4586408
1.3693487
1.6979704
1.6398248
1.6384913
1.6386874
1.6384762
1.6379756
1.6375481
1.6365957
1.4580372
1.3688983
1.697249
1.6391103
1.6377794
1.6377967
1.6377018
1.6372451
1.6365957
1.6358062
1.4572346
1.2889948
1.5099767
1.4608043
1.4593084
1.459175
1.4590047
1.4586408
1.4580372
1.4572346
1.2436533
1.4509265
2.0372773
1.9390325
1.9359246
1.9359027
1.9362134
1.9356771
1.9351986
1.9345275
1.8022103
2.0372773
2.4435934
2.3618489
2.3614147
2.3612971
2.3609136
2.3608965
2.3600344
2.3588888
2.0727124
1.9390325
2.3618489
2.2864102
2.2826956
2.2843665
2.283781
2.2831367
2.2826044
2.2816155
2.0094249
1.9359246
2.3614147
2.2826956
2.283192
2.2815017
2.2824649
2.2817558
2.2808201
2.2797868
2.007477
1.9359027
2.3612971
2.2843665
2.2815017
2.2833068
2.2817729
2.2819017
2.2810557
2.2797827
2.0072843
1.9362134
2.3609136
2.283781
2.2824649
2.2817729
2.2826017
2.2812952
2.2807437
2.2796411
2.007029
1.9356771
2.3608965
2.2831368
2.2817558
2.2819017
2.2812952
2.2812431
2.2800249
2.2789476
2.0064817
1.9351986
2.3600344
2.2826044
2.2808201
2.2810557
2.2807437
2.2800248
2.2793558
2.2780048
2.0056353
1.9345275
2.3588887
2.2816155
2.2797868
2.2797827
2.2796411
2.2789475
2.2780048
2.2768637
2.0044386
1.8022103
2.0727124
2.0094249
2.007477
2.0072843
2.0070291
2.0064817
2.0056352
2.0044386
1.6727278
1.8982506
2.6148377
2.4928219
2.4889693
2.4888928
2.4892403
2.4885894
2.487848
2.4869866
2.3029871
2.6148376
3.1106758
3.0091379
3.0086492
3.0083656
3.0079509
3.0077901
3.0066997
3.0051409
2.6217504
2.4928219
3.0091379
2.9152433
2.9109779
2.9126925
2.9121512
2.9113042
2.9105184
2.909233
2.5448562
2.4889693
3.0086492
2.9109779
2.9114869
2.909442
2.9104493
2.9096
2.908318
2.9069414
2.5424758
2.4888928
3.0083656
2.9126925
2.909442
2.9113516
2.9096578
2.9096742
2.9085657
2.9068916
2.5422072
2.4892403
3.0079509
2.9121512
2.9104493
2.9096578
2.9104897
2.9089603
2.9081107
2.9066666
2.5418533
2.4885894
3.0077901
2.9113042
2.9096
2.9096742
2.9089603
2.9088023
2.9072185
2.9057886
2.5411187
2.487848
3.0066997
2.9105184
2.9083179
2.9085657
2.9081107
2.9072185
2.9062777
2.9044805
2.540016
2.4869866
3.0051409
2.909233
2.9069414
2.9068916
2.9066666
2.9057886
2.9044805
2.9030488
2.5383985
2.3029871
2.6217504
2.5448562
2.5424758
2.5422072
2.5418533
2.5411187
2.540016
2.5383985
2.0912926
2.3337385
3.1762781
3.0312182
3.0265754
3.0265409
3.0268176
3.0260988
3.0251181
3.0240281
2.789436
3.1762781
3.758556
3.6379953
3.6372074
3.6370071
3.6363772
3.6361216
3.6348306
3.6328311
3.1545439
3.0312182
3.6379953
3.5262458
3.5212929
3.5232134
3.522535
3.5214865
3.5204878
3.5188703
3.064524
3.0265754
3.6372074
3.5212929
3.5215983
3.5194504
3.5204108
3.51943
3.5178502
3.5161
3.0617128
3.0265409
3.6370071
3.5232134
3.5194504
3.5215107
3.5195891
3.519453
3.5181349
3.516025
3.0613731
3.0268176
3.6363773
3.522535
3.5204108
3.5195891
3.5203966
3.5186058
3.5175241
3.5156844
3.0609052
3.0260988
3.6361216
3.5214865
3.51943
3.519453
3.5186058
3.5183104
3.5163971
3.5146224
3.0599861
3.0251181
3.6348306
3.5204878
3.5178502
3.5181349
3.5175241
3.5163971
3.5152737
3.5129304
3.0586328
3.0240281
3.6328311
3.5188703
3.5161
3.516025
3.5156844
3.5146224
3.5129304
3.5112347
3.0565909
2.789436
3.1545439
3.064524
3.0617128
3.0613731
3.0609052
3.0599861
3.0586328
3.0565909
2.4969056
2.7548716
3.718209
3.5509831
3.5456196
3.5455339
3.5458139
3.5449445
3.5437391
3.5424421
3.258682
3.718209
4.3832346
4.2444454
4.2433885
4.2431553
4.2424507
4.2420263
4.2405217
4.238131
3.6678786
3.5509831
4.2444454
4.1155285
4.1099797
4.1119781
4.1112657
4.1099698
4.1087329
4.1068275
3.5652885
3.5456196
4.2433885
4.1099797
4.1100775
4.1077479
4.1087049
4.1075709
4.1056657
4.1035839
3.5620528
3.5455339
4.2431552
4.1119781
4.1077479
4.1099164
4.1078148
4.1075122
4.1059466
4.1034618
3.5616392
3.5458139
4.2424507
4.1112657
4.1087049
4.1078149
4.1086259
4.1065538
4.1052274
4.1030205
3.5610482
3.5449445
4.2420263
4.1099697
4.1075709
4.1075122
4.1065538
4.1061318
4.1038152
4.1017659
3.5599443
3.5437391
4.2405218
4.1087329
4.1056657
4.1059466
4.1052274
4.1038152
4.1025604
4.0996682
3.5583463
3.5424421
4.238131
4.1068275
4.1035839
4.1034618
4.1030205
4.1017659
4.0996682
4.0977168
3.5558867
3.258682
3.6678786
3.5652885
3.5620528
3.5616392
3.5610482
3.5599443
3.5583463
3.5558867
2.8870863
3.1590407
4.2372676
4.0488568
4.042822
4.0427012
4.0429433
4.0419684
4.0405172
4.0390052
3.7078399
4.2372676
4.9809824
4.8247727
4.8234578
4.8231938
4.8223514
4.8218124
4.8200853
4.817288
4.1586016
4.0488568
4.8247727
4.6794247
4.6733403
4.6754118
4.674626
4.6731208
4.6716433
4.669438
4.0440687
4.042822
4.8234578
4.6733403
4.6732505
4.6707481
4.6716615
4.6704023
4.6681794
4.6657513
4.0404245
4.0427012
4.8231938
4.6754118
4.6707481
4.6730045
4.6706992
4.6702643
4.6684383
4.6655636
4.039937
4.0429433
4.8223514
4.674626
4.6716615
4.6706991
4.6714883
4.6691472
4.6676053
4.6650229
4.039217
4.0419684
4.8218124
4.6731208
4.6704023
4.6702643
4.6691472
4.6686673
4.6658996
4.6635906
4.0379265
4.0405172
4.8200853
4.6716433
4.6681794
4.6684383
4.6676053
4.6658996
4.6645259
4.6610939
4.0360888
4.0390052
4.817288
4.669438
4.6657513
4.6655636
4.6650229
4.6635905
4.6610939
4.6588946
4.0332233
3.7078399
4.1586016
4.0440687
4.0404245
4.039937
4.039217
4.0379265
4.0360888
4.0332233
3.2594397
3.5437559
4.7302275
4.5218051
4.5151113
4.514959
4.51516
4.5140648
4.5123936
4.5106713
4.1341333
4.7302275
5.5480282
5.3753876
5.3738035
5.3735277
5.3725451
5.3718625
5.3699412
5.3667539
4.6236802
4.5218051
5.3753875
5.2145053
5.207897
5.2100416
5.2091859
5.2074565
5.2057573
5.2032606
4.4979075
4.5151113
5.3738035
5.207897
5.2076063
5.2049556
5.2058199
5.2044126
5.2019032
5.1991504
4.4938724
4.514959
5.3735277
5.2100416
5.2049556
5.2072996
5.2047926
5.2042188
5.2021491
5.1988911
4.4933126
4.51516
5.3725451
5.2091859
5.2058199
5.2047926
5.2055721
5.2029192
5.201202
5.1982464
4.492466
4.5140648
5.3718625
5.2074565
5.2044126
5.2042188
5.2029191
5.2024005
5.1991964
5.1966404
4.4909932
4.5123936
5.3699412
5.2057573
5.2019032
5.2021491
5.201202
5.1991964
5.1977093
5.1937556
4.4889237
4.5106713
5.3667539
5.2032606
5.1991504
5.1988911
5.1982464
5.1966404
5.1937556
5.191319
4.4856674
4.1341333
4.6236802
4.4979075
4.4938723
4.4933126
4.492466
4.4909932
4.4889237
4.4856674
3.6116774
3.9066452
5.1940484
4.966893
4.9595838
4.9593909
4.959555
4.9583417
4.9564469
4.9545293
4.53494
5.1940484
6.0808896
5.8928787
5.8910265
5.8907292
5.889624
5.8888013
5.8866811
5.8831307
5.0602525
4.966893
5.8928787
5.7174683
5.7103666
5.7125555
5.7116385
5.7096993
5.7077744
5.7050015
4.9240136
4.9595838
5.8910265
5.7103666
5.7098729
5.707074
5.7078958
5.7063419
5.7035434
5.7004918
4.9196089
4.9593909
5.8907292
5.7125555
5.707074
5.709483
5.7067821
5.7060876
5.7037711
5.7001575
4.9189766
4.959555
5.889624
5.7116385
5.7078958
5.7067821
5.7075776
5.7046058
5.7027196
5.6994079
4.9180052
4.9583417
5.8888013
5.7096993
5.7063419
5.7060876
5.7046058
5.70405
5.7004241
5.6976346
4.9163562
4.9564469
5.8866811
5.7077744
5.7035434
5.7037711
5.7027196
5.7004241
5.6988298
5.6943763
4.9140654
4.9545293
5.8831307
5.7050016
5.7004918
5.7001575
5.6994079
5.6976346
5.6943763
5.6917152
4.9104365
4.53494
5.0602525
4.9240136
4.9196089
4.9189766
4.9180052
4.9163562
4.9140653
4.9104365
3.941633
4.2454603
5.6258626
5.3813719
5.373495
5.3732563
5.3733754
5.3720554
5.3699489
5.3678404
4.9077868
5.6258626
6.5762781
6.3740488
6.3719499
6.3716264
6.3703944
6.3694379
6.3671318
6.3632339
5.4656256
5.3813719
6.3740488
6.1851802
6.1776377
6.1798581
6.1788718
6.1767381
6.1746041
6.1715644
5.3197591
5.373495
6.3719499
6.1776377
6.1769486
6.1740133
6.1747842
6.1730922
6.17002
6.1666822
5.3150099
5.3732563
6.3716264
6.1798581
6.1740133
6.1764813
6.173578
6.172777
6.1702233
6.1662734
5.3143067
5.3733753
6.3703944
6.1788718
6.1747842
6.1735781
6.1743877
6.1711153
6.1690702
6.1654209
5.3132143
5.3720555
6.3694379
6.1767381
6.1730922
6.172777
6.1711153
6.1705235
6.1664959
6.1634887
5.3113971
5.3699489
6.3671318
6.1746041
6.17002
6.1702233
6.1690702
6.1664959
6.1648021
6.1598747
5.3088971
5.3678404
6.3632339
6.1715644
6.1666822
6.1662734
6.1654209
6.1634887
6.1598747
6.1570037
5.3049169
4.9077868
5.4656256
5.3197591
5.3150099
5.3143067
5.3132143
5.3113971
5.3088971
5.3049169
4.2472763
4.5581113
6.0230028
5.762681
5.754281
5.7540018
5.7540721
5.7526482
5.750344
5.7480586
5.2503751
6.0230028
7.0311389
6.8159346
6.8135937
6.8132487
6.8118988
6.8108081
6.8083278
6.8041071
5.8373004
5.762681
6.8159345
6.6147721
6.6068268
6.6090682
6.6080161
6.605694
6.6033652
6.600077
5.6827045
5.754281
6.8135937
6.6068268
6.6059442
6.6028857
6.6036065
6.6017797
6.5984544
6.59485
5.6776388
5.7540019
6.8132487
6.6090682
6.6028857
6.6054076
6.6023126
6.6014064
6.5986301
6.594367
5.6768674
5.7540721
6.8118988
6.6080161
6.6036065
6.6023125
6.6031291
6.5995734
6.5973805
6.5934148
5.675659
5.7526482
6.8108081
6.605694
6.6017797
6.6014064
6.5995734
6.5989476
6.5945414
6.5913337
5.6736832
5.750344
6.8083278
6.6033652
6.5984544
6.5986301
6.5973805
6.5945413
6.5927567
6.5873846
5.6709882
5.7480587
6.8041071
6.600077
6.59485
6.594367
6.5934148
6.5913337
6.5873846
6.5843204
5.6666802
5.2503751
5.8373004
5.6827045
5.6776388
5.6768674
5.675659
5.6736832
5.6709882
5.6666802
4.5267257
4.8426676
6.3830174
6.1084709
6.0995976
6.0992764
6.0992976
6.0977774
6.0952871
6.0928382
5.5605932
6.3830174
7.4426556
7.215805
7.2132366
7.2128663
7.2114073
7.2101906
7.2075482
7.2030303
6.1729858
6.1084709
7.215805
7.0035898
6.9952889
6.9975363
6.996423
6.9939262
6.9914139
6.9878967
6.0106129
6.0995976
7.2132366
6.9952889
6.9942205
6.9910493
6.9917174
6.9897655
6.9862056
6.9823562
6.0052608
6.0992764
7.2128663
6.9975363
6.9910493
6.9936092
6.9903411
6.9893344
6.9863512
6.9818005
6.0044248
6.0992976
7.2114073
6.996423
6.9917174
6.9903411
6.9911584
6.9873398
6.9850114
6.9807529
6.0031065
6.0977775
7.2101906
6.9939262
6.9897655
6.9893344
6.9873398
6.9866822
6.9819234
6.9785342
6.0009831
6.0952871
7.2075482
6.9914139
6.9862056
6.9863512
6.9850114
6.9819234
6.9800578
6.9742731
5.9981087
6.0928382
7.2030303
6.9878967
6.9823561
6.9818005
6.9807529
6.9785342
6.9742731
6.9710337
5.9934988
5.5605932
6.1729858
6.0106129
6.0052608
6.0044248
6.0031065
6.0009832
5.9981087
5.9934988
4.7782604
5.0973732
6.7036854
6.416605
6.4073131
6.4069515
6.4069216
6.4053135
6.4026523
6.4000537
5.8365283
6.7036854
7.8082933
7.5711928
7.5684136
7.5680188
7.5664569
7.5651211
7.5623324
7.5575444
6.4706123
6.416605
7.5711928
7.349232
7.3406249
7.3428657
7.3416955
7.3390391
7.3363582
7.332633
6.3014629
6.4073131
7.5684136
7.3406249
7.33938
7.3361133
7.3367229
7.3346569
7.3308835
7.326812
6.2958567
6.4069515
7.5680188
7.3428657
7.3361133
7.3386942
7.3352718
7.3341696
7.330997
7.3261861
6.2949602
6.4069216
7.5664569
7.3416955
7.3367229
7.3352718
7.3360835
7.3320246
7.3295741
7.3250485
6.2935393
6.4053135
7.5651211
7.3390391
7.3346569
7.3341696
7.3320246
7.3313384
7.3262553
7.3227048
6.2912806
6.4026523
7.5623325
7.3363581
7.3308836
7.330997
7.3295741
7.3262553
7.3243193
7.3181572
6.2882437
6.4000537
7.5575444
7.332633
7.3268121
7.326186
7.3250485
7.3227048
7.3181572
7.3147617
6.2833598
5.8365283
6.4706123
6.3014629
6.2958567
6.2949602
6.2935393
6.2912806
6.2882437
6.2833598
5.0003313
5.3206555
6.9830276
6.6851826
6.6755281
6.6751281
6.675047
6.6733597
6.6705435
6.667811
6.0764793
6.9830276
8.125796
7.8799061
7.8769326
7.876515
7.8748593
7.8734113
7.8704929
7.8654637
6.7283452
6.6851826
7.8799061
7.6495687
7.6407059
7.6429263
7.6417055
7.6389051
7.6360713
7.6321607
6.5534616
6.6755281
7.8769325
7.6407059
7.6392917
7.6359492
7.6364958
7.6343276
7.6303635
7.6260945
6.5476352
6.6751281
7.876515
7.6429263
7.6359491
7.6385345
7.634978
7.6337863
7.6304434
7.6254013
6.5466832
6.675047
7.8748593
7.6417055
7.6364958
7.634978
7.6357784
7.6315034
7.6289453
7.6241799
6.5451677
6.6733597
7.8734113
7.6389051
7.6343276
7.6337863
7.6315034
7.6307919
7.6254153
7.6217249
6.5427869
6.6705435
7.870493
7.6360713
7.6303634
7.6304434
7.6289453
7.6254153
7.6234202
7.6169181
6.5396058
6.667811
7.8654637
7.6321607
7.6260945
7.6254013
7.6241799
7.6217249
7.6169181
7.6133872
6.5344777
6.0764793
6.7283451
6.5534616
6.5476352
6.5466832
6.5451677
6.5427869
6.5396058
6.5344776
5.1915702
5.5111374
7.2193205
6.9125473
6.902589
6.9021522
6.9020201
6.9002636
6.8973092
6.8944592
6.2789668
7.2193205
8.3932036
8.14004
8.1368904
8.1364516
8.134712
8.1331601
8.1301296
8.1248899
6.9445954
6.9125473
8.14004
7.9027465
7.8936818
7.8958673
7.894603
7.8916751
7.8887055
7.8846333
6.7650556
6.902589
8.1368904
7.8936817
7.8921064
7.888708
7.8891878
7.8869302
7.8827991
7.8783588
6.7590445
6.9021522
8.1364516
7.8958673
7.888708
7.8912813
7.887612
7.8863377
7.8828444
7.8776021
6.7580424
6.9020201
8.134712
7.894603
7.8891878
7.887612
7.8883956
7.8839303
7.8812798
7.8763037
6.7564412
6.9002636
8.1331601
7.8916751
7.8869302
7.8863377
7.8839303
7.8831973
7.8775599
7.873752
6.7539525
6.8973092
8.1301296
7.8887056
7.8827992
7.8828444
7.8812798
7.8775598
7.8755175
7.8687152
6.7506464
6.8944592
8.1248899
7.8846333
7.8783588
7.877602
7.8763037
7.873752
7.8687151
7.8650702
6.7453054
6.2789669
6.9445953
6.7650556
6.7590445
6.7580424
6.7564412
6.7539525
6.7506464
6.7453054
5.3507993
5.6676435
7.4111064
7.0972961
7.0870951
7.0866239
7.086441
7.0846258
7.0815511
7.0786011
6.4427425
7.4111064
8.6088674
8.34999
8.3466837
8.346226
8.3444126
8.3427661
8.3396417
8.3342235
7.1180298
7.0972961
8.34999
8.1072031
8.0979921
8.100129
8.0988285
8.0957908
8.0927034
8.0884943
6.9349406
7.0870951
8.3466837
8.0979921
8.0962651
8.0928313
8.0932408
8.0909073
8.0866345
8.0820499
6.9287815
7.0866239
8.346226
8.100129
8.0928313
8.0953762
8.0916163
8.0902669
8.0866445
8.0812338
6.9277351
7.086441
8.3444126
8.0988285
8.0932408
8.0916164
8.0923779
8.0877493
8.0850225
8.0798662
6.9260577
7.0846258
8.3427661
8.0957908
8.0909073
8.0902669
8.0877493
8.086999
8.0811351
8.077233
6.9234762
7.0815511
8.3396417
8.0927034
8.0866345
8.0866445
8.0850225
8.0811351
8.0790577
8.0719969
6.9200652
7.0786011
8.3342235
8.0884943
8.0820499
8.0812338
8.0798662
8.0772331
8.0719969
8.06826
6.914544
6.4427425
7.1180298
6.9349406
6.9287815
6.9277351
6.9260577
6.9234762
6.9200652
6.914544
5.4770373
5.7892083
7.5572022
7.2382893
7.2279083
7.2274054
7.2271725
7.2253095
7.2221333
7.2191012
6.5667967
7.5572022
8.7714568
8.5084612
8.5050183
8.5045442
8.502668
8.5009367
8.4977375
8.492174
7.2475792
7.2382893
8.5084612
8.2616775
8.2523769
8.2544516
8.2531227
8.2499936
8.2468072
8.2424871
7.0620692
7.2279083
8.5050183
8.2523769
8.2505085
8.2470603
8.2473966
8.2450013
8.240613
8.2359121
7.0558
7.2274054
8.5045442
8.2544516
8.2470603
8.2495609
8.2457333
8.2443167
8.2405873
8.2350415
7.0547154
7.2271725
8.502668
8.2531227
8.2473966
8.2457333
8.2464677
8.2417043
8.2389177
8.2336127
7.0529719
7.2253095
8.5009367
8.2499936
8.2450014
8.2443167
8.2417043
8.240941
8.2348866
8.2309141
7.0503132
7.2221333
8.4977374
8.2468072
8.240613
8.2405873
8.2389177
8.2348866
8.2327867
8.2255107
7.0468182
7.2191012
8.492174
8.242487
8.2359121
8.2350415
8.2336127
8.2309141
8.2255107
8.2217049
7.0411508
6.5667967
7.2475793
7.0620692
7.0558
7.0547154
7.0529719
7.0503133
7.0468182
7.0411508
5.5695065
5.875082
7.6567066
7.3346572
7.32416
7.3236284
7.3233468
7.3214473
7.318189
7.3150934
6.6503646
7.6567066
8.8799685
8.6144762
8.6109177
8.61043
8.6085023
8.6066967
8.6034421
8.5977677
7.3324451
7.3346572
8.6144763
8.3652172
8.355884
8.3578835
8.3565341
8.3533328
8.3500668
8.3456622
7.1456578
7.32416
8.6109177
8.3558839
8.3538856
8.350444
8.3507049
8.3482625
8.3437854
8.3389971
7.139317
7.3236283
8.61043
8.3578835
8.350444
8.3528846
8.3490128
8.3475376
8.3437239
8.3380772
7.1382008
7.3233468
8.6085022
8.3565341
8.3507049
8.3490128
8.3497154
8.3448462
8.3420168
8.3365958
7.1364018
7.3214473
8.6066966
8.3533328
8.3482625
8.3475376
8.3448461
8.3440744
8.3378666
8.3338483
7.1336823
7.318189
8.6034421
8.3500668
8.3437854
8.3437239
8.3420168
8.3378666
8.3357571
8.3283106
7.1301246
7.3150934
8.5977677
8.3456622
8.3389972
8.3380772
8.3365958
8.3338482
8.3283107
8.3244592
7.1243458
6.6503646
7.3324451
7.1456578
7.139317
7.1382008
7.1364018
7.1336823
7.1301246
7.1243458
5.6276374
5.9247346
7.7090057
7.3858054
7.3752566
7.3746993
7.3743707
7.3724463
7.3691259
7.3659859
6.6929309
7.7090057
8.9337332
8.667381
8.6637287
8.6632302
8.6612628
8.6593939
8.6561041
8.6503535
7.3721042
7.3858054
8.667381
8.4171832
8.4078748
8.4097869
8.4084252
8.4051713
8.4018458
8.3973838
7.1851912
7.3752566
8.6637287
8.4078749
8.4057587
8.4023449
8.4025287
8.400054
8.3955157
8.3906696
7.1788178
7.3746993
8.6632302
8.4097869
8.4023449
8.4047104
8.400818
8.3992932
8.3954188
8.3897058
7.1776768
7.3743707
8.6612628
8.4084252
8.4025287
8.4008181
8.4014844
8.3965393
8.3936846
8.3881809
7.1758333
7.3724463
8.6593939
8.4051713
8.400054
8.3992932
8.3965393
8.3957638
8.3894408
8.3854012
7.1730695
7.3691259
8.6561041
8.4018458
8.3955157
8.3954188
8.3936846
8.3894408
8.3873345
8.3797635
7.1694712
7.3659859
8.6503535
8.3973837
8.3906696
8.3897059
8.3881809
8.3854011
8.3797635
8.3758902
7.1636166
6.6929309
7.3721042
7.1851912
7.1788178
7.1776768
7.1758333
7.1730695
7.1694712
7.1636166
5.6510718
5.9378597
7.7137768
7.391418
7.3808827
7.3803032
7.3799295
7.3779921
7.37463
7.3714649
6.6942333
7.7137768
8.9324191
8.6668489
8.6631254
8.6626192
8.6606241
8.6587035
8.6553986
8.6496073
7.3663121
7.391418
8.6668489
8.4172549
8.4080288
8.4098415
8.4084759
8.4051894
8.4018249
8.3973329
7.1804257
7.3808827
8.6631254
8.4080289
8.4058079
8.4024429
8.4025484
8.4000567
8.3954851
8.390611
7.174059
7.3803032
8.6626192
8.4098414
8.4024429
8.4047186
8.4008298
8.3992647
8.3953534
8.3896094
7.1729002
7.3799295
8.6606242
8.4084758
8.4025484
8.4008298
8.4014557
8.3964652
8.3936027
8.3880503
7.1710236
7.3779921
8.6587034
8.4051894
8.4000567
8.3992647
8.3964652
8.3956906
8.3892915
8.3852555
7.1682326
7.37463
8.6553986
8.4018249
8.3954852
8.3953534
8.3936027
8.3892915
8.3872014
8.3795525
7.1646157
7.3714649
8.6496073
8.3973329
8.390611
8.3896094
8.3880503
8.3852555
8.3795525
8.3756811
7.1587214
6.6942334
7.3663121
7.1804257
7.174059
7.1729002
7.1710236
7.1682326
7.1646156
7.1587214
5.6396657
5.9143761
7.6709901
7.3514603
7.3410034
7.3404053
7.3399888
7.3380504
7.3346674
7.3314967
6.6542639
7.6709901
8.8760337
8.612883
8.6091113
8.6086005
8.6065901
8.6046295
8.60133
8.5955339
7.3151046
7.3514603
8.612883
8.3654316
8.3563448
8.3580468
8.3566858
8.3533871
8.3500043
8.3455101
7.1313909
7.3410034
8.6091113
8.3563448
8.3540328
8.3507374
8.3507639
8.3482706
8.343694
8.3388219
7.1250701
7.3404053
8.6086005
8.3580468
8.3507373
8.3529093
8.3490479
8.3474523
8.3435282
8.3377886
7.1239008
7.3399888
8.6065901
8.3566858
8.3507639
8.3490479
8.3496296
8.3446245
8.341772
8.3362049
7.1220026
7.3380504
8.6046295
8.3533871
8.3482706
8.3474523
8.3446246
8.3438557
8.3374198
8.3334123
7.1192016
7.3346674
8.60133
8.3500043
8.343694
8.3435282
8.3417719
8.3374198
8.3353589
8.3276793
7.1155884
7.3314967
8.5955338
8.3455101
8.3388219
8.3377886
8.336205
8.3334124
8.3276793
8.3238337
7.1096908
6.6542639
7.3151046
7.1313909
7.1250701
7.1239007
7.1220026
7.1192016
7.1155884
7.1096908
5.5934896
5.8544284
7.5809089
7.2661782
7.2558643
7.2552513
7.2547948
7.2528673
7.2494843
7.2463276
6.573269
7.5809089
8.7649244
8.5058156
8.502019
8.5015069
8.4994937
8.4975054
8.4942317
8.4884664
7.2187974
7.2661782
8.5058157
8.2620325
8.253141
8.2547221
8.2533742
8.2500836
8.2467035
8.2422349
7.0383891
7.2558643
8.502019
8.2531411
8.2507524
8.2475469
8.2474944
8.245015
8.2404617
8.2356218
7.0321533
7.2552513
8.5015069
8.2547222
8.2475469
8.2496018
8.2457918
8.2441755
8.240263
8.2345633
7.0309807
7.2547948
8.4994937
8.2533742
8.2474944
8.2457918
8.2463258
8.2413371
8.2385121
8.2329649
7.0290727
7.2528673
8.4975054
8.2500836
8.245015
8.2441755
8.2413371
8.2405788
8.2341461
8.2301919
7.0262792
7.2494843
8.4942317
8.2467035
8.2404617
8.240263
8.238512
8.234146
8.232127
8.2244641
7.0226921
7.2463276
8.4884664
8.2422349
8.2356217
8.2345633
8.2329649
8.2301919
8.2244641
8.2206681
7.0168276
6.573269
7.2187974
7.0383891
7.0321533
7.0309807
7.0290727
7.0262792
7.0226921
7.0168276
5.5128287
5.7583857
7.4440882
7.1360972
7.1259899
7.125366
7.1248724
7.122968
7.119606
7.1164829
6.4517481
7.4440883
8.5997756
8.3463065
8.3425085
8.3419984
8.3399951
8.3379916
8.334764
8.3290652
7.0779843
7.1360972
8.3463065
8.1076949
8.0990536
8.1005042
8.0991778
8.0959159
8.0925595
8.0881441
6.9019939
7.1259899
8.3425085
8.0990536
8.0966031
8.0935076
8.0933767
8.0909266
8.0864248
8.081647
6.8958816
7.1253661
8.3419984
8.1005043
8.0935076
8.095433
8.0916981
8.0900713
8.0861946
8.08057
6.8947131
7.1248724
8.3399951
8.0991778
8.0933767
8.091698
8.0921813
8.0872399
8.08446
8.0789671
6.8928074
7.122968
8.3379916
8.0959159
8.0909266
8.0900713
8.0872399
8.0864971
8.0801072
8.0762308
6.8900387
7.119606
8.334764
8.0925595
8.0864248
8.0861946
8.08446
8.0801072
8.0781426
8.0705438
6.8865
7.1164829
8.3290652
8.0881441
8.081647
8.08057
8.0789671
8.0762308
8.0705438
8.0668209
6.8807048
6.4517481
7.0779843
6.9019939
6.8958816
6.8947131
6.8928074
6.8900387
6.8865
6.8807048
5.3981807
5.6268399
7.2613712
6.9620189
6.9521807
6.95155
6.9510226
6.9491531
6.9458331
6.942763
6.2904504
7.2613712
8.3816051
8.1353385
8.1315628
8.1310583
8.1290774
8.1270713
8.12391
8.1183131
6.8935337
6.9620189
8.1353385
7.9033696
7.8950322
7.8963436
7.8950473
7.8918344
7.8885227
7.8841879
6.7230462
6.9521807
8.1315628
7.8950322
7.8925352
7.8895689
7.8893607
7.8869554
7.8825331
7.877847
6.7170954
6.95155
8.1310582
7.8963437
7.889569
7.8913533
7.8877167
7.8860899
7.8822731
7.8767585
6.7159385
6.9510226
8.1290774
7.8950473
7.8893607
7.8877167
7.8881465
7.8832832
7.8805658
7.8751611
6.7140469
6.9491531
8.1270712
7.8918344
7.8869554
7.8860898
7.8832832
7.8825607
7.8762533
7.8724789
6.7113203
6.9458331
8.12391
7.8885227
7.8825331
7.8822731
7.8805658
7.8762534
7.8743557
7.866868
6.7078521
6.942763
8.1183131
7.8841879
7.877847
7.8767585
7.8751611
7.8724789
7.866868
7.8632414
6.702162
6.2904504
6.8935337
6.7230462
6.7170954
6.7159385
6.714047
6.7113203
6.7078521
6.702162
5.2502529
5.4606013
7.0338834
6.7450158
6.7355077
6.7348744
6.7343167
6.7324942
6.7292369
6.726239
6.0903704
7.0338834
8.111757
7.8742116
7.8704819
7.8699864
7.8680407
7.8660447
7.8629696
7.8575094
6.6665827
6.7450158
7.8742116
7.650316
7.6423342
7.6434988
7.6422408
7.6390973
7.6358509
7.6316238
6.5026495
6.7355077
7.8704819
7.6423342
7.6398065
7.6369882
7.6367043
7.634359
7.6300438
7.6254786
6.4968972
6.7348744
7.8699864
7.6434988
7.6369882
7.6386208
7.6351055
7.6334889
7.629756
7.6243857
6.4957593
6.7343168
7.8680406
7.6422409
7.6367043
7.6351055
7.6354796
7.6307247
7.628087
7.6228042
6.4938942
6.7324942
7.8660447
7.6390972
7.634359
7.6334889
7.6307247
7.6300274
7.6238418
7.6201929
6.4912267
6.7292369
7.8629696
7.6358509
7.6300438
7.629756
7.6280869
7.6238417
7.6220229
7.6146929
6.4878506
6.726239
7.8575093
7.6316238
7.6254787
7.6243857
7.6228043
7.6201928
7.6146929
7.611186
6.4823009
6.0903704
6.6665827
6.5026495
6.4968972
6.4957593
6.4938942
6.4912267
6.4878505
6.4823009
5.0699581
5.2606943
6.7630267
6.486425
6.4773062
6.4766746
6.4760907
6.4743267
6.4711527
6.4682458
5.8527417
6.7630267
7.7918942
7.564535
7.5608747
7.5603918
7.5584939
7.556521
7.5535516
7.548262
6.3985306
6.486425
7.564535
7.3500935
7.3425168
7.343528
7.3423169
7.3392626
7.3361021
7.3320091
6.2421628
6.4773062
7.5608747
7.3425168
7.3399745
7.3373221
7.336965
7.3346947
7.3305137
7.3260979
6.236645
6.4766746
7.5603918
7.343528
7.3373221
7.3387936
7.3354218
7.3338261
7.3302004
7.3250076
6.2355335
6.4760907
7.5584939
7.3423169
7.336965
7.3354218
7.3357385
7.3311221
7.3285806
7.3234522
6.2337068
6.4743267
7.556521
7.3392626
7.3346947
7.333826
7.3311221
7.3304551
7.3244299
7.320929
6.231116
6.4711527
7.5535516
7.3361021
7.3305137
7.3302004
7.3285806
7.3244298
7.3227015
7.3155734
6.2278532
6.4682458
7.548262
7.3320091
7.326098
7.3250076
7.3234522
7.320929
7.3155734
7.3122084
6.2224778
5.8527417
6.3985307
6.2421628
6.236645
6.2355335
6.2337067
6.231116
6.2278532
6.2224778
4.8584085
5.0283506
6.4504697
6.18784
6.179167
6.1785417
6.1779358
6.176242
6.1731714
6.1703739
5.5790293
6.4504697
7.4239872
7.2082166
7.204649
7.2041826
7.2023451
7.2004083
7.1975634
7.1924776
6.0910302
6.18784
7.2082166
7.0045519
6.9974279
6.9982801
6.9971242
6.9941787
6.9911243
6.9871909
5.9431919
6.179167
7.204649
6.9974279
6.9948872
6.9924179
6.9919905
6.9898101
6.9857899
6.9815512
5.9379431
6.1785417
7.2041826
6.9982802
6.9924179
6.9937199
6.9905133
6.988949
6.9854543
6.9804721
5.9368663
6.1779359
7.202345
6.9971242
6.9919905
6.9905133
6.9907712
6.9863223
6.983894
6.9789521
5.9350888
6.1762421
7.2004082
6.9941787
6.9898101
6.988949
6.9863223
6.9856895
6.9798632
6.9765331
5.9325911
6.1731714
7.1975634
6.9911243
6.9857899
6.9854543
6.983894
6.9798632
6.9782404
6.971356
5.9294634
6.1703739
7.1924776
6.9871909
6.9815512
6.980472
6.9789522
6.976533
6.971356
6.9681547
5.9242957
5.5790293
6.0910302
5.9431919
5.9379431
5.9368663
5.9350888
5.9325911
5.9294634
5.9242957
4.6169093
4.7650012
6.0981378
5.8511
5.8429271
5.8423129
5.8416898
5.8400775
5.8371301
5.8344597
5.2709207
6.0981378
7.0103024
6.8074517
6.8039998
6.8035538
6.801789
6.7999014
6.7971998
6.7923499
5.7459775
5.8511
6.8074517
6.6158203
6.6091938
6.6098829
6.6087903
6.6059729
6.6030445
6.5992965
5.6075817
5.8429272
6.8039998
6.6091938
6.6066713
6.6044014
6.6039075
6.601831
6.5979967
6.5939623
5.6026336
5.8423129
6.8035538
6.6098829
6.6044014
6.605527
6.6025066
6.6009839
6.5976407
6.5929019
5.6015992
5.8416898
6.8017891
6.6087904
6.6039075
6.6025066
6.6027065
6.5984538
6.5961536
6.591432
5.599884
5.8400775
6.7999014
6.6059729
6.601831
6.6009839
6.5984538
6.5978608
6.5922642
6.5891322
5.5974949
5.8371301
6.7971997
6.6030445
6.5979967
6.5976407
6.5961535
6.5922642
6.5907593
6.5841632
5.5945218
5.8344597
6.7923499
6.5992964
6.5939623
6.5929019
6.591432
6.5891322
6.5841632
6.5811485
5.5895953
5.2709207
5.7459775
5.6075817
5.6026336
5.6015992
5.5998839
5.5974949
5.5945218
5.5895953
4.3469511
4.4722683
5.708201
5.4782793
5.470658
5.4700598
5.4694246
5.467905
5.4650999
5.4625742
4.930316
5.708201
6.553388
6.364709
6.3613953
6.360974
6.3592945
6.357469
6.354928
6.3503443
5.3654989
5.4782793
6.364709
6.1862934
6.1802065
6.1807298
6.179709
6.1770386
6.1742547
6.1707144