/*--------------------------------*- C++ -*----------------------------------*\
| =========                 |                                                 |
| \\      /  F ield         | OpenFOAM: The Open Source CFD Toolbox           |
|  \\    /   O peration     | Version:  v2106                                 |
|   \\  /    A nd           | Website:  www.openfoam.com                      |
|    \\/     M anipulation  |                                                 |
\*---------------------------------------------------------------------------*/
FoamFile
{
    version     2.0;
    format      ascii;
    arch        "LSB;label=32;scalar=64";
    class       volScalarField;
    location    "47.5";
    object      T;
}
// * * * * * * * * * * * * * * * * * * * * * * * * * * * * * * * * * * * * * //

dimensions      [0 0 0 1 0 0 0];

internalField   nonuniform List<scalar> 
4000
(
276.74491
276.74491
276.7449
276.7449
276.7449
276.7449
276.7449
276.7449
276.74491
276.74491
276.74491
276.7449
276.7449
276.7449
276.7449
276.7449
276.7449
276.7449
276.7449
276.7449
276.7449
276.7449
276.7449
276.74489
276.74489
276.74489
276.74489
276.7449
276.7449
276.7449
276.7449
276.7449
276.74489
276.74489
276.74489
276.74489
276.74489
276.7449
276.7449
276.7449
276.7449
276.7449
276.74489
276.74489
276.74489
276.74489
276.74489
276.74489
276.7449
276.7449
276.7449
276.7449
276.74489
276.74489
276.74489
276.74489
276.74489
276.7449
276.7449
276.7449
276.7449
276.7449
276.74489
276.74489
276.74489
276.74489
276.74489
276.7449
276.7449
276.7449
276.7449
276.7449
276.7449
276.7449
276.74489
276.7449
276.7449
276.7449
276.7449
276.7449
276.74491
276.7449
276.7449
276.7449
276.7449
276.7449
276.7449
276.7449
276.7449
276.74491
276.74491
276.7449
276.7449
276.7449
276.7449
276.7449
276.7449
276.7449
276.74491
276.74491
284.23477
284.23475
284.23474
284.23474
284.23474
284.23474
284.23474
284.23474
284.23475
284.23475
284.23475
284.23474
284.23473
284.23472
284.23472
284.23472
284.23472
284.23473
284.23473
284.23474
284.23474
284.23473
284.23472
284.23472
284.23471
284.23471
284.23472
284.23472
284.23473
284.23474
284.23474
284.23472
284.23472
284.23471
284.23471
284.23471
284.23471
284.23472
284.23473
284.23473
284.23474
284.23472
284.23471
284.23471
284.23471
284.23471
284.23471
284.23472
284.23473
284.23473
284.23474
284.23472
284.23471
284.23471
284.23471
284.23471
284.23471
284.23472
284.23473
284.23474
284.23474
284.23472
284.23472
284.23471
284.23471
284.23471
284.23472
284.23472
284.23473
284.23474
284.23474
284.23473
284.23472
284.23472
284.23472
284.23472
284.23472
284.23473
284.23474
284.23475
284.23475
284.23473
284.23473
284.23473
284.23473
284.23473
284.23473
284.23474
284.23474
284.23475
284.23475
284.23474
284.23474
284.23473
284.23473
284.23474
284.23474
284.23475
284.23475
284.23476
291.72471
291.72468
291.72467
291.72466
291.72466
291.72466
291.72466
291.72467
291.72468
291.72469
291.72468
291.72466
291.72465
291.72464
291.72464
291.72464
291.72464
291.72465
291.72466
291.72468
291.72467
291.72465
291.72464
291.72463
291.72463
291.72463
291.72463
291.72464
291.72465
291.72467
291.72466
291.72464
291.72463
291.72462
291.72462
291.72462
291.72463
291.72464
291.72465
291.72466
291.72466
291.72464
291.72463
291.72462
291.72462
291.72462
291.72463
291.72464
291.72465
291.72466
291.72466
291.72464
291.72463
291.72462
291.72462
291.72462
291.72463
291.72464
291.72465
291.72467
291.72466
291.72464
291.72463
291.72463
291.72463
291.72463
291.72464
291.72464
291.72466
291.72467
291.72467
291.72465
291.72464
291.72464
291.72464
291.72464
291.72464
291.72465
291.72467
291.72468
291.72468
291.72466
291.72465
291.72465
291.72465
291.72465
291.72466
291.72467
291.72468
291.7247
291.72469
291.72468
291.72467
291.72466
291.72466
291.72467
291.72467
291.72468
291.7247
291.72471
299.2148
299.21477
299.21475
299.21474
299.21474
299.21474
299.21475
299.21476
299.21477
299.21479
299.21477
299.21474
299.21472
299.21471
299.21471
299.21471
299.21472
299.21473
299.21475
299.21477
299.21475
299.21472
299.21471
299.2147
299.2147
299.2147
299.21471
299.21472
299.21473
299.21476
299.21474
299.21471
299.2147
299.21469
299.21469
299.21469
299.2147
299.21471
299.21473
299.21475
299.21474
299.21471
299.2147
299.21469
299.21469
299.21469
299.2147
299.21471
299.21473
299.21475
299.21474
299.21471
299.2147
299.21469
299.21469
299.21469
299.2147
299.21471
299.21473
299.21475
299.21475
299.21472
299.21471
299.2147
299.2147
299.2147
299.21471
299.21472
299.21474
299.21476
299.21476
299.21473
299.21472
299.21471
299.21471
299.21471
299.21472
299.21474
299.21476
299.21478
299.21477
299.21475
299.21473
299.21473
299.21473
299.21473
299.21474
299.21476
299.21478
299.2148
299.21479
299.21477
299.21476
299.21475
299.21475
299.21475
299.21476
299.21478
299.2148
299.21483
306.70511
306.70507
306.70505
306.70504
306.70503
306.70504
306.70504
306.70506
306.70508
306.7051
306.70507
306.70503
306.70502
306.705
306.705
306.705
306.70501
306.70503
306.70505
306.70507
306.70505
306.70502
306.705
306.70499
306.70498
306.70499
306.70499
306.70501
306.70503
306.70506
306.70504
306.705
306.70499
306.70498
306.70497
306.70498
306.70499
306.705
306.70503
306.70506
306.70503
306.705
306.70498
306.70497
306.70497
306.70497
306.70498
306.705
306.70502
306.70505
306.70504
306.705
306.70499
306.70498
306.70497
306.70498
306.70499
306.70501
306.70503
306.70506
306.70504
306.70501
306.70499
306.70499
306.70498
306.70499
306.705
306.70502
306.70504
306.70507
306.70506
306.70503
306.70501
306.705
306.705
306.70501
306.70502
306.70504
306.70506
306.70509
306.70508
306.70505
306.70503
306.70503
306.70502
306.70503
306.70504
306.70506
306.70509
306.70512
306.7051
306.70507
306.70506
306.70506
306.70505
306.70506
306.70507
306.70509
306.70512
306.70515
314.1957
314.19565
314.19562
314.19561
314.19561
314.19561
314.19562
314.19564
314.19566
314.19569
314.19565
314.19561
314.19558
314.19557
314.19556
314.19557
314.19558
314.1956
314.19562
314.19566
314.19562
314.19558
314.19556
314.19555
314.19555
314.19555
314.19556
314.19558
314.19561
314.19564
314.19561
314.19557
314.19555
314.19554
314.19553
314.19554
314.19555
314.19557
314.1956
314.19564
314.19561
314.19556
314.19555
314.19553
314.19553
314.19554
314.19555
314.19557
314.1956
314.19564
314.19561
314.19557
314.19555
314.19554
314.19554
314.19554
314.19556
314.19558
314.19561
314.19565
314.19562
314.19558
314.19556
314.19555
314.19555
314.19556
314.19557
314.19559
314.19562
314.19566
314.19564
314.1956
314.19558
314.19557
314.19557
314.19558
314.19559
314.19562
314.19565
314.19569
314.19566
314.19562
314.19561
314.1956
314.1956
314.19561
314.19562
314.19565
314.19568
314.19572
314.19569
314.19566
314.19564
314.19564
314.19564
314.19565
314.19566
314.19569
314.19572
314.19576
321.68662
321.68656
321.68653
321.68652
321.68651
321.68652
321.68653
321.68655
321.68658
321.68661
321.68656
321.68651
321.68649
321.68647
321.68647
321.68647
321.68648
321.68651
321.68654
321.68658
321.68653
321.68649
321.68646
321.68645
321.68644
321.68645
321.68646
321.68649
321.68652
321.68656
321.68652
321.68647
321.68645
321.68643
321.68643
321.68644
321.68645
321.68648
321.68651
321.68655
321.68651
321.68647
321.68644
321.68643
321.68643
321.68643
321.68645
321.68648
321.68651
321.68656
321.68652
321.68647
321.68645
321.68644
321.68643
321.68644
321.68646
321.68649
321.68652
321.68657
321.68653
321.68648
321.68646
321.68645
321.68645
321.68646
321.68648
321.6865
321.68654
321.68659
321.68655
321.68651
321.68649
321.68648
321.68648
321.68649
321.6865
321.68653
321.68657
321.68661
321.68658
321.68654
321.68652
321.68651
321.68651
321.68652
321.68654
321.68657
321.68661
321.68665
321.68661
321.68658
321.68656
321.68655
321.68656
321.68657
321.68659
321.68661
321.68665
321.68671
329.17793
329.17786
329.17783
329.17781
329.17781
329.17781
329.17783
329.17785
329.17789
329.17793
329.17786
329.17781
329.17778
329.17776
329.17776
329.17776
329.17778
329.17781
329.17784
329.17789
329.17783
329.17778
329.17775
329.17774
329.17773
329.17774
329.17776
329.17778
329.17782
329.17787
329.17781
329.17776
329.17774
329.17772
329.17772
329.17773
329.17774
329.17777
329.17781
329.17786
329.17781
329.17776
329.17773
329.17772
329.17772
329.17773
329.17774
329.17777
329.17781
329.17787
329.17781
329.17776
329.17774
329.17773
329.17773
329.17773
329.17775
329.17778
329.17783
329.17788
329.17783
329.17778
329.17776
329.17774
329.17774
329.17775
329.17777
329.17781
329.17785
329.1779
329.17785
329.17781
329.17778
329.17777
329.17777
329.17778
329.17781
329.17784
329.17788
329.17793
329.17789
329.17784
329.17782
329.17781
329.17781
329.17783
329.17785
329.17788
329.17793
329.17798
329.17793
329.17789
329.17787
329.17786
329.17787
329.17788
329.1779
329.17793
329.17798
329.17804
336.66968
336.66961
336.66958
336.66956
336.66955
336.66956
336.66958
336.6696
336.66964
336.66968
336.66961
336.66955
336.66952
336.6695
336.6695
336.6695
336.66952
336.66955
336.66959
336.66964
336.66958
336.66952
336.66949
336.66947
336.66947
336.66948
336.6695
336.66953
336.66957
336.66963
336.66956
336.6695
336.66947
336.66946
336.66945
336.66946
336.66948
336.66952
336.66956
336.66962
336.66955
336.6695
336.66947
336.66945
336.66945
336.66946
336.66948
336.66952
336.66956
336.66962
336.66956
336.6695
336.66948
336.66946
336.66946
336.66947
336.66949
336.66953
336.66958
336.66963
336.66958
336.66952
336.6695
336.66948
336.66948
336.66949
336.66952
336.66955
336.6696
336.66966
336.6696
336.66955
336.66953
336.66952
336.66952
336.66953
336.66955
336.66959
336.66964
336.6697
336.66964
336.66959
336.66957
336.66956
336.66956
336.66958
336.6696
336.66964
336.66969
336.66975
336.66968
336.66964
336.66963
336.66962
336.66962
336.66963
336.66966
336.6697
336.66975
336.66982
344.16193
344.16185
344.16181
344.1618
344.16179
344.1618
344.16182
344.16185
344.16189
344.16194
344.16185
344.16178
344.16175
344.16173
344.16173
344.16174
344.16176
344.16179
344.16184
344.1619
344.16181
344.16175
344.16172
344.1617
344.1617
344.16171
344.16173
344.16177
344.16181
344.16188
344.1618
344.16173
344.1617
344.16169
344.16168
344.16169
344.16172
344.16175
344.1618
344.16187
344.16179
344.16173
344.1617
344.16168
344.16168
344.16169
344.16172
344.16176
344.16181
344.16187
344.1618
344.16174
344.16171
344.16169
344.16169
344.16171
344.16173
344.16177
344.16182
344.16189
344.16182
344.16176
344.16173
344.16172
344.16172
344.16173
344.16176
344.1618
344.16185
344.16192
344.16185
344.16179
344.16177
344.16175
344.16176
344.16177
344.1618
344.16184
344.16189
344.16196
344.16189
344.16184
344.16181
344.1618
344.16181
344.16182
344.16185
344.16189
344.16195
344.16202
344.16194
344.1619
344.16188
344.16187
344.16187
344.16189
344.16192
344.16196
344.16202
344.16209
351.65472
351.65463
351.6546
351.65458
351.65457
351.65458
351.6546
351.65464
351.65468
351.65473
351.65463
351.65456
351.65453
351.65451
351.65451
351.65452
351.65454
351.65458
351.65463
351.65469
351.6546
351.65453
351.6545
351.65448
351.65448
351.65449
351.65451
351.65455
351.6546
351.65467
351.65458
351.65451
351.65448
351.65446
351.65446
351.65447
351.6545
351.65454
351.65459
351.65466
351.65457
351.65451
351.65448
351.65446
351.65446
351.65447
351.6545
351.65454
351.65459
351.65466
351.65458
351.65452
351.65449
351.65447
351.65447
351.65448
351.65451
351.65456
351.65461
351.65468
351.6546
351.65454
351.65451
351.6545
351.6545
351.65451
351.65454
351.65459
351.65464
351.65471
351.65464
351.65458
351.65455
351.65454
351.65454
351.65456
351.65459
351.65463
351.65469
351.65476
351.65468
351.65463
351.6546
351.65459
351.65459
351.65461
351.65464
351.65469
351.65475
351.65482
351.65473
351.65469
351.65467
351.65466
351.65466
351.65468
351.65471
351.65476
351.65482
351.6549
359.14809
359.14801
359.14797
359.14795
359.14794
359.14795
359.14798
359.14801
359.14806
359.14812
359.14801
359.14793
359.1479
359.14788
359.14787
359.14788
359.14791
359.14795
359.148
359.14807
359.14797
359.1479
359.14786
359.14784
359.14784
359.14785
359.14788
359.14792
359.14798
359.14805
359.14795
359.14788
359.14784
359.14783
359.14782
359.14784
359.14786
359.14791
359.14797
359.14804
359.14794
359.14787
359.14784
359.14782
359.14782
359.14784
359.14787
359.14791
359.14797
359.14805
359.14795
359.14788
359.14785
359.14784
359.14784
359.14785
359.14788
359.14793
359.14799
359.14807
359.14798
359.14791
359.14788
359.14786
359.14787
359.14788
359.14791
359.14796
359.14802
359.1481
359.14801
359.14795
359.14792
359.14791
359.14791
359.14793
359.14796
359.14801
359.14807
359.14815
359.14806
359.148
359.14798
359.14797
359.14797
359.14799
359.14802
359.14807
359.14814
359.14822
359.14812
359.14807
359.14805
359.14804
359.14805
359.14807
359.1481
359.14815
359.14822
359.14831
366.6421
366.64201
366.64197
366.64195
366.64194
366.64195
366.64198
366.64202
366.64207
366.64213
366.64201
366.64193
366.64189
366.64187
366.64187
366.64188
366.64191
366.64195
366.64201
366.64208
366.64197
366.64189
366.64186
366.64184
366.64183
366.64185
366.64188
366.64192
366.64198
366.64206
366.64195
366.64187
366.64184
366.64182
366.64182
366.64183
366.64186
366.64191
366.64197
366.64205
366.64194
366.64187
366.64183
366.64182
366.64182
366.64183
366.64186
366.64191
366.64198
366.64206
366.64195
366.64188
366.64185
366.64183
366.64183
366.64185
366.64188
366.64193
366.642
366.64208
366.64198
366.64191
366.64188
366.64186
366.64186
366.64188
366.64192
366.64197
366.64203
366.64212
366.64202
366.64195
366.64192
366.64191
366.64191
366.64193
366.64197
366.64202
366.64209
366.64217
366.64207
366.64201
366.64198
366.64197
366.64198
366.642
366.64203
366.64209
366.64216
366.64224
366.64213
366.64208
366.64206
366.64205
366.64206
366.64208
366.64212
366.64217
366.64224
366.64234
374.13677
374.13667
374.13663
374.13661
374.13661
374.13662
374.13665
374.13669
374.13674
374.13681
374.13667
374.13659
374.13656
374.13653
374.13653
374.13654
374.13657
374.13662
374.13668
374.13676
374.13663
374.13656
374.13652
374.1365
374.1365
374.13651
374.13654
374.13659
374.13665
374.13673
374.13661
374.13653
374.1365
374.13648
374.13648
374.13649
374.13653
374.13658
374.13664
374.13673
374.13661
374.13653
374.1365
374.13648
374.13648
374.1365
374.13653
374.13658
374.13665
374.13673
374.13662
374.13654
374.13651
374.13649
374.1365
374.13651
374.13655
374.1366
374.13667
374.13676
374.13665
374.13657
374.13654
374.13653
374.13653
374.13655
374.13659
374.13664
374.13671
374.1368
374.13669
374.13662
374.13659
374.13658
374.13658
374.1366
374.13664
374.13669
374.13676
374.13685
374.13674
374.13668
374.13665
374.13664
374.13665
374.13667
374.13671
374.13676
374.13684
374.13693
374.13681
374.13676
374.13673
374.13673
374.13673
374.13676
374.1368
374.13685
374.13693
374.13703
381.63214
381.63204
381.632
381.63197
381.63197
381.63198
381.63201
381.63206
381.63212
381.63218
381.63204
381.63196
381.63192
381.6319
381.63189
381.63191
381.63194
381.63198
381.63205
381.63213
381.632
381.63192
381.63188
381.63186
381.63186
381.63187
381.6319
381.63195
381.63202
381.63211
381.63197
381.6319
381.63186
381.63184
381.63184
381.63186
381.63189
381.63194
381.63201
381.6321
381.63197
381.63189
381.63186
381.63184
381.63184
381.63186
381.63189
381.63195
381.63202
381.63211
381.63198
381.63191
381.63187
381.63186
381.63186
381.63188
381.63191
381.63197
381.63204
381.63213
381.63201
381.63194
381.6319
381.63189
381.63189
381.63191
381.63195
381.63201
381.63208
381.63217
381.63206
381.63198
381.63195
381.63194
381.63195
381.63197
381.63201
381.63207
381.63214
381.63223
381.63212
381.63205
381.63202
381.63201
381.63202
381.63204
381.63208
381.63214
381.63222
381.63231
381.63218
381.63213
381.63211
381.6321
381.63211
381.63213
381.63217
381.63223
381.63231
381.63242
389.12823
389.12813
389.12809
389.12807
389.12806
389.12808
389.12811
389.12815
389.12822
389.12828
389.12813
389.12805
389.12801
389.12799
389.12798
389.128
389.12803
389.12808
389.12815
389.12823
389.12809
389.12801
389.12797
389.12795
389.12795
389.12796
389.128
389.12805
389.12812
389.12821
389.12807
389.12799
389.12795
389.12793
389.12793
389.12795
389.12798
389.12804
389.12811
389.1282
389.12806
389.12798
389.12795
389.12793
389.12793
389.12795
389.12799
389.12804
389.12812
389.12821
389.12808
389.128
389.12796
389.12795
389.12795
389.12797
389.12801
389.12807
389.12814
389.12823
389.12811
389.12803
389.128
389.12798
389.12799
389.12801
389.12805
389.12811
389.12818
389.12828
389.12815
389.12808
389.12805
389.12804
389.12804
389.12807
389.12811
389.12817
389.12824
389.12834
389.12822
389.12815
389.12812
389.12811
389.12812
389.12814
389.12818
389.12824
389.12833
389.12842
389.12828
389.12823
389.12821
389.1282
389.12821
389.12823
389.12828
389.12834
389.12842
389.12853
396.62508
396.62498
396.62493
396.62491
396.62491
396.62492
396.62495
396.625
396.62507
396.62514
396.62498
396.62489
396.62485
396.62483
396.62482
396.62484
396.62487
396.62493
396.62499
396.62508
396.62493
396.62485
396.62481
396.62479
396.62479
396.6248
396.62484
396.62489
396.62497
396.62506
396.62491
396.62483
396.62479
396.62477
396.62477
396.62479
396.62483
396.62488
396.62496
396.62505
396.62491
396.62482
396.62479
396.62477
396.62477
396.62479
396.62483
396.62489
396.62496
396.62506
396.62492
396.62484
396.6248
396.62479
396.62479
396.62481
396.62485
396.62491
396.62499
396.62509
396.62495
396.62487
396.62484
396.62483
396.62483
396.62485
396.6249
396.62496
396.62504
396.62513
396.625
396.62493
396.62489
396.62488
396.62489
396.62491
396.62496
396.62502
396.6251
396.6252
396.62507
396.62499
396.62497
396.62496
396.62496
396.62499
396.62504
396.6251
396.62518
396.62528
396.62514
396.62508
396.62506
396.62505
396.62506
396.62509
396.62513
396.6252
396.62528
396.62539
404.12269
404.12259
404.12255
404.12252
404.12252
404.12254
404.12257
404.12262
404.12269
404.12276
404.12259
404.1225
404.12246
404.12244
404.12244
404.12245
404.12249
404.12254
404.12261
404.1227
404.12255
404.12246
404.12242
404.1224
404.1224
404.12242
404.12246
404.12251
404.12259
404.12268
404.12252
404.12244
404.1224
404.12238
404.12238
404.1224
404.12244
404.1225
404.12258
404.12267
404.12252
404.12244
404.1224
404.12238
404.12239
404.12241
404.12245
404.12251
404.12258
404.12268
404.12254
404.12245
404.12242
404.1224
404.12241
404.12243
404.12247
404.12253
404.12261
404.12271
404.12257
404.12249
404.12246
404.12244
404.12245
404.12247
404.12251
404.12258
404.12266
404.12276
404.12262
404.12254
404.12251
404.1225
404.12251
404.12253
404.12258
404.12264
404.12272
404.12282
404.12269
404.12261
404.12259
404.12258
404.12258
404.12261
404.12266
404.12272
404.12281
404.12291
404.12276
404.1227
404.12268
404.12267
404.12268
404.12271
404.12276
404.12282
404.12291
404.12303
411.6211
411.62099
411.62095
411.62092
411.62092
411.62094
411.62097
411.62102
411.62109
411.62116
411.62099
411.6209
411.62086
411.62084
411.62084
411.62086
411.62089
411.62095
411.62102
411.62111
411.62095
411.62086
411.62082
411.6208
411.6208
411.62082
411.62086
411.62091
411.62099
411.62109
411.62092
411.62084
411.6208
411.62078
411.62079
411.62081
411.62084
411.6209
411.62098
411.62108
411.62092
411.62084
411.6208
411.62079
411.62079
411.62081
411.62085
411.62091
411.62099
411.62109
411.62094
411.62086
411.62082
411.62081
411.62081
411.62083
411.62088
411.62094
411.62102
411.62112
411.62097
411.62089
411.62086
411.62084
411.62085
411.62088
411.62092
411.62098
411.62107
411.62117
411.62102
411.62095
411.62091
411.6209
411.62091
411.62094
411.62098
411.62105
411.62113
411.62123
411.62109
411.62102
411.62099
411.62098
411.62099
411.62102
411.62107
411.62113
411.62122
411.62132
411.62116
411.62111
411.62109
411.62108
411.62109
411.62112
411.62117
411.62123
411.62132
411.62144
419.12029
419.12019
419.12014
419.12012
419.12012
419.12013
419.12017
419.12022
419.12029
419.12037
419.12019
419.1201
419.12006
419.12004
419.12004
419.12005
419.12009
419.12014
419.12022
419.12031
419.12014
419.12006
419.12002
419.12
419.12
419.12002
419.12006
419.12011
419.12019
419.12029
419.12012
419.12004
419.12
419.11998
419.11998
419.12
419.12004
419.1201
419.12018
419.12028
419.12012
419.12004
419.12
419.11998
419.11999
419.12001
419.12005
419.12011
419.12019
419.12029
419.12013
419.12005
419.12002
419.12
419.12001
419.12003
419.12007
419.12014
419.12022
419.12032
419.12017
419.12009
419.12006
419.12004
419.12005
419.12007
419.12012
419.12018
419.12027
419.12037
419.12022
419.12014
419.12011
419.1201
419.12011
419.12014
419.12018
419.12025
419.12034
419.12044
419.12029
419.12022
419.12019
419.12018
419.12019
419.12022
419.12027
419.12034
419.12042
419.12053
419.12037
419.12031
419.12029
419.12028
419.12029
419.12032
419.12037
419.12044
419.12053
419.12065
426.62029
426.62018
426.62014
426.62012
426.62012
426.62013
426.62017
426.62022
426.62029
426.62037
426.62018
426.6201
426.62006
426.62003
426.62003
426.62005
426.62009
426.62014
426.62022
426.62031
426.62014
426.62006
426.62002
426.62
426.62
426.62002
426.62006
426.62011
426.62019
426.62029
426.62012
426.62003
426.62
426.61998
426.61998
426.62
426.62004
426.6201
426.62018
426.62028
426.62012
426.62003
426.62
426.61998
426.61998
426.62001
426.62005
426.62011
426.62019
426.62029
426.62013
426.62005
426.62002
426.62
426.62001
426.62003
426.62008
426.62014
426.62022
426.62032
426.62017
426.62009
426.62006
426.62004
426.62005
426.62008
426.62012
426.62019
426.62027
426.62037
426.62022
426.62014
426.62011
426.6201
426.62011
426.62014
426.62019
426.62025
426.62034
426.62044
426.62029
426.62022
426.62019
426.62018
426.62019
426.62022
426.62027
426.62034
426.62043
426.62053
426.62037
426.62031
426.62029
426.62028
426.62029
426.62032
426.62037
426.62044
426.62053
426.62065
434.12108
434.12098
434.12094
434.12092
434.12091
434.12093
434.12097
434.12102
434.12109
434.12116
434.12098
434.12089
434.12085
434.12083
434.12083
434.12085
434.12089
434.12094
434.12102
434.12111
434.12094
434.12085
434.12081
434.1208
434.1208
434.12082
434.12086
434.12091
434.12099
434.12109
434.12092
434.12083
434.1208
434.12078
434.12078
434.1208
434.12084
434.1209
434.12098
434.12108
434.12091
434.12083
434.1208
434.12078
434.12079
434.12081
434.12085
434.12091
434.12099
434.12109
434.12093
434.12085
434.12082
434.1208
434.12081
434.12083
434.12088
434.12094
434.12102
434.12113
434.12097
434.12089
434.12086
434.12084
434.12085
434.12088
434.12092
434.12099
434.12107
434.12117
434.12102
434.12094
434.12091
434.1209
434.12091
434.12094
434.12099
434.12105
434.12114
434.12124
434.12109
434.12102
434.12099
434.12098
434.12099
434.12102
434.12107
434.12114
434.12123
434.12134
434.12116
434.12111
434.12109
434.12108
434.12109
434.12113
434.12117
434.12124
434.12134
434.12145
441.62267
441.62257
441.62253
441.62251
441.62251
441.62253
441.62256
441.62261
441.62268
441.62276
441.62257
441.62249
441.62245
441.62243
441.62243
441.62245
441.62248
441.62254
441.62261
441.62271
441.62253
441.62245
441.62241
441.62239
441.62239
441.62241
441.62245
441.62251
441.62259
441.62268
441.62251
441.62243
441.62239
441.62238
441.62238
441.6224
441.62244
441.6225
441.62258
441.62268
441.62251
441.62243
441.62239
441.62238
441.62238
441.62241
441.62245
441.62251
441.62259
441.62269
441.62253
441.62245
441.62241
441.6224
441.62241
441.62243
441.62248
441.62254
441.62262
441.62272
441.62256
441.62248
441.62245
441.62244
441.62245
441.62248
441.62252
441.62259
441.62267
441.62277
441.62261
441.62254
441.62251
441.6225
441.62251
441.62254
441.62259
441.62265
441.62274
441.62284
441.62268
441.62261
441.62259
441.62258
441.62259
441.62262
441.62267
441.62274
441.62282
441.62293
441.62276
441.62271
441.62268
441.62268
441.62269
441.62272
441.62277
441.62284
441.62293
441.62305
449.12505
449.12495
449.12491
449.12489
449.12489
449.12491
449.12494
449.12499
449.12506
449.12514
449.12495
449.12487
449.12483
449.12481
449.12481
449.12483
449.12487
449.12492
449.12499
449.12509
449.12491
449.12483
449.12479
449.12478
449.12478
449.1248
449.12484
449.12489
449.12497
449.12506
449.12489
449.12481
449.12478
449.12476
449.12476
449.12479
449.12483
449.12488
449.12496
449.12506
449.12489
449.12481
449.12478
449.12476
449.12477
449.12479
449.12483
449.12489
449.12497
449.12507
449.12491
449.12483
449.1248
449.12479
449.12479
449.12482
449.12486
449.12492
449.125
449.1251
449.12494
449.12487
449.12484
449.12483
449.12483
449.12486
449.1249
449.12497
449.12505
449.12515
449.12499
449.12492
449.12489
449.12488
449.12489
449.12492
449.12497
449.12503
449.12512
449.12522
449.12506
449.12499
449.12497
449.12496
449.12497
449.125
449.12505
449.12512
449.1252
449.12531
449.12514
449.12509
449.12506
449.12506
449.12507
449.1251
449.12515
449.12522
449.12531
449.12542
456.62819
456.6281
456.62806
456.62804
456.62804
456.62806
456.62809
456.62814
456.62821
456.62828
456.6281
456.62802
456.62798
456.62796
456.62796
456.62798
456.62802
456.62807
456.62814
456.62823
456.62806
456.62798
456.62795
456.62793
456.62793
456.62795
456.62799
456.62805
456.62812
456.62822
456.62804
456.62796
456.62793
456.62792
456.62792
456.62794
456.62798
456.62804
456.62812
456.62821
456.62804
456.62796
456.62793
456.62792
456.62792
456.62795
456.62799
456.62805
456.62813
456.62822
456.62806
456.62798
456.62795
456.62794
456.62795
456.62797
456.62802
456.62808
456.62816
456.62825
456.62809
456.62802
456.62799
456.62798
456.62799
456.62802
456.62806
456.62812
456.6282
456.6283
456.62814
456.62807
456.62805
456.62804
456.62805
456.62808
456.62812
456.62819
456.62827
456.62837
456.62821
456.62814
456.62812
456.62812
456.62813
456.62816
456.6282
456.62827
456.62835
456.62846
456.62828
456.62823
456.62822
456.62821
456.62822
456.62825
456.6283
456.62837
456.62846
456.62857
464.13209
464.132
464.13196
464.13194
464.13194
464.13196
464.132
464.13205
464.13211
464.13218
464.132
464.13192
464.13189
464.13187
464.13187
464.13189
464.13193
464.13198
464.13205
464.13213
464.13196
464.13189
464.13185
464.13184
464.13184
464.13186
464.1319
464.13195
464.13203
464.13212
464.13194
464.13187
464.13184
464.13182
464.13183
464.13185
464.13189
464.13195
464.13202
464.13211
464.13194
464.13187
464.13184
464.13183
464.13183
464.13186
464.1319
464.13196
464.13203
464.13213
464.13196
464.13189
464.13186
464.13185
464.13186
464.13188
464.13192
464.13198
464.13206
464.13215
464.132
464.13193
464.1319
464.13189
464.1319
464.13192
464.13197
464.13203
464.13211
464.1322
464.13205
464.13198
464.13195
464.13195
464.13196
464.13198
464.13203
464.13209
464.13217
464.13227
464.13211
464.13205
464.13203
464.13202
464.13203
464.13206
464.13211
464.13217
464.13225
464.13235
464.13218
464.13213
464.13212
464.13211
464.13213
464.13215
464.1322
464.13227
464.13235
464.13246
471.63671
471.63663
471.63659
471.63657
471.63657
471.63659
471.63663
471.63667
471.63674
471.63681
471.63663
471.63655
471.63652
471.6365
471.63651
471.63652
471.63656
471.63661
471.63668
471.63676
471.63659
471.63652
471.63649
471.63647
471.63648
471.6365
471.63653
471.63659
471.63666
471.63674
471.63657
471.6365
471.63647
471.63646
471.63647
471.63649
471.63652
471.63658
471.63665
471.63674
471.63657
471.63651
471.63648
471.63647
471.63647
471.63649
471.63653
471.63659
471.63666
471.63675
471.63659
471.63652
471.6365
471.63649
471.63649
471.63652
471.63656
471.63662
471.63669
471.63678
471.63663
471.63656
471.63653
471.63652
471.63653
471.63656
471.6366
471.63666
471.63674
471.63683
471.63667
471.63661
471.63659
471.63658
471.63659
471.63662
471.63666
471.63672
471.6368
471.63689
471.63674
471.63668
471.63666
471.63665
471.63666
471.63669
471.63674
471.6368
471.63688
471.63698
471.63681
471.63676
471.63674
471.63674
471.63675
471.63678
471.63683
471.63689
471.63698
471.63708
479.14203
479.14195
479.14192
479.1419
479.1419
479.14192
479.14196
479.142
479.14206
479.14213
479.14195
479.14188
479.14185
479.14184
479.14184
479.14186
479.14189
479.14194
479.14201
479.14209
479.14192
479.14185
479.14182
479.14181
479.14181
479.14183
479.14187
479.14192
479.14199
479.14207
479.1419
479.14184
479.14181
479.1418
479.1418
479.14182
479.14186
479.14191
479.14198
479.14207
479.1419
479.14184
479.14181
479.1418
479.14181
479.14183
479.14187
479.14192
479.14199
479.14208
479.14192
479.14186
479.14183
479.14182
479.14183
479.14185
479.14189
479.14195
479.14202
479.14211
479.14196
479.14189
479.14187
479.14186
479.14187
479.14189
479.14193
479.14199
479.14206
479.14215
479.142
479.14194
479.14192
479.14191
479.14192
479.14195
479.14199
479.14205
479.14212
479.14221
479.14206
479.14201
479.14199
479.14198
479.14199
479.14202
479.14206
479.14212
479.1422
479.14229
479.14213
479.14209
479.14207
479.14207
479.14208
479.14211
479.14215
479.14221
479.14229
479.14239
486.64802
486.64794
486.64791
486.6479
486.6479
486.64792
486.64795
486.648
486.64805
486.64812
486.64794
486.64788
486.64785
486.64784
486.64784
486.64786
486.64789
486.64794
486.648
486.64808
486.64791
486.64785
486.64782
486.64781
486.64782
486.64784
486.64787
486.64792
486.64798
486.64806
486.6479
486.64784
486.64781
486.6478
486.64781
486.64783
486.64786
486.64791
486.64798
486.64806
486.6479
486.64784
486.64782
486.64781
486.64781
486.64783
486.64787
486.64792
486.64799
486.64807
486.64792
486.64786
486.64784
486.64783
486.64783
486.64786
486.6479
486.64795
486.64802
486.6481
486.64795
486.64789
486.64787
486.64786
486.64787
486.6479
486.64793
486.64799
486.64806
486.64814
486.648
486.64794
486.64792
486.64791
486.64792
486.64795
486.64799
486.64804
486.64812
486.6482
486.64805
486.648
486.64798
486.64798
486.64799
486.64802
486.64806
486.64812
486.64819
486.64828
486.64812
486.64808
486.64806
486.64806
486.64807
486.6481
486.64814
486.6482
486.64828
486.64837
494.15464
494.15457
494.15454
494.15453
494.15453
494.15455
494.15458
494.15462
494.15467
494.15473
494.15457
494.15451
494.15448
494.15447
494.15447
494.15449
494.15452
494.15457
494.15462
494.1547
494.15454
494.15448
494.15446
494.15445
494.15445
494.15447
494.1545
494.15455
494.15461
494.15468
494.15453
494.15447
494.15445
494.15444
494.15444
494.15446
494.15449
494.15454
494.1546
494.15468
494.15453
494.15447
494.15445
494.15444
494.15445