/*--------------------------------*- C++ -*----------------------------------*\
| =========                 |                                                 |
| \\      /  F ield         | OpenFOAM: The Open Source CFD Toolbox           |
|  \\    /   O peration     | Version:  v2106                                 |
|   \\  /    A nd           | Website:  www.openfoam.com                      |
|    \\/     M anipulation  |                                                 |
\*---------------------------------------------------------------------------*/
FoamFile
{
    version     2.0;
    format      ascii;
    arch        "LSB;label=32;scalar=64";
    class       volVectorField;
    location    "0.5";
    object      U;
}
// * * * * * * * * * * * * * * * * * * * * * * * * * * * * * * * * * * * * * //

dimensions      [0 1 -1 0 0 0 0];

internalField   nonuniform List<vector> 
25
(
(-0.015602 0.0127033 0)
(-0.0497224 0.0154903 0)
(-0.0695857 0.00200846 0)
(-0.0533497 -0.013578 0)
(-0.0176487 -0.0135841 0)
(-0.0353099 0.0593567 0)
(-0.103474 0.0615551 0)
(-0.137048 0.00520317 0)
(-0.108271 -0.0581418 0)
(-0.0378128 -0.0651435 0)
(-0.0474447 0.144764 0)
(-0.130125 0.125886 0)
(-0.159672 0.00463991 0)
(-0.132032 -0.127875 0)
(-0.0459871 -0.16292 0)
(-0.0200883 0.237616 0)
(-0.0709872 0.169721 0)
(-0.0612299 0.00306668 0)
(-0.0587343 -0.170508 0)
(0.00212382 -0.250437 0)
(0.280031 0.142846 0)
(0.334204 0.100247 0)
(0.398029 0.0160588 0)
(0.350196 -0.0757662 0)
(0.299154 -0.135077 0)
)
;

boundaryField
{
    movingWall
    {
        type            fixedValue;
        value           uniform (1 0 0);
    }
    fixedWalls
    {
        type            fixedValue;
        value           uniform (0 0 0);
    }
    frontAndBack
    {
        type            empty;
    }
}


// ************************************************************************* //
