/*--------------------------------*- C++ -*----------------------------------*\
| =========                 |                                                 |
| \\      /  F ield         | OpenFOAM: The Open Source CFD Toolbox           |
|  \\    /   O peration     | Version:  v2106                                 |
|   \\  /    A nd           | Website:  www.openfoam.com                      |
|    \\/     M anipulation  |                                                 |
\*---------------------------------------------------------------------------*/
FoamFile
{
    version     2.0;
    format      ascii;
    arch        "LSB;label=32;scalar=64";
    class       volVectorField;
    location    "32.5";
    object      flux;
}
// * * * * * * * * * * * * * * * * * * * * * * * * * * * * * * * * * * * * * //

dimensions      [0 1 -1 1 0 0 0];

internalField   nonuniform List<vector> 
4000
(
(1.734929e-07 1.7349291e-07 0.79926513)
(-4.8629243e-07 -3.2371092e-07 0.79926603)
(-6.7206177e-07 -1.181065e-07 0.79926275)
(1.7343019e-07 -9.2512947e-08 0.79926304)
(1.6680018e-07 -9.3731043e-08 0.79926352)
(1.2641611e-07 -9.7241906e-08 0.79926387)
(1.2388317e-07 -1.0048269e-07 0.79926418)
(1.3818939e-07 -9.7317275e-08 0.79926452)
(1.2308527e-07 -7.4565992e-08 0.79926491)
(3.3468623e-08 -3.7715669e-08 0.79926514)
(-3.2371092e-07 -4.8629243e-07 0.79926603)
(-9.2369153e-07 -9.2369153e-07 0.79926409)
(-3.2526482e-07 -5.6473269e-07 0.79926205)
(2.0999338e-07 -5.2123031e-07 0.79926251)
(1.5970674e-07 -5.2574325e-07 0.79926299)
(1.1628864e-07 -5.3772995e-07 0.79926331)
(1.2377012e-07 -5.5336618e-07 0.79926359)
(1.7706444e-07 -5.5799336e-07 0.79926396)
(2.1248768e-07 -5.0726175e-07 0.79926455)
(7.0318946e-08 -3.7086222e-07 0.79926502)
(-1.181065e-07 -6.7206177e-07 0.79926275)
(-5.6473269e-07 -3.2526482e-07 0.79926205)
(-2.6960056e-07 -2.6960055e-07 0.79926026)
(2.1241964e-07 -2.649443e-07 0.79926076)
(1.5030055e-07 -2.7109997e-07 0.79926122)
(9.8793187e-08 -2.8475144e-07 0.79926151)
(1.0361975e-07 -3.0745657e-07 0.79926173)
(1.8429382e-07 -3.3631434e-07 0.79926206)
(3.1021642e-07 -3.4788969e-07 0.79926275)
(1.2440165e-07 -2.976505e-07 0.79926362)
(-9.2512951e-08 1.734302e-07 0.79926304)
(-5.2123031e-07 2.0999337e-07 0.79926251)
(-2.649443e-07 2.1241965e-07 0.79926076)
(2.0849396e-07 2.0849396e-07 0.79926126)
(1.398996e-07 2.0031209e-07 0.79926171)
(7.9932038e-08 1.8705577e-07 0.79926196)
(7.220722e-08 1.6667407e-07 0.79926212)
(1.3663132e-07 1.3584607e-07 0.79926234)
(2.5115152e-07 9.3339473e-08 0.7992629)
(1.0381174e-07 4.8069231e-08 0.79926363)
(-9.3731043e-08 1.6680017e-07 0.79926352)
(-5.2574324e-07 1.5970674e-07 0.79926299)
(-2.7109997e-07 1.5030054e-07 0.79926122)
(2.0031208e-07 1.398996e-07 0.79926171)
(1.2886235e-07 1.2886235e-07 0.79926213)
(6.5155171e-08 1.1658082e-07 0.79926234)
(5.2410062e-08 1.0233852e-07 0.79926246)
(1.1095921e-07 8.5315074e-08 0.79926263)
(2.2243958e-07 6.5653942e-08 0.7992631)
(9.4221485e-08 4.7283577e-08 0.79926376)
(-9.7241907e-08 1.2641611e-07 0.79926387)
(-5.3772995e-07 1.1628864e-07 0.79926331)
(-2.8475144e-07 9.8793177e-08 0.79926151)
(1.8705577e-07 7.9932037e-08 0.79926196)
(1.1658082e-07 6.5155175e-08 0.79926234)
(5.3408206e-08 5.3408212e-08 0.79926253)
(4.0941472e-08 4.3796249e-08 0.79926261)
(9.9946748e-08 3.6102854e-08 0.79926275)
(2.1312002e-07 3.0388375e-08 0.7992632)
(9.1564829e-08 2.712962e-08 0.79926384)
(-1.0048269e-07 1.2388317e-07 0.79926418)
(-5.5336618e-07 1.2377012e-07 0.79926359)
(-3.0745657e-07 1.0361975e-07 0.79926173)
(1.6667408e-07 7.2207223e-08 0.79926212)
(1.0233853e-07 5.2410063e-08 0.79926246)
(4.3796245e-08 4.0941471e-08 0.79926261)
(3.5104704e-08 3.5104709e-08 0.79926268)
(9.755134e-08 3.4203576e-08 0.7992628)
(2.1346634e-07 3.751009e-08 0.79926325)
(9.2048982e-08 4.2859948e-08 0.7992639)
(-9.7317274e-08 1.3818939e-07 0.79926452)
(-5.5799336e-07 1.7706445e-07 0.79926396)
(-3.3631434e-07 1.8429382e-07 0.79926206)
(1.3584608e-07 1.3663133e-07 0.79926234)
(8.5315073e-08 1.1095921e-07 0.79926263)
(3.6102851e-08 9.9946749e-08 0.79926275)
(3.4203577e-08 9.7551343e-08 0.7992628)
(1.0235213e-07 1.0235213e-07 0.79926294)
(2.217764e-07 1.1305082e-07 0.79926341)
(9.51314e-08 1.2557109e-07 0.79926408)
(-7.4565991e-08 1.2308528e-07 0.79926491)
(-5.0726175e-07 2.1248769e-07 0.79926455)
(-3.4788969e-07 3.1021642e-07 0.79926275)
(9.3339478e-08 2.5115152e-07 0.7992629)
(6.5653948e-08 2.2243958e-07 0.7992631)
(3.0388375e-08 2.1312003e-07 0.7992632)
(3.7510084e-08 2.1346635e-07 0.79926325)
(1.1305081e-07 2.2177639e-07 0.79926341)
(2.3668531e-07 2.3668531e-07 0.79926392)
(1.0039583e-07 2.5157629e-07 0.79926463)
(-3.771567e-08 3.3468627e-08 0.79926514)
(-3.7086222e-07 7.0318948e-08 0.79926502)
(-2.9765051e-07 1.2440165e-07 0.79926362)
(4.8069232e-08 1.0381174e-07 0.79926363)
(4.728358e-08 9.4221484e-08 0.79926376)
(2.7129621e-08 9.1564827e-08 0.79926384)
(4.2859941e-08 9.2048981e-08 0.7992639)
(1.2557109e-07 9.5131398e-08 0.79926408)
(2.515763e-07 1.0039583e-07 0.79926463)
(1.0505872e-07 1.0505872e-07 0.79926537)
(3.7164126e-07 3.7164126e-07 1.1884284)
(-2.1285218e-06 -9.6716358e-07 1.1884286)
(-2.4670956e-06 -3.4536527e-07 1.1884256)
(6.4110601e-07 -2.5198527e-07 1.1884259)
(7.4282595e-07 -2.5423832e-07 1.1884265)
(6.0516979e-07 -2.7030428e-07 1.188427)
(6.0928542e-07 -2.8635314e-07 1.1884274)
(6.9095272e-07 -2.6628689e-07 1.1884279)
(5.5666425e-07 -1.348291e-07 1.1884286)
(1.2695674e-07 -8.9864799e-09 1.1884287)
(-9.6716358e-07 -2.1285218e-06 1.1884286)
(-3.2040316e-06 -3.2040316e-06 1.1884269)
(-1.3943282e-06 -2.046785e-06 1.1884248)
(7.7779642e-07 -1.8664425e-06 1.1884253)
(7.1534745e-07 -1.8783184e-06 1.1884259)
(5.5699757e-07 -1.9352519e-06 1.1884263)
(6.1531149e-07 -2.0130245e-06 1.1884267)
(9.1823878e-07 -2.0265571e-06 1.1884273)
(9.4261487e-07 -1.7260999e-06 1.1884284)
(2.5279936e-07 -1.161778e-06 1.1884289)
(-3.4536527e-07 -2.4670956e-06 1.1884256)
(-2.046785e-06 -1.3943282e-06 1.1884248)
(-1.1295065e-06 -1.1295065e-06 1.1884231)
(8.0957257e-07 -1.0845909e-06 1.1884236)
(6.7401656e-07 -1.1088479e-06 1.1884241)
(4.7046373e-07 -1.1760051e-06 1.1884245)
(5.1798015e-07 -1.2888315e-06 1.1884248)
(9.7787736e-07 -1.4264523e-06 1.1884253)
(1.4214434e-06 -1.4449085e-06 1.1884265)
(5.031713e-07 -1.1850676e-06 1.1884276)
(-2.5198527e-07 6.4110601e-07 1.1884259)
(-1.8664425e-06 7.7779642e-07 1.1884253)
(-1.0845909e-06 8.0957257e-07 1.1884236)
(7.9845502e-07 7.9845503e-07 1.1884241)
(6.2393324e-07 7.5955034e-07 1.1884247)
(3.7701403e-07 6.9388395e-07 1.188425)
(3.6486432e-07 5.9278158e-07 1.1884252)
(7.621618e-07 4.425082e-07 1.1884255)
(1.1839995e-06 2.5170817e-07 1.1884266)
(4.2602659e-07 6.7209929e-08 1.1884275)
(-2.5423833e-07 7.4282596e-07 1.1884265)
(-1.8783184e-06 7.1534745e-07 1.1884259)
(-1.1088479e-06 6.7401656e-07 1.1884241)
(7.5955034e-07 6.2393323e-07 1.1884247)
(5.6944548e-07 5.6944548e-07 1.1884252)
(3.0369497e-07 5.0869925e-07 1.1884254)
(2.6660439e-07 4.3816562e-07 1.1884256)
(6.3680395e-07 3.5368944e-07 1.1884258)
(1.0461451e-06 2.5800299e-07 1.1884268)
(3.8017248e-07 1.6824272e-07 1.1884276)
(-2.7030428e-07 6.0516978e-07 1.188427)
(-1.9352519e-06 5.5699757e-07 1.1884263)
(-1.1760051e-06 4.7046373e-07 1.1884245)
(6.9388394e-07 3.7701402e-07 1.188425)
(5.0869926e-07 3.0369497e-07 1.1884254)
(2.4573417e-07 2.4573416e-07 1.1884257)
(2.098545e-07 1.9868745e-07 1.1884257)
(5.8199917e-07 1.6118457e-07 1.1884259)
(9.9855279e-07 1.3364887e-07 1.1884269)
(3.6618641e-07 1.1744965e-07 1.1884276)
(-2.8635313e-07 6.0928541e-07 1.1884274)
(-2.0130245e-06 6.1531149e-07 1.1884267)
(-1.2888315e-06 5.1798015e-07 1.1884248)
(5.9278158e-07 3.6486432e-07 1.1884252)
(4.3816562e-07 2.666044e-07 1.1884256)
(1.9868745e-07 2.0985451e-07 1.1884257)
(1.820548e-07 1.8205481e-07 1.1884258)
(5.7176538e-07 1.797645e-07 1.188426)
(1.0024102e-06 1.9971158e-07 1.1884269)
(3.6937299e-07 2.3193137e-07 1.1884277)
(-2.6628689e-07 6.9095273e-07 1.1884279)
(-2.0265571e-06 9.1823878e-07 1.1884273)
(-1.4264523e-06 9.7787736e-07 1.1884253)
(4.4250819e-07 7.6216181e-07 1.1884255)
(3.5368945e-07 6.3680396e-07 1.1884258)
(1.6118458e-07 5.8199918e-07 1.1884259)
(1.797645e-07 5.7176539e-07 1.188426)
(5.9965594e-07 5.9965596e-07 1.1884262)
(1.0507197e-06 6.5921269e-07 1.1884272)
(3.8766627e-07 7.2996061e-07 1.188428)
(-1.348291e-07 5.5666426e-07 1.1884286)
(-1.7260999e-06 9.4261487e-07 1.1884284)
(-1.4449085e-06 1.4214434e-06 1.1884265)
(2.5170818e-07 1.1839995e-06 1.1884266)
(2.5800299e-07 1.0461451e-06 1.1884268)
(1.3364888e-07 9.9855279e-07 1.1884269)
(1.9971158e-07 1.0024102e-06 1.1884269)
(6.5921268e-07 1.0507197e-06 1.1884272)
(1.1327148e-06 1.1327149e-06 1.1884282)
(4.1653827e-07 1.1852282e-06 1.1884292)
(-8.9864826e-09 1.2695674e-07 1.1884287)
(-1.161778e-06 2.5279935e-07 1.1884289)
(-1.1850676e-06 5.031713e-07 1.1884276)
(6.7209935e-08 4.2602659e-07 1.1884275)
(1.6824272e-07 3.8017247e-07 1.1884276)
(1.1744965e-07 3.6618641e-07 1.1884276)
(2.3193137e-07 3.6937299e-07 1.1884277)
(7.2996061e-07 3.8766627e-07 1.188428)
(1.1852282e-06 4.1653828e-07 1.1884292)
(4.226752e-07 4.226752e-07 1.1884299)
(2.96484e-07 2.96484e-07 1.1870765)
(-3.2875614e-06 -1.4694755e-06 1.1870764)
(-3.351659e-06 -6.381939e-07 1.1870746)
(1.0739333e-06 -5.0860191e-07 1.1870749)
(1.231307e-06 -5.1422325e-07 1.1870754)
(1.0246942e-06 -5.4609236e-07 1.1870758)
(1.0851034e-06 -5.8319294e-07 1.1870762)
(1.3415154e-06 -5.4681856e-07 1.1870767)
(9.0292229e-07 -2.2617083e-07 1.1870776)
(1.065454e-07 9.7571449e-08 1.1870777)
(-1.4694755e-06 -3.2875614e-06 1.1870764)
(-4.6895782e-06 -4.6895782e-06 1.1870752)
(-1.9103487e-06 -3.1144387e-06 1.1870739)
(1.2598893e-06 -2.8557094e-06 1.1870743)
(1.1750713e-06 -2.8802299e-06 1.1870748)
(9.2123965e-07 -2.9897468e-06 1.1870752)
(1.0840141e-06 -3.1517019e-06 1.1870754)
(1.8770485e-06 -3.2010274e-06 1.187076)
(1.8695073e-06 -2.5663961e-06 1.1870774)
(4.3028768e-07 -1.4937219e-06 1.187078)
(-6.381939e-07 -3.351659e-06 1.1870746)
(-3.1144387e-06 -1.9103487e-06 1.1870739)
(-1.5177903e-06 -1.5177903e-06 1.1870728)
(1.3081421e-06 -1.4462199e-06 1.1870732)
(1.0972696e-06 -1.4912615e-06 1.1870737)
(7.5322211e-07 -1.6152229e-06 1.187074)
(8.7382281e-07 -1.8282965e-06 1.1870742)
(1.9268213e-06 -2.0999269e-06 1.1870746)
(2.6102278e-06 -2.1497964e-06 1.1870761)
(8.2166152e-07 -1.7426602e-06 1.1870771)
(-5.0860191e-07 1.0739333e-06 1.1870749)
(-2.8557094e-06 1.2598892e-06 1.1870743)
(-1.4462199e-06 1.3081421e-06 1.1870732)
(1.286418e-06 1.286418e-06 1.1870737)
(1.0060684e-06 1.2152802e-06 1.1870742)
(5.8420466e-07 1.0964522e-06 1.1870744)
(5.9931003e-07 9.1451374e-07 1.1870745)
(1.5555487e-06 6.4694431e-07 1.1870748)
(2.2267741e-06 3.2465733e-07 1.1870761)
(7.0171182e-07 2.94093e-08 1.187077)
(-5.1422326e-07 1.231307e-06 1.1870754)
(-2.8802299e-06 1.1750713e-06 1.1870748)
(-1.4912615e-06 1.0972696e-06 1.1870737)
(1.2152802e-06 1.0060684e-06 1.1870742)
(9.073038e-07 9.0730381e-07 1.1870746)
(4.5245563e-07 7.9793711e-07 1.1870748)
(4.2431494e-07 6.7201838e-07 1.1870748)
(1.3369649e-06 5.2274289e-07 1.187075)
(1.9926928e-06 3.5846413e-07 1.1870763)
(6.248295e-07 2.0771092e-07 1.1870771)
(-5.4609236e-07 1.0246942e-06 1.1870758)
(-2.9897468e-06 9.2123966e-07 1.1870752)
(-1.6152229e-06 7.5322211e-07 1.187074)
(1.0964522e-06 5.8420466e-07 1.1870744)
(7.9793711e-07 4.5245563e-07 1.1870748)
(3.4891924e-07 3.4891924e-07 1.1870749)
(3.2411581e-07 2.6651317e-07 1.1870749)
(1.2419944e-06 2.0346828e-07 1.187075)
(1.9117421e-06 1.6155172e-07 1.1870763)
(6.0120968e-07 1.4166262e-07 1.187077)
(-5.8319293e-07 1.0851034e-06 1.1870762)
(-3.1517019e-06 1.0840141e-06 1.1870754)
(-1.8282965e-06 8.7382282e-07 1.1870742)
(9.1451374e-07 5.9931004e-07 1.1870745)
(6.7201838e-07 4.2431494e-07 1.1870748)
(2.6651317e-07 3.2411582e-07 1.1870749)
(2.7886398e-07 2.7886397e-07 1.1870748)
(1.2320034e-06 2.8492608e-07 1.187075)
(1.9308872e-06 3.3893976e-07 1.1870762)
(6.115701e-07 4.2384946e-07 1.187077)
(-5.4681856e-07 1.3415154e-06 1.1870767)
(-3.2010274e-06 1.8770485e-06 1.187076)
(-2.0999269e-06 1.9268213e-06 1.1870746)
(6.469443e-07 1.5555487e-06 1.1870748)
(5.2274289e-07 1.3369649e-06 1.187075)
(2.0346827e-07 1.2419944e-06 1.187075)
(2.8492607e-07 1.2320034e-06 1.187075)
(1.3020702e-06 1.3020702e-06 1.1870752)
(2.0506655e-06 1.443096e-06 1.1870765)
(6.5781615e-07 1.6048652e-06 1.1870774)
(-2.2617083e-07 9.029223e-07 1.1870776)
(-2.566396e-06 1.8695073e-06 1.1870774)
(-2.1497964e-06 2.6102278e-06 1.1870761)
(3.2465733e-07 2.2267741e-06 1.1870761)
(3.5846412e-07 1.9926928e-06 1.1870763)
(1.6155171e-07 1.9117421e-06 1.1870763)
(3.3893976e-07 1.9308872e-06 1.1870762)
(1.443096e-06 2.0506655e-06 1.1870765)
(2.2336822e-06 2.2336822e-06 1.187078)
(7.1941625e-07 2.0880504e-06 1.187079)
(9.7571446e-08 1.065454e-07 1.1870777)
(-1.4937219e-06 4.3028768e-07 1.187078)
(-1.7426602e-06 8.2166152e-07 1.1870771)
(2.9409307e-08 7.0171181e-07 1.187077)
(2.0771093e-07 6.248295e-07 1.1870771)
(1.4166262e-07 6.0120968e-07 1.187077)
(4.2384946e-07 6.1157011e-07 1.187077)
(1.6048652e-06 6.5781615e-07 1.1870774)
(2.0880504e-06 7.1941626e-07 1.187079)
(5.6072828e-07 5.6072828e-07 1.1870793)
(3.1328844e-07 3.1328845e-07 1.1849818)
(-4.0836867e-06 -1.8070731e-06 1.1849819)
(-3.9870258e-06 -8.001638e-07 1.1849804)
(1.5064636e-06 -6.4484494e-07 1.1849808)
(1.6583314e-06 -6.5672364e-07 1.1849812)
(1.367424e-06 -7.0776016e-07 1.1849816)
(1.5185043e-06 -7.7601174e-07 1.1849818)
(2.1343292e-06 -7.4772722e-07 1.1849823)
(1.5491865e-06 -2.6570696e-07 1.1849833)
(1.8959918e-07 1.9717305e-07 1.1849836)
(-1.8070731e-06 -4.0836867e-06 1.1849819)
(-5.753865e-06 -5.753865e-06 1.184981)
(-2.2436836e-06 -3.8398603e-06 1.18498)
(1.7216239e-06 -3.5292351e-06 1.1849804)
(1.5639585e-06 -3.5745954e-06 1.1849809)
(1.1884919e-06 -3.7440303e-06 1.1849811)
(1.4585538e-06 -4.0088321e-06 1.1849813)
(2.8997863e-06 -4.1360675e-06 1.1849817)
(2.9665369e-06 -3.206893e-06 1.1849832)
(6.5247919e-07 -1.7283133e-06 1.1849839)
(-8.0016381e-07 -3.9870258e-06 1.1849804)
(-3.8398603e-06 -2.2436836e-06 1.18498)
(-1.762396e-06 -1.762396e-06 1.1849791)
(1.7717285e-06 -1.6803499e-06 1.1849795)
(1.4435362e-06 -1.7525549e-06 1.18498)
(9.3318726e-07 -1.9368494e-06 1.1849802)
(1.1264672e-06 -2.2543591e-06 1.1849802)
(2.9362683e-06 -2.6646493e-06 1.1849805)
(3.9569407e-06 -2.7352023e-06 1.1849821)
(1.1753189e-06 -2.1815242e-06 1.1849832)
(-6.4484494e-07 1.5064636e-06 1.1849808)
(-3.5292351e-06 1.7216239e-06 1.1849804)
(-1.6803499e-06 1.7717285e-06 1.1849795)
(1.731465e-06 1.731465e-06 1.18498)
(1.307459e-06 1.6241862e-06 1.1849804)
(6.8668771e-07 1.4503919e-06 1.1849805)
(7.3075388e-07 1.1870471e-06 1.1849805)
(2.4189431e-06 8.0422637e-07 1.1849807)
(3.449662e-06 3.6322763e-07 1.1849821)
(1.021598e-06 -2.2632301e-08 1.1849831)
(-6.5672364e-07 1.6583314e-06 1.1849812)
(-3.5745954e-06 1.5639585e-06 1.1849809)
(-1.7525549e-06 1.4435362e-06 1.18498)
(1.6241862e-06 1.307459e-06 1.1849804)
(1.1624631e-06 1.1624631e-06 1.1849807)
(4.9604814e-07 1.0040286e-06 1.1849808)
(4.8030164e-07 8.2368365e-07 1.1849807)
(2.1124488e-06 6.1255958e-07 1.1849808)
(3.130082e-06 3.8684693e-07 1.1849822)
(9.1807898e-07 1.8497533e-07 1.184983)
(-7.0776016e-07 1.367424e-06 1.1849816)
(-3.7440303e-06 1.1884919e-06 1.1849811)
(-1.9368494e-06 9.3318726e-07 1.1849802)
(1.4503919e-06 6.8668771e-07 1.1849805)
(1.0040286e-06 4.9604814e-07 1.1849808)
(3.4790822e-07 3.4790822e-07 1.1849809)
(3.3928486e-07 2.3302498e-07 1.1849807)
(1.9821063e-06 1.5011056e-07 1.1849808)
(3.0220778e-06 1.0325707e-07 1.1849821)
(8.8701688e-07 9.0672318e-08 1.184983)
(-7.7601174e-07 1.5185043e-06 1.1849818)
(-4.0088321e-06 1.4585538e-06 1.1849813)
(-2.2543591e-06 1.1264672e-06 1.1849802)
(1.1870471e-06 7.3075388e-07 1.1849805)
(8.2368365e-07 4.8030163e-07 1.1849807)
(2.3302497e-07 3.3928486e-07 1.1849807)
(2.8250398e-07 2.8250398e-07 1.1849806)
(1.9826809e-06 3.0958205e-07 1.1849806)
(3.0706437e-06 4.2153343e-07 1.184982)
(9.0968915e-07 5.9330872e-07 1.1849829)
(-7.4772721e-07 2.1343292e-06 1.1849823)
(-4.1360675e-06 2.8997863e-06 1.1849817)
(-2.6646493e-06 2.9362683e-06 1.1849805)
(8.0422636e-07 2.4189431e-06 1.1849807)
(6.1255957e-07 2.1124488e-06 1.1849808)
(1.5011056e-07 1.9821063e-06 1.1849808)
(3.0958204e-07 1.9826809e-06 1.1849806)
(2.1211358e-06 2.1211358e-06 1.1849807)
(3.3058044e-06 2.3995383e-06 1.1849822)
(1.0015337e-06 2.7265456e-06 1.1849832)
(-2.6570696e-07 1.5491865e-06 1.1849833)
(-3.206893e-06 2.9665369e-06 1.1849832)
(-2.7352023e-06 3.9569407e-06 1.1849821)
(3.6322764e-07 3.449662e-06 1.1849821)
(3.8684693e-07 3.130082e-06 1.1849822)
(1.0325706e-07 3.0220778e-06 1.1849821)
(4.2153344e-07 3.0706437e-06 1.184982)
(2.3995383e-06 3.3058045e-06 1.1849822)
(3.6760536e-06 3.6760536e-06 1.1849838)
(1.1276941e-06 3.0839565e-06 1.1849851)
(1.9717305e-07 1.8959918e-07 1.1849836)
(-1.7283133e-06 6.5247919e-07 1.1849839)
(-2.1815242e-06 1.1753189e-06 1.1849832)
(-2.2632295e-08 1.021598e-06 1.1849831)
(1.8497533e-07 9.1807898e-07 1.184983)
(9.0672316e-08 8.8701688e-07 1.184983)
(5.9330872e-07 9.0968914e-07 1.1849829)
(2.7265456e-06 1.0015337e-06 1.1849832)
(3.0839565e-06 1.1276941e-06 1.1849851)
(6.068023e-07 6.068023e-07 1.1849852)
(3.5806116e-07 3.5806116e-07 1.1821693)
(-4.7491979e-06 -2.0886632e-06 1.1821695)
(-4.5191723e-06 -9.1459569e-07 1.1821681)
(1.9357536e-06 -7.3722755e-07 1.1821685)
(2.0297095e-06 -7.5682131e-07 1.1821689)
(1.6156451e-06 -8.2814716e-07 1.1821692)
(1.8284044e-06 -9.3020567e-07 1.1821694)
(2.830391e-06 -9.1647211e-07 1.1821697)
(2.1928773e-06 -2.8136743e-07 1.1821706)
(2.9087899e-07 2.9567869e-07 1.1821709)
(-2.0886632e-06 -4.7491979e-06 1.1821695)
(-6.6581831e-06 -6.6581831e-06 1.1821687)
(-2.4920189e-06 -4.4280547e-06 1.1821678)
(2.1724151e-06 -4.0767628e-06 1.1821683)
(1.89333e-06 -4.1479876e-06 1.1821687)
(1.3555686e-06 -4.3806382e-06 1.1821689)
(1.695917e-06 -4.7538678e-06 1.1821689)
(3.8036483e-06 -4.9704007e-06 1.1821692)
(4.0111035e-06 -3.7576211e-06 1.1821706)
(8.6792512e-07 -1.9214661e-06 1.1821712)
(-9.1459569e-07 -4.5191723e-06 1.1821681)
(-4.4280547e-06 -2.4920189e-06 1.1821678)
(-1.9377521e-06 -1.9377521e-06 1.182167)
(2.2158206e-06 -1.85487e-06 1.1821675)
(1.725834e-06 -1.9593162e-06 1.1821679)
(1.0097649e-06 -2.20674e-06 1.182168)
(1.2386419e-06 -2.6308344e-06 1.1821679)
(3.8266377e-06 -3.1808781e-06 1.1821681)
(5.2418119e-06 -3.2660746e-06 1.1821696)
(1.5149823e-06 -2.5716784e-06 1.1821706)
(-7.3722754e-07 1.9357536e-06 1.1821685)
(-4.0767628e-06 2.1724151e-06 1.1821683)
(-1.85487e-06 2.2158206e-06 1.1821675)
(2.150851e-06 2.150851e-06 1.182168)
(1.5414601e-06 2.0038521e-06 1.1821683)
(6.8405034e-07 1.773358e-06 1.1821684)
(7.2177889e-07 1.4281559e-06 1.1821682)
(3.1684082e-06 9.3164405e-07 1.1821682)
(4.6203032e-06 3.7921623e-07 1.1821696)
(1.3308559e-06 -8.8551312e-08 1.1821705)
(-7.568213e-07 2.0297095e-06 1.1821689)
(-4.1479876e-06 1.89333e-06 1.1821687)
(-1.9593162e-06 1.725834e-06 1.1821679)
(2.0038521e-06 1.5414601e-06 1.1821683)
(1.348341e-06 1.348341e-06 1.1821686)
(4.3406884e-07 1.1404028e-06 1.1821686)
(3.9692794e-07 9.0651483e-07 1.1821684)
(2.777698e-06 6.3599203e-07 1.1821683)
(4.2216165e-06 3.5383047e-07 1.1821696)
(1.2031373e-06 1.0668189e-07 1.1821704)
(-8.2814715e-07 1.6156451e-06 1.1821692)
(-4.3806382e-06 1.3555686e-06 1.1821689)
(-2.20674e-06 1.009765e-06 1.182168)
(1.773358e-06 6.8405034e-07 1.1821684)
(1.1404028e-06 4.3406884e-07 1.1821686)
(2.4222422e-07 2.4222422e-07 1.1821686)
(2.173681e-07 9.7295444e-08 1.1821683)
(2.6157238e-06 -1.1787477e-09 1.1821682)
(4.0909931e-06 -4.6537571e-08 1.1821695)
(1.1660902e-06 -4.5030845e-08 1.1821702)
(-9.3020567e-07 1.8284044e-06 1.1821694)
(-4.7538678e-06 1.695917e-06 1.1821689)
(-2.6308344e-06 1.2386418e-06 1.1821679)
(1.4281559e-06 7.217789e-07 1.1821682)
(9.0651484e-07 3.9692794e-07 1.1821684)
(9.729544e-08 2.173681e-07 1.1821683)
(1.5352498e-07 1.5352498e-07 1.182168)
(2.633865e-06 2.1016763e-07 1.1821679)
(4.1777644e-06 3.9549416e-07 1.1821692)
(1.2041417e-06 6.7691352e-07 1.1821701)
(-9.1647211e-07 2.830391e-06 1.1821697)
(-4.9704007e-06 3.8036483e-06 1.1821692)
(-3.180878e-06 3.8266377e-06 1.1821681)
(9.3164405e-07 3.1684082e-06 1.1821682)
(6.3599203e-07 2.777698e-06 1.1821683)
(-1.1787498e-09 2.6157238e-06 1.1821682)
(2.1016763e-07 2.633865e-06 1.1821679)
(2.857693e-06 2.857693e-06 1.1821679)
(4.5577389e-06 3.3131734e-06 1.1821693)
(1.3537031e-06 3.8743248e-06 1.1821703)
(-2.8136743e-07 2.1928773e-06 1.1821706)
(-3.7576211e-06 4.0111035e-06 1.1821706)
(-3.2660746e-06 5.2418119e-06 1.1821696)
(3.7921623e-07 4.6203032e-06 1.1821696)
(3.5383047e-07 4.2216165e-06 1.1821696)
(-4.6537575e-08 4.090993e-06 1.1821695)
(3.9549415e-07 4.1777644e-06 1.1821692)
(3.3131734e-06 4.5577389e-06 1.1821693)
(5.1943962e-06 5.1943962e-06 1.1821709)
(1.5782427e-06 4.1233898e-06 1.1821723)
(2.9567868e-07 2.90879e-07 1.1821709)
(-1.9214661e-06 8.6792511e-07 1.1821712)
(-2.5716784e-06 1.5149823e-06 1.1821706)
(-8.8551319e-08 1.3308559e-06 1.1821705)
(1.0668188e-07 1.2031373e-06 1.1821704)
(-4.5030845e-08 1.1660902e-06 1.1821702)
(6.7691352e-07 1.2041417e-06 1.1821701)
(3.8743248e-06 1.3537031e-06 1.1821703)
(4.1233898e-06 1.5782427e-06 1.1821723)
(6.3969877e-07 6.3969877e-07 1.1821724)
(4.1366619e-07 4.136662e-07 1.1786674)
(-5.3294409e-06 -2.3367603e-06 1.1786676)
(-4.9715695e-06 -1.0025627e-06 1.1786664)
(2.3604408e-06 -8.0536594e-07 1.1786668)
(2.3515261e-06 -8.3350472e-07 1.1786672)
(1.7772825e-06 -9.2560381e-07 1.1786674)
(2.0185824e-06 -1.0624633e-06 1.1786675)
(3.3969738e-06 -1.0663598e-06 1.1786677)
(2.7563932e-06 -2.8485148e-07 1.1786685)
(3.8011653e-07 3.9674364e-07 1.1786687)
(-2.3367603e-06 -5.3294409e-06 1.1786676)
(-7.453784e-06 -7.453784e-06 1.1786669)
(-2.6744782e-06 -4.9237314e-06 1.1786661)
(2.6140278e-06 -4.5383756e-06 1.1786666)
(2.1711693e-06 -4.6385464e-06 1.178667)
(1.4338446e-06 -4.936203e-06 1.1786671)
(1.8074484e-06 -5.4202998e-06 1.1786671)
(4.5633915e-06 -5.732334e-06 1.1786673)
(4.9510484e-06 -4.249429e-06 1.1786685)
(1.0617117e-06 -2.0811275e-06 1.178669)
(-1.0025627e-06 -4.9715695e-06 1.1786664)
(-4.9237314e-06 -2.6744782e-06 1.1786661)
(-2.0561612e-06 -2.0561612e-06 1.1786655)
(2.6456258e-06 -1.9782273e-06 1.178666)
(1.9536986e-06 -2.1183312e-06 1.1786663)
(9.955292e-07 -2.4307881e-06 1.1786664)
(1.2224514e-06 -2.9627243e-06 1.1786662)
(4.5678445e-06 -3.6537418e-06 1.1786662)
(6.4075997e-06 -3.7552647e-06 1.1786675)
(1.8256508e-06 -2.9297638e-06 1.1786684)
(-8.0536594e-07 2.3604408e-06 1.1786668)
(-4.5383756e-06 2.6140278e-06 1.1786666)
(-1.9782273e-06 2.6456258e-06 1.178666)
(2.5518578e-06 2.5518578e-06 1.1786664)
(1.7186085e-06 2.3625637e-06 1.1786668)
(5.894515e-07 2.0741366e-06 1.1786667)
(5.8449463e-07 1.646904e-06 1.1786665)
(3.770851e-06 1.0377843e-06 1.1786664)
(5.6750264e-06 3.7728813e-07 1.1786675)
(1.6120456e-06 -1.6919856e-07 1.1786683)
(-8.3350472e-07 2.3515261e-06 1.1786672)
(-4.6385464e-06 2.1711693e-06 1.178667)
(-2.1183312e-06 1.9536986e-06 1.1786663)
(2.3625637e-06 1.7186085e-06 1.1786668)
(1.4759774e-06 1.4759774e-06 1.178667)
(2.7986951e-07 1.2182588e-06 1.178667)
(1.8609916e-07 9.3157888e-07 1.1786666)
(3.2982287e-06 6.0344942e-07 1.1786664)
(5.2006168e-06 2.6784164e-07 1.1786675)
(1.4613264e-06 -2.1634332e-08 1.1786682)
(-9.2560381e-07 1.7772825e-06 1.1786674)
(-4.936203e-06 1.4338446e-06 1.1786671)
(-2.4307881e-06 9.9552919e-07 1.1786664)
(2.0741366e-06 5.894515e-07 1.1786667)
(1.2182588e-06 2.798695e-07 1.178667)
(4.5052971e-08 4.5052962e-08 1.1786668)
(-3.0314743e-08 -1.2814351e-07 1.1786665)
(3.1071138e-06 -2.3935146e-07 1.1786662)
(5.0499427e-06 -2.7957831e-07 1.1786673)
(1.4190617e-06 -2.6092492e-07 1.178668)
(-1.0624633e-06 2.0185824e-06 1.1786675)
(-5.4202998e-06 1.8074484e-06 1.1786671)
(-2.9627242e-06 1.2224514e-06 1.1786662)
(1.646904e-06 5.8449463e-07 1.1786665)
(9.3157887e-07 1.8609918e-07 1.1786666)
(-1.281435e-07 -3.0314736e-08 1.1786665)
(-9.830526e-08 -9.8305258e-08 1.1786661)
(3.1467939e-06 -7.2915365e-09 1.1786659)
(5.1790433e-06 2.5896121e-07 1.178667)
(1.473762e-06 6.5977532e-07 1.1786677)
(-1.0663598e-06 3.3969738e-06 1.1786677)
(-5.732334e-06 4.5633915e-06 1.1786673)
(-3.6537418e-06 4.5678445e-06 1.1786662)
(1.0377843e-06 3.770851e-06 1.1786664)
(6.0344943e-07 3.2982287e-06 1.1786664)
(-2.3935147e-07 3.1071138e-06 1.1786662)
(-7.291544e-09 3.1467939e-06 1.1786659)
(3.4643803e-06 3.4643803e-06 1.1786657)
(5.7170095e-06 4.1156044e-06 1.1786669)
(1.6862711e-06 4.9434711e-06 1.1786679)
(-2.8485148e-07 2.7563932e-06 1.1786685)
(-4.249429e-06 4.9510484e-06 1.1786685)
(-3.7552647e-06 6.4075997e-06 1.1786675)
(3.7728813e-07 5.6750264e-06 1.1786675)
(2.6784164e-07 5.2006168e-06 1.1786675)
(-2.7957831e-07 5.0499427e-06 1.1786673)
(2.589612e-07 5.1790433e-06 1.178667)
(4.1156044e-06 5.7170095e-06 1.1786669)
(6.6581342e-06 6.6581342e-06 1.1786685)
(2.0256731e-06 5.1298184e-06 1.1786698)
(3.9674365e-07 3.8011653e-07 1.1786687)
(-2.0811275e-06 1.0617117e-06 1.178669)
(-2.9297638e-06 1.8256508e-06 1.1786684)
(-1.6919855e-07 1.6120456e-06 1.1786683)
(-2.1634328e-08 1.4613264e-06 1.1786682)
(-2.6092491e-07 1.4190617e-06 1.178668)
(6.5977532e-07 1.473762e-06 1.1786677)
(4.9434711e-06 1.6862711e-06 1.1786679)
(5.1298184e-06 2.0256731e-06 1.1786698)
(6.6739376e-07 6.6739376e-07 1.1786698)
(4.8008778e-07 4.8008778e-07 1.1745091)
(-5.8239096e-06 -2.5516723e-06 1.1745093)
(-5.3454317e-06 -1.0654704e-06 1.1745082)
(2.779633e-06 -8.5043686e-07 1.1745086)
(2.6276916e-06 -8.8769351e-07 1.174509)
(1.8606821e-06 -1.0008297e-06 1.1745091)
(2.1000638e-06 -1.1730949e-06 1.1745091)
(3.8359265e-06 -1.1973407e-06 1.1745092)
(3.2231892e-06 -2.780205e-07 1.1745098)
(4.488747e-07 5.0089948e-07 1.17451)
(-2.5516723e-06 -5.8239096e-06 1.1745093)
(-8.1422467e-06 -8.1422467e-06 1.1745087)
(-2.7935787e-06 -5.3293847e-06 1.174508)
(3.0462984e-06 -4.915288e-06 1.1745085)
(2.4021024e-06 -5.0464696e-06 1.1745089)
(1.43258e-06 -5.4101265e-06 1.1745089)
(1.8052972e-06 -6.006456e-06 1.1745088)
(5.1785381e-06 -6.4195689e-06 1.1745088)
(5.7705496e-06 -4.6856468e-06 1.1745099)
(1.2277947e-06 -2.2081058e-06 1.1745103)
(-1.0654704e-06 -5.3454317e-06 1.1745082)
(-5.3293847e-06 -2.7935787e-06 1.174508)
(-2.1184731e-06 -2.1184731e-06 1.1745074)
(3.0625482e-06 -2.0495272e-06 1.1745079)
(2.1328531e-06 -2.2275416e-06 1.1745083)
(9.0069572e-07 -2.6061097e-06 1.1745083)
(1.0906214e-06 -3.2463594e-06 1.174508)
(5.1567356e-06 -4.0794323e-06 1.1745079)
(7.4346523e-06 -4.2029036e-06 1.174509)
(2.1005687e-06 -3.2581736e-06 1.1745098)
(-8.5043686e-07 2.779633e-06 1.1745086)
(-4.915288e-06 3.0462984e-06 1.1745085)
(-2.0495272e-06 3.0625482e-06 1.1745079)
(2.9372298e-06 2.9372298e-06 1.1745084)
(1.8455199e-06 2.7039399e-06 1.1745087)
(4.137622e-07 2.3568868e-06 1.1745086)
(3.3197451e-07 1.8478036e-06 1.1745083)
(4.2219938e-06 1.1270801e-06 1.174508)
(6.5918083e-06 3.6007455e-07 1.174509)
(1.8576148e-06 -2.6392543e-07 1.1745097)
(-8.8769352e-07 2.6276916e-06 1.174509)
(-5.0464696e-06 2.4021024e-06 1.1745089)
(-2.2275416e-06 2.1328531e-06 1.1745083)
(2.7039399e-06 1.8455199e-06 1.1745087)
(1.55251e-06 1.55251e-06 1.1745089)
(4.4559426e-08 1.2449191e-06 1.1745088)
(-1.3918524e-07 9.0608728e-07 1.1745084)
(3.6690066e-06 5.2164318e-07 1.1745081)
(6.0436467e-06 1.3436695e-07 1.174509)
(1.6845687e-06 -1.9585113e-07 1.1745096)
(-1.0008297e-06 1.8606821e-06 1.1745091)
(-5.4101265e-06 1.43258e-06 1.1745089)
(-2.6061097e-06 9.0069572e-07 1.1745083)
(2.3568868e-06 4.1376219e-07 1.1745086)
(1.2449191e-06 4.4559423e-08 1.1745088)
(-2.3266049e-07 -2.326605e-07 1.1745086)
(-3.9130141e-07 -4.3295726e-07 1.1745082)
(3.4502735e-06 -5.5525555e-07 1.1745078)
(5.874314e-06 -5.8856649e-07 1.1745087)
(1.6374694e-06 -5.5166963e-07 1.1745093)
(-1.1730949e-06 2.1000637e-06 1.1745091)
(-6.006456e-06 1.8052972e-06 1.1745088)
(-3.2463594e-06 1.0906214e-06 1.174508)
(1.8478036e-06 3.3197452e-07 1.1745083)
(9.0608728e-07 -1.3918523e-07 1.1745084)
(-4.3295726e-07 -3.9130141e-07 1.1745082)
(-4.6178029e-07 -4.617803e-07 1.1745077)
(3.5133973e-06 -3.3413103e-07 1.1745074)
(6.0472326e-06 1.5978054e-08 1.1745083)
(1.7091666e-06 5.3923716e-07 1.1745089)
(-1.1973407e-06 3.8359265e-06 1.1745092)
(-6.4195689e-06 5.1785381e-06 1.1745088)
(-4.0794323e-06 5.1567356e-06 1.1745079)
(1.1270801e-06 4.2219938e-06 1.174508)
(5.2164318e-07 3.6690066e-06 1.1745081)
(-5.5525556e-07 3.4502735e-06 1.1745078)
(-3.3413103e-07 3.5133973e-06 1.1745074)
(3.9280319e-06 3.9280318e-06 1.1745071)
(6.7476822e-06 4.7820663e-06 1.1745081)
(1.9863088e-06 5.8893726e-06 1.174509)
(-2.7802049e-07 3.2231892e-06 1.1745098)
(-4.6856468e-06 5.7705496e-06 1.1745099)
(-4.2029036e-06 7.4346523e-06 1.174509)
(3.6007455e-07 6.5918083e-06 1.174509)
(1.3436695e-07 6.0436467e-06 1.174509)
(-5.8856649e-07 5.874314e-06 1.1745087)
(1.5978053e-08 6.0472326e-06 1.1745083)
(4.7820663e-06 6.7476822e-06 1.1745081)
(8.0085734e-06 8.0085735e-06 1.1745095)
(2.4473708e-06 6.0528455e-06 1.1745107)
(5.0089948e-07 4.488747e-07 1.17451)
(-2.2081058e-06 1.2277947e-06 1.1745103)
(-3.2581736e-06 2.1005687e-06 1.1745098)
(-2.6392542e-07 1.8576148e-06 1.1745097)
(-1.9585112e-07 1.6845687e-06 1.1745096)
(-5.5166963e-07 1.6374694e-06 1.1745093)
(5.3923717e-07 1.7091666e-06 1.1745089)
(5.8893726e-06 1.9863088e-06 1.174509)
(6.0528455e-06 2.4473708e-06 1.1745107)
(6.8249006e-07 6.8249007e-07 1.1745107)
(5.5768543e-07 5.5768543e-07 1.1697308)
(-6.2295644e-06 -2.7321057e-06 1.1697311)
(-5.6400656e-06 -1.1031732e-06 1.1697301)
(3.1914479e-06 -8.7229398e-07 1.1697306)
(2.8601621e-06 -9.1907366e-07 1.1697309)
(1.8716141e-06 -1.0533107e-06 1.169731)
(2.0805381e-06 -1.2612828e-06 1.1697309)
(4.1506084e-06 -1.3083881e-06 1.1697309)
(3.5886539e-06 -2.6113649e-07 1.1697314)
(4.9447341e-07 6.0761366e-07 1.1697315)
(-2.7321057e-06 -6.2295644e-06 1.1697311)
(-8.720852e-06 -8.720852e-06 1.1697306)
(-2.8503482e-06 -5.6440633e-06 1.16973)
(3.4675972e-06 -5.2061679e-06 1.1697305)
(2.588637e-06 -5.3697789e-06 1.1697309)
(1.3583004e-06 -5.7997354e-06 1.1697309)
(1.697922e-06 -6.5087133e-06 1.1697306)
(5.6508277e-06 -7.0277654e-06 1.1697305)
(6.4626565e-06 -5.0649189e-06 1.1697314)