/*--------------------------------*- C++ -*----------------------------------*\
| =========                 |                                                 |
| \\      /  F ield         | OpenFOAM: The Open Source CFD Toolbox           |
|  \\    /   O peration     | Version:  v2106                                 |
|   \\  /    A nd           | Website:  www.openfoam.com                      |
|    \\/     M anipulation  |                                                 |
\*---------------------------------------------------------------------------*/
FoamFile
{
    version     2.0;
    format      ascii;
    arch        "LSB;label=32;scalar=64";
    class       volScalarField;
    location    "32.5";
    object      gradTx;
}
// * * * * * * * * * * * * * * * * * * * * * * * * * * * * * * * * * * * * * //

dimensions      [0 -1 0 1 0 0 0];

internalField   nonuniform List<scalar> 
4000
(
0.00013603252
-0.00038129273
-0.00052695098
0.00013598335
0.00013078488
9.9120494e-05
9.7134461e-05
0.0001083517
9.6508845e-05
2.6242117e-05
-0.00025381563
-0.00072424913
-0.00025503402
0.00016465185
0.00012522305
9.1179731e-05
9.7045818e-05
0.0001388329
0.00016660759
5.5135761e-05
-9.2605079e-05
-0.00044279627
-0.00021138872
0.00016655424
0.00011784783
7.7461878e-05
8.1246297e-05
0.00014450131
0.00024323485
9.7540988e-05
-7.2537663e-05
-0.00040868687
-0.00020773784
0.00016347619
0.00010969264
6.2673206e-05
5.6616322e-05
0.00010713005
0.00019692318
8.1396829e-05
-7.3492746e-05
-0.00041222537
-0.00021256438
0.00015706093
0.00010103855
5.1086943e-05
4.1093743e-05
8.700103e-05
0.00017441068
7.3877292e-05
-7.6245548e-05
-0.00042162393
-0.00022326824
0.0001466669
9.140883e-05
4.1876369e-05
3.2101437e-05
7.8366363e-05
0.0001671034
7.1794258e-05
-7.8786587e-05
-0.000433884
-0.00024107091
0.00013068601
8.0241713e-05
3.4339811e-05
2.7524937e-05
7.6488169e-05
0.00016737494
7.2173873e-05
-7.6304642e-05
-0.00043751209
-0.00026369774
0.00010651435
6.6893942e-05
2.8307566e-05
2.6818381e-05
8.0252377e-05
0.0001738907
7.4590739e-05
-5.8465789e-05
-0.00039773439
-0.00027277376
7.3185727e-05
5.1478025e-05
2.3826952e-05
2.9410951e-05
8.8641014e-05
0.00018558049
7.8718482e-05
-2.9572146e-05
-0.00029078608
-0.00023338216
3.769018e-05
3.7074165e-05
2.1271825e-05
3.3605673e-05
9.8457928e-05
0.00019725624
8.2374566e-05
0.00028929015
-0.0016568677
-0.0019204178
0.00049904485
0.00057822491
0.00047107165
0.0004742753
0.00053784614
0.00043331433
9.8824692e-05
-0.00075285207
-0.0024940578
-0.0010853623
0.00060544636
0.0005568353
0.0004335738
0.00047896607
0.00071476841
0.00073374306
0.00019678214
-0.0002688366
-0.0015932428
-0.00087922189
0.00063018131
0.00052466284
0.00036621479
0.00040320216
0.00076119184
0.0011064691
0.00039167476
-0.00019614845
-0.0014528619
-0.00084425897
0.00062152728
0.00048567735
0.00029347239
0.0002840149
0.00059327618
0.00092163987
0.00033162436
-0.00019790226
-0.0014621063
-0.00086314096
0.00059124338
0.00044326341
0.00023639992
0.00020752816
0.00049569607
0.00081433229
0.00029593095
-0.00021040819
-0.001506424
-0.00091541692
0.00054012785
0.0003959778
0.00019128252
0.00016335334
0.00045303536
0.00077728584
0.00028504403
-0.00022290082
-0.0015669631
-0.0010032424
0.00046142852
0.00034107354
0.00015466077
0.00014171371
0.00044506924
0.00078028849
0.0002875245
-0.000207281
-0.0015774971
-0.0011103681
0.00034445385
0.00027531624
0.00012546807
0.00013993091
0.0004667796
0.00081789318
0.00030176422
-0.00010495264
-0.0013436175
-0.0011247346
0.00019593276
0.00020083272
0.00010403394
0.00015545797
0.0005131393
0.00088171924
0.00032423854
-6.995189e-06
-0.00090434235
-0.00092247128
5.2317044e-05
0.00013096221
9.1424262e-05
0.00018053824
0.00056821036
0.00092259631
0.00032901559
0.00022914337
-0.0025408551
-0.0025903943
0.00083001004
0.00095163935
0.00079195463
0.00083864307
0.001036816
0.00069784087
8.2345661e-05
-0.0011357124
-0.0036244309
-0.0014764499
0.00097372971
0.00090817654
0.00071199782
0.00083780119
0.0014507131
0.0014448847
0.00033255611
-0.00049324046
-0.002407054
-0.0011730535
0.0010110229
0.00084804599
0.00058214224
0.00067535081
0.001489181
0.0020173649
0.00063503693
-0.00039308279
-0.0022070901
-0.001117739
0.00099423297
0.00077755936
0.00045151384
0.00046318832
0.0012022358
0.0017210053
0.00054233149
-0.00039742736
-0.0022260412
-0.0011525502
0.00093925276
0.00070122724
0.00034968906
0.00032793998
0.0010332991
0.001540091
0.00048291152
-0.000422058
-0.0023106835
-0.0012483562
0.00084741422
0.00061670108
0.00026966896
0.00025049916
0.00095989935
0.0014775267
0.00046465648
-0.00045073189
-0.0024358536
-0.0014130342
0.00070679958
0.00051938236
0.00020597984
0.0002155254
0.00095217758
0.0014923233
0.00047266373
-0.00042261925
-0.0024739757
-0.001622969
0.00050000338
0.00040401192
0.00015725437
0.00022021061
0.0010063301
0.0015848963
0.00050840588
-0.00017480048
-0.0019834886
-0.0016615116
0.00025091767
0.0002770459
0.00012485835
0.00026195612
0.0011153246
0.0017263443
0.0005560147
7.540997e-05
-0.0011544517
-0.0013468485
2.2729549e-05
0.00016053339
0.00010948669
0.00032758022
0.001240351
0.0016137899
0.00043336963
0.00024043344
-0.0031340283
-0.003059846
0.0011561367
0.0012726876
0.0010494306
0.0011653773
0.0016379925
0.0011889243
0.00014550803
-0.0013868396
-0.004415808
-0.0017219167
0.0013212616
0.0012002612
0.00091210897
0.0011193682
0.0022254431
0.0022766709
0.00050074562
-0.00061408632
-0.0029469037
-0.0013525522
0.0013597145
0.001107843
0.00071617529
0.00086450811
0.0022534414
0.0030367571
0.00090199938
-0.00049488674
-0.0027085142
-0.0012895859
0.0013288141
0.0010034105
0.00052699901
0.00056081763
0.0018564197
0.0026474457
0.0007840261
-0.00050400305
-0.0027433259
-0.0013449997
0.001246483
0.00089213323
0.00038069252
0.00036860786
0.0016212005
0.0024021837
0.00070458038
-0.00054317106
-0.0028733589
-0.0014864366
0.0011131044
0.00077054251
0.00026700243
0.00026038442
0.001521169
0.0023192958
0.00068074175
-0.00059555078
-0.0030765812
-0.0017301096
0.00091100022
0.00063213665
0.00017883519
0.00021680789
0.00152161
0.0023565678
0.0006981416
-0.00057384379
-0.003174228
-0.0020449871
0.00061720414
0.00047010931
0.00011520246
0.00023758897
0.0016278673
0.0025370421
0.0007686278
-0.00020391699
-0.0024611323
-0.0020991331
0.00027875932
0.00029688596
7.9244711e-05
0.00032350615
0.0018415274
0.00282119
0.0008654496
0.0001513206
-0.0013263953
-0.0016742123
-1.7369171e-05
0.00014195945
6.9586535e-05
0.00045533521
0.0020924894
0.0023667846
0.00046569085
0.00027289828
-0.0036196273
-0.0034443121
0.0014753453
0.0015469543
0.0012313728
0.0013935285
0.0021571981
0.0016713134
0.00022169502
-0.0015918862
-0.0050745709
-0.001899306
0.0016557182
0.001443012
0.0010331541
0.0012925525
0.0028989715
0.0030570845
0.00066149387
-0.00069706417
-0.0033748664
-0.0014768685
0.0016888
0.001315354
0.00076959796
0.00094403776
0.0029164931
0.0039950758
0.0011546521
-0.00056188204
-0.0031071273
-0.0014136995
0.0016392831
0.0011748323
0.00052135276
0.00055010778
0.0024148198
0.0035213895
0.0010143192
-0.00057681553
-0.0031614117
-0.0014933037
0.001527247
0.0010276455
0.00033082797
0.00030252083
0.0021170379
0.0032175283
0.00091697767
-0.00063117692
-0.0033387276
-0.0016818791
0.0013515746
0.00086916433
0.00018461253
0.0001656683
0.0019935884
0.0031179729
0.00088874207
-0.00070896137
-0.0036231866
-0.002005105
0.001088477
0.0006909053
7.4154258e-05
0.00011700991
0.0020074148
0.0031841062
0.00091774324
-0.00069849425
-0.0037882183
-0.0024243238
0.00071005767
0.00048472485
-8.9839068e-07
0.00016018042
0.0021780065
0.0034737058
0.0010317323
-0.00021444573
-0.0028638915
-0.0024892567
0.00028902174
0.00026967384
-3.5468869e-05
0.00030142805
0.0025251533
0.0039589376
0.0012028663
0.00022535313
-0.0014644559
-0.0019600188
-6.7489874e-05
8.1308184e-05
-3.4320506e-05
0.00051591336
0.0029528379
0.003142664
0.0004875499
0.00031313791
-0.0040342914
-0.0037633894
0.0017868116
0.0017800632
0.0013453711
0.0015280308
0.0025714484
0.0020865403
0.00028774141
-0.0017688857
-0.0056423813
-0.0020245323
0.0019787724
0.0016435364
0.0010853948
0.0013682061
0.0034544058
0.003747855
0.0008036967
-0.00075892206
-0.0037271769
-0.0015564774
0.0020026916
0.001478915
0.00075359785
0.00092537394
0.0034577768
0.0048504384
0.001381985
-0.00060964764
-0.0034354693
-0.0014974828
0.0019317109
0.001300956
0.00044620427
0.000442452
0.0028544669
0.0042958936
0.0012202897
-0.00063094818
-0.0035112968
-0.0016035389
0.0017884185
0.0011172886
0.00021185622
0.00014087375
0.0024967002
0.0039367739
0.0011061979
-0.00070066554
-0.0037366175
-0.0018400632
0.0015700844
0.00092220016
3.4104294e-05
-2.2947719e-05
0.0023520297
0.0038227163
0.0010742043
-0.00080426574
-0.0041030701
-0.0022427294
0.0012466769
0.00070518858
-9.7002344e-05
-7.4415327e-05
0.0023820668
0.0039204432
0.0011156114
-0.0008072153
-0.0043392744
-0.0027658174
0.0007855842
0.00045680045
-0.00018118479
-5.5195686e-06
0.002622474
0.004327674
0.001276477
-0.00021562747
-0.0032167417
-0.0028426683
0.00028560037
0.00020275134
-0.00021163578
0.000196029
0.003115439
0.0050400884
0.0015333982
0.00030032783
-0.0015753763
-0.0022177788
-0.00012808028
-1.6376799e-05
-0.00019751549
0.00049943811
0.0037421191
0.0038831805
0.0005052051
0.00036099192
-0.0043791664
-0.0040193853
0.0020900867
0.0019758376
0.0013991009
0.0015790988
0.0028843443
0.0024236093
0.00033752188
-0.0019186764
-0.0061223915
-0.002100573
0.0022906002
0.0018062105
0.0010771985
0.0013574553
0.0038938929
0.0043390434
0.00092321437
-0.00080115816
-0.0040073192
-0.0015929415
0.002302819
0.0016037542
0.00067725928
0.00082006989
0.0038774992
0.0055903307
0.0015794785
-0.00063946816
-0.0036959477
-0.0015410991
0.0022085885
0.0013877
0.00031111981
0.00024962127
0.0031746397
0.0049565719
0.0013967944
-0.00066748251
-0.0037945869
-0.0016749533
0.0020331709
0.0011673773
3.3505526e-05
-0.00010465742
0.0027588325
0.0045443932
0.001266676
-0.00075255286
-0.0040680311
-0.0019596096
0.0017722116
0.00093609082
-0.00017494418
-0.00029423089
0.0025943608
0.0044170671
0.0012312607
-0.00088208409
-0.0045164285
-0.0024410319
0.0013894172
0.00068131333
-0.00032555313
-0.00034722601
0.0026418255
0.0045470896
0.0012851719
-0.0009003152
-0.00482706
-0.0030674436
0.00084748428
0.00039223865
-0.00041751278
-0.00025124282
0.0029536012
0.0050737779
0.0014935631
-0.00020905166
-0.0035232736
-0.0031602851
0.0002707505
0.00010103441
-0.00044256021
1.2014361e-05
0.0035957744
0.0060218783
0.0018402489
0.00037664082
-0.0016603387
-0.0024499151
-0.00019845317
-0.00014726613
-0.00041481638
0.00040546805
0.0044283899
0.0045513097
0.00051318402
0.00041658789
-0.0046534496
-0.0042130976
0.0023839938
0.0021365251
0.0013980852
0.0015541503
0.0031004812
0.0026807042
0.00036936885
-0.0020408676
-0.0065144278
-0.0021291943
0.0025902759
0.0019336974
0.0010146428
0.0012683383
0.0042211367
0.0048275681
0.0010183203
-0.00082406425
-0.004216084
-0.0015876483
0.0025888829
0.0016931336
0.00054730766
0.00063681888
0.0041789878
0.0062104289
0.0017450282
-0.00065159875
-0.0038889785
-0.0015452647
0.0024702554
0.0014388458
0.00012328239
-1.9274249e-05
0.0033786888
0.0054987697
0.0015416203
-0.0006865429
-0.0040111949
-0.0017076688
0.0022623384
0.0011820226
-0.00019686509
-0.00042492902
0.0029065847
0.0050353666
0.0013960759
-0.0007868172
-0.00433237
-0.0020401163
0.0019591443
0.00091507436
-0.00043527672
-0.00063936043
0.00272322
0.0048954874
0.0013574277
-0.00094217119
-0.0048619725
-0.0025990292
0.0015181657
0.00062346346
-0.00060462907
-0.00069334326
0.0027882561
0.0050573616
0.0014235837
-0.00097735856
-0.0052497014
-0.0033277288
0.00089739642
0.00029498817
-0.00070369097
-0.00057022838
0.00317066
0.0057019222
0.0016788342
-0.00019506749
-0.0037834659
-0.0034414771
0.00024576259
-3.2005289e-05
-0.00072295764
-0.00024590325
0.0039607951
0.0068859103
0.0021158595
0.00045388398
-0.0017199768
-0.0026565271
-0.00027766584
-0.00030829416
-0.00068169602
0.00023620642
0.0049992088
0.0051284681
0.00050720601
0.0004794041
-0.0048578944
-0.0043462321
0.0026666355
0.0022635517
0.0013468328
0.0014593569
0.0032244643
0.0028591569
0.00038326757
-0.0021355796
-0.0068195199
-0.0021129736
0.0028760646
0.0020277951
0.00090280208
0.0011077424
0.0044405076
0.0052137529
0.0010887288
-0.00082834625
-0.0043554334
-0.0015430572
0.0028595337
0.0017493157
0.00036942479
0.00038329726
0.0043669728
0.006710616
0.001878103
-0.00064674053
-0.004016345
-0.0015120493
0.0027157905
0.00145707
-0.00011118178
-0.00035601798
0.0034718389
0.0059227098
0.0016543328
-0.00068872684
-0.0041625352
-0.0017033313
0.0024753797
0.0011641915
-0.00047292045
-0.00081156862
0.0029452658
0.0054099525
0.001493976
-0.00080391155
-0.004530581
-0.0020827744
0.0021306664
0.00086227104
-0.0007405793
-0.0010501397
0.0027436312
0.0052579692
0.0014522143
-0.00098474731
-0.0051399432
-0.0027173152
0.0016330345
0.00053479401
-0.00092815938
-0.0011050809
0.0028256625
0.0054505284
0.0015301406
-0.0010383212
-0.0056066407
-0.0035465348
0.0009358005
0.0001681493
-0.0010340915
-0.00095568015
0.0032765091
0.0062094091
0.0018308562
-0.00017405177
-0.0039974347
-0.0036859839
0.00021132749
-0.00019341366
-0.0010477627
-0.000572203
0.004210711
0.0076251256
0.0023570709
0.00053140945
-0.0017551816
-0.0028375779
-0.00036486303
-0.00049659133
-0.00099351566
-4.2402212e-06
0.0054511064
0.0056071155
0.00048551606
0.00054855257
-0.0049945216
-0.0044214997
0.002935604
0.0023579384
0.0012495234
0.0013007111
0.0032614165
0.0029619499
0.00037993738
-0.0022033773
-0.0070399632
-0.0020553783
0.0031456961
0.0020898675
0.00074641741
0.00088243111
0.0045572236
0.0054999466
0.0011349515
-0.00081507519
-0.0044284838
-0.0014625745
0.0031127975
0.0017740679
0.00014893962
6.7118373e-05
0.0044473448
0.0070932315
0.0019790882
-0.00062596296
-0.004081038
-0.0014445709
0.0029435611
0.0014445102
-0.00038649416
-0.00075238352
0.0034606856
0.006231348
0.0017354966
-0.00067501381
-0.0042512903
-0.0016647095
0.0026709935
0.0011163086
-0.00078862771
-0.001256093
0.0028817296
0.0056713432
0.0015610156
-0.00080467686
-0.0046649085
-0.0020899282
0.0022858018
0.00078030198
-0.0010847487
-0.001518121
0.0026623425
0.005507602
0.0015162349
-0.0010104178
-0.0053518741
-0.002797621
0.0017334262
0.00041805407
-0.0012901398
-0.0015742975
0.0027603266
0.0057291928
0.0016053085
-0.0010835302
-0.0058985012
-0.0037247428
0.00096259048
1.4564527e-05
-0.0014029532
-0.0014000462
0.0032764495
0.0065975162
0.0019496072
-0.00014654645
-0.0041659458
-0.003894159
0.00016781103
-0.00038028895
-0.0014115429
-0.00096019051
0.00434907
0.0082380044
0.0025627692
0.00060846767
-0.0017672196
-0.0029933414
-0.00045929776
-0.00070918144
-0.0013451035
-0.0003101321
0.005785261
0.0059855802
0.00044799103
0.0006229277
-0.0050662992
-0.0044424236
0.0031881856
0.0024205284
0.0011102919
0.0010843929
0.0032171151
0.0029931084
0.00036046944
-0.0022451655
-0.0071790714
-0.001960567
0.0033965934
0.0021210828
0.00055017366
0.00059938045
0.0045773521
0.0056898303
0.0011579537
-0.00078558714
-0.0044392393
-0.0013502911
0.0033463668
0.001768938
-0.00010888489
-0.00030386847
0.0044269862
0.0073622008
0.0020489132
-0.00059059446
-0.0040869389
-0.0013466621
0.0031515707
0.0014030719
-0.00069693121
-0.0011998703
0.0033529026
0.0064293346
0.0017862528
-0.0006466486
-0.0042810581
-0.0015953137
0.002847502
0.001040579
-0.0011379663
-0.0017496724
0.0027240086
0.0058245237
0.0015984384
-0.00079022481
-0.0047385292
-0.0020646731
0.0024232117
0.0006716136
-0.0014616151
-0.0020343991
0.0024874095
0.0056493762
0.0015507357
-0.0010200608
-0.005500235
-0.0028424186
0.0018184205
0.00027589516
-0.0016843819
-0.0020922368
0.0026000181
0.0058980097
0.0016502244
-0.0011135664
-0.0061267906
-0.0038639238
0.00097740778
-0.00016291519
-0.0018041795
-0.0018949501
0.003177546
0.0068698894
0.0020358446
-0.00011323614
-0.0042903639
-0.0040668681
0.00011544287
-0.00058959793
-0.0018083724
-0.0014021003
0.0043816155
0.0087260417
0.0027328661
0.00068424817
-0.0017576982
-0.0031244195
-0.00056026931
-0.00094287358
-0.0017306935
-0.0006744369
0.006005578
0.0062653486
0.00039538258
0.00070126999
-0.0050769453
-0.0044131448
0.0034215332
0.0024521325
0.00093334934
0.00081686354
0.0030979644
0.0029574217
0.00032618428
-0.0022621267
-0.0072409816
-0.0018331891
0.003626057
0.0021225657
0.00031881732
0.00026585562
0.0045077312
0.0057880869
0.0011590033
-0.00074142087
-0.0043923865
-0.0012107592
0.0035578072
0.00173542
-0.0003987346
-0.00072152572
0.0043136216
0.0075226254
0.002088881
-0.00054215631
-0.0040385959
-0.0012226202
0.0033376896
0.0013346057
-0.0010367118
-0.0016896774
0.0031570309
0.0065225279
0.0018081258
-0.00060507162
-0.0042561124
-0.0014991266
0.0030030947
0.00093916831
-0.001514827
-0.0022831328
0.0024810538
0.0058757308
0.0016078821
-0.00076186755
-0.0047553085
-0.0020105802
0.0025414379
0.00053864735
-0.0018648625
-0.0025896479
0.0022278909
0.0056896013
0.0015573743
-0.0010147596
-0.0055881964
-0.0028546557
0.0018870023
0.00011101755
-0.0021044673
-0.0026496109
0.0023536329
0.0059630553
0.0016664635
-0.0011292062
-0.0062936977
-0.0039661132
0.00097983081
-0.00036132308
-0.0022313407
-0.0024313422
0.002988164
0.0070317798
0.0020908237
-7.4915049e-05
-0.0043725391
-0.0042053561
5.4434522e-05
-0.00081812242
-0.0022318882
-0.0018893378
0.0043156305
0.0090926493
0.0028678819
0.00075790393
-0.001728494
-0.0032316722
-0.0006670638
-0.0011942497
-0.0021440161
-0.0010891637
0.006117758
0.0064497909
0.0003289181
0.00078220635
-0.0050307796
-0.0043382572
0.003632804
0.0024536275
0.00072303336
0.00050486282
0.002910921
0.0028602914
0.00027857015
-0.0022556756
-0.007230496
-0.0016782159
0.0038314059
0.0020954959
5.7202408e-05
-0.00011060506
0.0043558683
0.0058002205
0.0011396009
-0.00068427125
-0.004293132
-0.0010488169
0.0037447058
0.001675055
-0.00071520397
-0.0011774613
0.0041156808
0.0075805615
0.0021005871
-0.00048231477
-0.0039410557
-0.0010770222
0.0034998094
0.0012410088
-0.0013999655
-0.0022127579
0.0028823076
0.0065177369
0.0018029317
-0.00055186997
-0.0041812302
-0.0013804135
0.0031359854
0.00081429841
-0.0019129943
-0.0028470329
0.0021625331
0.0058321641
0.001591278
-0.00072106917
-0.0047196281
-0.0019315093
0.0026390528
0.00038392311
-0.0022880321
-0.0031742265
0.0018936127
0.0056355896
0.0015381119
-0.00099575727
-0.0056194675
-0.0028375814
0.0019381951
-7.3768128e-05
-0.0025437805
-0.0032367445
0.0020309159
0.0059314797
0.0016559245
-0.0011313811
-0.0064019523
-0.0040336621
0.00096948117
-0.0005775455
-0.0026777437
-0.0029996909
0.0027176366
0.0070896378
0.0021161639
-3.2459063e-05
-0.0044147077
-0.0043111421
-1.4952567e-05
-0.0010624631
-0.0026753978
-0.0024127206
0.0041595238
0.009342633
0.0029687686
0.00082857165
-0.0016816822
-0.0033161458
-0.00077891616
-0.0014596927
-0.0025784281
-0.0015456427
0.0061287899
0.006543555
0.0002501119
0.00086428356
-0.0049325971
-0.0042226688
0.0038192646
0.0024260174
0.00048382144
0.00015536894
0.0026634063
0.0027076234
0.00021924741
-0.002227419
-0.0071529467
-0.0015008023
0.004010082
0.0020411688
-0.00022970206
-0.00052224152
0.004129833
0.0057324283
0.0011014391
-0.00061594948
-0.0041470675
-0.00086944904
0.0039047763
0.0015894894
-0.001052796
-0.0016630944
0.0038421692
0.0075428664
0.0020858709
-0.00041284134
-0.003799727
-0.00091458545
0.0036359478
0.0011242788
-0.0017807425
-0.0027598998
0.0025385147
0.0064225458
0.0017727228
-0.00048873792
-0.0040615558
-0.0012435832
0.0032445125
0.00066829411
-0.0023261682
-0.003431764
0.001778658
0.0057017927
0.0015507909
-0.00066940711
-0.0046362549
-0.0018314754
0.0027147525
0.00021007296
-0.0027245615
-0.0037783006
0.0014949721
0.0054954443
0.0014951483
-0.00096442025
-0.0055981733
-0.0027946237
0.0019711403
-0.00027552481
-0.002995571
-0.0038437224
0.0016422379
0.0058112744
0.0016207595
-0.0011211474
-0.0064547183
-0.0040691337
0.00094608287
-0.00080832775
-0.0031365199
-0.0035901596
0.0023760102
0.0070508554
0.0021137722
1.3197517e-05
-0.0044194104
-0.0043859419
-9.2370928e-05
-0.0013190675
-0.0031319911
-0.0029626843
0.0039225411
0.009481896
0.00303682
0.00089538919
-0.0016194752
-0.0033790163
-0.00089499087
-0.0017354292
-0.0030270382
-0.0020347485
0.0060466318
0.0065522444
0.00016067112
0.00094599831
-0.0047875568
-0.0040714854
0.0039783698
0.0023704708
0.00022032034
-0.00022445834
0.0023632128
0.0025057323
0.00014994046
-0.0021791196
-0.0070140758
-0.0013061731
0.0041597271
0.0019610291
-0.00053682754
-0.00096113878
0.0038381476
0.0055914874
0.0010463691
-0.00053834773
-0.0039600523
-0.00067767583
0.0040359332
0.0014805049
-0.0014059445
-0.0021697334
0.0035025411
0.0074170678
0.0020467763
-0.00033557815
-0.0036202663
-0.00074005822
0.0037443197
0.00098653783
-0.0021730441
-0.0033218169
0.0021358379
0.0062451695
0.0017197451
-0.00041744283
-0.003902489
-0.0010930833
0.0033272053
0.00050359925
-0.0027480067
-0.0040276529
0.0013400282
0.0054931979
0.0014887725
-0.00060853931
-0.0045102321
-0.0017145494
0.002767414
1.9846924e-05
-0.00316784
-0.0043919608
0.001042767
0.0052778901
0.0014308726
-0.00092220808
-0.0055287538
-0.0027292998
0.0019851431
-0.00049119673
-0.003453024
-0.0044605261
0.0011984083
0.0056110913
0.0015633219
-0.0010996596
-0.0064555072
-0.0040752276
0.00090949447
-0.001050297
-0.0036007132
-0.0041927628
0.0019738387
0.0069235721
0.0020857884
6.1081789e-05
-0.0043894255
-0.0044316095
-0.00017736976
-0.0015842677
-0.0035946439
-0.0035294544
0.003614543
0.0095172347
0.0030736146
0.00095751048
-0.0015441717
-0.0034215455
-0.0010143755
-0.0020175764
-0.0034828198
-0.0025470808
0.0058799821
0.0064822125
6.2440235e-05
0.0010258246
-0.004601081
-0.003889913
0.0041078209
0.0022883378
-6.2758036e-05
-0.00062734299
0.0020184094
0.0022612505
7.245196e-05
-0.0021126632
-0.0068199288
-0.0010995288
0.0042782392
0.0018566857
-0.00085903473
-0.0014193005
0.0034896784
0.005384648
0.00097637038
-0.00045340728
-0.0037381107
-0.00047846216
0.0041363442
0.001350029
-0.001769049
-0.0026886594
0.0031065771
0.0072112401
0.0019855167
-0.000252407
-0.0034084779
-0.00055813281
0.0038233848
0.00083003794
-0.0025708647
-0.0038892404
0.0016847332
0.0059943207
0.0016463997
-0.00033979504
-0.0037095874
-0.00093331657
0.0033828264
0.00032277543
-0.0031721755
-0.0046250646
0.00085748879
0.0052154325
0.0014077213
-0.00054017505
-0.0043467867
-0.0015847806
0.0027961313
-0.00018389685
-0.0036112693
-0.0050053363
0.00054804209
0.004992125
0.0013478209
-0.00087064618
-0.0054158784
-0.0026451466
0.0019796999
-0.00071762916
-0.003909332
-0.0050771585
0.00071050982
0.0053400865
0.0014861225
-0.0010681467
-0.0064081032
-0.0040547205
0.00085972608
-0.0012999928
-0.0040633632
-0.004797502
0.0015220086
0.0067165124
0.0020345392
0.00011019985
-0.0043277107
-0.0044500919
-0.00026938844
-0.0018543202
-0.004056311
-0.004103192
0.0032458236
0.0094561746
0.0030809712
0.0010141183
-0.0014581136
-0.0034450478
-0.0011360815
-0.0023021885
-0.0039387092
-0.0030731146
0.0056380967
0.0063404077
-4.2638726e-05
0.0011022387
-0.0043787657
-0.0036831738
0.0042056093
0.0021811564
-0.00036062892
-0.001045961
0.0016372474
0.0019810395
-1.1361904e-05
-0.0020300268
-0.006576758
-0.0008859655
0.0043638125
0.0017299152
-0.0011911497
-0.0018887247
0.0030935281
0.0051195294
0.00089352087
-0.00036308942
-0.003487341
-0.00027664216
0.0042044676
0.0012001342
-0.0021365162
-0.0032112088
0.0026642657
0.0069338872
0.0019044401
-0.00016522129
-0.0031702263
-0.00037337367
0.0038718814
0.00065715569
-0.0029682396
-0.0044530095
0.0011957999
0.0056790845
0.0015552065
-0.00025762062
-0.0034884828
-0.00076857326
0.0034104
0.00012849061
-0.0035924023
-0.0052144991
0.00034199578
0.0048778901
0.0013102445
-0.00046604878
-0.0041512485
-0.0014461332
0.0028002378
-0.00039821005
-0.0040483239
-0.0056086991
2.1948054e-05
0.0046476843
0.0012486369
-0.00081130116
-0.00526437
-0.0025456632
0.0019545139
-0.00095159366
-0.004357764
-0.0056837568
0.00018975095
0.0050077791
0.0013917886
-0.0010278912
-0.0063164964
-0.004010418
0.00079694753
-0.0015538996
-0.0045175816
-0.0053944865
0.0010315848
0.0064388415
0.0019624974
0.00015955259
-0.0042373518
-0.0044433913
-0.00036775599
-0.0021254455
-0.0045100088
-0.00467412
0.0028269522
0.0093068272
0.0030609091
0.0010644354
-0.0013636487
-0.0034508629
-0.0012590495
-0.0025852998
-0.0043876926
-0.0036033292
0.0053306329
0.0061342427
-0.00015255893
0.0011737427
-0.0041262977
-0.0034564332
0.0042700487
0.0020506497
-0.00066847095
-0.0014730086
0.0012280692
0.0016721045
-9.96153e-05
-0.0019332509
-0.0062909351
-0.00067040774
0.0044149673
0.0015826566
-0.0015280035
-0.0023614778
0.0026589321
0.0048040196
0.00079996897
-0.00026934897
-0.0032138337
-7.685565e-05
0.0042390783
0.0010330304
-0.0025028031
-0.0037288539
0.0021856896
0.0065938293
0.0018059971
-7.590062e-05
-0.0029113576
-0.00019015742
0.0038888484
0.00047038005
-0.0033592924
-0.0050041571
0.00067966174
0.0053087998
0.0014487694
-0.00017273659
-0.0032448042
-0.00060297453
0.0034092309
-7.6497358e-05
-0.0040025297
-0.0057866828
-0.00019550816
0.0044901821
0.0011990224
-0.00038789605
-0.0039289768
-0.0013024339
0.0027793206
-0.0006200758
-0.0044726102
-0.006192561
-0.00052438814
0.004254314
0.0011360358
-0.0007457583
-0.0050791363
-0.0024342634
0.0019095043
-0.0011898152
-0.0047917294
-0.0062706947
-0.00035266877
0.0046239216
0.0012830274
-0.00098020887
-0.0061848221
-0.0039451132
0.00072149165
-0.0018084797
-0.004956622
-0.0059740405
0.00051367157
0.0061000332
0.0018722449
0.00020815029
-0.004121516
-0.0044135338
-0.00047169346
-0.002393865
-0.00494889
-0.005232635
0.0023686324
0.0090777609
0.003015613
0.0011077346
-0.0012630973
-0.0034403331
-0.0013821555
-0.0028629655
-0.0048228825
-0.0041283214
0.0049675109
0.0058714767
-0.00026527795
0.0012388848
-0.0038493795
-0.0032147365
0.0042997992
0.0018987188
-0.00098146315
-0.0019012678
0.00079922143
0.0013415129
-0.00019041548
-0.0018244118
-0.0059688718
-0.00045755019
0.0044305717
0.0014170027
-0.0018644715
-0.0028297658
0.0021951613
0.0044461796
0.000697906
-0.00017411
-0.0029235978
0.00011650617
0.0042392867
0.00085105299
-0.0028624602
-0.0042332782
0.00168092
0.0062000958
0.0016927088
1.3712442e-05
-0.0026376291
-1.2621686e-05
0.0038736412
0.00027229745
-0.0037382816
-0.0055339893
0.00014685544
0.0048929473
0.0013297442
-8.6928327e-05
-0.0029841103
-0.00044042429
0.0033789161
-0.00028935939
-0.0043965654
-0.0063326521
-0.00074420866
0.0040620231
0.0010767754
-0.00030743161
-0.0036852949
-0.001157327
0.0027332288
-0.00084643113
-0.0048779206
-0.0067477615
-0.0010799816
0.0038218534
0.0010127698
-0.00067560058
-0.0048651074
-0.0023142343
0.001844811
-0.0014289985
-0.0052048368
-0.0068286743
-0.00090568073
0.0041983798
0.0011625906
-0.00092643032
-0.0060173053
-0.0038615505
0.00063385493
-0.0020602033
-0.0053739428
-0.0065267991
-2.0712449e-05
0.0057097477
0.0017664367
0.00025502599
-0.0039834088
-0.0043625402
-0.00058031771
-0.0026558355
-0.0053663088
-0.0057694051
0.0018815758
0.0087778805
0.0029473988
0.0011433475
-0.0011587225
-0.0034147828
-0.0015042178
-0.0031312971
-0.0052375861
-0.0046389048
0.0045587883
0.0055601089
-0.00037874438
0.0012962798
-0.0035536608
-0.0029629528
0.0042938854
0.0017274337
-0.0012948205
-0.0023236675
0.00035897384
0.00099631856
-0.00028188417
-0.001705597
-0.0056169459
-0.00025180694
0.0044098575
0.0012351896
-0.0021955113
-0.0032859995
0.0017114299
0.0040541531
0.00058954039
-7.9243652e-05
-0.0026224943
0.00029934749
0.0042045521
0.00065664968
-0.0032101714
-0.0047164458
0.0011599178
0.0057618243
0.0015671373
0.00010183359
-0.0023546457
0.00015537889
0.0038259425
6.5576239e-05
-0.0040996435
-0.0060341576
-0.00039227107
0.0044410452
0.0012008072
-1.9288905e-06
-0.0027118276
-0.00028456748
0.0033193534
-0.00050721351
-0.0047687279
-0.0068438283
-0.0012935243
0.0036031239
0.00094623175
-0.00022632917
-0.0034254297
-0.0010142345
0.0026620794
-0.0010741884
-0.0052582826
-0.0072655452
-0.001634097
0.0033601266
0.00088159646
-0.00060238939
-0.0046271785
-0.0021886996
0.0017607969
-0.0016658526
-0.0055909458
-0.007348807
-0.0014584574
0.003741022
0.0010332422
-0.00086788378
-0.005818208
-0.0037623926
0.00053469692
-0.002305576
-0.0057632613
-0.0070437919
-0.00056074694
0.0052777202
0.0016477689
0.00029924801
-0.0038262345
-0.0042924006
-0.0006926451
-0.0029076785
-0.0057558789
-0.006275457
0.0013763874
0.0084163162
0.0028586821
0.0011706726
-0.0010527023
-0.0033755005
-0.0016240034
-0.0033864946
-0.0056253632
-0.0051261983
0.0041145473
0.0052082793
-0.00049092244
0.0013446259
-0.0032446739
-0.0027057238
0.0042517113
0.0015390239
-0.0016038262
-0.0027333385
-8.4554088e-05
0.00064349068
-0.00037217732
-0.0015788819
-0.0052414347
-5.726684e-05
0.004352433
0.0010395855
-0.0025161958
-0.0037228524
0.0012168128
0.0036360824
0.00047707359
1.3452078e-05
-0.0023161756
0.00046790924
0.0041346934
0.00045236862
-0.0035407892
-0.0051706626
0.00063244451
0.005288167
0.0014318582
0.00018675604
-0.0020678017
0.00031031153
0.0037457706
-0.00014704756
-0.0044380293
-0.006496722
-0.00092765021
0.0039625534
0.0010646267
8.0599905e-05
-0.0024331935
-0.00013875319
0.0032307475
-0.0007271413
-0.0051134862
-0.0073120831
-0.0018332
0.0031230948
0.00081009949
-0.00014620288
-0.0031544569
-0.00087632153
0.0025662607
-0.0013002539
-0.0056080002
-0.0077376303
-0.0021763439
0.0028788435
0.00074524921
-0.00052764652
-0.0043701566
-0.0020605867
0.0016580505
-0.0018971121
-0.0059442111
-0.0078226838
-0.00200051
0.0032616187
0.00089772896
-0.00080587883
-0.005591781
-0.0036501911
0.00042484009
-0.0025411622
-0.0061186008
-0.007516516
-0.0010959102
0.0048136576
0.001518948
0.00033993144
-0.003653158
-0.0042050498
-0.00080759401
-0.0031458058
-0.0061115212
-0.0067422501
0.00086346339
0.0080023216
0.0027519485
0.0011891824
-0.00094710464
-0.0033237201
-0.0017402321
-0.0036248721
-0.005980077
-0.0055817019
0.0036447927
0.0048241779
-0.00059981443
0.0013827219
-0.0029277754
-0.0024474178
0.0041730732
0.0013358707
-0.0019038578
-0.0031236598
-0.00052345834
0.00028985125
-0.00045950291
-0.0014463082
-0.0048484519
0.00012234679
0.0042582939
0.000832683
-0.0028217414
-0.0041333111
0.00072017173
0.0032000331
0.00036267807
0.00010227087
-0.0020100298
0.00061880595
0.0040298977