/*--------------------------------*- C++ -*----------------------------------*\
| =========                 |                                                 |
| \\      /  F ield         | OpenFOAM: The Open Source CFD Toolbox           |
|  \\    /   O peration     | Version:  v2106                                 |
|   \\  /    A nd           | Website:  www.openfoam.com                      |
|    \\/     M anipulation  |                                                 |
\*---------------------------------------------------------------------------*/
FoamFile
{
    version     2.0;
    format      ascii;
    arch        "LSB;label=32;scalar=64";
    class       volScalarField;
    location    "32.5";
    object      laplacianT;
}
// * * * * * * * * * * * * * * * * * * * * * * * * * * * * * * * * * * * * * //

dimensions      [0 -2 0 1 0 0 0];

internalField   nonuniform List<scalar> 
4000
(
45316.493
45316.142
45316.41
45316.29
45316.3
45316.321
45316.339
45316.36
45316.383
45316.394
45316.142
45316.393
45316.365
45316.274
45316.29
45316.311
45316.329
45316.352
45316.381
45316.378
45316.41
45316.365
45316.414
45316.337
45316.354
45316.373
45316.39
45316.415
45316.454
45316.427
45316.29
45316.274
45316.337
45316.262
45316.278
45316.294
45316.308
45316.33
45316.373
45316.368
45316.3
45316.29
45316.354
45316.278
45316.292
45316.307
45316.317
45316.336
45316.375
45316.367
45316.321
45316.311
45316.373
45316.294
45316.307
45316.319
45316.328
45316.345
45316.382
45316.372
45316.339
45316.329
45316.39
45316.308
45316.317
45316.328
45316.336
45316.352
45316.388
45316.379
45316.36
45316.352
45316.415
45316.33
45316.336
45316.345
45316.352
45316.369
45316.406
45316.398
45316.383
45316.381
45316.454
45316.373
45316.375
45316.382
45316.388
45316.406
45316.446
45316.438
45316.394
45316.378
45316.427
45316.368
45316.367
45316.372
45316.379
45316.398
45316.438
45316.427
-741.98517
-742.95357
-741.70884
-742.10525
-742.16203
-742.1616
-742.15767
-742.15115
-742.14202
-742.14163
-742.95357
-742.28211
-741.92338
-742.26362
-742.3021
-742.29676
-742.28714
-742.27939
-742.3246
-742.32764
-741.70884
-741.92338
-741.4128
-741.72374
-741.75901
-741.75238
-741.73557
-741.70682
-741.75872
-741.98165
-742.10525
-742.26362
-741.72374
-742.03035
-742.06546
-742.05912
-742.04033
-741.99649
-741.99788
-742.11656
-742.16203
-742.3021
-741.75901
-742.06546
-742.10089
-742.09507
-742.0773
-742.0344
-742.03444
-742.141
-742.1616
-742.29676
-741.75238
-742.05912
-742.09507
-742.08953
-742.07222
-742.03032
-742.03193
-742.13909
-742.15767
-742.28714
-741.73557
-742.04033
-742.0773
-742.07222
-742.05493
-742.01306
-742.01491
-742.12316
-742.15115
-742.27939
-741.70682
-741.99649
-742.0344
-742.03032
-742.01306
-741.97095
-741.97267
-742.08437
-742.14202
-742.3246
-741.75872
-741.99788
-742.03444
-742.03193
-742.01491
-741.97267
-741.97545
-742.10036
-742.14163
-742.32764
-741.98165
-742.11656
-742.141
-742.13909
-742.12316
-742.08437
-742.10036
-742.25607
-784.1883
-785.29073
-783.77985
-784.33384
-784.41183
-784.40927
-784.39922
-784.38667
-784.40343
-784.23902
-785.29073
-784.35175
-783.94897
-784.4243
-784.47755
-784.46561
-784.4388
-784.41596
-784.62987
-784.61479
-783.77985
-783.94897
-783.3483
-783.7857
-783.83496
-783.82108
-783.77967
-783.70349
-783.89462
-784.17416
-784.33384
-784.4243
-783.7857
-784.21747
-784.2667
-784.25372
-784.2099
-784.10917
-784.22131
-784.34593
-784.41183
-784.47755
-783.83496
-784.2667
-784.31645
-784.30445
-784.26259
-784.16341
-784.27313
-784.37698
-784.40927
-784.46561
-783.82108
-784.25372
-784.30445
-784.29292
-784.25182
-784.15417
-784.26616
-784.37002
-784.39922
-784.4388
-783.77967
-784.2099
-784.26259
-784.25182
-784.2107
-784.11297
-784.22516
-784.33167
-784.38667
-784.41596
-783.70349
-784.10917
-784.16341
-784.15417
-784.11297
-784.0147
-784.12712
-784.24807
-784.40343
-784.62987
-783.89462
-784.22131
-784.27313
-784.26616
-784.22516
-784.12712
-784.24562
-784.42854
-784.23902
-784.61479
-784.17416
-784.34593
-784.37698
-784.37002
-784.33167
-784.24807
-784.42854
-784.48063
-823.48272
-824.80775
-823.00379
-823.69481
-823.79204
-823.78661
-823.76677
-823.74419
-823.85001
-823.6327
-824.80775
-823.70892
-823.2252
-823.81916
-823.88599
-823.86646
-823.81444
-823.75014
-824.15754
-824.1413
-823.00379
-823.2252
-822.50349
-823.05186
-823.11411
-823.09268
-823.02088
-822.87625
-823.24725
-823.61176
-823.69481
-823.81916
-823.05186
-823.5934
-823.65573
-823.63585
-823.56134
-823.38287
-823.64905
-823.81704
-823.79204
-823.88599
-823.11411
-823.65573
-823.71878
-823.70029
-823.62856
-823.45191
-823.71426
-823.85404
-823.78661
-823.86646
-823.09268
-823.63585
-823.70029
-823.68246
-823.61175
-823.43697
-823.70195
-823.84082
-823.76677
-823.81444
-823.02088
-823.56134
-823.62856
-823.61175
-823.54091
-823.36572
-823.63044
-823.77329
-823.74419
-823.75014
-822.87625
-823.38287
-823.45191
-823.43697
-823.36572
-823.18932
-823.45474
-823.63034
-823.85001
-824.15754
-823.24725
-823.64905
-823.71426
-823.70195
-823.63044
-823.45474
-823.73916
-824.09441
-823.6327
-824.1413
-823.61176
-823.81704
-823.85404
-823.84082
-823.77329
-823.63034
-824.09441
-823.92339
-859.872
-861.39864
-859.30794
-860.12769
-860.24303
-860.23415
-860.20071
-860.15277
-860.32326
-860.05962
-861.39864
-860.14456
-859.57711
-860.28269
-860.3624
-860.3353
-860.25538
-860.13491
-860.71351
-860.68699
-859.30794
-859.57711
-858.73375
-859.38649
-859.46113
-859.43232
-859.32792
-859.10144
-859.63488
-860.0727
-860.12769
-860.28269
-859.38649
-860.03126
-860.10609
-860.07946
-859.972
-859.70239
-860.1066
-860.30961
-860.24303
-860.3624
-859.46113
-860.10609
-860.18181
-860.15697
-860.05307
-859.78537
-860.18424
-860.35224
-860.23415
-860.3353
-859.43232
-860.07946
-860.15697
-860.13296
-860.03032
-859.76473
-860.16637
-860.33223
-860.20071
-860.25538
-859.32792
-859.972
-860.05307
-860.03032
-859.92736
-859.66077
-860.06098
-860.23115
-860.15277
-860.13491
-859.10144
-859.70239
-859.78537
-859.76473
-859.66077
-859.39142
-859.79102
-860.0132
-860.32326
-860.71351
-859.63488
-860.1066
-860.18424
-860.16637
-860.06098
-859.79102
-860.22153
-860.78032
-860.05962
-860.68699
-860.0727
-860.30961
-860.35224
-860.33223
-860.23115
-860.0132
-860.78032
-860.37725
-893.11286
-894.82387
-892.46554
-893.40762
-893.54018
-893.52798
-893.48075
-893.40448
-893.6301
-893.32185
-894.82387
-893.42459
-892.78027
-893.59182
-893.68383
-893.64959
-893.54209
-893.36279
-894.09975
-894.06161
-892.46554
-892.78027
-891.82391
-892.57576
-892.66223
-892.62648
-892.49
-892.1797
-892.86359
-893.36824
-893.40762
-893.59182
-892.57576
-893.31855
-893.40532
-893.37237
-893.2325
-892.86998
-893.4014
-893.63504
-893.54018
-893.68383
-892.66223
-893.40532
-893.49314
-893.46237
-893.32681
-892.96624
-893.49084
-893.68306
-893.52798
-893.64959
-892.62648
-893.37237
-893.46237
-893.43263
-893.29854
-892.94028
-893.46768
-893.65642
-893.48075
-893.54209
-892.49
-893.2325
-893.32681
-893.29854
-893.16394
-892.80397
-893.32847
-893.52109
-893.40448
-893.36279
-892.1797
-892.86998
-892.96624
-892.94028
-892.80397
-892.43929
-892.96068
-893.22346
-893.6301
-894.09975
-892.86359
-893.4014
-893.49084
-893.46768
-893.32847
-892.96068
-893.52267
-894.28735
-893.32185
-894.06161
-893.36824
-893.63504
-893.68306
-893.65642
-893.52109
-893.22346
-894.28735
-893.65984
-923.03429
-924.9166
-922.31273
-923.37044
-923.51925
-923.50388
-923.44323
-923.33836
-923.61387
-923.26259
-924.9166
-923.38683
-922.6741
-923.58571
-923.68931
-923.64824
-923.51393
-923.27582
-924.15983
-924.10906
-922.31273
-922.6741
-921.61521
-922.46063
-922.55827
-922.51593
-922.34837
-921.95521
-922.77823
-923.34297
-923.37044
-923.58571
-922.46063
-923.29599
-923.39403
-923.3551
-923.18386
-922.72978
-923.37829
-923.63782
-923.51925
-923.68931
-922.55827
-923.39403
-923.49328
-923.45692
-923.29071
-922.8386
-923.47891
-923.69095
-923.50388
-923.64824
-922.51593
-923.3551
-923.45692
-923.42177
-923.25726
-922.80765
-923.45075
-923.65794
-923.44323
-923.51393
-922.34837
-923.18386
-923.29071
-923.25726
-923.09205
-922.63998
-923.27861
-923.48885
-923.33836
-923.27582
-921.95521
-922.72978
-922.8386
-922.80765
-922.63998
-922.18113
-922.81365
-923.11116
-923.61387
-924.15983
-922.77823
-923.37829
-923.47891
-923.45075
-923.27861
-922.81365
-923.49511
-924.45846
-923.26259
-924.10906
-923.34297
-923.63782
-923.69095
-923.65794
-923.48885
-923.11116
-924.45846
-923.61613
-949.50815
-951.54884
-948.72265
-949.8886
-950.05255
-950.03409
-949.96039
-949.82717
-950.14791
-949.7549
-951.54884
-949.90443
-949.13192
-950.13708
-950.25144
-950.2038
-950.04353
-949.74742
-950.76694
-950.70199
-948.72265
-949.13192
-947.98133
-948.91427
-949.02231
-948.97367
-948.77617
-948.30211
-949.25264
-949.86986
-949.8886
-950.13708
-948.91427
-949.8362
-949.94474
-949.90013
-949.69869
-949.1555
-949.91081
-950.19079
-950.05255
-950.25144
-949.02231
-949.94474
-950.05466
-950.01298
-949.81728
-949.27609
-950.02189
-950.24867
-950.03409
-950.2038
-948.97367
-949.90013
-950.01298
-949.97267
-949.77891
-949.24038
-949.98898
-950.20954
-949.96039
-950.04353
-948.77617
-949.69869
-949.81728
-949.77891
-949.58424
-949.04255
-949.78507
-950.00765
-949.82717
-949.74742
-948.30211
-949.1555
-949.27609
-949.24038
-949.04255
-948.49194
-949.22517
-949.55118
-950.14791
-950.76694
-949.25264
-949.91081
-950.02189
-949.98898
-949.78507
-949.22517
-950.01475
-951.16587
-949.7549
-950.70199
-949.86986
-950.19079
-950.24867
-950.20954
-950.00765
-949.55118
-951.16587
-950.11877
-972.4345
-974.62013
-971.59553
-972.86167
-973.03956
-973.01807
-972.93173
-972.77065
-973.13201
-972.69865
-974.62013
-972.87728
-972.05352
-973.14517
-973.26941
-973.21547
-973.0302
-972.67741
-973.82055
-973.73974
-971.59553
-972.05352
-970.82221
-971.83608
-971.95369
-971.89906
-971.6729
-971.1206
-972.18675
-972.84849
-972.86167
-973.14517
-971.83608
-972.83807
-972.95628
-972.90626
-972.67599
-972.04689
-972.89854
-973.19334
-973.03956
-973.26941
-971.95369
-972.95628
-973.07601
-973.02929
-972.80544
-972.17837
-973.01932
-973.25559
-973.01807
-973.21547
-971.89906
-972.90626
-973.02929
-972.98409
-972.76238
-972.13814
-972.98188
-973.2106
-972.93173
-973.0302
-971.6729
-972.67599
-972.80544
-972.76238
-972.53959
-971.91148
-972.74755
-972.97715
-972.77065
-972.67741
-971.1206
-972.04689
-972.17837
-972.13814
-971.91148
-971.27235
-972.09585
-972.44407
-973.13201
-973.82055
-972.18675
-972.89854
-973.01932
-972.98188
-972.74755
-972.09585
-972.98232
-974.30865
-972.69865
-973.73974
-972.84849
-973.19334
-973.25559
-973.2106
-972.97715
-972.44407
-974.30865
-973.06747
-991.73909
-994.0557
-990.85713
-992.21479
-992.40534
-992.38091
-992.28243
-992.0942
-992.49155
-992.01944
-994.0557
-992.23078
-991.36415
-992.5347
-992.66788
-992.60794
-992.39883
-991.99114
-993.2457
-993.1474
-990.85713
-991.36415
-990.06312
-991.15086
-991.27715
-991.21687
-990.96355
-990.33626
-991.50592
-992.20412
-992.21479
-992.5347
-991.15086
-992.22591
-992.35291
-992.29781
-992.04026
-991.32908
-992.26652
-992.57059
-992.40534
-992.66788
-991.27715
-992.35291
-992.48157
-992.43009
-992.1796
-991.47051
-992.39617
-992.63679
-992.38091
-992.60794
-991.21687
-992.29781
-992.43009
-992.38031
-992.13215
-991.42603
-992.35445
-992.58624
-992.28243
-992.39883
-990.96355
-992.04026
-992.1796
-992.13215
-991.88273
-991.17206
-992.09125
-992.3227
-992.0942
-991.99114
-990.33626
-991.32908
-991.47051
-991.42603
-991.17206
-990.4483
-991.35161
-991.71585
-992.49155
-993.2457
-991.50592
-992.26652
-992.39617
-992.35445
-992.09125
-991.35161
-992.32376
-993.81172
-992.01944
-993.1474
-992.20412
-992.57059
-992.63679
-992.58624
-992.3227
-991.71585
-993.81172
-992.38789
-1007.3723
-1009.8054
-1006.4577
-1007.8977
-1008.0995
-1008.0723
-1007.9622
-1007.7478
-1008.1765
-1007.6675
-1009.8054
-1007.9148
-1007.0135
-1008.2549
-1008.396
-1008.3305
-1008.0988
-1007.6385
-1008.992
-1008.8747
-1006.4577
-1007.0135
-1005.6537
-1006.8078
-1006.9419
-1006.8763
-1006.5975
-1005.8991
-1007.16
-1007.8866
-1007.8977
-1008.2549
-1006.8078
-1007.9485
-1008.0834
-1008.0236
-1007.7405
-1006.9517
-1007.9643
-1008.2723
-1008.0995
-1008.396
-1006.9419
-1008.0834
-1008.2201
-1008.1642
-1007.8887
-1007.1021
-1008.1019
-1008.342
-1008.0723
-1008.3305
-1006.8763
-1008.0236
-1008.1642
-1008.1101
-1007.8372
-1007.0536
-1008.0562
-1008.2862
-1007.9622
-1008.0988
-1006.5975
-1007.7405
-1007.8887
-1007.8372
-1007.5628
-1006.774
-1007.7659
-1007.9943
-1007.7478
-1007.6385
-1005.8991
-1006.9517
-1007.1021
-1007.0536
-1006.774
-1005.9701
-1006.9428
-1007.3171
-1008.1765
-1008.992
-1007.16
-1007.9643
-1008.1019
-1008.0562
-1007.7659
-1006.9428
-1007.9895
-1009.6247
-1007.6675
-1008.8747
-1007.8866
-1008.2723
-1008.342
-1008.2862
-1007.9943
-1007.3171
-1009.6247
-1008.0304
-1019.3079
-1021.8427
-1018.3708
-1019.8834
-1020.0951
-1020.0652
-1019.9442
-1019.7048
-1020.1602
-1019.6164
-1021.8427
-1019.9027
-1018.9745
-1020.2784
-1020.4265
-1020.3557
-1020.103
-1019.5926
-1021.0325
-1020.895
-1018.3708
-1018.9745
-1017.5669
-1018.7795
-1018.9204
-1018.85
-1018.5475
-1017.7822
-1019.1222
-1019.8693
-1019.8834
-1020.2784
-1018.7795
-1019.9781
-1020.1199
-1020.0557
-1019.749
-1018.8875
-1019.9648
-1020.2716
-1020.0951
-1020.4265
-1018.9204
-1020.1199
-1020.2636
-1020.2036
-1019.9051
-1019.0458
-1020.1095
-1020.3444
-1020.0652
-1020.3557
-1018.85
-1020.0557
-1020.2036
-1020.1456
-1019.8498
-1018.9937
-1020.0601
-1020.2837
-1019.9442
-1020.103
-1018.5475
-1019.749
-1019.9051
-1019.8498
-1019.5523
-1018.6904
-1019.7446
-1019.9652
-1019.7048
-1019.5926
-1017.7822
-1018.8875
-1019.0458
-1018.9937
-1018.6904
-1017.8115
-1018.8432
-1019.2217
-1020.1602
-1021.0325
-1019.1222
-1019.9648
-1020.1095
-1020.0601
-1019.7446
-1018.8432
-1019.9533
-1021.7209
-1019.6164
-1020.895
-1019.8693
-1020.2716
-1020.3444
-1020.2837
-1019.9652
-1019.2217
-1021.7209
-1019.9689
-1027.5418
-1030.163
-1026.592
-1028.1671
-1028.3873
-1028.3549
-1028.2238
-1027.9606
-1028.4382
-1027.8621
-1030.163
-1028.1897
-1027.2423
-1028.5998
-1028.7538
-1028.6782
-1028.4061
-1027.8487
-1029.3624
-1029.2036
-1026.592
-1027.2423
-1025.7975
-1027.0605
-1027.2072
-1027.1324
-1026.8083
-1025.9809
-1027.3877
-1028.1476
-1028.1671
-1028.5998
-1027.0605
-1028.3089
-1028.4566
-1028.3885
-1028.0601
-1027.1316
-1028.2632
-1028.564
-1028.3873
-1028.7538
-1027.2072
-1028.4566
-1028.6063
-1028.5427
-1028.223
-1027.2967
-1028.4139
-1028.6393
-1028.3549
-1028.6782
-1027.1324
-1028.3885
-1028.5427
-1028.4812
-1028.1644
-1027.2413
-1028.3612
-1028.5742
-1028.2238
-1028.4061
-1026.8083
-1028.0601
-1028.223
-1028.1644
-1027.8458
-1026.9163
-1028.0225
-1028.2312
-1027.9606
-1027.8487
-1025.9809
-1027.1316
-1027.2967
-1027.2413
-1026.9163
-1025.9679
-1027.0485
-1027.4258
-1028.4382
-1029.3624
-1027.3877
-1028.2632
-1028.4139
-1028.3612
-1028.0225
-1027.0485
-1028.211
-1030.0956
-1027.8621
-1029.2036
-1028.1476
-1028.564
-1028.6393
-1028.5742
-1028.2312
-1027.4258
-1030.0956
-1028.1996
-1032.091
-1034.783
-1031.1379
-1032.7651
-1032.9923
-1032.9575
-1032.8171
-1032.5318
-1033.0271
-1032.4212
-1034.783
-1032.792
-1031.8327
-1033.2349
-1033.3937
-1033.3138
-1033.024
-1032.423
-1033.9978
-1033.817
-1031.1379
-1031.8327
-1030.3613
-1031.6662
-1031.8177
-1031.739
-1031.3954
-1030.5113
-1031.9727
-1032.738
-1032.7651
-1033.2349
-1031.6662
-1032.9562
-1033.1087
-1033.0372
-1032.6894
-1031.6996
-1032.8752
-1033.1657
-1032.9923
-1033.3937
-1031.8177
-1033.1087
-1033.2634
-1033.1966
-1032.8579
-1031.8705
-1033.0311
-1033.243
-1032.9575
-1033.3138
-1031.739
-1033.0372
-1033.1966
-1033.1319
-1032.7963
-1031.8122
-1032.9753
-1033.1739
-1032.8171
-1033.024
-1031.3954
-1032.6894
-1032.8579
-1032.7963
-1032.4587
-1031.4676
-1032.6158
-1032.8087
-1032.5318
-1032.423
-1030.5113
-1031.6996
-1031.8705
-1031.8122
-1031.4676
-1030.4559
-1031.5754
-1031.9463
-1033.0271
-1033.9978
-1031.9727
-1032.8752
-1033.0311
-1032.9753
-1032.6158
-1031.5754
-1032.7797
-1034.7655
-1032.4212
-1033.817
-1032.738
-1033.1657
-1033.243
-1033.1739
-1032.8087
-1031.9463
-1034.7655
-1032.7395
-1032.9921
-1035.7391
-1032.0446
-1033.7132
-1033.9458
-1033.9089
-1033.7601
-1033.4544
-1033.9631
-1033.3304
-1035.7391
-1033.7455
-1032.7813
-1034.2189
-1034.3815
-1034.2978
-1033.9922
-1033.3513
-1034.9748
-1034.7716
-1032.0446
-1032.7813
-1031.2935
-1032.6318
-1032.787
-1032.7049
-1032.3441
-1031.4089
-1032.9131
-1033.6767
-1033.7132
-1034.2189
-1032.6318
-1033.9547
-1034.1112
-1034.0366
-1033.6717
-1032.6272
-1033.8368
-1034.1129
-1033.9458
-1034.3815
-1032.787
-1034.1112
-1034.2698
-1034.2001
-1033.8448
-1032.8027
-1033.9968
-1034.1918
-1033.9089
-1034.2978
-1032.7049
-1034.0366
-1034.2001
-1034.1328
-1033.7805
-1032.7418
-1033.9384
-1034.1191
-1033.7601
-1033.9922
-1032.3441
-1033.6717
-1033.8448
-1033.7805
-1033.4262
-1032.3799
-1033.5603
-1033.734
-1033.4544
-1033.3513
-1031.4089
-1032.6272
-1032.8027
-1032.7418
-1032.3799
-1031.3114
-1032.4602
-1032.8201
-1033.9631
-1034.9748
-1032.9131
-1033.8368
-1033.9968
-1033.9384
-1033.5603
-1032.4602
-1033.6958
-1035.7671
-1033.3304
-1034.7716
-1033.6767
-1034.1129
-1034.1918
-1034.1191
-1033.734
-1032.8201
-1035.7671
-1033.6256
-1030.3004
-1033.0864
-1029.3668
-1031.066
-1031.3025
-1031.2637
-1031.1074
-1030.7831
-1031.301
-1030.6447
-1033.0864
-1031.1048
-1030.1422
-1031.6058
-1031.7711
-1031.6842
-1031.3648
-1030.688
-1032.348
-1032.1221
-1029.3668
-1030.1422
-1028.6479
-1030.0108
-1030.1688
-1030.0839
-1029.7082
-1028.7279
-1030.2633
-1031.0185
-1031.066
-1031.6058
-1030.0108
-1031.3581
-1031.5174
-1031.4404
-1031.0607
-1029.9682
-1031.2023
-1031.4604
-1031.3025
-1031.7711
-1030.1688
-1031.5174
-1031.6789
-1031.607
-1031.2373
-1030.1472
-1031.3652
-1031.5404
-1031.2637
-1031.6842
-1030.0839
-1031.4404
-1031.607
-1031.5374
-1031.1708
-1030.0842
-1031.3046
-1031.4646
-1031.1074
-1031.3648
-1029.7082
-1031.0607
-1031.2373
-1031.1708
-1030.8021
-1029.7074
-1030.9105
-1031.0621
-1030.7831
-1030.688
-1028.7279
-1029.9682
-1030.1472
-1030.0842
-1029.7074
-1028.589
-1029.7577
-1030.1023
-1031.301
-1032.348
-1030.2633
-1031.2023
-1031.3652
-1031.3046
-1030.9105
-1029.7577
-1031.0146
-1033.1554
-1030.6447
-1032.1221
-1031.0185
-1031.4604
-1031.5404
-1031.4646
-1031.0621
-1030.1023
-1033.1554
-1030.9134
-1024.0885
-1026.8975
-1023.1766
-1024.8954
-1025.1342
-1025.0938
-1024.9311
-1024.5903
-1025.1133
-1024.4367
-1026.8975
-1024.9418
-1023.987
-1025.4672
-1025.6341
-1025.5444
-1025.2133
-1024.5051
-1026.1894
-1025.941
-1023.1766
-1023.987
-1022.4958
-1023.8745
-1024.0342
-1023.947
-1023.5589
-1022.5399
-1024.0952
-1024.8356
-1024.8954
-1025.4672
-1023.8745
-1025.2375
-1025.3986
-1025.3195
-1024.9277
-1023.7942
-1025.0433
-1025.2804
-1025.1342
-1025.6341
-1024.0342
-1025.3986
-1025.5619
-1025.4881
-1025.1065
-1023.9755
-1025.2082
-1025.361
-1025.0938
-1025.5444
-1023.947
-1025.3195
-1025.4881
-1025.4167
-1025.0383
-1023.9108
-1025.1458
-1025.2826
-1024.9311
-1025.2133
-1023.5589
-1024.9277
-1025.1065
-1025.0383
-1024.6576
-1023.5216
-1024.7382
-1024.8654
-1024.5903
-1024.5051
-1022.5399
-1023.7942
-1023.9755
-1023.9108
-1023.5216
-1022.3605
-1023.5402
-1023.8658
-1025.1133
-1026.1894
-1024.0952
-1025.0433
-1025.2082
-1025.1458
-1024.7382
-1023.5402
-1024.8087
-1027.0033
-1024.4367
-1025.941
-1024.8356
-1025.2804
-1025.361
-1025.2826
-1024.8654
-1023.8658
-1027.0033
-1024.6759
-1014.4457
-1017.2613
-1013.5623
-1015.2898
-1015.5295
-1015.4876
-1015.3195
-1014.9644
-1015.4887
-1014.7955
-1017.2613
-1015.3447
-1014.4034
-1015.8907
-1016.0582
-1015.9664
-1015.6257
-1014.8905
-1016.5875
-1016.3172
-1013.5623
-1014.4034
-1012.9246
-1014.3102
-1014.4707
-1014.3818
-1013.9838
-1012.9326
-1014.4968
-1015.2169
-1015.2898
-1015.8907
-1014.3102
-1015.6802
-1015.8421
-1015.7616
-1015.36
-1014.193
-1015.4481
-1015.6618
-1015.5295
-1016.0582
-1014.4707
-1015.8421
-1016.0062
-1015.931
-1015.54
-1014.3754
-1015.614
-1015.7424
-1015.4876
-1015.9664
-1014.3818
-1015.7616
-1015.931
-1015.8583
-1015.4705
-1014.3094
-1015.5502
-1015.6619
-1015.3195
-1015.6257
-1013.9838
-1015.36
-1015.54
-1015.4705
-1015.0804
-1013.9104
-1015.1318
-1015.2326
-1014.9644
-1014.8905
-1012.9326
-1014.193
-1014.3754
-1014.3094
-1013.9104
-1012.7141
-1013.8962
-1014.1997
-1015.4887
-1016.5875
-1014.4968
-1015.4481
-1015.614
-1015.5502
-1015.1318
-1013.8962
-1015.1672
-1017.3999
-1014.7955
-1016.3172
-1015.2169
-1015.6618
-1015.7424
-1015.6619
-1015.2326
-1014.1997
-1017.3999
-1015.0028
-1001.4761
-1004.2823
-1000.6278
-1002.3529
-1002.5919
-1002.5489
-1002.3765
-1002.0094
-1002.5312
-1001.8253
-1004.2823
-1002.4171
-1001.4947
-1002.9798
-1003.1467
-1003.0534
-1002.7054
-1001.948
-1003.6462
-1003.355
-1000.6278
-1001.4947
-1000.037
-1001.4209
-1001.5811
-1001.491
-1001.0857
-1000.0092
-1001.5719
-1002.2663
-1002.3529
-1002.9798
-1001.4209
-1002.7891
-1002.9507
-1002.8693
-1002.4607
-1001.2676
-1002.5203
-1002.7085
-1002.5919
-1003.1467
-1001.5811
-1002.9507
-1003.1146
-1003.0386
-1002.6406
-1001.45
-1002.6861
-1002.7886
-1002.5489
-1003.0534
-1001.491
-1002.8693
-1003.0386
-1002.965
-1002.5704
-1001.3832
-1002.6213
-1002.7066
-1002.3765
-1002.7054
-1001.0857
-1002.4607
-1002.6406
-1002.5704
-1002.1733
-1000.9769
-1002.1949
-1002.268
-1002.0094
-1001.948
-1000.0092
-1001.2676
-1001.45
-1001.3832
-1000.9769
-999.75315
-1000.9297
-1001.2083
-1002.5312
-1003.6462
-1001.5719
-1002.5203
-1002.6861
-1002.6213
-1002.1949
-1000.9297
-1002.1945
-1004.4498
-1001.8253
-1003.355
-1002.2663
-1002.7085
-1002.7886
-1002.7066
-1002.268
-1001.2083
-1004.4498
-1001.9987
-985.29871
-988.07937
-984.49095
-986.20282
-986.43967
-986.39586
-986.22025
-985.84348
-986.35948
-985.64474
-988.07937
-986.27688
-985.37837
-986.85181
-987.01723
-986.92304
-986.56991
-985.7952
-987.48382
-987.17296
-984.49095
-985.37837
-983.95013
-985.32357
-985.48244
-985.39184
-984.98188
-983.88697
-985.4382
-986.10235
-986.20282
-986.85181
-985.32357
-986.68152
-986.84185
-986.76001
-986.34704
-985.1356
-986.37781
-986.53898
-986.43967
-987.01723
-985.48244
-986.84185
-987.00449
-986.92809
-986.52582
-985.31683
-986.54248
-986.61816
-986.39586
-986.92304
-985.39184
-986.76001
-986.92809
-986.85417
-986.45522
-985.2496
-986.47705
-986.53513
-986.22025
-986.56991
-984.98188
-986.34704
-986.52582
-986.45522
-986.05373
-984.83867
-986.04535
-986.09004
-985.84348
-985.7952
-983.88697
-985.1356
-985.31683
-985.2496
-984.83867
-983.59537
-984.75873
-985.0103
-986.35948
-987.48382
-985.4382
-986.37781
-986.54248
-986.47705
-986.04535
-984.75873
-986.00907
-988.27218
-985.64474
-987.17296
-986.10235
-986.53898
-986.61816
-986.53513
-986.09004
-985.0103
-988.27218
-985.78283
-966.04534
-968.78456
-965.28299
-966.97096
-967.20417
-967.15983
-966.98218
-966.5982
-967.10513
-966.38581
-968.78456
-967.05535
-966.18521
-967.63788
-967.80075
-967.70628
-967.35035
-966.5634
-968.23198
-967.90304
-965.28299
-966.18521
-964.79432
-966.14876
-966.30536
-966.21481
-965.80283
-964.69661
-966.22685
-966.85664
-966.97096
-967.63788
-966.14876
-967.48795
-967.64605
-967.56434
-967.14962
-965.92764
-967.1518
-967.28502
-967.20417
-967.80075
-966.30536
-967.64605
-967.80644
-967.73018
-967.32617
-966.10661
-967.31431
-967.36276
-967.15983
-967.70628
-966.21481
-967.56434
-967.73018
-967.65638
-967.25569
-966.03941
-967.24874
-967.27925
-966.98218
-967.35035
-965.80283
-967.14962
-967.32617
-967.25569
-966.85241
-965.62649
-966.81451
-966.83056
-966.5982
-966.5634
-964.69661
-965.92764
-966.10661
-966.03941
-965.62649
-964.37164
-965.51474
-965.73777
-967.10513
-968.23198
-966.22685
-967.1518
-967.31431
-967.24874
-966.81451
-965.51474
-966.74302
-968.99938
-966.38581
-967.90304
-966.85664
-967.28502
-967.36276
-967.27925
-966.83056
-965.73777
-968.99938
-966.48762
-943.86038
-946.5425
-943.14752
-944.80111
-945.02927
-944.9847
-944.80616
-944.41749
-944.91236
-944.19278
-946.5425
-944.89607
-944.0584
-945.48135
-945.6407
-945.54658
-945.19013
-944.39609
-946.0347
-945.68968
-943.14752
-944.0584
-942.71224
-944.03934
-944.19274
-944.10283
-943.69147
-942.58108
-944.08139
-944.67333
-944.80111
-945.48135
-944.03934
-945.35154
-945.50646
-945.42541
-945.01159
-943.7869
-944.98595
-945.09082
-945.02927
-945.6407
-944.19274
-945.50646
-945.66363
-945.58799
-945.18484
-943.96252
-945.14531
-945.16663
-944.9847
-945.54658
-944.10283
-945.42541
-945.58799
-945.51481
-945.11493
-943.89581
-945.08004
-945.08319
-944.80616
-945.19013
-943.69147
-945.01159
-945.18484
-945.11493
-944.71244
-943.48353
-944.64605
-944.63376
-944.41749
-944.39609
-942.58108
-943.7869
-943.96252
-943.89581
-943.48353
-942.22519
-943.34148
-943.53495
-944.91236
-946.0347
-944.08139
-944.98595
-945.14531
-945.08004
-944.64605
-943.34148
-944.54061
-946.77629
-944.19278
-945.68968
-944.67333
-945.09082
-945.16663
-945.08319
-944.63376
-943.53495
-946.77629
-944.25788
-918.89957
-921.50921
-918.23948
-919.84853
-920.07026
-920.02577
-919.8475
-919.4567
-919.93676
-919.22135
-921.50921
-919.95408
-919.15257
-920.53709
-920.69199
-920.59883
-920.24417
-919.44823
-921.04752
-920.6887
-918.23948
-919.15257
-917.85799
-919.14966
-919.29896
-919.21027
-918.80215
-917.69476
-919.15677
-919.70798
-919.84853
-920.53709
-919.14966
-920.42687
-920.57768
-920.49782
-920.08754
-918.86799
-920.03539
-920.112
-920.07026
-920.69199
-919.29896
-920.57768
-920.73071
-920.65619
-920.25645
-919.0392
-920.19063
-920.18542
-920.02577
-920.59883
-919.21027
-920.49782
-920.65619
-920.58409
-920.18757
-918.9734
-920.12609
-920.10258
-919.8475
-920.24417
-918.80215
-920.08754
-920.25645
-920.18757
-919.78843
-918.5644
-919.6951
-919.65529
-919.4567
-919.44823
-917.69476
-918.86799
-919.0392
-918.9734
-918.5644
-917.31063
-918.3941
-918.55755
-919.93676
-921.04752
-919.15677
-920.03539
-920.19063
-920.12609
-919.6951
-918.3941
-919.55757
-921.75926
-919.22135
-920.6887
-919.70798
-920.112
-920.18542
-920.10258
-919.65529
-918.55755
-921.75926
-919.24982
-891.32907
-893.85127
-890.72428
-892.27899
-892.49296
-892.44887
-892.27203
-891.88166
-892.34442
-891.6377
-893.85127
-892.39493
-891.63282
-892.97055
-893.12011
-893.02852
-892.67793
-891.88531
-893.43649
-893.06649
-890.72428
-891.63282
-890.39619
-891.64461
-891.78894
-891.70206
-891.29977
-890.20249
-891.61844
-892.12664
-892.27899
-892.97055
-891.64461
-892.87911
-893.02495
-892.9468
-892.54264
-891.33602
-892.46576
-892.51471
-892.49296
-893.12011
-891.78894
-893.02495
-893.17293
-893.10002
-892.70621
-891.50181
-892.61594
-892.5853
-892.44887
-893.02852
-891.70206
-892.9468
-893.10002
-893.02947
-892.63881
-891.43735
-892.55255
-892.50361
-892.27203
-892.67793
-891.29977
-892.54264
-892.70621
-892.63881
-892.24554
-891.0342
-892.1273
-892.06128
-891.88166
-891.88531
-890.20249
-891.33602
-891.50181
-891.43735
-891.0342
-889.79302
-890.83819
-890.97169
-892.34442
-893.43649
-891.61844
-892.46576
-892.61594
-892.55255
-892.1273
-890.83819
-891.96008
-894.11515
-891.6377
-893.06649
-892.12664
-892.51471
-892.5853
-892.50361
-892.06128
-890.97169
-894.11515
-891.63011
-861.32461
-863.74485
-860.77689
-862.26784
-862.47282
-862.42942
-862.25516
-861.86781
-862.31101
-861.61755
-863.74485
-862.39375
-861.67389
-862.95681
-863.10018
-863.01078
-862.66649
-861.8824
-863.3773
-862.99902
-860.77689
-861.67389
-860.501
-861.69872
-861.83726
-861.75274
-861.35883
-860.2787
-861.64143
-862.10493
-862.26784
-862.95681
-861.69872
-862.88312
-863.02315
-862.9472
-862.55171
-861.36571
-862.45233
-862.4747
-862.47282
-863.10018
-861.83726
-863.02315
-863.16525
-863.09441
-862.709
-861.52509
-862.59656
-862.54204
-862.42942
-863.01078
-861.75274
-862.9472
-863.09441
-863.02587
-862.64352
-861.4624
-862.53472
-862.46201
-862.25516
-862.66649
-861.35883
-862.55171
-862.709
-862.64352
-862.25858
-861.06764
-862.11789
-862.02746
-861.86781
-861.8824
-860.2787
-861.36571
-861.52509
-861.4624
-861.06764
-859.84694
-860.8489
-860.95305
-862.31101
-863.3773
-861.64143
-862.45233
-862.59656
-862.53472
-862.11789
-860.8489
-861.92389
-864.02047
-861.61755
-862.99902
-862.10493
-862.4747
-862.54204
-862.46201
-862.02746
-860.95305
-864.02047
-861.57496
-829.07049
-831.37482
-828.58088
-829.99913
-830.19392
-830.15154
-829.98098
-829.59921
-830.02085
-829.34525
-831.37482
-830.13436
-829.4592
-830.67969
-830.81606
-830.72944
-830.39366
-829.62325
-831.05432
-830.67093
-828.58088
-829.4592
-828.35531
-829.49522
-829.62719
-829.54559
-829.16253
-828.10647
-829.40945
-829.82716
-829.99913
-830.67969
-829.49522
-830.62251
-830.75593
-830.68269
-830.29833
-829.14047
-830.17906
-830.17638
-830.19392
-830.81606
-829.62719
-830.75593
-830.89135
-830.82304
-830.44844
-829.29254
-830.31648
-830.24008
-830.15154
-830.72944
-829.54559
-830.68269
-830.82304
-830.75696
-830.3853
-829.23201
-830.2566
-830.16222
-829.98098
-830.39366
-829.16253
-830.29833
-830.44844
-830.3853
-830.0111
-828.84811
-829.8508
-829.73819
-829.59921
-829.62325
-828.10647
-829.14047
-829.29254
-829.23201
-828.84811
-827.65565
-828.61002
-828.68589
-830.02085
-831.05432
-829.40945
-830.17906
-830.31648
-830.2566
-829.8508
-828.61002
-829.63337
-831.66038
-829.34525
-830.67093
-829.82716
-830.17638
-830.24008
-830.16222
-829.73819
-828.68589
-831.66038
-829.26917
-794.75873
-796.93379
-794.32756
-795.66467
-795.84818
-795.8071
-795.64136
-795.26771
-795.66602
-795.01287
-796.93379
-795.80835
-795.17992
-796.33082
-796.45946
-796.37619
-796.05106
-795.29938
-796.65974
-796.27465
-794.32756
-795.17992
-794.14973
-795.22516
-795.34983
-795.27168
-794.90186
-793.87663
-795.11397
-795.48536
-795.66467
-796.33082
-795.22516
-796.28872
-796.41481
-796.34475
-795.9739
-794.85151
-795.8377
-795.81195
-795.84818
-796.45946
-795.34983
-796.41481
-796.54279
-796.47746
-796.11598
-794.99539
-795.96752
-795.87162
-795.8071
-796.37619
-795.27168
-796.34475
-796.47746
-796.41425
-796.0556
-794.93742
-795.90997
-795.79643
-795.64136
-796.05106
-794.90186
-795.9739
-796.11598
-796.0556
-795.69445
-794.56677
-795.51774
-795.38558
-795.26771
-795.29938
-793.87663
-794.85151
-794.99539
-794.93742
-794.56677
-793.41009
-794.31305
-794.36219
-795.66602
-796.65974