/*--------------------------------*- C++ -*----------------------------------*\
| =========                 |                                                 |
| \\      /  F ield         | OpenFOAM: The Open Source CFD Toolbox           |
|  \\    /   O peration     | Version:  v2106                                 |
|   \\  /    A nd           | Website:  www.openfoam.com                      |
|    \\/     M anipulation  |                                                 |
\*---------------------------------------------------------------------------*/
FoamFile
{
    version     2.0;
    format      ascii;
    arch        "LSB;label=32;scalar=64";
    class       volScalarField;
    location    "32.5";
    object      T;
}
// * * * * * * * * * * * * * * * * * * * * * * * * * * * * * * * * * * * * * //

dimensions      [0 0 0 1 0 0 0];

internalField   nonuniform List<scalar> 
4000
(
275.37817
275.37817
275.37816
275.37816
275.37817
275.37817
275.37817
275.37817
275.37817
275.37817
275.37817
275.37817
275.37816
275.37816
275.37816
275.37816
275.37816
275.37817
275.37817
275.37817
275.37816
275.37816
275.37815
275.37816
275.37816
275.37816
275.37816
275.37816
275.37816
275.37816
275.37816
275.37816
275.37816
275.37816
275.37816
275.37816
275.37816
275.37816
275.37816
275.37816
275.37817
275.37816
275.37816
275.37816
275.37816
275.37816
275.37816
275.37816
275.37816
275.37817
275.37817
275.37816
275.37816
275.37816
275.37816
275.37816
275.37816
275.37816
275.37816
275.37817
275.37817
275.37816
275.37816
275.37816
275.37816
275.37816
275.37816
275.37816
275.37816
275.37817
275.37817
275.37817
275.37816
275.37816
275.37816
275.37816
275.37816
275.37816
275.37816
275.37817
275.37817
275.37817
275.37816
275.37816
275.37816
275.37816
275.37816
275.37816
275.37817
275.37817
275.37817
275.37817
275.37816
275.37816
275.37817
275.37817
275.37817
275.37817
275.37817
275.37817
284.66615
284.66616
284.66612
284.66612
284.66613
284.66613
284.66614
284.66614
284.66615
284.66615
284.66616
284.66614
284.66611
284.66612
284.66612
284.66613
284.66613
284.66614
284.66615
284.66615
284.66612
284.66611
284.66609
284.66609
284.6661
284.6661
284.66611
284.66611
284.66612
284.66613
284.66612
284.66612
284.66609
284.6661
284.66611
284.66611
284.66611
284.66611
284.66612
284.66613
284.66613
284.66612
284.6661
284.66611
284.66611
284.66611
284.66612
284.66612
284.66613
284.66613
284.66613
284.66613
284.6661
284.66611
284.66611
284.66612
284.66612
284.66612
284.66613
284.66614
284.66614
284.66613
284.66611
284.66611
284.66612
284.66612
284.66612
284.66612
284.66613
284.66614
284.66614
284.66614
284.66611
284.66611
284.66612
284.66612
284.66612
284.66612
284.66613
284.66614
284.66615
284.66615
284.66612
284.66612
284.66613
284.66613
284.66613
284.66613
284.66614
284.66615
284.66615
284.66615
284.66613
284.66613
284.66613
284.66614
284.66614
284.66614
284.66615
284.66616
293.87992
293.87992
293.87987
293.87987
293.87988
293.87989
293.8799
293.87991
293.87992
293.87992
293.87992
293.87989
293.87985
293.87986
293.87987
293.87988
293.87989
293.8799
293.87991
293.87992
293.87987
293.87985
293.87982
293.87983
293.87984
293.87985
293.87985
293.87986
293.87988
293.8799
293.87987
293.87986
293.87983
293.87984
293.87985
293.87985
293.87986
293.87986
293.87988
293.8799
293.87988
293.87987
293.87984
293.87985
293.87986
293.87986
293.87986
293.87987
293.87988
293.8799
293.87989
293.87988
293.87985
293.87985
293.87986
293.87987
293.87987
293.87987
293.87989
293.8799
293.8799
293.87989
293.87985
293.87986
293.87986
293.87987
293.87987
293.87987
293.87989
293.8799
293.87991
293.8799
293.87986
293.87986
293.87987
293.87987
293.87987
293.87988
293.87989
293.87991
293.87992
293.87991
293.87988
293.87988
293.87988
293.87989
293.87989
293.87989
293.87991
293.87993
293.87992
293.87992
293.8799
293.8799
293.8799
293.8799
293.8799
293.87991
293.87993
293.87994
303.01525
303.01526
303.01519
303.0152
303.01521
303.01522
303.01523
303.01524
303.01526
303.01527
303.01526
303.01522
303.01517
303.01518
303.0152
303.01521
303.01521
303.01523
303.01526
303.01527
303.01519
303.01517
303.01513
303.01514
303.01516
303.01516
303.01517
303.01518
303.01522
303.01524
303.0152
303.01518
303.01514
303.01516
303.01517
303.01518
303.01518
303.01519
303.01522
303.01524
303.01521
303.0152
303.01516
303.01517
303.01518
303.01519
303.01519
303.01519
303.01522
303.01524
303.01522
303.01521
303.01516
303.01518
303.01519
303.01519
303.01519
303.0152
303.01522
303.01524
303.01523
303.01521
303.01517
303.01518
303.01519
303.01519
303.01519
303.0152
303.01522
303.01524
303.01524
303.01523
303.01518
303.01519
303.01519
303.0152
303.0152
303.0152
303.01523
303.01525
303.01526
303.01526
303.01522
303.01522
303.01522
303.01522
303.01522
303.01523
303.01526
303.01529
303.01527
303.01527
303.01524
303.01524
303.01524
303.01524
303.01524
303.01525
303.01529
303.0153
312.06822
312.06823
312.06815
312.06816
312.06818
312.06819
312.0682
312.06822
312.06825
312.06825
312.06823
312.06818
312.06813
312.06814
312.06816
312.06817
312.06818
312.0682
312.06824
312.06826
312.06815
312.06813
312.06808
312.0681
312.06811
312.06812
312.06813
312.06814
312.06819
312.06822
312.06816
312.06814
312.0681
312.06811
312.06813
312.06814
312.06814
312.06815
312.06819
312.06822
312.06818
312.06816
312.06811
312.06813
312.06814
312.06815
312.06815
312.06816
312.06819
312.06822
312.06819
312.06817
312.06812
312.06814
312.06815
312.06816
312.06815
312.06816
312.06819
312.06822
312.0682
312.06818
312.06813
312.06814
312.06815
312.06815
312.06815
312.06816
312.06819
312.06822
312.06822
312.0682
312.06814
312.06815
312.06816
312.06816
312.06816
312.06816
312.0682
312.06823
312.06825
312.06824
312.06819
312.06819
312.06819
312.06819
312.06819
312.0682
312.06824
312.06828
312.06825
312.06826
312.06822
312.06822
312.06822
312.06822
312.06822
312.06823
312.06828
312.06829
321.03519
321.0352
321.03511
321.03512
321.03514
321.03516
321.03517
321.03519
321.03522
321.03523
321.0352
321.03514
321.03508
321.0351
321.03512
321.03514
321.03515
321.03516
321.03521
321.03524
321.03511
321.03508
321.03503
321.03505
321.03507
321.03508
321.03509
321.0351
321.03516
321.0352
321.03512
321.0351
321.03505
321.03507
321.03509
321.0351
321.0351
321.03511
321.03516
321.03519
321.03514
321.03512
321.03507
321.03509
321.03511
321.03511
321.03511
321.03512
321.03516
321.0352
321.03516
321.03514
321.03508
321.0351
321.03511
321.03512
321.03511
321.03512
321.03516
321.03519
321.03517
321.03515
321.03509
321.0351
321.03511
321.03511
321.03511
321.03511
321.03516
321.03519
321.03519
321.03516
321.0351
321.03511
321.03512
321.03512
321.03511
321.03512
321.03517
321.0352
321.03522
321.03521
321.03516
321.03516
321.03516
321.03516
321.03516
321.03517
321.03522
321.03527
321.03523
321.03524
321.0352
321.03519
321.0352
321.03519
321.03519
321.0352
321.03527
321.03528
329.91282
329.91283
329.91274
329.91275
329.91278
329.91279
329.91281
329.91283
329.91286
329.91287
329.91283
329.91278
329.91271
329.91274
329.91276
329.91277
329.91278
329.9128
329.91286
329.91289
329.91274
329.91271
329.91266
329.91268
329.9127
329.91271
329.91272
329.91273
329.91279
329.91284
329.91275
329.91274
329.91268
329.9127
329.91272
329.91273
329.91273
329.91274
329.91279
329.91284
329.91278
329.91276
329.9127
329.91272
329.91274
329.91275
329.91274
329.91275
329.9128
329.91284
329.91279
329.91277
329.91271
329.91273
329.91275
329.91275
329.91274
329.91274
329.9128
329.91283
329.91281
329.91278
329.91272
329.91273
329.91274
329.91274
329.91274
329.91274
329.91279
329.91283
329.91283
329.9128
329.91273
329.91274
329.91275
329.91274
329.91274
329.91274
329.9128
329.91284
329.91286
329.91286
329.91279
329.91279
329.9128
329.9128
329.91279
329.9128
329.91286
329.91292
329.91287
329.91289
329.91284
329.91284
329.91284
329.91283
329.91283
329.91284
329.91292
329.91293
338.69814
338.69815
338.69804
338.69806
338.69809
338.69811
338.69812
338.69814
338.69818
338.69819
338.69815
338.69809
338.69802
338.69804
338.69807
338.69808
338.69809
338.69811
338.69817
338.6982
338.69804
338.69802
338.69796
338.69799
338.69801
338.69802
338.69802
338.69803
338.6981
338.69816
338.69806
338.69804
338.69799
338.69801
338.69804
338.69804
338.69804
338.69804
338.69811
338.69815
338.69809
338.69807
338.69801
338.69804
338.69806
338.69806
338.69805
338.69805
338.69811
338.69815
338.69811
338.69808
338.69802
338.69804
338.69806
338.69806
338.69805
338.69805
338.6981
338.69815
338.69812
338.69809
338.69802
338.69804
338.69805
338.69805
338.69804
338.69804
338.69809
338.69814
338.69814
338.69811
338.69803
338.69804
338.69805
338.69805
338.69804
338.69804
338.6981
338.69815
338.69818
338.69817
338.6981
338.69811
338.69811
338.6981
338.69809
338.6981
338.69817
338.69824
338.69819
338.6982
338.69816
338.69815
338.69815
338.69815
338.69814
338.69815
338.69824
338.69825
347.38847
347.38849
347.38837
347.3884
347.38843
347.38844
347.38845
347.38847
347.38852
347.38853
347.38849
347.38842
347.38835
347.38838
347.38841
347.38842
347.38842
347.38844
347.38851
347.38855
347.38837
347.38835
347.38829
347.38832
347.38834
347.38835
347.38835
347.38836
347.38844
347.3885
347.3884
347.38838
347.38832
347.38835
347.38837
347.38838
347.38837
347.38837
347.38844
347.38849
347.38843
347.38841
347.38834
347.38837
347.38839
347.3884
347.38838
347.38838
347.38844
347.38849
347.38844
347.38842
347.38835
347.38838
347.3884
347.3884
347.38838
347.38837
347.38844
347.38848
347.38845
347.38842
347.38835
347.38837
347.38838
347.38838
347.38837
347.38836
347.38842
347.38847
347.38847
347.38844
347.38836
347.38837
347.38838
347.38837
347.38836
347.38836
347.38842
347.38848
347.38852
347.38851
347.38844
347.38844
347.38844
347.38844
347.38842
347.38842
347.38851
347.38858
347.38853
347.38855
347.3885
347.38849
347.38849
347.38848
347.38847
347.38848
347.38858
347.38859
355.98153
355.98155
355.98143
355.98146
355.98149
355.98151
355.98152
355.98154
355.98158
355.9816
355.98155
355.98149
355.98141
355.98144
355.98147
355.98149
355.98149
355.9815
355.98158
355.98161
355.98143
355.98141
355.98135
355.98138
355.98141
355.98142
355.98141
355.98142
355.9815
355.98156
355.98146
355.98144
355.98138
355.98142
355.98144
355.98144
355.98143
355.98143
355.9815
355.98155
355.98149
355.98147
355.98141
355.98144
355.98146
355.98146
355.98145
355.98144
355.9815
355.98155
355.98151
355.98149
355.98142
355.98144
355.98146
355.98146
355.98144
355.98143
355.98149
355.98154
355.98152
355.98149
355.98141
355.98143
355.98145
355.98144
355.98142
355.98141
355.98148
355.98152
355.98154
355.9815
355.98142
355.98143
355.98144
355.98143
355.98141
355.9814
355.98147
355.98153
355.98158
355.98158
355.9815
355.9815
355.9815
355.98149
355.98148
355.98147
355.98156
355.98164
355.9816
355.98161
355.98156
355.98155
355.98155
355.98154
355.98152
355.98153
355.98164
355.98165
364.47539
364.47541
364.47529
364.47532
364.47535
364.47537
364.47538
364.47539
364.47544
364.47545
364.47541
364.47534
364.47527
364.4753
364.47533
364.47535
364.47535
364.47536
364.47544
364.47547
364.47529
364.47527
364.4752
364.47524
364.47527
364.47527
364.47527
364.47527
364.47535
364.47542
364.47532
364.4753
364.47524
364.47528
364.4753
364.4753
364.47529
364.47528
364.47536
364.47541
364.47535
364.47533
364.47527
364.4753
364.47533
364.47532
364.4753
364.47529
364.47536
364.4754
364.47537
364.47535
364.47527
364.4753
364.47532
364.47532
364.47529
364.47528
364.47534
364.47539
364.47538
364.47535
364.47527
364.47529
364.4753
364.47529
364.47527
364.47525
364.47532
364.47537
364.47539
364.47536
364.47527
364.47528
364.47529
364.47528
364.47525
364.47524
364.47532
364.47538
364.47544
364.47544
364.47535
364.47536
364.47536
364.47534
364.47532
364.47532
364.47541
364.47549
364.47545
364.47547
364.47542
364.47541
364.4754
364.47539
364.47537
364.47538
364.47549
364.4755
372.86847
372.86849
372.86837
372.86841
372.86844
372.86846
372.86846
372.86847
372.86852
372.86853
372.86849
372.86843
372.86835
372.86839
372.86842
372.86843
372.86843
372.86844
372.86852
372.86855
372.86837
372.86835
372.86828
372.86833
372.86836
372.86836
372.86835
372.86835
372.86843
372.8685
372.86841
372.86839
372.86833
372.86837
372.86839
372.86839
372.86837
372.86836
372.86843
372.86849
372.86844
372.86842
372.86836
372.86839
372.86842
372.86841
372.86839
372.86837
372.86843
372.86848
372.86846
372.86843
372.86836
372.86839
372.86841
372.8684
372.86837
372.86835
372.86842
372.86847
372.86846
372.86843
372.86835
372.86837
372.86839
372.86837
372.86834
372.86832
372.86839
372.86844
372.86847
372.86844
372.86835
372.86836
372.86837
372.86835
372.86832
372.8683
372.86838
372.86844
372.86852
372.86852
372.86843
372.86843
372.86843
372.86842
372.86839
372.86838
372.86848
372.86856
372.86853
372.86855
372.8685
372.86849
372.86848
372.86847
372.86844
372.86844
372.86856
372.86857
381.15958
381.15961
381.15948
381.15952
381.15955
381.15957
381.15957
381.15958
381.15963
381.15964
381.15961
381.15954
381.15946
381.15951
381.15954
381.15955
381.15954
381.15954
381.15963
381.15966
381.15948
381.15946
381.1594
381.15944
381.15947
381.15947
381.15946
381.15945
381.15954
381.1596
381.15952
381.15951
381.15944
381.15948
381.15951
381.15951
381.15948
381.15946
381.15954
381.15959
381.15955
381.15954
381.15947
381.15951
381.15953
381.15953
381.1595
381.15947
381.15954
381.15959
381.15957
381.15955
381.15947
381.15951
381.15953
381.15952
381.15948
381.15945
381.15952
381.15957
381.15957
381.15954
381.15946
381.15948
381.1595
381.15948
381.15944
381.15942
381.15949
381.15954
381.15958
381.15954
381.15945
381.15946
381.15947
381.15945
381.15942
381.15939
381.15947
381.15953
381.15963
381.15963
381.15954
381.15954
381.15954
381.15952
381.15949
381.15947
381.15957
381.15966
381.15964
381.15966
381.1596
381.15959
381.15959
381.15957
381.15954
381.15953
381.15966
381.15967
389.34789
389.34792
389.34779
389.34783
389.34787
389.34788
389.34788
389.34788
389.34793
389.34794
389.34792
389.34785
389.34777
389.34782
389.34785
389.34786
389.34785
389.34785
389.34793
389.34797
389.34779
389.34777
389.34771
389.34776
389.34779
389.34779
389.34777
389.34776
389.34784
389.34791
389.34783
389.34782
389.34776
389.3478
389.34783
389.34782
389.34779
389.34777
389.34784
389.3479
389.34787
389.34785
389.34779
389.34783
389.34785
389.34784
389.34781
389.34777
389.34784
389.34789
389.34788
389.34786
389.34779
389.34782
389.34784
389.34783
389.34779
389.34775
389.34782
389.34786
389.34788
389.34785
389.34777
389.34779
389.34781
389.34779
389.34775
389.34771
389.34778
389.34783
389.34788
389.34785
389.34776
389.34777
389.34777
389.34775
389.34771
389.34768
389.34776
389.34782
389.34793
389.34793
389.34784
389.34784
389.34784
389.34782
389.34778
389.34776
389.34786
389.34795
389.34794
389.34797
389.34791
389.3479
389.34789
389.34786
389.34783
389.34782
389.34795
389.34795
397.43294
397.43297
397.43284
397.43289
397.43292
397.43293
397.43293
397.43293
397.43297
397.43298
397.43297
397.4329
397.43283
397.43288
397.43291
397.43291
397.4329
397.4329
397.43298
397.43301
397.43284
397.43283
397.43276
397.43281
397.43284
397.43284
397.43282
397.4328
397.43289
397.43295
397.43289
397.43288
397.43281
397.43286
397.43289
397.43288
397.43284
397.43281
397.43289
397.43294
397.43292
397.43291
397.43284
397.43289
397.43291
397.4329
397.43286
397.43282
397.43288
397.43293
397.43293
397.43291
397.43284
397.43288
397.4329
397.43288
397.43283
397.43279
397.43286
397.4329
397.43293
397.4329
397.43282
397.43284
397.43286
397.43283
397.43279
397.43275
397.43281
397.43286
397.43293
397.4329
397.4328
397.43281
397.43282
397.43279
397.43275
397.43271
397.43278
397.43285
397.43297
397.43298
397.43289
397.43289
397.43288
397.43286
397.43281
397.43278
397.43288
397.43297
397.43298
397.43301
397.43295
397.43294
397.43293
397.4329
397.43286
397.43285
397.43297
397.43298
405.41463
405.41466
405.41454
405.41458
405.41462
405.41463
405.41462
405.41462
405.41466
405.41466
405.41466
405.4146
405.41452
405.41457
405.41461
405.41461
405.41459
405.41458
405.41466
405.41469
405.41454
405.41452
405.41446
405.41451
405.41455
405.41454
405.41451
405.41449
405.41457
405.41463
405.41458
405.41457
405.41451
405.41456
405.41459
405.41458
405.41454
405.4145
405.41457
405.41462
405.41462
405.41461
405.41455
405.41459
405.41461
405.4146
405.41455
405.4145
405.41457
405.41461
405.41463
405.41461
405.41454
405.41458
405.4146
405.41458
405.41452
405.41448
405.41454
405.41458
405.41462
405.41459
405.41451
405.41454
405.41455
405.41452
405.41447
405.41442
405.41449
405.41453
405.41462
405.41458
405.41449
405.4145
405.4145
405.41448
405.41442
405.41438
405.41445
405.41451
405.41466
405.41466
405.41457
405.41457
405.41457
405.41454
405.41449
405.41445
405.41455
405.41464
405.41466
405.41469
405.41463
405.41462
405.41461
405.41458
405.41453
405.41451
405.41464
405.41464
413.29323
413.29326
413.29314
413.29319
413.29323
413.29323
413.29322
413.29321
413.29325
413.29325
413.29326
413.2932
413.29313
413.29318
413.29322
413.29322
413.29319
413.29318
413.29326
413.29328
413.29314
413.29313
413.29307
413.29313
413.29316
413.29315
413.29311
413.29308
413.29317
413.29322
413.29319
413.29318
413.29313
413.29318
413.2932
413.29319
413.29314
413.2931
413.29317
413.29321
413.29323
413.29322
413.29316
413.2932
413.29322
413.29321
413.29315
413.2931
413.29316
413.2932
413.29323
413.29322
413.29315
413.29319
413.29321
413.29318
413.29312
413.29307
413.29312
413.29316
413.29322
413.29319
413.29311
413.29314
413.29315
413.29312
413.29307
413.29301
413.29307
413.29311
413.29321
413.29318
413.29308
413.2931
413.2931
413.29307
413.29301
413.29296
413.29303
413.29309
413.29325
413.29326
413.29317
413.29317
413.29316
413.29312
413.29307
413.29303
413.29313
413.29322
413.29325
413.29328
413.29322
413.29321
413.2932
413.29316
413.29311
413.29309
413.29322
413.29321
421.06935
421.06939
421.06927
421.06932
421.06936
421.06936
421.06934
421.06933
421.06937
421.06936
421.06939
421.06933
421.06926
421.06932
421.06935
421.06935
421.06932
421.0693
421.06937
421.0694
421.06927
421.06926
421.06921
421.06926
421.06929
421.06928
421.06924
421.06921
421.06929
421.06934
421.06932
421.06932
421.06926
421.06931
421.06934
421.06932
421.06927
421.06922
421.06929
421.06933
421.06936
421.06935
421.06929
421.06934
421.06936
421.06934
421.06928
421.06922
421.06928
421.06931
421.06936
421.06935
421.06928
421.06932
421.06934
421.06931
421.06925
421.06919
421.06924
421.06927
421.06934
421.06932
421.06924
421.06927
421.06928
421.06925
421.06918
421.06912
421.06918
421.06922
421.06933
421.0693
421.06921
421.06922
421.06922
421.06919
421.06912
421.06907
421.06913
421.06919
421.06937
421.06937
421.06929
421.06929
421.06928
421.06924
421.06918
421.06913
421.06922
421.06931
421.06936
421.0694
421.06934
421.06933
421.06931
421.06927
421.06922
421.06919
421.06931
421.06931
428.74396
428.744
428.74389
428.74394
428.74397
428.74397
428.74395
428.74394
428.74397
428.74396
428.744
428.74395
428.74388
428.74394
428.74397
428.74396
428.74393
428.74391
428.74398
428.744
428.74389
428.74388
428.74383
428.74388
428.74391
428.7439
428.74386
428.74382
428.74389
428.74394
428.74394
428.74394
428.74388
428.74394
428.74396
428.74394
428.74389
428.74383
428.74389
428.74393
428.74397
428.74397
428.74391
428.74396
428.74398
428.74396
428.74389
428.74383
428.74388
428.74391
428.74397
428.74396
428.7439
428.74394
428.74396
428.74392
428.74386
428.74379
428.74384
428.74387
428.74395
428.74393
428.74386
428.74389
428.74389
428.74386
428.74379
428.74372
428.74377
428.7438
428.74394
428.74391
428.74382
428.74383
428.74383
428.74379
428.74372
428.74366
428.74372
428.74377
428.74397
428.74398
428.74389
428.74389
428.74388
428.74384
428.74377
428.74372
428.74381
428.7439
428.74396
428.744
428.74394
428.74393
428.74391
428.74387
428.7438
428.74377
428.7439
428.74388
436.31835
436.31839
436.31828
436.31833
436.31837
436.31837
436.31834
436.31832
436.31835
436.31834
436.31839
436.31834
436.31828
436.31833
436.31837
436.31836
436.31832
436.31829
436.31836
436.31837
436.31828
436.31828
436.31823
436.31828
436.31831
436.3183
436.31825
436.3182
436.31827
436.31832
436.31833
436.31833
436.31828
436.31834
436.31836
436.31834
436.31828
436.31822
436.31827
436.31831
436.31837
436.31837
436.31831
436.31836
436.31838
436.31835
436.31828
436.31821
436.31826
436.31829
436.31837
436.31836
436.3183
436.31834
436.31835
436.31832
436.31824
436.31817
436.31821
436.31824
436.31834
436.31832
436.31825
436.31828
436.31828
436.31824
436.31817
436.3181
436.31814
436.31817
436.31832
436.31829
436.3182
436.31822
436.31821
436.31817
436.3181
436.31803
436.31809
436.31814
436.31835
436.31836
436.31827
436.31827
436.31826
436.31821
436.31814
436.31809
436.31817
436.31825
436.31834
436.31837
436.31832
436.31831
436.31829
436.31824
436.31817
436.31814
436.31825
436.31824
443.79413
443.79417
443.79407
443.79412
443.79415
443.79415
443.79412
443.79409
443.79412
443.79411
443.79417
443.79412
443.79407
443.79412
443.79415
443.79414
443.7941
443.79407
443.79413
443.79414
443.79407
443.79407
443.79402
443.79408
443.7941
443.79408
443.79403
443.79398
443.79404
443.79409
443.79412
443.79412
443.79408
443.79413
443.79415
443.79413
443.79406
443.794
443.79404
443.79408
443.79415
443.79415
443.7941
443.79415
443.79417
443.79414
443.79406
443.79399
443.79403
443.79405
443.79415
443.79414
443.79408
443.79413
443.79414
443.7941
443.79402
443.79395
443.79398
443.794
443.79412
443.7941
443.79403
443.79406
443.79406
443.79402
443.79395
443.79387
443.79391
443.79393
443.79409
443.79407
443.79398
443.794
443.79399
443.79395
443.79387
443.7938
443.79385
443.79389
443.79412
443.79413
443.79404
443.79404
443.79403
443.79398
443.79391
443.79385
443.79392
443.79401
443.79411
443.79414
443.79409
443.79408
443.79405
443.794
443.79393
443.79389
443.79401
443.79399
451.17323
451.17327
451.17317
451.17322
451.17325
451.17325
451.17321
451.17318
451.1732
451.17319
451.17327
451.17322
451.17317
451.17323
451.17326
451.17324
451.1732
451.17316
451.17321
451.17322
451.17317
451.17317
451.17313
451.17318
451.17321
451.17319
451.17313
451.17308
451.17313
451.17317
451.17322
451.17323
451.17318
451.17324
451.17326
451.17323
451.17316
451.17309
451.17313
451.17316
451.17325
451.17326
451.17321
451.17326
451.17327
451.17324
451.17316
451.17308
451.17311
451.17313
451.17325
451.17324
451.17319
451.17323
451.17324
451.1732
451.17312
451.17303
451.17306
451.17308
451.17321
451.1732
451.17313
451.17316
451.17316
451.17312
451.17304
451.17295
451.17299
451.17301
451.17318
451.17316
451.17308
451.17309
451.17308
451.17303
451.17295
451.17288
451.17292
451.17296
451.1732
451.17321
451.17313
451.17313
451.17311
451.17306
451.17299
451.17292
451.17299
451.17307
451.17319
451.17322
451.17317
451.17316
451.17313
451.17308
451.17301
451.17296
451.17307
451.17305
458.45785
458.45789
458.4578
458.45785
458.45788
458.45787
458.45784
458.4578
458.45782
458.4578
458.45789
458.45785
458.45781
458.45786
458.45789
458.45787
458.45783
458.45778
458.45783
458.45784
458.4578
458.45781
458.45777
458.45782
458.45784
458.45782
458.45776
458.4577
458.45775
458.45779
458.45785
458.45786
458.45782
458.45787
458.45789
458.45786
458.45779
458.45771
458.45775
458.45777
458.45788
458.45789
458.45784
458.45789
458.4579
458.45787
458.45779
458.4577
458.45773
458.45775
458.45787
458.45787
458.45782
458.45786
458.45787
458.45783
458.45774
458.45766
458.45768
458.45769
458.45784
458.45783
458.45776
458.45779
458.45779
458.45774
458.45766
458.45757
458.4576
458.45762
458.4578
458.45778
458.4577
458.45771
458.4577
458.45766
458.45757
458.45749
458.45753
458.45757
458.45782
458.45783
458.45775
458.45775
458.45773
458.45768
458.4576
458.45753
458.45759
458.45767
458.4578
458.45784
458.45779
458.45777
458.45775
458.45769
458.45762
458.45757
458.45767
458.45765
465.6505
465.65055
465.65046
465.65051
465.65054
465.65052
465.65049
465.65045
465.65046
465.65044
465.65055
465.65051
465.65047
465.65052
465.65054
465.65053
465.65048
465.65043
465.65047
465.65048
465.65046
465.65047
465.65043
465.65048
465.6505
465.65048
465.65042
465.65035
465.6504
465.65043
465.65051
465.65052
465.65048
465.65053
465.65055
465.65052
465.65044
465.65036
465.65039
465.65041
465.65054
465.65054
465.6505
465.65055
465.65056
465.65052
465.65044
465.65035
465.65037
465.65039
465.65052
465.65053
465.65048
465.65052
465.65052
465.65048
465.65039
465.6503
465.65032
465.65033
465.65049
465.65048
465.65042
465.65044
465.65044
465.65039
465.65031
465.65021
465.65024
465.65025
465.65045
465.65043
465.65035
465.65036
465.65035
465.6503
465.65021
465.65013
465.65016
465.6502
465.65046
465.65047
465.6504
465.65039
465.65037
465.65032
465.65024
465.65016
465.65022
465.65029
465.65044
465.65048
465.65043
465.65041
465.65039
465.65033
465.65025
465.6502
465.65029
465.65027
472.75394
472.75398
472.7539
472.75394
472.75397
472.75396
472.75392
472.75388
472.75388
472.75386
472.75398
472.75395
472.75391
472.75396
472.75398
472.75396
472.75391
472.75386
472.7539
472.7539
472.7539
472.75391
472.75387
472.75393
472.75394
472.75392
472.75385
472.75379
472.75382
472.75385
472.75394
472.75396
472.75393
472.75397
472.75399
472.75395
472.75388
472.7538
472.75382
472.75384
472.75397
472.75398
472.75394
472.75399
472.754
472.75396
472.75387
472.75378
472.7538
472.75381
472.75396
472.75396
472.75392
472.75395
472.75396
472.75391
472.75382
472.75373
472.75374
472.75375
472.75392
472.75391
472.75385
472.75388
472.75387
472.75382
472.75374
472.75364
472.75366
472.75367
472.75388
472.75386
472.75379
472.7538
472.75378
472.75373
472.75364
472.75355
472.75358
472.75361
472.75388
472.7539
472.75382
472.75382
472.7538
472.75374
472.75366
472.75358
472.75364
472.7537
472.75386
472.7539
472.75385
472.75384
472.75381
472.75375
472.75367
472.75361
472.7537
472.75367
479.77115
479.77119
479.77112
479.77116
479.77119
479.77117
479.77113
479.77108
479.77109
479.77106
479.77119
479.77117
479.77113
479.77118
479.7712
479.77118
479.77112
479.77107
479.7711
479.7711
479.77112
479.77113
479.7711
479.77115
479.77117
479.77114
479.77107
479.771
479.77103
479.77106
479.77116
479.77118
479.77115
479.77119
479.77121
479.77117
479.77109
479.77101
479.77103
479.77104
479.77119
479.7712
479.77117
479.77121
479.77121
479.77117
479.77109
479.771
479.77101
479.77101
479.77117
479.77118
479.77114
479.77117
479.77117
479.77113
479.77104
479.77094
479.77095
479.77095
479.77113
479.77112
479.77107
479.77109
479.77109
479.77104
479.77095
479.77085
479.77086
479.77087
479.77108
479.77107
479.771
479.77101
479.771
479.77094
479.77085
479.77076
479.77078
479.77081
479.77109
479.7711
479.77103
479.77103
479.77101
479.77095
479.77086
479.77078
479.77083
479.77089
479.77106
479.7711
479.77106
479.77104
479.77101
479.77095
479.77087
479.77081
479.77089
479.77086
486.70537
486.70542
486.70535
486.70539
486.70541
486.70539
486.70535
486.7053
486.7053
486.70528
486.70542
486.70539
486.70536
486.70541
486.70542
486.7054
486.70535
486.70529
486.70532
486.70531
486.70535
486.70536
486.70533
486.70538
486.70539
486.70536
486.7053
486.70523
486.70525
486.70527
486.70539
486.70541
486.70538
486.70542
486.70543
486.7054
486.70532
486.70523
486.70525
486.70525
486.70541
486.70542
486.70539
486.70543
486.70544
486.70539
486.70531
486.70522
486.70522
486.70522
486.70539
486.7054
486.70536
486.7054
486.70539
486.70535
486.70526
486.70516
486.70516
486.70516
486.70535
486.70535
486.7053
486.70532
486.70531
486.70526
486.70517
486.70507
486.70508
486.70508
486.7053
486.70529
486.70523
486.70523
486.70522
486.70516
486.70507
486.70498
486.705
486.70502
486.7053
486.70532
486.70525
486.70525
486.70522
486.70516
486.70508
486.705
486.70504
486.7051
486.70528
486.70531
486.70527
486.70525
486.70522
486.70516
486.70508
486.70502
486.7051
486.70506
493.56004
493.56008
493.56002
493.56006
493.56008
493.56006
493.56001
493.55996
493.55996
493.55993
493.56008
493.56006
493.56003
493.56007
493.56009
493.56006
493.56001
493.55995
493.55997
493.55996
493.56002
493.56003
493.56001
493.56005
493.56006
493.56003
493.55996
493.55989
493.55991
493.55992
493.56006
493.56007
493.56005
493.56009
493.5601
493.56006
493.55998
493.5599
493.55991
493.55991
493.56008
493.56009
493.56006
493.5601
493.5601
493.56006
493.55997
493.55988
493.55988
493.55988
493.56006
493.56006
493.56003
493.56006
493.56006
493.56001
493.55992
493.55982
493.55982
493.55982
493.56001
493.56001
493.55996
493.55998
493.55997
493.55992
493.55983
493.55973
493.55974
493.55974
493.55996
493.55995
493.55989
493.5599
493.55988
493.55982
493.55973
493.55964
493.55966
493.55967
493.55996
493.55997
493.55991
493.55991
493.55988
493.55982
493.55974
493.55966
493.55969
493.55974
493.55993
493.55996
493.55992
493.55991
493.55988
493.55982
493.55974
493.55967
493.55974
493.55971
500.33876
500.3388
500.33875
500.33878
500.3388
500.33878
500.33873
500.33868
500.33867
500.33865
500.3388
500.33879
500.33876
500.3388
500.33881
500.33879
500.33873
500.33867
500.33869
500.33868
500.33875
500.33876
500.33874
500.33878
500.33879
500.33876
500.33869
500.33862
500.33863
500.33864
500.33878
500.3388
500.33878
500.33882
500.33882
500.33878
500.33871
500.33862
500.33863
500.33863
500.3388
500.33881
500.33879
500.33882
500.33882
500.33878
500.33869
500.3386
500.3386
500.33859
500.33878
500.33879
500.33876
500.33878
500.33878
500.33873
500.33864
500.33855
500.33854
500.33854
500.33873
500.33873
500.33869
500.33871
500.33869
500.33864
500.33855
500.33846
500.33846
500.33845
500.33868
500.33867
500.33862
500.33862
500.3386
500.33855
500.33846
500.33837
500.33838
500.33839
500.33867
500.33869
500.33863
500.33863
500.3386
500.33854
500.33846
500.33838
500.33841
500.33846
500.33865
500.33868
500.33864
500.33863
500.33859
500.33854
500.33845
500.33839
500.33846
500.33842
507.04533
507.04537
507.04532
507.04536
507.04537
507.04535
507.0453
507.04525
507.04524
507.04521
507.04537
507.04536
507.04534
507.04537
507.04538
507.04536
507.0453
507.04524
507.04525
507.04524
507.04532
507.04534
507.04532
507.04535
507.04536
507.04533
507.04526
507.04519
507.0452
507.04521
507.04536
507.04537
507.04535
507.04539
507.04539
507.04535
507.04528