/*--------------------------------*- C++ -*----------------------------------*\
| =========                 |                                                 |
| \\      /  F ield         | OpenFOAM: The Open Source CFD Toolbox           |
|  \\    /   O peration     | Version:  v2106                                 |
|   \\  /    A nd           | Website:  www.openfoam.com                      |
|    \\/     M anipulation  |                                                 |
\*---------------------------------------------------------------------------*/
FoamFile
{
    version     2.0;
    format      ascii;
    arch        "LSB;label=32;scalar=64";
    class       volVectorField;
    location    "42.5";
    object      gradT;
}
// * * * * * * * * * * * * * * * * * * * * * * * * * * * * * * * * * * * * * //

dimensions      [0 -1 0 1 0 0 0];

internalField   nonuniform List<vector> 
4000
(
(0.00096518967 0.00096518966 540.56056)
(0.00054116556 0.00017611646 540.56693)
(-0.0012144139 0.00026524657 540.56277)
(-0.00046879839 0.00026962891 540.56116)
(-0.00020356757 0.0002732053 540.56032)
(9.06008e-06 0.00027997778 540.56011)
(0.00015777438 0.00029359144 540.56039)
(0.00019850293 0.0003212432 540.56096)
(9.1366835e-05 0.00036544874 540.56144)
(-6.5727483e-07 0.00037620446 540.56129)
(0.00017611647 0.00054116556 540.56693)
(-0.00050874908 -0.00050874909 540.56836)
(-0.0010741452 -0.00036353678 540.56469)
(-0.0004568603 -0.00035120625 540.5631)
(-0.00018804425 -0.00033694337 540.56229)
(3.9639297e-05 -0.00031327895 540.56213)
(0.0002196725 -0.00027124465 540.56253)
(0.00030628888 -0.00019105987 540.56332)
(0.00017380873 -4.7617565e-05 540.56416)
(1.0098453e-05 0.00010451286 540.56392)
(0.00026524657 -0.0012144139 540.56277)
(-0.00036353677 -0.0010741452 540.56469)
(-0.001056871 -0.001056871 540.56107)
(-0.00044220498 -0.0010425803 540.55952)
(-0.00016564027 -0.0010222831 540.55876)
(7.4758802e-05 -0.00099394216 540.55867)
(0.00027999346 -0.00095293636 540.55917)
(0.00042213001 -0.00088971477 540.56018)
(0.00038693956 -0.00078491597 540.56143)
(0.00010076301 -0.00062624003 540.56189)
(0.00026962891 -0.00046879839 540.56116)
(-0.00035120625 -0.0004568603 540.5631)
(-0.0010425803 -0.00044220498 540.55952)
(-0.00042227238 -0.00042227239 540.55802)
(-0.00013940611 -0.00039785542 540.55731)
(0.00010898607 -0.00036841399 540.5573)
(0.00032389989 -0.00033240184 540.55791)
(0.00047430927 -0.00028931917 540.55904)
(0.00043728347 -0.00024329413 540.56044)
(0.00011588241 -0.00020834232 540.56103)
(0.0002732053 -0.00020356756 540.56032)
(-0.00033694337 -0.00018804426 540.56229)
(-0.0010222831 -0.00016564027 540.55876)
(-0.00039785541 -0.00013940612 540.55731)
(-0.00011178187 -0.00011178187 540.55668)
(0.00014021238 -8.3352236e-05 540.55675)
(0.00035908828 -5.3615818e-05 540.55744)
(0.00051123772 -2.2874116e-05 540.55867)
(0.00046791641 5.6716743e-06 540.56017)
(0.00012406421 2.4056585e-05 540.56082)
(0.00027997778 9.0600806e-06 540.56011)
(-0.00031327895 3.9639298e-05 540.56213)
(-0.00099394216 7.4758803e-05 540.55867)
(-0.00036841399 0.00010898607 540.5573)
(-8.3352231e-05 0.00014021237 540.55675)
(0.00016715212 0.00016715211 540.55688)
(0.00038437801 0.0001903063 540.55765)
(0.00053359676 0.00020950109 540.55894)
(0.00048421418 0.00022362467 540.56049)
(0.00012813902 0.00023107368 540.56118)
(0.00029359144 0.00015777437 540.56039)
(-0.00027124465 0.00021967251 540.56253)
(-0.00095293635 0.00027999347 540.55917)
(-0.00033240184 0.0003238999 540.55791)
(-5.3615824e-05 0.00035908829 540.55744)
(0.00019030631 0.00038437801 540.55765)
(0.00040143725 0.00040143725 540.55846)
(0.00054455609 0.000410636 540.55979)
(0.000489489 0.00041217418 540.56136)
(0.00012903022 0.00040905295 540.56206)
(0.0003212432 0.00019850293 540.56096)
(-0.00019105986 0.00030628887 540.56332)
(-0.00088971477 0.00042213001 540.56018)
(-0.00028931917 0.00047430927 540.55904)
(-2.287412e-05 0.00051123772 540.55867)
(0.00020950108 0.00053359676 540.55894)
(0.000410636 0.00054455609 540.55979)
(0.00054433368 0.00054433369 540.56113)
(0.00048263113 0.00053204412 540.56269)
(0.0001260582 0.00051296156 540.56335)
(0.00036544873 9.1366836e-05 540.56144)
(-4.7617567e-05 0.00017380874 540.56416)
(-0.00078491595 0.00038693956 540.56143)
(-0.00024329413 0.00043728347 540.56044)
(5.6716736e-06 0.0004679164 540.56017)
(0.00022362468 0.00048421418 540.56049)
(0.00041217418 0.000489489 540.56136)
(0.00053204411 0.00048263113 540.56269)
(0.00045811686 0.00045811687 540.56419)
(0.00011630851 0.0004149778 540.56476)
(0.00037620446 -6.5727728e-07 540.56129)
(0.00010451286 1.0098457e-05 540.56392)
(-0.00062624003 0.00010076301 540.56189)
(-0.00020834233 0.00011588241 540.56103)
(2.4056587e-05 0.00012406421 540.56082)
(0.00023107369 0.00012813901 540.56118)
(0.00040905295 0.00012903022 540.56206)
(0.00051296155 0.00012605819 540.56335)
(0.0004149778 0.00011630851 540.56476)
(9.7298821e-05 9.7298821e-05 540.56511)
(0.0034780326 0.0034780326 799.2571)
(0.0016984037 0.00090446314 799.26266)
(-0.005016426 0.0011177895 799.25811)
(-0.0022712587 0.0011363159 799.25589)
(-0.00096667586 0.0011541903 799.25474)
(7.754287e-05 0.0011872605 799.25451)
(0.00081167083 0.0012545044 799.25503)
(0.00098194419 0.0013947592 799.25603)
(0.00021913273 0.0016186207 799.25682)
(-0.00014792099 0.0015039218 799.25573)
(0.00090446314 0.0016984037 799.26266)
(-0.001841961 -0.001841961 799.26401)
(-0.0046686469 -0.0014634462 799.25972)
(-0.0022166574 -0.0014032782 799.25753)
(-0.00089025897 -0.0013322833 799.25643)
(0.00022801402 -0.0012165497 799.25627)
(0.001122919 -0.0010097035 799.25696)
(0.0015281186 -0.00060725203 799.25831)
(0.0003828766 0.0001204214 799.25981)
(-0.00026261987 0.00057819523 799.25857)
(0.0011177895 -0.005016426 799.25811)
(-0.0014634462 -0.0046686469 799.25972)
(-0.0045777432 -0.0045777432 799.25551)
(-0.0021400958 -0.0045024151 799.25337)
(-0.00077994738 -0.0044023505 799.25234)
(0.00040012266 -0.0042637515 799.25229)
(0.0014209685 -0.0040630554 799.25313)
(0.0021120691 -0.0037504921 799.25479)
(0.00140458 -0.0032159064 799.25689)
(0.00015726157 -0.0024579408 799.25656)
(0.0011363159 -0.0022712587 799.25589)
(-0.0014032782 -0.0022166574 799.25753)
(-0.0045024151 -0.0021400958 799.25337)
(-0.0020412647 -0.0020412647 799.25129)
(-0.00065159539 -0.001921763 799.25035)
(0.00056730911 -0.0017779702 799.25041)
(0.0016361784 -0.0016022446 799.25141)
(0.0023752676 -0.0013917633 799.25326)
(0.0016754279 -0.001160548 799.25559)
(0.00024269054 -0.00097402315 799.25548)
(0.0011541903 -0.00096667585 799.25474)
(-0.0013322833 -0.00089025896 799.25643)
(-0.0044023505 -0.00077994738 799.25234)
(-0.0019217629 -0.00065159539 799.25035)
(-0.00051665288 -0.00051665287 799.24951)
(0.00071964098 -0.00037781232 799.24969)
(0.0018071754 -0.00023276422 799.25081)
(0.0025537658 -8.3431166e-05 799.2528)
(0.0018223202 5.4468873e-05 799.25527)
(0.00028161148 0.00014165307 799.25525)
(0.0011872605 7.7542877e-05 799.25451)
(-0.0012165497 0.00022801402 799.25627)
(-0.0042637515 0.00040012266 799.25229)
(-0.0017779702 0.0005673091 799.25041)
(-0.00037781232 0.00071964098 799.24969)
(0.00085119776 0.00085119776 799.24997)
(0.0019305596 0.00096414144 799.25119)
(0.0026625007 0.0010575078 799.25327)
(0.0019005122 0.0011255648 799.25582)
(0.00030081334 0.0011599559 799.25584)
(0.0012545044 0.00081167083 799.25503)
(-0.0010097035 0.001122919 799.25696)
(-0.0040630554 0.0014209685 799.25313)
(-0.0016022446 0.0016361784 799.25141)
(-0.00023276421 0.0018071754 799.25081)
(0.00096414144 0.0019305596 799.25119)
(0.0020134854 0.0020134854 799.25249)
(0.0027151891 0.002057296 799.25462)
(0.0019247682 0.0020619037 799.2572)
(0.00030453888 0.0020412362 799.25723)
(0.0013947592 0.00098194419 799.25603)
(-0.00060725202 0.0015281186 799.25831)
(-0.0037504921 0.0021120691 799.25479)
(-0.0013917633 0.0023752676 799.25326)
(-8.3431165e-05 0.0025537658 799.2528)
(0.0010575078 0.0026625007 799.25327)
(0.002057296 0.0027151891 799.25462)
(0.002710919 0.002710919 799.25677)
(0.0018844524 0.0026396562 799.25932)
(0.00028703502 0.0025178152 799.25929)
(0.0016186207 0.00021913273 799.25682)
(0.0001204214 0.0003828766 799.25981)
(-0.0032159064 0.00140458 799.25689)
(-0.001160548 0.0016754279 799.25559)
(5.4468866e-05 0.0018223202 799.25527)
(0.0011255648 0.0019005122 799.25582)
(0.0020619037 0.0019247682 799.2572)
(0.0026396562 0.0018844524 799.25932)
(0.0017316645 0.0017316645 799.26175)
(0.00022331154 0.0013919623 799.26147)
(0.0015039218 -0.00014792098 799.25573)
(0.00057819523 -0.00026261987 799.25857)
(-0.0024579408 0.00015726157 799.25656)
(-0.00097402315 0.00024269053 799.25548)
(0.00014165308 0.00028161147 799.25525)
(0.0011599559 0.00030081334 799.25584)
(0.0020412362 0.00030453888 799.25723)
(0.0025178152 0.00028703502 799.25929)
(0.0013919623 0.00022331154 799.26147)
(6.0566867e-05 6.0566866e-05 799.26019)
(0.0046705631 0.0046705631 794.8261)
(0.0015567236 0.0010789168 794.82938)
(-0.0079855864 0.00133796 794.82574)
(-0.0038382131 0.0013657427 794.8238)
(-0.0015766568 0.0013968858 794.82284)
(0.00029836636 0.0014547457 794.82276)
(0.0016733225 0.0015749391 794.82347)
(0.0019851289 0.0018455882 794.82475)
(-0.00020308508 0.00235863 794.82593)
(-0.00072544457 0.002268066 794.82443)
(0.0010789168 0.0015567236 794.82938)
(-0.003442181 -0.003442181 794.82987)
(-0.0075553475 -0.0029670857 794.82637)
(-0.0037498244 -0.0028685784 794.82446)
(-0.0014431524 -0.0027430993 794.82354)
(0.00056544628 -0.0025386719 794.82353)
(0.0022595863 -0.0021716653 794.82439)
(0.0031606651 -0.0014319844 794.82604)
(0.00043063163 2.2986074e-05 794.82806)
(-0.0008160085 0.00093181708 794.82654)
(0.00133796 -0.0079855864 794.82574)
(-0.0029670857 -0.0075553475 794.82637)
(-0.0074119838 -0.0074119838 794.82292)
(-0.0036142267 -0.0072785471 794.82106)
(-0.0012467504 -0.0071001894 794.82021)
(0.00086980038 -0.0068532843 794.82031)
(0.0027800101 -0.0064971884 794.82133)
(0.0041797802 -0.0059473088 794.82326)
(0.0021607164 -0.0050008632 794.82586)
(-0.00011955723 -0.0037186839 794.82511)
(0.0013657427 -0.0038382131 794.8238)
(-0.0028685784 -0.0037498244 794.82446)
(-0.0072785471 -0.0036142267 794.82106)
(-0.00343803 -0.00343803 794.81926)
(-0.0010178895 -0.0032252341 794.8185)
(0.0011684472 -0.0029691518 794.81871)
(0.0031655618 -0.0026558958 794.81988)
(0.0046569904 -0.0022803388 794.822)
(0.0026592566 -0.001862414 794.82483)
(3.8777724e-05 -0.0015209074 794.8243)
(0.0013968858 -0.0015766568 794.82284)
(-0.0027430993 -0.0014431524 794.82354)
(-0.0071001894 -0.0012467504 794.82021)
(-0.0032252341 -0.0010178895 794.8185)
(-0.00077787214 -0.00077787214 794.81784)
(0.0014391387 -0.00053105142 794.81816)
(0.0034688231 -0.00027350133 794.81945)
(0.004973262 -9.0635961e-06 794.8217)
(0.0029201478 0.00023485146 794.82467)
(0.00010811381 0.00038906302 794.82423)
(0.0014547457 0.00029836635 794.82276)
(-0.0025386719 0.00056544628 794.82353)
(-0.0068532843 0.00086980038 794.82031)
(-0.0029691518 0.0011684472 794.81871)
(-0.00053105142 0.0014391387 794.81816)
(0.001672818 0.001672818 794.81858)
(0.0036875496 0.0018729939 794.81997)
(0.0051653432 0.0020375966 794.82231)
(0.0030573832 0.0021560458 794.82535)
(0.00014158543 0.0022139134 794.82495)
(0.0015749391 0.0016733225 794.82347)
(-0.0021716653 0.0022595863 794.82439)
(-0.0064971885 0.0027800101 794.82133)
(-0.0026558958 0.0031655617 794.81988)
(-0.00027350133 0.0034688231 794.81945)
(0.0018729939 0.0036875496 794.81997)
(0.0038336017 0.0038336017 794.82143)
(0.0052563139 0.0039080018 794.82382)
(0.0030964645 0.0039073171 794.82689)
(0.00014669225 0.0038546117 794.82649)
(0.0018455882 0.0019851289 794.82475)
(-0.0014319844 0.0031606652 794.82604)
(-0.0059473088 0.0041797802 794.82326)
(-0.0022803388 0.0046569904 794.822)
(-9.0635893e-06 0.004973262 794.8217)
(0.0020375967 0.0051653432 794.82231)
(0.0039080018 0.0052563139 794.82382)
(0.0052390585 0.0052390585 794.82622)
(0.0030039931 0.0050750233 794.82925)
(0.00010644852 0.0047501098 794.82879)
(0.00235863 -0.00020308508 794.82593)
(2.298608e-05 0.00043063164 794.82806)
(-0.0050008632 0.0021607164 794.82586)
(-0.001862414 0.0026592566 794.82483)
(0.00023485146 0.0029201478 794.82467)
(0.0021560457 0.0030573832 794.82535)
(0.0039073171 0.0030964645 794.82689)
(0.0050750233 0.0030039931 794.82925)
(0.0026075158 0.0026075158 794.83213)
(-6.9916765e-05 0.0013200044 794.83131)
(0.002268066 -0.00072544457 794.82443)
(0.00093181709 -0.0008160085 794.82654)
(-0.0037186839 -0.00011955723 794.82511)
(-0.0015209074 3.8777721e-05 794.8243)
(0.00038906303 0.00010811381 794.82423)
(0.0022139134 0.00014158544 794.82495)
(0.0038546117 0.00014669226 794.82649)
(0.0047501098 0.00010644853 794.82879)
(0.0013200044 -6.9916765e-05 794.83131)
(-0.00075189242 -0.00075189242 794.82854)
(0.0056610648 0.0056610648 790.74927)
(0.001333613 0.0012327487 790.75211)
(-0.010596798 0.0015393013 790.74881)
(-0.0051696088 0.0015768389 790.74711)
(-0.0020002346 0.0016210541 790.74635)
(0.00070749415 0.0017024778 790.74644)
(0.0027959947 0.0018711651 790.74733)
(0.003439697 0.0022597468 790.74887)
(-0.00010113253 0.003043917 790.75048)
(-0.0011478454 0.0029106679 790.74938)
(0.0012327487 0.001333613 790.75211)
(-0.0048490324 -0.0048490323 790.75255)
(-0.010080662 -0.0042752036 790.7494)
(-0.0050469796 -0.0041377128 790.74773)
(-0.0018117762 -0.003958523 790.747)
(0.0010826607 -0.0036681712 790.74717)
(0.0036318981 -0.0031493762 790.7482)
(0.0051988249 -0.0020956536 790.75009)
(0.00087524912 5.0895392e-05 790.7525)
(-0.0012810945 0.0012657228 790.75123)
(0.0015393013 -0.010596798 790.74881)
(-0.0042752036 -0.010080662 790.7494)
(-0.009885478 -0.009885478 790.74631)
(-0.0048529281 -0.0096944697 790.74469)
(-0.001530693 -0.0094391737 790.74403)
(0.0015166409 -0.0090862754 790.7443)
(0.0043685123 -0.0085784148 790.74549)
(0.0066399686 -0.0077985947 790.74764)
(0.0032602439 -0.0064513117 790.75061)
(-0.00033796045 -0.0046950669 790.75006)
(0.0015768389 -0.0051696088 790.74711)
(-0.0041377128 -0.0050469796 790.74773)
(-0.0096944697 -0.0048529281 790.74469)
(-0.0046006753 -0.0046006753 790.74314)
(-0.0012035819 -0.004296634 790.74256)
(0.0019434196 -0.0039311393 790.74294)
(0.0049195788 -0.0034841679 790.74427)
(0.007325928 -0.0029488194 790.74661)
(0.0039787769 -0.0023488993 790.74981)
(-0.00011026465 -0.0018592916 790.74946)
(0.0016210541 -0.0020002346 790.74635)
(-0.003958523 -0.0018117762 790.747)
(-0.0094391737 -0.001530693 790.74403)
(-0.004296634 -0.0012035819 790.74256)
(-0.00086115696 -0.00086115695 790.74209)
(0.002329107 -0.00050942249 790.74257)
(0.0053508321 -0.00014292651 790.74402)
(0.0077752372 0.00023237979 790.74649)
(0.0043497717 0.00057825521 790.74981)
(-1.1555283e-05 0.00079688211 790.74955)
(0.0017024779 0.00070749415 790.74644)
(-0.0036681712 0.0010826607 790.74717)
(-0.0090862754 0.0015166409 790.7443)
(-0.0039311393 0.0019434196 790.74294)
(-0.00050942248 0.002329107 790.74257)
(0.00266165 0.00266165 790.74315)
(0.0056613811 0.0029457528 790.74469)
(0.0080471097 0.0031782023 790.74725)
(0.0045432792 0.0033440875 790.75064)
(3.5486616e-05 0.0034240504 790.75042)
(0.0018711651 0.0027959947 790.74733)
(-0.0031493762 0.0036318981 790.7482)
(-0.0085784148 0.0043685123 790.74549)
(-0.0034841679 0.0049195788 790.74427)
(-0.00014292651 0.0053508321 790.74402)
(0.0029457528 0.0056613811 790.74469)
(0.0058673844 0.0058673844 790.74631)
(0.0081735719 0.0059695501 790.74891)
(0.0045956198 0.0059617827 790.75233)
(4.1753303e-05 0.0058776301 790.75211)
(0.0022597468 0.003439697 790.74887)
(-0.0020956536 0.0051988249 790.75009)
(-0.0077985947 0.0066399686 790.74764)
(-0.0029488194 0.007325928 790.74661)
(0.00023237979 0.0077752372 790.74649)
(0.0031782023 0.0080471097 790.74725)
(0.0059695501 0.0081735719 790.74891)
(0.008141508 0.008141508 790.75152)
(0.0044513592 0.007882345 790.7549)
(-2.0615124e-05 0.0073350461 790.75461)
(0.003043917 -0.00010113253 790.75048)
(5.0895394e-05 0.00087524912 790.7525)
(-0.0064513117 0.0032602439 790.75061)
(-0.0023488993 0.0039787769 790.74981)
(0.00057825521 0.0043497717 790.74981)
(0.0033440875 0.0045432792 790.75064)
(0.0059617827 0.0045956198 790.75233)
(0.007882345 0.0044513592 790.7549)
(0.0037891579 0.0037891579 790.75812)
(-0.00032311265 0.0011377413 790.75747)
(0.0029106679 -0.0011478454 790.74938)
(0.0012657228 -0.0012810945 790.75123)
(-0.0046950669 -0.00033796046 790.75006)
(-0.0018592916 -0.00011026465 790.74946)
(0.00079688212 -1.1555285e-05 790.74955)
(0.0034240504 3.5486619e-05 790.75042)
(0.0058776301 4.1753304e-05 790.75211)
(0.0073350461 -2.0615122e-05 790.75461)
(0.0011377413 -0.00032311265 790.75747)
(-0.0017882262 -0.0017882262 790.75437)
(0.0065663916 0.0065663916 787.012)
(0.0011039067 0.0013698387 787.01459)
(-0.012982174 0.0017284095 787.01151)
(-0.0063050636 0.0017771889 787.01)
(-0.0022488872 0.0018346639 787.00941)
(0.0012857405 0.0019392318 787.00966)
(0.0041040058 0.0021550276 787.0107)
(0.0051327242 0.0026568439 787.01241)
(0.00030205639 0.0037022733 787.01424)
(-0.0014618127 0.0035051109 787.01341)
(0.0013698387 0.0011039067 787.01459)
(-0.0061530666 -0.0061530666 787.01496)
(-0.012371148 -0.0054700891 787.01204)
(-0.006145682 -0.0052902328 787.01056)
(-0.0020058229 -0.0050573679 787.01)
(0.0017662861 -0.0046830767 787.01032)
(0.0051804238 -0.0040171006 787.01151)
(0.0074535928 -0.0026613914 787.01355)
(0.001574457 0.00015261721 787.01615)
(-0.0016589751 0.0016139611 787.01514)
(0.0017284095 -0.012982174 787.01151)
(-0.0054700891 -0.012371148 787.01204)
(-0.01211934 -0.01211934 787.00918)
(-0.0058923424 -0.011869583 787.00776)
(-0.0016417311 -0.011538523 787.00727)
(0.0023260079 -0.011082629 787.00768)
(0.006125691 -0.010428025 787.00902)
(0.0093024419 -0.0094269084 787.01132)
(0.0045774089 -0.0076921474 787.01446)
(-0.00048758343 -0.0054957928 787.01411)
(0.0017771889 -0.0063050636 787.01)
(-0.0052902328 -0.006145682 787.01056)
(-0.011869583 -0.0058923424 787.00776)
(-0.0055648652 -0.0055648652 787.0064)
(-0.0012188688 -0.0051717466 787.00599)
(0.0028767848 -0.0047002224 787.00651)
(0.006836144 -0.0041242295 787.00799)
(0.01018947 -0.0034354588 787.01046)
(0.0055055725 -0.0026603224 787.01382)
(-0.00019473875 -0.0020311091 787.01366)
(0.0018346639 -0.0022488872 787.00941)
(-0.0050573679 -0.0020058229 787.01)
(-0.011538523 -0.0016417311 787.00727)
(-0.0051717466 -0.0012188688 787.00599)
(-0.00077708825 -0.00077708825 787.00568)
(0.003373525 -0.00032400491 787.0063)
(0.0073904546 0.00014729683 787.00789)
(0.010766349 0.00062867717 787.01049)
(0.0059817586 0.0010718552 787.01397)
(-6.8107877e-05 0.0013514492 787.0139)
(0.0019392318 0.0012857405 787.00966)
(-0.0046830767 0.0017662861 787.01032)
(-0.011082629 0.0023260079 787.00768)
(-0.0047002224 0.0028767847 787.00651)
(-0.00032400491 0.003373525 787.0063)
(0.0038011698 0.0038011698 787.00702)
(0.0077888261 0.0041654505 787.0087)
(0.011114028 0.0044619337 787.01138)
(0.0062283445 0.0046718061 787.01493)
(-8.3427502e-06 0.0047717182 787.01489)
(0.0021550276 0.0041040058 787.0107)
(-0.0040171006 0.0051804238 787.01151)
(-0.010428025 0.0061256911 787.00902)
(-0.0041242295 0.006836144 787.00799)
(0.00014729683 0.0073904546 787.00789)
(0.0041654504 0.0077888261 787.0087)
(0.0080512184 0.0080512184 787.01045)
(0.011272705 0.0081778417 787.01317)
(0.0062915432 0.0081606989 787.01674)
(-1.4998136e-06 0.0080456821 787.0167)
(0.0026568439 0.0051327242 787.01241)
(-0.0026613914 0.0074535928 787.01355)
(-0.0094269084 0.0093024419 787.01132)
(-0.0034354588 0.01018947 787.01046)
(0.00062867718 0.010766349 787.01049)
(0.0044619337 0.011114028 787.01138)
(0.0081778417 0.011272705 787.01317)
(0.011223509 0.011223509 787.0159)
(0.0060961849 0.010871391 787.01943)
(-8.502058e-05 0.010113807 787.01932)
(0.0037022734 0.00030205639 787.01424)
(0.00015261721 0.001574457 787.01615)
(-0.0076921474 0.0045774089 787.01446)
(-0.0026603224 0.0055055725 787.01382)
(0.0010718552 0.0059817586 787.01397)
(0.0046718061 0.0062283445 787.01493)
(0.0081606989 0.0062915432 787.01674)
(0.010871391 0.0060961849 787.01943)
(0.0051818419 0.0051818419 787.02281)
(-0.00050655579 0.0010793137 787.02236)
(0.0035051109 -0.0014618127 787.01341)
(0.0016139611 -0.0016589751 787.01514)
(-0.0054957928 -0.00048758343 787.01411)
(-0.0020311091 -0.00019473876 787.01366)
(0.0013514492 -6.8107877e-05 787.0139)
(0.0047717182 -8.3427483e-06 787.01489)
(0.0080456821 -1.4998193e-06 787.0167)
(0.010113807 -8.5020584e-05 787.01932)
(0.0010793137 -0.00050655579 787.02236)
(-0.0028200394 -0.0028200394 787.01937)
(0.0073890609 0.0073890609 783.59588)
(0.00084727995 0.001477401 783.59822)
(-0.015186078 0.0018891422 783.59533)
(-0.0072779157 0.0019500595 783.59397)
(-0.0023470635 0.002020774 783.59352)
(0.0020056286 0.0021477613 783.5939)
(0.0055514552 0.0024089107 783.59507)
(0.0069754314 0.0030196374 783.59689)
(0.00090028883 0.0043180065 783.59885)
(-0.00169882 0.0040594797 783.59823)
(0.001477401 0.00084727995 783.59822)
(-0.0074025981 -0.0074025981 783.59849)
(-0.01447709 -0.0066063716 783.59576)
(-0.007080468 -0.0063819502 783.59444)
(-0.0020505109 -0.0060959183 783.59403)
(0.0025878336 -0.0056404041 783.59447)
(0.0068592694 -0.0048329468 783.59577)
(0.0098390752 -0.0031874988 783.59792)
(0.0024600523 0.0002704514 783.60062)
(-0.0019573468 0.0019628751 783.59983)
(0.0018891422 -0.015186078 783.59533)
(-0.0066063716 -0.01447709 783.59576)
(-0.01416543 -0.01416543 783.59309)
(-0.0067674625 -0.013856185 783.59183)
(-0.0016055174 -0.013450857 783.59148)
(0.0032686001 -0.012895467 783.59202)
(0.0080043605 -0.012100002 783.59346)
(0.01207883 -0.010887305 783.59585)
(0.0060506627 -0.0087808299 783.59907)
(-0.00057053754 -0.0061690229 783.59891)
(0.0019500595 -0.0072779157 783.59397)
(-0.0063819501 -0.007080468 783.59444)
(-0.013856185 -0.0067674625 783.59183)
(-0.0063658957 -0.0063658956 783.59063)
(-0.0010897923 -0.005886214 783.59036)
(0.0039386889 -0.0053124815 783.591)
(0.0088674314 -0.0046127078 783.59258)
(0.013158247 -0.0037773627 783.59514)
(0.007178334 -0.002834637 783.59856)
(-0.0002161421 -0.0020734072 783.59858)
(0.002020774 -0.0023470635 783.59352)
(-0.0060959183 -0.0020505109 783.59403)
(-0.013450857 -0.0016055174 783.59148)
(-0.005886214 -0.0010897923 783.59036)
(-0.00055210326 -0.00055210325 783.59018)
(0.0045421063 -1.6103371e-06 783.59092)
(0.0095394793 0.00057003602 783.59261)
(0.0138569 0.0011525457 783.59529)
(0.0077546181 0.0016883042 783.59883)
(-6.305102e-05 0.002025505 783.59893)
(0.0021477613 0.0020056286 783.5939)
(-0.0056404041 0.0025878336 783.59447)
(-0.012895467 0.0032686001 783.59202)
(-0.0053124815 0.0039386889 783.591)
(-1.6103382e-06 0.0045421063 783.59092)
(0.0050608281 0.0050608282 783.59176)
(0.010021587 0.0055015136 783.59353)
(0.014276515 0.0058585027 783.59628)
(0.0080512933 0.0061093822 783.59989)
(8.6584703e-06 0.006227324 783.60002)
(0.0024089107 0.0055514552 783.59507)
(-0.0048329468 0.0068592694 783.59577)
(-0.012100002 0.0080043605 783.59346)
(-0.0046127078 0.0088674314 783.59258)
(0.00057003602 0.0095394793 783.59261)
(0.0055015135 0.010021587 783.59353)
(0.010337154 0.010337154 783.59536)
(0.014464769 0.010485717 783.59816)
(0.0081234394 0.010457575 783.60178)
(1.5576871e-05 0.010311341 783.60192)
(0.0030196374 0.0069754314 783.59689)
(-0.0031874988 0.0098390752 783.59792)
(-0.010887305 0.01207883 783.59585)
(-0.0037773627 0.013158247 783.59514)
(0.0011525457 0.0138569 783.59529)
(0.0058585027 0.014276515 783.59628)
(0.010485717 0.014464769 783.59816)
(0.014396936 0.014396936 783.60095)
(0.0078769172 0.013953595 783.60454)
(-8.8830687e-05 0.012996715 783.60461)
(0.0043180065 0.00090028883 783.59885)
(0.00027045139 0.0024600523 783.60062)
(-0.00878083 0.0060506627 783.59907)
(-0.002834637 0.007178334 783.59856)
(0.0016883042 0.0077546181 783.59883)
(0.0061093822 0.0080512933 783.59989)
(0.010457575 0.0081234394 783.60178)
(0.013953595 0.0078769171 783.60454)
(0.0067232179 0.0067232179 783.60798)
(-0.00062234319 0.0011866197 783.60773)
(0.0040594797 -0.00169882 783.59823)
(0.0019628751 -0.0019573468 783.59983)
(-0.0061690229 -0.00057053754 783.59891)
(-0.0020734072 -0.0002161421 783.59858)
(0.002025505 -6.3051018e-05 783.59893)
(0.006227324 8.658471e-06 783.60002)
(0.010311341 1.557687e-05 783.60192)
(0.012996715 -8.8830692e-05 783.60461)
(0.0011866197 -0.00062234319 783.60773)
(-0.0037798961 -0.0037798961 783.60499)
(0.0081241286 0.0081241286 780.48161)
(0.00055004218 0.0015505611 780.48367)
(-0.017227074 0.0020148055 780.48096)
(-0.0081131931 0.0020882438 780.47975)
(-0.0023218052 0.0021719896 780.47941)
(0.0028344188 0.002320507 780.4799)
(0.0070955171 0.0026249448 780.48115)
(0.008912662 0.0033397167 780.48304)
(0.0016433054 0.0048814684 780.48508)
(-0.0018718621 0.0045702042 780.48464)
(0.0015505611 0.00055004219 780.48367)
(-0.0086139425 -0.0086139425 780.48384)
(-0.01642055 -0.0077044776 780.48128)
(-0.007877417 -0.0074346538 780.4801)
(-0.0019734104 -0.0070965509 780.47981)
(0.0035138516 -0.0065630275 780.48036)
(0.0086243317 -0.0056205764 780.48174)
(0.012297447 -0.0036989196 780.48393)
(0.0034890365 0.00037614788 780.48668)
(-0.0021831263 0.0022953005 780.4861)
(0.0020148055 -0.017227074 780.48096)
(-0.0077044776 -0.01642055 780.48128)
(-0.016047785 -0.016047785 780.4788)
(-0.0075052664 -0.015679281 780.47767)
(-0.0014501788 -0.015201754 780.47744)
(0.0043103933 -0.014550862 780.47808)
(0.0099596249 -0.013620998 780.47959)
(0.014909386 -0.012207117 780.48203)
(0.0076375255 -0.0097465558 780.48526)
(-0.00059242704 -0.0067414886 780.48528)
(0.0020882438 -0.0081131931 780.47975)
(-0.0074346538 -0.007877417 780.4801)
(-0.015679281 -0.0075052664 780.47767)
(-0.0070313859 -0.0070313859 780.47661)
(-0.00084499128 -0.0064681526 780.47646)
(0.0050946069 -0.0057964795 780.47719)
(0.010968077 -0.0049786022 780.47883)
(0.01617189 -0.0040038566 780.48142)
(0.0089546645 -0.0029016849 780.48486)
(-0.00017974824 -0.0020154511 780.48504)
(0.0021719896 -0.0023218052 780.47941)
(-0.0070965509 -0.0019734104 780.47981)
(-0.015201754 -0.0014501788 780.47744)
(-0.0064681526 -0.00084499128 780.47646)
(-0.00021527243 -0.00021527243 780.47639)
(0.0057999437 0.00042834966 780.47722)
(0.011752248 0.0010956413 780.47896)
(0.016986304 0.0017742742 780.48167)
(0.0096259311 0.0023979351 780.48521)
(-1.604518e-06 0.0027896463 780.48547)
(0.002320507 0.0028344188 780.4799)
(-0.0065630274 0.0035138516 780.48036)
(-0.014550862 0.0043103933 780.47808)
(-0.0057964795 0.0050946069 780.47719)
(0.00042834965 0.0057999437 780.47722)
(0.0064055207 0.0064055207 780.47813)
(0.012314001 0.0069188912 780.47996)
(0.017474184 0.0073332528 780.48274)
(0.0099700366 0.007622869 780.48634)
(8.1392575e-05 0.0077576844 780.48663)
(0.0026249448 0.0070955171 780.48115)
(-0.0056205764 0.0086243317 780.48174)
(-0.013620998 0.0099596249 780.47959)
(-0.0049786022 0.010968077 780.47883)
(0.0010956413 0.011752248 780.47896)
(0.0069188912 0.012314001 780.47996)
(0.01267998 0.01267998 780.48185)
(0.017690282 0.012849093 780.48466)
(0.010050363 0.012810093 780.48828)
(8.8272381e-05 0.012633781 780.48858)
(0.0033397167 0.008912662 780.48304)
(-0.0036989196 0.012297447 780.48393)
(-0.012207117 0.014909386 780.48203)
(-0.0040038566 0.01617189 780.48142)
(0.0017742742 0.016986304 780.48167)
(0.0073332528 0.017474184 780.48274)
(0.012849093 0.017690282 780.48466)
(0.017604297 0.017604297 780.48748)
(0.0097547247 0.017074051 780.49106)
(-3.6148633e-05 0.015929365 780.4913)
(0.0048814684 0.0016433054 780.48508)
(0.00037614789 0.0034890365 780.48668)
(-0.0097465558 0.0076375255 780.48526)
(-0.0029016849 0.0089546645 780.48486)
(0.0023979351 0.0096259311 780.48521)
(0.007622869 0.0099700366 780.48634)
(0.012810093 0.010050363 780.48828)
(0.017074051 0.0097547247 780.49106)
(0.0083754301 0.0083754301 780.49452)
(-0.00067485188 0.0014555421 780.49445)
(0.0045702042 -0.0018718621 780.48464)
(0.0022953005 -0.0021831263 780.4861)
(-0.0067414886 -0.00059242704 780.48528)
(-0.0020154511 -0.00017974824 780.48504)
(0.0027896463 -1.6045206e-06 780.48547)
(0.0077576844 8.1392572e-05 780.48663)
(0.012633781 8.8272386e-05 780.48858)
(0.015929365 -3.6148634e-05 780.4913)
(0.0014555421 -0.00067485188 780.49445)
(-0.0046494073 -0.0046494073 780.49198)
(0.0087674287 0.0087674287 777.64914)
(0.00020581017 0.0015877191 777.65093)
(-0.019112748 0.002102872 777.6484)
(-0.0088289684 0.0021888987 777.64731)
(-0.0021972335 0.0022853126 777.64708)
(0.0037415688 0.0024543384 777.64764)
(0.0086986511 0.0027997699 777.64895)
(0.010902335 0.0036131772 777.65087)
(0.0024987026 0.0053872854 777.65294)
(-0.001988153 0.0050330931 777.65267)
(0.0015877191 0.00020581018 777.65093)
(-0.0097910249 -0.0097910249 777.65099)
(-0.018210978 -0.0087705882 777.64861)
(-0.0085553075 -0.0084554794 777.64756)
(-0.0017990739 -0.0080669395 777.64736)
(0.0045132548 -0.0074590785 777.64798)
(0.010436909 -0.0063887727 777.64941)
(0.014783608 -0.0042057263 777.65162)
(0.0046285764 0.00045610951 777.65437)
(-0.0023423453 0.0025987939 777.65398)
(0.002102872 -0.019112748 777.6484)
(-0.0087705882 -0.018210978 777.64861)
(-0.017777202 -0.017777202 777.64631)
(-0.0081253197 -0.017350516 777.6453)
(-0.0012008326 -0.016803449 777.64517)
(0.0054197356 -0.016061564 777.64587)
(0.011952003 -0.015004332 777.64743)
(0.017747217 -0.013400386 777.64986)
(0.0093032229 -0.010605079 777.65307)
(-0.0005596967 -0.0072295946 777.65324)
(0.0021888987 -0.0088289684 777.64731)
(-0.0084554794 -0.0085553075 777.64756)
(-0.017350516 -0.0081253197 777.6453)
(-0.0075815548 -0.0075815548 777.64436)
(-0.00051012206 -0.0069383083 777.6443)
(0.0063123723 -0.0061734222 777.6451)
(0.013098087 -0.0052435608 777.64677)
(0.01918286 -0.0041369807 777.64935)
(0.010799368 -0.0028840303 777.65275)
(-9.2022085e-05 -0.0018798444 777.65308)
(0.0022853126 -0.0021972335 777.64708)
(-0.0080669395 -0.0017990739 777.64736)
(-0.016803449 -0.0012008326 777.64517)
(-0.0069383083 -0.00051012206 777.6443)
(0.00020729991 0.00020729991 777.64433)
(0.0071144831 0.00093942251 777.64521)
(0.013988445 0.0016974062 777.64698)
(0.020106747 0.0024670212 777.64967)