/*--------------------------------*- C++ -*----------------------------------*\
| =========                 |                                                 |
| \\      /  F ield         | OpenFOAM: The Open Source CFD Toolbox           |
|  \\    /   O peration     | Version:  v2106                                 |
|   \\  /    A nd           | Website:  www.openfoam.com                      |
|    \\/     M anipulation  |                                                 |
\*---------------------------------------------------------------------------*/
FoamFile
{
    version     2.0;
    format      ascii;
    arch        "LSB;label=32;scalar=64";
    class       volScalarField;
    location    "42.5";
    object      gradTz;
}
// * * * * * * * * * * * * * * * * * * * * * * * * * * * * * * * * * * * * * //

dimensions      [0 -1 0 1 0 0 0];

internalField   nonuniform List<scalar> 
4000
(
540.56056
540.56693
540.56277
540.56116
540.56032
540.56011
540.56039
540.56096
540.56144
540.56129
540.56693
540.56836
540.56469
540.5631
540.56229
540.56213
540.56253
540.56332
540.56416
540.56392
540.56277
540.56469
540.56107
540.55952
540.55876
540.55867
540.55917
540.56018
540.56143
540.56189
540.56116
540.5631
540.55952
540.55802
540.55731
540.5573
540.55791
540.55904
540.56044
540.56103
540.56032
540.56229
540.55876
540.55731
540.55668
540.55675
540.55744
540.55867
540.56017
540.56082
540.56011
540.56213
540.55867
540.5573
540.55675
540.55688
540.55765
540.55894
540.56049
540.56118
540.56039
540.56253
540.55917
540.55791
540.55744
540.55765
540.55846
540.55979
540.56136
540.56206
540.56096
540.56332
540.56018
540.55904
540.55867
540.55894
540.55979
540.56113
540.56269
540.56335
540.56144
540.56416
540.56143
540.56044
540.56017
540.56049
540.56136
540.56269
540.56419
540.56476
540.56129
540.56392
540.56189
540.56103
540.56082
540.56118
540.56206
540.56335
540.56476
540.56511
799.2571
799.26266
799.25811
799.25589
799.25474
799.25451
799.25503
799.25603
799.25682
799.25573
799.26266
799.26401
799.25972
799.25753
799.25643
799.25627
799.25696
799.25831
799.25981
799.25857
799.25811
799.25972
799.25551
799.25337
799.25234
799.25229
799.25313
799.25479
799.25689
799.25656
799.25589
799.25753
799.25337
799.25129
799.25035
799.25041
799.25141
799.25326
799.25559
799.25548
799.25474
799.25643
799.25234
799.25035
799.24951
799.24969
799.25081
799.2528
799.25527
799.25525
799.25451
799.25627
799.25229
799.25041
799.24969
799.24997
799.25119
799.25327
799.25582
799.25584
799.25503
799.25696
799.25313
799.25141
799.25081
799.25119
799.25249
799.25462
799.2572
799.25723
799.25603
799.25831
799.25479
799.25326
799.2528
799.25327
799.25462
799.25677
799.25932
799.25929
799.25682
799.25981
799.25689
799.25559
799.25527
799.25582
799.2572
799.25932
799.26175
799.26147
799.25573
799.25857
799.25656
799.25548
799.25525
799.25584
799.25723
799.25929
799.26147
799.26019
794.8261
794.82938
794.82574
794.8238
794.82284
794.82276
794.82347
794.82475
794.82593
794.82443
794.82938
794.82987
794.82637
794.82446
794.82354
794.82353
794.82439
794.82604
794.82806
794.82654
794.82574
794.82637
794.82292
794.82106
794.82021
794.82031
794.82133
794.82326
794.82586
794.82511
794.8238
794.82446
794.82106
794.81926
794.8185
794.81871
794.81988
794.822
794.82483
794.8243
794.82284
794.82354
794.82021
794.8185
794.81784
794.81816
794.81945
794.8217
794.82467
794.82423
794.82276
794.82353
794.82031
794.81871
794.81816
794.81858
794.81997
794.82231
794.82535
794.82495
794.82347
794.82439
794.82133
794.81988
794.81945
794.81997
794.82143
794.82382
794.82689
794.82649
794.82475
794.82604
794.82326
794.822
794.8217
794.82231
794.82382
794.82622
794.82925
794.82879
794.82593
794.82806
794.82586
794.82483
794.82467
794.82535
794.82689
794.82925
794.83213
794.83131
794.82443
794.82654
794.82511
794.8243
794.82423
794.82495
794.82649
794.82879
794.83131
794.82854
790.74927
790.75211
790.74881
790.74711
790.74635
790.74644
790.74733
790.74887
790.75048
790.74938
790.75211
790.75255
790.7494
790.74773
790.747
790.74717
790.7482
790.75009
790.7525
790.75123
790.74881
790.7494
790.74631
790.74469
790.74403
790.7443
790.74549
790.74764
790.75061
790.75006
790.74711
790.74773
790.74469
790.74314
790.74256
790.74294
790.74427
790.74661
790.74981
790.74946
790.74635
790.747
790.74403
790.74256
790.74209
790.74257
790.74402
790.74649
790.74981
790.74955
790.74644
790.74717
790.7443
790.74294
790.74257
790.74315
790.74469
790.74725
790.75064
790.75042
790.74733
790.7482
790.74549
790.74427
790.74402
790.74469
790.74631
790.74891
790.75233
790.75211
790.74887
790.75009
790.74764
790.74661
790.74649
790.74725
790.74891
790.75152
790.7549
790.75461
790.75048
790.7525
790.75061
790.74981
790.74981
790.75064
790.75233
790.7549
790.75812
790.75747
790.74938
790.75123
790.75006
790.74946
790.74955
790.75042
790.75211
790.75461
790.75747
790.75437
787.012
787.01459
787.01151
787.01
787.00941
787.00966
787.0107
787.01241
787.01424
787.01341
787.01459
787.01496
787.01204
787.01056
787.01
787.01032
787.01151
787.01355
787.01615
787.01514
787.01151
787.01204
787.00918
787.00776
787.00727
787.00768
787.00902
787.01132
787.01446
787.01411
787.01
787.01056
787.00776
787.0064
787.00599
787.00651
787.00799
787.01046
787.01382
787.01366
787.00941
787.01
787.00727
787.00599
787.00568
787.0063
787.00789
787.01049
787.01397
787.0139
787.00966
787.01032
787.00768
787.00651
787.0063
787.00702
787.0087
787.01138
787.01493
787.01489
787.0107
787.01151
787.00902
787.00799
787.00789
787.0087
787.01045
787.01317
787.01674
787.0167
787.01241
787.01355
787.01132
787.01046
787.01049
787.01138
787.01317
787.0159
787.01943
787.01932
787.01424
787.01615
787.01446
787.01382
787.01397
787.01493
787.01674
787.01943
787.02281
787.02236
787.01341
787.01514
787.01411
787.01366
787.0139
787.01489
787.0167
787.01932
787.02236
787.01937
783.59588
783.59822
783.59533
783.59397
783.59352
783.5939
783.59507
783.59689
783.59885
783.59823
783.59822
783.59849
783.59576
783.59444
783.59403
783.59447
783.59577
783.59792
783.60062
783.59983
783.59533
783.59576
783.59309
783.59183
783.59148
783.59202
783.59346
783.59585
783.59907
783.59891
783.59397
783.59444
783.59183
783.59063
783.59036
783.591
783.59258
783.59514
783.59856
783.59858
783.59352
783.59403
783.59148
783.59036
783.59018
783.59092
783.59261
783.59529
783.59883
783.59893
783.5939
783.59447
783.59202
783.591
783.59092
783.59176
783.59353
783.59628
783.59989
783.60002
783.59507
783.59577
783.59346
783.59258
783.59261
783.59353
783.59536
783.59816
783.60178
783.60192
783.59689
783.59792
783.59585
783.59514
783.59529
783.59628
783.59816
783.60095
783.60454
783.60461
783.59885
783.60062
783.59907
783.59856
783.59883
783.59989
783.60178
783.60454
783.60798
783.60773
783.59823
783.59983
783.59891
783.59858
783.59893
783.60002
783.60192
783.60461
783.60773
783.60499
780.48161
780.48367
780.48096
780.47975
780.47941
780.4799
780.48115
780.48304
780.48508
780.48464
780.48367
780.48384
780.48128
780.4801
780.47981
780.48036
780.48174
780.48393
780.48668
780.4861
780.48096
780.48128
780.4788
780.47767
780.47744
780.47808
780.47959
780.48203
780.48526
780.48528
780.47975
780.4801
780.47767
780.47661
780.47646
780.47719
780.47883
780.48142
780.48486
780.48504
780.47941
780.47981
780.47744
780.47646
780.47639
780.47722
780.47896
780.48167
780.48521
780.48547
780.4799
780.48036
780.47808
780.47719
780.47722
780.47813
780.47996
780.48274
780.48634
780.48663
780.48115
780.48174
780.47959
780.47883
780.47896
780.47996
780.48185
780.48466
780.48828
780.48858
780.48304
780.48393
780.48203
780.48142
780.48167
780.48274
780.48466
780.48748
780.49106
780.4913
780.48508
780.48668
780.48526
780.48486
780.48521
780.48634
780.48828
780.49106
780.49452
780.49445
780.48464
780.4861
780.48528
780.48504
780.48547
780.48663
780.48858
780.4913
780.49445
780.49198
777.64914
777.65093
777.6484
777.64731
777.64708
777.64764
777.64895
777.65087
777.65294
777.65267
777.65093
777.65099
777.64861
777.64756
777.64736
777.64798
777.64941
777.65162
777.65437
777.65398
777.6484
777.64861
777.64631
777.6453
777.64517
777.64587
777.64743
777.64986
777.65307
777.65324
777.64731
777.64756
777.6453
777.64436
777.6443
777.6451
777.64677
777.64935
777.65275
777.65308
777.64708
777.64736
777.64517
777.6443
777.64433
777.64521
777.64698
777.64967
777.65317
777.65357
777.64764
777.64798
777.64587
777.6451
777.64521
777.64618
777.64803
777.65079
777.65435
777.65478
777.64895
777.64941
777.64743
777.64677
777.64698
777.64803
777.64993
777.65273
777.6563
777.65673
777.65087
777.65162
777.64986
777.64935
777.64967
777.65079
777.65273
777.65553
777.65907
777.65945
777.65294
777.65437
777.65307
777.65275
777.65317
777.65435
777.6563
777.65907
777.66249
777.66258
777.65267
777.65398
777.65324
777.65308
777.65357
777.65478
777.65673
777.65945
777.66258
777.6604
775.07782
775.07932
775.07699
775.07602
775.07587
775.07649
775.07782
775.07975
775.08182
775.0817
775.07932
775.07928
775.07708
775.07615
775.07604
775.07671
775.07815
775.08035
775.08306
775.08285
775.07699
775.07708
775.07496
775.07407
775.07402
775.07477
775.07634
775.07874
775.08188
775.08219
775.07602
775.07615
775.07407
775.07325
775.07327
775.0741
775.07578
775.07832
775.08164
775.08209
775.07587
775.07604
775.07402
775.07327
775.07336
775.07428
775.07605
775.07869
775.08211
775.08263
775.07649
775.07671
775.07477
775.0741
775.07428
775.07528
775.07712
775.07983
775.0833
775.08385
775.07782
775.07815
775.07634
775.07578
775.07605
775.07712
775.07902
775.08176
775.08524
775.08579
775.07975
775.08035
775.07874
775.07832
775.07869
775.07983
775.08176
775.0845
775.08796
775.08846
775.08182
775.08306
775.08188
775.08164
775.08211
775.0833
775.08524
775.08796
775.0913
775.09155
775.0817
775.08285
775.08219
775.08209
775.08263
775.08385
775.08579
775.08846
775.09155
775.08965
772.74646
772.74768
772.74554
772.74468
772.74461
772.74527
772.7466
772.7485
772.75055
772.75057
772.74768
772.74753
772.74553
772.7447
772.74467
772.74537
772.74681
772.74896
772.75161
772.75156
772.74554
772.74553
772.74359
772.74282
772.74284
772.74362
772.74516
772.7475
772.75055
772.75098
772.74468
772.7447
772.74282
772.7421
772.74218
772.74305
772.7447
772.74716
772.75037
772.75093
772.74461
772.74467
772.74284
772.74218
772.74234
772.74328
772.74502
772.74758
772.75087
772.7515
772.74527
772.74537
772.74362
772.74305
772.74328
772.74429
772.74609
772.74871
772.75206
772.75271
772.7466
772.74681
772.74516
772.7447
772.74502
772.74609
772.74795
772.7506
772.75396
772.75462
772.7485
772.74896
772.7475
772.74716
772.74758
772.74871
772.7506
772.75326
772.7566
772.75721
772.75055
772.75161
772.75055
772.75037
772.75087
772.75206
772.75396
772.7566
772.75984
772.76022
772.75057
772.75156
772.75098
772.75093
772.7515
772.75271
772.75462
772.75721
772.76022
772.7586
770.63348
770.63442
770.63249
770.63175
770.63174
770.63242
770.63373
770.63558
770.63759
770.63772
770.63442
770.63418
770.63238
770.63167
770.63169
770.63242
770.63382
770.6359
770.63846
770.63856
770.63249
770.63238
770.63064
770.62997
770.63005
770.63084
770.63235
770.6346
770.63752
770.63805
770.63175
770.63167
770.62997
770.62936
770.6295
770.63037
770.63197
770.63434
770.6374
770.63805
770.63174
770.63169
770.63005
770.6295
770.62971
770.63064
770.63233
770.63478
770.63792
770.63863
770.63242
770.63242
770.63084
770.63037
770.63064
770.63165
770.63339
770.6359
770.63909
770.63983
770.63373
770.63382
770.63235
770.63197
770.63233
770.63339
770.63519
770.63773
770.64093
770.64167
770.63558
770.6359
770.6346
770.63434
770.63478
770.6359
770.63773
770.64027
770.64345
770.64416
770.63759
770.63846
770.63752
770.6374
770.63792
770.63909
770.64093
770.64345
770.64655
770.64705
770.63772
770.63856
770.63805
770.63805
770.63863
770.63983
770.64167
770.64416
770.64705
770.6457
768.71705
768.71771
768.71601
768.71537
768.71543
768.71611
768.71739
768.71917
768.7211
768.72135
768.71771
768.71739
768.7158
768.7152
768.71528
768.71601
768.71737
768.71935
768.72179
768.72202
768.71601
768.7158
768.71427
768.71371
768.71384
768.71463
768.71608
768.71822
768.72097
768.72159
768.71537
768.7152
768.71371
768.7132
768.71339
768.71424
768.71578
768.71802
768.72091
768.72164
768.71543
768.71528
768.71384
768.71339
768.71363
768.71456
768.71617
768.71848
768.72145
768.72223
768.71611
768.71601
768.71463
768.71424
768.71456
768.71554
768.71721
768.71958
768.72258
768.72338
768.71739
768.71737
768.71608
768.71578
768.71617
768.71721
768.71892
768.72131
768.72433
768.72514
768.71917
768.71935
768.71822
768.71802
768.71848
768.71958
768.72131
768.72372
768.72672
768.7275
768.7211
768.72179
768.72097
768.72091
768.72145
768.72258
768.72433
768.72672
768.72965
768.73025
768.72135
768.72202
768.72159
768.72164
768.72223
768.72338
768.72514
768.7275
768.73025
768.72917
766.97519
766.97558
766.97411
766.97359
766.9737
766.97438
766.97561
766.97729
766.97914
766.97948
766.97558
766.97519
766.97382
766.97333
766.97346
766.97418
766.97548
766.97735
766.97964
766.98
766.97411
766.97382
766.9725
766.97205
766.97223
766.973
766.97438
766.97638
766.97895
766.97964
766.97359
766.97333
766.97205
766.97164
766.97187
766.97271
766.97417
766.97626
766.97894
766.97973
766.9737
766.97346
766.97223
766.97187
766.97215
766.97305
766.97457
766.97673
766.97948
766.98031
766.97438
766.97418
766.973
766.97271
766.97305
766.974
766.97557
766.97778
766.98057
766.98142
766.97561
766.97548
766.97438
766.97417
766.97457
766.97557
766.97718
766.97941
766.98222
766.98307
766.97729
766.97735
766.97638
766.97626
766.97673
766.97778
766.97941
766.98165
766.98445
766.98528
766.97914
766.97964
766.97895
766.97894
766.97948
766.98057
766.98222
766.98445
766.98718
766.98786
766.97948
766.98
766.97964
766.97973
766.98031
766.98142
766.98307
766.98528
766.98786
766.98703
765.38591
765.38605
765.38481
765.38441
765.38456
765.38524
765.3864
765.38797
765.38971
765.39014
765.38605
765.3856
765.38445
765.38407
765.38425
765.38496
765.38618
765.38791
765.39003
765.3905
765.38481
765.38445
765.38335
765.38301
765.38323
765.38398
765.38527
765.38712
765.38948
765.39023
765.38441
765.38407
765.38301
765.38271
765.38297
765.38378
765.38514
765.38706
765.38952
765.39035
765.38456
765.38425
765.38323
765.38297
765.38328
765.38414
765.38555
765.38754
765.39006
765.39092
765.38524
765.38496
765.38398
765.38378
765.38414
765.38504
765.3865
765.38852
765.39108
765.39196
765.3864
765.38618
765.38527
765.38514
765.38555
765.3865
765.38799
765.39004
765.39261
765.3935
765.38797
765.38791
765.38712
765.38706
765.38754
765.38852
765.39004
765.3921
765.39466
765.39553
765.38971
765.39003
765.38948
765.38952
765.39006
765.39108
765.39261
765.39466
765.39717
765.39791
765.39014
765.3905
765.39023
765.39035
765.39092
765.39196
765.3935
765.39553
765.39791
765.39734
763.92734
763.92723
763.92624
763.92595
763.92615
763.92681
763.92789
763.92934
763.93094
763.93145
763.92723
763.92673
763.92582
763.92555
763.92577
763.92645
763.92759
763.92917
763.9311
763.93166
763.92624
763.92582
763.92494
763.92471
763.92497
763.92569
763.92688
763.92855
763.93069
763.93147
763.92595
763.92555
763.92471
763.92451
763.92481
763.92557
763.92682
763.92856
763.93078
763.93163
763.92615
763.92577
763.92497
763.92481
763.92514
763.92595
763.92724
763.92903
763.9313
763.93218
763.92681
763.92645
763.92569
763.92557
763.92595
763.9268
763.92813
763.92995
763.93225
763.93315
763.92789
763.92759
763.92688
763.92682
763.92724
763.92813
763.92949
763.93133
763.93364
763.93455
763.92934
763.92917
763.92855
763.92856
763.92903
763.92995
763.93133
763.93319
763.93549
763.93639
763.93094
763.9311
763.93069
763.93078
763.9313
763.93225
763.93364
763.93549
763.93776
763.93855
763.93145
763.93166
763.93147
763.93163
763.93218
763.93315
763.93455
763.93639
763.93855
763.93821
762.57783
762.57749
762.57675
762.57657
762.57681
762.57744
762.57843
762.57974
762.5812
762.58177
762.57749
762.57695
762.57627
762.57612
762.57638
762.57702
762.57806
762.57947
762.5812
762.58183
762.57675
762.57627
762.57563
762.57551
762.57579
762.57647
762.57755
762.57904
762.58092
762.58173
762.57657
762.57612
762.57551
762.57541
762.57573
762.57645
762.57757
762.57911
762.58106
762.58192
762.57681
762.57638
762.57579
762.57573
762.57608
762.57683
762.57799
762.57957
762.58156
762.58245
762.57744
762.57702
762.57647
762.57645
762.57683
762.57762
762.57881
762.58042
762.58243
762.58333
762.57843
762.57806
762.57755
762.57757
762.57799
762.57881
762.58002
762.58165
762.58368
762.58458
762.57974
762.57947
762.57904
762.57911
762.57957
762.58042
762.58165
762.58329
762.58531
762.58621
762.5812
762.5812
762.58092
762.58106
762.58156
762.58243
762.58368
762.58531
762.58732
762.58814
762.58177
762.58183
762.58173
762.58192
762.58245
762.58333
762.58458
762.58621
762.58814
762.58802
761.31606
761.3155
761.31502
761.31496
761.31524
761.31583
761.31672
761.31788
761.31918
761.3198
761.3155
761.31494
761.3145
761.31446
761.31476
761.31536
761.31629
761.31752
761.31903
761.31972
761.31502
761.3145
761.3141
761.31408
761.3144
761.31503
761.31599
761.31727
761.31889
761.31971
761.31496
761.31446
761.31408
761.31409
761.31443
761.31509
761.31608
761.31741
761.31908
761.31993
761.31524
761.31476
761.3144
761.31443
761.31479
761.31548
761.3165
761.31786
761.31955
761.32043
761.31583
761.31536
761.31503
761.31509
761.31548
761.31619
761.31724
761.31861
761.32033
761.32121
761.31672
761.31629
761.31599
761.31608
761.3165
761.31724
761.3183
761.31969
761.32142
761.32231
761.31788
761.31752
761.31727
761.31741
761.31786
761.31861
761.31969
761.32109
761.32283
761.32371
761.31918
761.31903
761.31889
761.31908
761.31955
761.32033
761.32142
761.32283
761.32455
761.32538
761.3198
761.31972
761.31971
761.31993
761.32043
761.32121
761.32231
761.32371
761.32538
761.32547
760.12119
760.12043
760.12021
760.12026
760.12058
760.12113
760.12191
760.1229
760.12403
760.12469
760.12043
760.11986
760.11966
760.11973
760.12006
760.12062
760.12142
760.12246
760.12374
760.12448
760.12021
760.11966
760.11949
760.11958
760.11992
760.1205
760.12133
760.1224
760.12375
760.12455
760.12026
760.11973
760.11958
760.11969
760.12005
760.12065
760.12149
760.1226
760.12397
760.1248
760.12058
760.12006
760.11992
760.12005
760.12042
760.12104
760.12191
760.12303
760.12442
760.12526
760.12113
760.12062
760.1205
760.12065
760.12104
760.12168
760.12256
760.1237
760.1251
760.12595
760.12191
760.12142
760.12133
760.12149
760.12191
760.12256
760.12345
760.1246
760.12602
760.12687
760.1229
760.12246
760.1224
760.1226
760.12303
760.1237
760.1246
760.12576
760.12718
760.12804
760.12403
760.12374
760.12375
760.12397
760.12442
760.1251
760.12602
760.12718
760.1286
760.12944
760.12469
760.12448
760.12455
760.1248
760.12526
760.12595
760.12687
760.12804
760.12944
760.12972
758.97291
758.97197
758.97201
758.97218
758.97252
758.97303
758.9737
758.97452
758.97546
758.97614
758.97197
758.9714
758.97145
758.97163
758.97198
758.97249
758.97317
758.97401
758.97504
758.97581
758.97201
758.97145
758.97152
758.97171
758.97207
758.97259
758.97328
758.97413
758.97519
758.97597
758.97218
758.97163
758.97171
758.97192
758.97229
758.97282
758.97352
758.97439
758.97545
758.97624
758.97252
758.97198
758.97207
758.97229
758.97267
758.97322
758.97392
758.9748
758.97587
758.97667
758.97303
758.97249
758.97259
758.97282
758.97322
758.97377
758.97448
758.97536
758.97645
758.97725
758.9737
758.97317
758.97328
758.97352
758.97392
758.97448
758.9752
758.97609
758.97718
758.97799
758.97452
758.97401
758.97413
758.97439
758.9748
758.97536
758.97609
758.977
758.9781
758.97891
758.97546
758.97504
758.97519
758.97545
758.97587
758.97645
758.97718
758.9781
758.97921
758.98002
758.97614
758.97581
758.97597
758.97624
758.97667
758.97725
758.97799
758.97891
758.98002
758.98048
757.85159
757.85049
757.85079
757.85107
757.85144
757.8519
757.85244
757.85308
757.85383
757.85452
757.85049
757.84993
757.85022
757.85051
757.85089
757.85134
757.85188
757.85251
757.85328
757.85408
757.85079
757.85022
757.85052
757.85083
757.8512
757.85166
757.8522
757.85282
757.85357
757.85432
757.85107
757.85051
757.85083
757.85113
757.85151
757.85197
757.85251
757.85313
757.85388
757.85462
757.85144
757.85089
757.8512
757.85151
757.8519
757.85235
757.85289
757.85352
757.85426
757.855
757.8519
757.85134
757.85166
757.85197
757.85235
757.85282
757.85335
757.85398
757.85473
757.85547
757.85244
757.85188
757.8522
757.85251
757.85289
757.85335
757.8539
757.85453
757.85528
757.85603
757.85308
757.85251
757.85282
757.85313
757.85352
757.85398
757.85453
757.85516
757.85593
757.85669
757.85383
757.85328
757.85357
757.85388
757.85426
757.85473
757.85528
757.85593
757.85672
757.8575
757.85452
757.85408
757.85432
757.85462
757.855
757.85547
757.85603
757.85669
757.8575
757.85812
756.73834
756.73709
756.73764
756.73803
756.73843
756.73883
756.73924
756.73969
756.74024
756.74093
756.73709
756.73655
756.73708
756.73748
756.73787
756.73826
756.73866
756.73908
756.73959
756.74038
756.73764
756.73708
756.73762
756.73802
756.73841
756.73879
756.73918
756.73957
756.74002
756.74071
756.73803
756.73748
756.73802
756.73842
756.73881
756.73919
756.73956
756.73993
756.74036
756.74103
756.73843
756.73787
756.73841
756.73881
756.73919
756.73956
756.73992
756.74029
756.7407
756.74137
756.73883
756.73826
756.73879
756.73919
756.73956
756.73993
756.74028
756.74064
756.74105
756.74172
756.73924
756.73866
756.73918
756.73956
756.73992
756.74028
756.74064
756.741
756.74141
756.74208
756.73969
756.73908
756.73957
756.73993
756.74029
756.74064
756.741
756.74137
756.74179
756.74248
756.74024
756.73959
756.74002
756.74036
756.7407
756.74105
756.74141
756.74179
756.74225
756.74299
756.74093
756.74038
756.74071
756.74103
756.74137
756.74172
756.74208
756.74248
756.74299
756.74374
755.61507
755.61369
755.61449
755.615
755.61541
755.61575
755.61603
755.61629
755.61662
755.6173
755.61369
755.61318
755.61395
755.61445
755.61486
755.61519
755.61544
755.61564
755.61587
755.61666
755.61449
755.61395
755.61471
755.61521
755.61561
755.61593
755.61616
755.61631
755.61644
755.61707
755.615
755.61445
755.61521
755.61571
755.6161
755.61639
755.6166
755.61672
755.61682
755.61741
755.61541
755.61486
755.61561
755.6161
755.61647
755.61676
755.61694
755.61704
755.61712
755.6177
755.61575
755.61519
755.61593
755.61639
755.61676
755.61702
755.6172
755.61729
755.61735
755.61793
755.61603
755.61544
755.61616
755.6166
755.61694
755.6172
755.61737
755.61745
755.61752
755.6181
755.61629
755.61564
755.61631
755.61672
755.61704
755.61729
755.61745
755.61754
755.61762
755.61822
755.61662
755.61587
755.61644
755.61682
755.61712
755.61735
755.61752
755.61762
755.61774
755.61842
755.6173
755.61666
755.61707
755.61741
755.6177
755.61793
755.6181
755.61822
755.61842
755.6193
754.46462
754.46313
754.46418
754.46479
754.46521
754.46549
754.46563
754.4657
754.46582
754.46647
754.46313
754.46266
754.46366
754.46426
754.46468
754.46494
754.46505
754.46503
754.46498
754.46574
754.46418
754.46366
754.46465
754.46525
754.46565
754.46589
754.46596
754.46587
754.46568
754.46624
754.46479
754.46426
754.46525
754.46583
754.46621
754.46643
754.46646
754.46633
754.46609
754.4666
754.46521
754.46468
754.46565
754.46621
754.46658
754.46677
754.46678
754.46661
754.46634
754.46683
754.46549
754.46494
754.46589
754.46643
754.46677
754.46694
754.46692
754.46674
754.46646
754.46693
754.46563
754.46505
754.46596
754.46646
754.46678
754.46692
754.4669
754.46671
754.46642
754.4669
754.4657
754.46503
754.46587
754.46633
754.46661
754.46674
754.46671
754.46652
754.46625
754.46676
754.46582
754.46498
754.46568
754.46609
754.46634
754.46646
754.46642
754.46625
754.46604
754.46663
754.46647
754.46574
754.46624
754.4666
754.46683
754.46693
754.4669
754.46676
754.46663
754.46762
753.27079
753.26921
753.27051
753.27121
753.27165
753.27186
753.27186
753.27172
753.27162
753.27225
753.26921
753.2688
753.27002
753.27071
753.27114
753.27133
753.27129
753.27104
753.27072
753.27144
753.27051
753.27002
753.27123
753.27191
753.27232
753.27247
753.27238
753.27204
753.27154
753.27201
753.27121
753.27071
753.27191
753.27257
753.27295
753.27308
753.27294
753.27255
753.27198
753.27238
753.27165
753.27114
753.27232
753.27295
753.27331
753.2734
753.27323
753.2728
753.27218
753.27256
753.27186
753.27133
753.27247
753.27308
753.2734
753.27346
753.27326
753.27281
753.27217
753.27254
753.27186
753.27129
753.27238
753.27294
753.27323
753.27326
753.27304
753.27258
753.27194
753.27231
753.27172
753.27104
753.27204
753.27255
753.2728
753.27281
753.27258
753.27211
753.27149
753.27189
753.27162
753.27072
753.27154
753.27198
753.27218
753.27217
753.27194
753.27149
753.27093
753.27145
753.27225
753.27144
753.27201
753.27238
753.27256
753.27254
753.27231
753.27189
753.27145
753.27252
752.01842
752.01677
752.01829
752.01909
752.01954
752.01967
752.01954
752.01919
752.01888
752.01946
752.01677
752.01642
752.01785
752.01863
752.01907
752.01918
752.01898
752.01851
752.01791
752.01858
752.01829
752.01785
752.01926
752.02003
752.02043
752.02051
752.02025
752.01967
752.01886
752.01923
752.01909
752.01863
752.02003
752.02077
752.02114
752.02117
752.02087
752.02022
752.01931
752.01961
752.01954
752.01907
752.02043
752.02114
752.02148
752.02147
752.02112
752.02042
752.01947
752.01973
752.01967
752.01918
752.02051
752.02117
752.02147
752.02143
752.02104
752.02031
752.01933
752.01958
752.01954
752.01898
752.02025
752.02087
752.02112
752.02104
752.02063
752.01988
752.0189
752.01915
752.01919
752.01851
752.01967
752.02022
752.02042
752.02031
752.01988
752.01914
752.01818
752.01846
752.01888
752.01791
752.01886
752.01931
752.01947
752.01933
752.0189
752.01818
752.01728
752.01769
752.01946
752.01858
752.01923
752.01961
752.01973
752.01958
752.01915
752.01846
752.01769
752.01884
750.69342
750.69171
750.69346
750.69434
750.69479
750.69485
750.69457
750.69403
750.69349
750.69401
750.69171
750.69142
750.69306
750.69393
750.69436
750.69439
750.69404
750.69334
750.69247
750.69308
750.69346
750.69306
750.69467
750.69551
750.69591
750.6959
750.69548
750.69466
750.69353
750.6938
750.69434
750.69393
750.69551
750.69632
750.69668
750.69662
750.69614
750.69524
750.69401
750.69419
750.69479
750.69436
750.69591
750.69668
750.697
750.69689
750.69636
750.6954
750.69411
750.69425
750.69485
750.69439
750.6959
750.69662
750.69689
750.69674
750.69616
750.69516
750.69385
750.69397
750.69457
750.69404
750.69548
750.69614
750.69636
750.69616
750.69556
750.69454
750.69321
750.69334
750.69403
750.69334
750.69466
750.69524
750.6954
750.69516
750.69454
750.69352
750.69221
750.69237
750.69349
750.69247
750.69353
750.69401
750.69411
750.69385
750.69321
750.69221
750.69098
750.69128
750.69401
750.69308
750.6938
750.69419
750.69425
750.69397
750.69334
750.69237
750.69128
750.69248
749.28283
749.28108
749.28303
749.28399
749.28443
749.28442
749.28399
749.28325
749.28249
749.28295
749.28108
749.28086
749.28269
749.28363
749.28405
749.284
749.2835
749.28258
749.28143
749.28197
749.28303
749.28269
749.28448
749.28539
749.28578
749.28568
749.2851
749.28404
749.2826
749.28275
749.28399
749.28363
749.28539
749.28627
749.28661
749.28645
749.2858
749.28464
749.28309
749.28315
749.28443
749.28405
749.28578
749.28661
749.2869
749.28669
749.28597
749.28475
749.28313
749.28315
749.28442
749.284
749.28568
749.28645
749.28669
749.28643
749.28566
749.2844
749.28274
749.28274
749.28399
749.2835
749.2851
749.2858
749.28597
749.28566
749.28486
749.28357
749.28191
749.2819
749.28325
749.28258
749.28404
749.28464
749.28475
749.2844
749.28357
749.28229
749.28064
749.28067
749.28249
749.28143
749.2826
749.28309
749.28313
749.28274
749.28191
749.28064
749.27907
749.27926
749.28295
749.28197
749.28275
749.28315
749.28315
749.28274
749.2819
749.28067
749.27926
749.2805
747.77483
747.77306
747.7752
747.77623
747.77666
747.77657
747.776
747.77505
747.77407
747.77447
747.77306
747.77291
747.77492
747.77593
747.77634
747.7762
747.77554
747.7744
747.77298
747.77344
747.7752
747.77492
747.77689
747.77785
747.77822
747.77803
747.77729
747.77599
747.77425
747.77429
747.77623
747.77593
747.77785
747.77878
747.7791
747.77884
747.77802
747.77662
747.77475
747.77467
747.77666
747.77634
747.77822
747.7791
747.77936
747.77905
747.77815
747.77667
747.77473
747.77461
747.77657
747.7762
747.77803
747.77884
747.77905
747.77867
747.77772
747.7762
747.77422
747.77407
747.776
747.77554
747.77729
747.77802
747.77815
747.77772
747.77673
747.77518
747.77318
747.77304
747.77505
747.7744
747.77599
747.77662
747.77667
747.7762
747.77518
747.77362
747.77165
747.77153
747.77407
747.77298
747.77425
747.77475
747.77473
747.77422
747.77318
747.77165
747.76975
747.76982
747.77447
747.77344
747.77429
747.77467
747.77461
747.77407
747.77304
747.77153
747.76982
747.77108
746.1588
746.15702
746.15934
746.16043
746.16085
746.16067
746.15995
746.15881
746.15761
746.15793
746.15702
746.15696
746.15913
746.16019
746.16058
746.16036
746.15954
746.15818
746.1565
746.15687
746.15934
746.15913
746.16125
746.16227
746.16261
746.16232
746.16142
746.15989
746.15785
746.15776
746.16043
746.16019
746.16227
746.16324
746.16353
746.16317
746.16217
746.16053
746.15836
746.15815
746.16085
746.16058
746.16261
746.16353
746.16376
746.16333
746.16225
746.16053
746.15828
746.15801
746.16067
746.16036
746.16232
746.16317
746.16333
746.16284
746.1617
746.15993
746.15763
746.15734
746.15995
746.15954
746.16142
746.16217
746.16225
746.1617
746.16052
746.15871
746.1564
746.15611
746.15881
746.15818
746.15989
746.16053
746.16053
746.15993
746.15871
746.1569
746.15461
746.15435
746.15761
746.1565
746.15785
746.15836
746.15828
746.15763
746.1564
746.15461
746.1524
746.15233
746.15793
746.15687
746.15776
746.15815
746.15801
746.15734
746.15611
746.15435
746.15233
746.15359
744.42534
744.42356
744.42604
744.42717
744.42756
744.4273
744.42643
744.42509
744.42367
744.42391
744.42356
744.42357
744.42589
744.42699
744.42735
744.42704
744.42607
744.4245
744.42256
744.42283
744.42604
744.42589
744.42814
744.4292
744.42952
744.42913
744.42806
744.4263
744.42398
744.42376
744.42717
744.42699
744.4292
744.43021
744.43046
744.43
744.42883
744.42695
744.42448
744.42413
744.42756