/*--------------------------------*- C++ -*----------------------------------*\
| =========                 |                                                 |
| \\      /  F ield         | OpenFOAM: The Open Source CFD Toolbox           |
|  \\    /   O peration     | Version:  v2106                                 |
|   \\  /    A nd           | Website:  www.openfoam.com                      |
|    \\/     M anipulation  |                                                 |
\*---------------------------------------------------------------------------*/
FoamFile
{
    version     2.0;
    format      ascii;
    arch        "LSB;label=32;scalar=64";
    class       volScalarField;
    location    "42.5";
    object      gradTx;
}
// * * * * * * * * * * * * * * * * * * * * * * * * * * * * * * * * * * * * * //

dimensions      [0 -1 0 1 0 0 0];

internalField   nonuniform List<scalar> 
4000
(
0.00096518967
0.00054116556
-0.0012144139
-0.00046879839
-0.00020356757
9.06008e-06
0.00015777438
0.00019850293
9.1366835e-05
-6.5727483e-07
0.00017611647
-0.00050874908
-0.0010741452
-0.0004568603
-0.00018804425
3.9639297e-05
0.0002196725
0.00030628888
0.00017380873
1.0098453e-05
0.00026524657
-0.00036353677
-0.001056871
-0.00044220498
-0.00016564027
7.4758802e-05
0.00027999346
0.00042213001
0.00038693956
0.00010076301
0.00026962891
-0.00035120625
-0.0010425803
-0.00042227238
-0.00013940611
0.00010898607
0.00032389989
0.00047430927
0.00043728347
0.00011588241
0.0002732053
-0.00033694337
-0.0010222831
-0.00039785541
-0.00011178187
0.00014021238
0.00035908828
0.00051123772
0.00046791641
0.00012406421
0.00027997778
-0.00031327895
-0.00099394216
-0.00036841399
-8.3352231e-05
0.00016715212
0.00038437801
0.00053359676
0.00048421418
0.00012813902
0.00029359144
-0.00027124465
-0.00095293635
-0.00033240184
-5.3615824e-05
0.00019030631
0.00040143725
0.00054455609
0.000489489
0.00012903022
0.0003212432
-0.00019105986
-0.00088971477
-0.00028931917
-2.287412e-05
0.00020950108
0.000410636
0.00054433368
0.00048263113
0.0001260582
0.00036544873
-4.7617567e-05
-0.00078491595
-0.00024329413
5.6716736e-06
0.00022362468
0.00041217418
0.00053204411
0.00045811686
0.00011630851
0.00037620446
0.00010451286
-0.00062624003
-0.00020834233
2.4056587e-05
0.00023107369
0.00040905295
0.00051296155
0.0004149778
9.7298821e-05
0.0034780326
0.0016984037
-0.005016426
-0.0022712587
-0.00096667586
7.754287e-05
0.00081167083
0.00098194419
0.00021913273
-0.00014792099
0.00090446314
-0.001841961
-0.0046686469
-0.0022166574
-0.00089025897
0.00022801402
0.001122919
0.0015281186
0.0003828766
-0.00026261987
0.0011177895
-0.0014634462
-0.0045777432
-0.0021400958
-0.00077994738
0.00040012266
0.0014209685
0.0021120691
0.00140458
0.00015726157
0.0011363159
-0.0014032782
-0.0045024151
-0.0020412647
-0.00065159539
0.00056730911
0.0016361784
0.0023752676
0.0016754279
0.00024269054
0.0011541903
-0.0013322833
-0.0044023505
-0.0019217629
-0.00051665288
0.00071964098
0.0018071754
0.0025537658
0.0018223202
0.00028161148
0.0011872605
-0.0012165497
-0.0042637515
-0.0017779702
-0.00037781232
0.00085119776
0.0019305596
0.0026625007
0.0019005122
0.00030081334
0.0012545044
-0.0010097035
-0.0040630554
-0.0016022446
-0.00023276421
0.00096414144
0.0020134854
0.0027151891
0.0019247682
0.00030453888
0.0013947592
-0.00060725202
-0.0037504921
-0.0013917633
-8.3431165e-05
0.0010575078
0.002057296
0.002710919
0.0018844524
0.00028703502
0.0016186207
0.0001204214
-0.0032159064
-0.001160548
5.4468866e-05
0.0011255648
0.0020619037
0.0026396562
0.0017316645
0.00022331154
0.0015039218
0.00057819523
-0.0024579408
-0.00097402315
0.00014165308
0.0011599559
0.0020412362
0.0025178152
0.0013919623
6.0566867e-05
0.0046705631
0.0015567236
-0.0079855864
-0.0038382131
-0.0015766568
0.00029836636
0.0016733225
0.0019851289
-0.00020308508
-0.00072544457
0.0010789168
-0.003442181
-0.0075553475
-0.0037498244
-0.0014431524
0.00056544628
0.0022595863
0.0031606651
0.00043063163
-0.0008160085
0.00133796
-0.0029670857
-0.0074119838
-0.0036142267
-0.0012467504
0.00086980038
0.0027800101
0.0041797802
0.0021607164
-0.00011955723
0.0013657427
-0.0028685784
-0.0072785471
-0.00343803
-0.0010178895
0.0011684472
0.0031655618
0.0046569904
0.0026592566
3.8777724e-05
0.0013968858
-0.0027430993
-0.0071001894
-0.0032252341
-0.00077787214
0.0014391387
0.0034688231
0.004973262
0.0029201478
0.00010811381
0.0014547457
-0.0025386719
-0.0068532843
-0.0029691518
-0.00053105142
0.001672818
0.0036875496
0.0051653432
0.0030573832
0.00014158543
0.0015749391
-0.0021716653
-0.0064971885
-0.0026558958
-0.00027350133
0.0018729939
0.0038336017
0.0052563139
0.0030964645
0.00014669225
0.0018455882
-0.0014319844
-0.0059473088
-0.0022803388
-9.0635893e-06
0.0020375967
0.0039080018
0.0052390585
0.0030039931
0.00010644852
0.00235863
2.298608e-05
-0.0050008632
-0.001862414
0.00023485146
0.0021560457
0.0039073171
0.0050750233
0.0026075158
-6.9916765e-05
0.002268066
0.00093181709
-0.0037186839
-0.0015209074
0.00038906303
0.0022139134
0.0038546117
0.0047501098
0.0013200044
-0.00075189242
0.0056610648
0.001333613
-0.010596798
-0.0051696088
-0.0020002346
0.00070749415
0.0027959947
0.003439697
-0.00010113253
-0.0011478454
0.0012327487
-0.0048490324
-0.010080662
-0.0050469796
-0.0018117762
0.0010826607
0.0036318981
0.0051988249
0.00087524912
-0.0012810945
0.0015393013
-0.0042752036
-0.009885478
-0.0048529281
-0.001530693
0.0015166409
0.0043685123
0.0066399686
0.0032602439
-0.00033796045
0.0015768389
-0.0041377128
-0.0096944697
-0.0046006753
-0.0012035819
0.0019434196
0.0049195788
0.007325928
0.0039787769
-0.00011026465
0.0016210541
-0.003958523
-0.0094391737
-0.004296634
-0.00086115696
0.002329107
0.0053508321
0.0077752372
0.0043497717
-1.1555283e-05
0.0017024779
-0.0036681712
-0.0090862754
-0.0039311393
-0.00050942248
0.00266165
0.0056613811
0.0080471097
0.0045432792
3.5486616e-05
0.0018711651
-0.0031493762
-0.0085784148
-0.0034841679
-0.00014292651
0.0029457528
0.0058673844
0.0081735719
0.0045956198
4.1753303e-05
0.0022597468
-0.0020956536
-0.0077985947
-0.0029488194
0.00023237979
0.0031782023
0.0059695501
0.008141508
0.0044513592
-2.0615124e-05
0.003043917
5.0895394e-05
-0.0064513117
-0.0023488993
0.00057825521
0.0033440875
0.0059617827
0.007882345
0.0037891579
-0.00032311265
0.0029106679
0.0012657228
-0.0046950669
-0.0018592916
0.00079688212
0.0034240504
0.0058776301
0.0073350461
0.0011377413
-0.0017882262
0.0065663916
0.0011039067
-0.012982174
-0.0063050636
-0.0022488872
0.0012857405
0.0041040058
0.0051327242
0.00030205639
-0.0014618127
0.0013698387
-0.0061530666
-0.012371148
-0.006145682
-0.0020058229
0.0017662861
0.0051804238
0.0074535928
0.001574457
-0.0016589751
0.0017284095
-0.0054700891
-0.01211934
-0.0058923424
-0.0016417311
0.0023260079
0.006125691
0.0093024419
0.0045774089
-0.00048758343
0.0017771889
-0.0052902328
-0.011869583
-0.0055648652
-0.0012188688
0.0028767848
0.006836144
0.01018947
0.0055055725
-0.00019473875
0.0018346639
-0.0050573679
-0.011538523
-0.0051717466
-0.00077708825
0.003373525
0.0073904546
0.010766349
0.0059817586
-6.8107877e-05
0.0019392318
-0.0046830767
-0.011082629
-0.0047002224
-0.00032400491
0.0038011698
0.0077888261
0.011114028
0.0062283445
-8.3427502e-06
0.0021550276
-0.0040171006
-0.010428025
-0.0041242295
0.00014729683
0.0041654504
0.0080512184
0.011272705
0.0062915432
-1.4998136e-06
0.0026568439
-0.0026613914
-0.0094269084
-0.0034354588
0.00062867718
0.0044619337
0.0081778417
0.011223509
0.0060961849
-8.502058e-05
0.0037022734
0.00015261721
-0.0076921474
-0.0026603224
0.0010718552
0.0046718061
0.0081606989
0.010871391
0.0051818419
-0.00050655579
0.0035051109
0.0016139611
-0.0054957928
-0.0020311091
0.0013514492
0.0047717182
0.0080456821
0.010113807
0.0010793137
-0.0028200394
0.0073890609
0.00084727995
-0.015186078
-0.0072779157
-0.0023470635
0.0020056286
0.0055514552
0.0069754314
0.00090028883
-0.00169882
0.001477401
-0.0074025981
-0.01447709
-0.007080468
-0.0020505109
0.0025878336
0.0068592694
0.0098390752
0.0024600523
-0.0019573468
0.0018891422
-0.0066063716
-0.01416543
-0.0067674625
-0.0016055174
0.0032686001
0.0080043605
0.01207883
0.0060506627
-0.00057053754
0.0019500595
-0.0063819501
-0.013856185
-0.0063658957
-0.0010897923
0.0039386889
0.0088674314
0.013158247
0.007178334
-0.0002161421
0.002020774
-0.0060959183
-0.013450857
-0.005886214
-0.00055210326
0.0045421063
0.0095394793
0.0138569
0.0077546181
-6.305102e-05
0.0021477613
-0.0056404041
-0.012895467
-0.0053124815
-1.6103382e-06
0.0050608281
0.010021587
0.014276515
0.0080512933
8.6584703e-06
0.0024089107
-0.0048329468
-0.012100002
-0.0046127078
0.00057003602
0.0055015135
0.010337154
0.014464769
0.0081234394
1.5576871e-05
0.0030196374
-0.0031874988
-0.010887305
-0.0037773627
0.0011525457
0.0058585027
0.010485717
0.014396936
0.0078769172
-8.8830687e-05
0.0043180065
0.00027045139
-0.00878083
-0.002834637
0.0016883042
0.0061093822
0.010457575
0.013953595
0.0067232179
-0.00062234319
0.0040594797
0.0019628751
-0.0061690229
-0.0020734072
0.002025505
0.006227324
0.010311341
0.012996715
0.0011866197
-0.0037798961
0.0081241286
0.00055004218
-0.017227074
-0.0081131931
-0.0023218052
0.0028344188
0.0070955171
0.008912662
0.0016433054
-0.0018718621
0.0015505611
-0.0086139425
-0.01642055
-0.007877417
-0.0019734104
0.0035138516
0.0086243317
0.012297447
0.0034890365
-0.0021831263
0.0020148055
-0.0077044776
-0.016047785
-0.0075052664
-0.0014501788
0.0043103933
0.0099596249
0.014909386
0.0076375255
-0.00059242704
0.0020882438
-0.0074346538
-0.015679281
-0.0070313859
-0.00084499128
0.0050946069
0.010968077
0.01617189
0.0089546645
-0.00017974824
0.0021719896
-0.0070965509
-0.015201754
-0.0064681526
-0.00021527243
0.0057999437
0.011752248
0.016986304
0.0096259311
-1.604518e-06
0.002320507
-0.0065630274
-0.014550862
-0.0057964795
0.00042834965
0.0064055207
0.012314001
0.017474184
0.0099700366
8.1392575e-05
0.0026249448
-0.0056205764
-0.013620998
-0.0049786022
0.0010956413
0.0069188912
0.01267998
0.017690282
0.010050363
8.8272381e-05
0.0033397167
-0.0036989196
-0.012207117
-0.0040038566
0.0017742742
0.0073332528
0.012849093
0.017604297
0.0097547247
-3.6148633e-05
0.0048814684
0.00037614789
-0.0097465558
-0.0029016849
0.0023979351
0.007622869
0.012810093
0.017074051
0.0083754301
-0.00067485188
0.0045702042
0.0022953005
-0.0067414886
-0.0020154511
0.0027896463
0.0077576844
0.012633781
0.015929365
0.0014555421
-0.0046494073
0.0087674287
0.00020581017
-0.019112748
-0.0088289684
-0.0021972335
0.0037415688
0.0086986511
0.010902335
0.0024987026
-0.001988153
0.0015877191
-0.0097910249
-0.018210978
-0.0085553075
-0.0017990739
0.0045132548
0.010436909
0.014783608
0.0046285764
-0.0023423453
0.002102872
-0.0087705882
-0.017777202
-0.0081253197
-0.0012008326
0.0054197356
0.011952003
0.017747217
0.0093032229
-0.0005596967
0.0021888987
-0.0084554794
-0.017350516
-0.0075815548
-0.00051012206
0.0063123723
0.013098087
0.01918286
0.010799368
-9.2022085e-05
0.0022853126
-0.0080669395
-0.016803449
-0.0069383083
0.00020729991
0.0071144831
0.013988445
0.020106747
0.011560359
0.00010976058
0.0024543384
-0.0074590785
-0.016061564
-0.0061734222
0.00093942251
0.0078024786
0.014625686
0.020659289
0.011949383
0.00020344535
0.0027997699
-0.0063887727
-0.015004332
-0.0052435608
0.0016974062
0.0083847986
0.015039576
0.020902036
0.012037802
0.00021040419
0.0036131772
-0.0042057263
-0.013400386
-0.0041369807
0.0024670212
0.0088536096
0.015228536
0.020799656
0.011696734
6.7407879e-05
0.0053872854
0.00045610951
-0.010605079
-0.0028840303
0.0031738349
0.0091800872
0.015179943
0.02018885
0.010107408
-0.00066932116
0.0050330931
0.0025987939
-0.0072295946
-0.0018798444
0.003617036
0.0093310527
0.014975887
0.018869262
0.0018697859
-0.00542434
0.0093165359
-0.00018630716
-0.020844754
-0.0094380321
-0.0019934316
0.0047005865
0.010328823
0.012909984
0.0034415552
-0.0020528229
0.0015891457
-0.010931599
-0.019851242
-0.0091274236
-0.0015479617
0.0055590295
0.012263813
0.017260092
0.0058515202
-0.0024401682
0.0021530083
-0.0098039231
-0.019357466
-0.008641531
-0.00087846254
0.0065690327
0.013947455
0.020553045
0.01101794
-0.0004784298
0.0022514868
-0.0094443102
-0.018874344
-0.0080308912
-0.00010669163
0.0075638576
0.015222836
0.022151147
0.012681915
4.0761569e-05
0.0023600807
-0.009007422
-0.018260933
-0.0073116773
0.00069365431
0.008457184
0.01621306
0.023177857
0.013527105
0.00026471034
0.0025484667
-0.0083293412
-0.017433074
-0.0064587743
0.0015092776
0.0092228997
0.016921476
0.023791392
0.013958533
0.00036849099
0.002932376
-0.0071389758
-0.016256105
-0.005423526
0.0023526964
0.0098703245
0.017380863
0.024059846
0.014055275
0.00037574957
0.0038384596
-0.0047107096
-0.01447405
-0.0041931694
0.0032079171
0.010390703
0.017589309
0.023943486
0.013673333
0.00021592585
0.0058324483
0.00050408539
-0.01136505
-0.0027987142
0.0039929409
0.010752313
0.017532957
0.023259602
0.011891018
-0.00061116582
0.0054451029
0.002865675
-0.0076436553
-0.001684004
0.0044845351
0.010918872
0.017304109
0.021779229
0.0024105162
-0.0061044087
0.00977058
-0.00062340113
-0.022421288
-0.0099492837
-0.0017267286
0.0056889312
0.01195856
0.014906093
0.0044505977
-0.0020702191
0.0015563264
-0.012029951
-0.021340499
-0.009603054
-0.0012367395
0.0066281317
0.01407644
0.0196945
0.0071339575
-0.0024813185
0.0021662136
-0.010799925
-0.02078844
-0.0090637064
-0.00050021531
0.007734666
0.015916504
0.02329269
0.012755035
-0.00035434766
0.0022768525
-0.010397103
-0.020251179
-0.0083897149
0.00034765486
0.0088249045
0.01731222
0.025041782
0.014574843
0.00021263249
0.0023970334
-0.0099143472
-0.019575101
-0.0075990591
0.0012256947
0.0098034522
0.018395552
0.026164228
0.015498357
0.00045718592
0.0026035118
-0.0091705899
-0.018666785
-0.006663805
0.0021194243
0.010641876
0.019170591
0.026834916
0.015969571
0.0005704485
0.0030231671
-0.0078686125
-0.017378328
-0.0055302729
0.0030426663
0.011350362
0.019673005
0.02712819
0.01607497
0.00057826425
0.004015432
-0.0052126455
-0.015431005
-0.0041847568
0.0039777959
0.011919328
0.019900687
0.027000566
0.015657134
0.00040351233
0.0062154379
0.00051798458
-0.012031046
-0.0026587352
0.0048357998
0.012314324
0.019838655
0.026251691
0.013699936
-0.00050584188
0.0058043385
0.0030917918
-0.0079901195
-0.0014414348
0.0053725238
0.012495941
0.01958825
0.024625532
0.0030587464
-0.0066906142
0.010129966
-0.0010999712
-0.023838571
-0.010368843
-0.0014103691
0.0066874178
0.013564003
0.016864639
0.0055066096
-0.002044414
0.0014915812
-0.013078358
-0.022675817
-0.0099886566
-0.00087895923
0.007700903
0.015849874
0.02205811
0.0084539532
-0.0024703834
0.0021443748
-0.011751884
-0.022067805
-0.0093987597
-8.0087861e-05
0.0088964254
0.017833388
0.025935758
0.01449001
-0.0001929811
0.0022667503
-0.011307592
-0.021479182
-0.0086654066
0.00083844747
0.010074773
0.019339843
0.027823581
0.016452829
0.00041780496
0.0023978324
-0.010781801
-0.020744555
-0.0078082878
0.0017885078
0.011132102
0.020509064
0.029034208
0.017448408
0.00068130135
0.0026210235
-0.0099773113
-0.019761775
-0.0067968109
0.0027545422
0.012037874
0.021345877
0.029757961
0.017956621
0.0008033918
0.0030734892
-0.0085727933
-0.018370685
-0.0055726114
0.0037516079
0.012803112
0.021888687
0.030075099
0.018070999
0.00081202416
0.0041449379
-0.0057079258
-0.016271807
-0.0041211348
0.0047605765
0.013417497
0.022135319
0.029939018
0.017622428
0.00062431292
0.006535803
0.00049832569
-0.012605214
-0.0024741612
0.0056859886
0.013844004
0.022069744
0.029133541
0.015509199
-0.00035885763
0.0061098336
0.003275475
-0.0082729311
-0.0011627375
0.0062643688
0.014040088
0.021801126
0.027377219
0.0037957871
-0.0071846286
0.010396159
-0.0016087424
-0.025091824
-0.010700912
-0.001055205
0.0076795763
0.015124176
0.018762261
0.0065916762
-0.001979414
0.0013978249
-0.014067967
-0.023853197
-0.010288743
-0.00048575475
0.0087604391
0.017562174
0.024325103
0.0097909178
-0.0024119696
0.0020900096
-0.012651879
-0.023192117
-0.0096516195
0.00037037337
0.010036892
0.019675382
0.028454908
0.016199972
2.1621342e-07
0.0022235764
-0.01216826
-0.022555348
-0.0088633266
0.0013536943
0.011295539
0.021282375
0.030468455
0.018292201
0.00065058602
0.0023647885
-0.011602587
-0.0217667
-0.0079451518
0.0023696741
0.012424768
0.022529802
0.031759238
0.019353203
0.00093126277
0.0026032099
-0.010742681
-0.020715899
-0.0068640258
0.0034018064
0.013392163
0.023423211
0.032531687
0.019895426
0.0010614779
0.0030853637
-0.0092452718
-0.0192316
-0.0055572752
0.0044662979
0.014209545
0.024003569
0.032871583
0.020019022
0.0010711685
0.0042285419
-0.0061914756
-0.016995698
-0.0040096059
0.0055426429
0.01486593
0.02426873
0.03272982
0.019544917
0.00087249161
0.0067939252
0.00044737493
-0.013088248
-0.0022529449
0.0065295299
0.01532189
0.024201701
0.031876252
0.017295017
-0.0001757896
0.0063613697
0.0034168203
-0.0084944146
-0.00085637505
0.0071458677
0.015531749
0.023918221
0.030005815
0.0046032735
-0.0075886707
0.010571523
-0.0021412355
-0.026175938
-0.010948426
-0.00067028319
0.0086511071
0.016620454
0.020577775
0.0076888327
-0.0018792477
0.001278404
-0.014989372
-0.024868249
-0.01050654
-6.6430738e-05
0.0097920514
0.019193858
0.026472101
0.0111253
-0.0023107706
0.0020060983
-0.013491368
-0.024157508
-0.0098258992
0.00084148419
0.011140908
0.021422303
0.030825423
0.017863361
0.00021981568
0.0021501968
-0.012970942
-0.023476219
-0.0089874886
0.0018832973
0.012471576
0.023119074
0.032951007
0.020070704
0.00090533264
0.0023006891
-0.012368842
-0.022638457
-0.0080140639
0.0029586921
0.013665406
0.024436581
0.034313472
0.021190122
0.0012013321
0.0025527651
-0.011459175
-0.021526491
-0.0068702807
0.0040503253
0.014688339
0.025381076
0.035129953
0.021763153
0.0013389164
0.0030613186
-0.009879041
-0.019958933
-0.0054895654
0.0051754553
0.015552939
0.025995879
0.035491309
0.021896078
0.0013498774
0.0042683681
-0.0066573264
-0.017601276
-0.0038560028
0.0063123272
0.016247637
0.026278966
0.035346523
0.021401598
0.0011422243
0.0069908692
0.00036860731
-0.013480027
-0.0020015166
0.007354401
0.016730776
0.026212449
0.034453377
0.019034694
3.771869e-05
0.0065593462
0.0035172024
-0.0086558718
-0.00052924205
0.0080047766
0.016953593
0.025917411
0.032485139
0.0054631402
-0.0079054783
0.01065919
-0.0026881855
-0.027085948
-0.011113545
-0.00026330669
0.0095894589
0.018036185
0.022291877
0.0087818944
-0.0017479978
0.001136975
-0.015833026
-0.025716673
-0.010644475
0.0003710773
0.010782849
0.020727539
0.028477886
0.012438446
-0.0021715872
0.0018959626
-0.014261604
-0.02496017
-0.0099243864
0.0013249652
0.012195167
0.023056155
0.033024952
0.019459835
0.00046040014
0.0020498253
-0.013707248
-0.024238366
-0.0090410489
0.0024186
0.013589153
0.024831447
0.035248285
0.021767386
0.0011764426
0.0022086756
-0.013072445
-0.023356744
-0.0080185467
0.0035465335
0.0148399
0.026210501
0.036673551
0.022937886
0.0014858215
0.002472748
-0.012118976
-0.022190843
-0.0068194805
0.004690708
0.015911944
0.027200249
0.037529111
0.023538314
0.0016299677
0.0030042691
-0.010466737
-0.02055044
-0.005373814
0.0058693244
0.016818529
0.027846134
0.037910414
0.023680532
0.0016423746
0.0042669843
-0.0070990057
-0.018086936
-0.0036651348
0.0070595102
0.017547577
0.028146326
0.037765101
0.023170724
0.0014277092
0.007128275
0.00026633763
-0.013780041
-0.001725215
0.0081501504
0.018055393
0.028082124
0.036840794
0.020706622
0.00027597254
0.0067046856
0.0035789345
-0.0087579964
-0.00018708291
0.0088304381
0.018290222
0.027778736
0.034791191
0.0063576206
-0.0081382919
0.010662959
-0.0032398648
-0.027817377
-0.011198007
0.00015901898
0.010483516
0.019356434
0.023886966
0.0098553858
-0.0015898067
0.00097740739
-0.016589548
-0.026394596
-0.010704539
0.00081985829
0.01172143
0.02214767
0.030323239
0.013712555
-0.0019993214
0.0017631702
-0.014953933
-0.025596686
-0.0099493997
0.0018136003
0.013187911
0.024560888
0.035033346
0.020970226
0.00071657262
0.0019259284
-0.014368857
-0.024838723
-0.0090266603
0.0029520501
0.014636141
0.026403014
0.037339636
0.023362576
0.0014583657
0.002092149
-0.013705326
-0.023918807
-0.0079615816
0.0041253143
0.015935776
0.027834724
0.038818464
0.024576539
0.0017791069
0.002366488
-0.012714276
-0.022706531
-0.0067149463
0.0053147436
0.017050191
0.028863593
0.039707884
0.025200754
0.0019289592
0.0029174248
-0.011000931
-0.021004096
-0.0052137166
0.0065393644
0.017993241
0.02953694
0.0401074
0.025352068
0.0019429462
0.0042273123
-0.0075098216
-0.018451188
-0.0034411105
0.0077753233
0.018752408
0.029853188
0.039963852
0.02483182
0.0017231891
0.0072082733
0.00014544947
-0.013987698
-0.0014285987
0.0089076119
0.019282178
0.029792909
0.039016632
0.022290307
0.00053325273
0.0067987586
0.0036050184
-0.0088011678
0.00016520267
0.0096135022
0.019527937
0.029484253
0.036902092
0.0072692793
-0.0082908296
0.010587198
-0.0037863418
-0.028366482
-0.011203396
0.00059073175
0.011323375
0.02056781
0.025347045
0.010894527
-0.0014088656
0.00080370294
-0.017249955
-0.026898816
-0.010688543
0.0012737733
0.012597658
0.023440376
0.031990845
0.014930682
-0.0017989564
0.0016114561
-0.015560032
-0.026064278
-0.0099030477
0.0023009868
0.01410871
0.025922226
0.03683258
0.022376559
0.00098297859
0.0017821471
-0.01494775
-0.025274831
-0.0089467277
0.0034769552
0.015601799
0.027819149
0.039206628
0.024837896
0.001745627
0.0019546917
-0.014259684
-0.024322462
-0.0078458599
0.0046880537
0.016941998
0.029294317
0.040729479
0.026087466
0.0020756524
0.0022375081
-0.013237495
-0.023071649
-0.0065596608
0.0059151678
0.01809177
0.030355912
0.041647298
0.026731685
0.0022303108
0.0028042137
-0.011474349
-0.021318321
-0.0050125719
0.0071780245
0.019065501
0.031052856
0.042063074
0.026891727
0.0022459686
0.0041525525
-0.0078830792
-0.018692877
-0.0031875701
0.0084519315
0.01985031
0.031383877
0.041923356
0.026365729
0.002022982
0.0072334134
1.1185935e-05
-0.014102538
-0.0011156732
0.009618694
0.020399097
0.031328914
0.040961232
0.023766425
0.00080384946
0.0068433225
0.0035989522
-0.0087856627
0.00052333751
0.01034572
0.020654571
0.031017921
0.038798053
0.0081810713
-0.0083672537
0.010436759
-0.004317695
-0.028730435
-0.011131328
0.0010264295
0.012100185
0.021658348
0.026657667
0.011885256
-0.0012093941
0.00061992577
-0.017805853
-0.02722698
-0.010598308
0.0017272731
0.013402508
0.024593339
0.033465243
0.016076779
-0.0015755262
0.0014446537
-0.016072086
-0.026360974
-0.0097874143
0.0027813562
0.014948307
0.02712756
0.038406698
0.023662085
0.0012543359
0.001622229
-0.015436392
-0.025545002
-0.0088035912
0.0039873051
0.016476622
0.029066971
0.040833
0.026176308
0.0020328577
0.0018000004
-0.014728172
-0.024566257
-0.0076739632
0.0052285026
0.017848817
0.030576152
0.042390097
0.027453443
0.002370042
0.0020894581
-0.013681465
-0.02328497
-0.0063564447
0.0064854954
0.019026701
0.031663852
0.043330646
0.028113724
0.0025285678
0.0026682154
-0.01188005
-0.021492142
-0.0047734533
0.0077785815
0.020025102
0.032380306
0.043760519
0.028281963
0.0025459421
0.0040461183
-0.0082122532
-0.018811338
-0.0029078526
0.0090823764
0.020830854
0.032724588
0.043626448
0.027754668
0.0023215169
0.0072065997
-0.00013101866
-0.014124385
-0.00079005418
0.010276227
0.021395524
0.032676108
0.042657137
0.02511689
0.0010821011
0.0068404676
0.0035645763
-0.0087118094
0.00088350501
0.011019793
0.021659374
0.032365532
0.040461375
0.0090764205
-0.0083721294
0.010216896
-0.0048241935
-0.028907449
-0.010983592
0.0014611381
0.012806037
0.022617437
0.027805906
0.012814265
-0.00099561471
0.00043014015
-0.018249585
-0.027377706
-0.010435804
0.0021752675
0.014127951
0.02559572
0.034732803
0.017135751
-0.0013340806
0.0012666351
-0.016482935
-0.026485735
-0.0096046939
0.0032494446
0.015698513
0.028165873
0.039741788
0.024811341
0.0015254693
0.0014499689
-0.01582787
-0.025648442
-0.0085996578
0.0044776459
0.017252234
0.030135273
0.042204642
0.027362161
0.0023148296
0.0016318271
-0.015104036
-0.024649588
-0.0074484922
0.0057410192
0.018647673
0.031668839
0.043786034
0.028658688
0.0026570146
0.0019260552
-0.014039564
-0.023346064
-0.0061080832
0.0070198996
0.019846237
0.032775836
0.044743474
0.029330964
0.0028184365
0.0025131028
-0.01221156
-0.021525305
-0.0044993328
0.0083350223
0.020863108
0.033507517
0.045185081
0.0295067
0.0028375277
0.0039115774
-0.0084911277
-0.018806511
-0.0026051171
0.0096604626
0.021684914
0.033863328
0.045058218
0.028982299
0.0026133713
0.0071310341
-0.0002756783
-0.014053466
-0.00045508714
0.010873855
0.022262156
0.033822261
0.044089089
0.026324934
0.001362436
0.0067925682
0.0035059478
-0.0085801011
0.0012422307
0.011629265
0.022532926
0.033514663
0.041876452
0.0099393106
-0.0083103777
0.0099331904
-0.0052964525
-0.028896872
-0.010762248
0.0018902164
0.013433886
0.023435764
0.028780354
0.01366906
-0.00077172333
0.00023835483
-0.018574355
-0.027350672
-0.010203244
0.0026130311
0.01476688
0.026438114
0.035781713
0.018093519
-0.0010796466
0.0010812557
-0.016786196
-0.026438534
-0.0093572864
0.0037003997
0.016352125
0.029027686
0.040825975
0.025810204
0.0017913472
0.0012691545
-0.016116017
-0.025585333
-0.0083374959
0.0049429879
0.017921311
0.03101447
0.043309582
0.028381261
0.0025864915
0.001453925
-0.015381235
-0.024572786
-0.0071721592
0.0062204792
0.019331114
0.032562671
0.04490521
0.029688929
0.0029315001
0.0017510309
-0.014305834
-0.023255377
-0.0058174163
0.0075131243
0.020542791
0.033682019
0.045873569
0.030369028
0.003094821
0.0023425878
-0.012462995
-0.021418355
-0.00419317
0.008841959
0.021571784
0.034424474
0.046324368
0.030551404
0.0031155844
0.0037525976
-0.0087139123
-0.018679021
-0.0022824313
0.010180674
0.022404593
0.034789873
0.046206004
0.030033799
0.0028933113
0.0070101606
-0.00041737399
-0.013890487
-0.00011393504
0.011405947
0.022990942
0.034756909
0.04524404
0.027375186
0.0016394149
0.0067022374
0.0034272318
-0.0083912797
0.0015962944
0.012168441
0.023267069
0.034454644
0.043029786
0.010754382
-0.0081872245
0.0095914741
-0.0057255702
-0.028699241
-0.010469698
0.0023092857
0.013977488
0.024105283
0.029571115
0.014438007
-0.0005418588
4.8472274e-05
-0.018774324
-0.027146673
-0.0099031563
0.0030361326
0.015313047
0.027112504
0.036601978
0.01893709
-0.00081718909
0.00089230489
-0.016976359
-0.026220419
-0.0090478672
0.0041297112
0.016902866
0.029705019
0.041649408
0.026645957
0.0020471182
0.0010835172
-0.016295502
-0.025356888
-0.0080199033
0.0053787372
0.018477524
0.031696558
0.044137976
0.02922092
0.0028430057
0.0012699994
-0.015554528
-0.024337166
-0.0068478557
0.0066622085
0.019892743
0.033249588
0.045737741
0.030531456
0.0031886566
0.0015680817
-0.014475077
-0.023014283
-0.005487406
0.0079604178
0.021109879
0.034374249
0.046710955
0.031215134
0.0033528598
0.0021603725
-0.01262915
-0.021172689
-0.0038579782
0.0092945631
0.02214454
0.035122888
0.04716824
0.031403142
0.0033752071
0.003572896
-0.008875341
-0.018430229
-0.0019428366
0.010638109
0.022983179
0.035495742
0.047059396
0.030895926
0.0031563295
0.0068476148
-0.0005508569
-0.013636691
0.00023035525
0.011867542
0.023575039
0.035471329
0.046111149
0.028253745
0.0019077737
0.0065722845
0.0033326085
-0.0081463992
0.001942663
0.012632323
0.023854864
0.035176534
0.043909999
0.011507031
-0.0080081465
0.0091977618
-0.0061032471
-0.028316327
-0.010108742
0.0027141747
0.014431356
0.024619177
0.030169803
0.015110394
-0.00031007212
-0.00013575764
-0.0188447
-0.02676766
-0.0095384376
0.0034403803
0.015761017
0.02761223
0.037185408
0.019654616
-0.00055157149
0.00070346002
-0.017048864
-0.025833541
-0.0086794392
0.0045331562
0.017345336
0.030191353
0.042204244
0.027307339
0.0022881473
0.0008966866
-0.016361914
-0.024965382
-0.0076499586
0.0057806409
0.018915488
0.032175079
0.044682093
0.029870015
0.003079783
0.0010836628
-0.015619561
-0.023945061
-0.0064787027
0.0070619286
0.020327164
0.033723139
0.046275919
0.031175176
0.0034239047
0.0013808237
-0.014542932
-0.022625122
-0.0051211862
0.0083574786
0.021542072
0.03484603
0.047247872
0.031858144
0.0035879614
0.0019701029
-0.012705581
-0.02079059
-0.0034968752
0.0096885126
0.022575884
0.035596156
0.047708797
0.032050634
0.0036117617
0.0033761926
-0.0089707557
-0.018062273
-0.0015894006
0.01102843
0.023415089
0.035974158
0.047610223
0.031557076
0.0033976828
0.0066471732
-0.00067114009
-0.013293906
0.00057480012
0.012254292
0.024008761
0.035958507
0.046681786
0.028948251
0.0021624644
0.0064056738
0.003226189
-0.0078468743
0.0022784362
0.013016559
0.024290547
0.035673089
0.04450784
0.012183502
-0.0077788167
0.0087581803
-0.0064218947
-0.027751157
-0.0096826178
0.003100872
0.014790717
0.024971832
0.030569535
0.015676476
-8.0296788e-05
-0.00031078031
-0.018781799
-0.026216763
-0.0091123949
0.0038217743
0.016106117
0.027931954
0.037525605
0.020235457
-0.00028751797
0.00051824407
-0.017000175
-0.025281181
-0.0082553737
0.0049067508
0.017674969
0.030481596
0.042484632
0.027784594
0.0025100495
0.0007121487
-0.016311823
-0.024414179
-0.007231062
0.006144739
0.01923071
0.032445076
0.044936288
0.030319027
0.0032925154
0.00089839266
-0.015572931
-0.023399848
-0.0060680921
0.0074157084
0.020629936
0.03397844
0.046514191
0.031610653
0.0036329599
0.0011927502
-0.014505944
-0.022091214
-0.0047221044
0.0087004074
0.021834945
0.03509248
0.047478756
0.032288608
0.0037958363
0.0017753261
-0.012688679
-0.020275254
-0.0031131253
0.010019943
0.022861375
0.035839327
0.047940355
0.0324843
0.0038209187
0.0031661648
-0.0089961804
-0.017578092
-0.0012252599
0.011347811
0.023695831
0.036220012
0.047852532
0.032007333
0.003612926
0.0064127062
-0.00077358171
-0.012864571
0.00091643325
0.01256241
0.024287539
0.036213103
0.046949512
0.029447942
0.0023986937
0.006205485
0.0031119377
-0.007494521
0.0026007989
0.013317392
0.024569477
0.035938737
0.044816174
0.012770979
-0.0075050492
0.0082789021
-0.0066747338
-0.027008026
-0.0091950416
0.0034654787
0.015051456
0.025158792
0.030764913
0.016127514
0.00014367878
-0.00047327587
-0.018583108
-0.025498303
-0.0086287828
0.0041764581
0.016344393
0.028067611
0.037617934
0.020670216
-2.9578297e-05
0.00033998609
-0.016827832
-0.024567762
-0.0077794482
0.0052467017
0.017887974
0.030572026
0.042486671
0.0280695
0.0027087203
0.00053320627
-0.016142843
-0.02370774
-0.0067669731
0.006467315
0.019419544
0.032503048
0.044896967
0.03056007