/*--------------------------------*- C++ -*----------------------------------*\
| =========                 |                                                 |
| \\      /  F ield         | OpenFOAM: The Open Source CFD Toolbox           |
|  \\    /   O peration     | Version:  v2106                                 |
|   \\  /    A nd           | Website:  www.openfoam.com                      |
|    \\/     M anipulation  |                                                 |
\*---------------------------------------------------------------------------*/
FoamFile
{
    version     2.0;
    format      ascii;
    arch        "LSB;label=32;scalar=64";
    class       volScalarField;
    location    "42.5";
    object      laplacianT;
}
// * * * * * * * * * * * * * * * * * * * * * * * * * * * * * * * * * * * * * //

dimensions      [0 -2 0 1 0 0 0];

internalField   nonuniform List<scalar> 
4000
(
39150.877
39150.055
39150.513
39150.309
39150.246
39150.23
39150.249
39150.288
39150.319
39150.297
39150.055
39150.171
39150.272
39150.094
39150.034
39150.022
39150.047
39150.095
39150.127
39150.089
39150.513
39150.272
39150.425
39150.252
39150.196
39150.189
39150.224
39150.289
39150.345
39150.265
39150.309
39150.094
39150.252
39150.082
39150.03
39150.029
39150.071
39150.147
39150.221
39150.171
39150.246
39150.034
39150.196
39150.03
39149.983
39149.987
39150.036
39150.118
39150.198
39150.151
39150.23
39150.022
39150.189
39150.029
39149.987
39149.997
39150.05
39150.137
39150.22
39150.176
39150.249
39150.047
39150.224
39150.071
39150.036
39150.05
39150.107
39150.197
39150.281
39150.237
39150.288
39150.095
39150.289
39150.147
39150.118
39150.137
39150.197
39150.287
39150.371
39150.324
39150.319
39150.127
39150.345
39150.221
39150.198
39150.22
39150.281
39150.371
39150.45
39150.397
39150.297
39150.089
39150.265
39150.171
39150.151
39150.176
39150.237
39150.324
39150.397
39150.328
-459.00258
-462.96129
-460.60967
-460.83317
-460.83977
-460.83933
-460.84123
-460.8483
-460.87466
-460.86119
-462.96129
-463.4738
-462.15653
-462.32788
-462.33193
-462.33286
-462.34246
-462.38676
-462.56285
-462.17374
-460.60967
-462.15653
-460.74892
-460.91193
-460.91522
-460.91483
-460.91918
-460.95374
-461.1875
-461.24845
-460.83317
-462.32788
-460.91193
-461.07414
-461.07764
-461.07779
-461.08206
-461.10917
-461.31063
-461.30714
-460.83977
-462.33193
-460.91522
-461.07764
-461.08137
-461.0819
-461.08726
-461.1169
-461.32143
-461.31564
-460.83933
-462.33286
-460.91483
-461.07779
-461.0819
-461.08254
-461.08803
-461.11795
-461.32324
-461.31808
-460.84123
-462.34246
-460.91918
-461.08206
-461.08726
-461.08803
-461.09368
-461.12377
-461.3294
-461.32491
-460.8483
-462.38676
-460.95374
-461.10917
-461.1169
-461.11795
-461.12377
-461.15422
-461.36088
-461.35865
-460.87466
-462.56285
-461.1875
-461.31063
-461.32143
-461.32324
-461.3294
-461.36088
-461.57112
-461.57554
-460.86119
-462.17374
-461.24845
-461.30714
-461.31564
-461.31808
-461.32491
-461.35865
-461.57554
-461.53555
-422.3077
-427.33797
-424.14241
-424.44239
-424.45478
-424.45572
-424.46372
-424.49889
-424.63834
-424.00669
-427.33797
-427.84841
-426.01502
-426.24977
-426.25814
-426.25995
-426.27762
-426.3846
-426.95401
-425.87088
-424.14241
-426.01502
-424.07279
-424.29632
-424.30365
-424.30344
-424.31062
-424.38661
-425.02427
-424.62844
-424.44239
-426.24977
-424.29632
-424.51864
-424.52625
-424.52705
-424.53492
-424.59972
-425.1875
-424.70078
-424.45478
-426.25814
-424.30365
-424.52625
-424.53409
-424.53537
-424.54487
-424.61326
-425.20472
-424.7126
-424.45572
-426.25995
-424.30344
-424.52705
-424.53537
-424.53678
-424.54646
-424.61533
-425.20805
-424.71657
-424.46372
-426.27762
-424.31062
-424.53492
-424.54487
-424.54646
-424.55638
-424.62564
-425.21931
-424.72977
-424.49889
-426.3846
-424.38661
-424.59972
-424.61326
-424.61533
-424.62564
-424.69605
-425.29335
-424.81314
-424.63834
-426.95401
-425.02427
-425.1875
-425.20472
-425.20805
-425.21931
-425.29335
-425.90414
-425.45938
-424.00669
-425.87088
-424.62844
-424.70078
-424.7126
-424.71657
-424.72977
-424.81314
-425.45938
-424.38125
-386.86036
-393.04265
-389.0527
-389.42273
-389.44055
-389.44239
-389.45554
-389.5271
-389.89292
-388.88753
-393.04265
-393.70649
-391.37748
-391.67065
-391.68321
-391.68536
-391.7072
-391.86644
-392.90558
-391.22846
-389.0527
-391.37748
-388.92254
-389.20183
-389.21311
-389.21302
-389.22114
-389.33248
-390.46195
-389.69974
-389.42273
-391.67065
-389.20183
-389.47952
-389.49112
-389.4924
-389.50183
-389.59781
-390.66094
-389.78527
-389.44055
-391.68321
-389.21311
-389.49112
-389.50297
-389.50483
-389.51642
-389.61691
-390.68405
-389.80026
-389.44239
-391.68536
-389.21302
-389.4924
-389.50483
-389.50682
-389.51865
-389.6198
-390.68861
-389.80545
-389.45554
-391.7072
-389.22114
-389.50183
-389.51642
-389.51865
-389.53077
-389.63249
-390.70293
-389.82347
-389.5271
-391.86644
-389.33248
-389.59781
-389.61691
-389.6198
-389.63249
-389.73632
-390.81443
-389.95884
-389.89292
-392.90558
-390.46195
-390.66094
-390.68405
-390.68861
-390.70293
-390.81443
-391.92696
-391.20619
-388.88753
-391.22846
-389.69974
-389.78527
-389.80026
-389.80545
-389.82347
-389.95884
-391.20619
-388.92835
-353.25633
-360.52906
-355.78119
-356.21792
-356.24098
-356.24353
-356.25981
-356.35826
-356.93758
-355.5976
-360.52906
-361.33485
-358.53222
-358.88108
-358.89777
-358.90055
-358.92594
-359.12891
-360.62467
-358.38228
-355.78119
-358.53222
-355.5874
-355.91983
-355.93499
-355.9352
-355.94375
-356.08245
-357.69368
-356.58294
-356.21792
-358.88108
-355.91983
-356.2503
-356.26581
-356.26771
-356.27817
-356.3972
-357.9266
-356.68116
-356.24098
-358.89777
-355.93499
-356.26581
-356.2816
-356.28418
-356.29733
-356.42169
-357.95538
-356.6993
-356.24353
-358.90055
-355.9352
-356.26771
-356.28418
-356.28688
-356.30033
-356.4255
-357.96119
-356.70564
-356.25981
-358.92594
-355.94375
-356.27817
-356.29733
-356.30033
-356.31409
-356.43992
-357.97761
-356.72696
-356.35826
-359.12891
-356.08245
-356.3972
-356.42169
-356.4255
-356.43992
-356.56839
-358.11681
-356.90428
-356.93758
-360.62467
-357.69368
-357.9266
-357.95538
-357.96119
-357.97761
-358.11681
-359.72012
-358.77514
-355.5976
-358.38228
-356.58294
-356.68116
-356.6993
-356.70564
-356.72696
-356.90428
-358.77514
-355.30561
-321.59415
-329.87462
-324.41165
-324.91194
-324.94011
-324.94358
-324.96326
-325.08706
-325.87145
-324.22083
-329.87462
-330.7981
-327.54892
-327.95085
-327.97158
-327.97513
-328.00435
-328.24875
-330.18632
-327.41732
-324.41165
-327.54892
-324.14217
-324.52525
-324.5442
-324.54485
-324.55417
-324.71819
-326.79593
-325.36372
-324.91194
-327.95085
-324.52525
-324.90603
-324.92536
-324.92801
-324.93984
-325.07993
-327.06117
-325.47402
-324.94011
-327.97158
-324.5442
-324.92536
-324.94499
-324.94841
-324.96345
-325.10964
-327.09543
-325.49525
-324.94358
-327.97513
-324.54485
-324.92801
-324.94841
-324.95196
-324.96735
-325.1145
-327.10261
-325.50287
-324.96326
-328.00435
-324.55417
-324.93984
-324.96345
-324.96735
-324.98309
-325.13098
-327.12141
-325.52745
-325.08706
-328.24875
-324.71819
-325.07993
-325.10964
-325.1145
-325.13098
-325.28194
-327.28554
-325.74199
-325.87145
-330.18632
-326.79593
-327.06117
-327.09543
-327.10261
-327.12141
-327.28554
-329.36175
-328.22522
-324.22083
-327.41732
-325.36372
-325.47402
-325.49525
-325.50287
-325.52745
-325.74199
-328.22522
-323.61162
-291.95305
-301.15435
-295.02344
-295.58379
-295.61688
-295.62128
-295.64434
-295.79249
-296.7742
-294.83722
-301.15435
-302.1721
-298.50618
-298.9583
-298.98292
-298.98724
-299.02017
-299.30391
-301.66549
-298.41231
-295.02344
-298.50618
-294.66829
-295.09928
-295.12188
-295.12299
-295.1331
-295.32083
-297.84586
-296.12219
-295.58379
-298.9583
-295.09928
-295.52762
-295.55064
-295.55406
-295.56727
-295.72698
-298.14163
-296.24389
-295.61688
-298.98292
-295.12188
-295.55064
-295.57398
-295.57824
-295.59517
-295.76169
-298.18116
-296.26809
-295.62128
-298.98724
-295.12299
-295.55406
-295.57824
-295.58264
-295.59997
-295.7676
-298.18971
-296.27699
-295.64434
-299.02017
-295.1331
-295.56727
-295.59517
-295.59997
-295.6177
-295.78615
-298.21091
-296.30484
-295.79249
-299.30391
-295.32083
-295.72698
-295.76169
-295.7676
-295.78615
-295.95813
-298.39836
-296.5539
-296.7742
-301.66549
-297.84586
-298.14163
-298.18116
-298.18971
-298.21091
-298.39836
-300.92745
-299.62834
-294.83722
-298.41231
-296.12219
-296.24389
-296.26809
-296.27699
-296.30484
-296.5539
-299.62834
-293.93202
-264.40496
-274.43666
-267.68855
-268.3051
-268.34289
-268.34821
-268.37452
-268.54583
-269.71613
-267.51783
-274.43666
-275.52607
-271.47537
-271.97451
-272.00284
-272.00792
-272.04434
-272.36508
-275.13016
-271.43686
-267.68855
-271.47537
-267.23941
-267.71526
-267.74136
-267.74295
-267.7538
-267.96354
-270.91364
-268.9292
-268.3051
-271.97451
-267.71526
-268.18816
-268.2147
-268.21889
-268.23342
-268.41128
-271.23796
-269.06152
-268.34289
-272.00284
-267.74136
-268.2147
-268.24158
-268.24669
-268.26542
-268.45076
-271.28249
-269.08856
-268.34821
-272.00792
-267.74295
-268.21889
-268.24669
-268.25192
-268.2711
-268.45769
-271.29237
-269.09871
-268.37452
-272.04434
-267.7538
-268.23342
-268.26542
-268.2711
-268.29072
-268.47822
-271.31587
-269.1297
-268.54583
-272.36508
-267.96354
-268.41128
-268.45076
-268.45769
-268.47822
-268.66969
-271.52502
-269.41097
-269.71613
-275.13016
-270.91364
-271.23796
-271.28249
-271.29237
-271.31587
-271.52502
-274.48451
-273.05034
-267.51783
-271.43686
-268.9292
-269.06152
-269.08856
-269.09871
-269.1297
-269.41097
-273.05034
-266.33951
-239.00909
-249.77797
-242.46661
-243.13514
-243.17735
-243.18358
-243.21295
-243.40609
-244.75516
-242.32133
-249.77797
-250.91742
-246.5158
-247.05847
-247.09031
-247.09614
-247.13578
-247.49096
-250.6366
-246.54841
-242.46661
-246.5158
-241.91678
-242.43417
-242.46359
-242.46566
-242.47718
-242.70716
-246.05752
-243.84327
-243.13514
-247.05847
-242.43417
-242.94832
-242.97821
-242.98315
-242.99891
-243.19339
-246.40823
-243.98538
-243.17735
-247.09031
-242.46359
-242.97821
-243.00844
-243.01438
-243.03478
-243.23738
-246.45748
-244.01509
-243.18358
-247.09614
-242.46566
-242.98315
-243.01438
-243.02042
-243.04133
-243.24529
-246.46862
-244.02644
-243.21295
-247.13578
-242.47718
-242.99891
-243.03478
-243.04133
-243.06271
-243.26766
-246.49427
-244.06037
-243.40609
-247.49096
-242.70716
-243.19339
-243.23738
-243.24529
-243.26766
-243.47701
-246.72338
-244.37151
-244.75516
-250.6366
-246.05752
-246.40823
-246.45748
-246.46862
-246.49427
-246.72338
-250.08835
-248.54579
-242.32133
-246.54841
-243.84327
-243.98538
-244.01509
-244.02644
-244.06037
-244.37151
-248.54579
-240.89359
-215.81128
-227.22215
-219.4042
-220.12017
-220.16651
-220.17362
-220.20585
-220.41932
-221.93629
-219.29334
-227.22215
-228.39117
-223.67407
-224.25653
-224.29167
-224.2982
-224.34078
-224.72765
-228.2287
-223.79168
-219.4042
-223.67407
-218.74869
-219.30406
-219.33659
-219.33913
-219.35123
-219.59957
-223.32313
-220.91003
-220.12017
-224.25653
-219.30406
-219.85589
-219.88892
-219.89459
-219.91148
-220.12097
-223.69787
-221.06101
-220.16651
-224.29167
-219.33659
-219.88892
-219.92229
-219.92902
-219.95097
-220.16916
-223.75151
-221.0932
-220.17362
-224.2982
-219.33913
-219.89459
-219.92902
-219.93585
-219.95835
-220.17802
-223.76387
-221.10569
-220.20585
-224.34078
-219.35123
-219.91148
-219.95097
-219.95835
-219.98135
-220.20208
-223.79149
-221.14233
-220.41932
-224.72765
-219.59957
-220.12097
-220.16916
-220.17802
-220.20208
-220.42761
-224.03872
-221.48087
-221.93629
-228.2287
-223.32313
-223.69787
-223.75151
-223.76387
-223.79149
-224.03872
-227.78196
-226.15684
-219.29334
-223.79168
-220.91003
-221.06101
-221.0932
-221.10569
-221.14233
-221.48087
-226.15684
-217.64045
-194.84401
-206.80045
-198.53486
-199.29343
-199.34358
-199.35152
-199.38639
-199.61859
-201.29161
-198.46635
-206.80045
-207.97989
-202.98406
-203.60233
-203.64051
-203.64772
-203.69293
-204.10856
-207.93789
-203.1985
-198.53486
-202.98406
-197.7704
-198.35994
-198.39535
-198.39837
-198.41095
-198.67568
-202.74332
-200.16207
-199.29343
-203.60233
-198.35994
-198.94569
-198.98161
-198.988
-199.00589
-199.22873
-203.13961
-200.32097
-199.34358
-203.64051
-198.39535
-198.98161
-199.0179
-199.02539
-199.04873
-199.28079
-203.19729
-200.35544
-199.35152
-203.64772
-198.39837
-198.988
-199.02539
-199.03297
-199.0569
-199.29054
-203.21077
-200.369
-199.38639
-203.69293
-198.41095
-199.00589
-199.04873
-199.0569
-199.08135
-199.31613
-203.24018
-200.40809
-199.61859
-204.10856
-198.67568
-199.22873
-199.28079
-199.29054
-199.31613
-199.55605
-203.5036
-200.77142
-201.29161
-207.93789
-202.74332
-203.13961
-203.19729
-203.21077
-203.24018
-203.5036
-207.59581
-205.91295
-198.46635
-203.1985
-200.16207
-200.32097
-200.35544
-200.369
-200.40809
-200.77142
-205.91295
-196.61291
-176.12648
-188.53152
-179.87909
-180.67517
-180.72878
-180.73751
-180.77477
-181.02399
-182.84036
-179.85977
-188.53152
-189.7037
-184.46692
-185.1168
-185.15776
-185.1656
-185.21312
-185.65445
-189.78315
-184.78794
-179.87909
-184.46692
-179.00415
-179.62385
-179.6619
-179.66538
-179.67836
-179.95743
-184.33823
-181.61905
-180.67517
-185.1168
-179.62385
-180.23955
-180.27812
-180.28518
-180.30395
-180.53841
-184.75344
-181.78484
-180.72878
-185.15776
-179.6619
-180.27812
-180.31706
-180.32527
-180.34985
-180.59398
-184.81477
-181.82137
-180.73751
-185.1656
-179.66538
-180.28518
-180.32527
-180.33355
-180.35876
-180.60457
-184.82931
-181.8359
-180.77477
-185.21312
-179.67836
-180.30395
-180.34985
-180.35876
-180.3845
-180.63151
-184.8603
-181.87719
-181.02399
-185.65445
-179.95743
-180.53841
-180.59398
-180.60457
-180.63151
-180.88399
-185.13789
-182.26256
-182.84036
-189.78315
-184.33823
-184.75344
-184.81477
-184.82931
-184.8603
-185.13789
-189.54795
-187.83098
-179.85977
-184.78794
-181.61905
-181.78484
-181.82137
-181.8359
-181.87719
-182.26256
-187.83098
-177.83049
-159.66473
-172.42159
-163.44449
-164.27279
-164.3295
-164.33896
-164.37836
-164.6428
-166.58903
-163.48007
-172.42159
-173.57039
-168.1312
-168.80834
-168.85179
-168.86021
-168.90971
-169.37352
-173.77116
-168.56638
-163.44449
-168.1312
-162.45928
-163.10499
-163.14541
-163.14933
-163.1626
-163.45393
-168.11539
-165.28777
-164.27279
-168.80834
-163.10499
-163.7465
-163.78746
-163.79514
-163.81467
-164.05897
-168.5468
-165.4594
-164.3295
-168.85179
-163.14541
-163.78746
-163.82878
-163.83765
-163.8633
-164.11768
-168.61137
-165.49775
-164.33896
-168.86021
-163.14933
-163.79514
-163.83765
-163.84659
-163.87289
-164.12904
-168.62687
-165.51317
-164.37836
-168.90971
-163.1626
-163.81467
-163.8633
-163.87289
-163.89975
-164.15714
-168.65923
-165.55635
-164.6428
-169.37352
-163.45393
-164.05897
-164.11768
-164.12904
-164.15714
-164.42029
-168.94894
-165.96095
-166.58903
-173.77116
-168.11539
-168.5468
-168.61137
-168.62687
-168.65923
-168.94894
-173.64411
-171.9153
-163.48007
-168.56638
-165.28777
-165.4594
-165.49775
-165.51317
-165.55635
-165.96095
-171.9153
-161.29959
-145.45198
-158.46472
-149.22605
-150.08111
-150.14054
-150.15066
-150.19193
-150.46969
-152.53166
-149.32108
-158.46472
-159.57568
-153.97307
-154.67297
-154.71862
-154.72757
-154.7787
-155.26169
-159.89653
-154.52781
-149.22605
-153.97307
-148.13248
-148.79991
-148.84243
-148.84676
-148.86024
-149.16169
-154.07
-151.1625
-150.08111
-154.67297
-148.79991
-149.46296
-149.50602
-149.51429
-149.53444
-149.78679
-154.51479
-151.33886
-150.14054
-154.71862
-148.84243
-149.50602
-149.54945
-149.55893
-149.58547
-149.84824
-154.58218
-151.37878
-150.15066
-154.72757
-148.84676
-149.51429
-149.55893
-149.56846
-149.59568
-149.86029
-154.59854
-151.39499
-150.19193
-154.7787
-148.86024
-149.53444
-149.58547
-149.59568
-149.62347
-149.88937
-154.63205
-151.43978
-150.46969
-155.26169
-149.16169
-149.78679
-149.84824
-149.86029
-149.88937
-150.16126
-154.93177
-151.86068
-152.53166
-159.89653
-154.07
-154.51479
-154.58218
-154.59854
-154.63205
-154.93177
-159.87799
-158.15809
-149.32108
-154.52781
-151.1625
-151.33886
-151.37878
-151.39499
-151.43978
-151.86068
-158.15809
-147.01374
-133.46891
-146.64307
-137.20645
-138.08267
-138.14441
-138.15514
-138.19798
-138.48714
-140.65015
-137.36428
-146.64307
-147.7035
-141.97667
-142.69471
-142.74225
-142.75167
-142.80408
-143.30289
-148.14211
-142.65416
-137.20645
-141.97667
-136.00812
-136.69286
-136.73719
-136.74191
-136.75549
-137.06491
-142.18521
-139.22524
-138.08267
-142.69471
-136.69286
-137.37308
-137.41796
-137.42675
-137.44739
-137.70597
-142.64049
-139.40522
-138.14441
-142.74225
-136.73719
-137.41796
-137.46319
-137.47322
-137.50047
-137.76976
-142.71026
-139.44644
-138.15514
-142.75167
-136.74191
-137.42675
-137.47322
-137.48328
-137.51124
-137.78242
-142.72737
-139.46334
-138.19798
-142.80408
-136.75549
-137.44739
-137.50047
-137.51124
-137.53977
-137.81228
-142.76181
-139.50943
-138.48714
-143.30289
-137.06491
-137.70597
-137.76976
-137.78242
-137.81228
-138.09098
-143.0694
-139.94367
-140.65015
-148.14211
-142.18521
-142.64049
-142.71026
-142.72737
-142.76181
-143.0694
-148.23153
-146.53964
-137.36428
-142.65416
-139.22524
-139.40522
-139.44644
-139.46334
-139.50943
-139.94367
-146.53964
-134.95398
-123.68419
-136.92739
-127.35649
-128.24818
-128.31182
-128.32307
-128.36721
-128.66576
-130.91469
-127.57928
-136.92739
-137.92636
-132.11445
-132.84595
-132.89506
-132.90488
-132.95822
-133.46942
-138.4794
-132.91568
-127.35649
-132.11445
-126.05861
-126.75619
-126.80203
-126.80711
-126.8207
-127.13593
-132.43254
-129.44621
-128.24818
-132.84595
-126.75619
-127.44914
-127.49553
-127.50479
-127.52577
-127.78878
-132.89538
-129.62866
-128.31182
-132.89506
-126.80203
-127.49553
-127.54227
-127.55278
-127.58056
-127.85447
-132.96708
-129.67093
-128.32307
-132.90488
-126.80711
-127.50479
-127.55278
-127.56331
-127.59181
-127.86766
-132.98483
-129.6884
-128.36721
-132.95822
-126.8207
-127.52577
-127.58056
-127.59181
-127.6209
-127.89811
-133.01995
-129.73549
-128.66576
-133.46942
-127.13593
-127.78878
-127.85447
-127.86766
-127.89811
-128.18167
-133.33329
-130.18005
-130.91469
-138.4794
-132.43254
-132.89538
-132.96708
-132.98483
-133.01995
-133.33329
-138.67533
-137.0288
-127.57928
-132.91568
-129.44621
-129.62866
-129.67093
-129.6884
-129.73549
-130.18005
-137.0288
-125.08927
-116.05493
-129.27743
-119.63557
-120.53698
-120.60211
-120.61381
-120.65895
-120.96487
-123.28426
-119.9243
-129.27743
-130.20587
-124.34769
-125.08791
-125.13828
-125.14843
-125.20235
-125.72249
-130.86901
-125.27148
-119.63557
-124.34769
-118.24491
-118.95082
-118.99787
-119.00327
-119.01678
-119.33566
-124.77237
-121.78432
-120.53698
-125.08791
-118.95082
-119.65201
-119.6996
-119.70927
-119.73046
-119.99609
-125.23979
-121.96808
-120.60211
-125.13828
-118.99787
-119.6996
-119.74754
-119.75846
-119.78659
-120.06326
-125.31295
-122.01113
-120.61381
-125.14843
-119.00327
-119.70927
-119.75846
-119.76939
-119.79825
-120.0769
-125.33123
-122.02906
-120.65895
-125.20235
-119.01678
-119.73046
-119.78659
-119.79825
-119.8277
-120.10773
-125.36682
-122.07683
-120.96487
-125.72249
-119.33566
-119.99609
-120.06326
-120.0769
-120.10773
-120.39422
-125.68377
-122.5287
-123.28426
-130.86901
-124.77237
-125.23979
-125.31295
-125.33123
-125.36682
-125.68377
-131.16916
-129.58349
-119.9243
-125.27148
-121.78432
-121.96808
-122.01113
-122.02906
-122.07683
-122.5287
-129.58349
-117.37703
-110.52734
-123.64256
-113.99231
-114.89768
-114.96386
-114.97594
-115.02178
-115.33302
-117.70718
-114.34678
-123.64256
-124.49323
-118.62703
-119.37123
-119.42252
-119.43294
-119.48707
-120.01271
-125.26121
-119.67009
-113.99231
-118.62703
-112.5171
-113.2268
-113.27475
-113.28044
-113.29378
-113.61418
-119.15446
-116.18775
-114.89768
-119.37123
-113.2268
-113.93174
-113.98023
-113.99025
-114.0115
-114.27797
-119.6235
-116.37166
-114.96386
-119.42252
-113.27475
-113.98023
-114.02905
-114.04031
-114.0686
-114.34619
-119.69766
-116.41521
-114.97594
-119.43294
-113.28044
-113.99025
-114.04031
-114.05156
-114.08059
-114.36018
-119.71634
-116.43348
-115.02178
-119.48707
-113.29378
-114.0115
-114.0686
-114.08059
-114.11022
-114.39119
-119.75216
-116.48163
-115.33302
-120.01271
-113.61418
-114.27797
-114.34619
-114.36018
-114.39119
-114.6787
-120.0706
-116.93778
-117.70718
-125.26121
-119.15446
-119.6235
-119.69766
-119.71634
-119.75216
-120.0706
-125.66246
-124.15123
-114.34678
-119.67009
-116.18775
-116.37166
-116.41521
-116.43348
-116.48163
-116.93778
-124.15123
-111.76377
-107.03734
-119.96236
-110.36513
-111.2687
-111.33552
-111.3479
-111.39413
-111.70865
-114.12177
-110.78399
-119.96236
-120.72986
-114.89307
-115.63653
-115.68841
-115.69903
-115.75303
-116.28072
-121.59654
-116.05007
-110.36513
-114.89307
-108.81496
-109.52396
-109.5725
-109.57844
-109.59152
-109.91135
-115.51862
-112.59457
-111.2687
-115.63653
-109.52396
-110.22816
-110.27724
-110.28753
-110.30872
-110.57428
-115.98631
-112.77748
-111.33552
-115.68841
-109.5725
-110.27724
-110.32663
-110.33815
-110.36643
-110.64311
-116.06098
-112.82125
-111.3479
-115.69903
-109.57844
-110.28753
-110.33815
-110.34965
-110.37867
-110.65736
-116.07994
-112.83975
-111.39413
-115.75303
-109.59152
-110.30872
-110.36643
-110.37867
-110.40828
-110.68835
-116.11576
-112.88795
-111.70865
-116.28072
-109.91135
-110.57428
-110.64311
-110.65736
-110.68835
-110.975
-116.43361
-113.3454
-114.12177
-121.59654
-115.51862
-115.98631
-116.06098
-116.07994
-116.11576
-116.43361
-122.09499
-120.66983
-110.78399
-116.05007
-112.59457
-112.77748
-112.82125
-112.83975
-112.88795
-113.3454
-120.66983
-108.18568
-105.51132
-118.16726
-108.68296
-109.57905
-109.64609
-109.65867
-109.705
-110.02075
-112.45703
-109.16378
-118.16726
-118.84801
-113.07706
-113.81509
-113.86723
-113.87799
-113.93151
-114.45786
-119.80644
-114.34071
-108.68296
-113.07706
-107.0687
-107.77253
-107.82136
-107.8275
-107.84025
-108.15745
-113.79531
-110.93347
-109.57905
-113.81509
-107.77253
-108.47157
-108.52092
-108.53142
-108.5524
-108.81536
-114.25872
-111.11423
-109.64609
-113.86723
-107.82136
-108.52092
-108.57056
-108.58228
-108.61036
-108.88436
-114.33343
-111.15793
-109.65867
-113.87799
-107.8275
-108.53142
-108.58228
-108.59395
-108.62277
-108.89878
-114.35255
-111.17654
-109.705
-113.93151
-107.84025
-108.5524
-108.61036
-108.62277
-108.65217
-108.92955
-114.38815
-111.22449
-110.02075
-114.45786
-108.15745
-108.81536
-108.88436
-108.89878
-108.92955
-109.21351
-114.70337
-111.68029
-112.45703
-119.80644
-113.79531
-114.25872
-114.33343
-114.35255
-114.38815
-114.70337
-120.39747
-119.06803
-109.16378
-114.34071
-110.93347
-111.11423
-111.15793
-111.17654
-111.22449
-111.68029
-119.06803
-106.56944
-105.86687
-118.17933
-108.866
-109.74901
-109.81584
-109.82855
-109.87468
-110.18963
-112.63336
-109.40526
-118.17933
-118.7715
-113.10159
-113.8296
-113.88167
-113.89249
-113.9452
-114.46688
-119.81399
-114.46276
-108.866
-113.10159
-107.19966
-107.89393
-107.94274
-107.94904
-107.96137
-108.27397
-113.90642
-111.12445
-109.74901
-113.8296
-107.89393
-108.58345
-108.63275
-108.6434
-108.66405
-108.92275
-114.36265
-111.30192
-109.81584
-113.88167
-107.94274
-108.63275
-108.68234
-108.69417
-108.72187
-108.99149
-114.43694
-111.34529
-109.82855
-113.89249
-107.94904
-108.6434
-108.69417
-108.70594
-108.73438
-109.00598
-114.4561
-111.36388
-109.87468
-113.9452
-107.96137
-108.66405
-108.72187
-108.73438
-108.76339
-109.03635
-114.49125
-111.41129
-110.18963
-114.46688
-108.27397
-108.92275
-108.99149
-109.00598
-109.03635
-109.31583
-114.80187
-111.86254
-112.63336
-119.81399
-113.90642
-114.36265
-114.43694
-114.4561
-114.49125
-114.80187
-120.49229
-119.26622
-109.40526
-114.46276
-111.12445
-111.30192
-111.34529
-111.36388
-111.41129
-111.86254
-119.26622
-106.83287
-108.0136
-119.91294
-110.82644
-111.69091
-111.75711
-111.76987
-111.8155
-112.12767
-114.56331
-111.41966
-119.91294
-120.41644
-114.88134
-115.59483
-115.64651
-115.65732
-115.70888
-116.22266
-121.53463
-116.32917
-110.82644
-114.88134
-109.12105
-109.80148
-109.84996
-109.85639
-109.86823
-110.1743
-115.76599
-113.07961
-111.69091
-115.59483
-109.80148
-110.47722
-110.52618
-110.53689
-110.55708
-110.80995
-116.21223
-113.2527
-111.75711
-115.64651
-109.84996
-110.52618
-110.5754
-110.58726
-110.61442
-110.878
-116.28562
-113.29547
-111.76987
-115.65732
-109.85639
-110.53689
-110.58726
-110.59906
-110.62693
-110.89248
-116.3047
-113.31393
-111.8155
-115.70888
-109.86823
-110.55708
-110.61442
-110.62693
-110.65537
-110.92224
-116.33918
-113.36048
-112.12767
-116.22266
-110.1743
-110.80995
-110.878
-110.89248
-110.92224
-111.19554
-116.64328
-113.80439
-114.56331
-121.53463
-115.76599
-116.21223
-116.28562
-116.3047
-116.33918
-116.64328
-122.29427
-121.17725
-111.41966
-116.32917
-113.07961
-113.2527
-113.29547
-113.31393
-113.36048
-113.80439
-121.17725
-108.88583
-111.85394
-123.27562
-114.46932
-115.30994
-115.37512
-115.38784
-115.43269
-115.74013
-118.15245
-115.11106
-123.27562
-123.69199
-118.32387
-119.01847
-119.06945
-119.08018
-119.13029
-119.63302
-124.87691
-119.84592
-114.46932
-118.32387
-112.73881
-113.40123
-113.44908
-113.45559
-113.46687
-113.7646
-119.28099
-116.70399
-115.30994
-119.01847
-113.40123
-114.05905
-114.10736
-114.11808
-114.13768
-114.38321
-119.7145
-116.87163
-115.37512
-119.06945
-113.44908
-114.10736
-114.15592
-114.16774
-114.19419
-114.45015
-119.78654
-116.91352
-115.38784
-119.08018
-113.45559
-114.11808
-114.16774
-114.17948
-114.20663
-114.46452
-119.80542
-116.93173
-115.43269
-119.13029
-113.46687
-114.13768
-114.19419
-114.20663
-114.23432
-114.49351
-119.83901
-116.97715
-115.74013
-119.63302
-113.7646
-114.38321
-114.45015
-114.46452
-114.49351
-114.75898
-120.13478
-117.411
-118.15245
-124.87691
-119.28099
-119.7145
-119.78654
-119.80542
-119.83901
-120.13478
-125.7114
-124.70719
-115.11106
-119.84592
-116.70399
-116.87163
-116.91352
-116.93173
-116.97715
-117.411
-124.70719
-112.63099
-117.28404
-128.16881
-119.69333
-120.50499
-120.56874
-120.58134
-120.62512
-120.92596
-123.30009
-120.37729
-128.16881
-128.50113
-123.33042
-124.00193
-124.05189
-124.06247
-124.11082
-124.59949
-129.74332
-124.91281
-119.69333
-123.33042
-117.95234
-118.59275
-118.63969
-118.64623
-118.65689
-118.94453
-124.35216
-121.89635
-120.50499
-124.00193
-118.59275
-119.22868
-119.27605
-119.28669
-119.30559
-119.54236
-124.77029
-122.05749
-120.56874
-124.05189
-118.63969
-119.27605
-119.32364
-119.33534
-119.36092
-119.60778
-124.84054
-122.09824
-120.58134
-124.06247
-118.64623
-119.28669
-119.33534
-119.34695
-119.37321
-119.62194
-124.85909
-122.11608
-120.62512
-124.11082
-118.65689
-119.30559
-119.36092
-119.37321
-119.39999
-119.64997
-124.8916
-122.1601
-120.92596
-124.59949
-118.94453
-119.54236
-119.60778
-119.62194
-119.64997
-119.90608
-125.17729
-122.58129
-123.30009
-129.74332
-124.35216
-124.77029
-124.84054
-124.85909
-124.8916
-125.17729
-130.64565
-129.75611
-120.37729
-124.91281
-121.89635
-122.05749
-122.09824
-122.11608
-122.1601
-122.58129
-129.75611
-117.96471
-124.19456
-134.4887
-126.39165
-127.16944
-127.23139
-127.24378
-127.28623
-127.57863
-129.90019
-127.11076
-134.4887
-134.74149
-129.79672
-130.44112
-130.48976
-130.50012
-130.54643
-131.01813
-136.03105
-131.4243
-126.39165
-129.79672
-124.65543
-125.26999
-125.31572
-125.32226
-125.33224
-125.60815
-130.87477
-128.54999
-127.16944
-130.44112
-125.26999
-125.88022
-125.92636
-125.93686
-125.95494
-126.1816
-131.27499
-128.70365
-127.23139
-130.48976
-125.31572
-125.92636
-125.9727
-125.9842
-126.00876
-126.2451
-131.34303
-128.74302
-127.24378
-130.50012
-125.32226
-125.93686
-125.9842
-125.9956
-126.02081
-126.25897
-131.36113
-128.76038
-127.28623
-130.54643
-125.33224
-125.95494
-126.00876
-126.02081
-126.04653
-126.28589
-131.39237
-128.80272
-127.57863
-131.01813
-125.60815
-126.1816
-126.2451
-126.25897
-126.28589
-126.53115
-131.66633
-129.20878
-129.90019
-136.03105
-130.87477
-131.27499
-131.34303
-131.36113
-131.39237
-131.66633
-136.99378
-136.21897
-127.11076
-131.4243
-128.54999
-128.70365
-128.74302
-128.76038
-128.80272
-129.20878
-136.21897
-124.77786
-132.47158
-142.127
-134.45276
-135.19204
-135.25181
-135.26391
-135.30477
-135.58701
-137.84213
-135.19926
-142.127
-142.30614
-137.61379
-138.22726
-138.27429
-138.28437
-138.32836
-138.78038
-143.63281
-139.27033
-134.45276
-137.61379
-132.737
-133.32207
-133.36634
-133.37281
-133.38206
-133.64471
-138.73948
-136.55366
-135.19204
-138.22726
-133.32207
-133.90298
-133.94762
-133.9579
-133.97507
-134.19037
-139.1194
-136.6989
-135.25181
-138.27429
-133.36634
-133.94762
-133.99243
-134.00366
-134.02705
-134.25158
-139.1848
-136.73663
-135.26391
-138.28437
-133.37281
-133.9579
-134.00366
-134.01478
-134.0388
-134.26507
-139.20235
-136.75339
-135.30477
-138.32836
-133.38206
-133.97507
-134.02705
-134.0388
-134.06329
-134.2907
-139.23212
-136.79381
-135.58701
-138.78038
-133.64471
-134.19037
-134.25158
-134.26507
-134.2907
-134.52378
-139.49282
-137.18241
-137.84213
-143.63281
-138.73948
-139.1194
-139.1848
-139.20235
-139.23212
-139.49282
-144.6481
-143.98636
-135.19926
-139.27033
-136.55366
-136.6989
-136.73663
-136.75339
-136.79381
-137.18241
-143.98636
-132.95673
-141.99744
-150.97179
-143.76133
-144.45772
-144.51497
-144.5267
-144.56571
-144.83614
-147.0116
-144.52685
-150.97179
-151.08435
-146.66881
-147.24775
-147.2929
-147.30262
-147.34404
-147.7738
-152.43763
-148.33713
-143.76133
-146.66881
-142.08202
-142.63417
-142.6767
-142.68307
-142.69155
-142.93953
-147.83316
-145.79232
-144.45772
-147.24775
-142.63417
-143.18236
-143.22523
-143.23523
-143.25138
-143.45417
-148.19051
-145.92824
-144.51497
-147.2929
-142.6767
-143.22523
-143.26825
-143.27913
-143.30122
-143.51272
-148.25288
-145.96411
-144.5267
-147.30262
-142.68307
-143.23523
-143.27913
-143.28989
-143.31258
-143.52573
-148.26975
-145.98017
-144.56571
-147.34404
-142.69155
-143.25138
-143.30122
-143.31258
-143.3357
-143.54994
-148.29788
-146.01842
-144.83614
-147.7738
-142.93953
-143.45417
-143.51272
-143.52573
-143.54994
-143.76956
-148.54391