/*--------------------------------*- C++ -*----------------------------------*\
| =========                 |                                                 |
| \\      /  F ield         | OpenFOAM: The Open Source CFD Toolbox           |
|  \\    /   O peration     | Version:  v2106                                 |
|   \\  /    A nd           | Website:  www.openfoam.com                      |
|    \\/     M anipulation  |                                                 |
\*---------------------------------------------------------------------------*/
FoamFile
{
    version     2.0;
    format      ascii;
    arch        "LSB;label=32;scalar=64";
    class       volScalarField;
    location    "42.5";
    object      T;
}
// * * * * * * * * * * * * * * * * * * * * * * * * * * * * * * * * * * * * * //

dimensions      [0 0 0 1 0 0 0];

internalField   nonuniform List<scalar> 
4000
(
275.0503
275.05033
275.05031
275.0503
275.0503
275.0503
275.0503
275.0503
275.0503
275.0503
275.05033
275.05033
275.05032
275.05031
275.05031
275.05031
275.05031
275.05031
275.05031
275.05031
275.05031
275.05032
275.0503
275.0503
275.05029
275.05029
275.05029
275.0503
275.0503
275.05031
275.0503
275.05031
275.0503
275.05029
275.05029
275.05029
275.05029
275.05029
275.0503
275.0503
275.0503
275.05031
275.05029
275.05029
275.05028
275.05028
275.05029
275.05029
275.0503
275.0503
275.0503
275.05031
275.05029
275.05029
275.05028
275.05029
275.05029
275.05029
275.0503
275.0503
275.0503
275.05031
275.05029
275.05029
275.05029
275.05029
275.05029
275.0503
275.0503
275.05031
275.0503
275.05031
275.0503
275.05029
275.05029
275.05029
275.0503
275.0503
275.05031
275.05031
275.0503
275.05031
275.0503
275.0503
275.0503
275.0503
275.0503
275.05031
275.05031
275.05032
275.0503
275.05031
275.05031
275.0503
275.0503
275.0503
275.05031
275.05031
275.05032
275.05032
283.06592
283.06603
283.06596
283.06593
283.06591
283.06591
283.06591
283.06592
283.06593
283.06593
283.06603
283.06605
283.06599
283.06596
283.06595
283.06594
283.06595
283.06597
283.06598
283.06597
283.06596
283.06599
283.06593
283.0659
283.06589
283.06588
283.06589
283.06591
283.06594
283.06594
283.06593
283.06596
283.0659
283.06587
283.06586
283.06586
283.06587
283.06589
283.06592
283.06592
283.06591
283.06595
283.06589
283.06586
283.06585
283.06585
283.06586
283.06588
283.06591
283.06592
283.06591
283.06594
283.06588
283.06586
283.06585
283.06585
283.06587
283.06589
283.06592
283.06593
283.06591
283.06595
283.06589
283.06587
283.06586
283.06587
283.06588
283.06591
283.06593
283.06594
283.06592
283.06597
283.06591
283.06589
283.06588
283.06589
283.06591
283.06593
283.06596
283.06597
283.06593
283.06598
283.06594
283.06592
283.06591
283.06592
283.06593
283.06596
283.06599
283.06599
283.06593
283.06597
283.06594
283.06592
283.06592
283.06593
283.06594
283.06597
283.06599
283.066
291.03544
291.03558
291.03547
291.03542
291.03539
291.03539
291.0354
291.03542
291.03544
291.03542
291.03558
291.03561
291.03551
291.03546
291.03544
291.03543
291.03545
291.03548
291.03551
291.03549
291.03547
291.03551
291.03541
291.03536
291.03534
291.03534
291.03536
291.03539
291.03544
291.03544
291.03542
291.03546
291.03536
291.03532
291.03529
291.0353
291.03532
291.03536
291.03541
291.03541
291.03539
291.03544
291.03534
291.03529
291.03527
291.03528
291.0353
291.03535
291.0354
291.03541
291.03539
291.03543
291.03534
291.0353
291.03528
291.03528
291.03531
291.03536
291.03542
291.03542
291.0354
291.03545
291.03536
291.03532
291.0353
291.03531
291.03534
291.03539
291.03545
291.03545
291.03542
291.03548
291.03539
291.03536
291.03535
291.03536
291.03539
291.03544
291.03549
291.0355
291.03544
291.03551
291.03544
291.03541
291.0354
291.03542
291.03545
291.03549
291.03555
291.03555
291.03542
291.03549
291.03544
291.03541
291.03541
291.03542
291.03545
291.0355
291.03555
291.03552
298.96245
298.96262
298.96247
298.9624
298.96237
298.96236
298.96238
298.96242
298.96245
298.96242
298.96262
298.96265
298.96252
298.96245
298.96242
298.96241
298.96244
298.96249
298.96254
298.9625
298.96247
298.96252
298.96239
298.96232
298.96229
298.96229
298.96232
298.96238
298.96245
298.96244
298.9624
298.96245
298.96232
298.96226
298.96223
298.96223
298.96227
298.96233
298.96241
298.96241
298.96237
298.96242
298.96229
298.96223
298.9622
298.96221
298.96225
298.96232
298.96241
298.96241
298.96236
298.96241
298.96229
298.96223
298.96221
298.96222
298.96226
298.96234
298.96243
298.96243
298.96238
298.96244
298.96232
298.96227
298.96225
298.96226
298.96231
298.96238
298.96247
298.96247
298.96242
298.96249
298.96238
298.96233
298.96232
298.96234
298.96238
298.96245
298.96254
298.96254
298.96245
298.96254
298.96245
298.96241
298.96241
298.96243
298.96247
298.96254
298.96263
298.96262
298.96242
298.9625
298.96244
298.96241
298.96241
298.96243
298.96247
298.96254
298.96262
298.96257
306.85043
306.85062
306.85045
306.85036
306.85032
306.85032
306.85035
306.8504
306.85045
306.85041
306.85062
306.85066
306.8505
306.85042
306.85038
306.85038
306.85041
306.85048
306.85056
306.85051
306.85045
306.8505
306.85034
306.85026
306.85022
306.85022
306.85027
306.85035
306.85045
306.85044
306.85036
306.85042
306.85026
306.85018
306.85015
306.85015
306.8502
306.85029
306.85041
306.8504
306.85032
306.85038
306.85022
306.85015
306.85012
306.85013
306.85018
306.85028
306.8504
306.8504
306.85032
306.85038
306.85022
306.85015
306.85013
306.85015
306.85021
306.8503
306.85043
306.85043
306.85035
306.85041
306.85027
306.8502
306.85018
306.85021
306.85027
306.85037
306.85049
306.85049
306.8504
306.85048
306.85035
306.85029
306.85028
306.8503
306.85037
306.85047
306.85059
306.85059
306.85045
306.85056
306.85045
306.85041
306.8504
306.85043
306.85049
306.85059
306.85071
306.85069
306.85041
306.85051
306.85044
306.8504
306.8504
306.85043
306.85049
306.85059
306.85069
306.85061
314.70269
314.70291
314.7027
314.7026
314.70256
314.70256
314.7026
314.70267
314.70274
314.70269
314.70291
314.70295
314.70276
314.70266
314.70262
314.70262
314.70267
314.70276
314.70287
314.70281
314.7027
314.70276
314.70257
314.70248
314.70243
314.70244
314.7025
314.7026
314.70274
314.70272
314.7026
314.70266
314.70248
314.70238
314.70235
314.70236
314.70243
314.70254
314.70269
314.70268
314.70256
314.70262
314.70243
314.70235
314.70232
314.70234
314.70241
314.70253
314.70269
314.70268
314.70256
314.70262
314.70244
314.70236
314.70234
314.70236
314.70244
314.70256
314.70272
314.70272
314.7026
314.70267
314.7025
314.70243
314.70241
314.70244
314.70252
314.70265
314.70281
314.70281
314.70267
314.70276
314.7026
314.70254
314.70253
314.70256
314.70265
314.70277
314.70293
314.70293
314.70274
314.70287
314.70274
314.70269
314.70269
314.70272
314.70281
314.70293
314.70309
314.70307
314.70269
314.70281
314.70272
314.70268
314.70268
314.70272
314.70281
314.70293
314.70307
314.70295
322.52234
322.52259
322.52235
322.52224
322.52219
322.5222
322.52225
322.52234
322.52243
322.52237
322.52259
322.52263
322.52241
322.5223
322.52226
322.52227
322.52233
322.52244
322.52257
322.52251
322.52235
322.52241
322.5222
322.52209
322.52205
322.52206
322.52214
322.52226
322.52243
322.52242
322.52224
322.5223
322.52209
322.52199
322.52195
322.52197
322.52205
322.52219
322.52238
322.52237
322.52219
322.52226
322.52205
322.52195
322.52192
322.52195
322.52204
322.52218
322.52238
322.52238
322.5222
322.52227
322.52206
322.52197
322.52195
322.52198
322.52208
322.52223
322.52243
322.52243
322.52225
322.52233
322.52214
322.52205
322.52204
322.52208
322.52217
322.52233
322.52253
322.52253
322.52234
322.52244
322.52226
322.52219
322.52218
322.52223
322.52233
322.52249
322.52268
322.52268
322.52243
322.52257
322.52243
322.52238
322.52238
322.52243
322.52253
322.52268
322.52287
322.52285
322.52237
322.52251
322.52242
322.52237
322.52238
322.52243
322.52253
322.52268
322.52285
322.52271
330.31232
330.31258
330.31232
330.3122
330.31214
330.31215
330.31222
330.31233
330.31244
330.31238
330.31258
330.31263
330.31238
330.31226
330.31221
330.31223
330.3123
330.31244
330.3126
330.31253
330.31232
330.31238
330.31215
330.31203
330.31198
330.31201
330.31209
330.31224
330.31245
330.31243
330.3122
330.31226
330.31203
330.31192
330.31188
330.31191
330.312
330.31217
330.31239
330.31238
330.31214
330.31221
330.31198
330.31188
330.31184
330.31188
330.31199
330.31216
330.31239
330.31239
330.31215
330.31223
330.31201
330.31191
330.31188
330.31193
330.31204
330.31222
330.31245
330.31246
330.31222
330.3123
330.31209
330.312
330.31199
330.31204
330.31215
330.31234
330.31257
330.31258
330.31233
330.31244
330.31224
330.31217
330.31216
330.31222
330.31234
330.31252
330.31275
330.31276
330.31244
330.3126
330.31245
330.31239
330.31239
330.31245
330.31257
330.31275
330.31298
330.31296
330.31238
330.31253
330.31243
330.31238
330.31239
330.31246
330.31258
330.31276
330.31296
330.31279
338.07533
338.07561
338.07532
338.07519
338.07513
338.07515
338.07523
338.07535
338.07549
338.07542
338.07561
338.07565
338.07539
338.07526
338.0752
338.07522
338.07532
338.07547
338.07566
338.07559
338.07532
338.07539
338.07513
338.075
338.07495
338.07498
338.07508
338.07526
338.0755
338.07548
338.07519
338.07526
338.075
338.07488
338.07484
338.07488
338.07499
338.07518
338.07543
338.07543
338.07513
338.0752
338.07495
338.07484
338.07481
338.07485
338.07498
338.07518
338.07544
338.07545
338.07515
338.07522
338.07498
338.07488
338.07485
338.07491
338.07504
338.07524
338.07551
338.07552
338.07523
338.07532
338.07508
338.07499
338.07498
338.07504
338.07517
338.07538
338.07565
338.07567
338.07535
338.07547
338.07526
338.07518
338.07518
338.07524
338.07538
338.0756
338.07586
338.07587
338.07549
338.07566
338.0755
338.07543
338.07544
338.07551
338.07565
338.07586
338.07612
338.0761
338.07542
338.07559
338.07548
338.07543
338.07545
338.07552
338.07567
338.07587
338.0761
338.07592
345.81387
345.81417
345.81386
345.81372
345.81366
345.81368
345.81378
345.81392
345.81407
345.81401
345.81417
345.81421
345.81393
345.81379
345.81373
345.81376
345.81387
345.81404
345.81426
345.81419
345.81386
345.81393
345.81365
345.81351
345.81346
345.8135
345.81362
345.81382
345.81408
345.81407
345.81372
345.81379
345.81351
345.81338
345.81334
345.81339
345.81352
345.81373
345.81402
345.81403
345.81366
345.81373
345.81346
345.81334
345.81331
345.81337
345.81351
345.81374
345.81403
345.81405
345.81368
345.81376
345.8135
345.81339
345.81337
345.81343
345.81358
345.81381
345.81412
345.81413
345.81378
345.81387
345.81362
345.81352
345.81351
345.81358
345.81374
345.81397
345.81428
345.8143
345.81392
345.81404
345.81382
345.81373
345.81374
345.81381
345.81397
345.81421
345.81451
345.81453
345.81407
345.81426
345.81408
345.81402
345.81403
345.81412
345.81428
345.81451
345.8148
345.81479
345.81401
345.81419
345.81407
345.81403
345.81405
345.81413
345.8143
345.81453
345.81479
345.81459
353.53025
353.53056
353.53023
353.53008
353.53003
353.53005
353.53016
353.53032
353.5305
353.53043
353.53056
353.5306
353.5303
353.53015
353.5301
353.53013
353.53025
353.53045
353.53069
353.53062
353.53023
353.5303
353.53
353.52986
353.52981
353.52985
353.52999
353.53021
353.53051
353.5305
353.53008
353.53015
353.52986
353.52972
353.52968
353.52974
353.52988
353.53012
353.53044
353.53045
353.53003
353.5301
353.52981
353.52968
353.52965
353.52972
353.52988
353.53013
353.53046
353.53048
353.53005
353.53013
353.52985
353.52974
353.52972
353.52979
353.52996
353.53022
353.53055
353.53058
353.53016
353.53025
353.52999
353.52988
353.52988
353.52996
353.53013
353.5304
353.53073
353.53076
353.53032
353.53045
353.53021
353.53012
353.53013
353.53022
353.5304
353.53066
353.531
353.53101
353.5305
353.53069
353.53051
353.53044
353.53046
353.53055
353.53073
353.531
353.53132
353.53131
353.53043
353.53062
353.5305
353.53045
353.53048
353.53058
353.53076
353.53101
353.53131
353.53109
361.22654
361.22686
361.22651
361.22635
361.2263
361.22633
361.22645
361.22663
361.22683
361.22677
361.22686
361.2269
361.22657
361.22642
361.22637
361.22641
361.22654
361.22676
361.22703
361.22696
361.22651
361.22657
361.22626
361.22611
361.22607
361.22612
361.22627
361.22651
361.22683
361.22683
361.22635
361.22642
361.22611
361.22597
361.22593
361.226
361.22616
361.22642
361.22677
361.22679
361.2263
361.22637
361.22607
361.22593
361.22591
361.22598
361.22615
361.22643
361.22679
361.22682
361.22633
361.22641
361.22612
361.226
361.22598
361.22606
361.22625
361.22653
361.2269
361.22693
361.22645
361.22654
361.22627
361.22616
361.22615
361.22625
361.22644
361.22673
361.2271
361.22713
361.22663
361.22676
361.22651
361.22642
361.22643
361.22653
361.22673
361.22702
361.22738
361.22741
361.22683
361.22703
361.22683
361.22677
361.22679
361.2269
361.2271
361.22738
361.22773
361.22773
361.22677
361.22696
361.22683
361.22679
361.22682
361.22693
361.22713
361.22741
361.22773
361.2275
368.9046
368.90491
368.90455
368.90439
368.90433
368.90438
368.90451
368.90471
368.90492
368.90486
368.90491
368.90495
368.90461
368.90445
368.9044
368.90445
368.9046
368.90484
368.90513
368.90506
368.90455
368.90461
368.90428
368.90413
368.90409
368.90415
368.90431
368.90458
368.90493
368.90493
368.90439
368.90445
368.90413
368.90398
368.90395
368.90402
368.9042
368.90448
368.90486
368.90489
368.90433
368.9044
368.90409
368.90395
368.90393
368.90401
368.9042
368.9045
368.90489
368.90492
368.90438
368.90445
368.90415
368.90402
368.90401
368.9041
368.9043
368.90461
368.90501
368.90505
368.90451
368.9046
368.90431
368.9042
368.9042
368.9043
368.90451
368.90482
368.90522
368.90526
368.90471
368.90484
368.90458
368.90448
368.9045
368.90461
368.90482
368.90514
368.90553
368.90556
368.90492
368.90513
368.90493
368.90486
368.90489
368.90501
368.90522
368.90553
368.90591
368.90591
368.90486
368.90506
368.90493
368.90489
368.90492
368.90505
368.90526
368.90556
368.90591
368.90567
376.56605
376.56637
376.56599
376.56583
376.56577
376.56582
376.56596
376.56618
376.56641
376.56636
376.56637
376.5664
376.56605
376.56589
376.56584
376.56589
376.56605
376.56631
376.56662
376.56656
376.56599
376.56605
376.56571
376.56555
376.56551
376.56558
376.56575
376.56604
376.56641
376.56643
376.56583
376.56589
376.56555
376.5654
376.56537
376.56545
376.56564
376.56595
376.56635
376.56638
376.56577
376.56584
376.56551
376.56537
376.56535
376.56544
376.56565
376.56597
376.56638
376.56642
376.56582
376.56589
376.56558
376.56545
376.56544
376.56554
376.56576
376.56609
376.56651
376.56656
376.56596
376.56605
376.56575
376.56564
376.56565
376.56576
376.56598
376.56632
376.56674
376.56679
376.56618
376.56631
376.56604
376.56595
376.56597
376.56609
376.56632
376.56665
376.56707
376.56711
376.56641
376.56662
376.56641
376.56635
376.56638
376.56651
376.56674
376.56707
376.56748
376.56749
376.56636
376.56656
376.56643
376.56638
376.56642
376.56656
376.56679
376.56711
376.56749
376.56724
384.21231
384.21263
384.21225
384.21208
384.21203
384.21208
384.21223
384.21247
384.21271
384.21266
384.21263
384.21266
384.2123
384.21214
384.21209
384.21215
384.21232
384.21259
384.21293
384.21287
384.21225
384.2123
384.21195
384.21179
384.21175
384.21183
384.21201
384.21232
384.21272
384.21274
384.21208
384.21214
384.21179
384.21164
384.21161
384.2117
384.2119
384.21223
384.21265
384.21269
384.21203
384.21209
384.21175
384.21161
384.21159
384.21169
384.21191
384.21225
384.21269
384.21274
384.21208
384.21215
384.21183
384.2117
384.21169
384.2118
384.21203
384.21238
384.21283
384.21288
384.21223
384.21232
384.21201
384.2119
384.21191
384.21203
384.21227
384.21262
384.21307
384.21313
384.21247
384.21259
384.21232
384.21223
384.21225
384.21238
384.21262
384.21298
384.21342
384.21347
384.21271
384.21293
384.21272
384.21265
384.21269
384.21283
384.21307
384.21342
384.21385
384.21387
384.21266
384.21287
384.21274
384.21269
384.21274
384.21288
384.21313
384.21347
384.21387
384.21362
391.84459
391.84491
391.84452
391.84434
391.84429
391.84436
391.84452
391.84477
391.84503
391.84499
391.84491
391.84494
391.84457
391.8444
391.84435
391.84442
391.8446
391.84489
391.84524
391.84519
391.84452
391.84457
391.84421
391.84405
391.84401
391.84409
391.84429
391.84461
391.84503
391.84506
391.84434
391.8444
391.84405
391.84389
391.84387
391.84396
391.84418
391.84452
391.84496
391.84501
391.84429
391.84435
391.84401
391.84387
391.84385
391.84396
391.84419
391.84455
391.84501
391.84507
391.84436
391.84442
391.84409
391.84396
391.84396
391.84408
391.84432
391.84469
391.84515
391.84522
391.84452
391.8446
391.84429
391.84418
391.84419
391.84432
391.84457
391.84494
391.84541
391.84548
391.84477
391.84489
391.84461
391.84452
391.84455
391.84469
391.84494
391.84531
391.84578
391.84584
391.84503
391.84524
391.84503
391.84496
391.84501
391.84515
391.84541
391.84578
391.84623
391.84626
391.84499
391.84519
391.84506
391.84501
391.84507
391.84522
391.84548
391.84584
391.84626
391.84601
399.46387
399.46418
399.46378
399.46361
399.46356
399.46363
399.4638
399.46406
399.46434
399.4643
399.46418
399.4642
399.46383
399.46366
399.46362
399.46369
399.46388
399.46418
399.46455
399.46451
399.46378
399.46383
399.46346
399.4633
399.46327
399.46336
399.46357
399.4639
399.46433
399.46437
399.46361
399.46366
399.4633
399.46315
399.46312
399.46323
399.46345
399.46381
399.46427
399.46433
399.46356
399.46362
399.46327
399.46312
399.46311
399.46323
399.46347
399.46384
399.46432
399.46439
399.46363
399.46369
399.46336
399.46323
399.46323
399.46336
399.46361
399.46399
399.46448
399.46455
399.4638
399.46388
399.46357
399.46345
399.46347
399.46361
399.46387
399.46426
399.46475
399.46482
399.46406
399.46418
399.4639
399.46381
399.46384
399.46399
399.46426
399.46464
399.46513
399.4652
399.46434
399.46455
399.46433
399.46427
399.46432
399.46448
399.46475
399.46513
399.4656
399.46563
399.4643
399.46451
399.46437
399.46433
399.46439
399.46455
399.46482
399.4652
399.46563
399.46538
407.07092
407.07122
407.07082
407.07064
407.0706
407.07067
407.07086
407.07112
407.07141
407.07138
407.07122
407.07123
407.07086
407.07069
407.07065
407.07073
407.07093
407.07124
407.07163
407.07159
407.07082
407.07086
407.07049
407.07033
407.0703
407.07039
407.07061
407.07096
407.07141
407.07145
407.07064
407.07069
407.07033
407.07017
407.07015
407.07026
407.0705
407.07087
407.07134
407.07141
407.0706
407.07065
407.0703
407.07015
407.07015
407.07027
407.07052
407.0709
407.0714
407.07148
407.07067
407.07073
407.07039
407.07026
407.07027
407.0704
407.07067
407.07106
407.07156
407.07165
407.07086
407.07093
407.07061
407.0705
407.07052
407.07067
407.07094
407.07134
407.07184
407.07193
407.07112
407.07124
407.07096
407.07087
407.0709
407.07106
407.07134
407.07174
407.07224
407.07232
407.07141
407.07163
407.07141
407.07134
407.0714
407.07156
407.07184
407.07224
407.07272
407.07276
407.07138
407.07159
407.07145
407.07141
407.07148
407.07165
407.07193
407.07232
407.07276
407.07252
414.66629
414.66659
414.66619
414.66601
414.66597
414.66605
414.66624
414.66652
414.66682
414.66679
414.66659
414.6666
414.66622
414.66605
414.66602
414.6661
414.66631
414.66663
414.66703
414.667
414.66619
414.66622
414.66585
414.66569
414.66567
414.66577
414.66599
414.66635
414.66681
414.66686
414.66601
414.66605
414.66569
414.66554
414.66553
414.66564
414.66588
414.66626
414.66675
414.66683
414.66597
414.66602
414.66567
414.66553
414.66552
414.66565
414.66591
414.6663
414.66681
414.66689
414.66605
414.6661
414.66577
414.66564
414.66565
414.66579
414.66606
414.66646
414.66698
414.66707
414.66624
414.66631
414.66599
414.66588
414.66591
414.66606
414.66634
414.66675
414.66727
414.66736
414.66652
414.66663
414.66635
414.66626
414.6663
414.66646
414.66675
414.66716
414.66767
414.66776
414.66682
414.66703
414.66681
414.66675
414.66681
414.66698
414.66727
414.66767
414.66817
414.66822
414.66679
414.667
414.66686
414.66683
414.66689
414.66707
414.66736
414.66776
414.66822
414.66797
422.25037
422.25066
422.25026
422.25009
422.25005
422.25013
422.25033
422.25062
422.25092
422.2509
422.25066
422.25066
422.25029
422.25012
422.25009
422.25018
422.25039
422.25072
422.25113
422.2511
422.25026
422.25029
422.24992
422.24976
422.24974
422.24984
422.25008
422.25044
422.25091
422.25097
422.25009
422.25012
422.24976
422.24961
422.2496
422.24972
422.24997
422.25035
422.25085
422.25094
422.25005
422.25009
422.24974
422.2496
422.2496
422.24973
422.25
422.2504
422.25091
422.25101
422.25013
422.25018
422.24984
422.24972
422.24973
422.24988
422.25016
422.25057
422.25109
422.25119
422.25033
422.25039
422.25008
422.24997
422.25
422.25016
422.25044
422.25086
422.25139
422.25149
422.25062
422.25072
422.25044
422.25035
422.2504
422.25057
422.25086
422.25128
422.2518
422.25189
422.25092
422.25113
422.25091
422.25085
422.25091
422.25109
422.25139
422.2518
422.25231
422.25236
422.2509
422.2511
422.25097
422.25094
422.25101
422.25119
422.25149
422.25189
422.25236
422.25212
429.82333
429.8236
429.8232
429.82304
429.823
429.82309
429.82329
429.82358
429.82389
429.82388
429.8236
429.8236
429.82322
429.82306
429.82303
429.82313
429.82335
429.82368
429.82409
429.82408
429.8232
429.82322
429.82286
429.82271
429.82269
429.8228
429.82304
429.8234
429.82388
429.82395
429.82304
429.82306
429.82271
429.82256
429.82256
429.82268
429.82293
429.82332
429.82383
429.82392
429.823
429.82303
429.82269
429.82256
429.82256
429.8227
429.82297
429.82337
429.82389
429.82399
429.82309
429.82313
429.8228
429.82268
429.8227
429.82285
429.82313
429.82354
429.82407
429.82418
429.82329
429.82335
429.82304
429.82293
429.82297
429.82313
429.82342
429.82384
429.82437
429.82448
429.82358
429.82368
429.8234
429.82332
429.82337
429.82354
429.82384
429.82426
429.82479
429.82489
429.82389
429.82409
429.82388
429.82383
429.82389
429.82407
429.82437
429.82479
429.82531
429.82537
429.82388
429.82408
429.82395
429.82392
429.82399
429.82418
429.82448
429.82489
429.82537
429.82514
437.38514
437.3854
437.38501
437.38485
437.38482
437.38491
437.38511
437.38541
437.38573
437.38572
437.3854
437.38539
437.38503
437.38487
437.38484
437.38495
437.38517
437.3855
437.38592
437.38591
437.38501
437.38503
437.38467
437.38452
437.38451
437.38462
437.38486
437.38523
437.38571
437.38578
437.38485
437.38487
437.38452
437.38438
437.38438
437.3845
437.38476
437.38515
437.38566
437.38576
437.38482
437.38484
437.38451
437.38438
437.38439
437.38453
437.3848
437.3852
437.38573
437.38584
437.38491
437.38495
437.38462
437.3845
437.38453
437.38468
437.38496
437.38538
437.38591
437.38603
437.38511
437.38517
437.38486
437.38476
437.3848
437.38496
437.38525
437.38568
437.38621
437.38633
437.38541
437.3855
437.38523
437.38515
437.3852
437.38538
437.38568
437.3861
437.38664
437.38674
437.38573
437.38592
437.38571
437.38566
437.38573
437.38591
437.38621
437.38664
437.38715
437.38722
437.38572
437.38591
437.38578
437.38576
437.38584
437.38603
437.38633
437.38674
437.38722
437.387
444.93563
444.93588
444.93549
444.93534
444.93531
444.9354
444.93561
444.93591
444.93623
444.93623
444.93588
444.93586
444.9355
444.93535
444.93533
444.93543
444.93566
444.936
444.93641
444.93641
444.93549
444.9355
444.93516
444.93501
444.935
444.93512
444.93536
444.93573
444.93621
444.93629
444.93534
444.93535
444.93501
444.93488
444.93488
444.93501
444.93527
444.93566
444.93616
444.93627
444.93531
444.93533
444.935
444.93488
444.93489
444.93503
444.93531
444.93571
444.93623
444.93635
444.9354
444.93543
444.93512
444.93501
444.93503
444.93519
444.93547
444.93589
444.93642
444.93654
444.93561
444.93566
444.93536
444.93527
444.93531
444.93547
444.93577
444.93619
444.93672
444.93684
444.93591
444.936
444.93573
444.93566
444.93571
444.93589
444.93619
444.93661
444.93714
444.93726
444.93623
444.93641
444.93621
444.93616
444.93623
444.93642
444.93672
444.93714
444.93766
444.93774
444.93623
444.93641
444.93629
444.93627
444.93635
444.93654
444.93684
444.93726
444.93774
444.93752
452.47443
452.47467
452.4743
452.47414
452.47412
452.47422
452.47443
452.47472
452.47504
452.47505
452.47467
452.47465
452.4743
452.47415
452.47414
452.47424
452.47447
452.4748
452.47522
452.47522
452.4743
452.4743
452.47396
452.47383
452.47382
452.47394
452.47418
452.47455
452.47502
452.47511
452.47414
452.47415
452.47383
452.4737
452.4737
452.47383
452.47409
452.47448
452.47498
452.47509
452.47412
452.47414
452.47382
452.4737
452.47372
452.47386
452.47413
452.47454
452.47505
452.47517
452.47422
452.47424
452.47394
452.47383
452.47386
452.47402
452.4743
452.47471
452.47524
452.47536
452.47443
452.47447
452.47418
452.47409
452.47413
452.4743
452.47459
452.47501
452.47554
452.47567
452.47472
452.4748
452.47455
452.47448
452.47454
452.47471
452.47501
452.47543
452.47596
452.47608
452.47504
452.47522
452.47502
452.47498
452.47505
452.47524
452.47554
452.47596
452.47647
452.47656
452.47505
452.47522
452.47511
452.47509
452.47517
452.47536
452.47567
452.47608
452.47656
452.47635
460.00104
460.00126
460.0009
460.00076
460.00074
460.00084
460.00105
460.00134
460.00166
460.00168
460.00126
460.00124
460.0009
460.00077
460.00075
460.00086
460.00108
460.00142
460.00182
460.00184
460.0009
460.0009
460.00058
460.00045
460.00045
460.00057
460.00081
460.00117
460.00164
460.00173
460.00076
460.00077
460.00045
460.00033
460.00034
460.00047
460.00072
460.00111
460.0016
460.00172
460.00074
460.00075
460.00045
460.00034
460.00036
460.0005
460.00077
460.00117
460.00168
460.0018
460.00084
460.00086
460.00057
460.00047
460.0005
460.00066
460.00094
460.00134
460.00186
460.00199
460.00105
460.00108
460.00081
460.00072
460.00077
460.00094
460.00123
460.00164
460.00216
460.00229
460.00134
460.00142
460.00117
460.00111
460.00117
460.00134
460.00164
460.00206
460.00257
460.0027
460.00166
460.00182
460.00164
460.0016
460.00168
460.00186
460.00216
460.00257
460.00308
460.00317
460.00168
460.00184
460.00173
460.00172
460.0018
460.00199
460.00229
460.0027
460.00317
460.00297
467.5148
467.515
467.51466
467.51453
467.51451
467.51461
467.51482
467.51511
467.51542
467.51544
467.515
467.51498
467.51466
467.51453
467.51452
467.51463
467.51485
467.51517
467.51558
467.5156
467.51466
467.51466
467.51435
467.51423
467.51423
467.51435
467.51458
467.51494
467.5154
467.51549
467.51453
467.51453
467.51423
467.51411
467.51412
467.51426
467.51451
467.51488
467.51537
467.51548
467.51451
467.51452
467.51423
467.51412
467.51415
467.51429
467.51456
467.51495
467.51544
467.51557
467.51461
467.51463
467.51435
467.51426
467.51429
467.51444
467.51472
467.51512
467.51563
467.51576
467.51482
467.51485
467.51458
467.51451
467.51456
467.51472
467.51501
467.51541
467.51592
467.51605
467.51511
467.51517
467.51494
467.51488
467.51495
467.51512
467.51541
467.51582
467.51632
467.51645
467.51542
467.51558
467.5154
467.51537
467.51544
467.51563
467.51592
467.51632
467.51682
467.51691
467.51544
467.5156
467.51549
467.51548
467.51557
467.51576
467.51605
467.51645
467.51691
467.51673
475.01491
475.01509
475.01477
475.01465
475.01464
475.01474
475.01494
475.01522
475.01553
475.01556
475.01509
475.01507
475.01477
475.01464
475.01464
475.01475
475.01496
475.01528
475.01567
475.0157
475.01477
475.01477
475.01448
475.01436
475.01437
475.01448
475.01472
475.01506
475.01551
475.01561
475.01465
475.01464
475.01436
475.01426
475.01427
475.0144
475.01465
475.01501
475.01548
475.0156
475.01464
475.01464
475.01437
475.01427
475.0143
475.01444
475.0147
475.01508
475.01556
475.01568
475.01474
475.01475
475.01448
475.0144
475.01444
475.01459
475.01486
475.01525
475.01574
475.01587
475.01494
475.01496
475.01472
475.01465
475.0147
475.01486
475.01514
475.01553
475.01603
475.01616
475.01522
475.01528
475.01506
475.01501
475.01508
475.01525
475.01553
475.01593
475.01642
475.01654
475.01553
475.01567
475.01551
475.01548
475.01556
475.01574
475.01603
475.01642
475.0169
475.01699
475.01556
475.0157
475.01561
475.0156
475.01568
475.01587
475.01616
475.01654
475.01699
475.01682
482.50046
482.50062
482.50032
482.50021
482.5002
482.5003
482.5005
482.50077
482.50107
482.5011
482.50062
482.50059
482.50031
482.5002
482.5002
482.50031
482.50052
482.50083
482.5012
482.50123
482.50032
482.50031
482.50004
482.49993
482.49994
482.50006
482.50029
482.50062
482.50105
482.50115
482.50021
482.5002
482.49993
482.49984
482.49986
482.49998
482.50022
482.50058
482.50103
482.50115
482.5002
482.5002
482.49994
482.49986
482.49988
482.50002
482.50028
482.50064
482.50111
482.50123
482.5003
482.50031
482.50006
482.49998
482.50002
482.50017
482.50043
482.50081
482.50128
482.50141
482.5005
482.50052
482.50029
482.50022
482.50028
482.50043
482.5007
482.50108
482.50156
482.50169
482.50077
482.50083
482.50062
482.50058
482.50064
482.50081
482.50108
482.50146
482.50194
482.50206
482.50107
482.5012
482.50105
482.50103
482.50111
482.50128
482.50156
482.50194
482.5024
482.5025
482.5011
482.50123
482.50115
482.50115
482.50123
482.50141
482.50169
482.50206
482.5025
482.50234
489.97041
489.97056
489.97028
489.97017
489.97017
489.97027
489.97046
489.97072
489.97101
489.97105
489.97056
489.97052
489.97026
489.97016
489.97017
489.97027
489.97048
489.97077
489.97113
489.97117
489.97028
489.97026
489.97001
489.96992
489.96993
489.97005
489.97026
489.97058
489.971
489.97109
489.97017
489.97016
489.96992
489.96983
489.96985
489.96998
489.97021
489.97054
489.97098
489.97109
489.97017
489.97017
489.96993
489.96985
489.96988
489.97002
489.97026
489.97061
489.97105
489.97118
489.97027
489.97027
489.97005
489.96998
489.97002
489.97016
489.97041
489.97077
489.97122
489.97135
489.97046
489.97048
489.97026
489.97021
489.97026
489.97041
489.97067
489.97103
489.97149
489.97162
489.97072
489.97077
489.97058
489.97054
489.97061
489.97077
489.97103
489.9714
489.97185
489.97197
489.97101
489.97113
489.971
489.97098
489.97105
489.97122
489.97149
489.97185
489.97229
489.97239
489.97105
489.97117
489.97109
489.97109
489.97118
489.97135
489.97162
489.97197
489.97239
489.97224
497.42363
497.42376
497.42351
497.42341
497.42342
497.42351
497.4237
497.42395
497.42422
497.42426
497.42376
497.42373
497.42349
497.4234
497.42341
497.42352
497.42371
497.42399
497.42433
497.42437
497.42351
497.42349
497.42326
497.42318
497.4232
497.42331
497.42351
497.42382
497.42421
497.4243
497.42341
497.4234
497.42318
497.4231
497.42313
497.42325
497.42347
497.42379
497.4242
497.42431
497.42342
497.42341
497.4232