/*--------------------------------*- C++ -*----------------------------------*\
| =========                 |                                                 |
| \\      /  F ield         | OpenFOAM: The Open Source CFD Toolbox           |
|  \\    /   O peration     | Version:  v2106                                 |
|   \\  /    A nd           | Website:  www.openfoam.com                      |
|    \\/     M anipulation  |                                                 |
\*---------------------------------------------------------------------------*/
FoamFile
{
    version     2.0;
    format      ascii;
    arch        "LSB;label=32;scalar=64";
    class       volScalarField;
    location    "17.5";
    object      laplacianT;
}
// * * * * * * * * * * * * * * * * * * * * * * * * * * * * * * * * * * * * * //

dimensions      [0 -2 0 1 0 0 0];

internalField   nonuniform List<scalar> 
4000
(
22695.359
22696.738
22695.668
22696.142
22696.094
22696.011
22695.939
22695.861
22695.773
22695.736
22696.738
22695.724
22695.843
22696.199
22696.127
22696.044
22695.973
22695.885
22695.777
22695.792
22695.668
22695.843
22695.645
22695.945
22695.871
22695.795
22695.731
22695.636
22695.489
22695.598
22696.142
22696.199
22695.945
22696.238
22696.168
22696.101
22696.051
22695.968
22695.804
22695.826
22696.094
22696.127
22695.871
22696.168
22696.104
22696.045
22696.007
22695.94
22695.794
22695.827
22696.011
22696.044
22695.795
22696.101
22696.045
22695.994
22695.964
22695.905
22695.767
22695.808
22695.939
22695.973
22695.731
22696.051
22696.007
22695.964
22695.938
22695.882
22695.745
22695.786
22695.861
22695.885
22695.636
22695.968
22695.94
22695.905
22695.882
22695.824
22695.683
22695.719
22695.773
22695.777
22695.489
22695.804
22695.794
22695.767
22695.745
22695.683
22695.534
22695.565
22695.736
22695.792
22695.598
22695.826
22695.827
22695.808
22695.786
22695.719
22695.565
22695.612
146.73909
150.61372
145.65569
147.26477
147.49021
147.48677
147.46936
147.44076
147.39989
147.39377
150.61372
147.94605
146.55377
147.9313
148.08353
148.06058
148.01996
147.98405
148.15218
148.15685
145.65569
146.55377
144.5422
145.80193
145.94141
145.9134
145.84427
145.72383
145.91363
146.78511
147.26477
147.9313
145.80193
147.04427
147.18318
147.15652
147.07969
146.89888
146.88504
147.33366
147.49021
148.08353
145.94141
147.18318
147.32343
147.29899
147.22653
147.04996
147.0314
147.43172
147.48677
148.06058
145.9134
147.15652
147.29899
147.27579
147.20528
147.03285
147.02071
147.42363
147.46936
148.01996
145.84427
147.07969
147.22653
147.20528
147.1349
146.96266
146.95147
147.35869
147.44076
147.98405
145.72383
146.89888
147.04996
147.03285
146.96266
146.78937
146.77752
147.19832
147.39989
148.15218
145.91363
146.88504
147.0314
147.02071
146.95147
146.77752
146.76944
147.24289
147.39377
148.15685
146.78511
147.33366
147.43172
147.42363
147.35869
147.19832
147.24289
147.84517
390.46804
394.97682
388.91806
391.16858
391.47963
391.46759
391.42505
391.3701
391.42622
390.75779
394.97682
391.26392
389.68312
391.61086
391.82302
391.77359
391.66331
391.56279
392.39185
392.30276
388.91806
389.68312
387.29606
389.07119
389.26737
389.21033
389.04182
388.72651
389.45739
390.53805
391.16858
391.61086
389.07119
390.82371
391.01983
390.96658
390.7887
390.37488
390.78635
391.2372
391.47963
391.82302
389.26737
391.01983
391.21818
391.16898
390.99924
390.59218
390.99472
391.36227
391.46759
391.77359
389.21033
390.96658
391.16898
391.12182
390.95524
390.55441
390.96622
391.33393
391.42505
391.66331
389.04182
390.7887
390.99924
390.95524
390.78868
390.3876
390.80013
391.17829
391.3701
391.56279
388.72651
390.37488
390.59218
390.55441
390.3876
389.98423
390.39732
390.83277
391.42622
392.39185
389.45739
390.78635
390.99472
390.96622
390.80013
390.39732
390.83371
391.51722
390.75779
392.30276
390.53805
391.2372
391.36227
391.33393
391.17829
390.83277
391.51722
391.70629
625.23081
630.71781
623.42538
626.23762
626.6271
626.6037
626.52166
626.42476
626.83139
625.92875
630.71781
626.36233
624.43004
626.84467
627.11254
627.03298
626.82146
626.55206
628.15097
628.02716
623.42538
624.43004
621.52771
623.75862
624.00811
623.92101
623.63033
623.03688
624.48302
625.88644
626.23762
626.84467
623.75862
625.96207
626.21193
626.13118
625.82982
625.09996
626.12078
626.72336
626.6271
627.11254
624.00811
626.21193
626.46478
626.38974
626.09984
625.37781
626.38391
626.87283
626.6037
627.03298
623.92101
626.13118
626.38974
626.31749
626.03181
625.31743
626.33426
626.81951
626.52166
626.82146
623.63033
625.82982
626.09984
626.03181
625.74574
625.02979
626.04545
626.54642
626.42476
626.55206
623.03688
625.09996
625.37781
625.31743
625.02979
624.3088
625.32674
625.95778
626.83139
628.15097
624.48302
626.12078
626.38391
626.33426
626.04545
625.32674
626.41885
627.76946
625.92875
628.02716
625.88644
626.72336
626.87283
626.81951
626.54642
625.95778
627.76946
627.05863
850.56688
856.95124
848.42993
851.77409
852.23813
852.20132
852.06495
851.86577
852.53193
851.42198
856.95124
851.95363
849.6475
852.5241
852.84554
852.73612
852.41295
851.91761
854.21214
854.02038
848.42993
849.6475
846.21548
848.87878
849.17968
849.06327
848.64166
847.71745
849.8253
851.51461
851.77409
852.5241
848.87878
851.50996
851.81162
851.70404
851.2702
850.17127
851.75268
852.48249
852.23813
852.84554
849.17968
851.81162
852.11698
852.01672
851.59743
850.50666
852.06705
852.65528
852.20132
852.73612
849.06327
851.70404
852.01672
851.91999
851.50589
850.42373
851.99535
852.57502
852.06495
852.41295
848.64166
851.2702
851.59743
851.50589
851.09069
850.0046
851.5705
852.16717
851.86577
851.91761
847.71745
850.17127
850.50666
850.42373
850.0046
848.9074
850.47018
851.27387
852.53193
854.21214
849.8253
851.75268
852.06705
851.99535
851.5705
850.47018
852.15447
854.30984
851.42198
854.02038
851.51461
852.48249
852.65528
852.57502
852.16717
851.27387
854.30984
852.65238
1064.9602
1072.1771
1062.4851
1066.3393
1066.8751
1066.8255
1066.6343
1066.322
1067.2161
1065.9074
1072.1771
1066.5622
1063.9003
1067.2197
1067.5929
1067.4554
1067.022
1066.2912
1069.2445
1068.9835
1062.4851
1063.9003
1059.9631
1063.0408
1063.3915
1063.2475
1062.6968
1061.4344
1064.1713
1066.1304
1066.3393
1067.2197
1063.0408
1066.0821
1066.4338
1066.3011
1065.7366
1064.2615
1066.3748
1067.2231
1066.8751
1067.5929
1063.3915
1066.4338
1066.79
1066.6662
1066.1192
1064.6523
1066.7383
1067.4185
1066.8255
1067.4554
1063.2475
1066.3011
1066.6662
1066.5466
1066.0058
1064.5483
1066.6457
1067.3119
1066.6343
1067.022
1062.6968
1065.7366
1066.1192
1066.0058
1065.463
1063.9989
1066.0847
1066.7664
1066.322
1066.2912
1061.4344
1064.2615
1064.6523
1064.5483
1063.9989
1062.516
1064.5889
1065.5506
1067.2161
1069.2445
1064.1713
1066.3748
1066.7383
1066.6457
1066.0847
1064.5889
1066.8223
1069.805
1065.9074
1068.9835
1066.1304
1067.2231
1067.4185
1067.3119
1066.7664
1065.5506
1069.805
1067.22
1267.0928
1275.0923
1264.3027
1268.6437
1269.2481
1269.1866
1268.942
1268.5161
1269.6233
1268.1237
1275.0923
1268.9051
1265.9139
1269.6558
1270.0786
1269.9142
1269.3733
1268.4078
1271.988
1271.6579
1264.3027
1265.9139
1261.505
1264.9784
1265.3766
1265.2064
1264.5301
1262.9329
1266.2677
1268.4786
1268.6437
1269.6558
1264.9784
1268.4109
1268.8107
1268.6541
1267.9625
1266.1159
1268.7338
1269.6897
1269.2481
1270.0786
1265.3766
1268.8107
1269.2155
1269.0694
1268.3982
1266.5597
1269.1443
1269.9067
1269.1866
1269.9142
1265.2064
1268.6541
1269.0694
1268.9283
1268.2642
1266.4359
1269.0318
1269.7747
1268.942
1269.3733
1264.5301
1267.9625
1268.3982
1268.2642
1267.5974
1265.7597
1268.3379
1269.0933
1268.5161
1268.4078
1262.9329
1266.1159
1266.5597
1266.4359
1265.7597
1263.895
1266.4487
1267.5537
1269.6233
1271.988
1266.2677
1268.7338
1269.1443
1269.0318
1268.3379
1266.4487
1269.1976
1272.9917
1268.1237
1271.6579
1268.4786
1269.6897
1269.9067
1269.7747
1269.0933
1267.5537
1272.9917
1269.5064
1455.7423
1464.4729
1452.6664
1457.4684
1458.1377
1458.0646
1457.7681
1457.2299
1458.5369
1456.8532
1464.4729
1457.7648
1454.4735
1458.6153
1459.0849
1458.8946
1458.2492
1457.052
1461.2249
1460.8236
1452.6664
1454.4735
1449.63
1453.4779
1453.9212
1453.7258
1452.9278
1451.0027
1454.9012
1457.3418
1457.4684
1458.6153
1453.4779
1457.2809
1457.7261
1457.5467
1456.732
1454.5224
1457.6153
1458.6641
1458.1377
1459.0849
1453.9212
1457.7261
1458.177
1458.0095
1457.2181
1455.0166
1458.0703
1458.9015
1458.0646
1458.8946
1453.7258
1457.5467
1458.0095
1457.8479
1457.0644
1454.8738
1457.9389
1458.7452
1457.7681
1458.2492
1452.9278
1456.732
1457.2181
1457.0644
1456.2776
1454.0747
1457.116
1457.9311
1457.2299
1457.052
1451.0027
1454.5224
1455.0166
1454.8738
1454.0747
1451.8367
1454.8413
1456.0726
1458.5369
1461.2249
1454.9012
1457.6153
1458.0703
1457.9389
1457.116
1454.8413
1458.0726
1462.6473
1456.8532
1460.8236
1457.3418
1458.6641
1458.9015
1458.7452
1457.9311
1456.0726
1462.6473
1458.2915
1629.7452
1639.1515
1626.4152
1631.6494
1632.3794
1632.2951
1631.9481
1631.2995
1632.7925
1630.9318
1639.1515
1631.9777
1628.4173
1632.9337
1633.447
1633.2318
1632.4853
1631.0612
1635.7894
1635.3141
1626.4152
1628.4173
1623.1791
1627.3778
1627.8633
1627.6439
1626.7287
1624.4849
1628.9099
1631.5553
1631.6494
1632.9337
1627.3778
1631.5281
1632.0159
1631.8147
1630.8815
1628.3199
1631.8556
1632.981
1632.3794
1633.447
1627.8633
1632.0159
1632.51
1632.3222
1631.415
1628.8614
1632.3526
1633.2376
1632.2951
1633.2318
1627.6439
1631.8147
1632.3222
1632.1409
1631.2425
1628.7005
1632.203
1633.0577
1631.9481
1632.4853
1626.7287
1630.8815
1631.415
1631.2425
1630.3401
1627.7831
1631.2556
1632.1153
1631.2995
1631.0612
1624.4849
1628.3199
1628.8614
1628.7005
1627.7831
1625.1829
1628.6063
1629.9457
1632.7925
1635.7894
1628.9099
1631.8556
1632.3526
1632.203
1631.2556
1628.6063
1632.2857
1637.6027
1630.9318
1635.3141
1631.5553
1632.981
1633.2376
1633.0577
1632.1153
1629.9457
1637.6027
1632.4098
1788.0106
1798.0335
1784.4603
1790.0951
1790.8813
1790.786
1790.3904
1789.6338
1791.298
1789.2682
1798.0335
1790.4524
1786.6554
1791.5188
1792.0725
1791.8335
1790.9898
1789.3448
1794.5877
1794.0357
1784.4603
1786.6554
1781.0646
1785.5885
1786.1131
1785.8709
1784.8433
1782.292
1787.2032
1790.0271
1790.0951
1791.5188
1785.5885
1790.0605
1790.5878
1790.3659
1789.3195
1786.4192
1790.363
1791.5478
1790.8813
1792.0725
1786.1131
1790.5878
1791.1219
1790.9148
1789.897
1787.0046
1790.8989
1791.822
1790.786
1791.8335
1785.8709
1790.3659
1790.9148
1790.7149
1789.7067
1786.8265
1790.732
1791.6197
1790.3904
1790.9898
1784.8433
1789.3195
1789.897
1789.7067
1788.6939
1785.7961
1789.6655
1790.5539
1789.6338
1789.3448
1782.292
1786.4192
1787.0046
1786.8265
1785.7961
1782.847
1786.6548
1788.0832
1791.298
1794.5877
1787.2032
1790.363
1790.8989
1790.732
1789.6655
1786.6548
1790.7457
1796.7615
1789.2682
1794.0357
1790.0271
1791.5478
1791.822
1791.6197
1790.5539
1788.0832
1796.7615
1790.769
1929.5398
1940.1164
1925.8045
1931.8055
1932.6429
1932.5371
1932.0949
1931.2337
1933.0531
1930.8632
1940.1164
1932.1894
1928.1896
1933.3699
1933.9605
1933.6989
1932.7624
1930.904
1936.6179
1935.9865
1925.8045
1928.1896
1922.2905
1927.1115
1927.6718
1927.4081
1926.2741
1923.4283
1928.7826
1931.7571
1931.8055
1933.3699
1927.1115
1931.8776
1932.4409
1932.1998
1931.0461
1927.8223
1932.1373
1933.3637
1932.6429
1933.9605
1927.6718
1932.4409
1933.0117
1932.7866
1931.6639
1928.4481
1932.7087
1933.6538
1932.5371
1933.6989
1927.4081
1932.1998
1932.7866
1932.5692
1931.457
1928.2539
1932.5256
1933.4302
1932.0949
1932.7624
1926.2741
1931.0461
1931.6639
1931.457
1930.3395
1927.1162
1931.346
1932.2469
1931.2337
1930.904
1923.4283
1927.8223
1928.4481
1928.2539
1927.1162
1923.8338
1927.9896
1929.4871
1933.0531
1936.6179
1928.7826
1932.1373
1932.7087
1932.5256
1931.346
1927.9896
1932.4528
1939.1195
1930.8632
1935.9865
1931.7571
1933.3637
1933.6538
1933.4302
1932.2469
1929.4871
1939.1195
1932.3693
2053.4441
2064.5087
2049.5609
2055.8912
2056.7746
2056.6588
2056.1723
2055.2102
2057.1681
2054.8278
2064.5087
2056.2997
2052.1317
2057.5968
2058.2204
2057.9377
2056.9135
2054.8505
2060.9886
2060.2756
2049.5609
2052.1317
2045.9703
2051.0585
2051.6509
2051.3672
2050.1332
2047.0079
2052.7594
2055.8554
2055.8912
2057.5968
2051.0585
2056.0889
2056.6847
2056.4256
2055.1714
2051.6416
2056.2884
2057.5381
2056.7746
2058.2204
2051.6509
2056.6847
2057.2885
2057.0466
2055.8257
2052.3038
2056.892
2057.8425
2056.6588
2057.9377
2051.3672
2056.4256
2057.0466
2056.813
2055.6033
2052.0946
2056.6937
2057.5989
2056.1723
2056.9135
2050.1332
2055.1714
2055.8257
2055.6033
2054.3876
2050.8562
2055.4076
2056.3046
2055.2102
2054.8505
2047.0079
2051.6416
2052.3038
2052.0946
2050.8562
2047.2582
2051.7233
2053.2695
2057.1681
2060.9886
2052.7594
2056.2884
2056.892
2056.6937
2055.4076
2051.7233
2056.5177
2063.7829
2054.8278
2060.2756
2055.8554
2057.5381
2057.8425
2057.5989
2056.3046
2053.2695
2063.7829
2056.3215
2158.9633
2170.4472
2154.9702
2161.5906
2162.5144
2162.3892
2161.8609
2160.8024
2162.8812
2160.4012
2170.4472
2162.0221
2157.7214
2163.437
2164.0896
2163.7873
2162.6811
2160.4235
2166.9367
2166.14
2154.9702
2157.7214
2151.3449
2156.6684
2157.2891
2156.9871
2155.6602
2152.2721
2158.3726
2161.5604
2161.5906
2163.437
2156.6684
2161.9317
2162.5561
2162.2806
2160.9331
2157.1168
2162.0542
2163.3088
2162.5144
2164.0896
2157.2891
2162.5561
2163.1889
2162.9318
2161.6197
2157.8113
2162.6863
2163.6257
2162.3892
2163.7873
2156.9871
2162.2806
2162.9318
2162.6834
2161.3831
2157.5883
2162.474
2163.3635
2161.8609
2162.6811
2155.6602
2160.9331
2161.6197
2161.3831
2160.0763
2156.2564
2161.0888
2161.9654
2160.8024
2160.4235
2152.2721
2157.1168
2157.8113
2157.5883
2156.2564
2152.3625
2157.0966
2158.6708
2162.8812
2166.9367
2158.3726
2162.0542
2162.6863
2162.474
2161.0888
2157.0966
2162.179
2169.9866
2160.4012
2166.14
2161.5604
2163.3088
2163.6257
2163.3635
2161.9654
2158.6708
2169.9866
2161.8645
2245.4808
2257.3134
2241.4169
2248.286
2249.2443
2249.1102
2248.5431
2247.3934
2249.5747
2246.9665
2257.3134
2248.7395
2244.3417
2250.2718
2250.9491
2250.6289
2249.447
2247.0063
2253.8429
2252.9609
2241.4169
2244.3417
2237.7985
2243.3237
2243.9686
2243.6501
2242.238
2238.6058
2245.0051
2248.254
2248.286
2250.2718
2243.3237
2248.7866
2249.4356
2249.1453
2247.7126
2243.6311
2248.8163
2250.0574
2249.2443
2250.9491
2243.9686
2249.4356
2250.0933
2249.8224
2248.427
2244.3535
2249.473
2250.3847
2249.1102
2250.6289
2243.6501
2249.1453
2249.8224
2249.5607
2248.1777
2244.1181
2249.2479
2250.1055
2248.5431
2249.447
2242.238
2247.7126
2248.427
2248.1777
2246.7875
2242.7005
2247.7718
2248.6117
2247.3934
2247.0063
2238.6058
2243.6311
2244.3535
2244.1181
2242.7005
2238.5326
2243.4938
2245.0749
2249.5747
2253.8429
2245.0051
2248.8163
2249.473
2249.2479
2247.7718
2243.4938
2248.8194
2257.1098
2246.9665
2252.9609
2248.254
2250.0574
2250.3847
2250.1055
2248.6117
2245.0749
2257.1098
2248.3815
2312.5384
2324.6472
2308.443
2315.5176
2316.5041
2316.3619
2315.7592
2314.524
2316.7889
2314.0648
2324.6472
2315.9925
2311.5332
2317.6403
2318.3377
2318.0015
2316.7506
2314.1397
2321.2464
2320.2777
2308.443
2311.5332
2304.8721
2310.5639
2311.2288
2310.8956
2309.4068
2305.5509
2312.1972
2315.4764
2315.5176
2317.6403
2310.5639
2316.1917
2316.8611
2316.5578
2315.0483
2310.725
2316.1141
2317.3235
2316.5041
2318.3377
2311.2288
2316.8611
2317.5395
2317.2564
2315.786
2311.4708
2316.7912
2317.6593
2316.3619
2318.0015
2310.8956
2316.5578
2317.2564
2316.983
2315.5254
2311.2243
2316.5547
2317.3647
2315.7592
2316.7506
2309.4068
2315.0483
2315.786
2315.5254
2314.0603
2309.7296
2314.9964
2315.7837
2314.524
2314.1397
2305.5509
2310.725
2311.4708
2311.2243
2309.7296
2305.3113
2310.4567
2312.0239
2316.7889
2321.2464
2312.1972
2316.1141
2316.7912
2316.5547
2314.9964
2310.4567
2315.9796
2324.69
2314.0648
2320.2777
2315.4764
2317.3235
2317.6593
2317.3647
2315.7837
2312.0239
2324.69
2315.4138
2359.8469
2372.1583
2355.7594
2362.9946
2364.003
2363.8534
2363.2184
2361.9042
2364.2334
2361.4066
2372.1583
2363.4909
2359.0053
2365.2503
2365.9634
2365.613
2364.3005
2361.5334
2368.8554
2367.7995
2355.7594
2359.0053
2352.2752
2358.0972
2358.7778
2358.4319
2356.8753
2352.8178
2359.6581
2362.9367
2362.9946
2365.2503
2358.0972
2363.8539
2364.5393
2364.2248
2362.6478
2358.1079
2363.656
2364.8159
2364.003
2365.9634
2358.7778
2364.5393
2365.234
2364.9405
2363.4041
2358.8722
2364.3493
2365.158
2363.8534
2365.613
2358.4319
2364.2248
2364.9405
2364.657
2363.1338
2358.6162
2364.1029
2364.8499
2363.2184
2364.3005
2356.8753
2362.6478
2363.4041
2363.1338
2361.6025
2357.0533
2362.4717
2363.1911
2361.9042
2361.5334
2352.8178
2358.1079
2358.8722
2358.6162
2357.0533
2352.4104
2357.6964
2359.2292
2364.2334
2368.8554
2359.6581
2363.656
2364.3493
2364.1029
2362.4717
2357.6964
2363.3699
2372.4349
2361.4066
2367.7995
2362.9367
2364.8159
2365.158
2364.8499
2363.1911
2359.2292
2372.4349
2362.6723
2387.295
2399.7345
2383.2541
2390.6037
2391.6274
2391.4713
2390.8076
2389.4215
2391.7955
2388.88
2399.7345
2391.122
2386.6444
2392.9872
2393.7113
2393.3489
2391.9824
2389.0745
2396.5562
2395.4129
2383.2541
2386.6444
2379.8938
2385.8085
2386.5003
2386.144
2384.529
2380.2935
2387.2743
2390.522
2390.6037
2392.9872
2385.8085
2391.6572
2392.3541
2392.0304
2390.3955
2385.6658
2391.3278
2392.4213
2391.6274
2393.7113
2386.5003
2392.3541
2393.0605
2392.7584
2391.1654
2386.4437
2392.0328
2392.7676
2391.4713
2393.3489
2386.144
2392.0304
2392.7584
2392.4665
2390.8871
2386.1798
2391.778
2392.4477
2390.8076
2391.9824
2384.529
2390.3955
2391.1654
2390.8871
2389.299
2384.5582
2390.0838
2390.721
2389.4215
2389.0745
2380.2935
2385.6658
2386.4437
2386.1798
2384.5582
2379.7181
2385.1008
2386.5794
2391.7955
2396.5562
2387.2743
2391.3278
2392.0328
2391.778
2390.0838
2385.1008
2390.878
2400.2303
2388.88
2395.4129
2390.522
2392.4213
2392.7676
2392.4477
2390.721
2386.5794
2400.2303
2390.0458
2394.9538
2407.4466
2390.9972
2398.4139
2399.4464
2399.2845
2398.5961
2397.1457
2399.5452
2396.5555
2407.4466
2398.9552
2394.5188
2400.9186
2401.6487
2401.2765
2399.8643
2396.8321
2404.4176
2403.1877
2390.9972
2394.5188
2387.7952
2393.7646
2394.4631
2394.0984
2392.435
2388.0467
2395.1144
2398.3014
2398.4139
2400.9186
2393.7646
2399.6675
2400.3713
2400.0404
2398.3578
2393.4667
2399.1975
2400.2088
2399.4464
2401.6487
2394.4631
2400.3713
2401.0848
2400.776
2399.1362
2394.2531
2399.9098
2400.5571
2399.2845
2401.2765
2394.0984
2400.0404
2400.776
2400.4776
2398.8517
2393.983
2399.6481
2400.2274
2398.5961
2399.8643
2392.435
2398.3578
2399.1362
2398.8517
2397.2167
2392.3129
2397.9013
2398.4432
2397.1457
2396.8321
2388.0467
2393.4667
2394.2531
2393.983
2392.3129
2387.3044
2392.7404
2394.1459
2399.5452
2404.4176
2395.1144
2399.1975
2399.9098
2399.6481
2397.9013
2392.7404
2398.5745
2408.1451
2396.5555
2403.1877
2398.3014
2400.2088
2400.5571
2400.2274
2398.4432
2394.1459
2408.1451
2397.6058
2383.0783
2395.5498
2379.2422
2386.6782
2387.7125
2387.5458
2386.8368
2385.3304
2387.7362
2384.6877
2395.5498
2387.2437
2382.8801
2389.2953
2390.0268
2389.647
2388.1978
2385.059
2392.6922
2391.3774
2379.2422
2382.8801
2376.2299
2382.2152
2382.9158
2382.545
2380.8436
2376.329
2383.4305
2386.5283
2386.6782
2389.2953
2382.2152
2388.1341
2388.8402
2388.5041
2386.7843
2381.7617
2387.5168
2388.4313
2387.7125
2390.0268
2382.9158
2388.8402
2389.556
2389.2424
2387.5663
2382.5516
2388.2318
2388.7794
2387.5458
2389.647
2382.545
2388.5041
2389.2424
2388.9395
2387.2773
2382.2769
2387.9649
2388.442
2386.8368
2388.1978
2380.8436
2386.7843
2387.5663
2387.2773
2385.6056
2380.5686
2386.1765
2386.6112
2385.3304
2385.059
2376.329
2381.7617
2382.5516
2382.2769
2380.5686
2375.4225
2380.8687
2382.1836
2387.7362
2392.6922
2383.4305
2387.5168
2388.2318
2387.9649
2386.1765
2380.8687
2386.7136
2396.433
2384.6877
2391.3774
2386.5283
2388.4313
2388.7794
2388.442
2386.6112
2382.1836
2396.433
2385.6082
2352.1048
2364.4812
2348.4234
2355.8303
2356.8598
2356.6892
2355.9639
2354.4102
2356.8036
2353.7123
2364.4812
2356.4217
2352.1606
2358.5496
2359.2776
2358.8925
2357.4153
2354.1888
2361.8146
2360.4174
2348.4234
2352.1606
2345.6283
2351.5907
2352.2887
2351.9143
2350.1855
2345.5724
2352.6554
2355.6372
2355.8303
2358.5496
2351.5907
2357.487
2358.1908
2357.8518
2356.1056
2350.9826
2356.7186
2357.5236
2356.8598
2359.2776
2352.2887
2358.1908
2358.9043
2358.588
2356.886
2351.7709
2357.4316
2357.8691
2356.6892
2358.8925
2351.9143
2357.8518
2358.588
2358.2823
2356.5944
2351.4934
2357.1613
2357.5261
2355.9639
2357.4153
2350.1855
2356.1056
2356.886
2356.5944
2354.8967
2349.7578
2355.3424
2355.6601
2354.4102
2354.1888
2345.5724
2350.9826
2351.7709
2351.4934
2349.7578
2344.5057
2349.9204
2351.1289
2356.8036
2361.8146
2352.6554
2356.7186
2357.4316
2357.1613
2355.3424
2349.9204
2355.7313
2365.5296
2353.7123
2360.4174
2355.6372
2357.5236
2357.8691
2357.5261
2355.6601
2351.1289
2365.5296
2354.4902
2302.6453
2314.8536
2299.1498
2306.4795
2307.4973
2307.324
2306.5869
2304.9953
2307.3581
2304.2408
2314.8536
2307.0984
2302.9674
2309.2885
2310.0083
2309.6205
2308.1245
2304.83
2312.3944
2310.9188
2299.1498
2302.9674
2296.5954
2302.496
2303.1869
2302.8113
2301.0661
2296.3834
2303.3972
2306.2379
2306.4795
2309.2885
2302.496
2308.3315
2309.0283
2308.6885
2306.9272
2301.736
2307.4109
2308.0954
2307.4973
2310.0083
2303.1869
2309.0283
2309.7348
2309.4178
2307.7009
2302.5175
2308.1174
2308.4362
2307.324
2309.6205
2302.8113
2308.6885
2309.4178
2309.1114
2307.4086
2302.239
2307.8453
2308.0899
2306.5869
2308.1245
2301.0661
2306.9272
2307.7009
2307.4086
2305.6957
2300.4872
2306.0075
2306.2004
2304.9953
2304.83
2296.3834
2301.736
2302.5175
2302.239
2300.4872
2295.1621
2300.5052
2301.5933
2307.3581
2312.3944
2303.3972
2307.4109
2308.1174
2307.8453
2306.0075
2300.5052
2306.2389
2316.0468
2304.2408
2310.9188
2306.2379
2308.0954
2308.4362
2308.0899
2306.2004
2301.5933
2316.0468
2304.8651
2235.4774
2247.4459
2232.1961
2239.4007
2240.4002
2240.2252
2239.4809
2237.8612
2240.1762
2237.05
2247.4459
2240.0487
2236.0729
2242.2851
2242.9919
2242.6038
2241.0987
2237.7568
2245.2076
2243.6586
2232.1961
2236.0729
2229.901
2235.7015
2236.3808
2236.0063
2234.2561
2229.5335
2236.4293
2239.1065
2239.4007
2242.2851
2235.7015
2241.4381
2242.1234
2241.785
2240.02
2234.7936
2240.3674
2240.9229
2240.4002
2242.9919
2236.3808
2242.1234
2242.8183
2242.5027
2240.782
2235.5633
2241.0627
2241.2567
2240.2252
2242.6038
2236.0063
2241.785
2242.5027
2242.1976
2240.4909
2235.2856
2240.7907
2240.9092
2239.4809
2241.0987
2234.2561
2240.02
2240.782
2240.4909
2238.7739
2233.5289
2238.9459
2239.0083
2237.8612
2237.7568
2229.5335
2234.7936
2235.5633
2235.2856
2233.5289
2228.1646
2233.398
2234.3543
2240.1762
2245.2076
2236.4293
2240.3674
2241.0627
2240.7907
2238.9459
2233.398
2239.0135
2248.7631
2237.05
2243.6586
2239.1065
2240.9229
2241.2567
2240.9092
2239.0083
2234.3543
2248.7631
2237.5119
2151.5319
2163.1908
2148.4893
2155.5218
2156.4965
2156.321
2155.5742
2153.9366
2156.1877
2153.0705
2163.1908
2156.2003
2152.4022
2158.4649
2159.1542
2158.7684
2157.2638
2153.896
2161.1832
2159.5675
2148.4893
2152.4022
2146.4673
2152.1299
2152.7932
2152.4224
2150.6786
2145.9464
2152.6782
2155.1718
2155.5218
2158.4649
2152.1299
2157.7304
2158.3997
2158.0651
2156.3078
2151.0799
2156.515
2156.9353
2156.4965
2159.1542
2152.7932
2158.3997
2159.0785
2158.7664
2157.0531
2151.8328
2157.1946
2157.26
2156.321
2158.7684
2152.4224
2158.0651
2158.7664
2158.4647
2156.7651
2151.5577
2156.9245
2156.9135
2155.5742
2157.2638
2150.6786
2156.3078
2157.0531
2156.7651
2155.0552
2149.8075
2155.0846
2155.0134
2153.9366
2153.896
2145.9464
2151.0799
2151.8328
2151.5577
2149.8075
2144.4386
2149.5268
2150.342
2156.1877
2161.1832
2152.6782
2156.515
2157.1946
2156.9245
2155.0846
2149.5268
2154.9857
2164.6108
2153.0705
2159.5675
2155.1718
2156.9353
2157.26
2156.9135
2155.0134
2150.342
2164.6108
2153.3633
2051.8773
2063.1589
2049.0941
2055.9086
2056.8522
2056.6772
2055.9329
2054.2879
2056.4601
2053.3702
2063.1589
2056.6185
2053.0176
2058.8915
2059.5589
2059.1779
2057.6838
2054.3119
2061.3884
2059.7141
2049.0941
2053.0176
2047.3536
2052.8416
2053.4847
2053.1199
2051.3939
2046.6832
2053.2076
2055.5009
2055.9086
2058.8915
2052.8416
2058.2695
2058.9187
2058.5899
2056.8519
2051.6567
2056.9182
2057.1999
2056.8522
2059.5589
2053.4847
2058.9187
2059.577
2059.2704
2057.5758
2052.3879
2057.5778
2057.5133
2056.6772
2059.1779
2053.1199
2058.5899
2059.2704
2058.9741
2057.2929
2052.1173
2057.3113
2057.1702
2055.9329
2057.6838
2051.3939
2056.8519
2057.5758
2057.2929
2055.6012
2050.3851
2055.4883
2055.2833
2054.2879
2054.3119
2046.6832
2051.6567
2052.3879
2052.1173
2050.3851
2045.0466
2049.9568
2050.6247
2056.4601
2061.3884
2053.2076
2056.9182
2057.5778
2057.3113
2055.4883
2049.9568
2055.2237
2064.661
2053.3702
2059.7141
2055.5009
2057.1999
2057.5133
2057.1702
2055.2833
2050.6247
2064.661
2053.4899
1937.7025
1948.5413
1935.1948
1941.7469
1942.6532
1942.48
1941.7431
1940.1016
1942.1813
1939.1376
1948.5413
1942.4885
1939.1014
1944.7485
1945.3898
1945.0162
1943.5425
1940.1891
1947.0108
1945.2876
1935.1948
1939.1014
1933.7388
1939.0167
1939.6355
1939.2793
1937.5824
1932.9244
1939.2016
1941.281
1941.7469
1944.7485
1939.0167
1944.237
1944.8618
1944.5412
1942.8339
1937.7056
1942.7617
1942.9044
1942.6532
1945.3898
1939.6355
1944.8618
1945.4955
1945.1966
1943.5318
1938.4105
1943.397
1943.2044
1942.48
1945.0162
1939.2793
1944.5412
1945.1966
1944.9076
1943.2559
1938.1463
1943.1361
1942.867
1941.7431
1943.5425
1937.5824
1942.8339
1943.5318
1943.2559
1941.5936
1936.4434
1941.342
1941.0056
1940.1016
1940.1891
1932.9244
1937.7056
1938.4105
1938.1463
1936.4434
1931.1705
1935.873
1936.3905
1942.1813
1947.0108
1939.2016
1942.7617
1943.397
1943.1361
1941.342
1935.873
1940.9161
1950.1053
1939.1376
1945.2876
1941.281
1942.9044
1943.2044
1942.867
1941.0056
1936.3905
1950.1053
1939.0829
1810.2971
1820.6302
1808.0763
1814.3234
1815.1867
1815.0165
1814.2919
1812.665
1814.6402
1811.6619
1820.6302
1815.0962
1811.9366
1817.3205
1817.9317
1817.5681
1816.1247
1812.8125
1819.339
1817.5783
1808.0763
1811.9366
1806.9023
1811.9362
1812.5268
1812.1816
1810.5252
1805.951
1811.9448
1813.8003
1814.3234
1817.3205
1811.9362
1816.9153
1817.5119
1817.2016
1815.5363
1810.5091
1815.3315
1815.3375
1815.1867
1817.9317
1812.5268
1817.5119
1818.117
1817.8278
1816.2038
1811.1832
1815.9383
1815.6222
1815.0165
1817.5681
1812.1816
1817.2016
1817.8278
1817.5481
1815.9368
1810.9271
1815.6846
1815.2927
1814.2919
1816.1247
1810.5252
1815.5363
1816.2038
1815.9368
1814.315
1809.265
1813.9315
1813.4692
1812.665
1812.8125
1805.951
1810.5091
1811.1832
1810.9271
1809.265
1804.0927
1808.5615
1808.9284
1814.6402
1819.339
1811.9448
1815.3315
1815.9383
1815.6846
1813.9315
1808.5615
1813.3523
1822.2372
1811.6619
1817.5783
1813.8003
1815.3375
1815.6222
1815.2927
1813.4692
1808.9284
1822.2372
1811.4344
1671.0313
1680.7987
1669.104
1675.0057
1675.8206
1675.6547
1674.9473
1673.3462
1675.2063
1672.3131
1680.7987
1675.808
1672.8866
1677.973
1678.5503
1678.1993
1676.7959
1673.5477
1679.7424
1677.9574
1669.104
1672.8866
1668.2038
1672.9616
1673.5204
1673.1886
1671.5838
1667.1244
1672.8026
1674.428
1675.0057
1677.973
1672.9616
1677.6679
1678.2325
1677.9347
1676.3225
1671.4302
1675.9939
1675.8688
1675.8206
1678.5503
1673.5204
1678.2325
1678.8054
1678.5277
1676.9554
1672.0692
1676.5685
1676.1365
1675.6547
1678.1993
1673.1886
1677.9347
1678.5277
1678.2593
1676.6991
1671.8231
1676.3238
1675.8171
1674.9473
1676.7959
1671.5838
1676.3225
1676.9554
1676.6991
1675.1286
1670.2128
1674.6232
1674.0437
1673.3462
1673.5477
1667.1244
1671.4302
1672.0692
1671.8231
1670.2128
1665.1758
1669.3883
1669.6079
1675.2063
1679.7424
1672.8026
1675.9939
1676.5685
1676.3238
1674.6232
1669.3883
1673.9023
1682.4311
1672.3131
1677.9574
1674.428
1675.8688
1676.1365
1675.8171
1674.0437
1669.6079
1682.4311
1671.9173
1521.335
1530.4796
1519.7027
1525.2212
1525.9825
1525.8221
1525.1369
1523.5728
1525.3091
1522.5207
1530.4796
1526.0502
1523.3745
1528.1312
1528.6713
1528.3353
1526.9816
1523.8202
1529.6505
1527.8562
1519.7027
1523.3745
1519.0627
1523.5144
1524.0381
1523.722
1522.1796
1517.8654
1523.2002
1524.593
1525.2212
1528.1312
1523.5144
1527.9181
1528.4475
1528.1642
1526.6159
1521.8916
1526.1756
1525.9282
1525.9825
1528.6713
1524.0381
1528.4475
1528.9846
1528.7206
1527.2104
1522.4916
1526.7143
1526.177
1525.8221
1528.3353
1523.722
1528.1642
1528.7206
1528.4653
1526.9666
1522.2572
1526.4803
1525.8699
1525.1369
1526.9816
1522.1796
1526.6159
1527.2104
1526.9666
1525.4579
1520.7094
1524.8437
1524.1585
1523.5728
1523.8202
1517.8654
1521.8916
1522.4916
1522.2572
1520.7094
1515.842
1519.7794
1519.8582
1525.3091
1529.6505
1523.2002
1526.1756
1526.7143
1526.4803
1524.8437
1519.7794
1523.9963
1532.1219
1522.5207
1527.8562
1524.593
1525.9282
1526.177
1525.8699
1524.1585
1519.8582
1532.1219
1521.9642
1362.677
1371.1449
1361.3361
1366.4362
1367.1395
1366.9859
1366.3275
1364.8117
1366.4172
1363.7537
1371.1449
1367.2879
1364.8627
1369.26
1369.7597
1369.4413
1368.1465
1365.0944
1370.5323
1368.7453
1361.3361
1364.8627
1360.9378
1365.0556
1365.5411
1365.243
1363.7734
1359.6342
1364.6018
1365.7636
1366.4362
1369.26
1365.0556
1369.1293
1369.6203
1369.3535
1367.8795
1363.3554
1367.3424
1366.9844
1367.1395
1369.7597
1365.5411
1369.6203
1370.1185
1369.8699
1368.432
1363.9127
1367.8418
1367.2128
1366.9859
1369.4413
1365.243
1369.3535
1369.8699
1369.6296
1368.2025
1363.6916
1367.6203
1366.9202
1366.3275
1368.1465
1363.7734
1367.8795
1368.432
1368.2025
1366.7656
1362.2169
1366.0586
1365.2823
1364.8117
1365.0944
1359.6342
1363.3554
1363.9127
1363.6916
1362.2169
1357.552
1361.1995
1361.1474
1366.4172
1370.5323
1364.6018
1367.3424
1367.8418
1367.6203
1366.0586
1361.1995
1365.103
1372.784
1363.7537
1368.7453
1365.7636
1366.9844
1367.2128
1366.9202
1365.2823
1361.1474
1372.784
1363.047
1196.5448
1204.2857
1195.4868
1200.1366
1200.7776
1200.632
1200.0052
1198.5487
1200.018
1197.4996
1204.2857
1201.0054
1198.8326
1202.8433
1203.3001
1203.0014
1201.7746
1198.8539
1203.8756
1202.1143
1195.4868
1198.8326
1195.3066
1199.0653
1199.51
1199.232
1197.845
1193.9097
1198.4909
1199.427
1200.1366
1202.8433
1199.0653
1202.784
1203.234
1202.9855
1201.5956
1197.3027