/*--------------------------------*- C++ -*----------------------------------*\
| =========                 |                                                 |
| \\      /  F ield         | OpenFOAM: The Open Source CFD Toolbox           |
|  \\    /   O peration     | Version:  v2106                                 |
|   \\  /    A nd           | Website:  www.openfoam.com                      |
|    \\/     M anipulation  |                                                 |
\*---------------------------------------------------------------------------*/
FoamFile
{
    version     2.0;
    format      ascii;
    arch        "LSB;label=32;scalar=64";
    class       volVectorField;
    location    "10";
    object      flux;
}
// * * * * * * * * * * * * * * * * * * * * * * * * * * * * * * * * * * * * * //

dimensions      [0 1 -1 1 0 0 0];

internalField   nonuniform List<vector> 
4000
(
(-1.0053579e-06 -1.0053579e-06 1.0772645)
(-2.4917004e-06 -2.3527531e-06 1.0772631)
(2.2862648e-06 1.2570537e-06 1.0772595)
(2.5700249e-06 -4.7404618e-07 1.0772709)
(-2.6321454e-06 -9.163949e-07 1.0772664)
(-2.1164411e-06 -8.6143116e-07 1.0772613)
(-8.7602387e-07 -7.1195032e-07 1.0772588)
(-2.3542502e-07 -6.0977431e-07 1.077258)
(-9.5028343e-08 -4.6905599e-07 1.0772578)
(-4.8749182e-08 -5.5922367e-08 1.0772573)
(-2.3527531e-06 -2.4917004e-06 1.0772631)
(-2.2928883e-07 -2.2928883e-07 1.0772583)
(4.1649717e-06 1.9084034e-06 1.0772643)
(3.9657629e-07 -4.2038945e-07 1.0772704)
(-3.0195304e-06 -8.9060696e-07 1.0772646)
(-1.9119965e-06 -6.7508552e-07 1.0772597)
(-6.2436701e-07 -3.7616477e-07 1.0772577)
(7.4692856e-09 -3.1358863e-07 1.0772573)
(4.588236e-07 -4.2357796e-07 1.0772578)
(3.6438445e-07 -2.7567618e-08 1.077259)
(1.2570537e-06 2.2862648e-06 1.0772595)
(1.9084034e-06 4.1649717e-06 1.0772643)
(2.0951641e-06 2.0951641e-06 1.0772662)
(-2.2898549e-07 1.3921688e-06 1.0772704)
(-2.8868415e-06 1.487644e-06 1.0772645)
(-1.6019989e-06 1.8778047e-06 1.0772602)
(-5.1452699e-07 2.2963618e-06 1.0772589)
(-2.8283821e-07 2.4254714e-06 1.0772582)
(1.9099266e-07 2.0063646e-06 1.0772577)
(3.4726116e-07 1.4746239e-06 1.0772589)
(-4.7404619e-07 2.5700249e-06 1.0772709)
(-4.2038948e-07 3.965763e-07 1.0772704)
(1.3921688e-06 -2.289855e-07 1.0772704)
(-2.1094379e-07 -2.1094379e-07 1.0772742)
(-2.5338945e-06 9.8924645e-08 1.0772688)
(-1.1032787e-06 5.5672153e-07 1.0772654)
(-7.6700295e-08 1.1082186e-06 1.0772651)
(-2.8252797e-07 1.6131569e-06 1.0772652)
(-4.9202391e-07 1.7806087e-06 1.077264)
(-1.6735621e-07 1.5192295e-06 1.0772635)
(-9.1639492e-07 -2.6321454e-06 1.0772664)
(-8.9060696e-07 -3.0195304e-06 1.0772646)
(1.487644e-06 -2.8868415e-06 1.0772645)
(9.8924645e-08 -2.5338945e-06 1.0772688)
(-2.1191761e-06 -2.1191761e-06 1.0772642)
(-5.9270495e-07 -1.6873464e-06 1.0772617)
(5.4190842e-07 -1.2082147e-06 1.0772625)
(3.8955188e-07 -6.6942809e-07 1.0772638)
(9.7065196e-08 -1.2964307e-07 1.0772638)
(8.5881909e-08 3.0102984e-07 1.0772642)
(-8.6143117e-07 -2.1164411e-06 1.0772613)
(-6.7508551e-07 -1.9119965e-06 1.0772597)
(1.8778047e-06 -1.6019989e-06 1.0772602)
(5.5672153e-07 -1.1032786e-06 1.0772654)
(-1.6873464e-06 -5.9270494e-07 1.0772617)
(-1.9231724e-07 -1.9231726e-07 1.07726)
(9.4121804e-07 1.3613249e-07 1.0772616)
(7.9604367e-07 4.2252843e-07 1.0772637)
(4.7843405e-07 6.7208913e-07 1.0772645)
(2.6331671e-07 8.6464017e-07 1.0772655)
(-7.1195033e-07 -8.7602386e-07 1.0772588)
(-3.7616478e-07 -6.2436699e-07 1.0772577)
(2.2963619e-06 -5.1452699e-07 1.0772589)
(1.1082186e-06 -7.6700313e-08 1.0772651)
(-1.2082148e-06 5.4190844e-07 1.0772625)
(1.3613249e-07 9.4121805e-07 1.0772616)
(1.1567541e-06 1.1567541e-06 1.0772637)
(9.2550853e-07 1.2371795e-06 1.0772661)
(5.3917693e-07 1.2190409e-06 1.0772671)
(2.7843295e-07 1.1436708e-06 1.0772681)
(-6.0977431e-07 -2.3542504e-07 1.077258)
(-3.1358863e-07 7.469303e-09 1.0772573)
(2.4254714e-06 -2.8283823e-07 1.0772582)
(1.613157e-06 -2.8252799e-07 1.0772652)
(-6.6942809e-07 3.8955189e-07 1.0772638)
(4.225284e-07 7.9604367e-07 1.0772637)
(1.2371796e-06 9.2550853e-07 1.0772661)
(8.5833054e-07 8.5833055e-07 1.0772685)
(3.8492527e-07 6.746073e-07 1.0772692)
(1.8794657e-07 4.7010384e-07 1.0772698)
(-4.69056e-07 -9.5028334e-08 1.0772578)
(-4.2357796e-07 4.588236e-07 1.0772578)
(2.0063646e-06 1.9099264e-07 1.0772577)
(1.7806087e-06 -4.920239e-07 1.077264)
(-1.2964308e-07 9.7065168e-08 1.0772638)
(6.7208913e-07 4.7843402e-07 1.0772645)
(1.2190409e-06 5.3917692e-07 1.0772671)
(6.7460731e-07 3.8492528e-07 1.0772692)
(1.5095022e-07 1.5095022e-07 1.0772694)
(7.39295e-08 -8.2471356e-10 1.0772696)
(-5.5922385e-08 -4.8749173e-08 1.0772573)
(-2.7567636e-08 3.6438445e-07 1.077259)
(1.4746239e-06 3.4726117e-07 1.0772589)
(1.5192295e-06 -1.6735622e-07 1.0772635)
(3.0102984e-07 8.5881909e-08 1.0772642)
(8.6464016e-07 2.6331671e-07 1.0772655)
(1.1436708e-06 2.7843295e-07 1.0772681)
(4.7010386e-07 1.8794655e-07 1.0772698)
(-8.2470489e-10 7.3929517e-08 1.0772696)
(3.617163e-08 3.6171639e-08 1.0772699)
(-3.6895516e-07 -3.6895512e-07 1.082019)
(-2.4971564e-06 -2.4641121e-06 1.082022)
(5.5023201e-06 3.5467715e-06 1.0820217)
(4.3640253e-06 -4.8229294e-08 1.0820271)
(-7.0142869e-06 -9.4801477e-07 1.0820231)
(-5.5555013e-06 -7.2810757e-07 1.0820191)
(-2.3439971e-06 -3.2973116e-07 1.0820172)
(-7.7327589e-07 -1.0068282e-07 1.0820166)
(-6.926822e-07 4.6595272e-07 1.0820164)
(-4.5569283e-07 1.762356e-06 1.0820148)
(-2.4641121e-06 -2.4971564e-06 1.082022)
(1.4185703e-06 1.4185703e-06 1.0820222)
(7.9182029e-06 4.7482684e-06 1.0820251)
(-1.3076103e-07 -1.3405775e-07 1.0820276)
(-7.6941651e-06 -1.0582689e-06 1.082023)
(-4.9372177e-06 -3.6593272e-07 1.0820193)
(-1.7165724e-06 4.600291e-07 1.0820179)
(2.2407961e-08 4.9937921e-07 1.0820174)
(1.1703567e-06 3.281494e-07 1.0820181)
(8.4071049e-07 1.6651645e-06 1.0820189)
(3.5467715e-06 5.5023202e-06 1.0820217)
(4.7482684e-06 7.918203e-06 1.0820251)
(3.9496921e-06 3.9496921e-06 1.0820261)
(-1.442512e-06 2.4250354e-06 1.0820276)
(-7.2461618e-06 2.7500046e-06 1.082023)
(-4.0372034e-06 3.8922095e-06 1.0820201)
(-1.4786852e-06 5.1138753e-06 1.0820193)
(-9.0515559e-07 5.4027692e-06 1.0820183)
(4.7310306e-07 4.2226945e-06 1.082018)
(8.8132226e-07 3.0595316e-06 1.0820189)
(-4.8229311e-08 4.3640253e-06 1.0820271)
(-1.3405778e-07 -1.3076101e-07 1.0820276)
(2.4250354e-06 -1.442512e-06 1.0820276)
(-1.3304486e-06 -1.3304486e-06 1.0820288)
(-6.2269911e-06 -4.4521136e-07 1.0820248)
(-2.573347e-06 8.95619e-07 1.0820227)
(-2.0601261e-07 2.5183548e-06 1.082023)
(-8.6877287e-07 3.9446315e-06 1.0820227)
(-1.172881e-06 4.3834267e-06 1.082022)
(-3.2245239e-07 3.798935e-06 1.0820218)
(-9.4801477e-07 -7.0142869e-06 1.0820231)
(-1.0582689e-06 -7.6941651e-06 1.082023)
(2.7500046e-06 -7.2461618e-06 1.082023)
(-4.4521136e-07 -6.2269911e-06 1.0820248)
(-5.0200942e-06 -5.0200942e-06 1.0820215)
(-1.0736373e-06 -3.7430139e-06 1.0820202)
(1.5703273e-06 -2.3293414e-06 1.0820216)
(9.5991635e-07 -7.9141399e-07 1.0820225)
(3.2740656e-07 6.5897085e-07 1.0820227)
(2.9683062e-07 1.744714e-06 1.0820233)
(-7.2810756e-07 -5.5555014e-06 1.0820191)
(-3.6593272e-07 -4.9372177e-06 1.0820193)
(3.8922095e-06 -4.0372034e-06 1.0820201)
(8.9561902e-07 -2.573347e-06 1.0820227)
(-3.7430139e-06 -1.0736372e-06 1.0820202)
(1.1740581e-07 1.1740582e-07 1.0820198)
(2.7455873e-06 1.0896121e-06 1.0820219)
(2.1195394e-06 1.9150358e-06 1.0820236)
(1.363247e-06 2.591341e-06 1.0820245)
(7.6329073e-07 3.0486524e-06 1.0820255)
(-3.2973116e-07 -2.3439971e-06 1.0820172)
(4.600291e-07 -1.7165724e-06 1.0820179)
(5.1138753e-06 -1.4786852e-06 1.0820193)
(2.5183548e-06 -2.0601263e-07 1.082023)
(-2.3293414e-06 1.5703273e-06 1.0820216)
(1.0896121e-06 2.7455873e-06 1.0820219)
(3.3679572e-06 3.3679572e-06 1.0820245)
(2.4616452e-06 3.5661183e-06 1.0820264)
(1.4610232e-06 3.4440955e-06 1.0820274)
(7.5414199e-07 3.1039605e-06 1.0820282)
(-1.0068282e-07 -7.7327591e-07 1.0820166)
(4.9937922e-07 2.2407961e-08 1.0820174)
(5.4027692e-06 -9.0515558e-07 1.0820183)
(3.9446315e-06 -8.6877289e-07 1.0820227)
(-7.9141397e-07 9.5991632e-07 1.0820225)
(1.9150357e-06 2.1195394e-06 1.0820236)
(3.5661182e-06 2.4616452e-06 1.0820264)
(2.1956776e-06 2.1956776e-06 1.0820282)
(9.010892e-07 1.5902323e-06 1.0820287)
(4.2315573e-07 9.6658574e-07 1.082029)
(4.659527e-07 -6.926822e-07 1.0820164)
(3.281494e-07 1.1703566e-06 1.0820181)
(4.2226945e-06 4.7310303e-07 1.082018)
(4.3834267e-06 -1.172881e-06 1.082022)
(6.5897083e-07 3.2740655e-07 1.0820227)
(2.591341e-06 1.3632469e-06 1.0820245)
(3.4440955e-06 1.4610232e-06 1.0820274)
(1.5902323e-06 9.0108919e-07 1.0820287)
(2.3193131e-07 2.3193131e-07 1.0820287)
(1.3049545e-07 1.0290546e-07 1.0820289)
(1.762356e-06 -4.5569283e-07 1.0820148)
(1.6651645e-06 8.407105e-07 1.0820189)
(3.0595316e-06 8.8132226e-07 1.0820189)
(3.798935e-06 -3.2245241e-07 1.0820218)
(1.744714e-06 2.9683061e-07 1.0820233)
(3.0486524e-06 7.6329075e-07 1.0820255)
(3.1039605e-06 7.5414199e-07 1.0820282)
(9.6658574e-07 4.2315572e-07 1.082029)
(1.0290546e-07 1.3049546e-07 1.0820289)
(2.9412986e-07 2.9412986e-07 1.0820293)
(2.0425822e-06 2.0425822e-06 1.09151)
(2.2486542e-07 -2.2026499e-06 1.0915138)
(7.3633998e-06 4.6934133e-06 1.0915138)
(3.9896326e-06 3.3945511e-08 1.0915165)
(-1.0664274e-05 -1.0431538e-06 1.0915131)
(-8.0018882e-06 -5.9732845e-07 1.0915102)
(-3.2919647e-06 -1.535997e-08 1.0915091)
(-1.0894998e-06 1.0874154e-07 1.0915087)
(-1.8966553e-06 1.2684765e-06 1.0915087)
(-1.5700218e-06 3.9859969e-06 1.0915067)
(-2.2026499e-06 2.2486543e-07 1.0915138)
(2.8756965e-06 2.8756965e-06 1.091514)
(9.5999953e-06 6.354846e-06 1.0915158)
(-1.7469345e-06 4.1325094e-08 1.0915166)
(-1.1295548e-05 -9.5186679e-07 1.0915129)
(-6.9740944e-06 3.3160188e-07 1.0915105)
(-2.5858948e-06 1.6614073e-06 1.0915098)
(1.9433665e-07 1.3599503e-06 1.0915089)
(1.9806001e-06 1.1712289e-06 1.0915099)
(1.1474986e-06 4.0202013e-06 1.0915105)
(4.6934133e-06 7.3633998e-06 1.0915138)
(6.354846e-06 9.5999953e-06 1.0915158)
(4.5290284e-06 4.5290284e-06 1.0915162)
(-3.3170802e-06 2.6227596e-06 1.0915164)
(-1.0373997e-05 3.3071837e-06 1.0915129)
(-5.3886141e-06 5.2661979e-06 1.0915113)
(-2.2636163e-06 7.3665941e-06 1.0915113)
(-1.5796782e-06 7.7792831e-06 1.09151)
(7.6359571e-07 5.8551317e-06 1.0915099)
(1.2789506e-06 4.428016e-06 1.0915109)
(3.3945529e-08 3.9896326e-06 1.0915165)
(4.1325112e-08 -1.7469344e-06 1.0915166)
(2.6227596e-06 -3.3170802e-06 1.0915164)
(-2.9687791e-06 -2.9687791e-06 1.0915166)
(-8.6521095e-06 -1.4890918e-06 1.0915137)
(-2.914684e-06 7.3318638e-07 1.091513)
(-7.2809484e-08 3.4403045e-06 1.0915141)
(-1.3171258e-06 5.7894761e-06 1.0915135)
(-1.370667e-06 6.5677939e-06 1.0915131)
(-2.7961699e-07 5.9478588e-06 1.0915135)
(-1.0431538e-06 -1.0664274e-05 1.0915131)
(-9.5186684e-07 -1.1295548e-05 1.0915129)
(3.3071837e-06 -1.0373997e-05 1.0915129)
(-1.4890918e-06 -8.6521095e-06 1.0915137)
(-6.6720315e-06 -6.6720314e-06 1.0915115)
(-4.5921779e-07 -4.577396e-06 1.0915116)
(2.7926734e-06 -2.2709431e-06 1.0915137)
(1.5478111e-06 1.7695245e-07 1.0915142)
(9.2197835e-07 2.3966864e-06 1.0915147)
(6.5901548e-07 3.9992523e-06 1.0915157)
(-5.9732845e-07 -8.0018882e-06 1.0915102)
(3.3160186e-07 -6.9740944e-06 1.0915105)
(5.2661979e-06 -5.3886141e-06 1.0915113)
(7.3318639e-07 -2.914684e-06 1.091513)
(-4.577396e-06 -4.5921777e-07 1.0915116)
(1.4864044e-06 1.4864044e-06 1.0915125)
(4.681539e-06 3.0509144e-06 1.0915153)
(3.3505036e-06 4.3244201e-06 1.0915165)
(2.4516328e-06 5.2793598e-06 1.0915175)
(1.3229489e-06 5.7886094e-06 1.0915188)
(-1.5359988e-08 -3.2919648e-06 1.0915091)
(1.6614073e-06 -2.5858948e-06 1.0915098)
(7.3665942e-06 -2.2636163e-06 1.0915113)
(3.4403045e-06 -7.2809484e-08 1.0915141)
(-2.2709431e-06 2.7926734e-06 1.0915137)
(3.0509144e-06 4.681539e-06 1.0915153)
(5.6306891e-06 5.6306891e-06 1.0915186)
(3.7762565e-06 5.8239186e-06 1.0915199)
(2.3861677e-06 5.4309603e-06 1.0915208)
(1.1682651e-06 4.6038009e-06 1.0915216)
(1.0874156e-07 -1.0894998e-06 1.0915087)
(1.3599503e-06 1.9433666e-07 1.0915089)
(7.7792831e-06 -1.5796782e-06 1.09151)
(5.7894762e-06 -1.3171259e-06 1.0915135)
(1.7695244e-07 1.5478111e-06 1.0915142)
(4.3244201e-06 3.3505036e-06 1.0915165)
(5.8239186e-06 3.7762565e-06 1.0915199)
(3.1507748e-06 3.1507748e-06 1.0915209)
(1.2315151e-06 2.0335414e-06 1.0915212)
(4.9578952e-07 1.1020866e-06 1.0915213)
(1.2684765e-06 -1.8966553e-06 1.0915087)
(1.1712289e-06 1.9806001e-06 1.0915099)
(5.8551316e-06 7.6359571e-07 1.0915099)
(6.5677939e-06 -1.370667e-06 1.0915131)
(2.3966864e-06 9.2197834e-07 1.0915147)
(5.2793598e-06 2.4516328e-06 1.0915175)
(5.4309603e-06 2.3861676e-06 1.0915208)
(2.0335414e-06 1.2315151e-06 1.0915212)
(3.3747946e-07 3.3747943e-07 1.091521)
(2.3681024e-07 2.5135227e-07 1.0915218)
(3.9859969e-06 -1.5700218e-06 1.0915067)
(4.0202012e-06 1.1474986e-06 1.0915105)
(4.4280161e-06 1.2789506e-06 1.0915109)
(5.9478588e-06 -2.7961697e-07 1.0915135)
(3.9992523e-06 6.5901548e-07 1.0915157)
(5.7886094e-06 1.3229489e-06 1.0915188)
(4.6038009e-06 1.1682651e-06 1.0915216)
(1.1020866e-06 4.9578954e-07 1.0915213)
(2.5135228e-07 2.3681023e-07 1.0915218)
(4.0966237e-07 4.0966236e-07 1.0915219)
(3.3844159e-06 3.3844159e-06 1.105685)
(1.2336279e-06 -2.2363134e-06 1.1056868)
(8.227598e-06 5.5339825e-06 1.1056859)
(3.6697612e-06 2.328822e-08 1.1056884)
(-1.335621e-05 -1.133166e-06 1.1056858)
(-9.5458702e-06 -4.0567709e-07 1.105684)
(-3.8526498e-06 3.6433566e-07 1.1056837)
(-1.1415201e-06 1.677162e-07 1.1056833)
(-2.6897725e-06 1.6459832e-06 1.1056835)
(-2.5026168e-06 5.6293275e-06 1.1056817)
(-2.2363134e-06 1.2336279e-06 1.1056868)
(3.3831944e-06 3.3831944e-06 1.1056862)
(1.04872e-05 7.1415791e-06 1.1056872)
(-2.9973872e-06 -2.7308844e-07 1.1056881)
(-1.3785175e-05 -1.1848461e-06 1.1056854)
(-8.0483686e-06 7.8133134e-07 1.1056842)
(-3.2792566e-06 2.6729557e-06 1.1056843)
(1.401274e-07 1.8615046e-06 1.1056833)
(2.7718388e-06 1.5152816e-06 1.1056841)
(1.4807275e-06 5.9231418e-06 1.1056848)
(5.5339825e-06 8.227598e-06 1.1056859)
(7.1415791e-06 1.04872e-05 1.1056872)
(4.5713151e-06 4.5713151e-06 1.105687)
(-4.656664e-06 2.4611515e-06 1.1056875)
(-1.230179e-05 3.5775999e-06 1.1056851)
(-5.6880683e-06 6.390725e-06 1.1056847)
(-2.7724766e-06 9.4167825e-06 1.1056856)
(-2.2991943e-06 9.9709506e-06 1.1056843)
(1.3718647e-06 7.4386626e-06 1.1056842)
(1.9052434e-06 6.0255737e-06 1.1056854)
(2.328822e-08 3.6697612e-06 1.1056884)
(-2.7308844e-07 -2.9973872e-06 1.1056881)
(2.4611515e-06 -4.656664e-06 1.1056875)
(-3.9911024e-06 -3.9911024e-06 1.105688)
(-9.8556014e-06 -1.8952189e-06 1.1056863)
(-2.2091859e-06 1.2005908e-06 1.1056868)
(3.0096903e-07 4.9642147e-06 1.1056887)
(-1.8379925e-06 8.1590746e-06 1.105688)
(-1.1735381e-06 9.2083973e-06 1.1056876)
(6.7638551e-08 8.5631249e-06 1.1056883)
(-1.133166e-06 -1.335621e-05 1.1056858)
(-1.1848461e-06 -1.3785175e-05 1.1056854)
(3.5775999e-06 -1.230179e-05 1.1056851)
(-1.8952189e-06 -9.8556014e-06 1.1056863)
(-7.1100965e-06 -7.1100965e-06 1.1056851)
(1.1713652e-06 -4.2227285e-06 1.1056865)
(4.1860071e-06 -1.0698664e-06 1.1056894)
(1.9449884e-06 2.1947129e-06 1.1056897)
(1.7759151e-06 5.0440789e-06 1.1056901)
(1.259971e-06 7.01031e-06 1.1056912)
(-4.0567709e-07 -9.5458702e-06 1.105684)
(7.8133131e-07 -8.0483686e-06 1.1056842)
(6.390725e-06 -5.6880683e-06 1.1056847)
(1.2005908e-06 -2.2091859e-06 1.1056868)
(-4.2227285e-06 1.1713653e-06 1.1056865)
(3.8310442e-06 3.8310442e-06 1.1056885)
(6.7184104e-06 5.9260256e-06 1.1056921)
(4.2759528e-06 7.5430515e-06 1.105693)
(3.642059e-06 8.6194754e-06 1.1056937)
(2.0338696e-06 8.9796485e-06 1.105695)
(3.6433564e-07 -3.8526499e-06 1.1056837)
(2.6729557e-06 -3.2792566e-06 1.1056843)
(9.4167825e-06 -2.7724766e-06 1.1056856)
(4.9642147e-06 3.0096902e-07 1.1056887)
(-1.0698664e-06 4.1860071e-06 1.1056894)
(5.9260255e-06 6.7184104e-06 1.1056921)
(7.8980145e-06 7.8980145e-06 1.105696)
(4.6384382e-06 7.9411748e-06 1.1056969)
(3.2125121e-06 7.1039161e-06 1.1056974)
(1.6201441e-06 5.6340497e-06 1.1056981)
(1.677162e-07 -1.1415201e-06 1.1056833)
(1.8615046e-06 1.4012741e-07 1.1056833)
(9.9709506e-06 -2.2991943e-06 1.1056843)
(8.1590746e-06 -1.8379925e-06 1.105688)
(2.1947129e-06 1.9449883e-06 1.1056897)
(7.5430516e-06 4.2759528e-06 1.105693)
(7.9411748e-06 4.6384382e-06 1.1056969)
(3.4818544e-06 3.4818544e-06 1.1056974)
(1.3349338e-06 1.8673343e-06 1.105697)
(5.6400316e-07 1.1440887e-06 1.1056968)
(1.6459832e-06 -2.6897725e-06 1.1056835)
(1.5152816e-06 2.7718388e-06 1.1056841)
(7.4386626e-06 1.3718647e-06 1.1056842)
(9.2083973e-06 -1.1735381e-06 1.1056876)
(5.044079e-06 1.7759151e-06 1.1056901)
(8.6194754e-06 3.6420589e-06 1.1056937)
(7.1039161e-06 3.212512e-06 1.1056974)
(1.8673343e-06 1.3349338e-06 1.105697)
(8.7474636e-07 8.7474633e-07 1.1056964)
(8.9689861e-07 7.3175378e-07 1.1056978)
(5.6293275e-06 -2.5026168e-06 1.1056817)
(5.9231418e-06 1.4807275e-06 1.1056848)
(6.0255737e-06 1.9052434e-06 1.1056854)
(8.5631249e-06 6.7638551e-08 1.1056883)
(7.01031e-06 1.259971e-06 1.1056912)
(8.9796485e-06 2.0338696e-06 1.105695)
(5.6340497e-06 1.6201441e-06 1.1056981)
(1.1440887e-06 5.6400316e-07 1.1056968)
(7.317538e-07 8.9689861e-07 1.1056978)
(4.2101061e-07 4.2101061e-07 1.1056978)
(3.7851016e-06 3.7851016e-06 1.1244641)
(1.1058153e-06 -2.7405229e-06 1.1244647)
(9.0104305e-06 5.9724558e-06 1.1244638)
(3.9284594e-06 -2.9816924e-07 1.1244666)
(-1.5052421e-05 -1.4920015e-06 1.124465)
(-1.0167003e-05 -4.4026533e-07 1.1244641)
(-3.9829254e-06 5.904095e-07 1.1244646)
(-1.3047576e-06 1.2627646e-07 1.1244646)
(-3.5339599e-06 1.9472039e-06 1.1244647)
(-3.3362881e-06 7.0583604e-06 1.1244632)
(-2.7405229e-06 1.1058153e-06 1.1244647)
(3.2931695e-06 3.2931695e-06 1.1244637)
(1.1452784e-05 7.4833854e-06 1.1244646)
(-3.5359979e-06 -8.8818593e-07 1.124466)
(-1.5194517e-05 -1.6557384e-06 1.1244643)
(-8.0845922e-06 1.0424257e-06 1.1244641)
(-3.4163835e-06 3.5762972e-06 1.1244651)
(5.2036838e-08 2.313894e-06 1.1244646)
(3.398124e-06 1.8960462e-06 1.1244654)
(1.7748683e-06 7.7381258e-06 1.124466)
(5.9724558e-06 9.0104306e-06 1.1244638)
(7.4833854e-06 1.1452784e-05 1.1244646)
(4.8290751e-06 4.8290751e-06 1.1244646)
(-5.2106644e-06 2.5972988e-06 1.1244656)
(-1.3121809e-05 4.1751928e-06 1.1244642)
(-4.9349677e-06 7.8432713e-06 1.1244649)
(-2.7114571e-06 1.1784723e-05 1.1244667)
(-2.9850085e-06 1.2448872e-05 1.1244658)
(1.890272e-06 9.3514864e-06 1.1244657)
(2.5057914e-06 7.9689706e-06 1.124467)
(-2.9816924e-07 3.9284595e-06 1.1244666)
(-8.8818597e-07 -3.5359979e-06 1.124466)
(2.5972988e-06 -5.2106643e-06 1.1244656)
(-4.1898802e-06 -4.1898802e-06 1.1244668)
(-9.9485447e-06 -1.4712016e-06 1.124466)
(-4.7506217e-07 2.4809005e-06 1.1244675)
(1.1892176e-06 7.2601115e-06 1.1244703)
(-2.3811996e-06 1.1220294e-05 1.12447)
(-1.0817778e-06 1.2467173e-05 1.1244696)
(3.9235255e-07 1.1751384e-05 1.1244703)
(-1.4920015e-06 -1.5052421e-05 1.124465)
(-1.6557384e-06 -1.5194517e-05 1.1244643)
(4.1751928e-06 -1.3121809e-05 1.1244642)
(-1.4712016e-06 -9.9485447e-06 1.124466)
(-6.4510288e-06 -6.4510288e-06 1.1244658)
(3.7963454e-06 -2.7987623e-06 1.1244682)
(6.027936e-06 1.1525431e-06 1.1244719)
(2.2220531e-06 5.1495796e-06 1.1244725)
(2.4213627e-06 8.5148967e-06 1.1244728)
(1.7900026e-06 1.0730088e-05 1.1244739)
(-4.4026533e-07 -1.0167003e-05 1.1244641)
(1.0424257e-06 -8.0845922e-06 1.1244641)
(7.8432713e-06 -4.9349677e-06 1.1244649)
(2.4809005e-06 -4.7506218e-07 1.1244675)
(-2.7987623e-06 3.7963454e-06 1.1244682)
(7.1285096e-06 7.1285097e-06 1.1244712)
(9.1375594e-06 9.6933213e-06 1.1244756)
(4.9811541e-06 1.1555013e-05 1.1244766)
(4.4987309e-06 1.2607772e-05 1.1244772)
(2.6075441e-06 1.2644554e-05 1.1244783)
(5.9040947e-07 -3.9829253e-06 1.1244646)
(3.5762972e-06 -3.4163835e-06 1.1244651)
(1.1784723e-05 -2.7114571e-06 1.1244667)
(7.2601115e-06 1.1892176e-06 1.1244703)
(1.1525431e-06 6.027936e-06 1.1244719)
(9.6933213e-06 9.1375594e-06 1.1244756)
(1.045444e-05 1.045444e-05 1.1244802)
(5.1365035e-06 1.0195456e-05 1.1244812)
(3.5109035e-06 8.7053117e-06 1.1244814)
(1.8267849e-06 6.3842974e-06 1.1244817)
(1.2627646e-07 -1.3047576e-06 1.1244646)
(2.313894e-06 5.2036838e-08 1.1244646)
(1.2448872e-05 -2.9850085e-06 1.1244658)
(1.1220294e-05 -2.3811996e-06 1.12447)
(5.1495795e-06 2.2220531e-06 1.1244725)
(1.1555013e-05 4.9811541e-06 1.1244766)
(1.0195456e-05 5.1365035e-06 1.1244812)
(3.2320262e-06 3.2320262e-06 1.1244815)
(6.8757277e-07 9.8896749e-07 1.1244807)
(2.8652978e-07 8.4898719e-07 1.1244799)
(1.9472039e-06 -3.5339599e-06 1.1244647)
(1.8960462e-06 3.398124e-06 1.1244654)
(9.3514864e-06 1.8902719e-06 1.1244657)
(1.2467173e-05 -1.0817778e-06 1.1244696)
(8.5148968e-06 2.4213627e-06 1.1244728)
(1.2607772e-05 4.4987309e-06 1.1244772)
(8.7053116e-06 3.5109035e-06 1.1244814)
(9.8896753e-07 6.8757275e-07 1.1244807)
(1.1278645e-06 1.1278644e-06 1.1244794)
(1.6868046e-06 1.2694658e-06 1.1244809)
(7.0583604e-06 -3.3362881e-06 1.1244632)
(7.7381258e-06 1.7748683e-06 1.124466)
(7.9689706e-06 2.5057914e-06 1.124467)
(1.1751384e-05 3.9235257e-07 1.1244703)
(1.0730088e-05 1.7900026e-06 1.1244739)
(1.2644554e-05 2.6075441e-06 1.1244783)
(6.3842974e-06 1.8267849e-06 1.1244817)
(8.4898722e-07 2.865298e-07 1.1244799)
(1.2694658e-06 1.6868046e-06 1.1244809)
(4.2813118e-07 4.2813116e-07 1.1244809)
(4.0019459e-06 4.0019459e-06 1.147747)
(9.1458404e-07 -3.2746891e-06 1.1477474)
(1.0125778e-05 6.3736702e-06 1.1477468)
(4.8301526e-06 -6.0428788e-07 1.14775)
(-1.5836542e-05 -1.820205e-06 1.1477492)
(-9.867338e-06 -4.3937366e-07 1.1477492)
(-3.3896685e-06 8.6683356e-07 1.1477505)
(-1.0856401e-06 1.5412677e-07 1.147751)
(-4.1224604e-06 2.326407e-06 1.1477514)
(-4.0127057e-06 8.4817256e-06 1.1477501)
(-3.2746891e-06 9.1458403e-07 1.1477474)
(3.2863083e-06 3.2863083e-06 1.1477465)
(1.2796179e-05 7.9511282e-06 1.1477477)
(-3.3637226e-06 -1.2966394e-06 1.1477495)
(-1.5671628e-05 -1.8983951e-06 1.1477486)
(-7.1802994e-06 1.5305353e-06 1.1477493)
(-2.796168e-06 4.710754e-06 1.1477511)
(3.7393338e-07 3.005401e-06 1.1477512)
(4.2051384e-06 2.5422105e-06 1.1477522)
(2.1426129e-06 9.7063651e-06 1.147753)
(6.3736702e-06 1.0125778e-05 1.1477468)
(7.9511282e-06 1.2796179e-05 1.1477477)
(5.5428304e-06 5.5428304e-06 1.147748)
(-5.0193707e-06 3.2304609e-06 1.1477495)
(-1.3009368e-05 5.2758152e-06 1.147749)
(-3.2581889e-06 9.7815912e-06 1.1477505)
(-1.9148028e-06 1.4606288e-05 1.147753)
(-3.2541836e-06 1.5337935e-05 1.1477527)
(2.5785037e-06 1.1676876e-05 1.1477529)
(3.1514489e-06 1.0287053e-05 1.1477543)
(-6.0428785e-07 4.8301526e-06 1.14775)
(-1.2966394e-06 -3.3637226e-06 1.1477495)
(3.2304609e-06 -5.0193707e-06 1.1477495)
(-3.6307378e-06 -3.6307378e-06 1.1477512)
(-9.1204977e-06 -2.9646736e-07 1.1477513)
(2.1501738e-06 4.4868614e-06 1.1477536)
(2.760176e-06 1.0237627e-05 1.1477572)
(-2.5554789e-06 1.4896418e-05 1.1477573)
(-8.4574368e-07 1.6285355e-05 1.1477572)
(7.527899e-07 1.5456145e-05 1.147758)
(-1.820205e-06 -1.5836542e-05 1.1477492)
(-1.8983951e-06 -1.5671628e-05 1.1477486)
(5.2758152e-06 -1.3009368e-05 1.147749)
(-2.9646738e-07 -9.1204978e-06 1.1477513)
(-4.8917684e-06 -4.8917684e-06 1.1477519)
(7.2759055e-06 -5.0523693e-07 1.1477551)
(8.4947539e-06 4.1998465e-06 1.1477595)
(2.793544e-06 8.8630541e-06 1.1477605)
(3.1382304e-06 1.2665222e-05 1.147761)
(2.322239e-06 1.5055214e-05 1.1477621)
(-4.3937364e-07 -9.867338e-06 1.1477492)
(1.5305353e-06 -7.1802994e-06 1.1477493)
(9.7815911e-06 -3.2581889e-06 1.1477505)
(4.4868614e-06 2.1501739e-06 1.1477536)
(-5.0523691e-07 7.2759056e-06 1.1477551)
(1.1241789e-05 1.1241789e-05 1.1477588)
(1.2128467e-05 1.422812e-05 1.1477639)
(5.9098965e-06 1.6265255e-05 1.1477653)
(5.346416e-06 1.7198904e-05 1.147766)
(3.1427818e-06 1.6801195e-05 1.1477671)
(8.6683358e-07 -3.3896685e-06 1.1477505)
(4.710754e-06 -2.796168e-06 1.1477511)
(1.4606288e-05 -1.9148028e-06 1.147753)
(1.0237627e-05 2.760176e-06 1.1477572)
(4.1998465e-06 8.4947539e-06 1.1477595)
(1.422812e-05 1.2128467e-05 1.1477639)
(1.351822e-05 1.351822e-05 1.1477691)
(5.7643277e-06 1.2856805e-05 1.1477704)
(3.6741701e-06 1.0562965e-05 1.1477706)
(1.9245298e-06 7.2071101e-06 1.1477708)
(1.5412682e-07 -1.0856401e-06 1.147751)
(3.0054009e-06 3.739334e-07 1.1477512)
(1.5337935e-05 -3.2541835e-06 1.1477527)
(1.4896418e-05 -2.5554789e-06 1.1477573)
(8.8630542e-06 2.793544e-06 1.1477605)
(1.6265255e-05 5.9098965e-06 1.1477653)
(1.2856805e-05 5.7643277e-06 1.1477704)
(2.9546411e-06 2.9546411e-06 1.147771)
(-3.0327914e-07 -9.7691698e-08 1.14777)
(-2.1307276e-07 3.8602904e-07 1.1477689)
(2.326407e-06 -4.1224604e-06 1.1477514)
(2.5422105e-06 4.2051383e-06 1.1477522)
(1.1676876e-05 2.5785037e-06 1.1477529)
(1.6285355e-05 -8.4574368e-07 1.1477572)
(1.2665222e-05 3.1382304e-06 1.147761)
(1.7198904e-05 5.346416e-06 1.147766)
(1.0562965e-05 3.6741701e-06 1.1477706)
(-9.769169e-08 -3.0327916e-07 1.14777)
(1.105558e-06 1.105558e-06 1.1477685)
(2.4082506e-06 1.7083791e-06 1.1477699)
(8.4817256e-06 -4.0127057e-06 1.1477501)
(9.7063651e-06 2.1426129e-06 1.147753)
(1.0287053e-05 3.1514489e-06 1.1477543)
(1.5456145e-05 7.5278989e-07 1.147758)
(1.5055214e-05 2.322239e-06 1.1477621)
(1.6801195e-05 3.1427818e-06 1.1477671)
(7.2071101e-06 1.9245298e-06 1.1477708)
(3.8602904e-07 -2.1307276e-07 1.1477689)
(1.7083792e-06 2.4082506e-06 1.1477699)
(3.8974836e-07 3.8974838e-07 1.1477697)
(4.2616227e-06 4.2616227e-06 1.17541)
(9.5434678e-07 -3.7046195e-06 1.1754106)
(1.1609703e-05 6.8355745e-06 1.1754104)
(6.267728e-06 -8.0680287e-07 1.1754139)
(-1.5883574e-05 -2.0365533e-06 1.1754136)
(-8.8330849e-06 -3.3310642e-07 1.1754144)
(-2.1634684e-06 1.2435988e-06 1.1754162)
(-4.299765e-07 2.8462523e-07 1.1754173)
(-4.4265777e-06 2.7954682e-06 1.1754179)
(-4.5613083e-06 9.9374176e-06 1.1754169)
(-3.7046195e-06 9.5434678e-07 1.1754106)
(3.5282985e-06 3.5282985e-06 1.1754099)
(1.4507519e-05 8.6598376e-06 1.1754113)
(-2.6043998e-06 -1.4029239e-06 1.1754136)
(-1.5409878e-05 -1.8311415e-06 1.1754133)
(-5.5529329e-06 2.310724e-06 1.1754147)
(-1.5457368e-06 6.1176836e-06 1.1754171)
(1.1218929e-06 3.9643778e-06 1.1754176)
(5.2262147e-06 3.4508001e-06 1.1754189)
(2.5806411e-06 1.1856107e-05 1.1754198)
(6.8355745e-06 1.1609703e-05 1.1754104)
(8.6598376e-06 1.4507519e-05 1.1754113)
(6.6784803e-06 6.6784803e-06 1.175412)
(-4.2232511e-06 4.3086122e-06 1.1754139)
(-1.2169926e-05 6.8149516e-06 1.175414)
(-8.8425979e-07 1.2132169e-05 1.1754161)
(-5.0981462e-07 1.7803311e-05 1.1754193)
(-3.09686e-06 1.8571184e-05 1.1754194)
(3.4651519e-06 1.4345561e-05 1.1754199)
(3.8439989e-06 1.2923057e-05 1.1754213)
(-8.0680287e-07 6.267728e-06 1.1754139)
(-1.4029239e-06 -2.6043998e-06 1.1754136)
(4.3086122e-06 -4.2232511e-06 1.1754139)
(-2.4679284e-06 -2.4679284e-06 1.1754161)
(-7.586321e-06 1.4650934e-06 1.1754167)
(5.4354264e-06 7.0485447e-06 1.1754197)
(4.8932787e-06 1.3725986e-05 1.1754237)
(-2.3358573e-06 1.9029943e-05 1.1754243)
(-4.2191249e-07 2.0523115e-05 1.1754245)
(1.1581377e-06 1.9555656e-05 1.1754253)
(-2.0365533e-06 -1.5883574e-05 1.1754136)
(-1.8311415e-06 -1.5409878e-05 1.1754133)
(6.8149516e-06 -1.2169926e-05 1.175414)
(1.4650934e-06 -7.5863209e-06 1.1754167)
(-2.6534533e-06 -2.6534533e-06 1.175418)
(1.1376633e-05 2.4337421e-06 1.1754217)
(1.1471584e-05 7.8499624e-06 1.1754266)
(3.7002683e-06 1.3125953e-05 1.175428)
(3.990865e-06 1.7309854e-05 1.1754287)
(2.8765404e-06 1.982944e-05 1.1754298)
(-3.331064e-07 -8.8330849e-06 1.1754144)
(2.310724e-06 -5.5529329e-06 1.1754147)
(1.2132169e-05 -8.8425979e-07 1.1754161)
(7.0485446e-06 5.4354264e-06 1.1754197)
(2.4337421e-06 1.1376633e-05 1.1754217)
(1.5938842e-05 1.5938842e-05 1.175426)
(1.558549e-05 1.9307002e-05 1.1754314)
(7.1240338e-06 2.1473074e-05 1.1754332)
(6.2815745e-06 2.2234177e-05 1.1754341)
(3.6777243e-06 2.1349523e-05 1.1754352)
(1.2435988e-06 -2.1634684e-06 1.1754162)
(6.1176836e-06 -1.5457368e-06 1.1754171)
(1.7803311e-05 -5.0981466e-07 1.1754193)
(1.3725986e-05 4.8932787e-06 1.1754237)
(7.8499623e-06 1.1471584e-05 1.1754266)
(1.9307002e-05 1.558549e-05 1.1754314)
(1.7005816e-05 1.7005816e-05 1.1754371)
(6.6274428e-06 1.5889484e-05 1.1754387)
(3.8673142e-06 1.2719329e-05 1.175439)
(1.9918869e-06 8.2370134e-06 1.1754392)
(2.8462521e-07 -4.2997652e-07 1.1754173)
(3.9643778e-06 1.1218929e-06 1.1754176)
(1.8571185e-05 -3.09686e-06 1.1754194)
(1.9029943e-05 -2.3358573e-06 1.1754243)
(1.3125953e-05 3.7002683e-06 1.175428)
(2.1473074e-05 7.1240338e-06 1.1754332)
(1.5889484e-05 6.6274428e-06 1.1754387)
(2.8375475e-06 2.8375475e-06 1.1754395)
(-1.3708964e-06 -1.1293297e-06 1.1754386)
(-8.0459166e-07 -7.0098432e-08 1.1754374)
(2.7954682e-06 -4.4265777e-06 1.1754179)
(3.4508001e-06 5.2262147e-06 1.1754189)
(1.4345561e-05 3.4651519e-06 1.1754199)
(2.0523115e-05 -4.219125e-07 1.1754245)
(1.7309854e-05 3.990865e-06 1.1754287)
(2.2234177e-05 6.2815745e-06 1.1754341)
(1.2719329e-05 3.8673142e-06 1.175439)
(-1.1293297e-06 -1.3708964e-06 1.1754386)
(9.5966827e-07 9.5966827e-07 1.1754371)
(3.0511182e-06 2.0657263e-06 1.1754383)
(9.9374176e-06 -4.5613083e-06 1.1754169)
(1.1856107e-05 2.5806411e-06 1.1754198)
(1.2923057e-05 3.8439989e-06 1.1754213)
(1.9555656e-05 1.1581377e-06 1.1754253)
(1.982944e-05 2.8765404e-06 1.1754298)
(2.1349523e-05 3.6777243e-06 1.1754352)
(8.2370134e-06 1.9918869e-06 1.1754392)
(-7.0098432e-08 -8.0459168e-07 1.1754374)
(2.0657264e-06 3.0511182e-06 1.1754383)
(3.0146641e-07 3.0146643e-07 1.1754381)
(4.5825307e-06 4.5825307e-06 1.2073035)
(1.2216815e-06 -4.0274658e-06 1.2073042)
(1.3376759e-05 7.3476073e-06 1.2073042)
(8.1038034e-06 -9.1601321e-07 1.2073079)
(-1.5357493e-05 -2.1529151e-06 1.2073082)
(-7.250788e-06 -1.3689739e-07 1.2073094)
(-4.6814417e-07 1.7004993e-06 1.2073117)
(5.7170269e-07 4.9714099e-07 1.2073131)
(-4.5019117e-06 3.3290278e-06 1.207314)
(-5.0146579e-06 1.1408913e-05 1.2073131)
(-4.0274658e-06 1.2216815e-06 1.2073042)
(3.9867582e-06 3.9867582e-06 1.2073036)
(1.6488212e-05 9.5604851e-06 1.2073053)
(-1.396719e-06 -1.258919e-06 1.2073078)
(-1.4578377e-05 -1.5107572e-06 1.207308)
(-3.3973737e-06 3.3196511e-06 1.2073099)
(1.6589423e-07 7.7281074e-06 1.2073127)
(2.2002312e-06 5.1278449e-06 1.2073136)
(6.4098599e-06 4.556711e-06 1.2073151)
(3.0652268e-06 1.4138777e-05 1.2073161)
(7.3476074e-06 1.3376759e-05 1.2073042)