/*--------------------------------*- C++ -*----------------------------------*\
| =========                 |                                                 |
| \\      /  F ield         | OpenFOAM: The Open Source CFD Toolbox           |
|  \\    /   O peration     | Version:  v2106                                 |
|   \\  /    A nd           | Website:  www.openfoam.com                      |
|    \\/     M anipulation  |                                                 |
\*---------------------------------------------------------------------------*/
FoamFile
{
    version     2.0;
    format      ascii;
    arch        "LSB;label=32;scalar=64";
    class       volVectorField;
    location    "10";
    object      gradT;
}
// * * * * * * * * * * * * * * * * * * * * * * * * * * * * * * * * * * * * * //

dimensions      [0 -1 0 1 0 0 0];

internalField   nonuniform List<vector> 
4000
(
(-0.00040214317 -0.00040214315 430.9058)
(-0.00099668016 -0.00094110125 430.90525)
(0.00091450591 0.00050282147 430.9038)
(0.00102801 -0.00018961847 430.90837)
(-0.0010528582 -0.00036655796 430.90658)
(-0.00084657643 -0.00034457246 430.90451)
(-0.00035040955 -0.00028478013 430.90351)
(-9.4170009e-05 -0.00024390972 430.90322)
(-3.8011337e-05 -0.0001876224 430.90311)
(-1.9499673e-05 -2.2368947e-05 430.9029)
(-0.00094110125 -0.00099668016 430.90525)
(-9.1715531e-05 -9.1715531e-05 430.90332)
(0.0016659887 0.00076336137 430.90573)
(0.00015863051 -0.00016815578 430.90816)
(-0.0012078122 -0.00035624279 430.90583)
(-0.00076479859 -0.00027003421 430.90387)
(-0.0002497468 -0.00015046591 430.90309)
(2.9877142e-06 -0.00012543545 430.90294)
(0.00018352944 -0.00016943118 430.90311)
(0.00014575378 -1.1027047e-05 430.90359)
(0.00050282147 0.00091450591 430.9038)
(0.00076336137 0.0016659887 430.90573)
(0.00083806565 0.00083806564 430.90647)
(-9.1594198e-05 0.00055686751 430.90814)
(-0.0011547366 0.0005950576 430.9058)
(-0.00064079956 0.00075112189 430.90409)
(-0.0002058108 0.00091854473 430.90354)
(-0.00011313529 0.00097018857 430.90329)
(7.6397062e-05 0.00080254583 430.90307)
(0.00013890446 0.00058984957 430.90356)
(-0.00018961848 0.00102801 430.90837)
(-0.00016815579 0.00015863052 430.90816)
(0.00055686752 -9.1594201e-05 430.90814)
(-8.4377515e-05 -8.4377515e-05 430.90968)
(-0.0010135578 3.9569858e-05 430.90753)
(-0.00044131147 0.00022268861 430.90618)
(-3.0680118e-05 0.00044328743 430.90606)
(-0.00011301119 0.00064526278 430.90607)
(-0.00019680957 0.00071224348 430.9056)
(-6.6942483e-05 0.00060769179 430.9054)
(-0.00036655797 -0.0010528582 430.90658)
(-0.00035624279 -0.0012078122 430.90583)
(0.0005950576 -0.0011547366 430.9058)
(3.9569858e-05 -0.0010135578 430.90753)
(-0.00084767045 -0.00084767045 430.90566)
(-0.00023708198 -0.00067493858 430.90467)
(0.00021676337 -0.00048328588 430.90499)
(0.00015582075 -0.00026777124 430.90552)
(3.8826079e-05 -5.1857227e-05 430.90553)
(3.4352764e-05 0.00012041194 430.90569)
(-0.00034457247 -0.00084657644 430.90451)
(-0.0002700342 -0.0007647986 430.90387)
(0.00075112189 -0.00064079957 430.90409)
(0.00022268861 -0.00044131145 430.90618)
(-0.00067493858 -0.00023708198 430.90467)
(-7.6926895e-05 -7.6926902e-05 430.90401)
(0.00037648722 5.4452994e-05 430.90464)
(0.00031841747 0.00016901137 430.90548)
(0.00019137362 0.00026883565 430.90581)
(0.00010532668 0.00034585607 430.90622)
(-0.00028478013 -0.00035040955 430.90351)
(-0.00015046591 -0.0002497468 430.90309)
(0.00091854474 -0.0002058108 430.90354)
(0.00044328745 -3.0680125e-05 430.90606)
(-0.0004832859 0.00021676337 430.90499)
(5.4452994e-05 0.00037648722 430.90464)
(0.00046270164 0.00046270163 430.90548)
(0.00037020341 0.00049487182 430.90645)
(0.00021567077 0.00048761637 430.90684)
(0.00011137318 0.00045746831 430.90725)
(-0.00024390972 -9.4170016e-05 430.90322)
(-0.00012543545 2.9877212e-06 430.90294)
(0.00097018857 -0.00011313529 430.90329)
(0.00064526278 -0.00011301119 430.90607)
(-0.00026777124 0.00015582076 430.90552)
(0.00016901136 0.00031841747 430.90548)
(0.00049487182 0.00037020341 430.90645)
(0.00034333222 0.00034333222 430.9074)
(0.00015397011 0.00026984292 430.90767)
(7.5178627e-05 0.00018804154 430.90792)
(-0.0001876224 -3.8011334e-05 430.90311)
(-0.00016943118 0.00018352944 430.90311)
(0.00080254583 7.6397055e-05 430.90307)
(0.00071224349 -0.00019680956 430.9056)
(-5.1857234e-05 3.8826067e-05 430.90553)
(0.00026883565 0.00019137361 430.90581)
(0.00048761637 0.00021567077 430.90684)
(0.00026984292 0.00015397011 430.90767)
(6.0380086e-05 6.038009e-05 430.90775)
(2.95718e-05 -3.2988542e-07 430.90783)
(-2.2368954e-05 -1.9499669e-05 430.9029)
(-1.1027054e-05 0.00014575378 430.90359)
(0.00058984957 0.00013890447 430.90356)
(0.00060769179 -6.694249e-05 430.9054)
(0.00012041194 3.4352764e-05 430.90569)
(0.00034585606 0.00010532668 430.90622)
(0.00045746832 0.00011137318 430.90725)
(0.00018804154 7.517862e-05 430.90792)
(-3.2988196e-07 2.9571807e-05 430.90783)
(1.4468652e-05 1.4468655e-05 430.90796)
(-0.00014758206 -0.00014758205 432.80759)
(-0.00099886256 -0.00098564484 432.80881)
(0.0022009281 0.0014187086 432.80867)
(0.0017456101 -1.9291718e-05 432.81084)
(-0.0028057147 -0.00037920591 432.80924)
(-0.0022222005 -0.00029124303 432.80763)
(-0.00093759885 -0.00013189246 432.80689)
(-0.00030931036 -4.0273129e-05 432.80666)
(-0.00027707288 0.00018638109 432.80655)
(-0.00018227713 0.00070494242 432.80594)
(-0.00098564485 -0.00099886256 432.80881)
(0.0005674281 0.00056742811 432.80887)
(0.0031672812 0.0018993074 432.81005)
(-5.2304411e-05 -5.3623099e-05 432.81104)
(-0.003077666 -0.00042330755 432.80919)
(-0.0019748871 -0.00014637309 432.80773)
(-0.00068662895 0.00018401164 432.80717)
(8.9631844e-06 0.00019975168 432.80695)
(0.00046814266 0.00013125976 432.80724)
(0.00033628419 0.0006660658 432.80756)
(0.0014187086 0.0022009281 432.80867)
(0.0018993074 0.0031672812 432.81005)
(0.0015798769 0.0015798769 432.81045)
(-0.00057700479 0.00097001417 432.81102)
(-0.0028984647 0.0011000018 432.80922)
(-0.0016148814 0.0015568838 432.80803)
(-0.00059147407 0.0020455501 432.8077)
(-0.00036206223 0.0021611077 432.80733)
(0.00018924122 0.0016890778 432.80718)
(0.00035252891 0.0012238126 432.80756)
(-1.9291724e-05 0.0017456101 432.81084)
(-5.3623113e-05 -5.2304404e-05 432.81104)
(0.00097001417 -0.00057700479 432.81102)
(-0.00053217943 -0.00053217942 432.81153)
(-0.0024907964 -0.00017808454 432.80992)
(-0.0010293388 0.0003582476 432.80909)
(-8.2405045e-05 0.0010073419 432.8092)
(-0.00034750915 0.0015778526 432.80909)
(-0.0004691524 0.0017533707 432.80878)
(-0.00012898096 0.001519574 432.80874)
(-0.00037920591 -0.0028057147 432.80924)
(-0.00042330756 -0.003077666 432.80919)
(0.0011000018 -0.0028984647 432.80922)
(-0.00017808454 -0.0024907964 432.80992)
(-0.0020080377 -0.0020080377 432.80858)
(-0.00042945491 -0.0014972055 432.8081)
(0.00062813093 -0.00093173658 432.80864)
(0.00038396654 -0.0003165656 432.809)
(0.00013096262 0.00026358834 432.8091)
(0.00011873225 0.00069788559 432.80933)
(-0.00029124302 -0.0022222005 432.80763)
(-0.00014637309 -0.0019748871 432.80773)
(0.0015568838 -0.0016148814 432.80803)
(0.00035824761 -0.0010293388 432.80909)
(-0.0014972056 -0.0004294549 432.8081)
(4.6962323e-05 4.6962326e-05 432.80793)
(0.0010982349 0.00043584484 432.80877)
(0.00084781575 0.0007660143 432.80943)
(0.00054529879 0.0010365364 432.80979)
(0.00030531629 0.001219461 432.81022)
(-0.00013189246 -0.00093759884 432.80689)
(0.00018401164 -0.00068662895 432.80717)
(0.0020455501 -0.00059147407 432.8077)
(0.0010073419 -8.2405052e-05 432.8092)
(-0.00093173658 0.00062813093 432.80864)
(0.00043584484 0.0010982349 432.80877)
(0.0013471829 0.0013471829 432.8098)
(0.00098465809 0.0014264473 432.81056)
(0.00058440928 0.0013776382 432.81094)
(0.0003016568 0.0012415842 432.8113)
(-4.0273129e-05 -0.00030931036 432.80666)
(0.00019975169 8.9631844e-06 432.80695)
(0.0021611077 -0.00036206223 432.80733)
(0.0015778526 -0.00034750916 432.80909)
(-0.00031656559 0.00038396653 432.809)
(0.00076601429 0.00084781575 432.80943)
(0.0014264473 0.00098465809 432.81056)
(0.00087827106 0.00087827106 432.81126)
(0.00036043568 0.00063609292 432.81148)
(0.00016926229 0.0003866343 432.8116)
(0.00018638108 -0.00027707288 432.80655)
(0.00013125976 0.00046814266 432.80724)
(0.0016890778 0.00018924121 432.80718)
(0.0017533707 -0.0004691524 432.80878)
(0.00026358833 0.00013096262 432.8091)
(0.0010365364 0.00054529877 432.80979)
(0.0013776382 0.00058440928 432.81094)
(0.00063609292 0.00036043568 432.81148)
(9.2772522e-05 9.2772522e-05 432.81149)
(5.219818e-05 4.1162185e-05 432.81155)
(0.00070494241 -0.00018227713 432.80594)
(0.0006660658 0.0003362842 432.80756)
(0.0012238126 0.00035252891 432.80756)
(0.001519574 -0.00012898096 432.80874)
(0.00069788559 0.00011873224 432.80933)
(0.001219461 0.0003053163 432.81022)
(0.0012415842 0.0003016568 432.8113)
(0.0003866343 0.00016926229 432.8116)
(4.1162185e-05 5.2198183e-05 432.81155)
(0.00011765194 0.00011765194 432.8117)
(0.00081703286 0.00081703287 436.60401)
(8.9946169e-05 -0.00088105995 436.60552)
(0.0029453599 0.0018773653 436.60551)
(0.001595853 1.3578205e-05 436.60661)
(-0.0042657095 -0.00041726151 436.60523)
(-0.0032007553 -0.00023893138 436.60407)
(-0.0013167859 -6.1439881e-06 436.60363)
(-0.00043579992 4.3496616e-05 436.60347)
(-0.00075866211 0.00050739058 436.60349)
(-0.00062800872 0.0015943988 436.60267)
(-0.00088105996 8.9946172e-05 436.60552)
(0.0011502786 0.0011502786 436.60561)
(0.0038399981 0.0025419384 436.6063)
(-0.00069877379 1.6530038e-05 436.60663)
(-0.0045182191 -0.00038074672 436.60515)
(-0.0027896377 0.00013264075 436.6042)
(-0.0010343579 0.00066456291 436.60391)
(7.7734659e-05 0.00054398011 436.60357)
(0.00079224003 0.00046849155 436.60396)
(0.00045899945 0.0016080805 436.60421)
(0.0018773653 0.0029453599 436.60551)
(0.0025419384 0.0038399981 436.6063)
(0.0018116114 0.0018116114 436.60646)
(-0.0013268321 0.0010491039 436.60655)
(-0.0041495988 0.0013228735 436.60518)
(-0.0021554456 0.0021064791 436.60453)
(-0.00090544653 0.0029466377 436.60452)
(-0.00063187128 0.0031117132 436.60401)
(0.00030543828 0.0023420527 436.60396)
(0.00051158024 0.0017712064 436.60437)
(1.3578211e-05 0.001595853 436.60661)
(1.6530045e-05 -0.00069877376 436.60663)
(0.0010491038 -0.0013268321 436.60655)
(-0.0011875117 -0.0011875116 436.60665)
(-0.0034608438 -0.0005956367 436.60549)
(-0.0011658736 0.00029327455 436.6052)
(-2.9123794e-05 0.0013761218 436.60563)
(-0.00052685033 0.0023157905 436.6054)
(-0.0005482668 0.0026271176 436.60524)
(-0.0001118468 0.0023791435 436.6054)
(-0.0004172615 -0.0042657095 436.60523)
(-0.00038074674 -0.0045182191 436.60515)
(0.0013228735 -0.0041495988 436.60518)
(-0.0005956367 -0.0034608438 436.60549)
(-0.0026688126 -0.0026688126 436.6046)
(-0.00018368712 -0.0018309584 436.60465)
(0.0011170694 -0.00090837725 436.6055)
(0.00061912445 7.0780978e-05 436.6057)
(0.00036879134 0.00095867454 436.60589)
(0.00026360619 0.0015997009 436.60628)
(-0.00023893138 -0.0032007553 436.60407)
(0.00013264075 -0.0027896378 436.6042)
(0.0021064791 -0.0021554456 436.60453)
(0.00029327456 -0.0011658736 436.6052)
(-0.0018309584 -0.00018368711 436.60465)
(0.00059456174 0.00059456174 436.60501)
(0.0018726156 0.0012203658 436.60614)
(0.0013402015 0.001729768 436.60659)
(0.00098065314 0.0021117439 436.607)
(0.00052917957 0.0023154438 436.60751)
(-6.143995e-06 -0.0013167859 436.60363)
(0.00066456292 -0.0010343579 436.60391)
(0.0029466377 -0.00090544653 436.60452)
(0.0013761218 -2.9123794e-05 436.60563)
(-0.00090837724 0.0011170694 436.6055)
(0.0012203658 0.0018726156 436.60614)
(0.0022522757 0.0022522757 436.60743)
(0.0015105026 0.0023295674 436.60795)
(0.00095446706 0.0021723841 436.6083)
(0.00046730604 0.0018415204 436.60865)
(4.3496623e-05 -0.00043579992 436.60347)
(0.0005439801 7.7734666e-05 436.60357)
(0.0031117132 -0.00063187128 436.60401)
(0.0023157905 -0.00052685034 436.6054)
(7.0780975e-05 0.00061912445 436.6057)
(0.001729768 0.0013402015 436.60659)
(0.0023295674 0.0015105026 436.60795)
(0.0012603099 0.0012603099 436.60834)
(0.00049260605 0.00081341658 436.60846)
(0.00019831581 0.00044083463 436.60852)
(0.00050739059 -0.00075866211 436.60349)
(0.00046849155 0.00079224002 436.60396)
(0.0023420526 0.00030543829 436.60396)
(0.0026271176 -0.0005482668 436.60524)
(0.00095867455 0.00036879134 436.60589)
(0.0021117439 0.00098065312 436.607)
(0.0021723841 0.00095446705 436.6083)
(0.00081341657 0.00049260605 436.60846)
(0.00013499179 0.00013499177 436.60841)
(9.4724097e-05 0.00010054091 436.60872)
(0.0015943987 -0.00062800872 436.60267)
(0.0016080805 0.00045899944 436.60421)
(0.0017712064 0.00051158022 436.60437)
(0.0023791435 -0.00011184679 436.6054)
(0.0015997009 0.00026360619 436.60628)
(0.0023154438 0.00052917956 436.60751)
(0.0018415204 0.00046730604 436.60865)
(0.00044083463 0.00019831582 436.60852)
(0.00010054091 9.4724093e-05 436.60872)
(0.00016386495 0.00016386495 436.60877)
(0.0013537664 0.0013537664 442.27401)
(0.00049345116 -0.00089452536 442.2747)
(0.0032910392 0.002213593 442.27436)
(0.0014679045 9.3152881e-06 442.27536)
(-0.0053424838 -0.00045326639 442.27433)
(-0.0038183481 -0.00016227084 442.27361)
(-0.0015410599 0.00014573426 442.27347)
(-0.00045660805 6.7086479e-05 442.27333)
(-0.001075909 0.00065839328 442.27338)
(-0.0010010467 0.002251731 442.27268)
(-0.00089452536 0.00049345117 442.2747)
(0.0013532778 0.0013532778 442.27449)
(0.0041948798 0.0028566317 442.27487)
(-0.0011989549 -0.00010923538 442.27523)
(-0.00551407 -0.00047393844 442.27415)
(-0.0032193474 0.00031253253 442.27367)
(-0.0013117026 0.0010691823 442.27371)
(5.6050959e-05 0.00074460183 442.27334)
(0.0011087355 0.00060611265 442.27365)
(0.00059229098 0.0023692567 442.2739)
(0.002213593 0.0032910392 442.27436)
(0.0028566317 0.0041948798 442.27487)
(0.001828526 0.001828526 442.27481)
(-0.0018626656 0.00098446058 442.27499)
(-0.0049207159 0.00143104 442.27405)
(-0.0022752273 0.00255629 442.27389)
(-0.0011089907 0.003766713 442.27423)
(-0.0009196777 0.0039883802 442.27371)
(0.0005487459 0.002975465 442.27367)
(0.00076209735 0.0024102295 442.27416)
(9.3152881e-06 0.0014679045 442.27536)
(-0.00010923538 -0.0011989549 442.27523)
(0.00098446058 -0.0018626656 442.27499)
(-0.001596441 -0.001596441 442.27522)
(-0.0039422406 -0.00075808756 442.2745)
(-0.00088367436 0.00048023634 442.2747)
(0.00012038761 0.0019856859 442.27548)
(-0.000735197 0.0032636298 442.27521)
(-0.00046941525 0.0036833589 442.27505)
(2.705542e-05 0.00342525 442.27532)
(-0.00045326639 -0.0053424838 442.27433)
(-0.00047393845 -0.0055140699 442.27415)
(0.00143104 -0.0049207159 442.27405)
(-0.00075808756 -0.0039422405 442.2745)
(-0.0028440386 -0.0028440386 442.27406)
(0.0004685461 -0.0016890914 442.27459)
(0.0016744028 -0.00042794656 442.27576)
(0.00077799534 0.00087788517 442.27588)
(0.00071036602 0.0020176316 442.27603)
(0.00050398841 0.002804124 442.27648)
(-0.00016227084 -0.0038183481 442.27361)
(0.00031253252 -0.0032193474 442.27367)
(0.00255629 -0.0022752273 442.27389)
(0.00048023633 -0.00088367436 442.2747)
(-0.0016890914 0.0004685461 442.27459)
(0.0015324177 0.0015324177 442.27541)
(0.0026873642 0.0023704102 442.27685)
(0.0017103811 0.0030172206 442.27719)
(0.0014568236 0.0034477902 442.2775)
(0.00081354783 0.0035918594 442.27801)
(0.00014573425 -0.00154106 442.27347)
(0.0010691823 -0.0013117026 442.27371)
(0.003766713 -0.0011089906 442.27423)
(0.0019856859 0.00012038761 442.27548)
(-0.00042794656 0.0016744028 442.27576)
(0.0023704102 0.0026873642 442.27685)
(0.0031592058 0.0031592058 442.27842)
(0.0018553753 0.0031764699 442.27878)
(0.0012850048 0.0028415664 442.27896)
(0.00064805766 0.0022536199 442.27923)
(6.7086479e-05 -0.00045660805 442.27333)
(0.00074460183 5.6050962e-05 442.27334)
(0.0039883802 -0.00091967771 442.27371)
(0.0032636298 -0.00073519702 442.27521)
(0.00087788516 0.00077799532 442.27588)
(0.0030172206 0.0017103811 442.27719)
(0.0031764699 0.0018553753 442.27878)
(0.0013927418 0.0013927418 442.27894)
(0.00053397354 0.00074693371 442.27881)
(0.00022560126 0.00045763549 442.27873)
(0.00065839327 -0.001075909 442.27338)
(0.00060611265 0.0011087355 442.27365)
(0.002975465 0.0005487459 442.27367)
(0.0036833589 -0.00046941525 442.27505)
(0.0020176316 0.00071036603 442.27603)
(0.0034477902 0.0014568236 442.2775)
(0.0028415664 0.0012850048 442.27896)
(0.00074693371 0.00053397354 442.27881)
(0.00034989854 0.00034989853 442.27855)
(0.00035875945 0.00029270151 442.27913)
(0.002251731 -0.0010010467 442.27268)
(0.0023692567 0.00059229099 442.2739)
(0.0024102295 0.00076209735 442.27416)
(0.00342525 2.705542e-05 442.27532)
(0.002804124 0.00050398841 442.27648)
(0.0035918594 0.00081354783 442.27801)
(0.0022536199 0.00064805766 442.27923)
(0.00045763549 0.00022560126 442.27873)
(0.00029270152 0.00035875944 442.27913)
(0.00016840425 0.00016840425 442.27913)
(0.0015140406 0.0015140406 449.78565)
(0.00044232612 -0.0010962092 449.78589)
(0.0036041722 0.0023889823 449.78552)
(0.0015713838 -0.0001192677 449.78665)
(-0.0060209684 -0.00059680062 449.78598)
(-0.0040668013 -0.00017610613 449.78566)
(-0.0015931701 0.0002361638 449.78585)
(-0.00052190302 5.0510585e-05 449.78584)
(-0.0014135839 0.00077888156 449.78588)
(-0.0013345153 0.0028233441 449.78527)
(-0.0010962092 0.00044232612 449.78589)
(0.0013172678 0.0013172678 449.78548)
(0.0045811137 0.0029933542 449.78585)
(-0.0014143992 -0.00035527437 449.7864)
(-0.0060778069 -0.00066229535 449.78571)
(-0.0032338369 0.00041697027 449.78565)
(-0.0013665534 0.0014305189 449.78605)
(2.0814735e-05 0.00092555758 449.78584)
(0.0013592496 0.0007584185 449.78615)
(0.00070994733 0.0030952503 449.78641)
(0.0023889823 0.0036041722 449.78552)
(0.0029933542 0.0045811137 449.78585)
(0.00193163 0.00193163 449.78584)
(-0.0020842657 0.0010389195 449.78624)
(-0.0052487238 0.0016700771 449.7857)
(-0.0019739871 0.0031373085 449.78596)
(-0.0010845828 0.0047138891 449.78667)
(-0.0011940034 0.004979549 449.7863)
(0.00075610878 0.0037405946 449.78629)
(0.0010023166 0.0031875883 449.78678)
(-0.0001192677 0.0015713838 449.78665)
(-0.00035527439 -0.0014143992 449.7864)
(0.0010389195 -0.0020842657 449.78624)
(-0.0016759521 -0.0016759521 449.78671)
(-0.0039794179 -0.00058848064 449.78639)
(-0.00019002487 0.00099236021 449.787)
(0.00047568703 0.0029040446 449.78813)
(-0.00095247983 0.0044881174 449.78799)
(-0.0004327111 0.0049868692 449.78784)
(0.00015694102 0.0047005537 449.78812)
(-0.00059680062 -0.0060209685 449.78598)
(-0.00066229535 -0.0060778069 449.78571)
(0.0016700771 -0.0052487238 449.7857)
(-0.00058848064 -0.0039794179 449.78639)
(-0.0025804115 -0.0025804115 449.78634)
(0.0015185382 -0.0011195049 449.78727)
(0.0024111744 0.00046101722 449.78878)
(0.00088882124 0.0020598318 449.789)
(0.00096854506 0.0034059587 449.78912)
(0.00071600104 0.0042920353 449.78954)
(-0.00017610613 -0.0040668013 449.78566)
(0.00041697029 -0.0032338369 449.78565)
(0.0031373085 -0.0019739871 449.78596)
(0.0009923602 -0.00019002487 449.787)
(-0.0011195049 0.0015185382 449.78727)
(0.0028514039 0.0028514039 449.78849)
(0.0036550238 0.0038773285 449.79024)
(0.0019924616 0.0046220053 449.79065)
(0.0017994924 0.0050431087 449.79089)
(0.0010430176 0.0050578216 449.79134)
(0.00023616379 -0.0015931701 449.78585)
(0.0014305189 -0.0013665534 449.78605)
(0.0047138891 -0.0010845828 449.78667)
(0.0029040446 0.00047568703 449.78813)
(0.00046101722 0.0024111744 449.78878)
(0.0038773285 0.0036550238 449.79024)
(0.0041817758 0.0041817758 449.7921)
(0.0020546014 0.0040781822 449.79249)
(0.0014043614 0.0034821247 449.79255)
(0.00073071397 0.002553719 449.79267)
(5.0510585e-05 -0.00052190304 449.78584)
(0.00092555759 2.0814735e-05 449.78584)
(0.004979549 -0.0011940034 449.7863)
(0.0044881174 -0.00095247984 449.78799)
(0.0020598318 0.00088882124 449.789)
(0.0046220053 0.0019924616 449.79065)
(0.0040781822 0.0020546014 449.79249)
(0.0012928105 0.0012928105 449.79262)
(0.00027502911 0.000395587 449.79228)
(0.00011461191 0.00033959488 449.79196)
(0.00077888155 -0.0014135839 449.78588)
(0.0007584185 0.0013592496 449.78615)
(0.0037405946 0.00075610878 449.78629)
(0.0049868692 -0.00043271111 449.78784)
(0.0034059587 0.00096854507 449.78912)
(0.0050431087 0.0017994924 449.79089)
(0.0034821247 0.0014043614 449.79255)
(0.00039558701 0.0002750291 449.79228)
(0.00045114579 0.00045114577 449.79176)
(0.00067472185 0.00050778633 449.79237)
(0.0028233441 -0.0013345153 449.78527)
(0.0030952503 0.00070994734 449.78641)
(0.0031875883 0.0010023166 449.78678)
(0.0047005537 0.00015694103 449.78812)
(0.0042920353 0.00071600104 449.78954)
(0.0050578216 0.0010430176 449.79134)
(0.002553719 0.00073071398 449.79267)
(0.00033959489 0.00011461192 449.79196)
(0.00050778633 0.00067472185 449.79237)
(0.00017125247 0.00017125246 449.79236)
(0.0016007784 0.0016007784 459.09879)
(0.00036583362 -0.0013098756 459.09898)
(0.0040503112 0.0025494681 459.09873)
(0.001932061 -0.00024171515 459.10002)
(-0.0063346169 -0.000728082 459.09966)
(-0.0039469352 -0.00017574946 459.09969)
(-0.0013558674 0.00034673342 459.1002)
(-0.00043425603 6.1650709e-05 459.10041)
(-0.0016489842 0.00093056281 459.10055)
(-0.0016050823 0.0033926902 459.10006)
(-0.0013098756 0.00036583361 459.09898)
(0.0013145233 0.0013145233 459.09859)
(0.0051184717 0.0031804513 459.09907)
(-0.001345489 -0.00051865576 459.09982)
(-0.0062686512 -0.00075935803 459.09945)
(-0.0028721198 0.00061221411 459.09973)
(-0.0011184672 0.0018843016 459.10046)
(0.00014957335 0.0012021604 459.10048)
(0.0016820554 0.0010168842 459.10089)
(0.00085704516 0.003882546 459.10121)
(0.0025494681 0.0040503112 459.09873)
(0.0031804513 0.0051184717 459.09907)
(0.0022171322 0.0022171322 459.0992)
(-0.0020077483 0.0012921844 459.09981)
(-0.005203747 0.0021103261 459.09959)
(-0.0013032756 0.0039126365 459.10019)
(-0.00076592111 0.0058425154 459.10121)
(-0.0013016734 0.0061351741 459.10107)
(0.0010314015 0.0046707505 459.10117)
(0.0012605796 0.0041148213 459.1017)
(-0.00024171514 0.001932061 459.10002)
(-0.00051865575 -0.001345489 459.09982)
(0.0012921844 -0.0020077483 459.09981)
(-0.0014522951 -0.0014522951 459.1005)
(-0.0036481991 -0.00011858695 459.1005)
(0.00086006954 0.0017947446 459.10144)
(0.0011040704 0.0040950508 459.10287)
(-0.0010221916 0.0059585672 459.10293)
(-0.00033829747 0.0065141419 459.10288)
(0.00030111596 0.0061824579 459.10319)
(-0.00072808199 -0.0063346169 459.09966)
(-0.00075935803 -0.0062686512 459.09945)
(0.0021103261 -0.005203747 459.09959)
(-0.00011858695 -0.0036481991 459.1005)
(-0.0019567073 -0.0019567073 459.10077)
(0.0029103622 -0.00020209477 459.10202)
(0.0033979016 0.0016799386 459.1038)
(0.0011174176 0.0035452217 459.1042)
(0.0012552922 0.0050660888 459.10439)
(0.0009288956 0.0060220855 459.10483)
(-0.00017574946 -0.0039469352 459.09969)
(0.00061221411 -0.0028721198 459.09973)
(0.0039126365 -0.0013032756 459.10019)
(0.0017947446 0.00086006954 459.10144)
(-0.00020209476 0.0029103622 459.10202)
(0.0044967155 0.0044967155 459.10354)
(0.0048513868 0.0056912481 459.10554)
(0.0023639586 0.006506102 459.10612)
(0.0021385664 0.0068795615 459.1064)
(0.0012571127 0.0067204779 459.10683)
(0.00034673343 -0.0013558674 459.1002)
(0.0018843016 -0.0011184672 459.10046)
(0.0058425154 -0.00076592112 459.10121)
(0.0040950508 0.0011040704 459.10287)
(0.0016799386 0.0033979016 459.1038)
(0.005691248 0.0048513868 459.10554)
(0.005407288 0.0054072881 459.10765)
(0.0023057311 0.0051427221 459.10817)
(0.001469668 0.0042251859 459.10824)
(0.00076981194 0.0028828441 459.10831)
(6.165073e-05 -0.00043425604 459.10041)
(0.0012021604 0.00014957336 459.10048)
(0.0061351741 -0.0013016734 459.10107)
(0.0059585672 -0.0010221915 459.10293)
(0.0035452217 0.0011174176 459.1042)
(0.006506102 0.0023639586 459.10612)
(0.0051427221 0.0023057311 459.10817)
(0.0011818564 0.0011818564 459.10839)
(-0.00012131166 -3.9076679e-05 459.10801)
(-8.5229105e-05 0.00015441162 459.10757)
(0.00093056281 -0.0016489842 459.10055)
(0.0010168842 0.0016820553 459.10089)
(0.0046707505 0.0010314015 459.10117)
(0.0065141419 -0.00033829747 459.10288)
(0.0050660888 0.0012552922 459.10439)
(0.0068795615 0.0021385664 459.1064)
(0.0042251859 0.001469668 459.10824)
(-3.9076676e-05 -0.00012131166 459.10801)
(0.0004422232 0.00044222321 459.10739)
(0.00096330023 0.00068335165 459.10794)
(0.0033926902 -0.0016050823 459.10006)
(0.003882546 0.00085704515 459.10121)
(0.0041148213 0.0012605796 459.1017)
(0.0061824579 0.00030111596 459.10319)
(0.0060220855 0.0009288956 459.10483)
(0.0067204778 0.0012571127 459.10683)
(0.002882844 0.00076981194 459.10831)
(0.00015441162 -8.5229105e-05 459.10757)
(0.00068335167 0.00096330023 459.10794)
(0.00015589935 0.00015589935 459.10789)
(0.0017046491 0.0017046491 470.16402)
(0.00038173871 -0.0014818478 470.16425)
(0.0046438811 0.0027342298 470.16414)
(0.0025070912 -0.00032272115 470.16555)
(-0.0063534297 -0.00081462132 470.16545)
(-0.003533234 -0.00013324257 470.16574)
(-0.00086538737 0.00049743951 470.1665)
(-0.0001719906 0.00011385009 470.16691)
(-0.0017706311 0.0011181873 470.16716)
(-0.0018245233 0.003974967 470.16676)
(-0.0014818478 0.00038173871 470.16425)
(0.0014113194 0.0014113194 470.16395)
(0.0058030077 0.003463935 470.16453)
(-0.0010417599 -0.00056116955 470.16543)
(-0.0061639511 -0.00073245661 470.16532)
(-0.0022211731 0.00092428961 470.16586)
(-0.00061829471 0.0024470734 470.16683)
(0.00044875716 0.0015857511 470.16705)
(0.0020904859 0.00138032 470.16756)
(0.0010322564 0.0047424429 470.16793)
(0.0027342298 0.0046438811 470.16414)
(0.003463935 0.0058030077 470.16453)
(0.0026713921 0.0026713921 470.16479)
(-0.0016893004 0.0017234449 470.16557)
(-0.0048679705 0.0027259806 470.16561)
(-0.00035370392 0.0048528676 470.16646)
(-0.00020392585 0.0071213244 470.16771)
(-0.001238744 0.0074284738 470.16776)
(0.0013860607 0.0057382243 470.16797)
(0.0015375996 0.0051692229 470.16853)
(-0.00032272115 0.0025070912 470.16555)
(-0.00056116956 -0.0010417599 470.16543)
(0.0017234449 -0.0016893004 470.16557)
(-0.00098717136 -0.00098717136 470.16642)
(-0.0030345284 0.00058603735 470.16668)
(0.0021741706 0.0028194179 470.16786)
(0.0019573115 0.0054903946 470.16949)
(-0.00093434294 0.0076119772 470.16973)
(-0.000168765 0.0082092459 470.16979)
(0.00046325509 0.0078222625 470.17013)
(-0.00081462132 -0.0063534297 470.16545)
(-0.00073245662 -0.0061639511 470.16532)
(0.0027259806 -0.0048679705 470.16561)
(0.00058603735 -0.0030345284 470.16668)
(-0.0010613813 -0.0010613813 470.16719)
(0.0045506533 0.00097349685 470.16867)
(0.0045886335 0.0031399849 470.17063)
(0.0014801073 0.0052503812 470.17119)
(0.001596346 0.0069239414 470.17147)
(0.0011506161 0.007931776 470.17192)
(-0.00013324256 -0.003533234 470.16574)
(0.00092428961 -0.0022211732 470.16586)
(0.0048528676 -0.00035370392 470.16646)
(0.0028194179 0.0021741706 470.16786)
(0.00097349684 0.0045506533 470.16867)
(0.0063755368 0.0063755368 470.17039)
(0.0062341959 0.0077228009 470.17257)
(0.0028496135 0.0085892296 470.17329)
(0.0025126298 0.0088936707 470.17364)
(0.0014710897 0.0085398093 470.17407)
(0.0004974395 -0.00086538737 470.1665)
(0.0024470734 -0.00061829472 470.16683)
(0.0071213244 -0.00020392586 470.16771)
(0.0054903946 0.0019573115 470.16949)
(0.0031399849 0.0045886335 470.17063)
(0.0077228009 0.0062341959 470.17257)
(0.0068023263 0.0068023263 470.17484)
(0.0026509771 0.0063557937 470.17548)
(0.0015469257 0.0050877317 470.17561)
(0.00079675475 0.0032948054 470.17566)
(0.00011385009 -0.00017199061 470.16691)
(0.0015857511 0.00044875717 470.16705)
(0.0074284738 -0.001238744 470.16776)
(0.0076119772 -0.00093434294 470.16973)
(0.0052503812 0.0014801073 470.17119)
(0.0085892296 0.0028496135 470.17329)
(0.0063557937 0.0026509771 470.17548)
(0.001135019 0.001135019 470.17582)
(-0.00054835854 -0.0004517319 470.17546)
(-0.00032183666 -2.8039373e-05 470.17498)
(0.0011181873 -0.0017706311 470.16716)
(0.00138032 0.0020904859 470.16756)
(0.0057382243 0.0013860607 470.16797)
(0.0082092459 -0.000168765 470.16979)
(0.0069239414 0.001596346 470.17147)
(0.0088936707 0.0025126298 470.17364)
(0.0050877317 0.0015469257 470.17561)
(-0.0004517319 -0.00054835855 470.17546)
(0.00038386731 0.00038386731 470.17484)
(0.0012204473 0.00082629054 470.17533)
(0.003974967 -0.0018245233 470.16676)
(0.0047424429 0.0010322564 470.16793)
(0.0051692229 0.0015375996 470.16853)
(0.0078222625 0.00046325509 470.17013)
(0.007931776 0.0011506161 470.17192)
(0.0085398093 0.0014710897 470.17407)
(0.0032948054 0.00079675475 470.17566)
(-2.8039373e-05 -0.00032183667 470.17498)
(0.00082629055 0.0012204473 470.17533)
(0.00012058657 0.00012058657 470.17525)
(0.0018330123 0.0018330123 482.9214)
(0.00048867261 -0.0016109863 482.92167)
(0.0053507037 0.0029390429 482.92168)
(0.0032415213 -0.00036640528 482.92316)
(-0.0061429971 -0.00086116603 482.92326)
(-0.0029003152 -5.4758954e-05 482.92376)
(-0.00018725767 0.00068019973 482.92469)
(0.00022868107 0.0001988564 482.92525)
(-0.0018007647 0.0013316111 482.92559)
(-0.0020058632 0.004563565 482.92526)
(-0.0016109863 0.00048867262 482.92167)
(0.0015947033 0.0015947033 482.92145)
(0.0065952848 0.003824194 482.9221)
(-0.00055868762 -0.0005035676 482.9231)
(-0.0058313507 -0.00060430289 482.9232)
(-0.0013589495 0.0013278604 482.92394)
(6.635769e-05 0.003091243 482.92508)
(0.00088009247 0.002051138 482.92544)
(0.002563944 0.0018226844 482.92603)
(0.0012260907 0.0056555106 482.92643)
(0.0029390429 0.0053507037 482.92168)
(0.003824194 0.0065952848 482.9221)
(0.0032524329 0.0032524329 482.92245)
(-0.0011869756 0.002287965 482.92335)
(-0.004311569 0.0034695844 482.92359)
(0.00079523063 0.0059082357 482.92463)
(0.0005360199 0.0084998298 482.92603)
(-0.0010398775 0.0088135049 482.92624)
(0.001803608 0.006900807 482.92653)
(0.0018269631 0.0063150973 482.92712)
(-0.00036640528 0.0032415214 482.92316)
(-0.00050356762 -0.00055868762 482.9231)
(0.002287965 -0.0011869756 482.92335)
(-0.00034153606 -0.00034153606 482.92432)
(-0.00221108 0.0014619177 482.92477)
(0.0036712959 0.0040010252 482.92613)
(0.0029716268 0.0070241489 482.92789)
(-0.00071893035 0.0093855618 482.92826)
(6.5536403e-05 0.010014243 482.92842)
(0.00064038101 0.0095678864 482.92878)