/*--------------------------------*- C++ -*----------------------------------*\
| =========                 |                                                 |
| \\      /  F ield         | OpenFOAM: The Open Source CFD Toolbox           |
|  \\    /   O peration     | Version:  v2106                                 |
|   \\  /    A nd           | Website:  www.openfoam.com                      |
|    \\/     M anipulation  |                                                 |
\*---------------------------------------------------------------------------*/
FoamFile
{
    version     2.0;
    format      ascii;
    arch        "LSB;label=32;scalar=64";
    class       volVectorField;
    location    "50";
    object      flux;
}
// * * * * * * * * * * * * * * * * * * * * * * * * * * * * * * * * * * * * * //

dimensions      [0 1 -1 1 0 0 0];

internalField   nonuniform List<vector> 
10000
(
(8.4231857e-08 8.4231909e-08 0.74993441)
(4.2404352e-08 2.5576388e-08 0.74993484)
(-2.0329249e-07 2.0635776e-08 0.74993462)
(-2.0623197e-07 1.8251583e-08 0.74993416)
(-2.1152387e-07 2.5052875e-08 0.74993387)
(-1.2920945e-07 4.5067149e-08 0.74993342)
(-1.1863902e-07 2.8325976e-09 0.74993329)
(-1.5635007e-07 1.4720536e-08 0.74993294)
(4.942315e-08 5.9774417e-08 0.74993273)
(6.113513e-08 -6.2578162e-09 0.74993294)
(2.5576336e-08 4.2404331e-08 0.74993484)
(-5.2989847e-08 -5.2989762e-08 0.74993496)
(-2.1427969e-07 -5.4556253e-08 0.74993469)
(-1.9960632e-07 1.6424487e-08 0.74993425)
(-1.7130052e-07 4.1453617e-08 0.749934)
(-1.6253986e-07 2.2636996e-08 0.74993363)
(-1.6415893e-07 -1.0189801e-08 0.74993334)
(-7.093734e-08 9.8115081e-09 0.749933)
(1.7955621e-08 -4.9093103e-09 0.74993301)
(-4.8971032e-09 -7.3188374e-08 0.749933)
(2.0635795e-08 -2.0329257e-07 0.74993462)
(-5.4556231e-08 -2.142797e-07 0.74993469)
(-1.3387824e-07 -1.3387818e-07 0.74993444)
(-1.102221e-07 -1.7011061e-08 0.7499342)
(-2.0531136e-07 -5.39141e-08 0.74993401)
(-1.8085287e-07 -8.5508141e-08 0.7499335)
(-1.314645e-07 -5.290817e-08 0.74993325)
(-1.5106958e-07 -5.254325e-08 0.74993295)
(-3.3576733e-08 -8.32814e-08 0.74993271)
(1.5615754e-08 -7.186911e-08 0.74993274)
(1.8251583e-08 -2.0623194e-07 0.74993416)
(1.6424544e-08 -1.9960635e-07 0.74993425)
(-1.7011054e-08 -1.102221e-07 0.7499342)
(-1.1964224e-07 -1.1964222e-07 0.74993412)
(-2.397976e-07 -1.1256162e-07 0.74993373)
(-1.6153393e-07 -1.2331812e-07 0.7499333)
(-1.3119404e-07 -1.286367e-07 0.74993304)
(-1.0131057e-07 -1.9307534e-07 0.74993273)
(-1.3702391e-09 -1.2837253e-07 0.74993261)
(2.71109e-09 -1.6645841e-07 0.74993256)
(2.5052856e-08 -2.1152385e-07 0.74993387)
(4.145361e-08 -1.7130056e-07 0.749934)
(-5.3914107e-08 -2.0531135e-07 0.74993401)
(-1.1256162e-07 -2.3979762e-07 0.74993373)
(-2.0898727e-07 -2.0898727e-07 0.74993352)
(-1.9692795e-07 -1.7051838e-07 0.74993296)
(-2.0122172e-07 -2.2789164e-07 0.74993273)
(-1.5080541e-07 -2.5764073e-07 0.74993223)
(-6.9597946e-09 -2.643222e-07 0.74993209)
(-9.7748275e-09 -3.1842388e-07 0.74993203)
(4.5067111e-08 -1.2920944e-07 0.74993342)
(2.2637039e-08 -1.6253989e-07 0.74993363)
(-8.550812e-08 -1.8085282e-07 0.7499335)
(-1.2331815e-07 -1.6153394e-07 0.7499333)
(-1.7051836e-07 -1.9692794e-07 0.74993296)
(-1.8043831e-07 -1.8043821e-07 0.74993261)
(-2.1831639e-07 -1.4427869e-07 0.74993221)
(-1.3774113e-07 -1.4575555e-07 0.74993176)
(-6.215339e-08 -2.2364371e-07 0.74993162)
(-3.3356694e-08 -2.0805789e-07 0.74993152)
(2.8325549e-09 -1.1863904e-07 0.74993329)
(-1.0189766e-08 -1.6415892e-07 0.74993334)
(-5.2908156e-08 -1.3146447e-07 0.74993325)
(-1.2863674e-07 -1.3119399e-07 0.74993304)
(-2.2789153e-07 -2.0122177e-07 0.74993273)
(-1.442787e-07 -2.1831639e-07 0.74993221)
(-1.6653907e-07 -1.6653892e-07 0.74993205)
(-2.3017043e-07 -1.9581086e-07 0.74993158)
(-6.9262136e-08 -8.458543e-08 0.74993127)
(6.1571847e-10 -2.4236932e-08 0.74993131)
(1.4720522e-08 -1.563501e-07 0.74993294)
(9.8116076e-09 -7.0937325e-08 0.749933)
(-5.2543186e-08 -1.5106964e-07 0.74993295)
(-1.9307545e-07 -1.0131048e-07 0.74993273)
(-2.5764077e-07 -1.5080536e-07 0.74993223)
(-1.4575546e-07 -1.3774124e-07 0.74993176)
(-1.9581085e-07 -2.3017045e-07 0.74993158)
(-5.5787638e-08 -5.5787609e-08 0.74993105)
(1.0942053e-07 8.7141736e-08 0.74993124)
(6.8756378e-09 7.7219297e-09 0.74993129)
(5.9774403e-08 4.9423228e-08 0.74993273)
(-4.9093103e-09 1.7955699e-08 0.74993301)
(-8.3281307e-08 -3.3576789e-08 0.74993271)
(-1.2837246e-07 -1.3701963e-09 0.74993261)
(-2.643223e-07 -6.9596879e-09 0.74993209)
(-2.2364379e-07 -6.2153383e-08 0.74993162)
(-8.4585437e-08 -6.9262143e-08 0.74993127)
(8.7141757e-08 1.0942056e-07 0.74993124)
(-5.7525967e-09 -5.7526109e-09 0.74993139)
(-5.2330819e-08 -1.4756133e-07 0.74993106)
(-6.2578304e-09 6.1135187e-08 0.74993294)
(-7.318841e-08 -4.8970463e-09 0.749933)
(-7.1869081e-08 1.5615787e-08 0.74993274)
(-1.6645835e-07 2.7111043e-09 0.74993256)
(-3.1842396e-07 -9.7748038e-09 0.74993203)
(-2.0805792e-07 -3.335667e-08 0.74993152)
(-2.4236904e-08 6.1577528e-10 0.74993131)
(7.7218942e-09 6.8756852e-09 0.74993129)
(-1.4756136e-07 -5.23308e-08 0.74993106)
(-8.7663508e-08 -8.7663489e-08 0.74993061)
(1.8420656e-07 1.8420657e-07 0.74993395)
(1.9526752e-07 3.6994455e-08 0.74993393)
(-4.2071632e-07 8.5318039e-09 0.74993385)
(-5.0491906e-07 4.1066817e-08 0.74993356)
(-4.7475426e-07 4.8021041e-08 0.74993335)
(-4.8985864e-07 8.0263362e-08 0.74993308)
(-3.5649008e-07 4.538055e-08 0.74993273)
(-3.7358037e-07 1.6621987e-08 0.7499325)
(-1.4777719e-07 1.0456063e-07 0.74993232)
(3.310835e-08 7.4902237e-08 0.74993219)
(3.6994441e-08 1.9526744e-07 0.74993393)
(-6.8244624e-08 -6.8244581e-08 0.74993397)
(-4.1460778e-07 -1.0247853e-07 0.74993388)
(-4.456852e-07 2.3930127e-08 0.7499337)
(-4.1595944e-07 8.374272e-08 0.74993347)
(-4.9381937e-07 5.155335e-08 0.74993316)
(-4.5195214e-07 -2.4323455e-08 0.74993282)
(-2.8481026e-07 -1.9177854e-08 0.74993248)
(-6.0356818e-08 -3.5937617e-09 0.74993236)
(3.4499599e-09 -8.6347839e-08 0.74993228)
(8.5318751e-09 -4.2071638e-07 0.74993385)
(-1.0247845e-07 -4.1460786e-07 0.74993388)
(-3.2854161e-07 -3.2854165e-07 0.74993386)
(-3.1869781e-07 -1.4191858e-07 0.74993362)
(-4.4713104e-07 -2.3043583e-07 0.74993342)
(-5.9792481e-07 -2.4512599e-07 0.74993299)
(-4.2722128e-07 -2.8680505e-07 0.7499327)
(-3.5285068e-07 -2.5048593e-07 0.74993248)
(-2.1494718e-07 -3.5522403e-07 0.74993222)
(-2.2061035e-08 -4.3414416e-07 0.74993206)
(4.1066789e-08 -5.0491909e-07 0.74993356)
(2.3930106e-08 -4.4568521e-07 0.7499337)
(-1.4191849e-07 -3.1869784e-07 0.74993362)
(-3.4757938e-07 -3.4757942e-07 0.74993347)
(-5.1916685e-07 -3.9411209e-07 0.74993309)
(-5.5018859e-07 -4.4139465e-07 0.7499328)
(-4.5731208e-07 -3.9302221e-07 0.74993243)
(-3.5322923e-07 -4.947633e-07 0.7499321)
(-2.4401506e-07 -5.4810859e-07 0.74993182)
(-4.9163461e-08 -5.6692149e-07 0.74993168)
(4.8021126e-08 -4.7475426e-07 0.74993335)
(8.3742805e-08 -4.1595939e-07 0.74993347)
(-2.3043582e-07 -4.4713104e-07 0.74993342)
(-3.9411206e-07 -5.1916687e-07 0.74993309)
(-5.4094626e-07 -5.4094627e-07 0.7499329)
(-5.9683493e-07 -5.2187416e-07 0.74993245)
(-4.8058993e-07 -5.705689e-07 0.74993208)
(-5.0793706e-07 -6.7634291e-07 0.74993181)
(-2.8710537e-07 -6.8814062e-07 0.7499315)
(-3.4602962e-08 -6.1377506e-07 0.74993144)
(8.0263367e-08 -4.8985854e-07 0.74993308)
(5.1553329e-08 -4.9381947e-07 0.74993316)
(-2.4512597e-07 -5.979249e-07 0.74993299)
(-4.4139461e-07 -5.5018869e-07 0.7499328)
(-5.2187415e-07 -5.9683502e-07 0.74993245)
(-5.7981123e-07 -5.7981125e-07 0.74993212)
(-6.1178083e-07 -5.9182236e-07 0.74993178)
(-4.7080096e-07 -5.4412001e-07 0.74993145)
(-1.814472e-07 -5.5719784e-07 0.7499312)
(4.1358324e-10 -4.4516938e-07 0.74993123)
(4.5380503e-08 -3.564901e-07 0.74993273)
(-2.4323555e-08 -4.5195215e-07 0.74993282)
(-2.8680504e-07 -4.2722126e-07 0.7499327)
(-3.9302218e-07 -4.5731208e-07 0.74993243)
(-5.7056882e-07 -4.8058995e-07 0.74993208)
(-5.9182228e-07 -6.1178081e-07 0.74993178)
(-4.448987e-07 -4.448987e-07 0.74993136)
(-4.7331253e-07 -4.7856698e-07 0.74993111)
(-1.8815473e-07 -3.0864311e-07 0.74993088)
(4.0082677e-08 -2.7244416e-07 0.74993092)
(1.6621996e-08 -3.7358035e-07 0.7499325)
(-1.9177833e-08 -2.848102e-07 0.74993248)
(-2.504859e-07 -3.5285061e-07 0.74993248)
(-4.947633e-07 -3.5322918e-07 0.7499321)
(-6.7634287e-07 -5.0793705e-07 0.74993181)
(-5.4411998e-07 -4.7080099e-07 0.74993145)
(-4.78567e-07 -4.7331258e-07 0.74993111)
(-3.3454536e-07 -3.345454e-07 0.7499308)
(2.4675621e-08 -8.1178484e-08 0.74993065)
(2.4546215e-08 -3.9687203e-07 0.74993055)
(1.045606e-07 -1.4777712e-07 0.74993232)
(-3.5938186e-09 -6.035684e-08 0.74993236)
(-3.5522402e-07 -2.1494714e-07 0.74993222)
(-5.4810862e-07 -2.4401507e-07 0.74993182)
(-6.8814063e-07 -2.8710537e-07 0.7499315)
(-5.571978e-07 -1.8144725e-07 0.7499312)
(-3.0864311e-07 -1.8815469e-07 0.74993088)
(-8.1178442e-08 2.4675678e-08 0.74993065)
(-2.5048136e-07 -2.5048126e-07 0.74993034)
(-1.7037969e-07 -5.744154e-07 0.74993007)
(7.490218e-08 3.3108355e-08 0.74993219)
(-8.634786e-08 3.4499314e-09 0.74993228)
(-4.3414413e-07 -2.2061007e-08 0.74993206)
(-5.6692153e-07 -4.916347e-08 0.74993168)
(-6.1377505e-07 -3.4602943e-08 0.74993144)
(-4.451693e-07 4.1358324e-10 0.74993123)
(-2.7244408e-07 4.0082725e-08 0.74993092)
(-3.9687194e-07 2.4546272e-08 0.74993055)
(-5.7441546e-07 -1.7037961e-07 0.74993007)
(-1.9140988e-07 -1.914098e-07 0.74993013)
(7.6195197e-08 7.6195216e-08 0.74993299)
(-5.6957717e-08 4.7131583e-08 0.7499328)
(-5.7266244e-07 4.3312624e-08 0.7499327)
(-7.0279945e-07 1.1041053e-07 0.74993264)
(-6.9818498e-07 1.0415066e-07 0.74993249)
(-7.5208846e-07 9.7718773e-08 0.74993221)
(-6.9617051e-07 6.6181566e-08 0.7499319)
(-5.637154e-07 1.6375214e-09 0.74993162)
(-2.6228364e-07 8.9442461e-08 0.74993144)
(-2.6298494e-08 5.7710257e-08 0.74993129)
(4.7131564e-08 -5.695771e-08 0.7499328)
(-1.062816e-07 -1.0628162e-07 0.74993282)
(-4.7774401e-07 -4.3614257e-08 0.7499328)
(-6.115424e-07 7.3408174e-08 0.74993275)
(-7.1722262e-07 1.0910166e-07 0.74993251)
(-8.0904211e-07 -6.462951e-08 0.74993215)
(-8.4029239e-07 -3.3872496e-08 0.74993191)
(-5.2882405e-07 -1.4170219e-08 0.7499316)
(-1.7817454e-07 -1.0095364e-07 0.74993137)
(-5.8030698e-08 -1.9667085e-07 0.7499312)
(4.3312592e-08 -5.7266241e-07 0.7499327)
(-4.3614264e-08 -4.7774396e-07 0.7499328)
(-3.9297264e-07 -3.9297265e-07 0.7499329)
(-5.5008354e-07 -2.5401587e-07 0.74993262)
(-8.3622266e-07 -4.320848e-07 0.74993242)
(-8.9506261e-07 -4.4439552e-07 0.74993198)
(-6.4571122e-07 -4.4935668e-07 0.74993174)
(-6.3079654e-07 -4.2976912e-07 0.7499315)
(-4.4478427e-07 -6.279374e-07 0.74993124)
(-9.0109964e-08 -6.7490902e-07 0.74993111)
(1.1041053e-07 -7.027995e-07 0.74993264)
(7.3408152e-08 -6.1154241e-07 0.74993275)
(-2.5401592e-07 -5.5008353e-07 0.74993262)
(-6.5065455e-07 -6.5065451e-07 0.74993242)
(-9.0760228e-07 -6.3208698e-07 0.74993209)
(-8.2631399e-07 -6.6692775e-07 0.74993174)
(-8.2566599e-07 -7.5294442e-07 0.74993148)
(-7.0740477e-07 -8.6058329e-07 0.74993118)
(-4.2331443e-07 -8.5235468e-07 0.74993099)
(-8.9345112e-08 -7.8857683e-07 0.74993093)
(1.0415065e-07 -6.9818506e-07 0.74993249)
(1.0910171e-07 -7.1722265e-07 0.74993251)
(-4.3208475e-07 -8.3622269e-07 0.74993242)
(-6.3208699e-07 -9.0760228e-07 0.74993209)
(-8.5249589e-07 -8.5249587e-07 0.74993189)
(-1.01592e-06 -8.5111699e-07 0.74993151)
(-8.3936676e-07 -8.7256723e-07 0.74993122)
(-7.3020681e-07 -9.134108e-07 0.74993103)
(-3.7277781e-07 -8.8395408e-07 0.74993088)
(-4.7591399e-08 -7.6867712e-07 0.74993082)
(9.7718806e-08 -7.5208835e-07 0.74993221)
(-6.4629475e-08 -8.0904207e-07 0.74993215)
(-4.4439555e-07 -8.9506265e-07 0.74993198)
(-6.6692773e-07 -8.2631399e-07 0.74993174)
(-8.5111699e-07 -1.01592e-06 0.74993151)
(-8.4638535e-07 -8.463854e-07 0.74993121)
(-8.879598e-07 -8.6112694e-07 0.74993113)
(-7.1879161e-07 -8.4310557e-07 0.74993086)
(-2.7858075e-07 -8.4311343e-07 0.74993067)
(-1.2493805e-08 -7.286617e-07 0.74993061)
(6.6181509e-08 -6.9617047e-07 0.7499319)
(-3.3872595e-08 -8.4029242e-07 0.74993191)
(-4.4935666e-07 -6.457112e-07 0.74993174)
(-7.5294437e-07 -8.2566601e-07 0.74993148)
(-8.7256731e-07 -8.3936676e-07 0.74993122)
(-8.6112696e-07 -8.8795979e-07 0.74993113)
(-8.3608694e-07 -8.3608693e-07 0.74993081)
(-7.121933e-07 -8.3925524e-07 0.74993042)
(-2.5833393e-07 -6.3809913e-07 0.74993036)
(2.8709759e-08 -7.1017668e-07 0.74993026)
(1.6375025e-09 -5.6371545e-07 0.74993162)
(-1.4170212e-08 -5.2882403e-07 0.7499316)
(-4.2976914e-07 -6.3079648e-07 0.7499315)
(-8.6058328e-07 -7.0740481e-07 0.74993118)
(-9.1341076e-07 -7.3020691e-07 0.74993103)
(-8.4310552e-07 -7.1879158e-07 0.74993086)
(-8.3925526e-07 -7.1219325e-07 0.74993042)
(-5.2080381e-07 -5.2080377e-07 0.74993022)
(-1.4950218e-07 -4.5170512e-07 0.74993011)
(-6.0545503e-08 -8.4208629e-07 0.74992984)
(8.9442452e-08 -2.622836e-07 0.74993144)
(-1.0095363e-07 -1.7817458e-07 0.74993137)
(-6.2793744e-07 -4.4478431e-07 0.74993124)
(-8.523548e-07 -4.2331438e-07 0.74993099)
(-8.8395408e-07 -3.727779e-07 0.74993088)
(-8.4311329e-07 -2.7858092e-07 0.74993067)
(-6.3809913e-07 -2.5833413e-07 0.74993036)
(-4.5170517e-07 -1.4950232e-07 0.74993011)
(-5.7961645e-07 -5.7961647e-07 0.74992969)
(-2.3154435e-07 -5.6019314e-07 0.74992982)
(5.7710182e-08 -2.6298466e-08 0.74993129)
(-1.9667092e-07 -5.8030736e-08 0.7499312)
(-6.7490893e-07 -9.0109992e-08 0.74993111)
(-7.8857688e-07 -8.9345065e-08 0.74993093)
(-7.686773e-07 -4.759138e-08 0.74993082)
(-7.2866175e-07 -1.249388e-08 0.74993061)
(-7.1017666e-07 2.8709645e-08 0.74993026)
(-8.4208614e-07 -6.0545564e-08 0.74992984)
(-5.60193e-07 -2.3154434e-07 0.74992982)
(-4.7596614e-08 -4.75966e-08 0.74993005)
(5.4724154e-08 5.4724173e-08 0.74993123)
(-9.4460596e-08 5.0275773e-08 0.74993125)
(-5.7349442e-07 7.366324e-08 0.74993132)
(-7.1327766e-07 1.1435584e-07 0.7499313)
(-9.1041897e-07 5.8777436e-08 0.7499312)
(-1.0777167e-06 4.3785254e-08 0.74993089)
(-9.4397821e-07 4.8577571e-08 0.74993066)
(-8.3580338e-07 4.23753e-09 0.74993046)
(-4.8264834e-07 5.648424e-08 0.74993028)
(-7.1463598e-08 2.0476709e-08 0.74993022)
(5.0275754e-08 -9.4460645e-08 0.74993125)
(-6.6051996e-08 -6.6051932e-08 0.74993134)
(-4.7737432e-07 9.7349286e-08 0.74993134)
(-7.3560637e-07 -1.9147849e-09 0.74993127)
(-1.0162748e-06 1.1655558e-08 0.74993106)
(-1.0930165e-06 -1.7948432e-07 0.74993074)
(-1.0032998e-06 -1.8474939e-07 0.74993057)
(-8.2394338e-07 -1.4092837e-07 0.7499304)
(-4.5828957e-07 -2.0136954e-07 0.7499302)
(-1.0747113e-07 -2.6005789e-07 0.74993006)
(7.3663296e-08 -5.734945e-07 0.74993132)
(9.7349336e-08 -4.7737429e-07 0.74993134)
(-5.0935727e-07 -5.0935719e-07 0.74993141)
(-7.9897139e-07 -4.7488276e-07 0.74993106)
(-1.0879885e-06 -6.5245015e-07 0.74993088)
(-1.2741216e-06 -6.5661256e-07 0.74993062)
(-9.0542225e-07 -7.143442e-07 0.74993039)
(-8.5242354e-07 -6.744644e-07 0.74993026)
(-6.0177786e-07 -7.3885295e-07 0.74993012)
(-1.1058916e-07 -7.1170926e-07 0.74993001)
(1.1435589e-07 -7.1327765e-07 0.7499313)
(-1.9146926e-09 -7.3560644e-07 0.74993127)
(-4.7488279e-07 -7.9897145e-07 0.74993106)
(-8.7869933e-07 -8.7869933e-07 0.74993084)
(-1.1980046e-06 -9.2270037e-07 0.7499306)
(-1.1549105e-06 -9.0651714e-07 0.74993031)
(-1.0211516e-06 -9.2097778e-07 0.74993016)
(-8.4845213e-07 -9.6678026e-07 0.7499301)
(-4.9553443e-07 -9.1252438e-07 0.74992999)
(-8.9375338e-08 -8.5552856e-07 0.74992995)
(5.8777435e-08 -9.1041903e-07 0.7499312)
(1.1655537e-08 -1.0162749e-06 0.74993106)
(-6.5245016e-07 -1.0879886e-06 0.74993088)
(-9.2270032e-07 -1.1980046e-06 0.7499306)
(-1.1158063e-06 -1.1158063e-06 0.74993035)
(-1.272399e-06 -1.0501597e-06 0.74993022)
(-9.6568537e-07 -9.2298976e-07 0.74993018)
(-8.4397015e-07 -9.9726883e-07 0.74993012)
(-4.9052616e-07 -1.0009377e-06 0.74992997)
(-7.2591945e-08 -9.2689341e-07 0.74992987)
(4.378533e-08 -1.0777167e-06 0.74993089)
(-1.7948422e-07 -1.0930165e-06 0.74993074)
(-6.5661256e-07 -1.2741216e-06 0.74993062)
(-9.0651708e-07 -1.1549105e-06 0.74993031)
(-1.0501596e-06 -1.272399e-06 0.74993022)
(-9.6209394e-07 -9.6209389e-07 0.74993016)
(-9.6826081e-07 -9.9888874e-07 0.74993014)
(-9.2640011e-07 -1.15526e-06 0.74992995)
(-4.2515902e-07 -1.0742457e-06 0.74992982)
(-4.0012461e-08 -1.0087787e-06 0.7499297)
(4.8577604e-08 -9.4397816e-07 0.74993066)
(-1.8474931e-07 -1.0032998e-06 0.74993057)
(-7.1434422e-07 -9.0542228e-07 0.74993039)
(-9.2097773e-07 -1.0211517e-06 0.74993016)
(-9.2298967e-07 -9.6568539e-07 0.74993018)
(-9.9888877e-07 -9.6826075e-07 0.74993014)
(-1.1588515e-06 -1.1588515e-06 0.74992991)
(-9.1932711e-07 -1.1107227e-06 0.74992973)
(-3.4404481e-07 -8.6905347e-07 0.7499297)
(-2.894726e-08 -1.046299e-06 0.74992949)
(4.237563e-09 -8.3580338e-07 0.74993046)
(-1.4092834e-07 -8.2394337e-07 0.7499304)
(-6.7446449e-07 -8.5242362e-07 0.74993026)
(-9.6678018e-07 -8.4845215e-07 0.7499301)
(-9.9726865e-07 -8.439702e-07 0.74993012)
(-1.1552601e-06 -9.264001e-07 0.74992995)
(-1.1107227e-06 -9.1932698e-07 0.74992973)
(-6.3660206e-07 -6.3660199e-07 0.74992972)
(-3.6073532e-07 -7.5123977e-07 0.74992949)
(-1.5817614e-07 -8.4027337e-07 0.74992938)
(5.6484277e-08 -4.8264832e-07 0.74993028)
(-2.0136955e-07 -4.5828961e-07 0.7499302)
(-7.38853e-07 -6.0177788e-07 0.74993012)
(-9.1252431e-07 -4.9553431e-07 0.74992999)
(-1.0009376e-06 -4.9052604e-07 0.74992997)
(-1.0742455e-06 -4.2515904e-07 0.74992982)
(-8.690534e-07 -3.4404474e-07 0.7499297)
(-7.512399e-07 -3.6073534e-07 0.74992949)
(-5.477162e-07 -5.4771603e-07 0.7499294)
(-8.8302993e-08 -3.6690992e-07 0.74992963)
(2.04767e-08 -7.146357e-08 0.74993022)
(-2.6005791e-07 -1.0747115e-07 0.74993006)
(-7.1170919e-07 -1.1058914e-07 0.74993001)
(-8.5552834e-07 -8.9375277e-08 0.74992995)
(-9.2689338e-07 -7.2591827e-08 0.74992987)
(-1.0087788e-06 -4.0012447e-08 0.7499297)
(-1.046299e-06 -2.8947307e-08 0.74992949)
(-8.4027334e-07 -1.581762e-07 0.74992938)
(-3.6690991e-07 -8.8302935e-08 0.74992963)
(-3.7638732e-08 -3.7638675e-08 0.74992939)
(8.6833305e-08 8.6833301e-08 0.74992958)
(3.2606884e-08 1.0675281e-07 0.74992962)
(-5.2570087e-07 5.4603726e-08 0.7499297)
(-8.2742335e-07 9.5761285e-08 0.7499296)
(-1.1077868e-06 1.1006638e-08 0.74992944)
(-1.2865953e-06 2.858985e-10 0.74992925)
(-1.1231457e-06 2.6364163e-09 0.74992915)
(-9.4753316e-07 -3.8107047e-08 0.74992908)
(-5.0484183e-07 3.5303273e-08 0.7499291)
(-6.8186831e-08 -4.6740136e-08 0.74992912)
(1.0675282e-07 3.2606877e-08 0.74992962)
(-1.5737477e-08 -1.573754e-08 0.74992973)
(-5.4218816e-07 4.0875626e-08 0.74992961)
(-8.9281898e-07 -1.6075658e-07 0.74992947)
(-1.2509999e-06 -2.0622675e-07 0.74992932)
(-1.2991507e-06 -3.3189205e-07 0.74992917)
(-1.1807351e-06 -3.1063836e-07 0.7499291)
(-8.9853287e-07 -2.107929e-07 0.74992903)
(-5.1779146e-07 -2.5981481e-07 0.74992902)
(-1.5023024e-07 -4.0009068e-07 0.74992889)
(5.4603694e-08 -5.2570095e-07 0.7499297)
(4.0875634e-08 -5.4218828e-07 0.74992961)
(-6.7071991e-07 -6.7072002e-07 0.74992948)
(-1.0745257e-06 -6.9097357e-07 0.74992921)
(-1.2789222e-06 -8.8794555e-07 0.74992901)
(-1.391007e-06 -8.7285711e-07 0.74992898)
(-1.0020466e-06 -8.5584142e-07 0.749929)
(-8.9670961e-07 -7.3180974e-07 0.74992899)
(-6.9413962e-07 -8.3241465e-07 0.74992892)
(-1.6170408e-07 -7.8450805e-07 0.74992881)
(9.5761261e-08 -8.2742335e-07 0.7499296)
(-1.6075655e-07 -8.9281897e-07 0.74992947)
(-6.9097345e-07 -1.0745257e-06 0.74992921)
(-1.1100445e-06 -1.1100445e-06 0.749929)
(-1.4328834e-06 -1.1627805e-06 0.74992885)
(-1.2670465e-06 -1.0717256e-06 0.74992881)
(-1.0396878e-06 -9.601597e-07 0.74992888)
(-8.751061e-07 -1.0051853e-06 0.74992886)
(-5.7048977e-07 -1.0061153e-06 0.74992877)
(-1.1829251e-07 -9.3528383e-07 0.74992873)
(1.100661e-08 -1.1077868e-06 0.74992944)
(-2.0622675e-07 -1.2509998e-06 0.74992932)
(-8.8794547e-07 -1.2789223e-06 0.74992901)
(-1.1627805e-06 -1.4328835e-06 0.74992885)
(-1.2406033e-06 -1.2406033e-06 0.74992871)
(-1.1883861e-06 -1.0020916e-06 0.74992879)
(-9.3550626e-07 -8.9254134e-07 0.74992892)
(-9.426652e-07 -1.0571366e-06 0.74992883)
(-6.2423813e-07 -1.06102e-06 0.74992874)
(-1.1448311e-07 -1.0162266e-06 0.74992868)
(2.8587524e-10 -1.2865954e-06 0.74992925)
(-3.3189207e-07 -1.2991506e-06 0.74992917)
(-8.7285709e-07 -1.3910069e-06 0.74992898)
(-1.0717255e-06 -1.2670466e-06 0.74992881)
(-1.0020915e-06 -1.1883862e-06 0.74992879)
(-9.189846e-07 -9.1898473e-07 0.74992893)
(-1.0947327e-06 -1.1287362e-06 0.74992889)
(-1.0435848e-06 -1.2311285e-06 0.74992882)
(-5.2957977e-07 -1.106648e-06 0.74992878)
(-8.8430217e-08 -1.1106101e-06 0.74992865)
(2.6364645e-09 -1.1231457e-06 0.74992915)
(-3.1063833e-07 -1.1807352e-06 0.7499291)
(-8.5584154e-07 -1.0020465e-06 0.749929)
(-9.601598e-07 -1.0396878e-06 0.74992888)
(-8.9254139e-07 -9.3550629e-07 0.74992892)
(-1.1287361e-06 -1.0947328e-06 0.74992889)
(-1.24765e-06 -1.2476502e-06 0.74992884)
(-9.2057694e-07 -1.0726276e-06 0.7499289)
(-5.0371978e-07 -9.6674723e-07 0.74992872)
(-1.1712455e-07 -1.0346186e-06 0.74992862)
(-3.8107098e-08 -9.4753322e-07 0.74992908)
(-2.1079291e-07 -8.9853295e-07 0.74992903)
(-7.3180976e-07 -8.9670958e-07 0.74992899)
(-1.0051853e-06 -8.7510619e-07 0.74992886)
(-1.0571365e-06 -9.4266523e-07 0.74992883)
(-1.2311285e-06 -1.0435848e-06 0.74992882)
(-1.0726275e-06 -9.2057699e-07 0.7499289)
(-7.6268179e-07 -7.6268179e-07 0.74992881)
(-4.9157079e-07 -7.5298068e-07 0.74992864)
(-1.3367778e-07 -6.9453545e-07 0.74992881)
(3.5303316e-08 -5.0484185e-07 0.7499291)
(-2.5981469e-07 -5.1779143e-07 0.74992902)
(-8.3241478e-07 -6.9413962e-07 0.74992892)
(-1.0061155e-06 -5.7048986e-07 0.74992877)
(-1.06102e-06 -6.2423818e-07 0.74992874)
(-1.1066479e-06 -5.295797e-07 0.74992878)
(-9.6674705e-07 -5.0371973e-07 0.74992872)
(-7.5298063e-07 -4.9157089e-07 0.74992864)
(-4.3557344e-07 -4.3557334e-07 0.7499289)
(-7.8161065e-08 -5.4751309e-07 0.74992864)
(-4.674015e-08 -6.8186836e-08 0.74992912)
(-4.0009068e-07 -1.502303e-07 0.74992889)
(-7.845082e-07 -1.6170416e-07 0.74992881)
(-9.3528382e-07 -1.1829258e-07 0.74992873)
(-1.0162263e-06 -1.1448308e-07 0.74992868)
(-1.1106101e-06 -8.8430137e-08 0.74992865)
(-1.0346187e-06 -1.1712452e-07 0.74992862)
(-6.945354e-07 -1.3367789e-07 0.74992881)
(-5.4751299e-07 -7.8161036e-08 0.74992864)
(-2.0830428e-07 -2.0830425e-07 0.74992841)
(8.2648086e-08 8.2648109e-08 0.74992798)
(1.9461489e-08 1.2334946e-07 0.74992794)
(-5.9784821e-07 1.7770432e-08 0.74992792)
(-9.6400866e-07 3.1457631e-08 0.74992779)
(-1.2641717e-06 -2.5253665e-08 0.74992768)
(-1.36859e-06 -5.7401671e-09 0.74992763)
(-1.111228e-06 1.0806379e-08 0.74992774)
(-8.8911715e-07 -2.6520155e-08 0.7499278)
(-4.367484e-07 2.351285e-09 0.74992785)
(-5.5846532e-08 -1.3505302e-07 0.7499279)
(1.2334944e-07 1.9461616e-08 0.74992794)
(-7.7855027e-08 -7.7855021e-08 0.74992793)
(-7.3568596e-07 -1.1694851e-07 0.74992779)
(-1.0285448e-06 -3.8722651e-07 0.74992757)
(-1.3199684e-06 -4.250141e-07 0.74992754)
(-1.3145e-06 -4.4548712e-07 0.74992763)
(-1.142398e-06 -3.369442e-07 0.74992778)
(-9.0179979e-07 -2.290785e-07 0.74992781)
(-5.995477e-07 -3.8504938e-07 0.74992777)
(-1.9325084e-07 -5.7711621e-07 0.74992771)
(1.7770328e-08 -5.9784824e-07 0.74992792)
(-1.1694864e-07 -7.35686e-07 0.74992779)
(-9.072197e-07 -9.0721975e-07 0.74992751)
(-1.2720743e-06 -9.5329569e-07 0.74992736)
(-1.3224323e-06 -1.1218766e-06 0.74992739)
(-1.2805201e-06 -1.0205323e-06 0.74992751)
(-8.9481937e-07 -9.3110845e-07 0.7499277)
(-9.3722234e-07 -8.5057481e-07 0.74992774)
(-7.8478611e-07 -9.8551211e-07 0.74992766)
(-1.8389108e-07 -8.7404378e-07 0.74992763)
(3.1457598e-08 -9.6400886e-07 0.74992779)
(-3.8722653e-07 -1.0285449e-06 0.74992757)
(-9.5329565e-07 -1.2720742e-06 0.74992736)
(-1.2432016e-06 -1.2432016e-06 0.74992724)
(-1.387205e-06 -1.221891e-06 0.74992729)
(-1.1237318e-06 -1.0991798e-06 0.74992744)
(-9.724405e-07 -1.0027215e-06 0.74992763)
(-9.5620345e-07 -1.1279227e-06 0.74992757)
(-6.2301668e-07 -1.0912181e-06 0.74992752)
(-1.1893862e-07 -9.8522618e-07 0.74992757)
(-2.525367e-08 -1.2641717e-06 0.74992768)
(-4.2501397e-07 -1.3199685e-06 0.74992754)
(-1.1218765e-06 -1.3224323e-06 0.74992739)
(-1.2218911e-06 -1.387205e-06 0.74992729)
(-1.1784105e-06 -1.1784105e-06 0.74992736)
(-1.0613507e-06 -9.2231642e-07 0.7499275)
(-9.2356219e-07 -9.1520225e-07 0.7499276)
(-1.0257189e-06 -1.0372517e-06 0.74992749)
(-6.4208964e-07 -9.9461958e-07 0.74992753)
(-1.1322982e-07 -1.0039339e-06 0.7499276)
(-5.7402377e-09 -1.36859e-06 0.74992763)
(-4.454871e-07 -1.3145e-06 0.74992763)
(-1.0205322e-06 -1.2805202e-06 0.74992751)
(-1.0991798e-06 -1.1237318e-06 0.74992744)
(-9.2231642e-07 -1.0613507e-06 0.7499275)
(-8.6052363e-07 -8.6052366e-07 0.74992757)
(-1.0873757e-06 -1.0825934e-06 0.74992757)
(-1.0356208e-06 -1.0848972e-06 0.74992762)
(-5.8969889e-07 -1.0878152e-06 0.74992764)
(-1.2514816e-07 -1.0666818e-06 0.74992765)
(1.0806332e-08 -1.111228e-06 0.74992774)
(-3.3694417e-07 -1.142398e-06 0.74992778)
(-9.3110832e-07 -8.9481941e-07 0.7499277)
(-1.0027216e-06 -9.7244058e-07 0.74992763)
(-9.1520234e-07 -9.235622e-07 0.7499276)
(-1.0825934e-06 -1.0873758e-06 0.74992757)
(-1.1479357e-06 -1.1479357e-06 0.74992768)
(-1.0309406e-06 -1.113292e-06 0.74992764)
(-6.2387421e-07 -1.0094864e-06 0.74992758)
(-9.9140848e-08 -8.8846518e-07 0.74992768)
(-2.6520268e-08 -8.8911724e-07 0.7499278)
(-2.2907853e-07 -9.0179991e-07 0.74992781)
(-8.505747e-07 -9.3722232e-07 0.74992774)
(-1.1279226e-06 -9.5620353e-07 0.74992757)
(-1.0372516e-06 -1.0257188e-06 0.74992749)
(-1.0848971e-06 -1.0356208e-06 0.74992762)
(-1.1132919e-06 -1.0309407e-06 0.74992764)
(-8.9717143e-07 -8.9717139e-07 0.7499275)
(-3.648721e-07 -5.7375961e-07 0.74992772)
(-4.4467365e-08 -8.1877114e-07 0.74992771)
(2.3512143e-09 -4.3674839e-07 0.74992785)
(-3.8504925e-07 -5.9954769e-07 0.74992777)
(-9.8551193e-07 -7.8478611e-07 0.74992766)
(-1.0912181e-06 -6.2301675e-07 0.74992752)
(-9.9461958e-07 -6.4208972e-07 0.74992753)
(-1.0878153e-06 -5.8969896e-07 0.74992764)
(-1.0094863e-06 -6.2387425e-07 0.74992758)
(-5.7375957e-07 -3.6487214e-07 0.74992772)
(-5.4547397e-07 -5.4547392e-07 0.74992766)
(-2.6248187e-07 -7.7100785e-07 0.74992737)
(-1.3505313e-07 -5.5846475e-08 0.7499279)
(-5.7711625e-07 -1.9325082e-07 0.74992771)
(-8.7404376e-07 -1.8389114e-07 0.74992763)
(-9.8522622e-07 -1.1893871e-07 0.74992757)
(-1.0039338e-06 -1.132299e-07 0.7499276)
(-1.0666817e-06 -1.251482e-07 0.74992765)
(-8.8846512e-07 -9.9140825e-08 0.74992768)
(-8.187711e-07 -4.4467394e-08 0.74992771)
(-7.7100781e-07 -2.6248184e-07 0.74992737)
(-1.9482332e-07 -1.9482329e-07 0.74992759)
(6.4620299e-08 6.4620285e-08 0.74992634)
(-2.6644018e-08 1.0077814e-07 0.74992631)
(-6.7988503e-07 -3.0587415e-08 0.74992625)
(-1.0684047e-06 -4.9511926e-08 0.74992613)
(-1.2640406e-06 -8.0222871e-08 0.74992618)
(-1.2185361e-06 -1.4646467e-09 0.74992638)
(-9.5554811e-07 2.5474383e-08 0.74992659)
(-8.3847862e-07 -3.2326786e-08 0.74992668)
(-4.0379023e-07 -2.3095434e-08 0.7499267)
(-3.6180045e-08 -1.7356231e-07 0.74992679)
(1.0077815e-07 -2.6643975e-08 0.74992631)
(-1.6945557e-07 -1.6945556e-07 0.7499262)
(-9.0532013e-07 -3.7080473e-07 0.7499261)
(-1.1428579e-06 -5.8486881e-07 0.74992601)
(-1.1919697e-06 -4.8870954e-07 0.74992614)
(-1.0599903e-06 -4.5469322e-07 0.74992639)
(-1.0018413e-06 -3.5648464e-07 0.74992661)
(-9.1133334e-07 -2.7364959e-07 0.74992669)
(-6.1564352e-07 -4.5545267e-07 0.74992668)
(-1.8664692e-07 -6.6829759e-07 0.74992669)
(-3.0587424e-08 -6.7988502e-07 0.74992625)
(-3.7080477e-07 -9.0532016e-07 0.7499261)
(-1.0952983e-06 -1.0952984e-06 0.74992589)
(-1.1863095e-06 -1.0230968e-06 0.74992595)
(-1.133865e-06 -1.1393123e-06 0.7499262)
(-1.0863113e-06 -1.0643581e-06 0.7499264)
(-7.7450448e-07 -1.0005688e-06 0.7499266)
(-9.3744665e-07 -9.6871029e-07 0.74992667)
(-7.9843823e-07 -1.0822956e-06 0.74992666)
(-1.7807666e-07 -9.2416275e-07 0.74992669)
(-4.9511939e-08 -1.0684048e-06 0.74992613)
(-5.8486891e-07 -1.142858e-06 0.74992601)
(-1.0230967e-06 -1.1863095e-06 0.74992595)
(-1.1868718e-06 -1.1868719e-06 0.74992604)
(-1.233231e-06 -1.1947953e-06 0.74992619)
(-9.2124672e-07 -1.0839638e-06 0.74992641)
(-9.0619348e-07 -1.0621262e-06 0.74992658)
(-9.9306021e-07 -1.2499095e-06 0.74992655)
(-5.7109597e-07 -1.1298106e-06 0.74992661)
(-8.1225001e-08 -9.6659328e-07 0.74992677)
(-8.0222885e-08 -1.2640406e-06 0.74992618)
(-4.887095e-07 -1.1919698e-06 0.74992614)
(-1.1393122e-06 -1.133865e-06 0.7499262)
(-1.1947953e-06 -1.2332311e-06 0.74992619)
(-1.030957e-06 -1.030957e-06 0.74992634)
(-9.5364219e-07 -8.6815992e-07 0.7499265)
(-9.4045016e-07 -9.6053348e-07 0.74992653)
(-1.0051311e-06 -1.012129e-06 0.74992653)
(-5.1512198e-07 -9.4033451e-07 0.74992672)
(-6.9265094e-08 -9.3323384e-07 0.74992683)
(-1.4647365e-09 -1.2185362e-06 0.74992638)
(-4.5469328e-07 -1.0599903e-06 0.74992639)
(-1.0643581e-06 -1.0863113e-06 0.7499264)
(-1.0839638e-06 -9.2124679e-07 0.74992641)
(-8.6815983e-07 -9.5364226e-07 0.7499265)
(-8.5082321e-07 -8.5082328e-07 0.7499265)
(-1.0501626e-06 -1.0486288e-06 0.7499265)
(-9.7286124e-07 -1.0882969e-06 0.74992663)
(-4.9220078e-07 -1.0608208e-06 0.74992673)
(-7.6491219e-08 -1.0285497e-06 0.74992686)
(2.5474369e-08 -9.5554811e-07 0.74992659)
(-3.5648461e-07 -1.0018413e-06 0.74992661)
(-1.0005687e-06 -7.7450454e-07 0.7499266)
(-1.0621262e-06 -9.061936e-07 0.74992658)
(-9.6053345e-07 -9.4045019e-07 0.74992653)
(-1.0486288e-06 -1.0501627e-06 0.7499265)
(-1.1779238e-06 -1.1779239e-06 0.74992655)
(-1.017323e-06 -1.1860854e-06 0.74992651)
(-4.5537473e-07 -8.7865685e-07 0.74992685)
(-4.775102e-08 -9.759476e-07 0.74992683)
(-3.2326871e-08 -8.384786e-07 0.74992668)
(-2.7364971e-07 -9.1133346e-07 0.74992669)
(-9.6871036e-07 -9.3744667e-07 0.74992667)
(-1.2499095e-06 -9.9306032e-07 0.74992655)
(-1.0121289e-06 -1.005131e-06 0.74992653)
(-1.0882969e-06 -9.7286126e-07 0.74992663)
(-1.1860853e-06 -1.0173231e-06 0.74992651)
(-6.7359421e-07 -6.7359422e-07 0.74992668)
(-2.8206296e-07 -6.707408e-07 0.74992695)
(-1.4135172e-07 -1.0099796e-06 0.74992662)
(-2.3095538e-08 -4.0379021e-07 0.7499267)
(-4.5545268e-07 -6.156435e-07 0.74992668)
(-1.0822956e-06 -7.9843813e-07 0.74992666)
(-1.1298106e-06 -5.7109582e-07 0.74992661)
(-9.403344e-07 -5.1512199e-07 0.74992672)
(-1.0608208e-06 -4.9220071e-07 0.74992673)
(-8.7865678e-07 -4.553748e-07 0.74992685)