/*--------------------------------*- C++ -*----------------------------------*\
| =========                 |                                                 |
| \\      /  F ield         | OpenFOAM: The Open Source CFD Toolbox           |
|  \\    /   O peration     | Version:  v2106                                 |
|   \\  /    A nd           | Website:  www.openfoam.com                      |
|    \\/     M anipulation  |                                                 |
\*---------------------------------------------------------------------------*/
FoamFile
{
    version     2.0;
    format      ascii;
    arch        "LSB;label=32;scalar=64";
    class       volScalarField;
    location    "50";
    object      gradTz;
}
// * * * * * * * * * * * * * * * * * * * * * * * * * * * * * * * * * * * * * //

dimensions      [0 -1 0 1 0 0 0];

internalField   nonuniform List<scalar> 
10000
(
2999.7376
2999.7394
2999.7385
2999.7366
2999.7355
2999.7337
2999.7331
2999.7318
2999.7309
2999.7318
2999.7394
2999.7398
2999.7388
2999.737
2999.736
2999.7345
2999.7334
2999.732
2999.732
2999.732
2999.7385
2999.7388
2999.7378
2999.7368
2999.736
2999.734
2999.733
2999.7318
2999.7309
2999.731
2999.7366
2999.737
2999.7368
2999.7365
2999.7349
2999.7332
2999.7322
2999.7309
2999.7304
2999.7303
2999.7355
2999.736
2999.736
2999.7349
2999.7341
2999.7318
2999.7309
2999.7289
2999.7284
2999.7281
2999.7337
2999.7345
2999.734
2999.7332
2999.7318
2999.7304
2999.7288
2999.7271
2999.7265
2999.7261
2999.7331
2999.7334
2999.733
2999.7322
2999.7309
2999.7288
2999.7282
2999.7263
2999.7251
2999.7253
2999.7318
2999.732
2999.7318
2999.7309
2999.7289
2999.7271
2999.7263
2999.7242
2999.725
2999.7252
2999.7309
2999.732
2999.7309
2999.7304
2999.7284
2999.7265
2999.7251
2999.725
2999.7256
2999.7243
2999.7318
2999.732
2999.731
2999.7303
2999.7281
2999.7261
2999.7253
2999.7252
2999.7243
2999.7224
2999.7358
2999.7357
2999.7354
2999.7343
2999.7334
2999.7323
2999.7309
2999.73
2999.7293
2999.7288
2999.7357
2999.7359
2999.7355
2999.7348
2999.7339
2999.7326
2999.7313
2999.7299
2999.7295
2999.7291
2999.7354
2999.7355
2999.7354
2999.7345
2999.7337
2999.732
2999.7308
2999.7299
2999.7289
2999.7283
2999.7343
2999.7348
2999.7345
2999.7339
2999.7324
2999.7312
2999.7297
2999.7284
2999.7273
2999.7267
2999.7334
2999.7339
2999.7337
2999.7324
2999.7316
2999.7298
2999.7283
2999.7272
2999.726
2999.7258
2999.7323
2999.7326
2999.732
2999.7312
2999.7298
2999.7285
2999.7271
2999.7258
2999.7248
2999.7249
2999.7309
2999.7313
2999.7308
2999.7297
2999.7283
2999.7271
2999.7254
2999.7244
2999.7235
2999.7237
2999.73
2999.7299
2999.7299
2999.7284
2999.7272
2999.7258
2999.7244
2999.7232
2999.7226
2999.7222
2999.7293
2999.7295
2999.7289
2999.7273
2999.726
2999.7248
2999.7235
2999.7226
2999.7214
2999.7203
2999.7288
2999.7291
2999.7283
2999.7267
2999.7258
2999.7249
2999.7237
2999.7222
2999.7203
2999.7205
2999.732
2999.7312
2999.7308
2999.7306
2999.73
2999.7288
2999.7276
2999.7265
2999.7258
2999.7251
2999.7312
2999.7313
2999.7312
2999.731
2999.73
2999.7286
2999.7276
2999.7264
2999.7255
2999.7248
2999.7308
2999.7312
2999.7316
2999.7305
2999.7297
2999.7279
2999.727
2999.726
2999.725
2999.7244
2999.7306
2999.731
2999.7305
2999.7297
2999.7283
2999.727
2999.7259
2999.7247
2999.7239
2999.7237
2999.73
2999.73
2999.7297
2999.7283
2999.7276
2999.726
2999.7249
2999.7241
2999.7235
2999.7233
2999.7288
2999.7286
2999.7279
2999.727
2999.726
2999.7249
2999.7245
2999.7234
2999.7227
2999.7225
2999.7276
2999.7276
2999.727
2999.7259
2999.7249
2999.7245
2999.7232
2999.7217
2999.7215
2999.721
2999.7265
2999.7264
2999.726
2999.7247
2999.7241
2999.7234
2999.7217
2999.7209
2999.7205
2999.7194
2999.7258
2999.7255
2999.725
2999.7239
2999.7235
2999.7227
2999.7215
2999.7205
2999.7188
2999.7193
2999.7251
2999.7248
2999.7244
2999.7237
2999.7233
2999.7225
2999.721
2999.7194
2999.7193
2999.7202
2999.7249
2999.725
2999.7253
2999.7252
2999.7248
2999.7235
2999.7227
2999.7218
2999.7211
2999.7209
2999.725
2999.7254
2999.7254
2999.7251
2999.7242
2999.723
2999.7223
2999.7216
2999.7208
2999.7202
2999.7253
2999.7254
2999.7256
2999.7243
2999.7235
2999.7225
2999.7216
2999.7211
2999.7205
2999.7201
2999.7252
2999.7251
2999.7243
2999.7234
2999.7224
2999.7213
2999.7207
2999.7204
2999.72
2999.7198
2999.7248
2999.7242
2999.7235
2999.7224
2999.7214
2999.7209
2999.7207
2999.7205
2999.7199
2999.7195
2999.7235
2999.723
2999.7225
2999.7213
2999.7209
2999.7206
2999.7206
2999.7198
2999.7193
2999.7188
2999.7227
2999.7223
2999.7216
2999.7207
2999.7207
2999.7206
2999.7197
2999.7189
2999.7188
2999.7179
2999.7218
2999.7216
2999.7211
2999.7204
2999.7205
2999.7198
2999.7189
2999.7189
2999.718
2999.7175
2999.7211
2999.7208
2999.7205
2999.72
2999.7199
2999.7193
2999.7188
2999.718
2999.7176
2999.7185
2999.7209
2999.7202
2999.7201
2999.7198
2999.7195
2999.7188
2999.7179
2999.7175
2999.7185
2999.7176
2999.7183
2999.7185
2999.7188
2999.7184
2999.7178
2999.717
2999.7166
2999.7163
2999.7164
2999.7165
2999.7185
2999.7189
2999.7184
2999.7179
2999.7173
2999.7167
2999.7164
2999.7161
2999.7161
2999.7156
2999.7188
2999.7184
2999.7179
2999.7169
2999.716
2999.7159
2999.716
2999.716
2999.7157
2999.7152
2999.7184
2999.7179
2999.7169
2999.716
2999.7154
2999.7152
2999.7155
2999.7154
2999.7151
2999.7149
2999.7178
2999.7173
2999.716
2999.7154
2999.7148
2999.7151
2999.7157
2999.7153
2999.715
2999.7147
2999.717
2999.7167
2999.7159
2999.7152
2999.7151
2999.7157
2999.7156
2999.7153
2999.7151
2999.7146
2999.7166
2999.7164
2999.716
2999.7155
2999.7157
2999.7156
2999.7153
2999.7156
2999.7149
2999.7145
2999.7163
2999.7161
2999.716
2999.7154
2999.7153
2999.7153
2999.7156
2999.7153
2999.7146
2999.7152
2999.7164
2999.7161
2999.7157
2999.7151
2999.715
2999.7151
2999.7149
2999.7146
2999.7156
2999.7146
2999.7165
2999.7156
2999.7152
2999.7149
2999.7147
2999.7146
2999.7145
2999.7152
2999.7146
2999.7136
2999.7119
2999.7118
2999.7117
2999.7112
2999.7107
2999.7105
2999.711
2999.7112
2999.7114
2999.7116
2999.7118
2999.7117
2999.7112
2999.7103
2999.7102
2999.7105
2999.7111
2999.7112
2999.7111
2999.7108
2999.7117
2999.7112
2999.71
2999.7095
2999.7096
2999.71
2999.7108
2999.7109
2999.7106
2999.7105
2999.7112
2999.7103
2999.7095
2999.709
2999.7092
2999.7098
2999.7105
2999.7103
2999.7101
2999.7103
2999.7107
2999.7102
2999.7096
2999.7092
2999.7094
2999.71
2999.7104
2999.71
2999.7101
2999.7104
2999.7105
2999.7105
2999.71
2999.7098
2999.71
2999.7103
2999.7103
2999.7105
2999.7105
2999.7106
2999.711
2999.7111
2999.7108
2999.7105
2999.7104
2999.7103
2999.7107
2999.7105
2999.7103
2999.7107
2999.7112
2999.7112
2999.7109
2999.7103
2999.71
2999.7105
2999.7105
2999.71
2999.7109
2999.7109
2999.7114
2999.7111
2999.7106
2999.7101
2999.7101
2999.7105
2999.7103
2999.7109
2999.7106
2999.7095
2999.7116
2999.7108
2999.7105
2999.7103
2999.7104
2999.7106
2999.7107
2999.7109
2999.7095
2999.7103
2999.7053
2999.7053
2999.705
2999.7045
2999.7047
2999.7055
2999.7064
2999.7067
2999.7068
2999.7072
2999.7053
2999.7048
2999.7044
2999.7041
2999.7046
2999.7056
2999.7064
2999.7068
2999.7067
2999.7068
2999.705
2999.7044
2999.7036
2999.7038
2999.7048
2999.7056
2999.7064
2999.7067
2999.7066
2999.7068
2999.7045
2999.7041
2999.7038
2999.7042
2999.7047
2999.7056
2999.7063
2999.7062
2999.7065
2999.7071
2999.7047
2999.7046
2999.7048
2999.7047
2999.7054
2999.706
2999.7061
2999.7061
2999.7069
2999.7073
2999.7055
2999.7056
2999.7056
2999.7056
2999.706
2999.706
2999.706
2999.7065
2999.7069
2999.7074
2999.7064
2999.7064
2999.7064
2999.7063
2999.7061
2999.706
2999.7062
2999.7061
2999.7074
2999.7073
2999.7067
2999.7068
2999.7067
2999.7062
2999.7061
2999.7065
2999.7061
2999.7067
2999.7078
2999.7065
2999.7068
2999.7067
2999.7066
2999.7065
2999.7069
2999.7069
2999.7074
2999.7078
2999.7065
2999.707
2999.7072
2999.7068
2999.7068
2999.7071
2999.7073
2999.7074
2999.7073
2999.7065
2999.707
2999.7071
2999.7001
2999.6999
2999.6997
2999.6997
2999.7006
2999.7017
2999.7025
2999.703
2999.7031
2999.7035
2999.6999
2999.6995
2999.6993
2999.6998
2999.7009
2999.7019
2999.7026
2999.703
2999.7031
2999.7033
2999.6997
2999.6993
2999.6995
2999.7002
2999.7014
2999.7023
2999.7029
2999.7033
2999.7036
2999.7042
2999.6997
2999.6998
2999.7002
2999.701
2999.7019
2999.7027
2999.7031
2999.7034
2999.7043
2999.7049
2999.7006
2999.7009
2999.7014
2999.7019
2999.7026
2999.703
2999.7032
2999.7039
2999.7048
2999.7048
2999.7017
2999.7019
2999.7023
2999.7027
2999.703
2999.703
2999.7032
2999.7042
2999.7049
2999.7048
2999.7025
2999.7026
2999.7029
2999.7031
2999.7032
2999.7032
2999.7036
2999.7047
2999.7056
2999.7048
2999.703
2999.703
2999.7033
2999.7034
2999.7039
2999.7042
2999.7047
2999.7058
2999.705
2999.7053
2999.7031
2999.7031
2999.7036
2999.7043
2999.7048
2999.7049
2999.7056
2999.705
2999.7056
2999.7065
2999.7035
2999.7033
2999.7042
2999.7049
2999.7048
2999.7048
2999.7048
2999.7053
2999.7065
2999.7058
2999.6966
2999.6964
2999.6965
2999.6968
2999.698
2999.6988
2999.6995
2999.6999
2999.7
2999.7004
2999.6964
2999.6964
2999.6963
2999.6971
2999.6982
2999.6991
2999.6996
2999.6997
2999.7001
2999.7009
2999.6965
2999.6963
2999.6969
2999.6977
2999.6989
2999.6997
2999.6999
2999.7002
2999.7011
2999.7021
2999.6968
2999.6971
2999.6977
2999.6986
2999.6996
2999.7
2999.7002
2999.701
2999.7022
2999.7021
2999.698
2999.6982
2999.6989
2999.6996
2999.7001
2999.7002
2999.7008
2999.7018
2999.7019
2999.702
2999.6988
2999.6991
2999.6997
2999.7
2999.7002
2999.7006
2999.701
2999.7023
2999.7028
2999.7024
2999.6995
2999.6996
2999.6999
2999.7002
2999.7008
2999.701
2999.702
2999.7031
2999.7027
2999.7027
2999.6999
2999.6997
2999.7002
2999.701
2999.7018
2999.7023
2999.7031
2999.7037
2999.7032
2999.7044
2999.7
2999.7001
2999.7011
2999.7022
2999.7019
2999.7028
2999.7027
2999.7032
2999.7041
2999.7036
2999.7004
2999.7009
2999.7021
2999.7021
2999.702
2999.7024
2999.7027
2999.7044
2999.7036
2999.7042
2999.6948
2999.6946
2999.6948
2999.6951
2999.6963
2999.6969
2999.6973
2999.6976
2999.6979
2999.6988
2999.6946
2999.6946
2999.6948
2999.6955
2999.6965
2999.6971
2999.6973
2999.6974
2999.6982
2999.6992
2999.6948
2999.6948
2999.6954
2999.6961
2999.6971
2999.6975
2999.6975
2999.698
2999.6989
2999.6994
2999.6951
2999.6955
2999.6961
2999.697
2999.6977
2999.6978
2999.698
2999.6986
2999.6993
2999.6993
2999.6963
2999.6965
2999.6971
2999.6977
2999.6981
2999.6981
2999.6986
2999.6993
2999.6991
2999.6996
2999.6969
2999.6971
2999.6975
2999.6978
2999.6981
2999.6985
2999.699
2999.6998
2999.6995
2999.7002
2999.6973
2999.6973
2999.6975
2999.698
2999.6986
2999.699
2999.6998
2999.6994
2999.6992
2999.7005
2999.6976
2999.6974
2999.698
2999.6986
2999.6993
2999.6998
2999.6994
2999.6993
2999.7006
2999.7008
2999.6979
2999.6982
2999.6989
2999.6993
2999.6991
2999.6995
2999.6992
2999.7006
2999.7001
2999.6999
2999.6988
2999.6992
2999.6994
2999.6993
2999.6996
2999.7002
2999.7005
2999.7008
2999.6999
2999.7002
2999.6939
2999.6939
2999.694
2999.6945
2999.6954
2999.6958
2999.6962
2999.6967
2999.6973
2999.6981
2999.6939
2999.6937
2999.6942
2999.6949
2999.6956
2999.696
2999.6964
2999.6968
2999.6974
2999.6974
2999.694
2999.6942
2999.6949
2999.6955
2999.6961
2999.6965
2999.6967
2999.6971
2999.6972
2999.6973
2999.6945
2999.6949
2999.6955
2999.6962
2999.6969
2999.6971
2999.6974
2999.6974
2999.6976
2999.6983
2999.6954
2999.6956
2999.6961
2999.6969
2999.6976
2999.6976
2999.6976
2999.6976
2999.6985
2999.6987
2999.6958
2999.696
2999.6965
2999.6971
2999.6976
2999.6975
2999.6978
2999.6982
2999.6982
2999.699
2999.6962
2999.6964
2999.6967
2999.6974
2999.6976
2999.6978
2999.6979
2999.6978
2999.6987
2999.6995
2999.6967
2999.6968
2999.6971
2999.6974
2999.6976
2999.6982
2999.6978
2999.6979
2999.6983
2999.6987
2999.6973
2999.6974
2999.6972
2999.6976
2999.6985
2999.6982
2999.6987
2999.6983
2999.698
2999.6999
2999.6981
2999.6974
2999.6973
2999.6983
2999.6987
2999.699
2999.6995
2999.6987
2999.6999
2999.7006
2999.6937
2999.6937
2999.694
2999.6945
2999.6952
2999.6955
2999.6961
2999.6968
2999.6974
2999.6971
2999.6937
2999.6937
2999.6943
2999.6949
2999.6955
2999.6957
2999.6964
2999.697
2999.697
2999.6962
2999.694
2999.6943
2999.695
2999.6956
2999.6959
2999.6963
2999.6967
2999.6972
2999.6969
2999.697
2999.6945
2999.6949
2999.6956
2999.6961
2999.6969
2999.6971
2999.6975
2999.698
2999.6983
2999.6981
2999.6952
2999.6955
2999.6959
2999.6969
2999.6977
2999.6977
2999.6978
2999.6977
2999.6984
2999.698
2999.6955
2999.6957
2999.6963
2999.6971
2999.6977
2999.6975
2999.6979
2999.6979
2999.699
2999.6989
2999.6961
2999.6964
2999.6967
2999.6975
2999.6978
2999.6979
2999.6979
2999.6987
2999.7001
2999.699
2999.6968
2999.697
2999.6972
2999.698
2999.6977
2999.6979
2999.6987
2999.6993
2999.699
2999.6991
2999.6974
2999.697
2999.6969
2999.6983
2999.6984
2999.699
2999.7001
2999.699
2999.7003
2999.7006
2999.6971
2999.6962
2999.697
2999.6981
2999.698
2999.6989
2999.699
2999.6991
2999.7006
2999.7015
2999.694
2999.6939
2999.6944
2999.6948
2999.6954
2999.6958
2999.6962
2999.6966
2999.6971
2999.6963
2999.6939
2999.6941
2999.6948
2999.6951
2999.6957
2999.6957
2999.6959
2999.697
2999.6968
2999.6963
2999.6944
2999.6948
2999.6952
2999.6959
2999.696
2999.6959
2999.6965
2999.6969
2999.697
2999.6967
2999.6948
2999.6951
2999.6959
2999.6963
2999.6965
2999.6965
2999.697
2999.6978
2999.6983
2999.6971
2999.6954
2999.6957
2999.696
2999.6965
2999.6966
2999.6967
2999.6974
2999.6976
2999.6974
2999.6972
2999.6958
2999.6957
2999.6959
2999.6965
2999.6967
2999.6973
2999.6981
2999.6983
2999.6987
2999.698
2999.6962
2999.6959
2999.6965
2999.697
2999.6974
2999.6981
2999.6992
2999.699
2999.6987
2999.698
2999.6966
2999.697
2999.6969
2999.6978
2999.6976
2999.6983
2999.699
2999.6987
2999.699
2999.699
2999.6971
2999.6968
2999.697
2999.6983
2999.6974
2999.6987
2999.6987
2999.699
2999.7002
2999.699
2999.6963
2999.6963
2999.6967
2999.6971
2999.6972
2999.698
2999.698
2999.699
2999.699
2999.6976
2999.6947
2999.6949
2999.6954
2999.6953
2999.6959
2999.6966
2999.6966
2999.6968
2999.697
2999.6967
2999.6949
2999.6952
2999.6955
2999.6954
2999.6962
2999.6962
2999.6961
2999.6971
2999.6972
2999.6974
2999.6954
2999.6955
2999.6954
2999.6962
2999.696
2999.6957
2999.6965
2999.6965
2999.6966
2999.6959
2999.6953
2999.6954
2999.6962
2999.6958
2999.6958
2999.6962
2999.6967
2999.6967
2999.6971
2999.6967
2999.6959
2999.6962
2999.696
2999.6958
2999.6963
2999.6969
2999.697
2999.6971
2999.6974
2999.6972
2999.6966
2999.6962
2999.6957
2999.6962
2999.6969
2999.6975
2999.6982
2999.6986
2999.698
2999.697
2999.6966
2999.6961
2999.6965
2999.6967
2999.697
2999.6982
2999.6998
2999.6982
2999.6973
2999.6977
2999.6968
2999.6971
2999.6965
2999.6967
2999.6971
2999.6986
2999.6982
2999.6977
2999.6981
2999.6983
2999.697
2999.6972
2999.6966
2999.6971
2999.6974
2999.698
2999.6973
2999.6981
2999.6971
2999.6973
2999.6967
2999.6974
2999.6959
2999.6967
2999.6972
2999.697
2999.6977
2999.6983
2999.6973
2999.6975
2999.6961
2999.6966
2999.697
2999.6967
2999.697
2999.6979
2999.6982
2999.6982
2999.6981
2999.6981
2999.6966
2999.6967
2999.6969
2999.6963
2999.6969
2999.6977
2999.6976
2999.6979
2999.6985
2999.6997
2999.697
2999.6969
2999.6959
2999.6963
2999.6962
2999.6969
2999.6971
2999.6974
2999.6978
2999.6977
2999.6967
2999.6963
2999.6963
2999.6953
2999.6958
2999.6966
2999.6968
2999.6974
2999.6976
2999.6976
2999.697
2999.6969
2999.6962
2999.6958
2999.6966
2999.6975
2999.698
2999.6983
2999.6986
2999.6981
2999.6979
2999.6977
2999.6969
2999.6966
2999.6975
2999.6984
2999.6989
2999.698
2999.6979
2999.6981
2999.6982
2999.6976
2999.6971
2999.6968
2999.698
2999.6989
2999.698
2999.6973
2999.6987
2999.6982
2999.6982
2999.6979
2999.6974
2999.6974
2999.6983
2999.698
2999.6973
2999.6983
2999.6984
2999.6975
2999.6981
2999.6985
2999.6978
2999.6976
2999.6986
2999.6979
2999.6987
2999.6984
2999.6975
2999.6979
2999.6981
2999.6997
2999.6977
2999.6976
2999.6981
2999.6981
2999.6982
2999.6975
2999.6979
2999.7005
2999.6984
2999.6987
2999.699
2999.6997
2999.6997
2999.7004
2999.7007
2999.7007
2999.7012
2999.7004
2999.6987
2999.6983
2999.6996
2999.6991
2999.6991
2999.7001
2999.6999
2999.7004
2999.7018
2999.7016
2999.699
2999.6996
2999.6986
2999.6985
2999.6989
2999.7
2999.7001
2999.7015
2999.7021
2999.7027
2999.6997
2999.6991
2999.6985
2999.6981
2999.6992
2999.6992
2999.6992
2999.7004
2999.7009
2999.7016
2999.6997
2999.6991
2999.6989
2999.6992
2999.6988
2999.6995
2999.7001
2999.7006
2999.7015
2999.7015
2999.7004
2999.7001
2999.7
2999.6992
2999.6995
2999.7007
2999.7001
2999.7001
2999.7012
2999.7019
2999.7007
2999.6999
2999.7001
2999.6992
2999.7001
2999.7001
2999.6985
2999.7005
2999.7013
2999.7006
2999.7007
2999.7004
2999.7015
2999.7004
2999.7006
2999.7001
2999.7005
2999.7008
2999.7005
2999.7012
2999.7012
2999.7018
2999.7021
2999.7009
2999.7015
2999.7012
2999.7013
2999.7005
2999.7021
2999.7028
2999.7004
2999.7016
2999.7027
2999.7016
2999.7015
2999.7019
2999.7006
2999.7012
2999.7028
2999.7022
2999.7012
2999.7025
2999.7016
2999.7035
2999.7033
2999.7038
2999.7036
2999.7049
2999.7062
2999.7035
2999.7025
2999.7007
2999.7023
2999.7027
2999.7021
2999.7025
2999.7022
2999.7031
2999.7027
2999.7005
2999.7016
2999.7023
2999.7018
2999.7024
2999.7026
2999.7032
2999.7043
2999.7048
2999.7047
2999.7046
2999.7035
2999.7027
2999.7024
2999.703
2999.7036
2999.7035
2999.7036
2999.704
2999.7045
2999.7042
2999.7033
2999.7021
2999.7026
2999.7036
2999.7026
2999.703
2999.7025
2999.7035
2999.7046
2999.7043
2999.7038
2999.7025
2999.7032
2999.7035
2999.703
2999.7029
2999.702
2999.7039
2999.7043
2999.7041
2999.7036
2999.7022
2999.7043
2999.7036
2999.7025
2999.702
2999.7031
2999.7049
2999.7033
2999.7039
2999.7049
2999.7031
2999.7048
2999.704
2999.7035
2999.7039
2999.7049
2999.7046
2999.7048
2999.7056
2999.7062
2999.7027
2999.7047
2999.7045
2999.7046
2999.7043
2999.7033
2999.7048
2999.7043
2999.7044
2999.7035
2999.7005
2999.7046
2999.7042
2999.7043
2999.7041
2999.7039
2999.7056
2999.7044
2999.7007
2999.7011
2999.7088
2999.7064
2999.7085
2999.7077
2999.7083
2999.7083
2999.7115
2999.7133
2999.7121
2999.7088
2999.7084
2999.7072
2999.7079
2999.7065
2999.7069
2999.706
2999.7053
2999.7038
2999.7018
2999.7064
2999.7072
2999.7068
2999.7073
2999.7057
2999.7065
2999.7074
2999.7062
2999.7062
2999.7033
2999.7085
2999.7079
2999.7073
2999.7061
2999.7061
2999.7077
2999.7078
2999.7074
2999.7066
2999.7051
2999.7077
2999.7065
2999.7057
2999.7061
2999.7058
2999.7064
2999.7054
2999.7063
2999.7052
2999.7039
2999.7083
2999.7069
2999.7065
2999.7077
2999.7064
2999.706
2999.7058
2999.7063
2999.7055
2999.7027
2999.7083
2999.706
2999.7074
2999.7078
2999.7054
2999.7058
2999.7058
2999.705
2999.7059
2999.7048
2999.7115
2999.7053
2999.7062
2999.7074
2999.7063
2999.7063
2999.705
2999.7055
2999.7066
2999.704
2999.7133
2999.7038
2999.7062
2999.7066
2999.7052
2999.7055
2999.7059
2999.7066
2999.7062
2999.7023
2999.7121
2999.7018
2999.7033
2999.7051
2999.7039
2999.7027
2999.7048
2999.704
2999.7023
2999.7024
2999.6888
2999.7004
2999.703
2999.7105
2999.7103
2999.7137
2999.7149
2999.7214
2999.7318
2999.7399
2999.7004
2999.7061
2999.7075
2999.7109
2999.7087
2999.711
2999.7093
2999.7104
2999.7172
2999.7283
2999.703
2999.7075
2999.713
2999.7147
2999.7084
2999.7092
2999.7094
2999.7094
2999.7132
2999.7215
2999.7105
2999.7109
2999.7147
2999.7104
2999.7078
2999.711
2999.7123
2999.7116
2999.7109
2999.7187
2999.7103
2999.7087
2999.7084
2999.7078
2999.7083
2999.7111
2999.7117
2999.7132
2999.7104
2999.7145
2999.7137
2999.711
2999.7092
2999.711
2999.7111
2999.7132
2999.7135
2999.715
2999.7139
2999.7112
2999.7149
2999.7093
2999.7094
2999.7123
2999.7117
2999.7135
2999.7115
2999.7112
2999.7121
2999.7088
2999.7214
2999.7104
2999.7094
2999.7116
2999.7132
2999.715
2999.7112
2999.7102
2999.7099
2999.7094
2999.7318
2999.7172
2999.7132
2999.7109
2999.7104
2999.7139
2999.7121
2999.7099
2999.7079
2999.7066
2999.7399
2999.7283
2999.7215
2999.7187
2999.7145
2999.7112
2999.7088
2999.7094
2999.7066
2999.7096
2999.7456
2999.7243
2999.7256
2999.72
2999.72
2999.7166
2999.7152
2999.7047
2999.6903
2999.6841
2999.7243
2999.7222
2999.7193
2999.7196
2999.7217
2999.7195
2999.723
2999.7212
2999.7151
2999.7072
2999.7256
2999.7193
2999.7163
2999.7153
2999.7196
2999.7185
2999.717
2999.7165
2999.7139
2999.7086
2999.72
2999.7196
2999.7153
2999.7202
2999.7195
2999.7162
2999.7148
2999.7147
2999.7147
2999.7098
2999.72
2999.7217
2999.7196
2999.7195
2999.7182
2999.7153
2999.7152
2999.7126
2999.7163
2999.716
2999.7166
2999.7195
2999.7185
2999.7162
2999.7153
2999.7123
2999.713
2999.7097
2999.7119
2999.7183
2999.7152
2999.723
2999.717
2999.7148
2999.7152
2999.713
2999.7158
2999.7164
2999.7135
2999.7193
2999.7047
2999.7212
2999.7165
2999.7147
2999.7126
2999.7097
2999.7164
2999.7157
2999.7119
2999.7134
2999.6903
2999.7151
2999.7139
2999.7147
2999.7163
2999.7119
2999.7135
2999.7119
2999.7133
2999.717
2999.6841
2999.7072
2999.7086
2999.7098
2999.716
2999.7183
2999.7193
2999.7134
2999.717
2999.7173
2999.7489
2999.7339
2999.7332
2999.7237
2999.7242
2999.72
2999.7208
2999.7129
2999.6992
2999.6904
2999.7339
2999.7327
2999.7299
2999.7254
2999.7283
2999.7242
2999.728
2999.727
2999.7202
2999.7076
2999.7332
2999.7299
2999.7233
2999.7194
2999.7268
2999.7247
2999.7245
2999.7244
2999.7212
2999.7113
2999.7237
2999.7254
2999.7194
2999.7236
2999.726
2999.7227
2999.7215
2999.722
2999.7222
2999.7135
2999.7242
2999.7283
2999.7268
2999.726
2999.7265
2999.7225
2999.7224
2999.7191
2999.7223
2999.718
2999.72
2999.7242
2999.7247
2999.7227
2999.7225
2999.719
2999.7198
2999.7161
2999.7172
2999.7208
2999.7208
2999.728
2999.7245
2999.7215
2999.7224
2999.7198
2999.7222
2999.7218
2999.7196
2999.7254
2999.7129
2999.727
2999.7244
2999.722
2999.7191
2999.7161
2999.7218
2999.7211
2999.7209
2999.7215
2999.6992
2999.7202
2999.7212
2999.7222
2999.7223
2999.7172
2999.7196
2999.7209
2999.724
2999.7253
2999.6904
2999.7076
2999.7113
2999.7135
2999.718
2999.7208
2999.7254
2999.7215
2999.7253
2999.7229
2999.7092
2999.7211
2999.7231
2999.7236
2999.7256
2999.7275
2999.7281
2999.7361
2999.7484
2999.7563
2999.7211
2999.7225
2999.7277
2999.7263
2999.7255
2999.7272
2999.7242
2999.7249
2999.734
2999.745
2999.7231
2999.7277
2999.7319
2999.731
2999.7277
2999.7274
2999.7275
2999.7285
2999.732
2999.7395
2999.7236
2999.7263
2999.731
2999.7273
2999.7256
2999.7278
2999.7291
2999.7289
2999.7286
2999.7351
2999.7256
2999.7255
2999.7277
2999.7256
2999.728
2999.7292
2999.7298
2999.731
2999.7283
2999.7311
2999.7275
2999.7272
2999.7274
2999.7278
2999.7292
2999.7314
2999.7316
2999.7335
2999.7321
2999.7297
2999.7281
2999.7242
2999.7275
2999.7291
2999.7298
2999.7316
2999.7298
2999.7297
2999.7305
2999.7283
2999.7361
2999.7249
2999.7285
2999.7289
2999.731
2999.7335
2999.7297
2999.7296
2999.7336
2999.7332
2999.7484
2999.734
2999.732
2999.7286
2999.7283
2999.7321
2999.7305
2999.7336
2999.7303
2999.7284
2999.7563
2999.745
2999.7395
2999.7351
2999.7311
2999.7297
2999.7283
2999.7332
2999.7284
2999.7281
2999.7351
2999.7366
2999.7345
2999.7338
2999.7347
2999.7339
2999.7321
2999.7317
2999.7341
2999.738
2999.7366
2999.7324
2999.7319
2999.7333
2999.7328
2999.7333
2999.7318
2999.7302
2999.7315
2999.735
2999.7345
2999.7319
2999.7344
2999.7344
2999.7344
2999.7331
2999.7326
2999.733
2999.7324
2999.735
2999.7338
2999.7333
2999.7344
2999.7338
2999.7335
2999.7331
2999.7323
2999.7314
2999.7312
2999.7351
2999.7347
2999.7328
2999.7344
2999.7335
2999.7342
2999.7324
2999.732
2999.7329
2999.7327
2999.7353
2999.7339
2999.7333
2999.7331
2999.7331
2999.7324
2999.7329
2999.7331
2999.7334
2999.7346
2999.7352
2999.7321
2999.7318
2999.7326
2999.7323
2999.732
2999.7331
2999.7312
2999.7318
2999.7342
2999.7332
2999.7317
2999.7302
2999.733
2999.7314
2999.7329
2999.7334
2999.7318
2999.7336
2999.7359
2999.7352
2999.7341
2999.7315
2999.7324
2999.7312
2999.7327
2999.7346
2999.7342
2999.7359
2999.7347
2999.7346
2999.738
2999.735
2999.735
2999.7351
2999.7353
2999.7352
2999.7332
2999.7352
2999.7346
2999.7362
2999.7376
2999.7372
2999.737
2999.7392
2999.7375
2999.737
2999.7379
2999.738
2999.7389
2999.7395
2999.7372
2999.7383
2999.7371
2999.7375
2999.7365
2999.7358
2999.7366
2999.7376
2999.7363
2999.7362
2999.737
2999.7371
2999.7369
2999.7361
2999.738
2999.7367
2999.737
2999.7377
2999.7374
2999.7389
2999.7392
2999.7375
2999.7361
2999.7378
2999.7386
2999.737
2999.7365
2999.737
2999.7383
2999.74
2999.7375
2999.7365
2999.738
2999.7386
2999.7382
2999.7374
2999.7377
2999.7387
2999.7389
2999.7391
2999.737
2999.7358
2999.7367
2999.737
2999.7374
2999.7374
2999.7375
2999.7381
2999.7388
2999.7388
2999.7379
2999.7366
2999.737
2999.7365
2999.7377
2999.7375
2999.7365
2999.737
2999.7386
2999.7377
2999.738
2999.7376
2999.7377
2999.737
2999.7387
2999.7381
2999.737
2999.7385
2999.7388
2999.7407
2999.7389
2999.7363
2999.7374
2999.7383
2999.7389
2999.7388
2999.7386
2999.7388
2999.741
2999.7436
2999.7395
2999.7362
2999.7389
2999.74
2999.7391
2999.7388
2999.7377
2999.7407
2999.7436
2999.7427
2999.7428
2999.7429
2999.7442
2999.7437
2999.7431
2999.743
2999.7431
2999.7439
2999.7455
2999.7468
2999.7429
2999.7433
2999.7433
2999.7424
2999.7433
2999.7428
2999.7435
2999.7434
2999.7441
2999.7439
2999.7442
2999.7433
2999.7432
2999.743
2999.7429
2999.7431
2999.7433
2999.744
2999.7454
2999.745
2999.7437
2999.7424
2999.743
2999.7447
2999.7429
2999.743
2999.7441
2999.7448
2999.745
2999.7448
2999.7431
2999.7433
2999.7429
2999.7429
2999.7419
2999.7441
2999.7451
2999.7451
2999.7445
2999.7445
2999.743
2999.7428
2999.7431
2999.743
2999.7441
2999.7453
2999.7449
2999.7456
2999.7453
2999.7451
2999.7431
2999.7435
2999.7433
2999.7441
2999.7451
2999.7449
2999.7458
2999.7462
2999.7457
2999.7454
2999.7439
2999.7434
2999.744
2999.7448
2999.7451
2999.7456
2999.7462
2999.7462
2999.7457
2999.7487
2999.7455
2999.7441
2999.7454
2999.745
2999.7445
2999.7453
2999.7457
2999.7457
2999.7493
2999.7493
2999.7468
2999.7439
2999.745
2999.7448
2999.7445
2999.7451
2999.7454
2999.7487
2999.7493
2999.7491
2999.7512
2999.7525
2999.7512
2999.7504
2999.7519
2999.7514
2999.7524
2999.7523
2999.7531
2999.7553
2999.7525
2999.752
2999.7497
2999.7502
2999.7511
2999.7512
2999.7534
2999.7528
2999.7531
2999.7526
2999.7512
2999.7497
2999.7499
2999.7501
2999.7494
2999.7505
2999.7524
2999.7528
2999.7529
2999.7524
2999.7504
2999.7502
2999.7501
2999.7493
2999.7493
2999.7508
2999.753
2999.7525
2999.7524
2999.7525
2999.7519
2999.7511
2999.7494
2999.7493
2999.7495
2999.7512
2999.7528
2999.7526
2999.7527
2999.7535
2999.7514
2999.7512
2999.7505
2999.7508
2999.7512
2999.7525
2999.7535
2999.7543
2999.7541
2999.7547
2999.7524
2999.7534
2999.7524
2999.753
2999.7528
2999.7535
2999.7551
2999.7543
2999.7546
2999.7552
2999.7523
2999.7528
2999.7528
2999.7525
2999.7526
2999.7543
2999.7543
2999.7541
2999.7557
2999.7562
2999.7531
2999.7531
2999.7529
2999.7524
2999.7527
2999.7541
2999.7546
2999.7557
2999.7561
2999.7552
2999.7553
2999.7526
2999.7524
2999.7525
2999.7535
2999.7547
2999.7552
2999.7562
2999.7552
2999.7575
2999.7607
2999.7594
2999.7587
2999.7601
2999.7601
2999.7606
2999.7624
2999.7625
2999.7623
2999.7642
2999.7594
2999.7593
2999.7587
2999.7592
2999.7586
2999.7603
2999.7616
2999.7622
2999.7621
2999.7625
2999.7587
2999.7587
2999.7573
2999.7576
2999.7583
2999.7597
2999.7613
2999.7616
2999.7617
2999.7627
2999.7601
2999.7592
2999.7576
2999.7572
2999.7584
2999.7599
2999.7613
2999.7612
2999.7629
2999.7636
2999.7601
2999.7586
2999.7583
2999.7584
2999.7594
2999.7604
2999.7616
2999.7626
2999.7638
2999.7644
2999.7606
2999.7603
2999.7597
2999.7599
2999.7604
2999.7613
2999.7624
2999.7634
2999.7639
2999.7653
2999.7624
2999.7616
2999.7613
2999.7613
2999.7616
2999.7624
2999.7628
2999.7626
2999.7656
2999.7655
2999.7625
2999.7622
2999.7616
2999.7612
2999.7626
2999.7634
2999.7626
2999.7645
2999.7665
2999.7647
2999.7623
2999.7621
2999.7617
2999.7629
2999.7638
2999.7639
2999.7656
2999.7665
2999.765
2999.7664
2999.7642
2999.7625
2999.7627
2999.7636
2999.7644
2999.7653
2999.7655
2999.7647
2999.7664
2999.7668
2999.7697
2999.7694
2999.7701
2999.7706
2999.7703
2999.7726
2999.773
2999.7737
2999.7742
2999.7756
2999.7694
2999.7682
2999.7697
2999.7692
2999.7705
2999.7715
2999.7713
2999.7734
2999.7738
2999.7745
2999.7701
2999.7697
2999.7685
2999.7695
2999.771
2999.7712
2999.7719
2999.7732
2999.7742
2999.7759
2999.7706
2999.7692
2999.7695
2999.7699
2999.7707
2999.7717
2999.7725
2999.774
2999.7763
2999.7768
2999.7703
2999.7705
2999.771
2999.7707
2999.7716
2999.7725
2999.7735
2999.7755
2999.777
2999.7769
2999.7726
2999.7715
2999.7712
2999.7717
2999.7725
2999.773
2999.7736
2999.776
2999.7772
2999.7775
2999.773
2999.7713
2999.7719
2999.7725
2999.7735
2999.7736
2999.7747
2999.7771
2999.7791
2999.7779
2999.7737
2999.7734
2999.7732
2999.774
2999.7755
2999.776
2999.7771
2999.7795
2999.7785
2999.7792
2999.7742
2999.7738
2999.7742
2999.7763
2999.777
2999.7772
2999.7791
2999.7785
2999.7798
2999.7816
2999.7756
2999.7745
2999.7759
2999.7768
2999.7769
2999.7775
2999.7779
2999.7792
2999.7816
2999.7806
2999.7822
2999.7838
2999.7849
2999.7835
2999.7847
2999.7858
2999.7861
2999.7883
2999.7885
2999.7888
2999.7838
2999.7846
2999.7841
2999.7836
2999.7848
2999.7854
2999.7863
2999.7878
2999.7879
2999.789
2999.7849
2999.7841
2999.7842
2999.785
2999.7858
2999.7868
2999.7863
2999.7878
2999.7893
2999.7909
2999.7835
2999.7836
2999.785
2999.7854
2999.7861
2999.7863
2999.7869
2999.7892
2999.791
2999.7908
2999.7847
2999.7848
2999.7858
2999.7861
2999.7864
2999.7863
2999.788
2999.7903
2999.7907
2999.7908
2999.7858
2999.7854
2999.7868
2999.7863
2999.7863
2999.7871
2999.7885
2999.7914
2999.7922
2999.7919
2999.7861
2999.7863
2999.7863
2999.7869
2999.788
2999.7885
2999.7911
2999.7933
2999.7925
2999.7927
2999.7883
2999.7878
2999.7878
2999.7892
2999.7903
2999.7914
2999.7933
2999.7942
2999.7934
2999.7957
2999.7885
2999.7879
2999.7893
2999.791
2999.7907
2999.7922
2999.7925
2999.7934
2999.7951
2999.7942
2999.7888
2999.789
2999.7909
2999.7908
2999.7908
2999.7919
2999.7927
2999.7957
2999.7942
2999.7952
2999.8018
2999.802
2999.8019
2999.8005
2999.802
2999.8018
2999.8031
2999.8038
2999.8034
2999.8045
2999.802
2999.8032
2999.8016
2999.802
2999.8022
2999.8026
2999.8032
2999.8033
2999.8041
2999.8058
2999.8019
2999.8016
2999.8029
2999.8023
2999.8026
2999.8037
2999.8032
2999.8044
2999.8053
2999.8059
2999.8005
2999.802
2999.8023
2999.8024
2999.8033
2999.8037
2999.8042
2999.8054
2999.8058
2999.8058
2999.802
2999.8022
2999.8026
2999.8033
2999.8038