/*--------------------------------*- C++ -*----------------------------------*\
| =========                 |                                                 |
| \\      /  F ield         | OpenFOAM: The Open Source CFD Toolbox           |
|  \\    /   O peration     | Version:  v2106                                 |
|   \\  /    A nd           | Website:  www.openfoam.com                      |
|    \\/     M anipulation  |                                                 |
\*---------------------------------------------------------------------------*/
FoamFile
{
    version     2.0;
    format      ascii;
    arch        "LSB;label=32;scalar=64";
    class       volVectorField;
    location    "50";
    object      gradT;
}
// * * * * * * * * * * * * * * * * * * * * * * * * * * * * * * * * * * * * * //

dimensions      [0 -1 0 1 0 0 0];

internalField   nonuniform List<vector> 
10000
(
(0.00033692743 0.00033692764 2999.7376)
(0.00016961741 0.00010230555 2999.7394)
(-0.00081316995 8.2543105e-05 2999.7385)
(-0.00082492787 7.3006333e-05 2999.7366)
(-0.00084609547 0.0001002115 2999.7355)
(-0.00051683779 0.0001802686 2999.7337)
(-0.00047455606 1.133039e-05 2999.7331)
(-0.00062540028 5.8882146e-05 2999.7318)
(0.0001976926 0.00023909767 2999.7309)
(0.00024454052 -2.5031265e-05 2999.7318)
(0.00010230535 0.00016961732 2999.7394)
(-0.00021195939 -0.00021195905 2999.7398)
(-0.00085711878 -0.00021822501 2999.7388)
(-0.00079842528 6.5697947e-05 2999.737)
(-0.00068520208 0.00016581447 2999.736)
(-0.00065015945 9.0547985e-05 2999.7345)
(-0.00065663573 -4.0759204e-05 2999.7334)
(-0.00028374936 3.9246032e-05 2999.732)
(7.1822484e-05 -1.9637241e-05 2999.732)
(-1.9588413e-05 -0.0002927535 2999.732)
(8.2543181e-05 -0.00081317029 2999.7385)
(-0.00021822493 -0.00085711881 2999.7388)
(-0.00053551295 -0.00053551273 2999.7378)
(-0.00044088839 -6.8044244e-05 2999.7368)
(-0.00082124544 -0.0002156564 2999.736)
(-0.00072341146 -0.00034203256 2999.734)
(-0.00052585801 -0.00021163268 2999.733)
(-0.00060427831 -0.000210173 2999.7318)
(-0.00013430693 -0.0003331256 2999.7309)
(6.2463016e-05 -0.00028747644 2999.731)
(7.3006334e-05 -0.00082492775 2999.7366)
(6.5698174e-05 -0.00079842539 2999.737)
(-6.8044215e-05 -0.00044088839 2999.7368)
(-0.00047856895 -0.00047856886 2999.7365)
(-0.0009591904 -0.00045024646 2999.7349)
(-0.00064613573 -0.00049327249 2999.7332)
(-0.00052477617 -0.0005145468 2999.7322)
(-0.00040524228 -0.00077230138 2999.7309)
(-5.4809563e-06 -0.00051349014 2999.7304)
(1.084436e-05 -0.00066583362 2999.7303)
(0.00010021142 -0.00084609539 2999.7355)
(0.00016581444 -0.00068520222 2999.736)
(-0.00021565643 -0.00082124541 2999.736)
(-0.00045024646 -0.00095919049 2999.7349)
(-0.00083594907 -0.00083594907 2999.7341)
(-0.0007877118 -0.00068207353 2999.7318)
(-0.0008048869 -0.00091156656 2999.7309)
(-0.00060322165 -0.0010305629 2999.7289)
(-2.7839178e-05 -0.0010572888 2999.7284)
(-3.909931e-05 -0.0012736955 2999.7281)
(0.00018026844 -0.00051683776 2999.7337)
(9.0548156e-05 -0.00065015956 2999.7345)
(-0.00034203248 -0.00072341126 2999.734)
(-0.00049327261 -0.00064613576 2999.7332)
(-0.00068207345 -0.00078771177 2999.7318)
(-0.00072175322 -0.00072175283 2999.7304)
(-0.00087326555 -0.00057711478 2999.7288)
(-0.00055096453 -0.0005830222 2999.7271)
(-0.00024861356 -0.00089457484 2999.7265)
(-0.00013342678 -0.00083223156 2999.7261)
(1.133022e-05 -0.00047455615 2999.7331)
(-4.0759062e-05 -0.00065663568 2999.7334)
(-0.00021163262 -0.00052585787 2999.733)
(-0.00051454697 -0.00052477594 2999.7322)
(-0.00091156613 -0.00080488707 2999.7309)
(-0.0005771148 -0.00087326558 2999.7288)
(-0.00066615627 -0.0006661557 2999.7282)
(-0.00092068171 -0.00078324342 2999.7263)
(-0.00027704854 -0.00033834172 2999.7251)
(2.4628739e-06 -9.694773e-05 2999.7253)
(5.8882089e-05 -0.00062540039 2999.7318)
(3.924643e-05 -0.0002837493 2999.732)
(-0.00021017274 -0.00060427857 2999.7318)
(-0.0007723018 -0.00040524191 2999.7309)
(-0.0010305631 -0.00060322145 2999.7289)
(-0.00058302186 -0.00055096496 2999.7271)
(-0.00078324339 -0.0009206818 2999.7263)
(-0.00022315055 -0.00022315044 2999.7242)
(0.00043768213 0.00034856694 2999.725)
(2.7502551e-05 3.0887719e-05 2999.7252)
(0.00023909761 0.00019769291 2999.7309)
(-1.9637241e-05 7.1822797e-05 2999.732)
(-0.00033312523 -0.00013430716 2999.7309)
(-0.00051348985 -5.4807853e-06 2999.7304)
(-0.0010572892 -2.7838752e-05 2999.7284)
(-0.00089457515 -0.00024861353 2999.7265)
(-0.00033834175 -0.00027704857 2999.7251)
(0.00034856703 0.00043768225 2999.725)
(-2.3010387e-05 -2.3010443e-05 2999.7256)
(-0.00020932328 -0.00059024532 2999.7243)
(-2.5031322e-05 0.00024454075 2999.7318)
(-0.00029275364 -1.9588185e-05 2999.732)
(-0.00028747633 6.2463149e-05 2999.731)
(-0.0006658334 1.0844417e-05 2999.7303)
(-0.0012736958 -3.9099215e-05 2999.7281)
(-0.00083223168 -0.00013342668 2999.7261)
(-9.6947616e-05 2.4631011e-06 2999.7253)
(3.0887577e-05 2.7502741e-05 2999.7252)
(-0.00059024543 -0.0002093232 2999.7243)
(-0.00035065403 -0.00035065396 2999.7224)
(0.00073682622 0.00073682628 2999.7358)
(0.0007810701 0.00014797782 2999.7357)
(-0.0016828653 3.4127216e-05 2999.7354)
(-0.0020196762 0.00016426727 2999.7343)
(-0.001899017 0.00019208416 2999.7334)
(-0.0019594345 0.00032105345 2999.7323)
(-0.0014259603 0.0001815222 2999.7309)
(-0.0014943215 6.6487947e-05 2999.73)
(-0.00059110877 0.00041824251 2999.7293)
(0.0001324334 0.00029960895 2999.7288)
(0.00014797776 0.00078106976 2999.7357)
(-0.0002729785 -0.00027297833 2999.7359)
(-0.0016584311 -0.00040991412 2999.7355)
(-0.0017827408 9.5720509e-05 2999.7348)
(-0.0016638378 0.00033497088 2999.7339)
(-0.0019752775 0.0002062134 2999.7326)
(-0.0018078086 -9.7293821e-05 2999.7313)
(-0.001139241 -7.6711416e-05 2999.7299)
(-0.00024142727 -1.4375047e-05 2999.7295)
(1.379984e-05 -0.00034539136 2999.7291)
(3.41275e-05 -0.0016828655 2999.7354)
(-0.00040991378 -0.0016584314 2999.7355)
(-0.0013141664 -0.0013141666 2999.7354)
(-0.0012747912 -0.0005676743 2999.7345)
(-0.0017885241 -0.00092174332 2999.7337)
(-0.0023916992 -0.00098050395 2999.732)
(-0.0017088851 -0.0011472202 2999.7308)
(-0.0014114027 -0.0010019437 2999.7299)
(-0.00085978871 -0.0014208961 2999.7289)
(-8.824414e-05 -0.0017365766 2999.7283)
(0.00016426715 -0.0020196763 2999.7343)
(9.5720424e-05 -0.0017827408 2999.7348)
(-0.00056767396 -0.0012747913 2999.7345)
(-0.0013903175 -0.0013903177 2999.7339)
(-0.0020766674 -0.0015764484 2999.7324)
(-0.0022007544 -0.0017655786 2999.7312)
(-0.0018292483 -0.0015720888 2999.7297)
(-0.0014129169 -0.0019790532 2999.7284)
(-0.00097606022 -0.0021924344 2999.7273)
(-0.00019665384 -0.0022676859 2999.7267)
(0.0001920845 -0.001899017 2999.7334)
(0.00033497122 -0.0016638376 2999.7339)
(-0.00092174329 -0.0017885241 2999.7337)
(-0.0015764483 -0.0020766675 2999.7324)
(-0.002163785 -0.0021637851 2999.7316)
(-0.0023873397 -0.0020874967 2999.7298)
(-0.0019223597 -0.0022822756 2999.7283)
(-0.0020317482 -0.0027053717 2999.7272)
(-0.0011484215 -0.0027525625 2999.726)
(-0.00013841185 -0.0024551002 2999.7258)
(0.00032105347 -0.0019594341 2999.7323)
(0.00020621332 -0.0019752779 2999.7326)
(-0.00098050387 -0.0023916996 2999.732)
(-0.0017655784 -0.0022007547 2999.7312)
(-0.0020874966 -0.0023873401 2999.7298)
(-0.0023192449 -0.002319245 2999.7285)
(-0.0024471233 -0.0023672895 2999.7271)
(-0.0018832038 -0.0021764801 2999.7258)
(-0.00072578879 -0.0022287913 2999.7248)
(1.654333e-06 -0.0017806775 2999.7249)
(0.00018152201 -0.0014259604 2999.7309)
(-9.7294219e-05 -0.0018078086 2999.7313)
(-0.0011472202 -0.001708885 2999.7308)
(-0.0015720887 -0.0018292483 2999.7297)
(-0.0022822753 -0.0019223598 2999.7283)
(-0.0023672891 -0.0024471232 2999.7271)
(-0.0017795948 -0.0017795948 2999.7254)
(-0.0018932501 -0.0019142679 2999.7244)
(-0.00075261892 -0.0012345724 2999.7235)
(0.00016033071 -0.0010897766 2999.7237)
(6.6487985e-05 -0.0014943214 2999.73)
(-7.6711331e-05 -0.0011392408 2999.7299)
(-0.0010019436 -0.0014114025 2999.7299)
(-0.0019790532 -0.0014129167 2999.7284)
(-0.0027053715 -0.0020317482 2999.7272)
(-0.0021764799 -0.001883204 2999.7258)
(-0.001914268 -0.0018932503 2999.7244)
(-0.0013381814 -0.0013381816 2999.7232)
(9.8702486e-05 -0.00032471394 2999.7226)
(9.8184861e-05 -0.0015874881 2999.7222)
(0.00041824241 -0.00059110846 2999.7293)
(-1.4375274e-05 -0.00024142736 2999.7295)
(-0.0014208961 -0.00085978857 2999.7289)
(-0.0021924345 -0.00097606028 2999.7273)
(-0.0027525625 -0.0011484215 2999.726)
(-0.0022287912 -0.00072578899 2999.7248)
(-0.0012345724 -0.00075261875 2999.7235)
(-0.00032471377 9.8702713e-05 2999.7226)
(-0.0010019254 -0.0010019251 2999.7214)
(-0.00068151875 -0.0022976616 2999.7203)
(0.00029960872 0.00013243342 2999.7288)
(-0.00034539144 1.3799725e-05 2999.7291)
(-0.0017365765 -8.8244027e-05 2999.7283)
(-0.0022676861 -0.00019665388 2999.7267)
(-0.0024551002 -0.00013841177 2999.7258)
(-0.0017806772 1.654333e-06 2999.7249)
(-0.0010897763 0.0001603309 2999.7237)
(-0.0015874878 9.8185088e-05 2999.7222)
(-0.0022976618 -0.00068151843 2999.7203)
(-0.00076563951 -0.00076563919 2999.7205)
(0.00030478079 0.00030478086 2999.732)
(-0.00022783087 0.00018852633 2999.7312)
(-0.0022906497 0.0001732505 2999.7308)
(-0.0028111978 0.00044164214 2999.7306)
(-0.0027927399 0.00041660265 2999.73)
(-0.0030083538 0.00039087509 2999.7288)
(-0.002784682 0.00026472626 2999.7276)
(-0.0022548616 6.5500857e-06 2999.7265)
(-0.0010491346 0.00035776984 2999.7258)
(-0.00010519398 0.00023084103 2999.7251)
(0.00018852626 -0.00022783084 2999.7312)
(-0.00042512642 -0.00042512647 2999.7313)
(-0.001910976 -0.00017445703 2999.7312)
(-0.0024461696 0.00029363269 2999.731)
(-0.0028688905 0.00043640662 2999.73)
(-0.0032361684 -0.00025851804 2999.7286)
(-0.0033611695 -0.00013548998 2999.7276)
(-0.0021152962 -5.6680875e-05 2999.7264)
(-0.00071269815 -0.00040381457 2999.7255)
(-0.00023212279 -0.00078668339 2999.7248)
(0.00017325037 -0.0022906496 2999.7308)
(-0.00017445706 -0.0019109758 2999.7312)
(-0.0015718906 -0.0015718906 2999.7316)
(-0.0022003342 -0.0010160635 2999.7305)
(-0.0033448906 -0.0017283392 2999.7297)
(-0.0035802504 -0.0017775821 2999.7279)
(-0.0025828449 -0.0017974267 2999.727)
(-0.0025231862 -0.0017190765 2999.726)
(-0.0017791371 -0.0025117496 2999.725)
(-0.00036043986 -0.0026996361 2999.7244)
(0.00044164212 -0.002811198 2999.7306)
(0.00029363261 -0.0024461696 2999.731)
(-0.0010160637 -0.0022003341 2999.7305)
(-0.0026026182 -0.0026026181 2999.7297)
(-0.0036304091 -0.0025283479 2999.7283)
(-0.0033052559 -0.002667711 2999.727)
(-0.0033026639 -0.0030117777 2999.7259)
(-0.0028296191 -0.0034423332 2999.7247)
(-0.0016932577 -0.0034094187 2999.7239)
(-0.00035738045 -0.0031543073 2999.7237)
(0.00041660261 -0.0027927402 2999.73)
(0.00043640682 -0.0028688906 2999.73)
(-0.001728339 -0.0033448908 2999.7297)
(-0.0025283479 -0.0036304091 2999.7283)
(-0.0034099836 -0.0034099835 2999.7276)
(-0.0040636802 -0.0034044679 2999.726)
(-0.0033574671 -0.0034902689 2999.7249)
(-0.0029208272 -0.0036536432 2999.7241)
(-0.0014911112 -0.0035358163 2999.7235)
(-0.0001903656 -0.0030747085 2999.7233)
(0.00039087522 -0.0030083534 2999.7288)
(-0.0002585179 -0.0032361683 2999.7286)
(-0.0017775822 -0.0035802506 2999.7279)
(-0.0026677109 -0.0033052559 2999.727)
(-0.0034044679 -0.0040636801 2999.726)
(-0.0033855414 -0.0033855416 2999.7249)
(-0.0035518392 -0.0034445078 2999.7245)
(-0.0028751664 -0.0033724223 2999.7234)
(-0.001114323 -0.0033724537 2999.7227)
(-4.9975218e-05 -0.0029146468 2999.7225)
(0.00026472604 -0.0027846819 2999.7276)
(-0.00013549038 -0.0033611697 2999.7276)
(-0.0017974266 -0.0025828448 2999.727)
(-0.0030117775 -0.0033026641 2999.7259)
(-0.0034902692 -0.0033574671 2999.7249)
(-0.0034445078 -0.0035518391 2999.7245)
(-0.0033443478 -0.0033443477 2999.7232)
(-0.0028487732 -0.003357021 2999.7217)
(-0.0010333357 -0.0025523965 2999.7215)
(0.00011483903 -0.0028407067 2999.721)
(6.5500099e-06 -0.0022548618 2999.7265)
(-5.6680846e-05 -0.0021152961 2999.7264)
(-0.0017190765 -0.0025231859 2999.726)
(-0.0034423331 -0.0028296192 2999.7247)
(-0.003653643 -0.0029208277 2999.7241)
(-0.0033724221 -0.0028751663 2999.7234)
(-0.003357021 -0.002848773 2999.7217)
(-0.0020832152 -0.0020832151 2999.7209)
(-0.00059800874 -0.0018068205 2999.7205)
(-0.00024218201 -0.0033683451 2999.7194)
(0.00035776981 -0.0010491344 2999.7258)
(-0.00040381451 -0.00071269832 2999.7255)
(-0.0025117498 -0.0017791372 2999.725)
(-0.0034094192 -0.0016932575 2999.7239)
(-0.0035358163 -0.0014911116 2999.7235)
(-0.0033724532 -0.0011143237 2999.7227)
(-0.0025523965 -0.0010333365 2999.7215)
(-0.0018068207 -0.00059800928 2999.7205)
(-0.0023184658 -0.0023184659 2999.7188)
(-0.00092617741 -0.0022407725 2999.7193)
(0.00023084073 -0.00010519386 2999.7251)
(-0.00078668367 -0.00023212294 2999.7248)
(-0.0026996357 -0.00036043997 2999.7244)
(-0.0031543075 -0.00035738026 2999.7237)
(-0.0030747092 -0.00019036552 2999.7233)
(-0.002914647 -4.9975521e-05 2999.7225)
(-0.0028407066 0.00011483858 2999.721)
(-0.0033683446 -0.00024218226 2999.7194)
(-0.002240772 -0.00092617736 2999.7193)
(-0.00019038646 -0.0001903864 2999.7202)
(0.00021889662 0.00021889669 2999.7249)
(-0.00037784238 0.00020110309 2999.725)
(-0.0022939777 0.00029465296 2999.7253)
(-0.0028531107 0.00045742335 2999.7252)
(-0.0036416759 0.00023510974 2999.7248)
(-0.0043108666 0.00017514102 2999.7235)
(-0.0037759128 0.00019431028 2999.7227)
(-0.0033432135 1.695012e-05 2999.7218)
(-0.0019305934 0.00022593696 2999.7211)
(-0.00028585439 8.1906838e-05 2999.7209)
(0.00020110302 -0.00037784258 2999.725)
(-0.00026420798 -0.00026420773 2999.7254)
(-0.0019094973 0.00038939715 2999.7254)
(-0.0029424255 -7.6591398e-06 2999.7251)
(-0.0040650994 4.6622233e-05 2999.7242)
(-0.0043720658 -0.0007179373 2999.723)
(-0.0040131992 -0.00073899756 2999.7223)
(-0.0032957735 -0.00056371348 2999.7216)
(-0.0018331583 -0.00080547818 2999.7208)
(-0.00042988451 -0.0010402316 2999.7202)
(0.00029465319 -0.002293978 2999.7253)
(0.00038939734 -0.0019094972 2999.7254)
(-0.0020374291 -0.0020374288 2999.7256)
(-0.0031958856 -0.001899531 2999.7243)
(-0.004351954 -0.0026098006 2999.7235)
(-0.0050964864 -0.0026264502 2999.7225)
(-0.003621689 -0.0028573768 2999.7216)
(-0.0034096942 -0.0026978576 2999.7211)
(-0.0024071114 -0.0029554118 2999.7205)
(-0.00044235664 -0.002846837 2999.7201)
(0.00045742356 -0.0028531106 2999.7252)
(-7.6587703e-06 -0.0029424258 2999.7251)
(-0.0018995312 -0.0031958858 2999.7243)
(-0.0035147973 -0.0035147973 2999.7234)
(-0.0047920186 -0.0036908015 2999.7224)
(-0.004619642 -0.0036260685 2999.7213)
(-0.0040846066 -0.0036839111 2999.7207)
(-0.0033938085 -0.003867121 2999.7204)
(-0.0019821377 -0.0036500975 2999.72)
(-0.00035750135 -0.0034221142 2999.7198)
(0.00023510974 -0.0036416761 2999.7248)
(4.6622148e-05 -0.0040650995 2999.7242)
(-0.0026098006 -0.0043519543 2999.7235)
(-0.0036908013 -0.0047920186 2999.7224)
(-0.0044632253 -0.0044632253 2999.7214)
(-0.005089596 -0.0042006386 2999.7209)
(-0.0038627415 -0.003691959 2999.7207)
(-0.0033758806 -0.0039890753 2999.7205)
(-0.0019621046 -0.0040037509 2999.7199)
(-0.00029036778 -0.0037075737 2999.7195)
(0.00017514132 -0.0043108669 2999.7235)
(-0.0007179369 -0.0043720659 2999.723)
(-0.0026264503 -0.0050964863 2999.7225)
(-0.0036260683 -0.0046196421 2999.7213)
(-0.0042006386 -0.005089596 2999.7209)
(-0.0038483758 -0.0038483755 2999.7206)
(-0.0038730433 -0.003995555 2999.7206)
(-0.0037056004 -0.0046210401 2999.7198)
(-0.0017006361 -0.0042969828 2999.7193)
(-0.00016004985 -0.0040351147 2999.7188)
(0.00019431042 -0.0037759127 2999.7227)
(-0.00073899724 -0.0040131993 2999.7223)
(-0.0028573769 -0.0036216891 2999.7216)
(-0.0036839109 -0.004084607 2999.7207)
(-0.0036919587 -0.0038627416 2999.7207)
(-0.0039955551 -0.003873043 2999.7206)
(-0.004635406 -0.004635406 2999.7197)
(-0.0036773084 -0.0044428907 2999.7189)
(-0.0013761793 -0.0034762139 2999.7188)
(-0.00011578904 -0.0041851959 2999.7179)
(1.6950252e-05 -0.0033432135 2999.7218)
(-0.00056371337 -0.0032957735 2999.7216)
(-0.002697858 -0.0034096945 2999.7211)
(-0.0038671207 -0.0033938086 2999.7204)
(-0.0039890746 -0.0033758808 2999.7205)
(-0.0046210403 -0.0037056004 2999.7198)
(-0.0044428909 -0.0036773079 2999.7189)
(-0.0025464082 -0.002546408 2999.7189)
(-0.0014429413 -0.0030049591 2999.718)
(-0.00063270454 -0.0033610935 2999.7175)
(0.00022593711 -0.0019305933 2999.7211)
(-0.00080547821 -0.0018331584 2999.7208)
(-0.002955412 -0.0024071115 2999.7205)
(-0.0036500973 -0.0019821372 2999.72)
(-0.0040037505 -0.0019621042 2999.7199)
(-0.0042969822 -0.0017006361 2999.7193)
(-0.0034762136 -0.001376179 2999.7188)
(-0.0030049596 -0.0014429413 2999.718)
(-0.0021908648 -0.0021908641 2999.7176)
(-0.00035321197 -0.0014676397 2999.7185)
(8.1906801e-05 -0.00028585428 2999.7209)
(-0.0010402316 -0.00042988459 2999.7202)
(-0.0028468368 -0.00044235657 2999.7201)
(-0.0034221134 -0.00035750111 2999.7198)
(-0.0037075735 -0.00029036731 2999.7195)
(-0.0040351151 -0.00016004979 2999.7188)
(-0.0041851961 -0.00011578923 2999.7179)
(-0.0033610934 -0.00063270481 2999.7175)
(-0.0014676396 -0.00035321174 2999.7185)
(-0.00015055493 -0.0001505547 2999.7176)
(0.00034733322 0.0003473332 2999.7183)
(0.00013042754 0.00042701125 2999.7185)
(-0.0021028035 0.00021841491 2999.7188)
(-0.0033096934 0.00038304514 2999.7184)
(-0.0044311471 4.4026553e-05 2999.7178)
(-0.0051463814 1.143594e-06 2999.717)
(-0.0044925828 1.0545665e-05 2999.7166)
(-0.0037901326 -0.00015242819 2999.7163)
(-0.0020193673 0.00014121309 2999.7164)
(-0.00027274732 -0.00018696054 2999.7165)
(0.00042701127 0.00013042751 2999.7185)
(-6.294991e-05 -6.2950162e-05 2999.7189)
(-0.0021687526 0.00016350251 2999.7184)
(-0.0035712759 -0.00064302631 2999.7179)
(-0.0050039994 -0.000824907 2999.7173)
(-0.0051966027 -0.0013275682 2999.7167)
(-0.0047229405 -0.0012425535 2999.7164)
(-0.0035941315 -0.00084317159 2999.7161)
(-0.0020711659 -0.0010392592 2999.7161)
(-0.00060092096 -0.0016003627 2999.7156)
(0.00021841477 -0.0021028038 2999.7188)
(0.00016350253 -0.0021687531 2999.7184)
(-0.0026828796 -0.0026828801 2999.7179)
(-0.0042981029 -0.0027638943 2999.7169)
(-0.005115689 -0.0035517822 2999.716)
(-0.0055640278 -0.0034914284 2999.7159)
(-0.0040081862 -0.0034233657 2999.716)
(-0.0035868384 -0.002927239 2999.716)
(-0.0027765585 -0.0033296586 2999.7157)
(-0.00064681632 -0.0031380322 2999.7152)
(0.00038304504 -0.0033096934 2999.7184)
(-0.0006430262 -0.0035712759 2999.7179)
(-0.0027638938 -0.0042981029 2999.7169)
(-0.004440178 -0.0044401781 2999.716)
(-0.0057315335 -0.0046511221 2999.7154)
(-0.0050681862 -0.0042869024 2999.7152)
(-0.004158751 -0.0038406388 2999.7155)
(-0.0035004244 -0.0040207412 2999.7154)
(-0.0022819591 -0.0040244612 2999.7151)
(-0.00047317004 -0.0037411353 2999.7149)
(4.402644e-05 -0.004431147 2999.7178)
(-0.000824907 -0.0050039993 2999.7173)
(-0.0035517819 -0.0051156891 2999.716)
(-0.0046511221 -0.0057315339 2999.7154)
(-0.0049624132 -0.0049624132 2999.7148)
(-0.0047535445 -0.0040083665 2999.7151)
(-0.003742025 -0.0035701654 2999.7157)
(-0.0037706608 -0.0042285463 2999.7153)
(-0.0024969525 -0.00424408 2999.715)
(-0.00045793242 -0.0040649063 2999.7147)
(1.143501e-06 -0.0051463814 2999.717)
(-0.0013275683 -0.0051966023 2999.7167)
(-0.0034914284 -0.0055640278 2999.7159)
(-0.0042869021 -0.0050681866 2999.7152)
(-0.0040083661 -0.0047535449 2999.7151)
(-0.0036759384 -0.0036759389 2999.7157)
(-0.0043789308 -0.0045149449 2999.7156)
(-0.004174339 -0.004924514 2999.7153)
(-0.0021183191 -0.0044265919 2999.7151)
(-0.00035372087 -0.0044424406 2999.7146)
(1.0545858e-05 -0.0044925828 2999.7166)
(-0.0012425533 -0.0047229406 2999.7164)
(-0.0034233662 -0.0040081862 2999.716)
(-0.0038406392 -0.0041587513 2999.7155)
(-0.0035701656 -0.0037420251 2999.7157)
(-0.0045149445 -0.004378931 2999.7156)
(-0.0049906001 -0.0049906008 2999.7153)
(-0.0036823078 -0.0042905102 2999.7156)
(-0.0020148791 -0.0038669889 2999.7149)
(-0.00046849821 -0.0041384743 2999.7145)
(-0.00015242839 -0.0037901329 2999.7163)
(-0.00084317165 -0.0035941318 2999.7161)
(-0.0029272391 -0.0035868383 2999.716)
(-0.0040207411 -0.0035004248 2999.7154)
(-0.0042285459 -0.0037706609 2999.7153)
(-0.0049245141 -0.004174339 2999.7153)
(-0.00429051 -0.003682308 2999.7156)
(-0.0030507271 -0.0030507271 2999.7153)
(-0.0019662832 -0.0030119227 2999.7146)
(-0.00053471113 -0.0027781418 2999.7152)
(0.00014121326 -0.0020193674 2999.7164)
(-0.0010392588 -0.0020711657 2999.7161)
(-0.0033296591 -0.0027765585 2999.7157)
(-0.0040244618 -0.0022819594 2999.7151)
(-0.0042440799 -0.0024969527 2999.715)
(-0.0044265916 -0.0021183188 2999.7151)
(-0.0038669882 -0.0020148789 2999.7149)
(-0.0030119225 -0.0019662835 2999.7146)
(-0.0017422938 -0.0017422934 2999.7156)
(-0.00031264426 -0.0021900524 2999.7146)
(-0.0001869606 -0.00027274734 2999.7165)
(-0.0016003627 -0.0006009212 2999.7156)
(-0.0031380328 -0.00064681666 2999.7152)
(-0.0037411353 -0.0004731703 2999.7149)
(-0.0040649052 -0.0004579323 2999.7147)
(-0.0044424403 -0.00035372055 2999.7146)
(-0.0041384747 -0.0004684981 2999.7145)
(-0.0027781416 -0.00053471155 2999.7152)
(-0.002190052 -0.00031264415 2999.7146)
(-0.00083321712 -0.00083321701 2999.7136)
(0.00033059234 0.00033059244 2999.7119)
(7.7845955e-05 0.00049339784 2999.7118)
(-0.0023913929 7.1081728e-05 2999.7117)
(-0.0038560347 0.00012583052 2999.7112)
(-0.0050566867 -0.00010101466 2999.7107)
(-0.0054743601 -2.2960668e-05 2999.7105)
(-0.004444912 4.3225516e-05 2999.711)
(-0.0035564686 -0.00010608062 2999.7112)
(-0.0017469936 9.4051398e-06 2999.7114)
(-0.00022338613 -0.00054021207 2999.7116)
(0.00049339775 7.7846464e-05 2999.7118)
(-0.00031142011 -0.00031142008 2999.7117)
(-0.0029427438 -0.00046779405 2999.7112)
(-0.0041141792 -0.001548906 2999.7103)
(-0.0052798735 -0.0017000564 2999.7102)
(-0.0052579998 -0.0017819485 2999.7105)
(-0.0045695919 -0.0013477768 2999.7111)
(-0.0036071992 -0.00091631401 2999.7112)
(-0.0023981908 -0.0015401975 2999.7111)
(-0.00077300334 -0.0023084648 2999.7108)
(7.1081314e-05 -0.002391393 2999.7117)
(-0.00046779456 -0.002942744 2999.7112)
(-0.0036288788 -0.003628879 2999.71)
(-0.005088297 -0.0038131828 2999.7095)
(-0.0052897292 -0.0044875063 2999.7096)
(-0.0051220805 -0.0040821291 2999.71)
(-0.0035792775 -0.0037244338 2999.7108)
(-0.0037488894 -0.0034022992 2999.7109)
(-0.0031391444 -0.0039420484 2999.7106)
(-0.00073556434 -0.0034961751 2999.7105)
(0.00012583039 -0.0038560354 2999.7112)
(-0.0015489061 -0.0041141794 2999.7103)
(-0.0038131826 -0.0050882967 2999.7095)
(-0.0049728065 -0.0049728065 2999.709)
(-0.0055488199 -0.004887564 2999.7092)
(-0.0044949274 -0.0043967193 2999.7098)
(-0.003889762 -0.0040108861 2999.7105)
(-0.0038248138 -0.0045116906 2999.7103)
(-0.0024920667 -0.0043648723 2999.7101)
(-0.00047575448 -0.0039409047 2999.7103)
(-0.00010101468 -0.0050566868 2999.7107)
(-0.0017000559 -0.0052798738 2999.7102)
(-0.0044875059 -0.0052897291 2999.7096)
(-0.0048875642 -0.0055488199 2999.7092)
(-0.004713642 -0.0047136419 2999.7094)
(-0.0042454026 -0.0036892657 2999.71)
(-0.0036942488 -0.003660809 2999.7104)
(-0.0041028755 -0.0041490067 2999.71)
(-0.0025683586 -0.0039784783 2999.7101)
(-0.00045291928 -0.0040157355 2999.7104)
(-2.2960951e-05 -0.0054743599 2999.7105)
(-0.0017819484 -0.0052579999 2999.7105)
(-0.0040821286 -0.0051220807 2999.71)
(-0.0043967192 -0.0044949273 2999.7098)
(-0.0036892657 -0.0042454027 2999.71)
(-0.0034420945 -0.0034420947 2999.7103)
(-0.004349503 -0.0043303738 2999.7103)
(-0.0041424831 -0.0043395887 2999.7105)
(-0.0023587956 -0.0043512609 2999.7105)
(-0.00050059263 -0.004266727 2999.7106)
(4.3225328e-05 -0.004444912 2999.711)
(-0.0013477767 -0.0045695921 2999.7111)
(-0.0037244333 -0.0035792777 2999.7108)
(-0.0040108863 -0.0038897623 2999.7105)
(-0.0036608094 -0.0036942488 2999.7104)
(-0.0043303737 -0.0043495031 2999.7103)
(-0.0045917428 -0.0045917429 2999.7107)
(-0.0041237626 -0.0044531679 2999.7105)
(-0.0024954969 -0.0040379455 2999.7103)
(-0.00039656339 -0.0035538607 2999.7107)
(-0.00010608107 -0.003556469 2999.7112)
(-0.00091631412 -0.0036071997 2999.7112)
(-0.0034022988 -0.0037488893 2999.7109)
(-0.0045116904 -0.0038248141 2999.7103)
(-0.0041490064 -0.0041028753 2999.71)
(-0.0043395886 -0.0041424831 2999.7105)
(-0.0044531678 -0.0041237627 2999.7105)
(-0.0035886857 -0.0035886856 2999.71)
(-0.0014594884 -0.0022950384 2999.7109)
(-0.00017786946 -0.0032750846 2999.7109)
(9.4048573e-06 -0.0017469936 2999.7114)
(-0.001540197 -0.0023981908 2999.7111)
(-0.0039420477 -0.0031391444 2999.7106)
(-0.0043648723 -0.002492067 2999.7101)
(-0.0039784783 -0.0025683589 2999.7101)
(-0.0043512611 -0.0023587959 2999.7105)
(-0.0040379453 -0.002495497 2999.7103)
(-0.0022950383 -0.0014594885 2999.7109)
(-0.0021818959 -0.0021818957 2999.7106)
(-0.0010499275 -0.0030840314 2999.7095)
(-0.00054021253 -0.0002233859 2999.7116)
(-0.002308465 -0.00077300329 2999.7108)
(-0.0034961751 -0.00073556456 2999.7105)
(-0.0039409049 -0.00047575484 2999.7103)
(-0.0040157353 -0.00045291961 2999.7104)
(-0.0042667267 -0.0005005928 2999.7106)
(-0.0035538605 -0.0003965633 2999.7107)
(-0.0032750844 -0.00017786958 2999.7109)
(-0.0030840312 -0.0010499274 2999.7095)
(-0.00077929328 -0.00077929316 2999.7103)
(0.0002584812 0.00025848114 2999.7053)
(-0.00010657607 0.00040311255 2999.7053)
(-0.0027195401 -0.00012234966 2999.705)
(-0.0042736187 -0.0001980477 2999.7045)
(-0.0050561624 -0.00032089148 2999.7047)
(-0.0048741446 -5.8585868e-06 2999.7055)
(-0.0038221924 0.00010189753 2999.7064)
(-0.0033539145 -0.00012930714 2999.7067)
(-0.0016151609 -9.2381736e-05 2999.7068)
(-0.00014472018 -0.00069424923 2999.7072)
(0.00040311261 -0.0001065759 2999.7053)
(-0.00067782227 -0.00067782224 2999.7048)
(-0.0036212805 -0.0014832189 2999.7044)
(-0.0045714314 -0.0023394752 2999.7041)
(-0.0047678787 -0.0019548382 2999.7046)
(-0.0042399611 -0.0018187729 2999.7056)
(-0.0040073653 -0.0014259386 2999.7064)
(-0.0036453334 -0.0010945984 2999.7068)
(-0.0024625741 -0.0018218107 2999.7067)
(-0.00074658768 -0.0026731904 2999.7068)
(-0.0001223497 -0.0027195401 2999.705)
(-0.0014832191 -0.0036212806 2999.7044)
(-0.0043811931 -0.0043811935 2999.7036)
(-0.0047452379 -0.0040923871 2999.7038)
(-0.00453546 -0.0045572492 2999.7048)
(-0.004345245 -0.0042574325 2999.7056)
(-0.0030980179 -0.004002275 2999.7064)
(-0.0037497866 -0.0038748412 2999.7067)
(-0.0031937529 -0.0043291825 2999.7066)
(-0.00071230662 -0.003696651 2999.7068)
(-0.00019804776 -0.0042736191 2999.7045)
(-0.0023394757 -0.0045714318 2999.7041)
(-0.0040923869 -0.004745238 2999.7038)
(-0.0047474872 -0.0047474875 2999.7042)
(-0.0049329242 -0.0047791811 2999.7047)
(-0.0036849869 -0.0043358554 2999.7056)
(-0.0036247739 -0.0042485049 2999.7063)
(-0.0039722409 -0.0049996381 2999.7062)
(-0.0022843839 -0.0045192425 2999.7065)
(-0.0003249 -0.0038663731 2999.7071)
(-0.00032089154 -0.0050561624 2999.7047)
(-0.001954838 -0.0047678792 2999.7046)
(-0.0045572488 -0.0045354599 2999.7048)
(-0.004779181 -0.0049329245 2999.7047)
(-0.0041238279 -0.0041238279 2999.7054)
(-0.0038145688 -0.0034726397 2999.706)
(-0.0037618007 -0.0038421339 2999.7061)
(-0.0040205242 -0.0040485161 2999.7061)
(-0.0020604879 -0.003761338 2999.7069)
(-0.00027706038 -0.0037329353 2999.7073)
(-5.8589459e-06 -0.0048741447 2999.7055)
(-0.0018187731 -0.0042399612 2999.7056)
(-0.0042574323 -0.0043452451 2999.7056)
(-0.0043358553 -0.0036849872 2999.7056)
(-0.0034726393 -0.0038145691 2999.706)
(-0.0034032928 -0.0034032931 2999.706)
(-0.0042006504 -0.0041945153 2999.706)
(-0.003891445 -0.0043531877 2999.7065)
(-0.0019688031 -0.0042432831 2999.7069)
(-0.00030596488 -0.0041141987 2999.7074)
(0.00010189747 -0.0038221924 2999.7064)
(-0.0014259384 -0.0040073652 2999.7064)
(-0.0040022748 -0.0030980182 2999.7064)
(-0.0042485049 -0.0036247744 2999.7063)
(-0.0038421338 -0.0037618007 2999.7061)
(-0.004194515 -0.0042006509 2999.706)
(-0.0047116953 -0.0047116955 2999.7062)
(-0.0040692921 -0.0047443417 2999.7061)
(-0.0018214989 -0.0035146274 2999.7074)
(-0.00019100408 -0.0039037904 2999.7073)
(-0.00012930748 -0.0033539144 2999.7067)
(-0.0010945988 -0.0036453338 2999.7068)
(-0.0038748414 -0.0037497867 2999.7067)
(-0.0049996379 -0.0039722413 2999.7062)
(-0.0040485158 -0.0040205241 2999.7061)
(-0.0043531876 -0.003891445 2999.7065)
(-0.0047443412 -0.0040692924 2999.7061)
(-0.0026943768 -0.0026943769 2999.7067)
(-0.0011282519 -0.0026829632 2999.7078)
(-0.00056540688 -0.0040399186 2999.7065)
(-9.2382153e-05 -0.0016151608 2999.7068)
(-0.0018218107 -0.002462574 2999.7067)
(-0.0043291822 -0.0031937525 2999.7066)
(-0.0045192423 -0.0022843833 2999.7065)
(-0.0037613376 -0.002060488 2999.7069)
(-0.0042432833 -0.0019688028 2999.7069)
(-0.0035146271 -0.0018214992 2999.7074)
(-0.0026829629 -0.001128252 2999.7078)
(-0.0031670406 -0.0031670403 2999.7065)
(-0.001095641 -0.0026990787 2999.707)
(-0.00069424959 -0.00014471995 2999.7072)
(-0.0026731905 -0.00074658739 2999.7068)
(-0.0036966507 -0.00071230649 2999.7068)
(-0.0038663733 -0.00032489972 2999.7071)
(-0.0037329353 -0.00027706049 2999.7073)
(-0.0041141988 -0.00030596489 2999.7074)
(-0.0039037904 -0.00019100416 2999.7073)
(-0.0040399179 -0.00056540709 2999.7065)
(-0.0026990785 -0.0010956408 2999.707)
(-0.00025343248 -0.00025343231 2999.7071)
(0.00027077251 0.00027077228 2999.7001)
(-0.00026974314 0.00019487862 2999.6999)
(-0.0031334149 -0.00031236781 2999.6997)
(-0.0041273821 -0.00017923234 2999.6997)
(-0.0040572949 -0.00021129627 2999.7006)
(-0.003816954 7.815952e-06 2999.7017)
(-0.0032166862 7.093949e-05 2999.7025)
(-0.0031278305 -9.1468148e-05 2999.703)
(-0.0013194708 -5.8617881e-05 2999.7031)
(1.4134535e-05 -0.00080026297 2999.7035)
(0.00019487885 -0.00026974337 2999.6999)
(-0.0011444533 -0.0011444536 2999.6995)
(-0.0036945813 -0.0019094414 2999.6993)
(-0.0039757748 -0.0022603956 2999.6998)
(-0.0037767224 -0.0016122234 2999.7009)
(-0.0033936003 -0.001689338 2999.7019)
(-0.0033656123 -0.0013201346 2999.7026)
(-0.0033221666 -0.00096397298 2999.703)
(-0.002382663 -0.0017247516 2999.7031)
(-0.00072751055 -0.0027134908 2999.7033)
(-0.00031236764 -0.0031334148 2999.6997)
(-0.0019094411 -0.0036945812 2999.6993)
(-0.0042493569 -0.0042493568 2999.6995)
(-0.0038301642 -0.0036871396 2999.7002)