/*--------------------------------*- C++ -*----------------------------------*\
| =========                 |                                                 |
| \\      /  F ield         | OpenFOAM: The Open Source CFD Toolbox           |
|  \\    /   O peration     | Version:  v2106                                 |
|   \\  /    A nd           | Website:  www.openfoam.com                      |
|    \\/     M anipulation  |                                                 |
\*---------------------------------------------------------------------------*/
FoamFile
{
    version     2.0;
    format      ascii;
    arch        "LSB;label=32;scalar=64";
    class       volScalarField;
    location    "50";
    object      calFieldValue;
}
// * * * * * * * * * * * * * * * * * * * * * * * * * * * * * * * * * * * * * //

dimensions      [0 0 0 1 0 0 0];

internalField   nonuniform List<scalar> 
4000
(
278.16527
278.16527
278.16528
278.16527
278.16527
278.16527
278.16527
278.16527
278.16528
278.16528
278.16527
278.16528
278.16527
278.16527
278.16527
278.16527
278.16527
278.16527
278.16528
278.16528
278.16528
278.16527
278.16527
278.16527
278.16527
278.16527
278.16527
278.16527
278.16528
278.16528
278.16527
278.16527
278.16527
278.16527
278.16527
278.16527
278.16527
278.16527
278.16527
278.16527
278.16527
278.16527
278.16527
278.16527
278.16527
278.16527
278.16527
278.16527
278.16527
278.16527
278.16527
278.16527
278.16527
278.16527
278.16527
278.16527
278.16527
278.16527
278.16527
278.16527
278.16527
278.16527
278.16527
278.16527
278.16527
278.16527
278.16527
278.16527
278.16527
278.16527
278.16527
278.16527
278.16527
278.16527
278.16527
278.16527
278.16527
278.16527
278.16527
278.16527
278.16528
278.16528
278.16528
278.16527
278.16527
278.16527
278.16527
278.16527
278.16527
278.16527
278.16528
278.16528
278.16528
278.16527
278.16527
278.16527
278.16527
278.16527
278.16527
278.16527
285.4782
285.4782
285.4782
285.47819
285.47819
285.47816
285.47817
285.4782
285.4782
285.4782
285.4782
285.4782
285.47819
285.47819
285.47819
285.47816
285.47817
285.47817
285.4782
285.4782
285.4782
285.47819
285.47819
285.47819
285.47816
285.47816
285.47816
285.47817
285.4782
285.4782
285.47819
285.47819
285.47819
285.47816
285.47816
285.47816
285.47816
285.47816
285.47819
285.47819
285.47819
285.47819
285.47816
285.47816
285.47816
285.47816
285.47816
285.47816
285.47816
285.47819
285.47816
285.47816
285.47816
285.47816
285.47816
285.47816
285.47816
285.47816
285.47819
285.47819
285.47817
285.47817
285.47816
285.47816
285.47816
285.47816
285.47816
285.47819
285.47819
285.47819
285.4782
285.47817
285.47817
285.47816
285.47816
285.47816
285.47819
285.47819
285.47819
285.47822
285.4782
285.4782
285.4782
285.47819
285.47816
285.47819
285.47819
285.47819
285.47822
285.47822
285.4782
285.4782
285.4782
285.47819
285.47819
285.47819
285.47819
285.47822
285.47822
285.47822
292.79404
292.79404
292.79404
292.79403
292.794
292.79401
292.79401
292.79402
292.79402
292.79402
292.79404
292.79404
292.79404
292.79403
292.794
292.79401
292.79401
292.79402
292.79402
292.79405
292.79404
292.79404
292.79403
292.794
292.794
292.79398
292.79401
292.79401
292.79402
292.79402
292.79403
292.79403
292.794
292.79399
292.79397
292.79397
292.79398
292.79401
292.79401
292.79401
292.794
292.794
292.794
292.79397
292.79397
292.79397
292.79397
292.794
292.79401
292.79401
292.79401
292.79401
292.79398
292.79397
292.79397
292.79397
292.79397
292.794
292.79401
292.79404
292.79401
292.79401
292.79401
292.79398
292.79397
292.79397
292.794
292.794
292.79404
292.79404
292.79402
292.79402
292.79401
292.79401
292.794
292.794
292.794
292.79403
292.79406
292.79407
292.79402
292.79402
292.79402
292.79401
292.79401
292.79401
292.79404
292.79406
292.79407
292.79407
292.79402
292.79405
292.79402
292.79401
292.79401
292.79404
292.79404
292.79407
292.79407
292.7941
300.11474
300.11474
300.11471
300.1147
300.11467
300.11467
300.11468
300.11468
300.11472
300.11472
300.11474
300.11474
300.1147
300.11469
300.11467
300.11467
300.11468
300.11468
300.11471
300.11471
300.11471
300.1147
300.1147
300.11466
300.11464
300.11464
300.11465
300.11468
300.11468
300.11471
300.1147
300.11469
300.11466
300.11466
300.11463
300.11463
300.11464
300.11467
300.11468
300.11471
300.11467
300.11467
300.11464
300.11463
300.1146
300.1146
300.11464
300.11467
300.11467
300.1147
300.11467
300.11467
300.11464
300.11463
300.1146
300.11461
300.11464
300.11467
300.1147
300.1147
300.11468
300.11468
300.11465
300.11464
300.11464
300.11464
300.11466
300.1147
300.11473
300.11473
300.11468
300.11468
300.11468
300.11467
300.11467
300.11467
300.1147
300.11473
300.11476
300.11476
300.11472
300.11471
300.11468
300.11468
300.11467
300.1147
300.11473
300.11476
300.11476
300.11479
300.11472
300.11471
300.11471
300.11471
300.1147
300.1147
300.11473
300.11476
300.11479
300.11479
307.44209
307.44209
307.44206
307.44204
307.44202
307.44202
307.44203
307.44204
307.44207
307.44207
307.44209
307.44206
307.44205
307.44201
307.44199
307.44199
307.442
307.44203
307.44207
307.44207
307.44206
307.44205
307.44202
307.44201
307.44198
307.44199
307.44199
307.44203
307.44203
307.44206
307.44204
307.44201
307.44201
307.44197
307.44195
307.44195
307.44198
307.44202
307.44203
307.44206
307.44202
307.44199
307.44198
307.44195
307.44195
307.44195
307.44198
307.44201
307.44205
307.44205
307.44202
307.44199
307.44199
307.44195
307.44195
307.44195
307.44198
307.44201
307.44205
307.44208
307.44203
307.442
307.44199
307.44198
307.44198
307.44198
307.44201
307.44204
307.44207
307.4421
307.44204
307.44203
307.44203
307.44202
307.44201
307.44201
307.44204
307.4421
307.44211
307.44214
307.44207
307.44207
307.44203
307.44203
307.44205
307.44205
307.44207
307.44211
307.44214
307.44217
307.44207
307.44207
307.44206
307.44206
307.44205
307.44208
307.4421
307.44214
307.44217
307.44217
314.77785
314.77785
314.77782
314.77781
314.77778
314.77778
314.77779
314.77783
314.77783
314.77784
314.77785
314.77785
314.77781
314.77777
314.77775
314.77775
314.77779
314.7778
314.77783
314.77786
314.77782
314.77781
314.77778
314.77777
314.77774
314.77775
314.77776
314.77779
314.77783
314.77783
314.77781
314.77777
314.77777
314.77773
314.77771
314.77771
314.77774
314.77778
314.77782
314.77785
314.77778
314.77775
314.77774
314.77771
314.77768
314.77771
314.77774
314.77777
314.77781
314.77784
314.77778
314.77775
314.77775
314.77771
314.77771
314.77771
314.77776
314.7778
314.77783
314.77786
314.77779
314.77779
314.77776
314.77774
314.77774
314.77776
314.77779
314.77783
314.77789
314.77789
314.77783
314.7778
314.77779
314.77778
314.77777
314.7778
314.77783
314.77789
314.77792
314.77795
314.77783
314.77783
314.77783
314.77782
314.77781
314.77783
314.77789
314.77792
314.77796
314.77799
314.77784
314.77786
314.77783
314.77785
314.77784
314.77786
314.77789
314.77795
314.77799
314.77799
322.12369
322.12368
322.12365
322.12364
322.12361
322.12359
322.12362
322.12366
322.12367
322.1237
322.12368
322.12366
322.12365
322.12361
322.12358
322.12359
322.12359
322.12363
322.12367
322.12369
322.12365
322.12365
322.12361
322.12357
322.12354
322.12355
322.12359
322.12362
322.12366
322.12369
322.12364
322.12361
322.12357
322.12353
322.12353
322.12354
322.12357
322.12361
322.12365
322.12368
322.12361
322.12358
322.12354
322.12353
322.1235
322.12351
322.12357
322.1236
322.12367
322.1237
322.12359
322.12359
322.12355
322.12354
322.12351
322.12353
322.12359
322.12365
322.12369
322.12372
322.12362
322.12359
322.12359
322.12357
322.12357
322.12359
322.12365
322.12368
322.12374
322.12378
322.12366
322.12363
322.12362
322.12361
322.1236
322.12365
322.12368
322.12374
322.12378
322.12381
322.12367
322.12367
322.12366
322.12365
322.12367
322.12369
322.12374
322.12378
322.12384
322.12385
322.1237
322.12369
322.12369
322.12368
322.1237
322.12372
322.12378
322.12381
322.12385
322.12388
329.48107
329.48107
329.48104
329.48099
329.48096
329.48097
329.48101
329.48104
329.48108
329.48108
329.48107
329.48104
329.48103
329.48099
329.48096
329.48097
329.48097
329.48104
329.48108
329.4811
329.48104
329.48103
329.48099
329.48095
329.48092
329.48093
329.48096
329.481
329.48107
329.48107
329.48099
329.48099
329.48095
329.48091
329.48088
329.48091
329.48095
329.48102
329.48105
329.48108
329.48096
329.48096
329.48092
329.48088
329.48088
329.48088
329.48094
329.48101
329.48107
329.4811
329.48097
329.48097
329.48093
329.48091
329.48088
329.48091
329.48096
329.48103
329.48109
329.48112
329.48101
329.48097
329.48096
329.48095
329.48094
329.48096
329.48102
329.48111
329.48115
329.48118
329.48104
329.48104
329.481
329.48102
329.48101
329.48103
329.48111
329.48117
329.48121
329.48125
329.48108
329.48108
329.48107
329.48105
329.48107
329.48109
329.48115
329.48121
329.48125
329.48128
329.48108
329.4811
329.48107
329.48108
329.4811
329.48112
329.48118
329.48125
329.48128
329.48131
336.85134
336.85131
336.85128
336.85126
336.85123
336.85124
336.85127
336.85131
336.85135
336.85138
336.85131
336.85131
336.85127
336.85123
336.8512
336.85121
336.85124
336.85131
336.85134
336.85137
336.85128
336.85127
336.85123
336.85119
336.85116
336.8512
336.85123
336.8513
336.85134
336.85137
336.85126
336.85123
336.85119
336.85115
336.85115
336.85115
336.85121
336.85128
336.85132
336.85135
336.85123
336.8512
336.85116
336.85115
336.85112
336.85114
336.8512
336.85127
336.85133
336.85137
336.85124
336.85121
336.8512
336.85115
336.85114
336.85117
336.85125
336.85132
336.85138
336.85141
336.85127
336.85124
336.85123
336.85121
336.8512
336.85125
336.85131
336.8514
336.85144
336.8515
336.85131
336.85131
336.8513
336.85128
336.85127
336.85132
336.8514
336.85146
336.85153
336.85154
336.85135
336.85134
336.85134
336.85132
336.85133
336.85138
336.85144
336.85153
336.85157
336.8516
336.85138
336.85137
336.85137
336.85135
336.85137
336.85141
336.8515
336.85154
336.8516
336.8516
344.2356
344.2356
344.23557
344.23555
344.23551
344.23552
344.23556
344.2356
344.23566
344.23567
344.2356
344.2356
344.23556
344.23551
344.23548
344.23549
344.23555
344.23559
344.23566
344.23569
344.23557
344.23556
344.23552
344.23547
344.23544
344.23548
344.23551
344.23558
344.23565
344.23568
344.23555
344.23551
344.23547
344.23543
344.2354
344.23543
344.23549
344.23556
344.23563
344.23566
344.23551
344.23548
344.23544
344.2354
344.23539
344.23542
344.23551
344.23557
344.23564
344.23567
344.23552
344.23549
344.23548
344.23543
344.23542
344.23547
344.23553
344.23562
344.23569
344.23575
344.23556
344.23555
344.23551
344.23549
344.23551
344.23553
344.23561
344.2357
344.23577
344.2358
344.2356
344.23559
344.23558
344.23556
344.23557
344.23562
344.2357
344.2358
344.23584
344.23587
344.23566
344.23566
344.23565
344.23563
344.23564
344.23569
344.23577
344.23584
344.23591
344.23594
344.23567
344.23569
344.23568
344.23566
344.23567
344.23575
344.2358
344.23587
344.23594
344.23594
351.63486
351.63486
351.63482
351.63478
351.63477
351.63478
351.63481
351.63488
351.63492
351.63495
351.63486
351.63483
351.63479
351.63477
351.63474
351.63474
351.63481
351.63485
351.63491
351.63494
351.63482
351.63479
351.63475
351.63473
351.6347
351.6347
351.63477
351.63484
351.6349
351.63493
351.63478
351.63477
351.63473
351.63469
351.63465
351.63468
351.63477
351.63484
351.63491
351.63494
351.63477
351.63474
351.6347
351.63465
351.63464
351.63467
351.63476
351.63485
351.63492
351.63495
351.63478
351.63474
351.6347
351.63468
351.63467
351.63472
351.6348
351.6349
351.63496
351.63502
351.63481
351.63481
351.63477
351.63477
351.63476
351.6348
351.63488
351.63498
351.63507
351.63511
351.63488
351.63485
351.63484
351.63484
351.63485
351.6349
351.63498
351.63507
351.63514
351.63518
351.63492
351.63491
351.6349
351.63491
351.63492
351.63496
351.63507
351.63514
351.63521
351.63524
351.63495
351.63494
351.63493
351.63494
351.63495
351.63502
351.63511
351.63518
351.63524
351.63524
359.04981
359.04978
359.04975
359.04972
359.04969
359.04969
359.04976
359.04983
359.04986
359.0499
359.04978
359.04978
359.04974
359.04969
359.04966
359.04969
359.04975
359.04982
359.04989
359.04992
359.04975
359.04974
359.04969
359.04965
359.04961
359.04965
359.04971
359.04981
359.04987
359.0499
359.04972
359.04969
359.04965
359.0496
359.04959
359.04962
359.04971
359.04978
359.04985
359.04991
359.04969
359.04966
359.04961
359.04959
359.04958
359.04961
359.04969
359.04979
359.04988
359.04992
359.04969
359.04969
359.04965
359.04962
359.04961
359.04966
359.04977
359.04986
359.04995
359.04999
359.04976
359.04975
359.04971
359.04971
359.04969
359.04977
359.04985
359.04997
359.05004
359.05007
359.04983
359.04982
359.04981
359.04978
359.04979
359.04986
359.04997
359.05006
359.05014
359.05017
359.04986
359.04989
359.04987
359.04985
359.04988
359.04995
359.05004
359.05014
359.05021
359.05024
359.0499
359.04992
359.0499
359.04991
359.04992
359.04999
359.05007
359.05017
359.05024
359.05024
366.48092
366.48089
366.48085
366.48083
366.48079
366.48083
366.48086
366.48093
366.481
366.48103
366.48089
366.48089
366.48084
366.48079
366.48076
366.48079
366.48086
366.48093
366.48099
366.48105
366.48085
366.48084
366.4808
366.48075
366.48072
366.48075
366.48084
366.48091
366.48098
366.48103
366.48083
366.48079
366.48075
366.48071
366.4807
366.48072
366.48081
366.48091
366.48101
366.48104
366.48079
366.48076
366.48072
366.4807
366.48068
366.48073
366.48082
366.48094
366.48101
366.48107
366.48083
366.48079
366.48075
366.48072
366.48073
366.48078
366.48089
366.48098
366.48108
366.48114
366.48086
366.48086
366.48084
366.48081
366.48082
366.48089
366.481
366.48109
366.48119
366.48123
366.48093
366.48093
366.48091
366.48091
366.48094
366.48098
366.48109
366.48122
366.48129
366.48133
366.481
366.48099
366.48098
366.48101
366.48101
366.48108
366.48119
366.48129
366.48136
366.48139
366.48103
366.48105
366.48103
366.48104
366.48107
366.48114
366.48123
366.48133
366.48139
366.48142
373.92844
373.92844
373.9284
373.92838
373.92834
373.92834
373.92841
373.92848
373.92854
373.92858
373.92844
373.92841
373.92836
373.92834
373.9283
373.92833
373.9284
373.92847
373.92856
373.92859
373.9284
373.92836
373.92832
373.92827
373.92826
373.92829
373.92838
373.92845
373.92855
373.92858
373.92838
373.92834
373.92827
373.92825
373.92824
373.92826
373.92835
373.92845
373.92855
373.92858
373.92834
373.9283
373.92826
373.92824
373.92822
373.92827
373.92835
373.92848
373.92858
373.92864
373.92834
373.92833
373.92829
373.92826
373.92827
373.92831
373.92842
373.92855
373.92864
373.9287
373.92841
373.9284
373.92838
373.92835
373.92835
373.92842
373.92853
373.92865
373.92875
373.92882
373.92848
373.92847
373.92845
373.92845
373.92848
373.92855
373.92865
373.92878
373.92885
373.92889
373.92854
373.92856
373.92855
373.92855
373.92858
373.92864
373.92875
373.92885
373.92893
373.92895
373.92858
373.92859
373.92858
373.92858
373.92864
373.9287
373.92882
373.92889
373.92895
373.92899
381.3924
381.39237
381.39235
381.3923
381.39229
381.39229
381.39236
381.39245
381.39252
381.39255
381.39237
381.39236
381.39232
381.39226
381.39225
381.39228
381.39235
381.39245
381.39251
381.39257
381.39235
381.39232
381.39227
381.39222
381.39221
381.39224
381.39233
381.39243
381.39249
381.39255
381.3923
381.39226
381.39222
381.3922
381.39218
381.39221
381.39232
381.39242
381.39252
381.39255
381.39229
381.39225
381.39221
381.39218
381.39217
381.39221
381.39233
381.39245
381.39255
381.39261
381.39229
381.39228
381.39224
381.39221
381.39221
381.39228
381.39239
381.39252
381.39261
381.39267
381.39236
381.39235
381.39233
381.39232
381.39233
381.39239
381.39252
381.39265
381.39275
381.39279
381.39245
381.39245
381.39243
381.39242
381.39245
381.39252
381.39265
381.39275
381.39285
381.39289
381.39252
381.39251
381.39249
381.39252
381.39255
381.39261
381.39275
381.39285
381.39292
381.39295
381.39255
381.39257
381.39255
381.39255
381.39261
381.39267
381.39279
381.39289
381.39295
381.39299
388.87252
388.87248
388.87247
388.87242
388.8724
388.87243
388.8725
388.87259
388.87266
388.87269
388.87248
388.87248
388.87243
388.87238
388.87237
388.8724
388.87249
388.87256
388.87265
388.87268
388.87247
388.87243
388.87239
388.87233
388.87232
388.87238
388.87247
388.87257
388.87263
388.87269
388.87242
388.87238
388.87233
388.87231
388.87229
388.87234
388.87246
388.87256
388.87266
388.87269
388.8724
388.87237
388.87232
388.87229
388.87227
388.87235
388.87246
388.87258
388.87268
388.87274
388.87243
388.8724
388.87238
388.87234
388.87235
388.87242
388.87252
388.87265
388.87277
388.87283
388.8725
388.87249
388.87247
388.87246
388.87246
388.87252
388.87266
388.87278
388.87288
388.87295
388.87259
388.87256
388.87257
388.87256
388.87258
388.87265
388.87278
388.87291
388.87301
388.87305
388.87266
388.87265
388.87263
388.87266
388.87268
388.87277
388.87288
388.87301
388.87308
388.87311
388.87269
388.87268
388.87269
388.87269
388.87274
388.87283
388.87295
388.87305
388.87311
388.87315
396.3683
396.36829
396.36825
396.36822
396.36821
396.36824
396.3683
396.3684
396.36846
396.3685
396.36829
396.36826
396.36824
396.36818
396.36817
396.3682
396.36829
396.36839
396.36848
396.36851
396.36825
396.36824
396.36819
396.36814
396.36812
396.36818
396.36827
396.36837
396.36846
396.36852
396.36822
396.36818
396.36814
396.36811
396.36809
396.36814
396.36826
396.36839
396.36848
396.36851
396.36821
396.36817
396.36812
396.36809
396.3681
396.36814
396.36828
396.36841
396.3685
396.36857
396.36824
396.3682
396.36818
396.36814
396.36814
396.36821
396.36834
396.3685
396.36859
396.36866
396.3683
396.36829
396.36827
396.36826
396.36828
396.36834
396.36848
396.36863
396.36873
396.36877
396.3684
396.36839
396.36837
396.36839
396.36841
396.3685
396.36863
396.36876
396.36883
396.3689
396.36846
396.36848
396.36846
396.36848
396.3685
396.36859
396.36873
396.36883
396.36893
396.36896
396.3685
396.36851
396.36852
396.36851
396.36857
396.36866
396.36877
396.3689
396.36896
396.369
403.87909
403.87908
403.87904
403.87901
403.87899
403.87902
403.87908
403.87918
403.87927
403.8793
403.87908
403.87905
403.87902
403.87897
403.87895
403.87898
403.87907
403.87917
403.87926
403.87932
403.87904
403.87902
403.87898
403.87892
403.8789
403.87896
403.87905
403.87917
403.87927
403.8793
403.87901
403.87897
403.87892
403.87889
403.87887
403.87892
403.87906
403.87916
403.87926
403.87932
403.87899
403.87895
403.8789
403.87887
403.87888
403.87895
403.87906
403.87921
403.87931
403.87937
403.87902
403.87898
403.87896
403.87892
403.87895
403.87901
403.87914
403.8793
403.87939
403.87946
403.87908
403.87907
403.87905
403.87906
403.87906
403.87914
403.87928
403.87943
403.87953
403.8796
403.87918
403.87917
403.87917
403.87916
403.87921
403.8793
403.87943
403.87956
403.87966
403.8797
403.87927
403.87926
403.87927
403.87926
403.87931
403.87939
403.87953
403.87966
403.87974
403.87977
403.8793
403.87932
403.8793
403.87932
403.87937
403.87946
403.8796
403.8797
403.87977
403.8798
411.40394
411.40393
411.40389
411.40386
411.40384
411.40387
411.40396
411.40405
411.40412
411.40415
411.40393
411.4039
411.40385
411.40382
411.4038
411.40383
411.40395
411.40405
411.40414
411.40417
411.40389
411.40385
411.40383
411.40377
411.40375
411.4038
411.40392
411.40402
411.40412
411.40417
411.40386
411.40382
411.40377
411.40374
411.40372
411.40379
411.40391
411.40404
411.40413
411.40419
411.40384
411.4038
411.40375
411.40372
411.40372
411.40379
411.40393
411.40405
411.40418
411.40424
411.40387
411.40383
411.4038
411.40379
411.40379
411.40388
411.40401
411.40417
411.40426
411.40433
411.40396
411.40395
411.40392
411.40391
411.40393
411.40401
411.40414
411.4043
411.4044
411.40447
411.40405
411.40405
411.40402
411.40404
411.40405
411.40417
411.4043
411.40443
411.40453
411.40457
411.40412
411.40414
411.40412
411.40413
411.40418
411.40426
411.4044
411.40453
411.40461
411.40466
411.40415
411.40417
411.40417
411.40419
411.40424
411.40433
411.40447
411.40457
411.40466
411.4047
418.94179
418.94178
418.94174
418.94171
418.94169
418.94174
418.9418
418.94192
418.94199
418.94202
418.94178
418.94175
418.94173
418.94167
418.94165
418.9417
418.94179
418.94191
418.94201
418.94204
418.94174
418.94173
418.94167
418.94164
418.94162
418.94167
418.94179
418.94189
418.94198
418.94204
418.94171
418.94167
418.94164
418.94158
418.94159
418.94166
418.94177
418.9419
418.942
418.94206
418.94169
418.94165
418.94162
418.94159
418.94159
418.94165
418.94179
418.94194
418.94204
418.9421
418.94174
418.9417
418.94167
418.94166
418.94165
418.94174
418.94188
418.94203
418.94215
418.94222
418.9418
418.94179
418.94179
418.94177
418.94179
418.94188
418.94203
418.94216
418.94229
418.94236
418.94192
418.94191
418.94189
418.9419
418.94194
418.94203
418.94216
418.94232
418.94242
418.94246
418.94199
418.94201
418.94198
418.942
418.94204
418.94215
418.94229
418.94242
418.9425
418.94253
418.94202
418.94204
418.94204
418.94206
418.9421
418.94222
418.94236
418.94246
418.94253
418.94256
426.49148
426.49147
426.49143
426.49139
426.49137
426.49142
426.49151
426.49161
426.4917
426.49173
426.49147
426.49144
426.49141
426.49135
426.49136
426.49138
426.4915
426.4916
426.49169
426.49175
426.49143
426.49141
426.49136
426.49133
426.49131
426.49135
426.49147
426.4916
426.49169
426.49175
426.49139
426.49135
426.49133
426.4913
426.49127
426.49134
426.49148
426.49161
426.49171
426.49176
426.49137
426.49136
426.49131
426.49127
426.49129
426.49136
426.4915
426.49162
426.49175
426.49181
426.49142
426.49138
426.49135
426.49134
426.49136
426.49145
426.49158
426.49173
426.49186
426.49192
426.49151
426.4915
426.49147
426.49148
426.4915
426.49158
426.49171
426.49186
426.49199
426.49206
426.49161
426.4916
426.4916
426.49161
426.49162
426.49173
426.49186
426.49202
426.49212
426.49216
426.4917
426.49169
426.49169
426.49171
426.49175
426.49186
426.49199
426.49212
426.4922
426.49223
426.49173
426.49175
426.49175
426.49176
426.49181
426.49192
426.49206
426.49216
426.49223
426.49226
434.05176
434.05175
434.05171
434.05168
434.05168
434.0517
434.05179
434.05191
434.05198
434.05201
434.05175
434.05172
434.05169
434.05166
434.05164
434.05169
434.05178
434.0519
434.05199
434.05202
434.05171
434.05169
434.05164
434.05161
434.05158
434.05166
434.05177
434.05187
434.05199
434.05202
434.05168
434.05166
434.05161
434.05157
434.05157
434.05164
434.05176
434.05188
434.05201
434.05207
434.05168
434.05164
434.05158
434.05157
434.05157
434.05166
434.0518
434.05192
434.05205
434.05211
434.0517
434.05169
434.05166
434.05164
434.05166
434.05174
434.05188
434.05203
434.05215
434.05222
434.05179
434.05178
434.05177
434.05176
434.0518
434.05188
434.05203
434.05216
434.05229
434.05236
434.05191
434.0519
434.05187
434.05188
434.05192
434.05203
434.05216
434.05232
434.05242
434.05246
434.05198
434.05199
434.05199
434.05201
434.05205
434.05215
434.05229
434.05242
434.0525
434.05256
434.05201
434.05202
434.05202
434.05207
434.05211
434.05222
434.05236
434.05246
434.05256
434.05256
441.62143
441.62143
441.62141
441.62138
441.62135
441.6214
441.62149
441.62161
441.62167
441.6217
441.62143
441.62142
441.62137
441.62133
441.62133
441.62138
441.62147
441.6216
441.62169
441.62172
441.62141
441.62137
441.62134
441.62131
441.62128
441.62135
441.62147
441.62159
441.62169
441.62174
441.62138
441.62133
441.62131
441.62127
441.62127
441.62134
441.62145
441.6216
441.6217
441.62176
441.62135
441.62133
441.62128
441.62127
441.62126
441.62135
441.62149
441.62164
441.62174
441.6218
441.6214
441.62138
441.62135
441.62134
441.62135
441.62144
441.62157
441.62172
441.62184
441.62191
441.62149
441.62147
441.62147
441.62145
441.62149
441.62157
441.62172
441.62188
441.62198
441.62205
441.62161
441.6216
441.62159
441.6216
441.62164
441.62172
441.62188
441.62201
441.62211
441.62215
441.62167
441.62169
441.62169
441.6217
441.62174
441.62184
441.62198
441.62211
441.62221
441.62225
441.6217
441.62172
441.62174
441.62176
441.6218
441.62191
441.62205
441.62215
441.62225
441.62228
449.19947
449.19946
449.19942
449.19938
449.19938
449.19943
449.19952
449.19961
449.1997
449.19973
449.19946
449.19943
449.1994
449.19937
449.19934
449.19941
449.1995
449.19962
449.19972
449.19975
449.19942
449.1994
449.19935
449.19931
449.19931
449.19938
449.1995
449.1996
449.19969
449.19975
449.19938
449.19937
449.19931
449.19931
449.1993
449.19937
449.19948
449.19963
449.19973
449.19979
449.19938
449.19934
449.19931
449.1993
449.19929
449.19938
449.19951
449.19967
449.19976
449.19983
449.19943
449.19941
449.19938
449.19937
449.19938
449.19946
449.19959
449.19974
449.19987
449.19994
449.19952
449.1995
449.1995
449.19948
449.19951
449.19959
449.19975
449.1999
449.2
449.20008
449.19961
449.19962
449.1996
449.19963
449.19967
449.19974
449.1999
449.20003
449.20014
449.20018
449.1997
449.19972
449.19969
449.19973
449.19976
449.19987
449.2
449.20014
449.20024
449.20027
449.19973
449.19975
449.19975
449.19979
449.19983
449.19994
449.20008
449.20018
449.20027
449.20031
456.78496
456.78495
456.78493
456.7849
456.7849
456.78494
456.78503
456.78512
456.78522
456.78525
456.78495
456.78492
456.78489
456.78486
456.78486
456.7849
456.78501
456.78511
456.7852
456.78526
456.78493
456.78489
456.78487
456.78483
456.78483
456.7849
456.78501
456.78511
456.7852
456.78526
456.7849
456.78486
456.78483
456.78479
456.78482
456.78488
456.78499
456.78514
456.78524
456.7853
456.7849
456.78486
456.78483
456.78482
456.7848
456.78489
456.78503
456.78518
456.78527
456.78534
456.78494
456.7849
456.7849
456.78488
456.78489
456.78497
456.78513
456.78525
456.78538
456.78545
456.78503
456.78501
456.78501
456.78499
456.78503
456.78513
456.78526
456.78541
456.78551
456.78558
456.78512
456.78511
456.78511
456.78514
456.78518
456.78525
456.78541
456.78554
456.78565
456.78569
456.78522
456.7852
456.7852
456.78524
456.78527
456.78538
456.78551
456.78565
456.78572
456.78578
456.78525
456.78526
456.78526
456.7853
456.78534
456.78545
456.78558
456.78569
456.78578
456.78579
464.37747
464.37746
464.37742
464.37741
464.37741
464.37745
464.37754
464.37763
464.37772
464.37775
464.37746
464.37743
464.3774
464.37737
464.37737
464.37744
464.37752
464.37764
464.37774
464.37777
464.37742
464.3774
464.37738
464.37734
464.37734
464.37741
464.37752
464.37764
464.37773
464.37776
464.37741
464.37737
464.37734
464.37733
464.37732
464.37739
464.37753
464.37765
464.37774
464.3778
464.37741
464.37737
464.37734
464.37732
464.37734
464.37742
464.37756
464.37768
464.3778
464.37787
464.37745
464.37744
464.37741
464.37739
464.37742
464.3775
464.37764
464.37779
464.37788
464.37795
464.37754
464.37752
464.37752
464.37753
464.37756
464.37764
464.37779
464.37792
464.37802
464.37809
464.37763
464.37764
464.37764
464.37765
464.37768
464.37779
464.37792
464.37807
464.37815
464.37819
464.37772
464.37774
464.37773
464.37774
464.3778
464.37788
464.37802
464.37815
464.37825
464.37828
464.37775
464.37777
464.37776
464.3778
464.37787
464.37795
464.37809
464.37819
464.37828
464.37829
471.977
471.97699
471.97697
471.97694
471.97693
471.97698
471.97706
471.97718
471.97724
471.9773
471.97699
471.97698
471.97693
471.97692
471.97692
471.97696
471.97707
471.97716
471.97726
471.97731
471.97697
471.97693
471.9769
471.97689
471.97689
471.97696
471.97707
471.97716
471.97725
471.97731
471.97694
471.97692
471.97689
471.97686
471.97687
471.97694
471.97705
471.97717
471.97729
471.97732
471.97693
471.97692
471.97689
471.97687
471.97689
471.97695
471.97708
471.97723
471.97732
471.97739
471.97698
471.97696
471.97696
471.97694
471.97695
471.97702
471.97718
471.97731
471.97743
471.9775
471.97706
471.97707
471.97707
471.97705
471.97708
471.97718
471.97731
471.97746
471.97757
471.97761
471.97718
471.97716
471.97716
471.97717
471.97723
471.97731
471.97746
471.97759
471.97767
471.97771
471.97724
471.97726
471.97725
471.97729
471.97732
471.97743
471.97757
471.97767
471.97777
471.9778
471.9773
471.97731
471.97731
471.97732
471.97739
471.9775
471.97761
471.97771
471.9778
471.97781
479.58419
479.58418
479.58416
479.58416
479.58415
479.58419
479.58427
479.58436
479.58446
479.58448
479.58418
479.58417
479.58415
479.58411
479.58411
479.58417
479.58426
479.58438
479.58447
479.5845
479.58416
479.58415
479.58412
479.58408
479.58411
479.58414
479.58425
479.58437
479.58446
479.58449
479.58416
479.58411
479.58408
479.58407
479.58409
479.58415
479.58426
479.58438
479.58448
479.58453
479.58415
479.58411
479.58411
479.58409
479.5841
479.58416
479.58429
479.58442
479.58454
479.58457
479.58419
479.58417
479.58414
479.58415
479.58416
479.58424
479.58437
479.58452
479.58462
479.58468
479.58427
479.58426
479.58425
479.58426
479.58429
479.58437
479.58453
479.58465
479.58475
479.58482
479.58436
479.58438
479.58437
479.58438
479.58442
479.58452
479.58465
479.58478
479.58488
479.58492
479.58446
479.58447
479.58446
479.58448
479.58454
479.58462
479.58475
479.58488
479.58495
479.58499
479.58448
479.5845
479.58449
479.58453
479.58457
479.58468
479.58482
479.58492
479.58499
479.58499
487.2005
487.20049
487.20047
487.20045
487.20044
487.20048
487.20059
487.20068
487.20074
487.20077
487.20049
487.20046
487.20044
487.20043
487.20042
487.20046
487.20057
487.20066
487.20075
487.20078
487.20047
487.20044
487.20041
487.2004
487.2004
487.20046
487.20057
487.20066
487.20075
487.20081
487.20045
487.20043
487.2004
487.20039
487.20038
487.20047
487.20058
487.2007
487.20076
487.20082
487.20044
487.20042
487.2004
487.20038
487.2004
487.20048
487.20061
487.20073
487.20083
487.20089
487.20048
487.20046
487.20046
487.20047
487.20048
487.20056
487.20069
487.20081
487.2009
487.20097
487.20059
487.20057
487.20057
487.20058
487.20061
487.20069
487.20082
487.20094
487.20104
487.20108
487.20068
487.20066
487.20066
487.2007
487.20073
487.20081
487.20094
487.20107
487.20114
487.20118
487.20074
487.20075
487.20075
487.20076
487.20083
487.2009
487.20104
487.20114
487.20121
487.20125
487.20077
487.20078
487.20081
487.20082
487.20089
487.20097
487.20108
487.20118
487.20125
487.20128
494.82815
494.82815
494.82813
494.82813
494.82812
494.82816
494.82824
494.82833
494.82842
494.82844
494.82815
494.82814
494.82812
494.82811
494.82811
494.82814
494.82825
494.82834
494.8284
494.82846
494.82813
494.82812
494.82809
494.82808
494.82808
494.82814
494.82825
494.82834
494.82843
494.82846
494.82813
494.82811
494.82808
494.82805
494.82807
494.82813
494.82826
494.82835
494.82844
494.82847