/*--------------------------------*- C++ -*----------------------------------*\
| =========                 |                                                 |
| \\      /  F ield         | OpenFOAM: The Open Source CFD Toolbox           |
|  \\    /   O peration     | Version:  v2106                                 |
|   \\  /    A nd           | Website:  www.openfoam.com                      |
|    \\/     M anipulation  |                                                 |
\*---------------------------------------------------------------------------*/
FoamFile
{
    version     2.0;
    format      ascii;
    arch        "LSB;label=32;scalar=64";
    class       volScalarField;
    location    "50";
    object      calFieldValue;
}
// * * * * * * * * * * * * * * * * * * * * * * * * * * * * * * * * * * * * * //

dimensions      [0 0 0 1 0 0 0];

internalField   nonuniform List<scalar> 
4000
(
278.22231
278.22231
278.22231
278.22231
278.22231
278.22231
278.22231
278.22231
278.22231
278.22231
278.22231
278.22231
278.22231
278.22231
278.22231
278.22231
278.22231
278.22231
278.22231
278.22231
278.22231
278.22231
278.22231
278.22231
278.22231
278.22231
278.22231
278.22231
278.22231
278.22231
278.22231
278.22231
278.22231
278.22231
278.22231
278.22231
278.22231
278.22231
278.22231
278.22231
278.22231
278.22231
278.22231
278.22231
278.22231
278.22231
278.22231
278.22231
278.22231
278.22231
278.22231
278.22231
278.22231
278.22231
278.22231
278.22231
278.22231
278.22231
278.22231
278.22231
278.22231
278.22231
278.22231
278.22231
278.22231
278.22231
278.22231
278.22231
278.22231
278.22231
278.22231
278.22231
278.22231
278.22231
278.22231
278.22231
278.22231
278.22231
278.22231
278.22231
278.22231
278.22231
278.22231
278.22231
278.22231
278.22231
278.22231
278.22231
278.22231
278.22231
278.22231
278.22231
278.22231
278.22231
278.22231
278.22231
278.22231
278.22231
278.22231
278.22231
285.47933
285.47933
285.47933
285.47933
285.47933
285.4793
285.4793
285.47933
285.47933
285.47933
285.47933
285.47933
285.47933
285.47932
285.47932
285.4793
285.4793
285.4793
285.47933
285.47933
285.47933
285.47933
285.47933
285.47932
285.4793
285.4793
285.4793
285.4793
285.47933
285.47933
285.47933
285.47932
285.47932
285.47929
285.47929
285.47929
285.4793
285.4793
285.47933
285.47933
285.47933
285.47932
285.4793
285.47929
285.47929
285.47929
285.4793
285.4793
285.4793
285.47933
285.4793
285.4793
285.4793
285.47929
285.47929
285.4793
285.4793
285.4793
285.47933
285.47933
285.4793
285.4793
285.4793
285.4793
285.4793
285.4793
285.4793
285.47933
285.47933
285.47933
285.47933
285.4793
285.4793
285.4793
285.4793
285.4793
285.47933
285.47933
285.47933
285.47936
285.47933
285.47933
285.47933
285.47933
285.4793
285.47933
285.47933
285.47933
285.47936
285.47936
285.47933
285.47933
285.47933
285.47933
285.47933
285.47933
285.47933
285.47936
285.47936
285.47936
292.74037
292.74037
292.74037
292.74036
292.74034
292.74034
292.74034
292.74035
292.74035
292.74035
292.74037
292.74037
292.74037
292.74036
292.74033
292.74034
292.74034
292.74034
292.74035
292.74037
292.74037
292.74037
292.74036
292.74033
292.74033
292.74031
292.74034
292.74034
292.74034
292.74035
292.74036
292.74036
292.74033
292.74033
292.7403
292.7403
292.74031
292.74034
292.74034
292.74034
292.74034
292.74033
292.74033
292.7403
292.7403
292.7403
292.7403
292.74033
292.74034
292.74034
292.74034
292.74034
292.74031
292.7403
292.7403
292.7403
292.74031
292.74034
292.74034
292.74037
292.74034
292.74034
292.74034
292.74031
292.7403
292.74031
292.74033
292.74034
292.74037
292.74037
292.74035
292.74034
292.74034
292.74034
292.74033
292.74034
292.74034
292.74037
292.7404
292.7404
292.74035
292.74035
292.74034
292.74034
292.74034
292.74034
292.74037
292.7404
292.7404
292.7404
292.74035
292.74037
292.74035
292.74034
292.74034
292.74037
292.74037
292.7404
292.7404
292.74043
300.00808
300.00808
300.00805
300.00804
300.00801
300.00802
300.00802
300.00803
300.00806
300.00806
300.00808
300.00808
300.00805
300.00804
300.00801
300.00802
300.00802
300.00803
300.00806
300.00806
300.00805
300.00805
300.00804
300.00801
300.00798
300.00798
300.00799
300.00802
300.00803
300.00805
300.00804
300.00804
300.00801
300.008
300.00798
300.00798
300.00798
300.00802
300.00802
300.00805
300.00801
300.00801
300.00798
300.00798
300.00795
300.00795
300.00798
300.00801
300.00802
300.00805
300.00802
300.00802
300.00798
300.00798
300.00795
300.00795
300.00798
300.00801
300.00804
300.00804
300.00802
300.00802
300.00799
300.00798
300.00798
300.00798
300.00801
300.00804
300.00807
300.00807
300.00803
300.00803
300.00802
300.00802
300.00801
300.00801
300.00804
300.00807
300.0081
300.0081
300.00806
300.00806
300.00803
300.00802
300.00802
300.00804
300.00807
300.0081
300.00811
300.00814
300.00806
300.00806
300.00805
300.00805
300.00805
300.00804
300.00807
300.0081
300.00814
300.00814
307.28498
307.28498
307.28495
307.28494
307.28491
307.28492
307.28492
307.28493
307.28496
307.28496
307.28498
307.28495
307.28495
307.28491
307.28488
307.28489
307.28489
307.28493
307.28496
307.28496
307.28495
307.28495
307.28491
307.28491
307.28488
307.28488
307.28489
307.28492
307.28493
307.28496
307.28494
307.28491
307.28491
307.28487
307.28485
307.28485
307.28488
307.28492
307.28492
307.28495
307.28491
307.28488
307.28488
307.28485
307.28484
307.28485
307.28488
307.28491
307.28494
307.28495
307.28492
307.28489
307.28488
307.28485
307.28485
307.28485
307.28488
307.28491
307.28494
307.28497
307.28492
307.28489
307.28489
307.28488
307.28488
307.28488
307.28491
307.28494
307.28497
307.285
307.28493
307.28493
307.28492
307.28492
307.28491
307.28491
307.28494
307.285
307.285
307.28503
307.28496
307.28496
307.28493
307.28492
307.28494
307.28494
307.28497
307.285
307.28504
307.28507
307.28496
307.28496
307.28496
307.28495
307.28495
307.28497
307.285
307.28503
307.28507
307.28507
314.57355
314.57354
314.57351
314.5735
314.57347
314.57348
314.57349
314.57352
314.57353
314.57353
314.57354
314.57354
314.57351
314.57347
314.57344
314.57345
314.57348
314.57349
314.57352
314.57355
314.57351
314.57351
314.57347
314.57347
314.57344
314.57344
314.57345
314.57349
314.57352
314.57352
314.5735
314.57347
314.57347
314.57343
314.5734
314.57341
314.57344
314.57348
314.57351
314.57354
314.57347
314.57344
314.57344
314.5734
314.57338
314.57341
314.57344
314.57347
314.57351
314.57354
314.57348
314.57345
314.57344
314.57341
314.57341
314.57341
314.57346
314.5735
314.57353
314.57356
314.57349
314.57348
314.57345
314.57344
314.57344
314.57346
314.57349
314.57353
314.57359
314.57359
314.57352
314.57349
314.57349
314.57348
314.57347
314.5735
314.57353
314.57359
314.57362
314.57365
314.57353
314.57352
314.57352
314.57351
314.57351
314.57353
314.57359
314.57362
314.57366
314.57368
314.57353
314.57355
314.57352
314.57354
314.57354
314.57356
314.57359
314.57365
314.57368
314.57369
321.87612
321.87612
321.87609
321.87608
321.87605
321.87603
321.87606
321.8761
321.8761
321.87613
321.87612
321.87609
321.87608
321.87605
321.87602
321.87602
321.87603
321.87607
321.8761
321.87613
321.87609
321.87608
321.87605
321.87601
321.87599
321.87599
321.87603
321.87606
321.8761
321.87612
321.87608
321.87605
321.87601
321.87598
321.87598
321.87598
321.87601
321.87605
321.87609
321.87612
321.87605
321.87602
321.87599
321.87598
321.87595
321.87595
321.87601
321.87604
321.87611
321.87614
321.87603
321.87602
321.87599
321.87598
321.87595
321.87598
321.87603
321.8761
321.87613
321.87616
321.87606
321.87603
321.87603
321.87601
321.87601
321.87603
321.87609
321.87613
321.87619
321.87622
321.8761
321.87607
321.87606
321.87605
321.87604
321.8761
321.87613
321.87619
321.87622
321.87626
321.8761
321.8761
321.8761
321.87609
321.87611
321.87613
321.87619
321.87622
321.87629
321.87629
321.87613
321.87613
321.87612
321.87612
321.87614
321.87616
321.87622
321.87626
321.87629
321.87632
329.19487
329.19487
329.19484
329.1948
329.19477
329.19477
329.19481
329.19484
329.19488
329.19488
329.19487
329.19484
329.19483
329.19479
329.19476
329.19477
329.19478
329.19484
329.19488
329.19491
329.19484
329.19483
329.1948
329.19476
329.19473
329.19473
329.19477
329.19481
329.19487
329.19487
329.1948
329.19479
329.19476
329.19472
329.19469
329.19472
329.19476
329.19482
329.19486
329.19489
329.19477
329.19476
329.19473
329.19469
329.19469
329.19469
329.19475
329.19481
329.19488
329.19491
329.19477
329.19477
329.19473
329.19472
329.19469
329.19472
329.19477
329.19484
329.1949
329.19493
329.19481
329.19478
329.19477
329.19476
329.19475
329.19477
329.19483
329.19492
329.19496
329.19499
329.19484
329.19484
329.19481
329.19482
329.19481
329.19484
329.19492
329.19499
329.19502
329.19505
329.19488
329.19488
329.19487
329.19486
329.19488
329.1949
329.19496
329.19502
329.19506
329.19509
329.19488
329.19491
329.19487
329.19489
329.19491
329.19493
329.19499
329.19505
329.19509
329.19512
336.53178
336.53175
336.53172
336.53171
336.53168
336.53168
336.53172
336.53176
336.53179
336.53182
336.53175
336.53175
336.53172
336.53168
336.53165
336.53165
336.53169
336.53175
336.53179
336.53182
336.53172
336.53172
336.53168
336.53164
336.53161
336.53164
336.53168
336.53175
336.53178
336.53181
336.53171
336.53168
336.53164
336.5316
336.5316
336.5316
336.53166
336.53173
336.53177
336.5318
336.53168
336.53165
336.53161
336.5316
336.53157
336.53159
336.53165
336.53172
336.53178
336.53182
336.53168
336.53165
336.53164
336.5316
336.53159
336.53162
336.53171
336.53177
336.53183
336.53187
336.53172
336.53169
336.53168
336.53166
336.53165
336.53171
336.53176
336.53185
336.53189
336.53195
336.53176
336.53175
336.53175
336.53173
336.53172
336.53177
336.53185
336.53192
336.53199
336.53199
336.53179
336.53179
336.53178
336.53177
336.53178
336.53183
336.53189
336.53199
336.53202
336.53205
336.53182
336.53182
336.53181
336.5318
336.53182
336.53187
336.53195
336.53199
336.53205
336.53205
343.88858
343.88858
343.88855
343.88853
343.8885
343.88851
343.88854
343.88858
343.88864
343.88865
343.88858
343.88858
343.88854
343.8885
343.88847
343.88847
343.88854
343.88858
343.88864
343.88867
343.88855
343.88854
343.8885
343.88846
343.88843
343.88846
343.8885
343.88857
343.88863
343.88866
343.88853
343.8885
343.88846
343.88842
343.88839
343.88842
343.88848
343.88855
343.88862
343.88865
343.8885
343.88847
343.88843
343.88839
343.88839
343.88841
343.8885
343.88857
343.88863
343.88866
343.88851
343.88847
343.88846
343.88842
343.88841
343.88847
343.88852
343.88862
343.88868
343.88874
343.88854
343.88854
343.8885
343.88848
343.8885
343.88852
343.88861
343.8887
343.88877
343.8888
343.88858
343.88858
343.88857
343.88855
343.88857
343.88862
343.8887
343.88879
343.88883
343.88887
343.88864
343.88864
343.88863
343.88862
343.88863
343.88868
343.88877
343.88883
343.8889
343.88893
343.88865
343.88867
343.88866
343.88865
343.88866
343.88874
343.8888
343.88887
343.88893
343.88893
351.26686
351.26686
351.26683
351.26678
351.26678
351.26678
351.26682
351.26689
351.26692
351.26695
351.26686
351.26683
351.26679
351.26678
351.26675
351.26675
351.26681
351.26685
351.26692
351.26695
351.26683
351.26679
351.26675
351.26674
351.26671
351.26671
351.26678
351.26684
351.26691
351.26694
351.26678
351.26678
351.26674
351.2667
351.26667
351.2667
351.26678
351.26685
351.26692
351.26695
351.26678
351.26675
351.26671
351.26667
351.26666
351.26668
351.26677
351.26687
351.26693
351.26696
351.26678
351.26675
351.26671
351.2667
351.26668
351.26674
351.26682
351.26691
351.26698
351.26704
351.26682
351.26681
351.26678
351.26678
351.26677
351.26682
351.2669
351.267
351.26709
351.26713
351.26689
351.26685
351.26684
351.26685
351.26687
351.26691
351.267
351.26709
351.26716
351.2672
351.26692
351.26692
351.26691
351.26692
351.26693
351.26698
351.26709
351.26716
351.26723
351.26726
351.26695
351.26695
351.26694
351.26695
351.26696
351.26704
351.26713
351.2672
351.26726
351.26726
358.66785
358.66782
358.66778
358.66776
358.66773
358.66773
358.6678
358.66786
358.6679
358.66793
358.66782
358.66781
358.66777
358.66773
358.6677
358.66773
358.66779
358.66786
358.66792
358.66795
358.66778
358.66777
358.66773
358.66769
358.66766
358.66769
358.66775
358.66785
358.66791
358.66794
358.66776
358.66773
358.66769
358.66765
358.66764
358.66767
358.66776
358.66783
358.6679
358.66795
358.66773
358.6677
358.66766
358.66764
358.66763
358.66766
358.66775
358.66784
358.66793
358.66797
358.66773
358.66773
358.66769
358.66767
358.66766
358.66771
358.66782
358.66792
358.66801
358.66804
358.6678
358.66779
358.66775
358.66776
358.66775
358.66782
358.6679
358.66803
358.66809
358.66813
358.66786
358.66786
358.66785
358.66783
358.66784
358.66792
358.66803
358.66812
358.66819
358.66823
358.6679
358.66792
358.66791
358.6679
358.66793
358.66801
358.66809
358.66819
358.66826
358.66829
358.66793
358.66795
358.66794
358.66795
358.66797
358.66804
358.66813
358.66823
358.66829
358.66829
366.09247
366.09244
366.0924
366.09239
366.09235
366.09238
366.09242
366.09249
366.09255
366.09258
366.09244
366.09244
366.0924
366.09235
366.09232
366.09235
366.09241
366.09248
366.09255
366.0926
366.0924
366.0924
366.09236
366.09231
366.09228
366.09231
366.0924
366.09247
366.09253
366.09259
366.09239
366.09235
366.09231
366.09227
366.09226
366.09229
366.09238
366.09247
366.09257
366.0926
366.09235
366.09232
366.09228
366.09226
366.09225
366.0923
366.09239
366.09251
366.09258
366.09264
366.09238
366.09235
366.09231
366.09229
366.0923
366.09235
366.09246
366.09256
366.09265
366.09271
366.09242
366.09241
366.0924
366.09238
366.09239
366.09246
366.09257
366.09267
366.09276
366.0928
366.09249
366.09248
366.09247
366.09247
366.09251
366.09256
366.09267
366.09279
366.09286
366.0929
366.09255
366.09255
366.09253
366.09257
366.09258
366.09265
366.09276
366.09286
366.09293
366.09296
366.09258
366.0926
366.09259
366.0926
366.09264
366.09271
366.0928
366.0929
366.09296
366.09299
373.54137
373.54137
373.54133
373.54132
373.54128
373.54128
373.54135
373.54141
373.54148
373.54151
373.54137
373.54134
373.5413
373.54128
373.54124
373.54127
373.54134
373.54141
373.5415
373.54153
373.54133
373.5413
373.54126
373.54121
373.5412
373.54123
373.54132
373.5414
373.54149
373.54152
373.54132
373.54128
373.54121
373.54119
373.54118
373.54121
373.5413
373.5414
373.54149
373.54152
373.54128
373.54124
373.5412
373.54118
373.54117
373.54122
373.54131
373.54143
373.54153
373.54159
373.54128
373.54127
373.54123
373.54121
373.54122
373.54127
373.54138
373.5415
373.5416
373.54166
373.54135
373.54134
373.54132
373.5413
373.54131
373.54138
373.54149
373.54162
373.54171
373.54177
373.54141
373.54141
373.5414
373.5414
373.54143
373.5415
373.54162
373.54174
373.54181
373.54185
373.54148
373.5415
373.54149
373.54149
373.54153
373.5416
373.54171
373.54181
373.54188
373.54191
373.54151
373.54153
373.54152
373.54152
373.54159
373.54166
373.54177
373.54185
373.54191
373.54194
381.01487
381.01484
381.01483
381.01479
381.01477
381.01478
381.01484
381.01494
381.015
381.01503
381.01484
381.01484
381.0148
381.01475
381.01474
381.01477
381.01484
381.01493
381.015
381.01505
381.01483
381.0148
381.01475
381.01471
381.0147
381.01473
381.01482
381.01492
381.01498
381.01504
381.01479
381.01475
381.01471
381.01469
381.01468
381.0147
381.01482
381.01492
381.01501
381.01505
381.01477
381.01474
381.0147
381.01468
381.01466
381.01471
381.01483
381.01495
381.01505
381.01511
381.01478
381.01477
381.01473
381.0147
381.01471
381.01479
381.0149
381.01502
381.01512
381.01518
381.01484
381.01484
381.01482
381.01482
381.01483
381.0149
381.01504
381.01516
381.01526
381.01529
381.01494
381.01493
381.01492
381.01492
381.01495
381.01502
381.01516
381.01526
381.01536
381.01539
381.015
381.015
381.01498
381.01501
381.01505
381.01512
381.01526
381.01536
381.01543
381.01546
381.01503
381.01505
381.01504
381.01505
381.01511
381.01518
381.01529
381.01539
381.01546
381.01549
388.51287
388.51284
388.51283
388.51278
388.51277
388.5128
388.51286
388.51296
388.51303
388.51306
388.51284
388.51284
388.5128
388.51275
388.51273
388.51276
388.51286
388.51293
388.51302
388.51305
388.51283
388.5128
388.51275
388.5127
388.51269
388.51275
388.51284
388.51294
388.513
388.51306
388.51278
388.51275
388.5127
388.51268
388.51267
388.51272
388.51284
388.51294
388.51303
388.51307
388.51277
388.51273
388.51269
388.51267
388.51265
388.51273
388.51284
388.51297
388.51307
388.51313
388.5128
388.51276
388.51275
388.51272
388.51273
388.5128
388.51291
388.51304
388.51316
388.51322
388.51286
388.51286
388.51284
388.51284
388.51284
388.51291
388.51305
388.51318
388.51327
388.51334
388.51296
388.51293
388.51294
388.51294
388.51297
388.51304
388.51318
388.5133
388.5134
388.51344
388.51303
388.51302
388.513
388.51303
388.51307
388.51316
388.51327
388.5134
388.51347
388.5135
388.51306
388.51305
388.51306
388.51307
388.51313
388.51322
388.51334
388.51344
388.5135
388.51353
396.0349
396.0349
396.03486
396.03484
396.03482
396.03485
396.03492
396.03501
396.03508
396.03511
396.0349
396.03487
396.03485
396.0348
396.03479
396.03482
396.03491
396.035
396.0351
396.03513
396.03486
396.03485
396.0348
396.03476
396.03474
396.0348
396.03489
396.03499
396.03508
396.03514
396.03484
396.0348
396.03476
396.03473
396.03472
396.03477
396.03489
396.03501
396.03511
396.03514
396.03482
396.03479
396.03474
396.03472
396.03473
396.03478
396.03492
396.03504
396.03514
396.0352
396.03485
396.03482
396.0348
396.03477
396.03478
396.03485
396.03498
396.03514
396.03523
396.0353
396.03492
396.03491
396.03489
396.03489
396.03492
396.03498
396.03512
396.03527
396.03537
396.03541
396.03501
396.035
396.03499
396.03501
396.03504
396.03514
396.03527
396.0354
396.03547
396.03554
396.03508
396.0351
396.03508
396.03511
396.03514
396.03523
396.03537
396.03547
396.03557
396.0356
396.03511
396.03513
396.03514
396.03514
396.0352
396.0353
396.03541
396.03554
396.0356
396.03563
403.58017
403.58016
403.58012
403.5801
403.58008
403.58011
403.58017
403.58027
403.58036
403.5804
403.58016
403.58013
403.58011
403.58006
403.58005
403.58007
403.58017
403.58026
403.58036
403.58042
403.58012
403.58011
403.58007
403.58002
403.58
403.58006
403.58015
403.58027
403.58037
403.5804
403.5801
403.58006
403.58002
403.57999
403.57998
403.58003
403.58017
403.58027
403.58037
403.58042
403.58008
403.58005
403.58
403.57998
403.57998
403.58006
403.58017
403.58032
403.58042
403.58048
403.58011
403.58007
403.58006
403.58003
403.58006
403.58013
403.58026
403.58042
403.58051
403.58058
403.58017
403.58017
403.58015
403.58017
403.58017
403.58026
403.5804
403.58055
403.58065
403.58072
403.58027
403.58026
403.58027
403.58027
403.58032
403.58042
403.58055
403.58068
403.58078
403.58082
403.58036
403.58036
403.58037
403.58037
403.58042
403.58051
403.58065
403.58078
403.58085
403.58088
403.5804
403.58042
403.5804
403.58042
403.58048
403.58058
403.58072
403.58082
403.58088
403.58092
411.14739
411.14738
411.14734
411.14732
411.1473
411.14733
411.14742
411.14752
411.14758
411.14761
411.14738
411.14735
411.14731
411.14728
411.14726
411.14729
411.14741
411.14751
411.1476
411.14763
411.14734
411.14731
411.14729
411.14723
411.14722
411.14727
411.14739
411.14749
411.14758
411.14764
411.14732
411.14728
411.14723
411.14721
411.14719
411.14727
411.14739
411.14751
411.14761
411.14767
411.1473
411.14726
411.14722
411.14719
411.1472
411.14727
411.14741
411.14754
411.14766
411.14772
411.14733
411.14729
411.14727
411.14727
411.14727
411.14736
411.1475
411.14765
411.14775
411.14781
411.14742
411.14741
411.14739
411.14739
411.14741
411.1475
411.14764
411.14779
411.14789
411.14796
411.14752
411.14751
411.14749
411.14751
411.14754
411.14765
411.14779
411.14792
411.14802
411.14806
411.14758
411.1476
411.14758
411.14761
411.14766
411.14775
411.14789
411.14802
411.14809
411.14815
411.14761
411.14763
411.14764
411.14767
411.14772
411.14781
411.14796
411.14806
411.14815
411.14818
418.73492
418.73491
418.73487
418.73485
418.73483
418.73488
418.73495
418.73507
418.73514
418.73517
418.73491
418.73488
418.73486
418.73481
418.73479
418.73485
418.73494
418.73506
418.73516
418.73519
418.73487
418.73486
418.73482
418.73479
418.73477
418.73482
418.73494
418.73504
418.73513
418.73519
418.73485
418.73481
418.73479
418.73474
418.73474
418.73482
418.73494
418.73506
418.73516
418.73522
418.73483
418.73479
418.73477
418.73474
418.73475
418.73482
418.73496
418.73511
418.73521
418.73527
418.73488
418.73485
418.73482
418.73482
418.73482
418.73491
418.73505
418.7352
418.73533
418.73539
418.73495
418.73494
418.73494
418.73494
418.73496
418.73505
418.73521
418.73534
418.73547
418.73553
418.73507
418.73506
418.73504
418.73506
418.73511
418.7352
418.73534
418.7355
418.7356
418.73563
418.73514
418.73516
418.73513
418.73516
418.73521
418.73533
418.73547
418.7356
418.73567
418.7357
418.73517
418.73519
418.73519
418.73522
418.73527
418.73539
418.73553
418.73563
418.7357
418.73573
426.34077
426.34076
426.34072
426.34069
426.34067
426.34072
426.34081
426.34091
426.341
426.34103
426.34076
426.34073
426.34071
426.34065
426.34066
426.34069
426.3408
426.3409
426.341
426.34105
426.34072
426.34071
426.34066
426.34063
426.34061
426.34066
426.34078
426.34091
426.341
426.34106
426.34069
426.34065
426.34063
426.34061
426.34058
426.34066
426.3408
426.34093
426.34102
426.34108
426.34067
426.34066
426.34061
426.34058
426.34061
426.34068
426.34082
426.34095
426.34107
426.34113
426.34072
426.34069
426.34066
426.34066
426.34068
426.34077
426.34091
426.34106
426.34119
426.34125
426.34081
426.3408
426.34078
426.3408
426.34082
426.34091
426.34105
426.3412
426.34133
426.3414
426.34091
426.3409
426.34091
426.34093
426.34095
426.34106
426.3412
426.34136
426.34146
426.3415
426.341
426.341
426.341
426.34102
426.34107
426.34119
426.34133
426.34146
426.34153
426.34156
426.34103
426.34105
426.34106
426.34108
426.34113
426.34125
426.3414
426.3415
426.34156
426.34159
433.96253
433.96252
433.96248
433.96246
433.96246
433.96248
433.96257
433.9627
433.96276
433.96279
433.96252
433.96249
433.96247
433.96244
433.96242
433.96247
433.96256
433.96269
433.96278
433.96281
433.96248
433.96247
433.96242
433.96239
433.96237
433.96245
433.96257
433.96266
433.96278
433.96281
433.96246
433.96244
433.96239
433.96236
433.96237
433.96244
433.96256
433.96268
433.9628
433.96286
433.96246
433.96242
433.96237
433.96237
433.96237
433.96246
433.9626
433.96273
433.96285
433.96291
433.96248
433.96247
433.96245
433.96244
433.96246
433.96255
433.96269
433.96284
433.96297
433.96303
433.96257
433.96256
433.96257
433.96256
433.9626
433.96269
433.96285
433.96298
433.96311
433.96318
433.9627
433.96269
433.96266
433.96268
433.96273
433.96284
433.96298
433.96314
433.96324
433.96328
433.96276
433.96278
433.96278
433.9628
433.96285
433.96297
433.96311
433.96324
433.96331
433.96337
433.96279
433.96281
433.96281
433.96286
433.96291
433.96303
433.96318
433.96328
433.96337
433.96337
441.59751
441.5975
441.59749
441.59746
441.59744
441.59749
441.59758
441.5977
441.59776
441.59779
441.5975
441.5975
441.59745
441.59742
441.59743
441.59747
441.59756
441.59769
441.59778
441.59781
441.59749
441.59745
441.59743
441.5974
441.59738
441.59745
441.59757
441.59769
441.59778
441.59784
441.59746
441.59742
441.5974
441.59737
441.59737
441.59744
441.59756
441.59771
441.59781
441.59786
441.59744
441.59743
441.59738
441.59737
441.59737
441.59746
441.5976
441.59776
441.59785
441.59791
441.59749
441.59747
441.59745
441.59744
441.59746
441.59755
441.59769
441.59784
441.59797
441.59803
441.59758
441.59756
441.59757
441.59756
441.5976
441.59769
441.59785
441.59801
441.59811
441.59817
441.5977
441.59769
441.59769
441.59771
441.59776
441.59784
441.59801
441.59813
441.59824
441.59827
441.59776
441.59778
441.59778
441.59781
441.59785
441.59797
441.59811
441.59824
441.59833
441.59837
441.59779
441.59781
441.59784
441.59786
441.59791
441.59803
441.59817
441.59827
441.59837
441.5984
449.24281
449.2428
449.24276
449.24273
449.24274
449.24278
449.24287
449.24297
449.24306
449.24309
449.2428
449.24277
449.24275
449.24272
449.24269
449.24277
449.24286
449.24298
449.24308
449.24311
449.24276
449.24275
449.2427
449.24267
449.24267
449.24275
449.24286
449.24296
449.24305
449.24311
449.24273
449.24272
449.24267
449.24267
449.24267
449.24274
449.24285
449.243
449.2431
449.24316
449.24274
449.24269
449.24267
449.24267
449.24266
449.24275
449.24289
449.24305
449.24314
449.2432
449.24278
449.24277
449.24275
449.24274
449.24275
449.24284
449.24298
449.24313
449.24326
449.24332
449.24287
449.24286
449.24286
449.24285
449.24289
449.24298
449.24314
449.2433
449.2434
449.24347
449.24297
449.24298
449.24296
449.243
449.24305
449.24313
449.2433
449.24343
449.24353
449.24356
449.24306
449.24308
449.24305
449.2431
449.24314
449.24326
449.2434
449.24353
449.24362
449.24366
449.24309
449.24311
449.24311
449.24316
449.2432
449.24332
449.24347
449.24356
449.24366
449.24369
456.89525
456.89524
456.89522
456.8952
456.8952
456.89525
456.89533
456.89543
456.89552
456.89555
456.89524
456.89521
456.89519
456.89516
456.89516
456.8952
456.89532
456.89542
456.89551
456.89557
456.89522
456.89519
456.89516
456.89513
456.89513
456.89521
456.89532
456.89542
456.89551
456.89557
456.8952
456.89516
456.89513
456.8951
456.89513
456.8952
456.89531
456.89546
456.89556
456.89561
456.8952
456.89516
456.89513
456.89513
456.89512
456.89521
456.89535
456.8955
456.8956
456.89566
456.89525
456.8952
456.89521
456.8952
456.89521
456.8953
456.89546
456.89559
456.89571
456.89578
456.89533
456.89532
456.89532
456.89531
456.89535
456.89546
456.8956
456.89575
456.89585
456.89592
456.89543
456.89542
456.89542
456.89546
456.8955
456.89559
456.89575
456.89588
456.89598
456.89602
456.89552
456.89551
456.89551
456.89556
456.8956
456.89571
456.89585
456.89598
456.89605
456.89611
456.89555
456.89557
456.89557
456.89561
456.89566
456.89578
456.89592
456.89602
456.89611
456.89612
464.55171
464.5517
464.55165
464.55166
464.55166
464.5517
464.55179
464.55188
464.55197
464.552
464.5517
464.55166
464.55164
464.55161
464.55161
464.55169
464.55177
464.5519
464.55199
464.55202
464.55165
464.55164
464.55162
464.55159
464.55159
464.55166
464.55178
464.5519
464.55199
464.55202
464.55166
464.55161
464.55159
464.55159
464.55158
464.55165
464.55179
464.55192
464.55201
464.55207
464.55166
464.55161
464.55159
464.55158
464.5516
464.55169
464.55183
464.55196
464.55208
464.55214
464.5517
464.55169
464.55166
464.55165
464.55169
464.55178
464.55192
464.55207
464.55216
464.55223
464.55179
464.55177
464.55178
464.55179
464.55183
464.55192
464.55208
464.55221
464.55231
464.55237
464.55188
464.5519
464.5519
464.55192
464.55196
464.55207
464.55221
464.55236
464.55243
464.55247
464.55197
464.55199
464.55199
464.55201
464.55208
464.55216
464.55231
464.55243
464.55253
464.55256
464.552
464.55202
464.55202
464.55207
464.55214
464.55223
464.55237
464.55247
464.55256
464.55257
472.2091
472.20909
472.20907
472.20905
472.20905
472.20909
472.20918
472.2093
472.20936
472.20942
472.20909
472.20908
472.20904
472.20903
472.20903
472.20908
472.20919
472.20928
472.20938
472.20943
472.20907
472.20904
472.20901
472.20901
472.20901
472.20908
472.20919
472.20929
472.20938
472.20943
472.20905
472.20903
472.20901
472.20898
472.209
472.20907
472.20918
472.2093
472.20942
472.20945
472.20905
472.20903
472.20901
472.209
472.20902
472.20908
472.20922
472.20937
472.20947
472.20953
472.20909
472.20908
472.20908
472.20907
472.20908
472.20917
472.20933
472.20945
472.20958
472.20965
472.20918
472.20919
472.20919
472.20918
472.20922
472.20933
472.20947
472.20962
472.20972
472.20976
472.2093
472.20928
472.20929
472.2093
472.20937
472.20945
472.20962
472.20975
472.20982
472.20986
472.20936
472.20938
472.20938
472.20942
472.20947
472.20958
472.20972
472.20982
472.20992
472.20995
472.20942
472.20943
472.20943
472.20945
472.20953
472.20965
472.20976
472.20986
472.20995
472.20996
479.86465
479.86465
479.86463
479.86463
479.86463
479.86467
479.86476
479.86485
479.86494
479.86497
479.86465
479.86464
479.86462
479.86459
479.86459
479.86466
479.86474
479.86486
479.86495
479.86498
479.86463
479.86462
479.8646
479.86457
479.86459
479.86463
479.86474
479.86486
479.86495
479.86498
479.86463
479.86459
479.86457
479.86456
479.86458
479.86465
479.86476
479.86488
479.86497
479.86503
479.86463
479.86459
479.86459
479.86458
479.8646
479.86466
479.8648
479.86492
479.86504
479.86508
479.86467
479.86466
479.86463
479.86465
479.86466
479.86475
479.86488
479.86503
479.86513
479.8652
479.86476
479.86474
479.86474
479.86476
479.8648
479.86488
479.86505
479.86517
479.86527
479.86534
479.86485
479.86486
479.86486
479.86488
479.86492
479.86503
479.86517
479.8653
479.8654
479.86544
479.86494
479.86495
479.86495
479.86497
479.86504
479.86513
479.86527
479.8654
479.86547
479.8655
479.86497
479.86498
479.86498
479.86503
479.86508
479.8652
479.86534
479.86544
479.8655
479.86551
487.51618
487.51617
487.51615
487.51613
487.51613
487.51617
487.51628
487.51637
487.51643
487.51646
487.51617
487.51614
487.51612
487.51612
487.51611
487.51615
487.51627
487.51636
487.51645
487.51648
487.51615
487.51612
487.51609
487.51609
487.51609
487.51616
487.51627
487.51636
487.51645
487.51651
487.51613
487.51612
487.51609
487.51609
487.51608
487.51617
487.51629
487.51641
487.51647
487.51653
487.51613
487.51611
487.51609
487.51608
487.5161
487.51619
487.51633
487.51645
487.51654
487.5166
487.51617
487.51615
487.51616
487.51617
487.51619
487.51627
487.51641
487.51653
487.51663
487.5167
487.51628
487.51627
487.51627
487.51629
487.51633
487.51641
487.51655
487.51667
487.51677
487.51681
487.51637
487.51636
487.51636
487.51641
487.51645
487.51653
487.51667
487.5168
487.51687
487.51691
487.51643
487.51645
487.51645
487.51647
487.51654
487.51663
487.51677
487.51687
487.51694
487.51697
487.51646
487.51648
487.51651
487.51653
487.5166
487.5167
487.51681
487.51691
487.51697
487.517
495.1622
495.16219
495.16217
495.16218
495.16218
495.16222
495.1623
495.16239
495.16248
495.1625
495.16219
495.16218
495.16216
495.16216
495.16216
495.1622
495.16231
495.1624
495.16246
495.16252
495.16217
495.16216
495.16214
495.16214
495.16214
495.1622
495.16231
495.1624
495.16249
495.16252
495.16218
495.16216
495.16214
495.16211
495.16213
495.16219
495.16233
495.16242
495.16251
495.16255
495.16218
495.16216
495.16214
495.16213
495.16215