/*--------------------------------*- C++ -*----------------------------------*\
| =========                 |                                                 |
| \\      /  F ield         | OpenFOAM: The Open Source CFD Toolbox           |
|  \\    /   O peration     | Version:  v2106                                 |
|   \\  /    A nd           | Website:  www.openfoam.com                      |
|    \\/     M anipulation  |                                                 |
\*---------------------------------------------------------------------------*/
FoamFile
{
    version     2.0;
    format      ascii;
    arch        "LSB;label=32;scalar=64";
    class       volVectorField;
    location    "50";
    object      testgradMode;
}
// * * * * * * * * * * * * * * * * * * * * * * * * * * * * * * * * * * * * * //

dimensions      [0 -1 0 0 0 0 0];

internalField   nonuniform List<vector> 
4000
(
(-2.1184212e-17 -3.3615086e-21 -0.022895433)
(-6.3547593e-17 -3.3615086e-21 -0.022895433)
(3.1772536e-17 -1.6807543e-21 -0.022895433)
(6.3548223e-17 1.6807543e-21 -0.022895433)
(6.3028286e-22 -4.2363381e-17 -0.022895433)
(-3.1774375e-17 2.1184166e-17 -0.0228954)
(-3.1774375e-17 1.6653345e-21 -0.0228954)
(-3.1772536e-17 -1.6807543e-21 -0.022895433)
(-3.1771275e-17 4.2363381e-17 -0.022895433)
(1.6807543e-21 4.2363381e-17 -0.022895433)
(-2.1182531e-17 -6.3547593e-17 -0.022895433)
(-6.3547593e-17 5.0422629e-21 -0.022895433)
(3.1771275e-17 -2.5211315e-21 -0.022895433)
(-6.0630626e-32 -6.3547593e-17 -0.022895433)
(3.1773797e-17 3.4449219e-32 -0.022895433)
(3.177375e-17 1.1023734e-31 -0.0228954)
(-6.3547501e-17 -9.5321251e-17 -0.0228954)
(3.177375e-17 -3.177375e-17 -0.0228954)
(3.1771275e-17 3.1776318e-17 -0.022895433)
(9.5615791e-47 9.532139e-17 -0.022895433)
(2.1184212e-17 -9.5539751e-32 -0.022895433)
(-2.5211315e-21 1.2605657e-21 -0.022895433)
(-3.1772536e-17 3.1775057e-17 -0.022895433)
(6.3548854e-17 1.2605657e-21 -0.022895433)
(6.3547501e-17 3.1774999e-17 -0.0228954)
(-1.27095e-16 -3.1774999e-17 -0.0228954)
(-6.3547501e-17 -1.2490009e-21 -0.0228954)
(9.5320002e-17 -3.8582419e-32 -0.0228954)
(9.5318869e-17 2.5211315e-21 -0.022895433)
(4.2365062e-17 -1.2605657e-21 -0.022895433)
(-2.1182531e-17 6.3028286e-22 -0.022895433)
(-3.1773797e-17 3.1775057e-17 -0.022895433)
(3.1772536e-17 3.1773166e-17 -0.022895433)
(1.2490009e-21 3.1774999e-17 -0.0228954)
(-2.4803564e-32 -1.2490009e-21 -0.0228954)
(-6.2450045e-22 1.2490009e-21 -0.0228954)
(-3.1771877e-17 1.2709375e-16 -0.0228954)
(3.1774999e-17 3.1772501e-17 -0.0228954)
(3.1771275e-17 -2.7565936e-33 -0.022895433)
(1.6807543e-21 -6.3548223e-17 -0.022895433)
(4.2363381e-17 -3.1773797e-17 -0.022895433)
(3.1771275e-17 -1.102375e-32 -0.022895433)
(-3.1774999e-17 -3.1774063e-17 -0.0228954)
(3.177375e-17 -3.1774375e-17 -0.0228954)
(3.1773438e-17 3.177375e-17 -0.0228954)
(-3.1225023e-22 4.0625085e-38 -0.0228954)
(-3.1774999e-17 3.1225023e-22 -0.0228954)
(-3.1772501e-17 3.1773438e-17 -0.0228954)
(-1.3541695e-38 3.1225023e-22 -0.0228954)
(-5.0422629e-21 -3.1773797e-17 -0.022895433)
(1.837289e-33 6.3547501e-17 -0.0228954)
(-3.177375e-17 -3.177375e-17 -0.0228954)
(-2.4980018e-21 -6.3547188e-17 -0.0228954)
(6.3547501e-17 3.1773126e-17 -0.0228954)
(3.1773438e-17 -3.1225023e-22 -0.0228954)
(-3.1774063e-17 -3.1225023e-22 -0.0228954)
(-1.2490009e-21 -6.2450045e-22 -0.0228954)
(3.177375e-17 -6.2450045e-22 -0.0228954)
(-3.1776318e-17 3.1774112e-17 -0.022895433)
(-2.1185893e-17 3.1773797e-17 -0.022895433)
(-2.1184166e-17 -3.1773126e-17 -0.0228954)
(-9.5323749e-17 3.1772501e-17 -0.0228954)
(3.177375e-17 -7.1654272e-32 -0.0228954)
(9.5321875e-17 -6.0630646e-32 -0.0228954)
(3.1225023e-22 3.1774375e-17 -0.0228954)
(-2.1666712e-37 3.1772501e-17 -0.0228954)
(-3.1773126e-17 3.1774375e-17 -0.0228954)
(1.2605657e-21 -6.3548223e-17 -0.022895433)
(3.1771275e-17 6.3028286e-22 -0.022895433)
(-3.6745834e-33 3.1773797e-17 -0.022895433)
(4.2366743e-17 -6.3547593e-17 -0.022895433)
(2.4980018e-21 -1.6535168e-32 -0.0228954)
(-3.177375e-17 3.177375e-17 -0.0228954)
(9.5321251e-17 -3.1774999e-17 -0.0228954)
(6.3547501e-17 1.2490009e-21 -0.0228954)
(-3.1773438e-17 1.2490009e-21 -0.0228954)
(-9.532202e-17 -6.3547593e-17 -0.022895433)
(2.5211315e-21 1.2605657e-21 -0.022895433)
(6.3550114e-17 -6.3547593e-17 -0.022895433)
(3.3923481e-21 -3.1771299e-17 -0.022895467)
(2.1182531e-17 3.1776318e-17 -0.022895433)
(-2.5211315e-21 -3.1773797e-17 -0.022895433)
(-1.2605657e-21 3.1776318e-17 -0.022895433)
(6.3546963e-17 -2.5211315e-21 -0.022895433)
(3.177375e-17 -6.3549999e-17 -0.0228954)
(-6.3547593e-17 -6.3550114e-17 -0.022895433)
(-3.1773166e-17 -3.1773797e-17 -0.022895433)
(-1.2605657e-21 3.1773797e-17 -0.022895433)
(-8.8191012e-32 -2.5442611e-21 -0.022895467)
(2.1184258e-17 2.5442611e-21 -0.022895467)
(-1.6807543e-21 2.1185893e-17 -0.022895433)
(-2.5211315e-21 1.6807543e-21 -0.022895433)
(1.2605657e-21 2.1184212e-17 -0.022895433)
(-6.3028286e-22 3.3615086e-21 -0.022895433)
(3.1514143e-22 -2.1182531e-17 -0.022895433)
(-3.1514143e-22 -2.1182531e-17 -0.022895433)
(1.1022438e-32 2.118085e-17 -0.022895433)
(3.1775115e-17 1.4698355e-32 -0.022895467)
(3.1773843e-17 4.236682e-17 -0.022895467)
(1.6961741e-21 2.1184258e-17 -0.022895467)
(7.9774443e-33 2.1212014e-17 -0.0229191)
(-4.1093757e-51 3.793262e-21 -0.0229191)
(3.1806641e-17 3.793262e-21 -0.0229191)
(-2.8449465e-21 -7.586524e-21 -0.0229191)
(5e-08 -7.5547207e-21 -0.02291905)
(5e-08 2.1196787e-17 -0.02291905)
(-5e-08 2.1189124e-17 -0.02291905)
(-5e-08 3.3333333e-08 -0.02291905)
(-6.360747e-17 4.2408762e-17 -0.02291905)
(-2.895164e-32 4.240498e-17 -0.02291905)
(-2.1204427e-17 -3.1806641e-17 -0.0229191)
(-3.1800951e-17 3.1789571e-17 -0.0229191)
(3.181802e-17 -3.1800951e-17 -0.0229191)
(2.8449465e-21 -3.1800951e-17 -0.0229191)
(5e-08 5e-08 -0.02291905)
(5e-08 6.3618906e-17 -0.02291905)
(-1.1037101e-32 -5.7072402e-21 -0.02291905)
(-5e-08 5e-08 -0.02291905)
(-5e-08 -6.3613125e-17 -0.02291905)
(-4.4143213e-32 3.1800951e-17 -0.0229191)
(4.2401268e-17 -5.689893e-21 -0.0229191)
(1.7069679e-20 -2.8449465e-21 -0.0229191)
(-3.181802e-17 3.1795261e-17 -0.0229191)
(5e-08 5e-08 -0.02291905)
(5e-08 5e-08 -0.02291905)
(-7.1123663e-22 6.4771981e-33 -0.022919)
(-9.5421141e-17 5.7072402e-21 -0.02291905)
(-5e-08 8.6736174e-24 -0.02291905)
(-5e-08 -3.1812183e-17 -0.02291905)
(6.3613143e-17 3.1809408e-17 -0.02291905)
(-2.120822e-17 3.1806641e-17 -0.0229191)
(-1.1379786e-20 -3.1816598e-17 -0.0229191)
(5e-08 5e-08 -0.02291905)
(5e-08 5e-08 -0.02291905)
(3.1806502e-17 4.2674198e-21 -0.022919)
(2.8449465e-21 -6.3618694e-17 -0.022919)
(-5.689893e-21 5.689893e-21 -0.022919)
(-5e-08 4.284767e-21 -0.02291905)
(-5e-08 5e-08 -0.02291905)
(4.240498e-17 4.2544093e-21 -0.02291905)
(3.7585675e-21 5e-08 -0.02291905)
(5e-08 5e-08 -0.02291905)
(5e-08 5e-08 -0.02291905)
(-3.1809347e-17 1.4224733e-21 -0.022919)
(7.1123663e-22 -3.1807213e-17 -0.022919)
(2.1337099e-21 -3.1806502e-17 -0.022919)
(-3.1800812e-17 -9.5420217e-17 -0.022919)
(3.1803718e-17 -9.5419e-17 -0.02291905)
(-5e-08 -5.2939559e-23 -0.02291905)
(-3.3333333e-08 -6.3613119e-17 -0.02291905)
(-2.1204403e-17 5e-08 -0.02291905)
(3.1806543e-17 5e-08 -0.02291905)
(3.1812192e-17 -3.1807924e-17 -0.022919)
(-3.1807924e-17 2.8449465e-21 -0.022919)
(7.1123663e-22 3.1808636e-17 -0.022919)
(-6.3610159e-17 2.8449465e-21 -0.022919)
(-6.3605891e-17 3.1808636e-17 -0.022919)
(-5e-08 -5e-08 -0.02291905)
(-5e-08 -5e-08 -0.02291905)
(1.5173048e-20 6.3613281e-17 -0.0229191)
(-4.2404925e-17 -5e-08 -0.02291905)
(-6.3607435e-17 3.1812279e-17 -0.02291905)
(-5.7072402e-21 -6.3613143e-17 -0.02291905)
(3.1805079e-17 -2.8449465e-21 -0.022919)
(-7.1123663e-22 3.1803657e-17 -0.022919)
(1.4224733e-21 3.1812192e-17 -0.022919)
(-5e-08 -5e-08 -0.02291905)
(-5e-08 -5e-08 -0.02291905)
(3.181802e-17 -3.1809486e-17 -0.0229191)
(4.240884e-17 -5e-08 -0.0229191)
(3.3333333e-08 -5e-08 -0.02291905)
(5e-08 -5e-08 -0.02291905)
(-5.689893e-21 -5e-08 -0.02291905)
(6.3614569e-17 -5e-08 -0.02291905)
(3.1806571e-17 -3.1812279e-17 -0.02291905)
(-5e-08 -5e-08 -0.02291905)
(-5e-08 -5e-08 -0.02291905)
(-8.5348395e-21 -6.3616126e-17 -0.0229191)
(-5e-08 -5e-08 -0.02291915)
(-3.3333333e-08 -5e-08 -0.02291915)
(-3.7816972e-21 3.1806571e-17 -0.02291905)
(5.6725458e-21 -5e-08 -0.02291905)
(3.1803744e-17 -5e-08 -0.02291905)
(5e-08 -5e-08 -0.02291905)
(-3.1805841e-17 -5e-08 -0.02291905)
(-5e-08 -5e-08 -0.02291905)
(-3.1806641e-17 6.3618971e-17 -0.0229191)
(-5e-08 -5e-08 -0.02291915)
(-5e-08 -5e-08 -0.02291915)
(2.119691e-17 -6.3624765e-17 -0.02291915)
(1.0839195e-32 2.1196817e-17 -0.02291905)
(1.1379786e-20 2.1193047e-17 -0.0229191)
(-8.5088186e-21 2.1200599e-17 -0.02291905)
(-3.1806571e-17 -3.7816972e-21 -0.02291905)
(-3.1807251e-17 -3.3333333e-08 -0.02291905)
(3.1808774e-17 7.586524e-21 -0.0229191)
(-5e-08 7.6096536e-21 -0.0229191)
(-5e-08 -3.3333333e-08 -0.02291915)
(-6.3619093e-17 4.2397602e-17 -0.02291915)
(-4.2412833e-17 -2.1208313e-17 -0.0229192)
(-4.2477156e-17 -9.824816e-33 -0.02296285)
(-3.1876845e-17 2.1257556e-17 -0.02296285)
(3.1876758e-17 -2.1244858e-17 -0.0229628)
(5e-08 -2.1232255e-17 -0.0229628)
(5e-08 2.125745e-17 -0.02296275)
(-4.7357951e-21 6.3747202e-17 -0.0229628)
(-4.7357951e-21 2.127643e-17 -0.0229628)
(3.1862473e-17 2.1251137e-17 -0.02296275)
(6.3696548e-17 -2.1232183e-17 -0.0229628)
(2.1232198e-17 -3.3333333e-08 -0.0229628)
(-2.1244904e-17 -3.1867356e-17 -0.02296285)
(-6.3763179e-17 3.1867356e-17 -0.02296285)
(-3.188623e-17 3.1867287e-17 -0.0229628)
(5e-08 5e-08 -0.0229628)
(5e-08 1.7347235e-23 -0.02296275)
(4.7336267e-21 5e-08 -0.0229628)
(-6.3734573e-17 1.894318e-20 -0.0229628)
(-3.1867287e-17 -1.1056186e-32 -0.0229628)
(-5e-08 -6.3763092e-17 -0.0229628)
(-3.3333333e-08 -3.1848362e-17 -0.0229628)
(1.2628787e-20 -6.371563e-17 -0.0229628)
(3.1838872e-17 3.1867287e-17 -0.0229628)
(5e-08 5e-08 -0.0229628)
(5e-08 5e-08 -0.02296275)
(5e-08 5e-08 -0.02296275)
(2.3618942e-21 5e-08 -0.02296275)
(-5e-08 5e-08 -0.02296275)
(-3.1857815e-17 -3.1872022e-17 -0.0229628)
(3.1867217e-17 5.528081e-32 -0.02296275)
(4.2489704e-17 5e-08 -0.0229628)
(4.2502324e-17 5e-08 -0.0229628)
(5e-08 5e-08 -0.0229628)
(5e-08 5e-08 -0.02296275)
(5e-08 5e-08 -0.0229628)
(5e-08 5e-08 -0.02296275)
(-4.7444687e-21 3.1876706e-17 -0.02296275)
(-5e-08 5e-08 -0.02296275)
(-5e-08 6.3734551e-17 -0.0229628)
(9.4889374e-21 -2.3722344e-21 -0.02296275)
(-6.3375231e-21 -3.1874416e-17 -0.0229628)
(-4.2495936e-17 5e-08 -0.02296275)
(-3.1876736e-17 5e-08 -0.02296275)
(5e-08 5e-08 -0.02296275)
(5e-08 5e-08 -0.02296275)
(1.0269119e-37 2.3678975e-21 -0.0229627)
(-3.1871884e-17 -1.3822226e-33 -0.0229627)
(-5e-08 -6.3734437e-17 -0.02296275)
(-5e-08 3.1867282e-17 -0.0229628)
(-6.3706158e-17 3.1864919e-17 -0.0229628)
(2.1244882e-17 -5e-08 -0.0229628)
(-4.249603e-17 -1.0861782e-32 -0.0229628)
(5e-08 6.3736917e-17 -0.0229628)
(5e-08 6.373677e-17 -0.02296275)
(-3.1862473e-17 -4.7444687e-21 -0.02296275)
(-3.1867148e-17 -4.7357951e-21 -0.0229627)
(-6.3741399e-17 -7.1036926e-21 -0.0229627)
(-5e-08 -5e-08 -0.02296275)
(-5e-08 -6.3733381e-17 -0.0229628)
(-5e-08 -5e-08 -0.0229628)
(-3.3333333e-08 -5e-08 -0.0229628)
(6.3143935e-21 -6.3727469e-17 -0.0229628)
(3.1867287e-17 3.1857815e-17 -0.0229628)
(5e-08 -5e-08 -0.02296275)
(5e-08 -5e-08 -0.02296275)
(-2.1684043e-24 -5e-08 -0.02296275)
(-5e-08 -5e-08 -0.02296275)
(-5e-08 -5e-08 -0.0229628)
(-5e-08 -5e-08 -0.0229628)
(-5e-08 -1e-07 -0.02296285)
(-6.3288495e-21 -5e-08 -0.02296285)
(2.1257463e-17 3.1848239e-17 -0.02296275)
(3.1857815e-17 -2.8414771e-20 -0.0229628)
(1.894318e-20 -6.3744045e-17 -0.0229628)
(-4.7401319e-21 -5e-08 -0.0229628)
(-1.1709383e-21 -5e-08 -0.0229628)
(2.3505503e-21 -5e-08 -0.0229628)
(-5e-08 -5e-08 -0.0229628)
(-1e-07 -1e-07 -0.02296285)
(-5e-08 -5e-08 -0.0229629)
(-2.1232241e-17 -5e-08 -0.02296285)
(-2.1232183e-17 6.3706054e-17 -0.0229628)
(-6.3725032e-17 -5e-08 -0.0229628)
(-3.1848239e-17 -3.1867217e-17 -0.02296275)
(3.1852984e-17 -1.1053693e-32 -0.02296275)
(-2.3678975e-21 3.1857815e-17 -0.0229628)
(-5e-08 -5e-08 -0.0229628)
(-1e-07 -5e-08 -0.02296285)
(-5e-08 -5e-08 -0.0229629)
(-6.3725223e-17 -3.18294e-17 -0.02296285)
(1.2698176e-20 -5e-08 -0.0229629)
(-3.3333333e-08 -2.3129646e-23 -0.0229628)
(-6.3753469e-17 -3.3333333e-08 -0.0229628)
(5e-08 -1.1564823e-23 -0.0229628)
(6.373695e-17 2.123852e-17 -0.0229628)
(-5e-08 2.1251228e-17 -0.0229628)
(-5e-08 -3.3333333e-08 -0.0229628)
(-5e-08 2.1232275e-17 -0.02296285)
(-5e-08 -2.1244864e-17 -0.02296285)
(-5e-08 2.5384787e-20 -0.0229629)
(-3.3333333e-08 -3.3333333e-08 -0.0229629)
(-2.1323221e-17 -2.130555e-17 -0.0230284)
(5e-08 -8.8355249e-21 -0.0230284)
(5e-08 2.1296633e-17 -0.02302835)
(5e-08 2.1305478e-17 -0.02302835)
(5e-08 2.1296642e-17 -0.02302835)
(3.3176586e-21 4.260216e-17 -0.02302835)
(6.3916511e-17 4.2593313e-17 -0.02302835)
(-5e-08 4.0476881e-23 -0.02302835)
(-5e-08 2.130555e-17 -0.0230284)
(-2.1279043e-17 2.1270208e-17 -0.0230284)
(8.8123953e-21 5e-08 -0.0230284)
(5e-08 5e-08 -0.02302835)
(5e-08 -1.3287982e-20 -0.02302835)
(5e-08 5e-08 -0.0230283)
(5e-08 5e-08 -0.0230283)
(3.1954899e-17 5e-08 -0.0230283)
(2.6020852e-23 5e-08 -0.0230283)
(-5e-08 -1.7347235e-23 -0.02302835)
(-5e-08 5e-08 -0.0230284)
(-2.1305504e-17 3.1944985e-17 -0.02302835)
(4.2602131e-17 5e-08 -0.02302835)
(3.1971517e-17 5e-08 -0.02302835)
(5e-08 5e-08 -0.0230283)
(1e-07 5e-08 -0.02302835)
(5e-08 5e-08 -0.0230283)
(-1.6696713e-21 5e-08 -0.02302835)
(-5e-08 5e-08 -0.0230283)
(-5e-08 -3.1944985e-17 -0.02302835)
(-5e-08 5e-08 -0.02302835)
(-3.3333333e-08 3.1971567e-17 -0.0230284)
(-4.261984e-17 5e-08 -0.02302835)
(5e-08 5e-08 -0.0230283)
(5e-08 1e-07 -0.02302835)
(5e-08 5e-08 -0.0230283)
(5e-08 5e-08 -0.0230283)
(-6.3913061e-17 5e-08 -0.0230283)
(-5e-08 -6.3916494e-17 -0.02302835)
(-5e-08 -3.1971517e-17 -0.02302835)
(-5e-08 9.5878028e-17 -0.02302835)
(-3.3333333e-08 -3.1955017e-17 -0.0230284)
(-6.3907629e-17 5e-08 -0.02302835)
(5e-08 5e-08 -0.0230283)
(5e-08 5e-08 -0.0230283)
(5e-08 5e-08 -0.0230283)
(5e-08 5e-08 -0.0230283)
(-5e-08 5e-08 -0.0230283)
(-1e-07 -3.1958247e-17 -0.02302835)
(-5e-08 -3.1958258e-17 -0.02302835)
(-5e-08 -5e-08 -0.0230284)
(-3.3333333e-08 -6.3916661e-17 -0.0230284)
(-2.1287809e-17 -3.1959914e-17 -0.02302835)
(5e-08 3.1956506e-17 -0.0230283)
(5e-08 3.1954927e-17 -0.02302835)
(5e-08 3.19648e-17 -0.0230283)
(5e-08 -5e-08 -0.0230283)
(-5e-08 -5e-08 -0.0230283)
(-1e-07 -5e-08 -0.02302835)
(-1e-07 -5e-08 -0.02302835)
(-5e-08 -1e-07 -0.0230284)
(-2.132328e-17 -5e-08 -0.0230284)
(-2.1314351e-17 -6.3919829e-17 -0.02302835)
(5e-08 3.1964761e-17 -0.0230283)
(5e-08 -5e-08 -0.0230283)
(9.9616496e-21 -5e-08 -0.02302835)
(-3.1958238e-17 -1e-07 -0.02302835)
(-5e-08 -1e-07 -0.02302835)
(-1e-07 -1e-07 -0.02302835)
(-1e-07 -1e-07 -0.0230284)
(-5e-08 -1e-07 -0.0230284)
(8.8413073e-21 -1e-07 -0.02302845)
(4.2593319e-17 -5e-08 -0.02302835)
(3.1971569e-17 -5e-08 -0.02302835)
(-3.1978179e-17 -5e-08 -0.02302835)
(6.3919811e-17 -5e-08 -0.02302835)
(6.3918155e-17 -5e-08 -0.02302835)
(-5e-08 -1e-07 -0.02302835)
(-1e-07 -1e-07 -0.0230284)
(-1e-07 -1e-07 -0.02302845)
(-5e-08 -5e-08 -0.0230284)
(-8.8586546e-21 -1e-07 -0.02302845)
(-2.1314374e-17 -5e-08 -0.0230284)
(5e-08 -5e-08 -0.0230284)
(5e-08 -5e-08 -0.02302835)
(3.1964886e-17 -5e-08 -0.02302835)
(-5e-08 -5e-08 -0.0230284)
(-1e-07 -5e-08 -0.0230284)
(-1e-07 -5e-08 -0.0230284)
(-5e-08 -5e-08 -0.0230284)
(-5e-08 -5e-08 -0.02302845)
(-3.3333333e-08 -5e-08 -0.0230285)
(-4.4298011e-33 -2.1314385e-17 -0.0230284)
(1.3270635e-20 -1.7694179e-20 -0.02302835)
(-1.9903061e-20 -3.3333333e-08 -0.0230284)
(6.3916632e-17 -3.3333333e-08 -0.0230284)
(6.3919963e-17 -3.3333333e-08 -0.0230284)
(-5e-08 4.2602206e-17 -0.0230284)
(-1e-07 2.132329e-17 -0.02302845)
(-1e-07 -1.1564823e-23 -0.02302845)
(-5e-08 -3.3333333e-08 -0.0230285)
(8.8470897e-21 -2.1314443e-17 -0.02302845)
(2.1420389e-17 2.2713313e-20 -0.0231157)
(5e-08 3.3333333e-08 -0.0231157)
(5e-08 2.14204e-17 -0.0231157)
(5e-08 3.3333333e-08 -0.0231157)
(5e-08 3.3333333e-08 -0.0231157)
(2.1206994e-21 3.3333333e-08 -0.0231157)
(3.209222e-17 3.3333333e-08 -0.0231157)
(-5e-08 2.2788484e-20 -0.02311575)
(-5e-08 2.1363628e-17 -0.0231157)
(2.1340892e-17 2.2713313e-20 -0.0231157)
(3.3333333e-08 5e-08 -0.0231157)
(5e-08 5e-08 -0.0231157)
(5e-08 5e-08 -0.0231157)
(1e-07 5e-08 -0.02311565)
(5e-08 5e-08 -0.02311565)
(-3.208368e-17 5e-08 -0.02311565)
(-5e-08 5e-08 -0.0231157)
(-1e-07 -6.4141921e-17 -0.0231157)
(-5e-08 5e-08 -0.0231157)
(-1.1368221e-20 -3.2062495e-17 -0.02311575)
(4.2761269e-17 5e-08 -0.0231157)
(5e-08 5e-08 -0.0231157)
(5e-08 5e-08 -0.02311565)
(5e-08 5e-08 -0.0231157)
(5e-08 5e-08 -0.0231157)
(-9.6240552e-17 5e-08 -0.0231157)
(-5e-08 -1.3010426e-23 -0.0231157)
(-5e-08 -8.5088186e-21 -0.0231157)
(-5e-08 5e-08 -0.02311575)
(-3.3333333e-08 3.205396e-17 -0.0231157)
(3.3333333e-08 5e-08 -0.0231157)
(5e-08 1e-07 -0.02311565)
(5e-08 5e-08 -0.0231157)
(1e-07 1e-07 -0.02311565)
(5e-08 5e-08 -0.02311565)
(-5e-08 5e-08 -0.02311565)
(-1e-07 6.4154706e-17 -0.0231157)
(-5e-08 9.6268202e-17 -0.0231157)
(-5e-08 -5e-08 -0.02311575)
(-3.3333333e-08 3.2075278e-17 -0.02311575)
(3.3333333e-08 5e-08 -0.0231157)
(5e-08 5e-08 -0.02311565)
(5e-08 5e-08 -0.0231157)
(5e-08 5e-08 -0.02311565)
(-3.2081536e-17 -6.4160944e-17 -0.02311565)
(-5e-08 -3.2081605e-17 -0.0231157)
(-1e-07 8.6736174e-24 -0.0231157)
(-1e-07 2.1293731e-21 -0.0231157)
(-5e-08 -5e-08 -0.02311575)
(2.1420481e-17 -5e-08 -0.02311575)
(3.3333333e-08 -2.1033522e-21 -0.0231157)
(5e-08 3.2077281e-17 -0.02311565)
(5e-08 2.1402151e-21 -0.0231157)
(5e-08 -5e-08 -0.02311565)
(-2.1228679e-21 -5e-08 -0.0231157)
(-5e-08 -5e-08 -0.0231157)
(-1e-07 -5e-08 -0.02311575)
(-1e-07 -5e-08 -0.02311575)
(-1e-07 -5e-08 -0.02311575)
(-3.3333333e-08 -1e-07 -0.0231158)
(3.3333333e-08 -8.5174923e-21 -0.0231157)
(5e-08 -5e-08 -0.0231157)
(3.2053882e-17 -5e-08 -0.0231157)
(6.4150438e-17 -1e-07 -0.0231157)
(-6.4158947e-17 -1e-07 -0.0231157)
(-5e-08 -1e-07 -0.02311575)
(-1e-07 -1e-07 -0.02311575)
(-1e-07 -1.5e-07 -0.02311575)
(-1e-07 -1e-07 -0.0231158)
(-3.3333333e-08 -1e-07 -0.0231158)
(4.2784133e-17 -5e-08 -0.02311575)
(-1.7347235e-23 -1e-07 -0.0231157)
(-6.4150482e-17 -5e-08 -0.0231157)
(6.4163206e-17 -5e-08 -0.0231157)
(6.4163197e-17 -1e-07 -0.0231157)
(-5e-08 -1e-07 -0.02311575)
(-1.5e-07 -1e-07 -0.02311575)
(-1e-07 -1e-07 -0.0231158)
(-5e-08 -1e-07 -0.0231158)
(-3.3333333e-08 -1e-07 -0.02311585)
(-2.2690183e-20 -5e-08 -0.0231157)
(5e-08 -5e-08 -0.0231157)
(5e-08 -5e-08 -0.02311575)
(-5e-08 -5e-08 -0.02311575)
(-5e-08 -5e-08 -0.02311575)
(-5e-08 -1e-07 -0.02311575)
(-1e-07 -1e-07 -0.0231158)
(-1e-07 -5e-08 -0.0231158)
(-1e-07 -1e-07 -0.02311585)
(-3.3333333e-08 -5e-08 -0.02311585)
(2.1374962e-17 9.4218139e-33 -0.0231157)
(-3.2062495e-17 2.1409101e-17 -0.02311575)
(-3.2070995e-17 -3.3333333e-08 -0.0231157)
(3.2088062e-17 -3.3333333e-08 -0.02311575)
(-5e-08 2.1363617e-17 -0.02311575)
(-1e-07 -3.3333333e-08 -0.0231158)
(-1e-07 -3.3333333e-08 -0.0231158)
(-1e-07 -3.3333333e-08 -0.02311585)
(-5e-08 -3.3333333e-08 -0.02311585)
(-1.1368221e-20 -2.1352353e-17 -0.02311585)
(2.1445623e-17 -5.5511151e-20 -0.0232248)
(5e-08 2.7709316e-20 -0.0232248)
(5e-08 -4.1679623e-20 -0.0232248)
(5e-08 3.3333333e-08 -0.0232248)
(5e-08 3.3333333e-08 -0.0232248)
(-5.2113984e-21 3.3333333e-08 -0.02322475)
(-5e-08 2.7781596e-20 -0.0232248)
(-5e-08 3.3333333e-08 -0.02322485)
(3.2168435e-17 -2.1473379e-17 -0.0232248)
(2.7801835e-20 -3.3333333e-08 -0.02322485)
(2.1528844e-17 5e-08 -0.0232248)
(5e-08 5e-08 -0.0232248)
(1e-07 5e-08 -0.0232248)
(1e-07 5e-08 -0.0232248)
(5e-08 5e-08 -0.0232248)
(-5e-08 5e-08 -0.0232248)
(-5e-08 5e-08 -0.0232248)
(-5e-08 5e-08 -0.0232248)
(-1e-07 -3.2334899e-17 -0.0232248)
(-3.3333333e-08 -4.1670859e-20 -0.02322485)
(2.7720881e-20 5e-08 -0.0232248)
(5e-08 1e-07 -0.0232248)
(5e-08 5e-08 -0.0232248)
(5e-08 5e-08 -0.02322475)
(5e-08 5e-08 -0.02322475)
(5.2150124e-21 5e-08 -0.02322475)
(-5e-08 5e-08 -0.0232248)
(-1e-07 1.0460383e-20 -0.0232248)
(-5e-08 3.2189355e-17 -0.02322485)
(2.1459524e-17 2.0856086e-20 -0.02322485)
(3.3333333e-08 5e-08 -0.0232248)
(5e-08 1e-07 -0.0232248)
(5e-08 5e-08 -0.02322475)
(1e-07 1e-07 -0.02322475)
(5e-08 1e-07 -0.0232248)
(-5e-08 5e-08 -0.0232248)
(-1e-07 3.2241276e-17 -0.0232248)
(-1e-07 3.2194455e-17 -0.0232248)
(-1e-07 3.2241284e-17 -0.02322485)
(-3.3333333e-08 -5e-08 -0.02322485)
(3.3333333e-08 5e-08 -0.0232248)
(5e-08 5e-08 -0.0232248)
(5e-08 5e-08 -0.02322475)
(1e-07 5e-08 -0.0232248)
(3.2233434e-17 3.2233441e-17 -0.02322475)
(-1e-07 2.5999168e-21 -0.02322475)
(-1e-07 -5e-08 -0.0232248)
(-1e-07 -5e-08 -0.0232248)
(-1e-07 -5e-08 -0.02322485)
(-3.3333333e-08 -5e-08 -0.0232249)
(3.3333333e-08 -8.6736174e-24 -0.02322475)
(5e-08 -5e-08 -0.0232248)
(5e-08 -2.5869064e-21 -0.02322475)
(5e-08 -5e-08 -0.0232248)
(3.2233415e-17 -1e-07 -0.02322475)
(-1e-07 -1e-07 -0.0232248)
(-1.5e-07 -1e-07 -0.02322485)
(-1e-07 -1e-07 -0.0232249)
(-1e-07 -1.5e-07 -0.0232249)
(-3.3333333e-08 -1e-07 -0.0232249)
(-5.7824116e-24 -5e-08 -0.0232248)
(5e-08 -5e-08 -0.0232248)
(5e-08 -5e-08 -0.0232248)
(1.0417014e-20 -1e-07 -0.0232248)
(-5e-08 -1e-07 -0.0232248)
(-1e-07 -1.5e-07 -0.02322485)
(-1e-07 -1e-07 -0.0232249)
(-1.5e-07 -1.5e-07 -0.0232249)
(-1e-07 -1.5e-07 -0.02322495)
(2.1459579e-17 -1.5e-07 -0.02322495)
(3.3333333e-08 -5e-08 -0.02322485)
(5e-08 -5e-08 -0.0232248)
(-9.6682211e-17 -1e-07 -0.0232248)
(3.2210051e-17 -1e-07 -0.0232248)
(-5e-08 -1e-07 -0.0232248)
(-1e-07 -1e-07 -0.0232249)
(-1.5e-07 -1.5e-07 -0.0232249)
(-1.5e-07 -1.5e-07 -0.0232249)
(-1e-07 -1e-07 -0.02322495)
(-3.3333333e-08 -1.5e-07 -0.02322495)
(5.5511151e-20 3.2272518e-17 -0.0232248)
(-6.4503403e-17 -1e-07 -0.0232248)
(-3.2189347e-17 -5e-08 -0.02322485)
(-3.4694469e-23 -1e-07 -0.02322485)
(-5e-08 -1e-07 -0.02322485)
(-1.5e-07 -1e-07 -0.0232249)
(-1.5e-07 -1e-07 -0.02322495)
(-1e-07 -1e-07 -0.02322495)
(-1e-07 -1e-07 -0.023225)
(-3.3333333e-08 -5e-08 -0.02322495)
(-3.3333333e-08 -2.1445635e-17 -0.02322485)
(-3.2272355e-17 -3.3333333e-08 -0.02322485)
(-3.2220636e-17 2.7732446e-20 -0.02322485)
(-5e-08 -3.3333333e-08 -0.02322485)
(-5e-08 -3.3333333e-08 -0.0232249)
(-1e-07 -3.3333333e-08 -0.0232249)
(-1.5e-07 2.1487387e-17 -0.02322495)
(-1.5e-07 -3.3333333e-08 -0.02322495)
(-5e-08 -3.3333333e-08 -0.02322495)
(-1.3877788e-20 -4.1633363e-20 -0.023225)
(1.637579e-20 3.2751579e-20 -0.0233556)
(5e-08 3.3333333e-08 -0.0233556)
(5e-08 1.635266e-20 -0.0233556)
(5e-08 3.3333333e-08 -0.02335555)
(1e-07 3.3333333e-08 -0.02335555)
(6.1162068e-21 2.1559039e-17 -0.02335555)
(-1e-07 3.3333333e-08 -0.0233556)
(-5e-08 3.3333333e-08 -0.0233556)
(-5e-08 -2.3129646e-23 -0.02335565)
(-3.3333333e-08 2.1575589e-17 -0.02335565)
(3.3333333e-08 5e-08 -0.0233556)
(5e-08 5e-08 -0.02335555)
(5e-08 5e-08 -0.0233556)
(1e-07 1e-07 -0.0233556)
(5e-08 1e-07 -0.0233556)
(-9.2200553e-21 5e-08 -0.0233556)
(-5e-08 5e-08 -0.02335555)
(-1e-07 5e-08 -0.02335565)
(-1e-07 7.3743095e-20 -0.02335565)
(-3.3333333e-08 2.4604161e-20 -0.02335565)
(2.157549e-17 5e-08 -0.0233556)
(5e-08 5e-08 -0.0233556)
(1e-07 1e-07 -0.0233556)
(1e-07 1e-07 -0.02335555)
(5e-08 5e-08 -0.02335555)
(-5e-08 5e-08 -0.02335555)
(-1e-07 2.4589705e-20 -0.0233556)
(-1e-07 3.238786e-17 -0.0233556)
(-1e-07 2.4581032e-20 -0.02335565)
(-3.3333333e-08 3.2375691e-17 -0.02335565)
(3.3333333e-08 5e-08 -0.02335555)
(1e-07 1e-07 -0.0233556)
(1e-07 1e-07 -0.02335555)
(5e-08 5e-08 -0.02335555)
(-3.241539e-17 5e-08 -0.02335555)
(-5e-08 5e-08 -0.0233556)
(-1e-07 3.2400142e-17 -0.0233556)
(-1e-07 6.4849497e-17 -0.02335565)
(-1e-07 -5e-08 -0.02335565)
(-3.3333333e-08 -5e-08 -0.02335565)
(3.3333333e-08 1e-07 -0.02335555)
(1e-07 5e-08 -0.0233556)
(5e-08 5e-08 -0.02335555)
(5e-08 -3.2415396e-17 -0.02335555)
(5e-08 5e-08 -0.0233556)
(-1e-07 -3.9704669e-23 -0.02335555)
(-1.5e-07 -5e-08 -0.0233556)
(-1.5e-07 -1e-07 -0.02335565)
(-1.5e-07 -1e-07 -0.0233557)
(-3.3333333e-08 -1e-07 -0.0233557)
(2.1575404e-17 3.2421523e-17 -0.02335555)
(5e-08 3.2412408e-17 -0.0233556)
(5e-08 -5e-08 -0.02335555)
(5e-08 -5e-08 -0.0233556)
(-6.6174449e-24 -1e-07 -0.02335555)
(-1.5e-07 -1.5e-07 -0.0233556)
(-2e-07 -1.5e-07 -0.0233556)
(-1.5e-07 -1.5e-07 -0.02335565)
(-1e-07 -1.5e-07 -0.0233557)
(-3.3333333e-08 -1.5e-07 -0.0233557)
(3.3333333e-08 -1e-07 -0.0233556)
(5e-08 -5e-08 -0.02335555)
(-3.238786e-17 -1e-07 -0.0233556)
(-1.2247148e-20 -1e-07 -0.0233556)
(-5e-08 -1.5e-07 -0.0233556)
(-1.5e-07 -2e-07 -0.0233556)
(-1.5e-07 -1.5e-07 -0.02335565)
(-1.5e-07 -1.5e-07 -0.02335575)
(-1.5e-07 -1.5e-07 -0.0233557)
(-3.3333333e-08 -1.5e-07 -0.02335575)
(3.3333333e-08 -5e-08 -0.0233556)
(5e-08 -1e-07 -0.02335565)
(3.240009e-17 -1e-07 -0.0233556)
(6.4855643e-17 -1e-07 -0.02335565)
(-1e-07 -1.5e-07 -0.02335565)
(-1.5e-07 -1.5e-07 -0.02335565)
(-1.5e-07 -1.5e-07 -0.02335575)
(-1.5e-07 -1.5e-07 -0.02335575)
(-1e-07 -1.5e-07 -0.02335575)
(-3.3333333e-08 -1e-07 -0.02335575)
(2.1575531e-17 -5e-08 -0.02335565)
(-3.2387894e-17 -1e-07 -0.02335565)
(-3.2437091e-17 -1e-07 -0.02335565)
(-5e-08 -1e-07 -0.02335565)
(-1e-07 -1.5e-07 -0.0233557)
(-1.5e-07 -1e-07 -0.0233557)
(-1.5e-07 -1.5e-07 -0.0233557)
(-1.5e-07 -1e-07 -0.02335575)
(-1e-07 -1e-07 -0.02335575)
(2.1624774e-17 -1e-07 -0.02335575)
(1.6348805e-20 -3.3333333e-08 -0.02335565)
(-3.2363313e-17 -3.3333333e-08 -0.02335565)
(-6.4849497e-17 -3.3333333e-08 -0.02335565)
(-5e-08 -3.3333333e-08 -0.02335565)
(-1e-07 -3.3333333e-08 -0.0233557)
(-1.5e-07 -3.3333333e-08 -0.0233557)
(-1.5e-07 -3.3333333e-08 -0.02335575)
(-1e-07 -3.3333333e-08 -0.02335575)
(-1e-07 4.3200409e-17 -0.02335575)
(-3.3333333e-08 -3.3333333e-08 -0.0233558)
(-1.0874635e-17 -1.0855761e-17 -0.023508)
(5e-08 3.3333333e-08 -0.02350795)
(1e-07 -3.7759148e-20 -0.02350795)
(1e-07 2.1711446e-17 -0.02350795)
(5e-08 3.26805e-17 -0.02350795)
(-5e-08 1.0931266e-17 -0.023508)
(-1e-07 3.3333333e-08 -0.023508)
(-1e-07 -1.0855772e-17 -0.023508)
(-5e-08 3.2623973e-17 -0.02350805)
(1.8908486e-20 -3.3333333e-08 -0.02350805)
(3.3333333e-08 5e-08 -0.02350795)
(5e-08 5e-08 -0.023508)
(5e-08 5e-08 -0.02350795)
(1e-07 5e-08 -0.02350795)
(5e-08 5e-08 -0.02350795)
(-8.1559583e-17 5e-08 -0.02350795)
(-1e-07 5e-08 -0.023508)
(-1.5e-07 5e-08 -0.02350805)
(-1e-07 3.268056e-17 -0.02350805)
(-3.3333333e-08 3.2652393e-17 -0.02350805)
(-1.0836899e-17 1e-07 -0.02350795)
(5e-08 5e-08 -0.02350795)
(1e-07 1e-07 -0.02350795)
(1e-07 1e-07 -0.02350795)
(5e-08 1e-07 -0.02350795)
(-5e-08 5e-08 -0.023508)
(-1e-07 8.158807e-17 -0.023508)
(-1.5e-07 1.6297852e-17 -0.02350805)
(-1e-07 -1.6311969e-17 -0.02350805)
(-1.3224375e-19 4.252203e-20 -0.02350805)
(2.1730343e-17 1e-07 -0.02350795)
(5e-08 1e-07 -0.02350795)
(1e-07 1e-07 -0.02350795)
(1e-07 1e-07 -0.02350795)
(4.8935775e-17 5e-08 -0.02350795)
(-1e-07 5e-08 -0.02350795)
(-1.5e-07 1.4190038e-20 -0.023508)
(-1.5e-07 -5e-08 -0.02350805)
(-1e-07 -5e-08 -0.02350805)
(-3.3333333e-08 -1e-07 -0.02350805)
(-5.4316365e-17 5e-08 -0.02350795)
(5e-08 5e-08 -0.02350795)
(1e-07 5e-08 -0.02350795)
(5e-08 -3.3087225e-23 -0.02350795)
(1.6315454e-17 -4.8928678e-17 -0.02350795)
(-1e-07 -3.2620387e-17 -0.023508)
(-2e-07 -5e-08 -0.023508)
(-2e-07 -5e-08 -0.02350805)
(-1.5e-07 -1e-07 -0.02350805)
(-3.3333333e-08 -1e-07 -0.02350805)
(2.180589e-17 -5e-08 -0.023508)
(5e-08 3.2616761e-17 -0.02350795)
(5e-08 -5e-08 -0.023508)
(5e-08 -1e-07 -0.02350795)
(1.6308448e-17 -1e-07 -0.023508)
(-1.5e-07 -1.5e-07 -0.023508)
(-2e-07 -1.5e-07 -0.02350805)
(-2e-07 -2e-07 -0.02350805)
(-1.5e-07 -1.5e-07 -0.0235081)
(-3.3333333e-08 -1.5e-07 -0.0235081)
(3.3333333e-08 -1e-07 -0.023508)
(5e-08 -1e-07 -0.023508)
(1.6241175e-17 -1e-07 -0.023508)
(4.8957097e-17 -1.5e-07 -0.023508)
(-5e-08 -2e-07 -0.023508)
(-1.5e-07 -2e-07 -0.02350805)
(-2.5e-07 -2.5e-07 -0.02350805)
(-2e-07 -2.5e-07 -0.02350815)
(-1e-07 -2e-07 -0.0235081)
(-3.3333333e-08 -2e-07 -0.02350815)
(5.6609809e-20 -1e-07 -0.023508)
(5e-08 -1.5e-07 -0.02350805)
(-1.4150045e-20 -1.5e-07 -0.02350805)
(-5e-08 -1.5e-07 -0.02350805)
(-5e-08 -2e-07 -0.02350805)
(-2e-07 -2e-07 -0.02350805)
(-2.5e-07 -2e-07 -0.02350815)
(-1.5e-07 -1.5e-07 -0.02350815)
(-1e-07 -1.5e-07 -0.0235082)
(-3.3333333e-08 -1.5e-07 -0.02350815)
(-1.8815967e-20 -5e-08 -0.02350805)
(-3.2595645e-17 -1e-07 -0.02350805)
(-3.2609792e-17 -1e-07 -0.02350805)
(-5e-08 -1e-07 -0.02350805)
(-1e-07 -1.5e-07 -0.02350805)
(-1.5e-07 -1.5e-07 -0.0235081)
(-2e-07 -1e-07 -0.0235081)
(-1.5e-07 -1e-07 -0.0235082)
(-1e-07 -1e-07 -0.02350815)
(-3.3333333e-08 -1e-07 -0.0235082)
(-3.3333333e-08 -1.8908486e-20 -0.02350805)
(-3.2680525e-17 -3.3333333e-08 -0.02350805)
(-3.2595571e-17 1.5196844e-33 -0.02350805)
(-1e-07 -3.3333333e-08 -0.02350805)
(-1e-07 -3.3333333e-08 -0.02350805)
(-1.5e-07 -3.3333333e-08 -0.0235081)
(-2e-07 -3.3333333e-08 -0.02350815)
(-1.5e-07 -3.3333333e-08 -0.02350815)
(-1e-07 -3.3333333e-08 -0.0235082)
(-3.3333333e-08 -3.3333333e-08 -0.02350815)
(3.3333333e-08 3.3333333e-08 -0.02368185)
(1e-07 -1.0826872e-17 -0.02368185)
(5e-08 -1.0848238e-17 -0.02368185)
(5e-08 3.3333333e-08 -0.0236819)
(5e-08 3.3333333e-08 -0.0236819)
(-5e-08 3.3333333e-08 -0.0236819)
(-1e-07 3.3333333e-08 -0.0236819)
(-1e-07 -2.1888799e-17 -0.0236819)
(-1e-07 -1.0976463e-17 -0.02368195)
(-3.3333333e-08 -1.0933765e-17 -0.02368195)
(1.0976393e-17 1e-07 -0.02368185)
(5e-08 5e-08 -0.0236819)
(1e-07 5e-08 -0.02368185)
(1e-07 1e-07 -0.02368185)
(5e-08 1e-07 -0.02368185)
(-5e-08 5e-08 -0.02368185)
(-1.5e-07 5e-08 -0.02368195)
(-1.5e-07 -3.2865247e-17 -0.0236819)
(-1e-07 -1.6528775e-17 -0.02368195)
(-3.3333333e-08 -3.2897325e-17 -0.02368195)
(1.0912295e-17 5e-08 -0.02368185)
(5e-08 1e-07 -0.02368185)
(1e-07 1e-07 -0.02368185)
(1e-07 1e-07 -0.02368185)
(4.0121473e-21 5e-08 -0.02368185)
(-1e-07 5e-08 -0.0236819)
(-1.5e-07 -1.6464677e-17 -0.0236819)
(-1.5e-07 3.2005648e-20 -0.02368195)
(-1e-07 3.2881328e-17 -0.02368195)
(-3.3333333e-08 1.6023063e-20 -0.023682)
(3.3333333e-08 5e-08 -0.0236819)
(1e-07 1e-07 -0.02368185)
(1e-07 1e-07 -0.02368185)
(5e-08 5e-08 -0.02368185)
(-1.6432582e-17 5e-08 -0.02368185)
(-1e-07 5e-08 -0.02368185)
(-2e-07 -1.5959456e-20 -0.0236819)
(-1.5e-07 -2.3986889e-20 -0.0236819)
(-1e-07 -5e-08 -0.02368195)
(-3.3333333e-08 -5e-08 -0.02368195)
(3.3333333e-08 5e-08 -0.0236819)