/*--------------------------------*- C++ -*----------------------------------*\
| =========                 |                                                 |
| \\      /  F ield         | OpenFOAM: The Open Source CFD Toolbox           |
|  \\    /   O peration     | Version:  v2106                                 |
|   \\  /    A nd           | Website:  www.openfoam.com                      |
|    \\/     M anipulation  |                                                 |
\*---------------------------------------------------------------------------*/
FoamFile
{
    version     2.0;
    format      ascii;
    arch        "LSB;label=32;scalar=64";
    class       volVectorField;
    location    "50";
    object      Tmode_grad0;
}
// * * * * * * * * * * * * * * * * * * * * * * * * * * * * * * * * * * * * * //

dimensions      [0 -1 0 0 0 0 0];

internalField   nonuniform List<vector> 
4000
(
(1.7294471e-09 1.729447e-09 -0.022895417)
(6.3873415e-09 2.5727045e-09 -0.02289541)
(1.1190523e-09 -9.0217475e-10 -0.022895397)
(4.0295256e-09 1.9185656e-09 -0.022895403)
(1.1648081e-08 2.6769206e-09 -0.022895377)
(5.9455768e-09 2.4729968e-09 -0.022895358)
(-6.726623e-10 1.9688312e-09 -0.022895355)
(-4.0350214e-09 1.4668393e-09 -0.022895362)
(-3.856423e-09 1.0186899e-09 -0.022895371)
(-9.9680287e-10 4.3824081e-10 -0.022895377)
(2.5727046e-09 6.3873415e-09 -0.02289541)
(2.4399088e-09 2.4399088e-09 -0.022895399)
(1.3784393e-10 8.8519019e-10 -0.022895401)
(9.3981685e-09 6.6323999e-09 -0.022895392)
(1.2479727e-08 7.6648301e-09 -0.022895363)
(4.8834428e-09 6.641165e-09 -0.022895345)
(-2.1818985e-09 4.9867613e-09 -0.022895345)
(-5.4602334e-09 3.633713e-09 -0.022895355)
(-5.3993208e-09 2.9028048e-09 -0.022895367)
(-1.5772519e-09 1.9215665e-09 -0.022895376)
(-9.0217473e-10 1.1190522e-09 -0.022895397)
(8.851901e-10 1.3784382e-10 -0.022895401)
(5.3115434e-09 5.3115436e-09 -0.02289539)
(1.0809166e-08 6.9133887e-09 -0.022895377)
(1.1656846e-08 6.261306e-09 -0.022895348)
(3.267508e-09 4.576053e-09 -0.022895333)
(-3.6801143e-09 2.508552e-09 -0.022895336)
(-6.118978e-09 8.4099836e-10 -0.022895349)
(-5.5685696e-09 3.8840129e-10 -0.022895361)
(-1.6509617e-09 7.2051679e-10 -0.022895371)
(1.9185656e-09 4.0295252e-09 -0.022895403)
(6.6324002e-09 9.3981684e-09 -0.022895392)
(6.9133888e-09 1.0809166e-08 -0.022895377)
(1.0347931e-08 1.0347931e-08 -0.022895363)
(1.0142392e-08 8.9699962e-09 -0.022895336)
(1.1306888e-09 7.0311406e-09 -0.022895325)
(-5.9169532e-09 4.7094157e-09 -0.022895333)
(-7.5803841e-09 2.3457568e-09 -0.02289535)
(-5.5198024e-09 6.7874898e-10 -0.022895364)
(-1.3558416e-09 1.4858082e-10 -0.022895372)
(2.6769207e-09 1.1648081e-08 -0.022895377)
(7.6648305e-09 1.2479727e-08 -0.022895363)
(6.2613062e-09 1.1656846e-08 -0.022895348)
(8.969996e-09 1.0142392e-08 -0.022895336)
(8.340055e-09 8.3400554e-09 -0.022895312)
(-9.9307246e-10 6.4440085e-09 -0.022895306)
(-8.3654981e-09 4.411731e-09 -0.022895318)
(-1.0149645e-08 2.2555865e-09 -0.022895339)
(-7.7657455e-09 1.8134053e-10 -0.022895358)
(-2.0044072e-09 -1.4189353e-09 -0.02289537)
(2.4729969e-09 5.9455772e-09 -0.022895358)
(6.6411652e-09 4.8834428e-09 -0.022895345)
(4.576053e-09 3.2675079e-09 -0.022895333)
(7.0311407e-09 1.1306886e-09 -0.022895325)
(6.4440085e-09 -9.9307246e-10 -0.022895306)
(-2.7976357e-09 -2.7976354e-09 -0.022895303)
(-1.0105375e-08 -4.3236974e-09 -0.022895319)
(-1.1810775e-08 -5.6211784e-09 -0.022895343)
(-9.1943242e-09 -6.6742941e-09 -0.022895365)
(-2.4226922e-09 -7.3921352e-09 -0.02289538)
(1.9688312e-09 -6.726623e-10 -0.022895355)
(4.9867613e-09 -2.1818986e-09 -0.022895345)
(2.508552e-09 -3.6801145e-09 -0.022895336)
(4.7094157e-09 -5.916953e-09 -0.022895333)
(4.411731e-09 -8.3654982e-09 -0.022895318)
(-4.3236974e-09 -1.0105375e-08 -0.022895319)
(-1.1189041e-08 -1.1189041e-08 -0.022895337)
(-1.2500241e-08 -1.1721072e-08 -0.022895364)
(-9.5367023e-09 -1.1797149e-08 -0.022895387)
(-2.4829679e-09 -1.1569834e-08 -0.022895401)
(1.4668393e-09 -4.0350214e-09 -0.022895362)
(3.633713e-09 -5.4602336e-09 -0.022895355)
(8.4099868e-10 -6.1189779e-09 -0.022895349)
(2.3457569e-09 -7.5803844e-09 -0.02289535)
(2.2555862e-09 -1.0149645e-08 -0.022895339)
(-5.6211784e-09 -1.1810775e-08 -0.022895343)
(-1.1721072e-08 -1.2500241e-08 -0.022895364)
(-1.2418883e-08 -1.2418883e-08 -0.02289539)
(-9.0430863e-09 -1.1782623e-08 -0.022895413)
(-2.2711486e-09 -1.0939773e-08 -0.022895426)
(1.0186897e-09 -3.8564228e-09 -0.022895371)
(2.9028048e-09 -5.3993207e-09 -0.022895367)
(3.884012e-10 -5.5685695e-09 -0.022895361)
(6.7874887e-10 -5.5198025e-09 -0.022895364)
(1.8134065e-10 -7.7657455e-09 -0.022895358)
(-6.674294e-09 -9.1943241e-09 -0.022895365)
(-1.1797149e-08 -9.5367024e-09 -0.022895387)
(-1.1782623e-08 -9.0430865e-09 -0.022895413)
(-8.0575929e-09 -8.0575929e-09 -0.022895433)
(-1.9210681e-09 -7.1073067e-09 -0.022895444)
(4.3824071e-10 -9.9680279e-10 -0.022895377)
(1.9215663e-09 -1.5772518e-09 -0.022895376)
(7.2051688e-10 -1.6509618e-09 -0.022895371)
(1.4858097e-10 -1.3558414e-09 -0.022895372)
(-1.4189354e-09 -2.0044071e-09 -0.02289537)
(-7.3921353e-09 -2.422692e-09 -0.02289538)
(-1.1569834e-08 -2.4829679e-09 -0.022895401)
(-1.0939773e-08 -2.2711487e-09 -0.022895426)
(-7.1073065e-09 -1.9210681e-09 -0.022895444)
(-1.6376245e-09 -1.6376244e-09 -0.022895453)
(1.7572743e-09 1.7572743e-09 -0.0229191)
(1.1906703e-08 3.5319453e-09 -0.022919102)
(8.4196408e-09 -1.4114541e-09 -0.022919092)
(1.7902025e-08 4.5593465e-09 -0.022919083)
(3.178278e-08 6.0387159e-09 -0.022919061)
(1.4945011e-08 5.2781171e-09 -0.022919047)
(-3.5740318e-09 3.8220073e-09 -0.022919047)
(-1.2542396e-08 2.4663425e-09 -0.022919056)
(-1.0974315e-08 1.0653972e-09 -0.022919066)
(-2.6142382e-09 -6.8657425e-10 -0.02291907)
(3.5319453e-09 1.1906703e-08 -0.022919102)
(7.1536102e-09 7.1536103e-09 -0.022919099)
(9.9607426e-09 6.8385877e-09 -0.02291909)
(2.907728e-08 1.9006489e-08 -0.022919075)
(3.2860936e-08 2.0746032e-08 -0.02291905)
(1.1619948e-08 1.7439757e-08 -0.022919039)
(-7.7916938e-09 1.2620696e-08 -0.022919042)
(-1.6677311e-08 8.9604349e-09 -0.022919053)
(-1.570369e-08 6.7176823e-09 -0.022919066)
(-4.3662097e-09 3.498735e-09 -0.022919074)
(-1.411454e-09 8.4196405e-09 -0.022919092)
(6.8385877e-09 9.9607421e-09 -0.02291909)
(2.027252e-08 2.027252e-08 -0.022919076)
(3.180947e-08 2.3565878e-08 -0.022919058)
(3.0216048e-08 2.1436081e-08 -0.022919035)
(6.8196744e-09 1.6429306e-08 -0.022919026)
(-1.2053354e-08 1.0321569e-08 -0.022919033)
(-1.844541e-08 5.5823888e-09 -0.022919046)
(-1.6436015e-08 4.1915405e-09 -0.022919059)
(-4.7602031e-09 4.2841962e-09 -0.022919068)
(4.5593464e-09 1.7902025e-08 -0.022919083)
(1.9006489e-08 2.907728e-08 -0.022919075)
(2.3565878e-08 3.180947e-08 -0.022919058)
(3.0240841e-08 3.0240841e-08 -0.02291904)
(2.5724365e-08 2.6175512e-08 -0.02291902)
(5.0543606e-10 2.0447685e-08 -0.022919015)
(-1.8638611e-08 1.357675e-08 -0.022919026)
(-2.2807339e-08 6.7253737e-09 -0.022919043)
(-1.7001883e-08 1.9543735e-09 -0.022919058)
(-4.3044392e-09 1.5687018e-11 -0.022919067)
(6.0387159e-09 3.1782781e-08 -0.022919061)
(2.0746033e-08 3.2860937e-08 -0.02291905)
(2.1436081e-08 3.0216048e-08 -0.022919035)
(2.6175513e-08 2.5724365e-08 -0.02291902)
(2.0422892e-08 2.0422892e-08 -0.022919002)
(-5.7790879e-09 1.4793169e-08 -0.022919001)
(-2.5775665e-08 8.7810256e-09 -0.022919017)
(-3.0067786e-08 2.529897e-09 -0.022919038)
(-2.3145702e-08 -3.2613142e-09 -0.022919058)
(-6.0526608e-09 -7.5906016e-09 -0.02291907)
(5.2781172e-09 1.4945011e-08 -0.022919047)
(1.7439757e-08 1.1619948e-08 -0.022919039)
(1.6429306e-08 6.8196745e-09 -0.022919026)
(2.0447685e-08 5.0543632e-10 -0.022919015)
(1.4793169e-08 -5.7790877e-09 -0.022919001)
(-1.113643e-08 -1.113643e-08 -0.022919003)
(-3.0901883e-08 -1.5648293e-08 -0.022919022)
(-3.4849679e-08 -1.9407047e-08 -0.022919047)
(-2.7122381e-08 -2.231959e-08 -0.022919069)
(-7.1906308e-09 -2.4105292e-08 -0.022919084)
(3.8220073e-09 -3.574032e-09 -0.022919047)
(1.2620696e-08 -7.7916938e-09 -0.022919042)
(1.0321569e-08 -1.2053354e-08 -0.022919033)
(1.357675e-08 -1.8638611e-08 -0.022919026)
(8.7810256e-09 -2.5775665e-08 -0.022919017)
(-1.5648294e-08 -3.0901883e-08 -0.022919022)
(-3.4046282e-08 -3.4046282e-08 -0.022919044)
(-3.6739083e-08 -3.5465342e-08 -0.02291907)
(-2.7843947e-08 -3.5417871e-08 -0.022919093)
(-7.2431285e-09 -3.4276205e-08 -0.022919107)
(2.4663426e-09 -1.2542396e-08 -0.022919056)
(8.9604351e-09 -1.6677311e-08 -0.022919053)
(5.5823887e-09 -1.844541e-08 -0.022919046)
(6.7253737e-09 -2.2807339e-08 -0.022919043)
(2.5298969e-09 -3.0067787e-08 -0.022919038)
(-1.9407047e-08 -3.4849679e-08 -0.022919047)
(-3.5465342e-08 -3.6739083e-08 -0.02291907)
(-3.6221268e-08 -3.6221268e-08 -0.022919097)
(-2.5933244e-08 -3.3982978e-08 -0.022919118)
(-6.4295204e-09 -3.1087192e-08 -0.022919129)
(1.0653971e-09 -1.0974315e-08 -0.022919066)
(6.7176824e-09 -1.570369e-08 -0.022919066)
(4.1915409e-09 -1.6436015e-08 -0.022919059)
(1.9543734e-09 -1.7001882e-08 -0.022919058)
(-3.2613143e-09 -2.3145701e-08 -0.022919058)
(-2.231959e-08 -2.7122381e-08 -0.022919069)
(-3.5417871e-08 -2.7843947e-08 -0.022919093)
(-3.3982978e-08 -2.5933244e-08 -0.022919118)
(-2.270987e-08 -2.270987e-08 -0.022919136)
(-5.3126042e-09 -2.0180271e-08 -0.022919146)
(-6.8657418e-10 -2.6142383e-09 -0.02291907)
(3.4987354e-09 -4.3662096e-09 -0.022919074)
(4.2841965e-09 -4.760203e-09 -0.022919068)
(1.5686899e-11 -4.3044392e-09 -0.022919067)
(-7.590602e-09 -6.0526606e-09 -0.02291907)
(-2.4105292e-08 -7.190631e-09 -0.022919084)
(-3.4276205e-08 -7.2431285e-09 -0.022919107)
(-3.1087192e-08 -6.4295203e-09 -0.022919129)
(-2.0180271e-08 -5.3126042e-09 -0.022919146)
(-4.7431209e-09 -4.7431208e-09 -0.022919154)
(1.8663174e-10 1.8663167e-10 -0.022962822)
(1.5010527e-08 5.0740386e-09 -0.022962823)
(2.0110115e-08 1.0441009e-10 -0.022962811)
(3.4847387e-08 7.8259804e-09 -0.022962799)
(4.8139478e-08 9.4909919e-09 -0.02296278)
(1.949082e-08 8.0167516e-09 -0.022962771)
(-9.6861155e-09 5.65289e-09 -0.022962775)
(-2.2892842e-08 3.7355583e-09 -0.022962786)
(-1.7579169e-08 1.277402e-09 -0.022962798)
(-3.4610902e-09 -2.2186482e-09 -0.022962801)
(5.0740387e-09 1.5010527e-08 -0.022962823)
(1.4887195e-08 1.4887194e-08 -0.022962817)
(2.4238028e-08 1.6554479e-08 -0.022962806)
(4.892726e-08 3.2141071e-08 -0.022962789)
(4.8425635e-08 3.3471537e-08 -0.022962769)
(1.3733667e-08 2.7491422e-08 -0.022962763)
(-1.6107906e-08 1.945842e-08 -0.02296277)
(-2.9456074e-08 1.405725e-08 -0.022962782)
(-2.6510479e-08 1.0329469e-08 -0.022962797)
(-6.9571404e-09 3.7903007e-09 -0.022962805)
(1.0441017e-10 2.0110116e-08 -0.022962811)
(1.6554479e-08 2.4238028e-08 -0.022962806)
(3.7363992e-08 3.7363992e-08 -0.02296279)
(5.1764445e-08 4.1101592e-08 -0.022962772)
(4.348983e-08 3.7080871e-08 -0.022962754)
(5.4777029e-09 2.8561287e-08 -0.022962751)
(-2.3120288e-08 1.8227692e-08 -0.022962762)
(-3.2021793e-08 1.0459175e-08 -0.022962776)
(-2.7846118e-08 8.0631594e-09 -0.022962791)
(-7.8205357e-09 7.0375493e-09 -0.022962801)
(7.8259803e-09 3.4847387e-08 -0.022962799)
(3.2141071e-08 4.892726e-08 -0.022962789)
(4.1101592e-08 5.1764445e-08 -0.022962772)
(4.8644139e-08 4.8644139e-08 -0.022962755)
(3.588533e-08 4.1793861e-08 -0.02296274)
(-5.1195118e-09 3.227226e-08 -0.02296274)
(-3.4210017e-08 2.0842779e-08 -0.022962756)
(-3.9620606e-08 9.5501024e-09 -0.022962774)
(-2.9932104e-08 1.626009e-09 -0.022962791)
(-7.6408805e-09 -2.2292336e-09 -0.022962802)
(9.4909917e-09 4.8139478e-08 -0.02296278)
(3.3471537e-08 4.8425635e-08 -0.022962769)
(3.7080871e-08 4.3489829e-08 -0.022962754)
(4.1793861e-08 3.5885329e-08 -0.02296274)
(2.7117951e-08 2.7117951e-08 -0.022962727)
(-1.5473379e-08 1.7832568e-08 -0.022962732)
(-4.5842446e-08 7.9755837e-09 -0.022962752)
(-5.1238564e-08 -2.1049354e-09 -0.022962775)
(-3.9625454e-08 -1.1198348e-08 -0.022962795)
(-1.0390697e-08 -1.7840323e-08 -0.022962808)
(8.0167516e-09 1.949082e-08 -0.022962771)
(2.7491422e-08 1.3733667e-08 -0.022962763)
(2.8561286e-08 5.4777031e-09 -0.022962751)
(3.227226e-08 -5.1195119e-09 -0.02296274)
(1.7832568e-08 -1.5473379e-08 -0.022962732)
(-2.4261879e-08 -2.4261879e-08 -0.02296274)
(-5.4147521e-08 -3.157466e-08 -0.022962763)
(-5.8794538e-08 -3.748493e-08 -0.022962789)
(-4.5667492e-08 -4.1771024e-08 -0.022962811)
(-1.2068864e-08 -4.3959018e-08 -0.022962826)
(5.65289e-09 -9.6861154e-09 -0.022962775)
(1.945842e-08 -1.6107906e-08 -0.02296277)
(1.8227692e-08 -2.3120288e-08 -0.022962762)
(2.0842779e-08 -3.4210017e-08 -0.022962756)
(7.9755838e-09 -4.5842446e-08 -0.022962752)
(-3.157466e-08 -5.4147521e-08 -0.022962763)
(-5.9065497e-08 -5.9065497e-08 -0.022962788)
(-6.1434928e-08 -6.0926034e-08 -0.022962815)
(-4.6099541e-08 -6.0116897e-08 -0.022962837)
(-1.184936e-08 -5.7198729e-08 -0.022962851)
(3.7355582e-09 -2.2892842e-08 -0.022962786)
(1.405725e-08 -2.9456074e-08 -0.022962782)
(1.0459175e-08 -3.2021793e-08 -0.022962776)
(9.5501022e-09 -3.9620606e-08 -0.022962774)
(-2.1049354e-09 -5.1238563e-08 -0.022962775)
(-3.748493e-08 -5.8794538e-08 -0.022962789)
(-6.0926034e-08 -6.1434928e-08 -0.022962815)
(-5.9845938e-08 -5.9845937e-08 -0.022962841)
(-4.1940187e-08 -5.5357313e-08 -0.022962861)
(-1.0123419e-08 -5.0044443e-08 -0.022962872)
(1.2774019e-09 -1.7579169e-08 -0.022962798)
(1.0329469e-08 -2.6510479e-08 -0.022962797)
(8.0631596e-09 -2.7846118e-08 -0.022962791)
(1.6260091e-09 -2.9932104e-08 -0.022962791)
(-1.1198348e-08 -3.9625454e-08 -0.022962795)
(-4.1771024e-08 -4.5667492e-08 -0.022962811)
(-6.0116896e-08 -4.6099542e-08 -0.022962837)
(-5.5357313e-08 -4.1940187e-08 -0.022962861)
(-3.6298048e-08 -3.6298047e-08 -0.022962879)
(-8.3074463e-09 -3.215515e-08 -0.022962889)
(-2.2186483e-09 -3.4610903e-09 -0.022962801)
(3.7903008e-09 -6.9571405e-09 -0.022962805)
(7.0375494e-09 -7.8205357e-09 -0.022962801)
(-2.2292337e-09 -7.6408806e-09 -0.022962802)
(-1.7840323e-08 -1.0390697e-08 -0.022962808)
(-4.3959018e-08 -1.2068864e-08 -0.022962826)
(-5.7198729e-08 -1.184936e-08 -0.022962851)
(-5.0044443e-08 -1.0123419e-08 -0.022962872)
(-3.215515e-08 -8.3074462e-09 -0.022962889)
(-7.361488e-09 -7.3614878e-09 -0.022962896)
(6.249392e-10 6.2493908e-10 -0.023028375)
(2.235381e-08 7.4400535e-09 -0.023028372)
(3.2777276e-08 2.2267435e-09 -0.023028359)
(4.9319126e-08 1.1265866e-08 -0.023028348)
(5.9756649e-08 1.2919921e-08 -0.023028334)
(1.9524166e-08 1.0624156e-08 -0.02302833)
(-1.8896793e-08 7.314697e-09 -0.023028338)
(-3.5309357e-08 5.0787967e-09 -0.023028351)
(-2.557982e-08 1.8853197e-09 -0.023028364)
(-4.5953494e-09 -3.2447956e-09 -0.023028368)
(7.4400536e-09 2.2353809e-08 -0.023028372)
(2.4756516e-08 2.4756516e-08 -0.023028364)
(3.8515995e-08 2.7555184e-08 -0.023028352)
(6.5358892e-08 4.5535277e-08 -0.023028338)
(5.8794083e-08 4.6001553e-08 -0.023028323)
(1.111633e-08 3.7089e-08 -0.023028322)
(-2.7214832e-08 2.5677492e-08 -0.023028333)
(-4.3453423e-08 1.8826838e-08 -0.023028348)
(-3.8065209e-08 1.387368e-08 -0.023028363)
(-9.7254647e-09 3.8102577e-09 -0.023028371)
(2.2267435e-09 3.2777276e-08 -0.023028359)
(2.7555184e-08 3.8515995e-08 -0.023028352)
(5.3556036e-08 5.3556036e-08 -0.023028337)
(6.7765495e-08 5.7173503e-08 -0.023028322)
(5.1310373e-08 5.1030613e-08 -0.02302831)
(-7.9989505e-10 3.8897632e-08 -0.023028312)
(-3.7158955e-08 2.4262028e-08 -0.023028327)
(-4.7113169e-08 1.3495071e-08 -0.023028343)
(-4.0596401e-08 9.9443064e-09 -0.023028359)
(-1.1304297e-08 7.3839944e-09 -0.023028369)
(1.1265866e-08 4.9319126e-08 -0.023028348)
(4.5535276e-08 6.5358892e-08 -0.023028338)
(5.7173503e-08 6.7765495e-08 -0.023028322)
(6.2833468e-08 6.2833468e-08 -0.023028309)
(4.0518213e-08 5.3119748e-08 -0.023028298)
(-1.5652254e-08 3.9832067e-08 -0.023028304)
(-5.2617392e-08 2.395249e-08 -0.023028324)
(-5.7771145e-08 8.481772e-09 -0.023028344)
(-4.4176286e-08 -2.2904786e-09 -0.023028362)
(-1.1432339e-08 -7.8676618e-09 -0.023028373)
(1.2919921e-08 5.9756649e-08 -0.023028334)
(4.6001553e-08 5.8794083e-08 -0.023028323)
(5.1030613e-08 5.1310373e-08 -0.02302831)
(5.3119748e-08 4.0518213e-08 -0.023028298)
(2.8308972e-08 2.8308971e-08 -0.023028292)
(-2.9967153e-08 1.5456309e-08 -0.023028301)
(-6.850925e-08 1.922461e-09 -0.023028325)
(-7.3356137e-08 -1.1674937e-08 -0.023028349)
(-5.6945835e-08 -2.3610762e-08 -0.02302837)
(-1.502242e-08 -3.2046468e-08 -0.023028384)
(1.0624156e-08 1.9524166e-08 -0.02302833)
(3.7089e-08 1.111633e-08 -0.023028322)
(3.8897632e-08 -7.9989553e-10 -0.023028312)
(3.9832067e-08 -1.5652254e-08 -0.023028304)
(1.5456309e-08 -2.9967153e-08 -0.023028301)
(-4.2038764e-08 -4.2038764e-08 -0.023028314)
(-7.9748638e-08 -5.1927922e-08 -0.023028341)
(-8.3304368e-08 -5.9630979e-08 -0.023028368)
(-6.4547817e-08 -6.4769755e-08 -0.023028391)
(-1.7056143e-08 -6.6723917e-08 -0.023028405)
(7.3146969e-09 -1.8896793e-08 -0.023028338)
(2.5677491e-08 -2.7214832e-08 -0.023028333)
(2.4262029e-08 -3.7158955e-08 -0.023028327)
(2.395249e-08 -5.2617392e-08 -0.023028324)
(1.9224613e-09 -6.850925e-08 -0.023028325)
(-5.1927922e-08 -7.9748638e-08 -0.023028341)
(-8.6101465e-08 -8.6101464e-08 -0.02302837)
(-8.619797e-08 -8.7898348e-08 -0.023028397)
(-6.4038773e-08 -8.5680966e-08 -0.023028419)
(-1.6325195e-08 -8.0345629e-08 -0.023028432)
(5.0787966e-09 -3.5309357e-08 -0.023028351)
(1.8826838e-08 -4.3453423e-08 -0.023028348)
(1.3495072e-08 -4.7113169e-08 -0.023028343)
(8.4817722e-09 -5.7771145e-08 -0.023028344)
(-1.1674937e-08 -7.3356138e-08 -0.023028349)
(-5.9630979e-08 -8.3304368e-08 -0.023028368)
(-8.7898348e-08 -8.619797e-08 -0.023028397)
(-8.288387e-08 -8.288387e-08 -0.023028424)
(-5.6995098e-08 -7.5741196e-08 -0.023028443)
(-1.3499252e-08 -6.8592345e-08 -0.023028452)
(1.8853196e-09 -2.557982e-08 -0.023028364)
(1.387368e-08 -3.8065209e-08 -0.023028363)
(9.9443066e-09 -4.0596401e-08 -0.023028359)
(-2.2904785e-09 -4.4176286e-08 -0.023028362)
(-2.3610762e-08 -5.6945835e-08 -0.02302837)
(-6.4769754e-08 -6.4547817e-08 -0.023028391)
(-8.5680966e-08 -6.4038773e-08 -0.023028419)
(-7.5741196e-08 -5.6995098e-08 -0.023028443)
(-4.9747249e-08 -4.9747249e-08 -0.023028459)
(-1.1559295e-08 -4.3961008e-08 -0.023028469)
(-3.2447956e-09 -4.5953495e-09 -0.023028368)
(3.8102578e-09 -9.7254647e-09 -0.023028371)
(7.3839947e-09 -1.1304297e-08 -0.023028369)
(-7.8676618e-09 -1.1432339e-08 -0.023028373)
(-3.2046468e-08 -1.502242e-08 -0.023028384)
(-6.6723917e-08 -1.7056143e-08 -0.023028405)
(-8.0345629e-08 -1.6325195e-08 -0.023028432)
(-6.8592345e-08 -1.3499251e-08 -0.023028452)
(-4.3961008e-08 -1.1559294e-08 -0.023028469)
(-9.6417579e-09 -9.6417578e-09 -0.023028475)
(2.3304335e-09 2.3304336e-09 -0.02311572)
(3.1323483e-08 1.0336034e-08 -0.023115715)
(4.3771665e-08 4.6927365e-09 -0.023115703)
(6.0051413e-08 1.4845616e-08 -0.023115696)
(6.6623457e-08 1.6407561e-08 -0.023115686)
(1.5156866e-08 1.3223259e-08 -0.023115686)
(-3.1185517e-08 8.8637863e-09 -0.023115698)
(-4.9203572e-08 6.2356647e-09 -0.023115714)
(-3.4482642e-08 2.2865427e-09 -0.023115728)
(-6.0703847e-09 -4.2994152e-09 -0.023115733)
(1.0336034e-08 3.1323483e-08 -0.023115715)
(3.4866937e-08 3.4866937e-08 -0.023115707)
(5.0536039e-08 3.8221153e-08 -0.023115696)
(7.762365e-08 5.8116887e-08 -0.023115686)
(6.4189922e-08 5.7535534e-08 -0.023115676)
(3.8412045e-09 4.557604e-08 -0.023115679)
(-4.166691e-08 3.0631049e-08 -0.023115694)
(-5.9069437e-08 2.2242616e-08 -0.023115711)
(-5.0285262e-08 1.5966854e-08 -0.023115728)
(-1.2656343e-08 2.6787782e-09 -0.023115737)
(4.6927364e-09 4.3771665e-08 -0.023115703)
(3.8221153e-08 5.0536039e-08 -0.023115696)
(6.7021615e-08 6.7021615e-08 -0.023115684)
(7.9365794e-08 7.0256999e-08 -0.023115673)
(5.408261e-08 6.1904222e-08 -0.023115665)
(-1.1747619e-08 4.61702e-08 -0.023115671)
(-5.4518941e-08 2.7310067e-08 -0.02311569)
(-6.3867766e-08 1.370821e-08 -0.023115709)
(-5.404648e-08 9.0593938e-09 -0.023115726)
(-1.4929102e-08 5.0815649e-09 -0.023115737)
(1.4845616e-08 6.0051413e-08 -0.023115696)
(5.8116887e-08 7.762365e-08 -0.023115686)
(7.0256999e-08 7.9365793e-08 -0.023115673)
(7.2506257e-08 7.2506257e-08 -0.023115663)
(4.0103123e-08 5.9911986e-08 -0.023115657)
(-3.0752951e-08 4.2926653e-08 -0.023115668)
(-7.4128899e-08 2.2757925e-08 -0.023115691)
(-7.7320111e-08 3.4035567e-09 -0.023115714)
(-5.8911907e-08 -9.892736e-09 -0.023115732)
(-1.5308229e-08 -1.6912417e-08 -0.023115744)
(1.6407561e-08 6.6623457e-08 -0.023115686)
(5.7535534e-08 6.4189922e-08 -0.023115676)
(6.1904222e-08 5.408261e-08 -0.023115665)
(5.9911986e-08 4.0103123e-08 -0.023115657)
(2.4503006e-08 2.4503006e-08 -0.023115655)
(-4.890168e-08 8.1888739e-09 -0.023115669)
(-9.4042037e-08 -8.8423097e-09 -0.023115696)
(-9.6518428e-08 -2.5657523e-08 -0.023115723)
(-7.4362454e-08 -4.0035399e-08 -0.023115744)
(-1.9608889e-08 -4.9853238e-08 -0.023115758)
(1.3223259e-08 1.5156866e-08 -0.023115686)
(4.557604e-08 3.8412045e-09 -0.023115679)
(4.61702e-08 -1.1747619e-08 -0.023115671)
(4.2926653e-08 -3.0752951e-08 -0.023115668)
(8.1888741e-09 -4.890168e-08 -0.023115669)
(-6.4098266e-08 -6.4098267e-08 -0.023115686)
(-1.079753e-07 -7.6341692e-08 -0.023115717)
(-1.085132e-07 -8.5499104e-08 -0.023115745)
(-8.3107622e-08 -9.102236e-08 -0.023115768)
(-2.1853455e-08 -9.2209034e-08 -0.023115783)
(8.8637863e-09 -3.1185518e-08 -0.023115698)
(3.0631048e-08 -4.166691e-08 -0.023115694)
(2.7310067e-08 -5.4518942e-08 -0.02311569)
(2.2757925e-08 -7.41289e-08 -0.023115691)
(-8.8423096e-09 -9.4042037e-08 -0.023115696)
(-7.6341692e-08 -1.079753e-07 -0.023115717)
(-1.1544287e-07 -1.1544287e-07 -0.023115749)
(-1.1119909e-07 -1.1669039e-07 -0.023115778)
(-8.1072384e-08 -1.1241536e-07 -0.023115799)
(-2.0400006e-08 -1.0402051e-07 -0.023115811)
(6.2356647e-09 -4.9203572e-08 -0.023115714)
(2.2242616e-08 -5.9069437e-08 -0.023115711)
(1.370821e-08 -6.3867766e-08 -0.023115709)
(3.4035572e-09 -7.732011e-08 -0.023115714)
(-2.5657522e-08 -9.6518428e-08 -0.023115723)
(-8.5499104e-08 -1.085132e-07 -0.023115745)
(-1.1669039e-07 -1.1119909e-07 -0.023115778)
(-1.0548568e-07 -1.0548568e-07 -0.023115805)
(-7.0437746e-08 -9.513381e-08 -0.023115823)
(-1.6256891e-08 -8.661399e-08 -0.023115831)
(2.2865427e-09 -3.4482642e-08 -0.023115728)
(1.5966854e-08 -5.0285262e-08 -0.023115728)
(9.059394e-09 -5.404648e-08 -0.023115726)
(-9.8927363e-09 -5.8911907e-08 -0.023115732)
(-4.0035399e-08 -7.4362454e-08 -0.023115744)
(-9.102236e-08 -8.3107623e-08 -0.023115768)
(-1.1241536e-07 -8.1072384e-08 -0.023115799)
(-9.513381e-08 -7.0437746e-08 -0.023115823)
(-6.2200695e-08 -6.2200694e-08 -0.023115838)
(-1.4720126e-08 -5.5401095e-08 -0.023115847)
(-4.2994151e-09 -6.0703848e-09 -0.023115733)
(2.6787782e-09 -1.2656343e-08 -0.023115737)
(5.0815649e-09 -1.4929102e-08 -0.023115737)
(-1.6912417e-08 -1.5308229e-08 -0.023115744)
(-4.9853238e-08 -1.9608889e-08 -0.023115758)
(-9.2209034e-08 -2.1853455e-08 -0.023115783)
(-1.0402051e-07 -2.0400006e-08 -0.023115811)
(-8.661399e-08 -1.6256891e-08 -0.023115831)
(-5.5401095e-08 -1.4720126e-08 -0.023115847)
(-1.1723824e-08 -1.1723824e-08 -0.023115853)
(4.08804e-09 4.0880401e-09 -0.023224811)
(3.933881e-08 1.3029162e-08 -0.023224806)
(5.2191595e-08 6.9171524e-09 -0.023224797)
(6.7098842e-08 1.8057928e-08 -0.023224792)
(6.9233674e-08 1.9500854e-08 -0.023224786)
(6.8135179e-09 1.5428435e-08 -0.02322479)
(-4.6699078e-08 1.0009831e-08 -0.023224806)
(-6.5208081e-08 6.9772405e-09 -0.023224824)
(-4.4727292e-08 2.2836993e-09 -0.023224839)
(-7.9414193e-09 -5.6196464e-09 -0.023224845)
(1.3029162e-08 3.9338809e-08 -0.023224806)
(4.3582478e-08 4.3582478e-08 -0.023224799)
(5.9734745e-08 4.725615e-08 -0.023224791)
(8.5974395e-08 6.8793808e-08 -0.023224783)
(6.5289433e-08 6.7114243e-08 -0.023224777)
(-7.4230176e-09 5.2140129e-08 -0.023224784)
(-5.9375869e-08 3.3708801e-08 -0.023224803)
(-7.6797278e-08 2.3833933e-08 -0.023224822)
(-6.3622622e-08 1.6265786e-08 -0.02322484)
(-1.5844765e-08 6.7782498e-11 -0.02322485)
(6.9171524e-09 5.2191594e-08 -0.023224797)
(4.725615e-08 5.9734745e-08 -0.023224791)
(7.7402925e-08 7.7402924e-08 -0.02322478)
(8.6956936e-08 8.0139403e-08 -0.023224773)
(5.2579995e-08 6.9574071e-08 -0.023224769)
(-2.6591925e-08 5.0315713e-08 -0.023224779)
(-7.5005274e-08 2.7381538e-08 -0.023224801)
(-8.2651096e-08 1.1147269e-08 -0.023224822)
(-6.8493442e-08 5.5223615e-09 -0.02322484)
(-1.8740088e-08 3.2130479e-10 -0.023224852)
(1.8057928e-08 6.7098842e-08 -0.023224792)
(6.8793808e-08 8.5974395e-08 -0.023224783)
(8.0139403e-08 8.6956936e-08 -0.023224773)
(7.8145542e-08 7.8145542e-08 -0.023224766)
(3.5465743e-08 6.2708782e-08 -0.023224765)
(-4.9615551e-08 4.2124719e-08 -0.023224779)
(-9.8544312e-08 1.7846011e-08 -0.023224805)
(-9.8656455e-08 -5.1225535e-09 -0.02322483)
(-7.4448586e-08 -2.0673849e-08 -0.023224849)
(-1.9312136e-08 -2.8902825e-08 -0.023224861)
(1.9500854e-08 6.9233674e-08 -0.023224786)
(6.7114244e-08 6.5289433e-08 -0.023224777)
(6.9574072e-08 5.2579995e-08 -0.023224769)
(6.2708782e-08 3.5465743e-08 -0.023224765)
(1.6559172e-08 1.6559172e-08 -0.023224766)
(-7.1454696e-08 -3.0977935e-09 -0.023224784)
(-1.2225255e-07 -2.3450512e-08 -0.023224814)
(-1.2117096e-07 -4.3228094e-08 -0.023224842)
(-9.2273714e-08 -5.9739947e-08 -0.023224864)
(-2.4226072e-08 -7.0649308e-08 -0.023224878)
(1.5428434e-08 6.8135182e-09 -0.02322479)
(5.2140129e-08 -7.4230176e-09 -0.023224784)
(5.0315713e-08 -2.6591925e-08 -0.023224779)
(4.2124719e-08 -4.9615551e-08 -0.023224779)
(-3.0977935e-09 -7.1454696e-08 -0.023224784)
(-8.9625235e-08 -8.9625235e-08 -0.023224804)
(-1.3867461e-07 -1.0403459e-07 -0.023224837)
(-1.3494589e-07 -1.1438991e-07 -0.023224867)
(-1.018698e-07 -1.1997069e-07 -0.023224891)
(-2.6585043e-08 -1.2003982e-07 -0.023224905)
(1.0009831e-08 -4.6699078e-08 -0.023224806)
(3.3708801e-08 -5.9375869e-08 -0.023224803)
(2.7381539e-08 -7.5005274e-08 -0.023224801)
(1.7846011e-08 -9.8544313e-08 -0.023224805)
(-2.3450512e-08 -1.2225255e-07 -0.023224814)
(-1.0403459e-07 -1.3867461e-07 -0.023224837)
(-1.4701723e-07 -1.4701723e-07 -0.023224872)
(-1.3710705e-07 -1.47381e-07 -0.023224902)
(-9.792362e-08 -1.4059097e-07 -0.023224924)
(-2.4272163e-08 -1.2864054e-07 -0.023224935)
(6.9772405e-09 -6.5208081e-08 -0.023224824)
(2.3833933e-08 -7.6797278e-08 -0.023224822)
(1.1147269e-08 -8.2651096e-08 -0.023224822)
(-5.1225534e-09 -9.8656455e-08 -0.02322483)
(-4.3228094e-08 -1.2117096e-07 -0.023224842)
(-1.1438991e-07 -1.3494589e-07 -0.023224867)
(-1.47381e-07 -1.3710705e-07 -0.023224902)
(-1.2851964e-07 -1.2851964e-07 -0.02322493)
(-8.3129341e-08 -1.1442671e-07 -0.023224948)
(-1.8618091e-08 -1.0448219e-07 -0.023224955)
(2.2836992e-09 -4.4727292e-08 -0.023224839)
(1.6265786e-08 -6.3622622e-08 -0.02322484)
(5.5223614e-09 -6.8493442e-08 -0.02322484)
(-2.0673849e-08 -7.4448586e-08 -0.023224849)
(-5.9739947e-08 -9.2273713e-08 -0.023224864)
(-1.1997069e-07 -1.018698e-07 -0.023224891)
(-1.4059097e-07 -9.792362e-08 -0.023224924)
(-1.1442671e-07 -8.312934e-08 -0.023224948)
(-7.3886172e-08 -7.3886172e-08 -0.023224963)
(-1.7642477e-08 -6.6368834e-08 -0.023224971)
(-5.6196464e-09 -7.9414194e-09 -0.023224845)
(6.7782293e-11 -1.5844765e-08 -0.02322485)
(3.2130458e-10 -1.8740088e-08 -0.023224852)
(-2.8902825e-08 -1.9312136e-08 -0.023224861)
(-7.0649308e-08 -2.4226072e-08 -0.023224878)
(-1.2003982e-07 -2.6585043e-08 -0.023224905)
(-1.2864054e-07 -2.4272163e-08 -0.023224935)
(-1.0448219e-07 -1.8618091e-08 -0.023224955)
(-6.6368834e-08 -1.7642477e-08 -0.023224971)
(-1.3606533e-08 -1.3606532e-08 -0.023224977)
(5.5554358e-09 5.5554359e-09 -0.023355588)
(4.5811728e-08 1.5326615e-08 -0.023355584)
(5.8156372e-08 8.7719042e-09 -0.023355577)
(7.0991477e-08 2.0796241e-08 -0.023355574)
(6.8356288e-08 2.2111972e-08 -0.023355572)
(-4.6251376e-09 1.7176921e-08 -0.023355579)
(-6.471001e-08 1.0729386e-08 -0.023355597)
(-8.2952429e-08 7.3121638e-09 -0.023355617)
(-5.6064319e-08 1.9148831e-09 -0.023355633)
(-1.0102769e-08 -7.1993403e-09 -0.02335564)
(1.5326615e-08 4.5811727e-08 -0.023355584)
(5.063643e-08 5.063643e-08 -0.023355578)
(6.6360811e-08 5.4538196e-08 -0.023355572)
(9.1001578e-08 7.7512778e-08 -0.023355567)
(6.2927308e-08 7.473848e-08 -0.023355564)
(-2.1699015e-08 5.6840464e-08 -0.023355574)
(-7.9507146e-08 3.5044941e-08 -0.023355595)
(-9.6174184e-08 2.377849e-08 -0.023355616)
(-7.7831576e-08 1.5000936e-08 -0.023355635)
(-1.9216993e-08 -3.8635451e-09 -0.023355645)
(8.7719042e-09 5.8156372e-08 -0.023355577)
(5.4538196e-08 6.6360811e-08 -0.023355572)
(8.503272e-08 8.503272e-08 -0.023355564)
(9.1191761e-08 8.7220991e-08 -0.023355559)
(4.7683974e-08 7.4488826e-08 -0.023355558)
(-4.4318677e-08 5.1820546e-08 -0.023355571)
(-9.7771984e-08 2.4986678e-08 -0.023355595)
(-1.0299643e-07 6.3030245e-09 -0.023355618)
(-8.3706354e-08 -1.9267235e-10 -0.023355637)
(-2.267909e-08 -6.4776614e-09 -0.023355649)
(2.0796241e-08 7.0991477e-08 -0.023355574)
(7.7512778e-08 9.1001578e-08 -0.023355567)
(8.7220991e-08 9.1191761e-08 -0.023355559)
(8.0457685e-08 8.0457684e-08 -0.023355555)
(2.7526863e-08 6.2252161e-08 -0.023355557)
(-7.1201163e-08 3.8193811e-08 -0.023355573)
(-1.2502467e-07 9.9935186e-09 -0.023355602)
(-1.2135353e-07 -1.6348262e-08 -0.023355628)
(-9.0612261e-08 -3.394009e-08 -0.023355648)
(-2.3406985e-08 -4.3212291e-08 -0.02335566)
(2.2111972e-08 6.8356288e-08 -0.023355572)
(7.473848e-08 6.2927308e-08 -0.023355564)
(7.4488826e-08 4.7683974e-08 -0.023355558)
(6.2252161e-08 2.7526863e-08 -0.023355557)
(5.4201009e-09 5.4201009e-09 -0.023355561)
(-9.6577319e-08 -1.7450313e-08 -0.023355581)
(-1.5231406e-07 -4.0954379e-08 -0.023355613)
(-1.4693004e-07 -6.3474709e-08 -0.023355643)
(-1.1057038e-07 -8.1882275e-08 -0.023355665)
(-2.8860558e-08 -9.3680432e-08 -0.023355679)
(1.7176921e-08 -4.6251374e-09 -0.023355579)
(5.6840464e-08 -2.1699015e-08 -0.023355574)
(5.1820546e-08 -4.4318677e-08 -0.023355571)
(3.8193812e-08 -7.1201163e-08 -0.023355573)
(-1.7450313e-08 -9.6577319e-08 -0.023355581)
(-1.1757564e-07 -1.1757564e-07 -0.023355604)
(-1.7104906e-07 -1.3399107e-07 -0.023355639)
(-1.6228143e-07 -1.4535581e-07 -0.02335567)
(-1.2081798e-07 -1.5078802e-07 -0.023355694)
(-3.1272424e-08 -1.4955312e-07 -0.023355708)
(1.0729386e-08 -6.471001e-08 -0.023355597)
(3.5044941e-08 -7.9507145e-08 -0.023355595)
(2.4986678e-08 -9.7771984e-08 -0.023355595)
(9.9935185e-09 -1.2502467e-07 -0.023355602)
(-4.0954379e-08 -1.5231406e-07 -0.023355613)