/*--------------------------------*- C++ -*----------------------------------*\
| =========                 |                                                 |
| \\      /  F ield         | OpenFOAM: The Open Source CFD Toolbox           |
|  \\    /   O peration     | Version:  v2106                                 |
|   \\  /    A nd           | Website:  www.openfoam.com                      |
|    \\/     M anipulation  |                                                 |
\*---------------------------------------------------------------------------*/
FoamFile
{
    version     2.0;
    format      ascii;
    arch        "LSB;label=32;scalar=64";
    class       volVectorField;
    location    "50";
    object      Tmode_grad3;
}
// * * * * * * * * * * * * * * * * * * * * * * * * * * * * * * * * * * * * * //

dimensions      [0 -1 0 0 0 0 0];

internalField   nonuniform List<vector> 
4000
(
(-8.535361e-08 -8.5353609e-08 -0.42240827)
(-3.8269529e-07 -3.0840744e-07 -0.42240855)
(5.3065704e-07 1.483766e-07 -0.42240913)
(8.6295037e-07 6.706312e-08 -0.42240636)
(-2.3895536e-07 -4.2113701e-08 -0.42240616)
(-6.2036445e-07 -6.8821161e-08 -0.42240738)
(-5.0825934e-07 -5.9497949e-08 -0.42240854)
(-3.3910532e-07 -5.3263424e-08 -0.42240935)
(-2.0560164e-07 -4.4732489e-08 -0.4224099)
(-4.7316692e-08 -3.007311e-09 -0.4224102)
(-3.0840744e-07 -3.8269528e-07 -0.42240855)
(-3.2099978e-08 -3.2099975e-08 -0.42240976)
(1.0938629e-06 5.4663278e-07 -0.42240818)
(5.7721492e-07 2.6866604e-07 -0.42240587)
(-4.4278179e-07 5.14434e-08 -0.42240623)
(-6.4644083e-07 2.858711e-08 -0.42240757)
(-4.8492273e-07 6.6910064e-08 -0.42240868)
(-3.1695713e-07 6.6536296e-08 -0.42240946)
(-1.3021748e-07 4.0651485e-08 -0.42240995)
(-5.5915141e-09 1.1415559e-07 -0.42241)
(1.483766e-07 5.3065703e-07 -0.42240913)
(5.4663278e-07 1.0938629e-06 -0.42240818)
(8.3142305e-07 8.3142305e-07 -0.42240697)
(3.6776099e-07 6.067532e-07 -0.4224052)
(-4.7903429e-07 5.6257379e-07 -0.42240574)
(-6.0489779e-07 6.242845e-07 -0.422407)
(-4.7031015e-07 6.9647998e-07 -0.42240802)
(-3.653639e-07 7.0090575e-07 -0.42240885)
(-1.5798235e-07 6.1289903e-07 -0.42240949)
(1.6860458e-09 5.2496034e-07 -0.4224095)
(6.7063125e-08 8.6295037e-07 -0.42240636)
(2.6866605e-07 5.7721492e-07 -0.42240587)
(6.067532e-07 3.6776098e-07 -0.4224052)
(3.0836566e-07 3.0836566e-07 -0.42240366)
(-4.2525049e-07 3.6045379e-07 -0.42240416)
(-5.1253463e-07 4.6597135e-07 -0.42240524)
(-4.0830148e-07 5.7940896e-07 -0.42240608)
(-4.0053808e-07 6.5090978e-07 -0.42240685)
(-3.0616289e-07 6.3679364e-07 -0.42240767)
(-6.4217308e-08 5.5014698e-07 -0.42240804)
(-4.2113705e-08 -2.3895536e-07 -0.42240616)
(5.1443392e-08 -4.4278179e-07 -0.42240623)
(5.625738e-07 -4.790343e-07 -0.42240574)
(3.6045379e-07 -4.2525049e-07 -0.42240416)
(-3.2142861e-07 -3.2142861e-07 -0.42240448)
(-3.8594262e-07 -1.969608e-07 -0.42240533)
(-2.8537172e-07 -7.0000273e-08 -0.4224059)
(-3.0797922e-07 4.4452583e-08 -0.42240645)
(-2.5874515e-07 1.2877197e-07 -0.42240714)
(-5.607839e-08 1.7795826e-07 -0.42240746)
(-6.8821163e-08 -6.2036446e-07 -0.42240738)
(2.8587109e-08 -6.4644082e-07 -0.42240757)
(6.242845e-07 -6.0489778e-07 -0.422407)
(4.6597135e-07 -5.1253463e-07 -0.42240524)
(-1.969608e-07 -3.8594262e-07 -0.42240533)
(-2.611063e-07 -2.611063e-07 -0.42240592)
(-1.6688809e-07 -1.5445775e-07 -0.42240625)
(-2.0176584e-07 -6.6230477e-08 -0.42240659)
(-1.7265722e-07 2.7407558e-09 -0.42240709)
(-3.142645e-08 4.9893506e-08 -0.42240727)
(-5.9497948e-08 -5.0825934e-07 -0.42240854)
(6.6910065e-08 -4.8492273e-07 -0.42240868)
(6.9647998e-07 -4.7031015e-07 -0.42240802)
(5.7940896e-07 -4.0830148e-07 -0.42240608)
(-7.0000275e-08 -2.8537172e-07 -0.4224059)
(-1.5445775e-07 -1.6688809e-07 -0.42240625)
(-9.0495899e-08 -9.0495902e-08 -0.42240641)
(-1.5078072e-07 -5.3121565e-08 -0.42240662)
(-1.4262116e-07 -4.2338153e-08 -0.42240705)
(-2.4643223e-08 -4.7076518e-08 -0.42240721)
(-5.3263423e-08 -3.3910532e-07 -0.42240935)
(6.6536297e-08 -3.1695712e-07 -0.42240946)
(7.0090575e-07 -3.653639e-07 -0.42240885)
(6.5090978e-07 -4.0053808e-07 -0.42240685)
(4.4452583e-08 -3.0797922e-07 -0.42240645)
(-6.6230479e-08 -2.0176584e-07 -0.42240659)
(-5.3121565e-08 -1.5078072e-07 -0.42240662)
(-1.5360809e-07 -1.5360809e-07 -0.42240682)
(-1.6661217e-07 -1.8426481e-07 -0.42240729)
(-3.458536e-08 -2.1583652e-07 -0.42240751)
(-4.4732487e-08 -2.0560165e-07 -0.4224099)
(4.0651485e-08 -1.3021747e-07 -0.42240995)
(6.1289903e-07 -1.5798235e-07 -0.42240949)
(6.3679363e-07 -3.0616289e-07 -0.42240767)
(1.2877197e-07 -2.5874514e-07 -0.42240714)
(2.7407512e-09 -1.7265721e-07 -0.42240709)
(-4.2338153e-08 -1.4262116e-07 -0.42240705)
(-1.842648e-07 -1.6661217e-07 -0.42240729)
(-2.0484959e-07 -2.0484959e-07 -0.42240784)
(-4.5691035e-08 -2.1608725e-07 -0.42240811)
(-3.0073062e-09 -4.7316696e-08 -0.4224102)
(1.141556e-07 -5.5915143e-09 -0.42241)
(5.2496033e-07 1.6860454e-09 -0.4224095)
(5.5014698e-07 -6.4217311e-08 -0.42240804)
(1.7795826e-07 -5.6078389e-08 -0.42240746)
(4.9893502e-08 -3.1426447e-08 -0.42240727)
(-4.7076522e-08 -2.4643222e-08 -0.42240721)
(-2.1583652e-07 -3.458536e-08 -0.42240751)
(-2.1608726e-07 -4.5691037e-08 -0.42240811)
(-4.2077133e-08 -4.2077135e-08 -0.42240832)
(-3.3274669e-08 -3.327467e-08 -0.41962508)
(-1.5374467e-07 -2.8243092e-07 -0.41962459)
(1.6935259e-06 5.1062875e-07 -0.41962403)
(1.8678636e-06 2.921568e-07 -0.41962242)
(-7.9947169e-07 5.8738447e-08 -0.41962256)
(-1.7078422e-06 1.3147007e-08 -0.4196236)
(-1.4365334e-06 3.8491993e-08 -0.41962458)
(-1.0160245e-06 4.6040006e-08 -0.41962535)
(-6.649008e-07 8.6359196e-08 -0.41962591)
(-1.6502947e-07 2.1468391e-07 -0.41962634)
(-2.8243092e-07 -1.5374467e-07 -0.41962459)
(6.6211046e-07 6.6211046e-07 -0.41962434)
(2.5554075e-06 1.6046014e-06 -0.41962311)
(1.1900281e-06 9.4105095e-07 -0.41962185)
(-1.2179864e-06 4.8404878e-07 -0.41962228)
(-1.7382119e-06 4.7259719e-07 -0.41962333)
(-1.3871939e-06 5.7580164e-07 -0.41962428)
(-9.442237e-07 5.4327283e-07 -0.41962508)
(-4.1193495e-07 4.9147941e-07 -0.41962552)
(-3.6704756e-08 7.0904191e-07 -0.41962562)
(5.1062875e-07 1.6935259e-06 -0.41962403)
(1.6046014e-06 2.5554075e-06 -0.41962311)
(1.9724664e-06 1.9724664e-06 -0.41962214)
(7.4731097e-07 1.4922439e-06 -0.41962116)
(-1.2679254e-06 1.4235806e-06 -0.41962165)
(-1.6160893e-06 1.6129678e-06 -0.41962261)
(-1.3658578e-06 1.8163722e-06 -0.41962348)
(-1.1003467e-06 1.8101791e-06 -0.41962437)
(-4.9913173e-07 1.5676776e-06 -0.41962497)
(-1.9987804e-08 1.3559284e-06 -0.41962506)
(2.9215681e-07 1.8678636e-06 -0.41962242)
(9.4105095e-07 1.1900281e-06 -0.41962185)
(1.4922439e-06 7.4731097e-07 -0.41962116)
(6.4114229e-07 6.411423e-07 -0.41962029)
(-1.0972625e-06 8.073951e-07 -0.4196207)
(-1.3454203e-06 1.1185188e-06 -0.41962147)
(-1.1899827e-06 1.4480743e-06 -0.41962215)
(-1.1929183e-06 1.6477033e-06 -0.41962299)
(-8.661856e-07 1.6134397e-06 -0.41962373)
(-1.7787087e-07 1.4109982e-06 -0.41962404)
(5.8738445e-08 -7.9947169e-07 -0.41962256)
(4.8404878e-07 -1.2179864e-06 -0.41962228)
(1.4235806e-06 -1.2679255e-06 -0.41962165)
(8.073951e-07 -1.0972625e-06 -0.4196207)
(-7.9054897e-07 -7.9054897e-07 -0.41962094)
(-9.7541016e-07 -4.251868e-07 -0.41962147)
(-8.3667322e-07 -5.5422211e-08 -0.4196219)
(-9.3498128e-07 2.6717795e-07 -0.41962254)
(-7.3583682e-07 4.9416217e-07 -0.41962316)
(-1.5494882e-07 6.2111985e-07 -0.41962342)
(1.3147007e-08 -1.7078422e-06 -0.4196236)
(4.7259719e-07 -1.7382119e-06 -0.41962333)
(1.6129678e-06 -1.6160893e-06 -0.41962261)
(1.1185188e-06 -1.3454203e-06 -0.41962147)
(-4.251868e-07 -9.7541016e-07 -0.41962147)
(-6.1029353e-07 -6.1029352e-07 -0.41962176)
(-4.9761792e-07 -3.0117522e-07 -0.41962196)
(-6.4333391e-07 -5.5160255e-08 -0.41962241)
(-5.1224371e-07 1.2311027e-07 -0.41962288)
(-9.3232411e-08 2.2928053e-07 -0.41962305)
(3.8491991e-08 -1.4365334e-06 -0.41962458)
(5.7580164e-07 -1.3871939e-06 -0.41962428)
(1.8163722e-06 -1.3658578e-06 -0.41962348)
(1.4480743e-06 -1.1899827e-06 -0.41962215)
(-5.5422211e-08 -8.3667322e-07 -0.4196219)
(-3.0117522e-07 -4.9761792e-07 -0.41962196)
(-2.8153995e-07 -2.8153996e-07 -0.41962201)
(-5.1069579e-07 -1.8466041e-07 -0.41962236)
(-4.5139604e-07 -1.7208159e-07 -0.4196228)
(-8.4168644e-08 -2.1011491e-07 -0.41962299)
(4.6040003e-08 -1.0160245e-06 -0.41962535)
(5.4327283e-07 -9.4422369e-07 -0.41962508)
(1.8101791e-06 -1.1003467e-06 -0.41962437)
(1.6477033e-06 -1.1929183e-06 -0.41962299)
(2.6717795e-07 -9.3498127e-07 -0.41962254)
(-5.5160256e-08 -6.4333391e-07 -0.41962241)
(-1.8466041e-07 -5.1069579e-07 -0.41962236)
(-5.3387554e-07 -5.3387554e-07 -0.41962272)
(-5.3769821e-07 -6.2989308e-07 -0.41962323)
(-1.1858796e-07 -7.0595088e-07 -0.4196235)
(8.6359198e-08 -6.6490081e-07 -0.41962591)
(4.9147941e-07 -4.1193494e-07 -0.41962552)
(1.5676776e-06 -4.9913173e-07 -0.41962497)
(1.6134397e-06 -8.661856e-07 -0.41962373)
(4.9416217e-07 -7.3583682e-07 -0.41962316)
(1.2311027e-07 -5.1224371e-07 -0.41962288)
(-1.7208158e-07 -4.5139603e-07 -0.4196228)
(-6.2989308e-07 -5.3769821e-07 -0.41962323)
(-6.2347138e-07 -6.2347137e-07 -0.41962381)
(-1.3487385e-07 -5.7104623e-07 -0.41962403)
(2.1468391e-07 -1.6502947e-07 -0.41962634)
(7.0904191e-07 -3.6704758e-08 -0.41962562)
(1.3559284e-06 -1.9987802e-08 -0.41962506)
(1.4109982e-06 -1.7787086e-07 -0.41962404)
(6.2111985e-07 -1.5494882e-07 -0.41962342)
(2.2928053e-07 -9.3232409e-08 -0.41962305)
(-2.1011491e-07 -8.4168642e-08 -0.41962299)
(-7.0595088e-07 -1.1858796e-07 -0.4196235)
(-5.7104623e-07 -1.3487385e-07 -0.41962403)
(-8.3637864e-08 -8.3637865e-08 -0.41962415)
(2.4557294e-07 2.4557294e-07 -0.41447542)
(6.7551025e-07 -1.4202966e-07 -0.41447468)
(2.7008853e-06 7.5710399e-07 -0.41447405)
(2.32355e-06 4.4505881e-07 -0.41447301)
(-1.417584e-06 1.4932828e-07 -0.41447325)
(-2.6385846e-06 1.0835607e-07 -0.41447411)
(-2.2658306e-06 1.4315131e-07 -0.41447495)
(-1.6618535e-06 1.2581294e-07 -0.4144757)
(-1.1890134e-06 2.1338788e-07 -0.41447622)
(-3.3453696e-07 4.7468155e-07 -0.41447668)
(-1.4202966e-07 6.7551026e-07 -0.41447468)
(1.4428068e-06 1.4428068e-06 -0.41447433)
(3.5815181e-06 2.4297009e-06 -0.41447338)
(1.4118864e-06 1.5209937e-06 -0.41447257)
(-1.9226381e-06 9.615555e-07 -0.41447298)
(-2.64785e-06 1.0146089e-06 -0.4144738)
(-2.2396453e-06 1.1738005e-06 -0.41447461)
(-1.5564986e-06 1.0491659e-06 -0.41447547)
(-6.6571048e-07 9.7356437e-07 -0.41447589)
(-7.3243294e-08 1.3923319e-06 -0.414476)
(7.5710399e-07 2.7008853e-06 -0.41447405)
(2.4297008e-06 3.5815181e-06 -0.41447338)
(2.7790722e-06 2.7790722e-06 -0.41447262)
(8.5540465e-07 2.1650687e-06 -0.41447199)
(-1.9239688e-06 2.136738e-06 -0.41447239)
(-2.4263395e-06 2.4810981e-06 -0.41447309)
(-2.2312736e-06 2.8224297e-06 -0.41447381)
(-1.8620897e-06 2.7911884e-06 -0.41447478)
(-8.4584742e-07 2.398596e-06 -0.41447536)
(-5.5358619e-08 2.1037e-06 -0.41447542)
(4.4505881e-07 2.32355e-06 -0.41447301)
(1.5209937e-06 1.4118864e-06 -0.41447257)
(2.1650687e-06 8.5540466e-07 -0.41447199)
(7.6955223e-07 7.6955223e-07 -0.41447139)
(-1.6066087e-06 1.0771454e-06 -0.41447168)
(-1.9621583e-06 1.6044607e-06 -0.41447218)
(-1.929555e-06 2.1545717e-06 -0.41447271)
(-1.9803324e-06 2.4844214e-06 -0.41447362)
(-1.3531988e-06 2.4539953e-06 -0.4144743)
(-2.6984056e-07 2.1933136e-06 -0.41447451)
(1.4932828e-07 -1.417584e-06 -0.41447325)
(9.6155551e-07 -1.9226381e-06 -0.41447298)
(2.136738e-06 -1.9239688e-06 -0.41447239)
(1.0771454e-06 -1.6066087e-06 -0.41447168)
(-1.0890603e-06 -1.0890603e-06 -0.41447178)
(-1.3489133e-06 -4.8557271e-07 -0.41447204)
(-1.3513129e-06 1.1806462e-07 -0.41447233)
(-1.562666e-06 6.3163212e-07 -0.41447305)
(-1.1369552e-06 9.8147231e-07 -0.41447362)
(-2.2914643e-07 1.1682079e-06 -0.41447379)
(1.0835607e-07 -2.6385846e-06 -0.41447411)
(1.0146089e-06 -2.64785e-06 -0.4144738)
(2.4810981e-06 -2.4263395e-06 -0.41447309)
(1.6044607e-06 -1.9621583e-06 -0.41447218)
(-4.855727e-07 -1.3489133e-06 -0.41447204)
(-7.5503336e-07 -7.5503336e-07 -0.41447207)
(-8.1235022e-07 -2.6251724e-07 -0.41447214)
(-1.1169247e-06 1.1134483e-07 -0.41447269)
(-8.16623e-07 3.5759409e-07 -0.41447316)
(-1.4535014e-07 4.7093778e-07 -0.41447329)
(1.4315131e-07 -2.2658306e-06 -0.41447495)
(1.1738005e-06 -2.2396453e-06 -0.41447461)
(2.8224297e-06 -2.2312736e-06 -0.41447381)
(2.1545717e-06 -1.929555e-06 -0.41447271)
(1.1806461e-07 -1.3513129e-06 -0.41447233)
(-2.6251724e-07 -8.1235022e-07 -0.41447214)
(-4.8493473e-07 -4.8493473e-07 -0.41447209)
(-9.4255473e-07 -3.6491684e-07 -0.41447258)
(-7.7736225e-07 -3.9084702e-07 -0.41447306)
(-1.5358396e-07 -4.9774355e-07 -0.41447327)
(1.2581294e-07 -1.6618535e-06 -0.4144757)
(1.0491659e-06 -1.5564986e-06 -0.41447547)
(2.7911884e-06 -1.8620897e-06 -0.41447478)
(2.4844214e-06 -1.9803324e-06 -0.41447362)
(6.3163212e-07 -1.562666e-06 -0.41447305)
(1.1134483e-07 -1.1169247e-06 -0.41447269)
(-3.6491683e-07 -9.4255472e-07 -0.41447258)
(-1.022837e-06 -1.022837e-06 -0.41447312)
(-9.4944972e-07 -1.1905603e-06 -0.4144737)
(-2.1661449e-07 -1.2525189e-06 -0.41447398)
(2.1338788e-07 -1.1890134e-06 -0.41447622)
(9.7356438e-07 -6.6571048e-07 -0.41447589)
(2.398596e-06 -8.4584742e-07 -0.41447536)
(2.4539953e-06 -1.3531988e-06 -0.4144743)
(9.8147231e-07 -1.1369552e-06 -0.41447362)
(3.5759408e-07 -8.16623e-07 -0.41447316)
(-3.9084702e-07 -7.7736225e-07 -0.41447306)
(-1.1905603e-06 -9.4944971e-07 -0.4144737)
(-1.0070442e-06 -1.0070442e-06 -0.41447431)
(-1.9488972e-07 -8.6360549e-07 -0.41447437)
(4.7468155e-07 -3.3453696e-07 -0.41447668)
(1.3923319e-06 -7.3243294e-08 -0.414476)
(2.1037e-06 -5.5358618e-08 -0.41447542)
(2.1933136e-06 -2.6984056e-07 -0.41447451)
(1.1682079e-06 -2.2914643e-07 -0.41447379)
(4.7093779e-07 -1.4535014e-07 -0.41447329)
(-4.9774355e-07 -1.5358396e-07 -0.41447327)
(-1.2525189e-06 -2.1661449e-07 -0.41447398)
(-8.6360549e-07 -1.9488972e-07 -0.41447437)
(-1.209887e-07 -1.209887e-07 -0.41447449)
(4.6019878e-07 4.6019878e-07 -0.40672734)
(1.2204909e-06 -4.9064453e-08 -0.40672686)
(3.367055e-06 9.5385968e-07 -0.40672651)
(2.6589019e-06 5.8135655e-07 -0.40672565)
(-1.901902e-06 2.4465383e-07 -0.40672578)
(-3.4012346e-06 2.1871804e-07 -0.40672643)
(-3.0278269e-06 2.6096916e-07 -0.40672713)
(-2.2865008e-06 1.9674007e-07 -0.40672787)
(-1.6477125e-06 3.0478156e-07 -0.4067284)
(-4.744971e-07 6.7167937e-07 -0.40672881)
(-4.9064453e-08 1.2204909e-06 -0.40672686)
(1.9609823e-06 1.9609823e-06 -0.4067267)
(4.3126865e-06 3.0269574e-06 -0.40672602)
(1.5950932e-06 1.9560925e-06 -0.40672531)
(-2.4458597e-06 1.3475413e-06 -0.40672555)
(-3.3767616e-06 1.492638e-06 -0.40672614)
(-3.0607939e-06 1.7108349e-06 -0.4067268)
(-2.2207822e-06 1.4665549e-06 -0.40672769)
(-9.353035e-07 1.3543053e-06 -0.40672815)
(-1.0759928e-07 1.9682043e-06 -0.40672826)
(9.5385968e-07 3.367055e-06 -0.40672651)
(3.0269574e-06 4.3126865e-06 -0.40672602)
(3.3621652e-06 3.3621652e-06 -0.40672547)
(9.7948576e-07 2.6703367e-06 -0.40672488)
(-2.3653565e-06 2.7157455e-06 -0.40672509)
(-3.037941e-06 3.2326522e-06 -0.40672553)
(-3.05391e-06 3.7183446e-06 -0.4067261)
(-2.6430304e-06 3.6661922e-06 -0.40672708)
(-1.1460631e-06 3.1617547e-06 -0.40672766)
(-6.5231115e-08 2.8419685e-06 -0.40672769)
(5.8135655e-07 2.6589019e-06 -0.40672565)
(1.9560925e-06 1.5950932e-06 -0.40672531)
(2.6703367e-06 9.7948576e-07 -0.40672488)
(9.4867341e-07 9.486734e-07 -0.4067243)
(-1.8835443e-06 1.4147348e-06 -0.40672437)
(-2.3741626e-06 2.1639857e-06 -0.40672461)
(-2.6272539e-06 2.9300396e-06 -0.40672499)
(-2.777372e-06 3.3781074e-06 -0.40672592)
(-1.7595272e-06 3.3502633e-06 -0.40672658)
(-3.2079013e-07 3.0427896e-06 -0.40672673)
(2.4465383e-07 -1.901902e-06 -0.40672578)
(1.3475413e-06 -2.4458597e-06 -0.40672555)
(2.7157455e-06 -2.3653565e-06 -0.40672509)
(1.4147348e-06 -1.8835443e-06 -0.40672437)
(-1.1500442e-06 -1.1500442e-06 -0.40672425)
(-1.5226361e-06 -3.119908e-07 -0.40672425)
(-1.8397883e-06 5.122588e-07 -0.4067244)
(-2.2228067e-06 1.1916486e-06 -0.40672515)
(-1.4813809e-06 1.6318961e-06 -0.40672574)
(-2.7021359e-07 1.8418419e-06 -0.40672587)
(2.1871804e-07 -3.4012346e-06 -0.40672643)
(1.492638e-06 -3.3767616e-06 -0.40672614)
(3.2326522e-06 -3.037941e-06 -0.40672553)
(2.1639857e-06 -2.3741626e-06 -0.40672461)
(-3.119908e-07 -1.5226361e-06 -0.40672425)
(-7.1185955e-07 -7.1185955e-07 -0.40672402)
(-1.1236145e-06 -5.6341365e-08 -0.40672397)
(-1.6577347e-06 4.1281873e-07 -0.40672459)
(-1.1093339e-06 6.8349956e-07 -0.40672511)
(-1.8082626e-07 7.5464396e-07 -0.40672525)
(2.6096916e-07 -3.0278269e-06 -0.40672713)
(1.7108349e-06 -3.0607939e-06 -0.4067268)
(3.7183446e-06 -3.05391e-06 -0.4067261)
(2.9300396e-06 -2.6272539e-06 -0.40672499)
(5.122588e-07 -1.8397883e-06 -0.4067244)
(-5.6341364e-08 -1.1236145e-06 -0.40672397)
(-7.1511003e-07 -7.1511003e-07 -0.40672381)
(-1.4829658e-06 -6.1074477e-07 -0.40672441)
(-1.1395557e-06 -7.1247947e-07 -0.40672499)
(-2.2278399e-07 -9.0303871e-07 -0.40672525)
(1.9674007e-07 -2.2865008e-06 -0.40672787)
(1.4665549e-06 -2.2207822e-06 -0.40672769)
(3.6661922e-06 -2.6430304e-06 -0.40672708)
(3.3781074e-06 -2.777372e-06 -0.40672592)
(1.1916486e-06 -2.2228067e-06 -0.40672515)
(4.1281873e-07 -1.6577347e-06 -0.40672459)
(-6.1074477e-07 -1.4829658e-06 -0.40672441)
(-1.6551042e-06 -1.6551042e-06 -0.4067251)
(-1.4016279e-06 -1.8796182e-06 -0.40672581)
(-3.0786576e-07 -1.8129923e-06 -0.40672613)
(3.0478156e-07 -1.6477125e-06 -0.4067284)
(1.3543053e-06 -9.353035e-07 -0.40672815)
(3.1617547e-06 -1.1460631e-06 -0.40672766)
(3.3502633e-06 -1.7595272e-06 -0.40672658)
(1.6318961e-06 -1.4813809e-06 -0.40672574)
(6.8349956e-07 -1.1093339e-06 -0.40672511)
(-7.1247947e-07 -1.1395557e-06 -0.40672499)
(-1.8796182e-06 -1.4016279e-06 -0.40672581)
(-1.2974438e-06 -1.2974438e-06 -0.4067265)
(-1.7836674e-07 -1.076744e-06 -0.40672643)
(6.7167937e-07 -4.744971e-07 -0.40672881)
(1.9682043e-06 -1.0759929e-07 -0.40672826)
(2.8419685e-06 -6.5231116e-08 -0.40672769)
(3.0427896e-06 -3.2079013e-07 -0.40672673)
(1.8418419e-06 -2.7021358e-07 -0.40672587)
(7.5464396e-07 -1.8082626e-07 -0.40672525)
(-9.0303871e-07 -2.2278398e-07 -0.40672525)
(-1.8129923e-06 -3.0786576e-07 -0.40672613)
(-1.076744e-06 -1.7836674e-07 -0.40672643)
(-1.6073256e-07 -1.6073256e-07 -0.40672654)
(5.6163713e-07 5.6163713e-07 -0.39635485)
(1.5012378e-06 -3.0556618e-08 -0.39635461)
(3.912157e-06 1.0854095e-06 -0.39635436)
(3.0541046e-06 6.7381172e-07 -0.3963535)
(-2.191094e-06 3.0595715e-07 -0.39635344)
(-3.981919e-06 3.0200846e-07 -0.39635387)
(-3.7124007e-06 3.5701543e-07 -0.39635441)
(-2.9385616e-06 2.4876098e-07 -0.39635511)
(-2.1291047e-06 3.8111996e-07 -0.39635565)
(-6.0856562e-07 8.4271864e-07 -0.39635603)
(-3.0556621e-08 1.5012378e-06 -0.39635461)
(2.2868963e-06 2.2868963e-06 -0.39635459)
(4.9687095e-06 3.4742596e-06 -0.396354)
(1.8849262e-06 2.2907458e-06 -0.39635324)
(-2.7487989e-06 1.6580174e-06 -0.39635327)
(-3.9053316e-06 1.9116659e-06 -0.39635363)
(-3.792272e-06 2.1998796e-06 -0.39635412)
(-2.9024049e-06 1.8447433e-06 -0.39635494)
(-1.2381682e-06 1.7182818e-06 -0.39635541)
(-1.4696694e-07 2.5187997e-06 -0.39635552)
(1.0854095e-06 3.912157e-06 -0.39635436)
(3.4742596e-06 4.9687095e-06 -0.396354)
(3.9160065e-06 3.9160065e-06 -0.39635349)
(1.2378624e-06 3.1751178e-06 -0.39635282)
(-2.5701738e-06 3.3106726e-06 -0.3963528)
(-3.4400568e-06 4.0082549e-06 -0.39635301)
(-3.7793234e-06 4.6385267e-06 -0.3963534)
(-3.4201595e-06 4.564461e-06 -0.39635431)
(-1.4550483e-06 3.9654222e-06 -0.39635488)
(-7.488703e-08 3.6333945e-06 -0.3963549)
(6.7381172e-07 3.0541046e-06 -0.3963535)
(2.2907458e-06 1.8849262e-06 -0.39635324)
(3.1751178e-06 1.2378624e-06 -0.39635282)
(1.2795923e-06 1.2795923e-06 -0.39635215)
(-1.9156618e-06 1.9129706e-06 -0.39635199)
(-2.5774775e-06 2.8852976e-06 -0.39635198)
(-3.2360659e-06 3.8586024e-06 -0.39635219)
(-3.5755094e-06 4.4080493e-06 -0.39635307)
(-2.1692347e-06 4.3695659e-06 -0.39635372)
(-3.6831879e-07 4.006957e-06 -0.39635386)
(3.0595715e-07 -2.191094e-06 -0.39635344)
(1.6580174e-06 -2.7487989e-06 -0.39635327)
(3.3106726e-06 -2.5701738e-06 -0.3963528)
(1.9129706e-06 -1.9156618e-06 -0.39635199)
(-9.6446847e-07 -9.6446847e-07 -0.39635163)
(-1.494425e-06 1.0385545e-07 -0.39635139)
(-2.2565717e-06 1.1353402e-06 -0.39635138)
(-2.909196e-06 1.9561552e-06 -0.39635211)
(-1.8561406e-06 2.4549334e-06 -0.39635271)
(-3.166263e-07 2.6544729e-06 -0.39635285)
(3.0200846e-07 -3.981919e-06 -0.39635387)
(1.9116659e-06 -3.9053316e-06 -0.39635363)
(4.0082549e-06 -3.4400568e-06 -0.39635301)
(2.8852976e-06 -2.5774775e-06 -0.39635198)
(1.0385545e-07 -1.494425e-06 -0.39635139)
(-4.7766882e-07 -4.7766882e-07 -0.39635093)
(-1.3837661e-06 3.2191995e-07 -0.39635074)
(-2.2559162e-06 8.5624772e-07 -0.39635135)
(-1.470917e-06 1.1113651e-06 -0.39635191)
(-2.3529245e-07 1.0978303e-06 -0.39635209)
(3.5701543e-07 -3.7124007e-06 -0.39635441)
(2.1998796e-06 -3.792272e-06 -0.39635412)
(4.6385267e-06 -3.7793234e-06 -0.3963534)
(3.8586024e-06 -3.2360659e-06 -0.39635219)
(1.1353402e-06 -2.2565717e-06 -0.39635138)
(3.2191995e-07 -1.3837661e-06 -0.39635074)
(-9.2265515e-07 -9.2265515e-07 -0.39635046)
(-2.1197509e-06 -8.7232151e-07 -0.39635107)
(-1.6145581e-06 -1.0892946e-06 -0.39635173)
(-3.2564952e-07 -1.3832136e-06 -0.39635208)
(2.4876098e-07 -2.9385616e-06 -0.39635511)
(1.8447433e-06 -2.9024049e-06 -0.39635494)
(4.564461e-06 -3.4201595e-06 -0.39635431)
(4.4080493e-06 -3.5755093e-06 -0.39635307)
(1.9561552e-06 -2.909196e-06 -0.39635211)
(8.5624773e-07 -2.2559162e-06 -0.39635135)
(-8.7232151e-07 -2.1197509e-06 -0.39635107)
(-2.4225557e-06 -2.4225557e-06 -0.39635182)
(-1.9818091e-06 -2.7073487e-06 -0.39635265)
(-4.3123844e-07 -2.4325539e-06 -0.39635306)
(3.8111996e-07 -2.1291047e-06 -0.39635565)
(1.7182818e-06 -1.2381682e-06 -0.39635541)
(3.9654222e-06 -1.4550483e-06 -0.39635488)
(4.3695659e-06 -2.1692347e-06 -0.39635372)
(2.4549334e-06 -1.8561406e-06 -0.39635271)
(1.1113651e-06 -1.470917e-06 -0.39635191)
(-1.0892946e-06 -1.6145581e-06 -0.39635173)
(-2.7073487e-06 -1.9818091e-06 -0.39635265)
(-1.6245564e-06 -1.6245564e-06 -0.39635345)
(-1.4245299e-07 -1.2725174e-06 -0.39635335)
(8.4271864e-07 -6.0856562e-07 -0.39635603)
(2.5187997e-06 -1.4696694e-07 -0.39635552)
(3.6333945e-06 -7.4887031e-08 -0.3963549)
(4.006957e-06 -3.6831879e-07 -0.39635386)
(2.6544729e-06 -3.1662629e-07 -0.39635285)
(1.0978303e-06 -2.3529245e-07 -0.39635209)
(-1.3832136e-06 -3.2564952e-07 -0.39635208)
(-2.4325539e-06 -4.3123844e-07 -0.39635306)
(-1.2725174e-06 -1.4245299e-07 -0.39635335)
(-1.9654581e-07 -1.965458e-07 -0.39635347)
(6.1579931e-07 6.1579931e-07 -0.38332434)
(1.7085987e-06 -3.4962554e-08 -0.38332418)
(4.478775e-06 1.1924583e-06 -0.38332389)
(3.5733189e-06 7.5626172e-07 -0.38332298)
(-2.2719504e-06 3.6156859e-07 -0.38332273)
(-4.3670925e-06 3.8260653e-07 -0.38332295)
(-4.2620989e-06 4.5364817e-07 -0.38332332)
(-3.5284634e-06 3.0510093e-07 -0.38332391)
(-2.5733218e-06 4.6344689e-07 -0.3833244)
(-7.2750585e-07 1.0114344e-06 -0.38332473)
(-3.4962555e-08 1.7085987e-06 -0.38332418)
(2.5735871e-06 2.5735871e-06 -0.38332418)
(5.6656114e-06 3.8984056e-06 -0.38332357)
(2.3269844e-06 2.6332592e-06 -0.38332272)
(-2.8324332e-06 1.9868535e-06 -0.38332254)
(-4.2289731e-06 2.3549735e-06 -0.38332269)
(-4.3783573e-06 2.7175834e-06 -0.38332301)
(-3.5137654e-06 2.258752e-06 -0.38332372)
(-1.5138216e-06 2.1278062e-06 -0.38332414)
(-1.7951831e-07 3.1004504e-06 -0.38332422)
(1.1924583e-06 4.478775e-06 -0.38332389)
(3.8984056e-06 5.6656114e-06 -0.38332357)
(4.538447e-06 4.538447e-06 -0.38332301)
(1.6617668e-06 3.7631255e-06 -0.38332224)
(-2.5502361e-06 3.9953155e-06 -0.38332201)
(-3.6363626e-06 4.8744132e-06 -0.38332201)
(-4.3583204e-06 5.6441057e-06 -0.38332223)
(-4.1182407e-06 5.5432064e-06 -0.38332302)
(-1.7316234e-06 4.8544975e-06 -0.38332352)
(-7.9076371e-08 4.5083447e-06 -0.38332352)
(7.5626172e-07 3.5733189e-06 -0.38332298)
(2.6332592e-06 2.3269844e-06 -0.38332272)
(3.7631255e-06 1.6617668e-06 -0.38332224)
(1.7838528e-06 1.7838528e-06 -0.38332144)
(-1.7211455e-06 2.5879662e-06 -0.38332108)
(-2.5801828e-06 3.7812862e-06 -0.38332086)
(-3.7095641e-06 4.9517544e-06 -0.38332091)
(-4.3033736e-06 5.5861615e-06 -0.38332168)
(-2.5486833e-06 5.5227036e-06 -0.38332227)
(-4.1028683e-07 5.093857e-06 -0.38332239)
(3.6156859e-07 -2.2719504e-06 -0.38332273)
(1.9868535e-06 -2.8324332e-06 -0.38332254)
(3.9953155e-06 -2.5502361e-06 -0.38332201)
(2.5879662e-06 -1.7211455e-06 -0.38332108)
(-5.5280262e-07 -5.5280262e-07 -0.38332051)
(-1.2725744e-06 7.4125846e-07 -0.38332007)
(-2.5534452e-06 1.9684404e-06 -0.3833199)
(-3.5472915e-06 2.9105454e-06 -0.38332054)
(-2.2239278e-06 3.4420072e-06 -0.3833211)
(-3.6497411e-07 3.6047977e-06 -0.38332124)
(3.8260653e-07 -4.3670925e-06 -0.38332295)
(2.3549735e-06 -4.2289731e-06 -0.38332269)
(4.8744132e-06 -3.6363625e-06 -0.38332201)
(3.7812862e-06 -2.5801828e-06 -0.38332086)
(7.4125846e-07 -1.2725744e-06 -0.38332007)
(-5.8939833e-08 -5.8939832e-08 -0.38331941)
(-1.5402772e-06 8.6974815e-07 -0.38331907)
(-2.8298068e-06 1.4458217e-06 -0.38331961)
(-1.854431e-06 1.6545338e-06 -0.38332016)
(-3.0175986e-07 1.5242559e-06 -0.38332036)
(4.5364817e-07 -4.2620989e-06 -0.38332332)
(2.7175834e-06 -4.3783573e-06 -0.38332301)
(5.6441057e-06 -4.3583204e-06 -0.38332223)
(4.9517544e-06 -3.7095641e-06 -0.38332091)
(1.9684404e-06 -2.5534452e-06 -0.3833199)
(8.6974815e-07 -1.5402772e-06 -0.38331907)
(-1.0486837e-06 -1.0486837e-06 -0.38331866)
(-2.7625059e-06 -1.0827803e-06 -0.38331923)
(-2.1454936e-06 -1.4479283e-06 -0.38331991)
(-4.5182602e-07 -1.8666602e-06 -0.3833203)
(3.0510092e-07 -3.5284634e-06 -0.38332391)
(2.258752e-06 -3.5137654e-06 -0.38332372)
(5.5432064e-06 -4.1182407e-06 -0.38332302)
(5.5861615e-06 -4.3033736e-06 -0.38332168)
(2.9105454e-06 -3.5472915e-06 -0.38332054)
(1.4458217e-06 -2.8298068e-06 -0.38331961)
(-1.0827803e-06 -2.7625059e-06 -0.38331923)
(-3.2290514e-06 -3.2290514e-06 -0.38331995)
(-2.6383108e-06 -3.590432e-06 -0.38332082)
(-5.8091445e-07 -3.0846338e-06 -0.38332129)
(4.6344689e-07 -2.5733218e-06 -0.3833244)
(2.1278062e-06 -1.5138216e-06 -0.38332414)
(4.8544975e-06 -1.7316233e-06 -0.38332352)
(5.5227036e-06 -2.5486833e-06 -0.38332227)
(3.4420072e-06 -2.2239278e-06 -0.3833211)
(1.6545338e-06 -1.854431e-06 -0.38332016)
(-1.4479283e-06 -2.1454936e-06 -0.38331991)
(-3.590432e-06 -2.6383108e-06 -0.38332082)
(-2.001076e-06 -2.001076e-06 -0.38332167)
(-1.1462722e-07 -1.4860687e-06 -0.3833216)
(1.0114344e-06 -7.2750584e-07 -0.38332473)
(3.1004504e-06 -1.7951831e-07 -0.38332422)
(4.5083447e-06 -7.9076372e-08 -0.38332352)
(5.093857e-06 -4.1028683e-07 -0.38332239)
(3.6047976e-06 -3.6497411e-07 -0.38332124)
(1.5242559e-06 -3.0175986e-07 -0.38332036)
(-1.8666602e-06 -4.5182603e-07 -0.3833203)
(-3.0846338e-06 -5.8091445e-07 -0.38332129)
(-1.4860687e-06 -1.1462722e-07 -0.3833216)
(-2.3757625e-07 -2.3757625e-07 -0.38332174)
(6.6581495e-07 6.6581495e-07 -0.36759698)
(1.9430222e-06 -3.08466e-08 -0.36759681)
(5.1103286e-06 1.2995349e-06 -0.36759646)
(4.217601e-06 8.5040102e-07 -0.36759549)
(-2.1641046e-06 4.3038001e-07 -0.36759507)
(-4.5744101e-06 4.7635063e-07 -0.36759512)
(-4.6673026e-06 5.6383282e-07 -0.36759534)
(-4.0198402e-06 3.7709608e-07 -0.36759581)
(-2.9519093e-06 5.5943275e-07 -0.36759623)
(-8.2709221e-07 1.1838947e-06 -0.3675965)
(-3.08466e-08 1.9430222e-06 -0.36759681)
(2.8936021e-06 2.8936021e-06 -0.36759677)
(6.4322001e-06 4.3566026e-06 -0.36759613)
(2.9138687e-06 3.032793e-06 -0.36759518)
(-2.7251802e-06 2.3759613e-06 -0.36759483)
(-4.3742309e-06 2.8572804e-06 -0.36759481)
(-4.8161844e-06 3.2924169e-06 -0.36759498)
(-4.0264403e-06 2.7342525e-06 -0.36759556)
(-1.7417114e-06 2.600953e-06 -0.36759592)
(-2.026303e-07 3.7272485e-06 -0.36759598)
(1.2995349e-06 5.1103286e-06 -0.36759646)
(4.3566026e-06 6.4322001e-06 -0.36759613)
(5.2495195e-06 5.2495195e-06 -0.3675955)
(2.2369597e-06 4.4477259e-06 -0.36759463)
(-2.3396172e-06 4.7780455e-06 -0.36759423)
(-3.6579544e-06 5.8356831e-06 -0.36759406)
(-4.7903305e-06 6.7372251e-06 -0.36759413)
(-4.7113041e-06 6.60494e-06 -0.3675948)
(-1.9589132e-06 5.8303167e-06 -0.36759522)
(-7.6228533e-08 5.4676099e-06 -0.3675952)
(8.5040102e-07 4.217601e-06 -0.36759549)
(3.032793e-06 2.9138687e-06 -0.36759518)
(4.4477259e-06 2.2369597e-06 -0.36759463)
(2.4423947e-06 2.4423947e-06 -0.36759373)
(-1.337223e-06 3.4175856e-06 -0.36759319)
(-2.4150513e-06 4.828322e-06 -0.36759282)
(-4.0469275e-06 6.1859826e-06 -0.36759273)
(-4.9333487e-06 6.8913434e-06 -0.36759338)
(-2.8790414e-06 6.7919189e-06 -0.3675939)
(-4.4443479e-07 6.2894818e-06 -0.36759399)
(4.3038001e-07 -2.1641046e-06 -0.36759507)
(2.3759613e-06 -2.7251802e-06 -0.36759483)
(4.7780455e-06 -2.3396172e-06 -0.36759423)
(3.4175856e-06 -1.337223e-06 -0.36759319)
(4.6310195e-08 4.6310195e-08 -0.36759244)
(-8.8955735e-07 1.5618192e-06 -0.36759184)
(-2.7273092e-06 2.9752883e-06 -0.36759156)
(-4.1053679e-06 4.0231364e-06 -0.36759209)
(-2.5607748e-06 4.5681196e-06 -0.36759259)
(-4.1118656e-07 4.6756144e-06 -0.36759273)
(4.7635063e-07 -4.5744101e-06 -0.36759512)
(2.8572804e-06 -4.3742309e-06 -0.36759481)
(5.8356831e-06 -3.6579544e-06 -0.36759406)
(4.828322e-06 -2.4150513e-06 -0.36759282)
(1.5618192e-06 -8.8955735e-07 -0.36759184)
(5.1392682e-07 5.1392682e-07 -0.36759103)
(-1.5856103e-06 1.5610539e-06 -0.36759058)
(-3.3405175e-06 2.1628427e-06 -0.36759103)
(-2.2265635e-06 2.3045301e-06 -0.36759154)
(-3.7277157e-07 2.0368911e-06 -0.36759175)
(5.6383282e-07 -4.6673025e-06 -0.36759534)
(3.2924169e-06 -4.8161844e-06 -0.36759498)
(6.7372251e-06 -4.7903305e-06 -0.36759413)
(6.1859826e-06 -4.0469275e-06 -0.36759273)
(2.9752883e-06 -2.7273092e-06 -0.36759156)
(1.5610539e-06 -1.5856103e-06 -0.36759058)
(-1.0783933e-06 -1.0783933e-06 -0.36759007)
(-3.3618916e-06 -1.2169766e-06 -0.36759056)
(-2.6867264e-06 -1.7522815e-06 -0.36759121)
(-5.8961259e-07 -2.3107266e-06 -0.36759163)
(3.7709607e-07 -4.0198401e-06 -0.36759581)
(2.7342524e-06 -4.0264403e-06 -0.36759556)
(6.60494e-06 -4.7113041e-06 -0.3675948)
(6.8913434e-06 -4.9333487e-06 -0.36759338)
(4.0231364e-06 -4.1053679e-06 -0.36759209)
(2.1628427e-06 -3.3405175e-06 -0.36759103)
(-1.2169766e-06 -3.3618916e-06 -0.36759056)
(-4.0144056e-06 -4.0144056e-06 -0.36759122)
(-3.3203135e-06 -4.4680367e-06 -0.36759208)
(-7.4506832e-07 -3.7330291e-06 -0.36759258)