/*--------------------------------*- C++ -*----------------------------------*\
| =========                 |                                                 |
| \\      /  F ield         | OpenFOAM: The Open Source CFD Toolbox           |
|  \\    /   O peration     | Version:  v2106                                 |
|   \\  /    A nd           | Website:  www.openfoam.com                      |
|    \\/     M anipulation  |                                                 |
\*---------------------------------------------------------------------------*/
FoamFile
{
    version     2.0;
    format      ascii;
    arch        "LSB;label=32;scalar=64";
    class       volVectorField;
    location    "50";
    object      Tmode_grad2;
}
// * * * * * * * * * * * * * * * * * * * * * * * * * * * * * * * * * * * * * //

dimensions      [0 -1 0 0 0 0 0];

internalField   nonuniform List<vector> 
4000
(
(-6.2261912e-08 -6.2261944e-08 -0.011460162)
(-2.4002055e-07 -1.7219733e-07 -0.011460129)
(2.8189834e-07 8.9043395e-08 -0.011460108)
(3.9339085e-07 9.9384657e-09 -0.011459774)
(-2.2031529e-07 -4.3974545e-08 -0.011459851)
(-3.2689539e-07 -5.2129601e-08 -0.011460062)
(-2.2010015e-07 -4.3445775e-08 -0.011460224)
(-1.2340148e-07 -3.7071855e-08 -0.011460323)
(-6.8851594e-08 -2.9644674e-08 -0.011460389)
(-1.5890001e-08 -3.5441677e-09 -0.011460437)
(-1.721973e-07 -2.4002056e-07 -0.011460129)
(-1.3062541e-08 -1.3062591e-08 -0.01146012)
(5.5510203e-07 2.7575991e-07 -0.011459917)
(1.9386394e-07 7.2998029e-08 -0.011459688)
(-3.1341739e-07 -2.8581702e-08 -0.011459824)
(-3.2610223e-07 -2.63765e-08 -0.011460036)
(-1.9751353e-07 4.1879926e-09 -0.011460183)
(-1.0269983e-07 1.1279457e-08 -0.011460276)
(-1.8560064e-08 -1.9443281e-10 -0.011460319)
(1.0210506e-08 4.1778163e-08 -0.011460312)
(8.9043403e-08 2.8189838e-07 -0.011460108)
(2.7575993e-07 5.5510203e-07 -0.011459917)
(3.6795896e-07 3.6795896e-07 -0.011459785)
(8.9049241e-08 2.5415886e-07 -0.011459621)
(-3.1968982e-07 2.4302969e-07 -0.01145977)
(-2.941257e-07 2.8532555e-07 -0.011459961)
(-1.8244419e-07 3.3407669e-07 -0.011460088)
(-1.277839e-07 3.4658648e-07 -0.011460189)
(-3.8352889e-08 3.0176364e-07 -0.011460261)
(1.209173e-08 2.4937441e-07 -0.01146025)
(9.9384671e-09 3.9339087e-07 -0.011459774)
(7.2998033e-08 1.9386395e-07 -0.011459688)
(2.5415886e-07 8.9049238e-08 -0.011459621)
(6.8934676e-08 6.8934674e-08 -0.011459478)
(-2.822507e-07 1.0383638e-07 -0.011459612)
(-2.3505523e-07 1.6578937e-07 -0.011459768)
(-1.362526e-07 2.3522822e-07 -0.011459854)
(-1.3501288e-07 2.8759005e-07 -0.011459938)
(-1.1577213e-07 2.9433117e-07 -0.011460033)
(-2.4715646e-08 2.5568789e-07 -0.011460071)
(-4.3974545e-08 -2.2031529e-07 -0.011459851)
(-2.8581706e-08 -3.1341739e-07 -0.011459824)
(2.4302968e-07 -3.1968982e-07 -0.01145977)
(1.0383638e-07 -2.822507e-07 -0.011459612)
(-2.2283513e-07 -2.2283513e-07 -0.011459714)
(-1.6273386e-07 -1.5468102e-07 -0.011459825)
(-6.0643506e-08 -8.3565746e-08 -0.011459862)
(-6.868095e-08 -1.4812303e-08 -0.0114599)
(-7.0255042e-08 4.2298112e-08 -0.011459963)
(-1.3670451e-08 8.0958581e-08 -0.011459984)
(-5.2129601e-08 -3.2689539e-07 -0.011460062)
(-2.6376502e-08 -3.2610223e-07 -0.011460036)
(2.8532555e-07 -2.9412569e-07 -0.011459961)
(1.6578937e-07 -2.3505523e-07 -0.011459768)
(-1.5468102e-07 -1.6273386e-07 -0.011459825)
(-9.5785848e-08 -9.5785847e-08 -0.011459892)
(3.6161175e-09 -3.9092028e-08 -0.011459887)
(-9.1490178e-09 8.3936951e-09 -0.011459887)
(-2.000125e-08 4.6456639e-08 -0.011459917)
(1.0579997e-09 7.3181189e-08 -0.011459915)
(-4.3445774e-08 -2.2010015e-07 -0.011460224)
(4.1879938e-09 -1.9751353e-07 -0.011460183)
(3.3407669e-07 -1.8244419e-07 -0.011460088)
(2.3522821e-07 -1.362526e-07 -0.011459854)
(-8.3565743e-08 -6.0643508e-08 -0.011459862)
(-3.9092028e-08 3.6161175e-09 -0.011459887)
(4.3536036e-08 4.3536034e-08 -0.011459852)
(1.6867717e-08 6.2222493e-08 -0.011459832)
(-5.4675476e-09 6.5892113e-08 -0.011459854)
(4.1459152e-09 6.0650508e-08 -0.011459851)
(-3.7071854e-08 -1.2340148e-07 -0.011460323)
(1.1279457e-08 -1.0269982e-07 -0.011460276)
(3.4658648e-07 -1.277839e-07 -0.011460189)
(2.8759005e-07 -1.3501288e-07 -0.011459938)
(-1.48123e-08 -6.8680947e-08 -0.0114599)
(8.3936939e-09 -9.1490168e-09 -0.011459887)
(6.2222493e-08 1.6867716e-08 -0.011459832)
(1.3207061e-08 1.3207056e-08 -0.011459812)
(-2.1573235e-08 -6.9372191e-09 -0.011459845)
(-2.4364037e-09 -2.8951191e-08 -0.01145986)
(-2.9644672e-08 -6.8851594e-08 -0.011460389)
(-1.9443423e-10 -1.8560067e-08 -0.011460319)
(3.0176363e-07 -3.8352888e-08 -0.011460261)
(2.9433117e-07 -1.1577213e-07 -0.011460033)
(4.2298116e-08 -7.025504e-08 -0.011459963)
(4.6456635e-08 -2.000125e-08 -0.011459917)
(6.5892108e-08 -5.4675421e-09 -0.011459854)
(-6.9372185e-09 -2.1573235e-08 -0.011459845)
(-4.7625795e-08 -4.7625798e-08 -0.011459896)
(-1.0530066e-08 -6.0666317e-08 -0.01145992)
(-3.5441688e-09 -1.589e-08 -0.011460437)
(4.1778163e-08 1.0210503e-08 -0.011460312)
(2.4937441e-07 1.2091732e-08 -0.01146025)
(2.5568789e-07 -2.4715646e-08 -0.011460071)
(8.0958583e-08 -1.3670453e-08 -0.011459984)
(7.3181192e-08 1.0579982e-09 -0.011459915)
(6.0650508e-08 4.1459178e-09 -0.011459851)
(-2.8951195e-08 -2.4364018e-09 -0.01145986)
(-6.0666317e-08 -1.0530067e-08 -0.01145992)
(-1.1130083e-08 -1.1130083e-08 -0.011459922)
(-2.9795855e-08 -2.9795856e-08 -0.033461969)
(-1.5923886e-07 -1.6267507e-07 -0.033461674)
(8.1457104e-07 2.8043086e-07 -0.033461486)
(7.7811694e-07 9.6593508e-08 -0.033460733)
(-6.5192631e-07 -1.7047053e-08 -0.033461006)
(-8.8584771e-07 -2.6616961e-08 -0.033461581)
(-6.117169e-07 -2.8201057e-09 -0.033462016)
(-3.7037542e-07 9.7675803e-09 -0.033462298)
(-2.3922642e-07 4.0555103e-08 -0.033462485)
(-6.3764886e-08 1.2131476e-07 -0.033462684)
(-1.6267506e-07 -1.5923886e-07 -0.033461674)
(3.0610122e-07 3.0610121e-07 -0.033461573)
(1.2034739e-06 7.6011215e-07 -0.033461026)
(3.3190006e-07 3.0344176e-07 -0.033460528)
(-8.3674202e-07 9.367022e-08 -0.033460933)
(-8.6450729e-07 1.2438884e-07 -0.033461496)
(-5.5714008e-07 2.0883587e-07 -0.033461891)
(-3.053126e-07 2.1176146e-07 -0.033462178)
(-7.1905652e-08 1.9162653e-07 -0.033462282)
(1.6994772e-08 3.2221036e-07 -0.033462271)
(2.8043086e-07 8.1457104e-07 -0.033461486)
(7.6011215e-07 1.2034739e-06 -0.033461026)
(8.1191158e-07 8.1191158e-07 -0.033460663)
(1.1167501e-07 5.6849852e-07 -0.033460316)
(-8.3097923e-07 5.6120878e-07 -0.033460737)
(-7.7068206e-07 6.8863892e-07 -0.033461229)
(-5.2434428e-07 8.2843089e-07 -0.03346156)
(-3.8758476e-07 8.5435284e-07 -0.033461885)
(-1.2877752e-07 7.3029413e-07 -0.033462089)
(2.3291002e-08 6.0986676e-07 -0.033462068)
(9.6593506e-08 7.7811694e-07 -0.033460733)
(3.0344176e-07 3.3190006e-07 -0.033460528)
(5.6849852e-07 1.1167501e-07 -0.033460316)
(8.119726e-08 8.1197261e-08 -0.033460013)
(-7.1660162e-07 1.8800522e-07 -0.03346038)
(-5.9728518e-07 3.704396e-07 -0.033460759)
(-3.9142616e-07 5.7329702e-07 -0.033460967)
(-4.0344936e-07 7.209994e-07 -0.033461234)
(-3.1639173e-07 7.4132152e-07 -0.033461493)
(-6.3290137e-08 6.5477324e-07 -0.033461588)
(-1.7047057e-08 -6.5192631e-07 -0.033461006)
(9.3670218e-08 -8.3674201e-07 -0.033460933)
(5.6120879e-07 -8.3097923e-07 -0.033460737)
(1.8800522e-07 -7.1660162e-07 -0.03346038)
(-5.4173689e-07 -5.4173689e-07 -0.033460646)
(-3.8539025e-07 -3.4116211e-07 -0.033460893)
(-1.7378448e-07 -1.331415e-07 -0.033460955)
(-2.1956026e-07 6.1894721e-08 -0.033461088)
(-1.9500368e-07 2.1636038e-07 -0.033461253)
(-3.440785e-08 3.1621619e-07 -0.033461295)
(-2.6616963e-08 -8.8584771e-07 -0.033461581)
(1.2438884e-07 -8.6450728e-07 -0.033461496)
(6.8863892e-07 -7.7068205e-07 -0.033461229)
(3.704396e-07 -5.9728518e-07 -0.033460759)
(-3.4116211e-07 -3.8539025e-07 -0.033460893)
(-1.8868979e-07 -1.8868979e-07 -0.033461009)
(1.1630668e-08 -2.3441398e-08 -0.033460948)
(-5.3947481e-08 1.1027769e-07 -0.033460973)
(-6.2070262e-08 2.1027069e-07 -0.033461052)
(3.2804016e-09 2.7173256e-07 -0.033461037)
(-2.820106e-09 -6.117169e-07 -0.033462016)
(2.0883587e-07 -5.5714008e-07 -0.033461891)
(8.2843088e-07 -5.2434428e-07 -0.03346156)
(5.7329702e-07 -3.9142616e-07 -0.033460967)
(-1.331415e-07 -1.7378448e-07 -0.033460955)
(-2.3441398e-08 1.1630668e-08 -0.033460948)
(1.25183e-07 1.25183e-07 -0.033460803)
(1.4151827e-08 1.7333059e-07 -0.03346078)
(-3.3548813e-08 1.7351121e-07 -0.033460843)
(6.5667285e-09 1.4317039e-07 -0.033460845)
(9.767579e-09 -3.7037542e-07 -0.033462298)
(2.1176146e-07 -3.053126e-07 -0.033462178)
(8.5435284e-07 -3.8758476e-07 -0.033461885)
(7.209994e-07 -4.0344936e-07 -0.033461234)
(6.1894719e-08 -2.1956026e-07 -0.033461088)
(1.1027769e-07 -5.394748e-08 -0.033460973)
(1.7333059e-07 1.4151826e-08 -0.03346078)
(-5.6192752e-09 -5.6192753e-09 -0.033460765)
(-9.2230459e-08 -7.0741485e-08 -0.033460874)
(-1.6946808e-08 -1.3158788e-07 -0.033460934)
(4.0555102e-08 -2.3922643e-07 -0.033462485)
(1.9162653e-07 -7.1905653e-08 -0.033462282)
(7.3029413e-07 -1.2877752e-07 -0.033462089)
(7.4132152e-07 -3.1639173e-07 -0.033461493)
(2.1636038e-07 -1.9500368e-07 -0.033461253)
(2.1027069e-07 -6.2070263e-08 -0.033461052)
(1.7351121e-07 -3.3548811e-08 -0.033460843)
(-7.0741485e-08 -9.2230461e-08 -0.033460874)
(-1.5951742e-07 -1.5951742e-07 -0.033461036)
(-3.3997535e-08 -1.5367111e-07 -0.033461091)
(1.2131476e-07 -6.3764887e-08 -0.033462684)
(3.2221036e-07 1.6994772e-08 -0.033462271)
(6.0986676e-07 2.3291003e-08 -0.033462068)
(6.5477324e-07 -6.3290138e-08 -0.033461588)
(3.1621619e-07 -3.4407849e-08 -0.033461295)
(2.7173256e-07 3.2804003e-09 -0.033461037)
(1.4317039e-07 6.5667295e-09 -0.033460845)
(-1.3158788e-07 -1.694681e-08 -0.033460934)
(-1.5367111e-07 -3.3997535e-08 -0.033461091)
(-1.3049269e-08 -1.3049269e-08 -0.033461099)
(1.3431779e-07 1.3431779e-07 -0.031010918)
(2.421425e-07 -1.0516951e-07 -0.031010508)
(1.2225775e-06 3.9621288e-07 -0.031010296)
(8.734006e-07 1.4653021e-07 -0.031009858)
(-1.0681562e-06 4.8105035e-09 -0.03101014)
(-1.3365487e-06 4.7418623e-09 -0.031010592)
(-9.3697029e-07 3.9703236e-08 -0.031010931)
(-5.9273913e-07 4.2554379e-08 -0.031011193)
(-4.5555718e-07 1.0603224e-07 -0.031011353)
(-1.4858986e-07 2.7195795e-07 -0.031011585)
(-1.0516951e-07 2.421425e-07 -0.031010508)
(6.3498513e-07 6.3498513e-07 -0.031010379)
(1.600127e-06 1.0996827e-06 -0.031009991)
(2.8629704e-07 4.8968215e-07 -0.031009723)
(-1.2808388e-06 2.4065035e-07 -0.031010073)
(-1.2842096e-06 3.2536489e-07 -0.031010488)
(-8.8025151e-07 4.5994508e-07 -0.031010794)
(-4.9324564e-07 4.2376219e-07 -0.031011105)
(-1.1145183e-07 3.9626218e-07 -0.031011193)
(1.7335855e-08 6.5857983e-07 -0.03101119)
(3.9621288e-07 1.2225775e-06 -0.031010296)
(1.0996827e-06 1.600127e-06 -0.031009991)
(1.0772745e-06 1.0772745e-06 -0.031009736)
(1.4368303e-08 7.6930835e-07 -0.03100956)
(-1.2324735e-06 7.9626602e-07 -0.031009893)
(-1.117254e-06 1.0220647e-06 -0.031010222)
(-8.3857298e-07 1.2586151e-06 -0.031010458)
(-6.5642203e-07 1.2912191e-06 -0.031010814)
(-2.2073954e-07 1.0902093e-06 -0.031010999)
(2.6288576e-08 9.3213912e-07 -0.031010967)
(1.4653021e-07 8.734006e-07 -0.031009858)
(4.8968215e-07 2.8629704e-07 -0.031009723)
(7.6930835e-07 1.4368305e-08 -0.03100956)
(5.2885718e-09 5.2885748e-09 -0.031009392)
(-1.0280824e-06 1.9535697e-07 -0.031009656)
(-8.2186053e-07 5.0229972e-07 -0.031009867)
(-6.1109708e-07 8.4075582e-07 -0.031009975)
(-6.6165149e-07 1.0845386e-06 -0.031010271)
(-4.7053183e-07 1.1298787e-06 -0.031010494)
(-8.804425e-08 1.0281685e-06 -0.031010533)
(4.8105026e-09 -1.0681562e-06 -0.03101014)
(2.4065035e-07 -1.2808388e-06 -0.031010073)
(7.9626602e-07 -1.2324735e-06 -0.031009893)
(1.9535697e-07 -1.0280824e-06 -0.031009656)
(-7.3546237e-07 -7.3546237e-07 -0.031009816)
(-4.7185517e-07 -4.04731e-07 -0.031009894)
(-2.5633407e-07 -6.5067117e-08 -0.031009862)
(-3.6729919e-07 2.4590204e-07 -0.031010034)
(-2.7710966e-07 4.8419893e-07 -0.031010173)
(-4.1518183e-08 6.3245786e-07 -0.031010167)
(4.7418622e-09 -1.3365487e-06 -0.031010592)
(3.2536489e-07 -1.2842096e-06 -0.031010488)
(1.0220647e-06 -1.117254e-06 -0.031010222)
(5.0229972e-07 -8.2186053e-07 -0.031009867)
(-4.04731e-07 -4.7185517e-07 -0.031009894)
(-1.5146528e-07 -1.5146528e-07 -0.031009847)
(3.9535965e-08 1.1265714e-07 -0.031009699)
(-1.1238543e-07 3.1706341e-07 -0.031009777)
(-8.3976016e-08 4.5662446e-07 -0.03100985)
(1.0795034e-08 5.2366932e-07 -0.031009814)
(3.9703238e-08 -9.3697028e-07 -0.031010931)
(4.5994508e-07 -8.8025151e-07 -0.031010794)
(1.2586151e-06 -8.3857298e-07 -0.031010458)
(8.4075581e-07 -6.1109708e-07 -0.031009975)
(-6.5067118e-08 -2.5633407e-07 -0.031009862)
(1.1265715e-07 3.9535965e-08 -0.031009699)
(2.1219462e-07 2.1219462e-07 -0.03100948)
(-2.3331872e-08 2.7022203e-07 -0.031009527)
(-7.0503746e-08 2.435974e-07 -0.031009611)
(3.1783874e-09 1.6391972e-07 -0.031009622)
(4.2554379e-08 -5.9273914e-07 -0.031011193)
(4.2376219e-07 -4.9324564e-07 -0.031011105)
(1.2912191e-06 -6.5642203e-07 -0.031010814)
(1.0845386e-06 -6.6165149e-07 -0.031010271)
(2.4590204e-07 -3.6729919e-07 -0.031010034)
(3.170634e-07 -1.1238544e-07 -0.031009777)
(2.7022203e-07 -2.3331871e-08 -0.031009527)
(-8.0982654e-08 -8.0982654e-08 -0.031009606)
(-1.9027833e-07 -1.9929442e-07 -0.031009756)
(-4.2323419e-08 -2.748636e-07 -0.031009831)
(1.0603224e-07 -4.5555718e-07 -0.031011353)
(3.9626219e-07 -1.1145183e-07 -0.031011193)
(1.0902093e-06 -2.2073954e-07 -0.031010999)
(1.1298787e-06 -4.7053183e-07 -0.031010494)
(4.8419893e-07 -2.7710966e-07 -0.031010173)
(4.5662446e-07 -8.3976015e-08 -0.03100985)
(2.4359741e-07 -7.0503745e-08 -0.031009611)
(-1.9929442e-07 -1.9027833e-07 -0.031009756)
(-2.6438469e-07 -2.6438469e-07 -0.031009942)
(-4.7201065e-08 -2.2602251e-07 -0.031009921)
(2.7195795e-07 -1.4858985e-07 -0.031011585)
(6.5857983e-07 1.7335856e-08 -0.03101119)
(9.3213912e-07 2.6288575e-08 -0.031010967)
(1.0281685e-06 -8.8044249e-08 -0.031010533)
(6.3245786e-07 -4.1518185e-08 -0.031010167)
(5.2366932e-07 1.0795036e-08 -0.031009814)
(1.6391972e-07 3.1783863e-09 -0.031009622)
(-2.7486359e-07 -4.2323419e-08 -0.031009831)
(-2.2602251e-07 -4.7201065e-08 -0.031009921)
(-1.6748635e-08 -1.6748635e-08 -0.031009938)
(2.4308808e-07 2.4308808e-07 -0.027330263)
(4.6221858e-07 -7.6334329e-08 -0.027330038)
(1.4644911e-06 4.836978e-07 -0.027329966)
(9.3431312e-07 1.8665753e-07 -0.027329596)
(-1.385662e-06 2.7852652e-08 -0.027329788)
(-1.6773721e-06 4.2921009e-08 -0.027330108)
(-1.2122738e-06 8.8604337e-08 -0.027330355)
(-7.9198586e-07 6.8005602e-08 -0.027330603)
(-6.3140974e-07 1.4718206e-07 -0.027330761)
(-2.1826405e-07 3.8477666e-07 -0.027330962)
(-7.633433e-08 4.6221858e-07 -0.027330038)
(8.2313315e-07 8.2313315e-07 -0.027330012)
(1.8589788e-06 1.3199357e-06 -0.027329755)
(2.505454e-07 6.021285e-07 -0.027329512)
(-1.6012667e-06 3.407775e-07 -0.027329748)
(-1.5862446e-06 4.9402021e-07 -0.027330016)
(-1.1746469e-06 6.8245974e-07 -0.027330225)
(-7.0411928e-07 5.9035809e-07 -0.02733054)
(-1.5625315e-07 5.4531146e-07 -0.027330648)
(1.9330551e-08 9.4029128e-07 -0.027330645)
(4.836978e-07 1.4644911e-06 -0.027329966)
(1.3199357e-06 1.8589788e-06 -0.027329755)
(1.2434864e-06 1.2434864e-06 -0.027329595)
(-4.4845032e-08 9.0006406e-07 -0.027329417)
(-1.4937702e-06 9.7726418e-07 -0.027329621)
(-1.3356898e-06 1.3097548e-06 -0.027329795)
(-1.1159359e-06 1.6473186e-06 -0.027329927)
(-9.2913414e-07 1.6885651e-06 -0.027330282)
(-2.8147655e-07 1.4296779e-06 -0.027330463)
(4.5055825e-08 1.2662752e-06 -0.027330407)
(1.8665753e-07 9.3431312e-07 -0.027329596)
(6.021285e-07 2.505454e-07 -0.027329512)
(9.0006406e-07 -4.4845032e-08 -0.027329417)
(-1.5676817e-08 -1.5676816e-08 -0.02732923)
(-1.191576e-06 2.6519196e-07 -0.027329358)
(-9.1619008e-07 6.9848121e-07 -0.02732941)
(-7.9583661e-07 1.1695155e-06 -0.027329416)
(-9.2176007e-07 1.5014343e-06 -0.027329716)
(-5.7854297e-07 1.567914e-06 -0.027329932)
(-8.9604525e-08 1.4546846e-06 -0.027329936)
(2.7852651e-08 -1.385662e-06 -0.027329788)
(3.407775e-07 -1.6012667e-06 -0.027329748)
(9.7726418e-07 -1.4937702e-06 -0.027329621)
(2.6519196e-07 -1.191576e-06 -0.027329358)
(-7.7961222e-07 -7.7961222e-07 -0.027329377)
(-4.3136632e-07 -3.2127598e-07 -0.027329299)
(-3.1298288e-07 1.4281737e-07 -0.02732917)
(-5.3073561e-07 5.5602237e-07 -0.027329359)
(-3.2822617e-07 8.5969082e-07 -0.027329507)
(-3.0430425e-08 1.0355987e-06 -0.027329479)
(4.2921009e-08 -1.6773721e-06 -0.027330108)
(4.9402021e-07 -1.5862446e-06 -0.027330016)
(1.3097548e-06 -1.3356898e-06 -0.027329795)
(6.9848121e-07 -9.1619008e-07 -0.02732941)
(-3.2127599e-07 -4.3136632e-07 -0.027329299)
(6.2395106e-09 6.2395075e-09 -0.027329099)
(8.1461737e-08 3.5853809e-07 -0.027328864)
(-2.0488663e-07 6.1646597e-07 -0.027328973)
(-9.8966589e-08 7.7197475e-07 -0.027329075)
(2.7667431e-08 8.1689822e-07 -0.027329041)
(8.8604334e-08 -1.2122738e-06 -0.027330355)
(6.8245974e-07 -1.1746469e-06 -0.027330225)
(1.6473187e-06 -1.1159359e-06 -0.027329927)
(1.1695155e-06 -7.9583661e-07 -0.027329416)
(1.4281737e-07 -3.1298288e-07 -0.02732917)
(3.5853809e-07 8.1461736e-08 -0.027328864)
(2.9724358e-07 2.9724358e-07 -0.027328569)
(-1.1729896e-07 3.4370166e-07 -0.027328667)
(-1.2779391e-07 2.6785102e-07 -0.027328805)
(-4.8144405e-10 1.2545826e-07 -0.027328845)
(6.8005603e-08 -7.9198586e-07 -0.027330603)
(5.9035809e-07 -7.0411928e-07 -0.02733054)
(1.6885651e-06 -9.2913414e-07 -0.027330282)
(1.5014343e-06 -9.2176007e-07 -0.027329716)
(5.5602236e-07 -5.3073561e-07 -0.027329359)
(6.1646597e-07 -2.0488663e-07 -0.027328973)
(3.4370166e-07 -1.1729896e-07 -0.027328667)
(-2.3427919e-07 -2.342792e-07 -0.02732882)
(-3.1720999e-07 -4.0184425e-07 -0.027329045)
(-6.7261074e-08 -4.3063277e-07 -0.027329153)
(1.4718206e-07 -6.3140973e-07 -0.027330761)
(5.4531146e-07 -1.5625315e-07 -0.027330648)
(1.4296779e-06 -2.8147655e-07 -0.027330463)
(1.567914e-06 -5.7854297e-07 -0.027329932)
(8.5969081e-07 -3.2822616e-07 -0.027329507)
(7.7197475e-07 -9.8966585e-08 -0.027329075)
(2.6785102e-07 -1.2779391e-07 -0.027328805)
(-4.0184425e-07 -3.1720999e-07 -0.027329045)
(-3.2414749e-07 -3.2414749e-07 -0.027329289)
(-1.9673796e-08 -2.5997848e-07 -0.027329193)
(3.8477666e-07 -2.1826406e-07 -0.027330962)
(9.4029128e-07 1.9330549e-08 -0.027330645)
(1.2662752e-06 4.5055824e-08 -0.027330407)
(1.4546846e-06 -8.9604524e-08 -0.027329936)
(1.0355987e-06 -3.0430426e-08 -0.027329479)
(8.1689822e-07 2.7667432e-08 -0.027329041)
(1.2545826e-07 -4.8144437e-10 -0.027328845)
(-4.3063278e-07 -6.7261073e-08 -0.027329153)
(-2.5997848e-07 -1.9673797e-08 -0.027329193)
(-2.4481734e-08 -2.4481735e-08 -0.027329215)
(2.8419182e-07 2.8419181e-07 -0.022416251)
(5.3919744e-07 -8.8132955e-08 -0.02241616)
(1.6643958e-06 5.3666731e-07 -0.022416123)
(1.0506639e-06 2.027306e-07 -0.022415731)
(-1.5801241e-06 3.1828204e-08 -0.022415809)
(-1.9028226e-06 6.5916026e-08 -0.022415997)
(-1.4320715e-06 1.2629226e-07 -0.022416141)
(-9.9917154e-07 8.4725651e-08 -0.02241635)
(-8.1479885e-07 1.8178221e-07 -0.022416511)
(-2.8278545e-07 4.8376402e-07 -0.022416689)
(-8.8132954e-08 5.3919744e-07 -0.02241616)
(9.1791069e-07 9.1791069e-07 -0.022416209)
(2.1006911e-06 1.4702543e-06 -0.022415978)
(2.9340527e-07 6.6927231e-07 -0.022415687)
(-1.7853459e-06 4.0794199e-07 -0.022415797)
(-1.7611265e-06 6.3817977e-07 -0.022415926)
(-1.4038571e-06 8.8785358e-07 -0.022416024)
(-9.1593661e-07 7.4522227e-07 -0.022416292)
(-2.162413e-07 6.9414532e-07 -0.022416399)
(1.9196359e-08 1.2141796e-06 -0.022416392)
(5.3666731e-07 1.6643958e-06 -0.022416123)
(1.4702543e-06 2.1006911e-06 -0.022415978)
(1.4157574e-06 1.4157574e-06 -0.022415821)
(-1.1648398e-08 1.0514362e-06 -0.022415581)
(-1.6112166e-06 1.1865016e-06 -0.022415653)
(-1.422911e-06 1.6288481e-06 -0.022415685)
(-1.325029e-06 2.0669567e-06 -0.022415705)
(-1.1928798e-06 2.1147395e-06 -0.022416012)
(-3.4584155e-07 1.8052376e-06 -0.022416181)
(6.3904052e-08 1.641176e-06 -0.022416119)
(2.027306e-07 1.0506639e-06 -0.022415731)
(6.6927231e-07 2.9340527e-07 -0.022415687)
(1.0514362e-06 -1.1648399e-08 -0.022415581)
(6.4149493e-08 6.4149493e-08 -0.022415324)
(-1.207934e-06 4.3947268e-07 -0.022415316)
(-8.8067137e-07 9.987234e-07 -0.022415226)
(-9.179657e-07 1.5971679e-06 -0.022415126)
(-1.1776558e-06 2.007251e-06 -0.022415386)
(-6.8980479e-07 2.0862318e-06 -0.022415593)
(-9.0177999e-08 1.9556217e-06 -0.02241559)
(3.1828205e-08 -1.5801241e-06 -0.022415809)
(4.0794199e-07 -1.7853459e-06 -0.022415797)
(1.1865016e-06 -1.6112166e-06 -0.022415653)
(4.3947269e-07 -1.207934e-06 -0.022415316)
(-6.7664269e-07 -6.7664269e-07 -0.022415199)
(-2.6521572e-07 -9.3737254e-08 -0.022414981)
(-3.1650138e-07 4.8741257e-07 -0.022414752)
(-7.0381594e-07 9.8978911e-07 -0.022414912)
(-3.974709e-07 1.341666e-06 -0.022415064)
(-2.3169354e-08 1.5272868e-06 -0.022415044)
(6.5916026e-08 -1.9028226e-06 -0.022415997)
(6.3817977e-07 -1.7611265e-06 -0.022415926)
(1.6288481e-06 -1.422911e-06 -0.022415685)
(9.987234e-07 -8.8067137e-07 -0.022415226)
(-9.3737254e-08 -2.6521573e-07 -0.022414981)
(2.8338388e-07 2.8338388e-07 -0.022414645)
(1.6556066e-07 7.1373846e-07 -0.022414317)
(-3.2340233e-07 1.0092065e-06 -0.022414409)
(-1.5230709e-07 1.1590123e-06 -0.022414533)
(3.3569187e-08 1.1580265e-06 -0.022414524)
(1.2629226e-07 -1.4320715e-06 -0.022416141)
(8.8785358e-07 -1.4038571e-06 -0.022416024)
(2.0669567e-06 -1.325029e-06 -0.022415705)
(1.5971679e-06 -9.1796569e-07 -0.022415126)
(4.8741257e-07 -3.1650138e-07 -0.022414752)
(7.1373846e-07 1.6556066e-07 -0.022414317)
(4.0932123e-07 4.0932123e-07 -0.02241394)
(-2.5854213e-07 4.228217e-07 -0.022414037)
(-2.4865087e-07 2.7350604e-07 -0.022414217)
(-2.3826511e-08 5.1607487e-08 -0.022414305)
(8.4725649e-08 -9.9917154e-07 -0.02241635)
(7.4522227e-07 -9.1593661e-07 -0.022416292)
(2.1147395e-06 -1.1928798e-06 -0.022416012)
(2.007251e-06 -1.1776558e-06 -0.022415386)
(9.897891e-07 -7.0381594e-07 -0.022414912)
(1.0092065e-06 -3.2340233e-07 -0.022414409)
(4.228217e-07 -2.5854213e-07 -0.022414037)
(-4.5921752e-07 -4.5921752e-07 -0.022414211)
(-5.235213e-07 -6.8404496e-07 -0.022414501)
(-1.1436318e-07 -6.2262383e-07 -0.022414667)
(1.8178221e-07 -8.1479885e-07 -0.022416511)
(6.9414532e-07 -2.1624129e-07 -0.022416399)
(1.8052376e-06 -3.4584155e-07 -0.022416181)
(2.0862318e-06 -6.8980479e-07 -0.022415593)
(1.341666e-06 -3.974709e-07 -0.022415064)
(1.1590123e-06 -1.5230708e-07 -0.022414533)
(2.7350605e-07 -2.4865086e-07 -0.022414217)
(-6.8404496e-07 -5.2352129e-07 -0.022414501)
(-4.1205718e-07 -4.1205718e-07 -0.02241481)
(1.7120909e-08 -2.8805143e-07 -0.022414708)
(4.8376402e-07 -2.8278545e-07 -0.022416689)
(1.2141796e-06 1.919636e-08 -0.022416392)
(1.641176e-06 6.3904053e-08 -0.022416119)
(1.9556217e-06 -9.0177999e-08 -0.02241559)
(1.5272868e-06 -2.3169353e-08 -0.022415044)
(1.1580265e-06 3.3569191e-08 -0.022414524)
(5.1607487e-08 -2.3826508e-08 -0.022414305)
(-6.2262383e-07 -1.1436318e-07 -0.022414667)
(-2.8805143e-07 1.7120908e-08 -0.022414708)
(-3.1692683e-08 -3.1692684e-08 -0.022414736)
(3.0343523e-07 3.0343523e-07 -0.016264142)
(5.8970706e-07 -1.0874168e-07 -0.016264083)
(1.8931462e-06 5.8068853e-07 -0.016264018)
(1.2485752e-06 2.1652664e-07 -0.01626358)
(-1.6512394e-06 3.5652325e-08 -0.016263546)
(-2.0095216e-06 9.0104674e-08 -0.016263615)
(-1.5648335e-06 1.6680987e-07 -0.016263656)
(-1.1621366e-06 1.0608915e-07 -0.016263795)
(-9.7121076e-07 2.2190656e-07 -0.016263924)
(-3.3707245e-07 5.832075e-07 -0.01626407)
(-1.0874168e-07 5.8970706e-07 -0.016264083)
(1.005587e-06 1.005587e-06 -0.016264135)
(2.3810487e-06 1.6221107e-06 -0.016263881)
(4.3102092e-07 7.5264994e-07 -0.016263526)
(-1.8408724e-06 4.9638384e-07 -0.016263521)
(-1.8127853e-06 8.0593818e-07 -0.016263529)
(-1.5408568e-06 1.1185649e-06 -0.016263521)
(-1.0794916e-06 9.2795162e-07 -0.016263717)
(-2.5553322e-07 8.7508888e-07 -0.016263791)
(2.4228488e-08 1.5105347e-06 -0.016263767)
(5.8068853e-07 1.8931462e-06 -0.016264018)
(1.6221107e-06 2.3810487e-06 -0.016263881)
(1.6402092e-06 1.6402092e-06 -0.016263687)
(1.228484e-07 1.2622876e-06 -0.016263375)
(-1.5979512e-06 1.4579956e-06 -0.016263329)
(-1.3873405e-06 2.0097768e-06 -0.016263241)
(-1.4428201e-06 2.5449907e-06 -0.016263158)
(-1.4056126e-06 2.5952207e-06 -0.016263392)
(-3.8862768e-07 2.2360871e-06 -0.016263524)
(8.6558092e-08 2.0685117e-06 -0.01626345)
(2.1652664e-07 1.2485752e-06 -0.01626358)
(7.5264994e-07 4.3102091e-07 -0.016263526)
(1.2622876e-06 1.228484e-07 -0.016263375)
(2.4880738e-07 2.4880738e-07 -0.016263043)
(-1.0933832e-06 7.1950086e-07 -0.016262916)
(-7.2579018e-07 1.4027153e-06 -0.016262708)
(-9.5541288e-07 2.1227208e-06 -0.016262511)
(-1.3883952e-06 2.6017179e-06 -0.016262705)
(-7.8224222e-07 2.6849396e-06 -0.016262877)
(-8.748842e-08 2.530337e-06 -0.016262863)
(3.5652322e-08 -1.6512394e-06 -0.016263546)
(4.9638383e-07 -1.8408724e-06 -0.016263521)
(1.4579956e-06 -1.5979512e-06 -0.016263329)
(7.1950086e-07 -1.0933832e-06 -0.016262916)
(-4.4404328e-07 -4.4404328e-07 -0.01626268)
(1.5879409e-08 2.6012947e-07 -0.016262347)
(-2.438175e-07 9.5176819e-07 -0.016262026)
(-8.4339384e-07 1.532622e-06 -0.016262131)
(-4.6000852e-07 1.9193184e-06 -0.01626226)
(-1.6510304e-08 2.1012906e-06 -0.016262238)
(9.0104667e-08 -2.0095216e-06 -0.016263615)
(8.0593818e-07 -1.8127853e-06 -0.016263529)
(2.0097768e-06 -1.3873405e-06 -0.016263241)
(1.4027153e-06 -7.2579018e-07 -0.016262708)
(2.6012947e-07 1.5879411e-08 -0.016262347)
(6.7002128e-07 6.7002129e-07 -0.016261899)
(3.1707965e-07 1.1703101e-06 -0.016261487)
(-4.2084503e-07 1.4911281e-06 -0.016261532)
(-2.1357359e-07 1.61918e-06 -0.016261645)
(3.382641e-08 1.5551853e-06 -0.016261647)
(1.6680987e-07 -1.5648335e-06 -0.016263656)
(1.1185649e-06 -1.5408568e-06 -0.016263521)
(2.5449907e-06 -1.4428201e-06 -0.016263158)
(2.1227208e-06 -9.5541287e-07 -0.016262511)
(9.5176819e-07 -2.438175e-07 -0.016262026)
(1.1703101e-06 3.1707965e-07 -0.016261487)
(5.7728928e-07 5.7728929e-07 -0.016261033)
(-3.9452393e-07 5.4168692e-07 -0.016261095)
(-3.9595133e-07 2.9973398e-07 -0.016261278)
(-5.9173452e-08 -1.7732482e-08 -0.016261392)
(1.0608915e-07 -1.1621366e-06 -0.016263795)
(9.2795162e-07 -1.0794916e-06 -0.016263717)
(2.5952207e-06 -1.4056126e-06 -0.016263392)
(2.6017179e-06 -1.3883952e-06 -0.016262705)
(1.532622e-06 -8.4339384e-07 -0.016262131)
(1.4911281e-06 -4.2084503e-07 -0.016261532)
(5.4168692e-07 -3.9452393e-07 -0.016261095)
(-6.9840034e-07 -6.9840034e-07 -0.016261249)
(-7.7299299e-07 -9.946369e-07 -0.016261558)
(-1.778179e-07 -8.3343162e-07 -0.016261761)
(2.2190657e-07 -9.7121076e-07 -0.016263924)
(8.7508888e-07 -2.5553322e-07 -0.016263791)
(2.2360871e-06 -3.8862768e-07 -0.016263524)
(2.6849396e-06 -7.8224223e-07 -0.016262877)
(1.9193184e-06 -4.6000852e-07 -0.01626226)
(1.61918e-06 -2.1357359e-07 -0.016261645)
(2.9973398e-07 -3.9595133e-07 -0.016261278)
(-9.946369e-07 -7.7299299e-07 -0.016261558)
(-5.3098261e-07 -5.3098261e-07 -0.016261895)
(4.8296736e-08 -3.2845981e-07 -0.016261813)
(5.8320751e-07 -3.3707245e-07 -0.01626407)
(1.5105347e-06 2.4228485e-08 -0.016263767)
(2.0685117e-06 8.6558094e-08 -0.01626345)
(2.530337e-06 -8.7488419e-08 -0.016262863)
(2.1012906e-06 -1.6510303e-08 -0.016262238)
(1.5551853e-06 3.3826411e-08 -0.016261647)
(-1.7732485e-08 -5.9173454e-08 -0.016261392)
(-8.3343162e-07 -1.778179e-07 -0.016261761)
(-3.2845981e-07 4.8296735e-08 -0.016261813)
(-4.2802697e-08 -4.2802697e-08 -0.016261854)
(3.2333733e-07 3.2333733e-07 -0.0088693165)
(6.6344003e-07 -1.2265339e-07 -0.008869248)
(2.1678709e-06 6.2768035e-07 -0.0088691378)
(1.5229459e-06 2.385405e-07 -0.0088686589)
(-1.6150941e-06 4.853167e-08 -0.0088685282)
(-2.013409e-06 1.2320483e-07 -0.0088684997)
(-1.6125332e-06 2.1622135e-07 -0.0088684552)
(-1.2667802e-06 1.3704859e-07 -0.0088685267)
(-1.089873e-06 2.7056445e-07 -0.0088686135)
(-3.8054676e-07 6.862019e-07 -0.0088687299)
(-1.2265339e-07 6.6344003e-07 -0.008869248)
(1.1199546e-06 1.1199546e-06 -0.008869275)
(2.7096617e-06 1.8013319e-06 -0.0088689899)
(6.5422291e-07 8.7404355e-07 -0.0088685785)
(-1.7880976e-06 6.2447951e-07 -0.0088684746)
(-1.7618745e-06 1.0122051e-06 -0.0088683866)
(-1.5917675e-06 1.3861201e-06 -0.0088682942)
(-1.1852655e-06 1.1483802e-06 -0.0088684202)
(-2.6614304e-07 1.0938875e-06 -0.0088684563)
(3.509069e-08 1.8348958e-06 -0.0088684173)
(6.2768035e-07 2.1678709e-06 -0.0088691378)
(1.8013319e-06 2.7096617e-06 -0.0088689899)
(1.9219598e-06 1.9219598e-06 -0.0088687523)
(3.4609353e-07 1.5343532e-06 -0.0088683796)
(-1.4769325e-06 1.7909921e-06 -0.0088682351)
(-1.2517685e-06 2.4499123e-06 -0.0088680529)
(-1.4763581e-06 3.0776719e-06 -0.0088678887)
(-1.5590127e-06 3.1268224e-06 -0.0088680532)
(-4.0335741e-07 2.7185436e-06 -0.0088681434)
(1.1345879e-07 2.5450007e-06 -0.008868058)
(2.3854051e-07 1.5229459e-06 -0.0088686589)
(8.7404355e-07 6.5422291e-07 -0.0088685785)
(1.5343532e-06 3.4609353e-07 -0.0088683796)
(5.2325516e-07 5.2325516e-07 -0.008867985)
(-8.7253847e-07 1.0885971e-06 -0.00886776)
(-4.7519476e-07 1.8929065e-06 -0.008867461)
(-9.1485738e-07 2.7286291e-06 -0.0088671884)
(-1.5443938e-06 3.2687742e-06 -0.008867319)
(-8.4796482e-07 3.3500397e-06 -0.0088674513)
(-8.0604592e-08 3.1671116e-06 -0.0088674249)
(4.8531668e-08 -1.6150941e-06 -0.0088685282)
(6.2447951e-07 -1.7880976e-06 -0.0088684746)
(1.7909921e-06 -1.4769325e-06 -0.0088682351)
(1.0885971e-06 -8.7253846e-07 -0.00886776)
(-1.0728113e-07 -1.0728113e-07 -0.0088674278)
(3.8826351e-07 7.1478517e-07 -0.0088670069)
(-1.0049041e-07 1.5112364e-06 -0.008866617)
(-9.3760218e-07 2.1621901e-06 -0.0088666659)
(-5.0501998e-07 2.5739311e-06 -0.0088667642)
(-8.4932566e-09 2.7431718e-06 -0.0088667376)
(1.2320483e-07 -2.013409e-06 -0.0088684997)
(1.0122051e-06 -1.7618745e-06 -0.0088683866)
(2.4499123e-06 -1.2517685e-06 -0.0088680529)
(1.8929065e-06 -4.7519476e-07 -0.008867461)
(7.1478517e-07 3.8826351e-07 -0.0088670069)
(1.1433227e-06 1.1433227e-06 -0.0088664755)
(5.3254751e-07 1.7074306e-06 -0.0088659983)
(-4.8169906e-07 2.0451975e-06 -0.0088659955)
(-2.6698309e-07 2.1411297e-06 -0.008866085)
(3.2222548e-08 2.0038696e-06 -0.0088660903)
(2.1622135e-07 -1.6125332e-06 -0.0088684552)
(1.3861201e-06 -1.5917675e-06 -0.0088682942)
(3.0776719e-06 -1.4763581e-06 -0.0088678887)
(2.7286291e-06 -9.1485738e-07 -0.0088671884)
(1.5112364e-06 -1.0049041e-07 -0.008866617)