/*--------------------------------*- C++ -*----------------------------------*\
| =========                 |                                                 |
| \\      /  F ield         | OpenFOAM: The Open Source CFD Toolbox           |
|  \\    /   O peration     | Version:  v2106                                 |
|   \\  /    A nd           | Website:  www.openfoam.com                      |
|    \\/     M anipulation  |                                                 |
\*---------------------------------------------------------------------------*/
FoamFile
{
    version     2.0;
    format      ascii;
    arch        "LSB;label=32;scalar=64";
    class       volScalarField;
    location    "50";
    object      Tmode1;
}
// * * * * * * * * * * * * * * * * * * * * * * * * * * * * * * * * * * * * * //

dimensions      [0 0 0 0 0 0 0];

internalField   nonuniform List<scalar> 
4000
(
-0.021244114
-0.021244114
-0.021244113
-0.021244116
-0.021244118
-0.021244117
-0.021244115
-0.021244114
-0.021244113
-0.021244112
-0.021244114
-0.021244112
-0.021244114
-0.021244117
-0.021244118
-0.021244117
-0.021244115
-0.021244114
-0.021244113
-0.021244112
-0.021244113
-0.021244114
-0.021244116
-0.021244118
-0.021244119
-0.021244117
-0.021244116
-0.021244114
-0.021244113
-0.021244113
-0.021244116
-0.021244117
-0.021244118
-0.021244121
-0.021244121
-0.02124412
-0.021244118
-0.021244117
-0.021244116
-0.021244115
-0.021244118
-0.021244118
-0.021244119
-0.021244121
-0.021244122
-0.021244121
-0.021244119
-0.021244118
-0.021244117
-0.021244116
-0.021244117
-0.021244117
-0.021244117
-0.02124412
-0.021244121
-0.02124412
-0.021244119
-0.021244118
-0.021244116
-0.021244116
-0.021244115
-0.021244115
-0.021244116
-0.021244118
-0.021244119
-0.021244119
-0.021244118
-0.021244117
-0.021244116
-0.021244115
-0.021244114
-0.021244114
-0.021244114
-0.021244117
-0.021244118
-0.021244118
-0.021244117
-0.021244116
-0.021244115
-0.021244114
-0.021244113
-0.021244113
-0.021244113
-0.021244116
-0.021244117
-0.021244116
-0.021244116
-0.021244115
-0.021244114
-0.021244113
-0.021244112
-0.021244112
-0.021244113
-0.021244115
-0.021244116
-0.021244116
-0.021244115
-0.021244114
-0.021244113
-0.021244112
-0.018806767
-0.018806767
-0.018806767
-0.018806775
-0.018806778
-0.018806775
-0.018806771
-0.018806767
-0.018806764
-0.018806763
-0.018806767
-0.018806765
-0.01880677
-0.018806778
-0.01880678
-0.018806776
-0.018806772
-0.018806768
-0.018806765
-0.018806764
-0.018806767
-0.01880677
-0.018806775
-0.018806782
-0.018806783
-0.018806779
-0.018806775
-0.018806771
-0.018806767
-0.018806766
-0.018806775
-0.018806778
-0.018806782
-0.018806788
-0.018806789
-0.018806786
-0.018806782
-0.018806777
-0.018806773
-0.018806771
-0.018806778
-0.01880678
-0.018806783
-0.018806789
-0.01880679
-0.018806787
-0.018806784
-0.01880678
-0.018806776
-0.018806773
-0.018806775
-0.018806776
-0.018806779
-0.018806786
-0.018806787
-0.018806786
-0.018806783
-0.018806779
-0.018806775
-0.018806773
-0.018806771
-0.018806772
-0.018806775
-0.018806782
-0.018806784
-0.018806783
-0.01880678
-0.018806777
-0.018806774
-0.018806772
-0.018806767
-0.018806768
-0.018806771
-0.018806777
-0.01880678
-0.018806779
-0.018806777
-0.018806774
-0.01880677
-0.018806768
-0.018806764
-0.018806765
-0.018806767
-0.018806773
-0.018806776
-0.018806775
-0.018806774
-0.01880677
-0.018806767
-0.018806765
-0.018806763
-0.018806764
-0.018806766
-0.018806771
-0.018806773
-0.018806773
-0.018806772
-0.018806768
-0.018806765
-0.018806763
-0.016378478
-0.016378479
-0.016378482
-0.016378494
-0.016378498
-0.016378493
-0.016378486
-0.01637848
-0.016378475
-0.016378472
-0.016378479
-0.016378479
-0.016378487
-0.016378499
-0.0163785
-0.016378495
-0.016378488
-0.016378481
-0.016378476
-0.016378475
-0.016378482
-0.016378487
-0.016378495
-0.016378505
-0.016378506
-0.016378501
-0.016378494
-0.016378486
-0.016378481
-0.016378479
-0.016378494
-0.016378499
-0.016378505
-0.016378514
-0.016378515
-0.01637851
-0.016378503
-0.016378496
-0.016378489
-0.016378486
-0.016378498
-0.0163785
-0.016378506
-0.016378515
-0.016378516
-0.016378513
-0.016378507
-0.0163785
-0.016378493
-0.01637849
-0.016378493
-0.016378495
-0.016378501
-0.01637851
-0.016378513
-0.01637851
-0.016378506
-0.016378499
-0.016378493
-0.01637849
-0.016378486
-0.016378488
-0.016378494
-0.016378503
-0.016378507
-0.016378506
-0.016378502
-0.016378496
-0.01637849
-0.016378487
-0.01637848
-0.016378481
-0.016378486
-0.016378496
-0.0163785
-0.016378499
-0.016378496
-0.01637849
-0.016378484
-0.016378481
-0.016378475
-0.016378476
-0.016378481
-0.016378489
-0.016378493
-0.016378493
-0.01637849
-0.016378484
-0.016378478
-0.016378475
-0.016378472
-0.016378475
-0.016378479
-0.016378486
-0.01637849
-0.01637849
-0.016378487
-0.016378481
-0.016378475
-0.016378473
-0.013965393
-0.013965395
-0.0139654
-0.013965414
-0.013965419
-0.013965413
-0.013965403
-0.013965394
-0.013965387
-0.013965384
-0.013965395
-0.013965396
-0.013965407
-0.013965421
-0.013965423
-0.013965416
-0.013965406
-0.013965396
-0.013965389
-0.013965387
-0.0139654
-0.013965407
-0.013965417
-0.013965429
-0.01396543
-0.013965424
-0.013965414
-0.013965403
-0.013965395
-0.013965393
-0.013965414
-0.013965421
-0.013965429
-0.01396544
-0.013965441
-0.013965435
-0.013965426
-0.013965415
-0.013965406
-0.013965402
-0.013965419
-0.013965423
-0.01396543
-0.013965441
-0.013965444
-0.013965439
-0.013965432
-0.013965421
-0.013965412
-0.013965407
-0.013965413
-0.013965416
-0.013965424
-0.013965435
-0.013965439
-0.013965436
-0.01396543
-0.013965421
-0.013965412
-0.013965408
-0.013965403
-0.013965406
-0.013965414
-0.013965426
-0.013965432
-0.01396543
-0.013965425
-0.013965416
-0.013965408
-0.013965403
-0.013965394
-0.013965396
-0.013965403
-0.013965415
-0.013965421
-0.013965421
-0.013965416
-0.013965407
-0.013965398
-0.013965394
-0.013965387
-0.013965389
-0.013965395
-0.013965406
-0.013965412
-0.013965412
-0.013965408
-0.013965398
-0.01396539
-0.013965387
-0.013965384
-0.013965387
-0.013965393
-0.013965402
-0.013965407
-0.013965408
-0.013965403
-0.013965394
-0.013965387
-0.013965384
-0.011573809
-0.011573813
-0.011573819
-0.011573835
-0.011573841
-0.011573833
-0.011573821
-0.01157381
-0.0115738
-0.011573796
-0.011573813
-0.011573814
-0.011573827
-0.011573843
-0.011573845
-0.011573837
-0.011573825
-0.011573812
-0.011573803
-0.0115738
-0.011573819
-0.011573827
-0.011573839
-0.011573853
-0.011573855
-0.011573847
-0.011573835
-0.01157382
-0.01157381
-0.011573807
-0.011573835
-0.011573843
-0.011573853
-0.011573866
-0.011573868
-0.011573861
-0.01157385
-0.011573835
-0.011573824
-0.011573819
-0.011573841
-0.011573845
-0.011573855
-0.011573868
-0.011573872
-0.011573867
-0.011573857
-0.011573843
-0.011573831
-0.011573826
-0.011573833
-0.011573837
-0.011573847
-0.011573861
-0.011573867
-0.011573864
-0.011573856
-0.011573843
-0.011573832
-0.011573827
-0.011573821
-0.011573825
-0.011573835
-0.01157385
-0.011573857
-0.011573856
-0.011573849
-0.011573837
-0.011573826
-0.01157382
-0.01157381
-0.011573812
-0.01157382
-0.011573835
-0.011573843
-0.011573843
-0.011573837
-0.011573825
-0.011573813
-0.011573808
-0.0115738
-0.011573803
-0.01157381
-0.011573824
-0.011573831
-0.011573832
-0.011573826
-0.011573813
-0.011573802
-0.011573799
-0.011573796
-0.0115738
-0.011573807
-0.011573819
-0.011573826
-0.011573827
-0.01157382
-0.011573808
-0.011573799
-0.011573796
-0.0092102441
-0.0092102483
-0.0092102558
-0.0092102744
-0.0092102806
-0.0092102721
-0.0092102584
-0.0092102438
-0.0092102325
-0.0092102266
-0.0092102483
-0.0092102499
-0.0092102644
-0.0092102831
-0.0092102864
-0.009210277
-0.0092102627
-0.0092102467
-0.0092102356
-0.0092102317
-0.0092102558
-0.0092102644
-0.0092102787
-0.009210295
-0.0092102975
-0.0092102886
-0.0092102743
-0.0092102568
-0.0092102445
-0.0092102409
-0.0092102744
-0.0092102831
-0.009210295
-0.0092103102
-0.0092103133
-0.0092103059
-0.0092102926
-0.0092102744
-0.0092102601
-0.0092102543
-0.0092102806
-0.0092102864
-0.0092102975
-0.0092103133
-0.0092103181
-0.0092103129
-0.0092103016
-0.0092102843
-0.0092102699
-0.0092102634
-0.0092102721
-0.009210277
-0.0092102886
-0.0092103059
-0.0092103129
-0.0092103102
-0.009210301
-0.0092102851
-0.0092102713
-0.0092102648
-0.0092102584
-0.0092102627
-0.0092102743
-0.0092102926
-0.0092103016
-0.009210301
-0.0092102931
-0.0092102778
-0.0092102638
-0.0092102567
-0.0092102438
-0.0092102467
-0.0092102568
-0.0092102744
-0.0092102843
-0.0092102851
-0.0092102778
-0.009210262
-0.0092102475
-0.0092102407
-0.0092102325
-0.0092102356
-0.0092102445
-0.0092102601
-0.0092102699
-0.0092102713
-0.0092102638
-0.0092102475
-0.0092102338
-0.0092102305
-0.0092102266
-0.0092102317
-0.0092102409
-0.0092102543
-0.0092102634
-0.0092102648
-0.0092102567
-0.0092102407
-0.0092102305
-0.009210227
-0.0068814995
-0.0068815041
-0.0068815128
-0.0068815337
-0.0068815412
-0.006881532
-0.0068815164
-0.0068814992
-0.0068814859
-0.0068814791
-0.0068815041
-0.0068815061
-0.0068815222
-0.0068815435
-0.0068815479
-0.0068815378
-0.0068815215
-0.0068815026
-0.0068814896
-0.006881485
-0.0068815128
-0.0068815222
-0.0068815385
-0.0068815572
-0.0068815608
-0.0068815513
-0.0068815351
-0.0068815144
-0.0068815
-0.0068814959
-0.0068815337
-0.0068815435
-0.0068815572
-0.0068815747
-0.0068815791
-0.0068815715
-0.0068815564
-0.0068815349
-0.0068815183
-0.0068815117
-0.0068815412
-0.0068815479
-0.0068815608
-0.0068815791
-0.0068815856
-0.0068815807
-0.0068815679
-0.0068815474
-0.0068815304
-0.0068815229
-0.006881532
-0.0068815378
-0.0068815513
-0.0068815715
-0.0068815807
-0.0068815785
-0.0068815681
-0.0068815492
-0.0068815328
-0.006881525
-0.0068815164
-0.0068815215
-0.0068815351
-0.0068815564
-0.0068815679
-0.0068815681
-0.0068815592
-0.0068815407
-0.006881524
-0.0068815152
-0.0068814992
-0.0068815026
-0.0068815144
-0.0068815349
-0.0068815474
-0.0068815492
-0.0068815407
-0.0068815216
-0.0068815041
-0.0068814959
-0.0068814859
-0.0068814896
-0.0068815
-0.0068815183
-0.0068815304
-0.0068815328
-0.006881524
-0.0068815041
-0.0068814877
-0.0068814841
-0.0068814791
-0.006881485
-0.0068814959
-0.0068815117
-0.0068815229
-0.006881525
-0.0068815152
-0.0068814959
-0.0068814841
-0.0068814802
-0.0045947282
-0.0045947332
-0.0045947432
-0.0045947662
-0.0045947754
-0.0045947657
-0.0045947484
-0.0045947289
-0.0045947136
-0.0045947061
-0.0045947332
-0.0045947356
-0.0045947534
-0.0045947772
-0.0045947831
-0.0045947725
-0.0045947544
-0.0045947329
-0.0045947179
-0.0045947127
-0.0045947432
-0.0045947534
-0.0045947717
-0.0045947928
-0.0045947978
-0.004594788
-0.00459477
-0.0045947465
-0.0045947302
-0.0045947255
-0.0045947662
-0.0045947772
-0.0045947928
-0.0045948128
-0.0045948188
-0.0045948112
-0.0045947944
-0.0045947699
-0.0045947511
-0.0045947438
-0.0045947754
-0.0045947831
-0.0045947978
-0.0045948188
-0.0045948273
-0.0045948227
-0.0045948086
-0.0045947852
-0.0045947658
-0.0045947572
-0.0045947657
-0.0045947725
-0.004594788
-0.0045948112
-0.0045948227
-0.0045948214
-0.00459481
-0.0045947882
-0.0045947694
-0.0045947603
-0.0045947484
-0.0045947544
-0.00459477
-0.0045947944
-0.0045948086
-0.00459481
-0.0045948001
-0.0045947788
-0.0045947593
-0.0045947489
-0.0045947289
-0.0045947329
-0.0045947465
-0.0045947699
-0.0045947852
-0.0045947882
-0.0045947788
-0.0045947564
-0.0045947359
-0.0045947264
-0.0045947136
-0.0045947179
-0.0045947302
-0.0045947511
-0.0045947658
-0.0045947694
-0.0045947593
-0.0045947359
-0.0045947169
-0.0045947131
-0.0045947061
-0.0045947127
-0.0045947255
-0.0045947438
-0.0045947572
-0.0045947603
-0.0045947489
-0.0045947264
-0.0045947131
-0.0045947086
-0.0023575018
-0.0023575072
-0.0023575186
-0.0023575437
-0.0023575547
-0.0023575448
-0.002357526
-0.0023575043
-0.0023574873
-0.0023574791
-0.0023575072
-0.0023575101
-0.0023575296
-0.0023575559
-0.0023575634
-0.0023575526
-0.0023575329
-0.002357509
-0.0023574922
-0.0023574863
-0.0023575186
-0.0023575296
-0.0023575498
-0.0023575734
-0.00235758
-0.0023575702
-0.0023575505
-0.0023575244
-0.0023575063
-0.0023575011
-0.0023575437
-0.0023575559
-0.0023575734
-0.0023575959
-0.0023576038
-0.0023575963
-0.0023575781
-0.0023575508
-0.00235753
-0.002357522
-0.0023575547
-0.0023575634
-0.00235758
-0.0023576038
-0.0023576145
-0.0023576106
-0.0023575952
-0.002357569
-0.0023575475
-0.0023575379
-0.0023575448
-0.0023575526
-0.0023575702
-0.0023575963
-0.0023576106
-0.0023576103
-0.002357598
-0.0023575735
-0.0023575524
-0.002357542
-0.002357526
-0.0023575329
-0.0023575505
-0.0023575781
-0.0023575952
-0.002357598
-0.0023575874
-0.0023575632
-0.0023575411
-0.0023575292
-0.0023575043
-0.002357509
-0.0023575244
-0.0023575508
-0.002357569
-0.0023575735
-0.0023575632
-0.0023575378
-0.0023575145
-0.0023575036
-0.0023574873
-0.0023574922
-0.0023575063
-0.00235753
-0.0023575475
-0.0023575524
-0.0023575411
-0.0023575145
-0.002357493
-0.0023574889
-0.0023574791
-0.0023574863
-0.0023575011
-0.002357522
-0.0023575379
-0.002357542
-0.0023575292
-0.0023575036
-0.0023574889
-0.0023574839
-0.00017788069
-0.00017788647
-0.00017789935
-0.00017792641
-0.00017793947
-0.00017792957
-0.00017790944
-0.00017788573
-0.00017786698
-0.0001778583
-0.00017788647
-0.00017788989
-0.00017791102
-0.00017793993
-0.00017794927
-0.00017793832
-0.00017791723
-0.00017789103
-0.00017787257
-0.00017786617
-0.00017789935
-0.00017791102
-0.00017793322
-0.00017795933
-0.00017796783
-0.00017795801
-0.00017793688
-0.0001779084
-0.00017788871
-0.00017788305
-0.00017792641
-0.00017793993
-0.00017795933
-0.00017798428
-0.00017799428
-0.0001779872
-0.00017796758
-0.00017793771
-0.00017791509
-0.00017790651
-0.00017793947
-0.00017794927
-0.00017796783
-0.00017799428
-0.00017800748
-0.00017800436
-0.00017798795
-0.00017795917
-0.00017793559
-0.00017792511
-0.00017792957
-0.00017793832
-0.00017795801
-0.0001779872
-0.00017800436
-0.00017800532
-0.0001779922
-0.00017796528
-0.00017794195
-0.0001779304
-0.00017790944
-0.00017791723
-0.00017793688
-0.00017796758
-0.00017798795
-0.0001779922
-0.00017798094
-0.00017795419
-0.00017792966
-0.00017791622
-0.00017788573
-0.00017789103
-0.0001779084
-0.00017793771
-0.00017795917
-0.00017796528
-0.00017795419
-0.00017792589
-0.00017789995
-0.00017788784
-0.00017786698
-0.00017787257
-0.00017788871
-0.00017791509
-0.00017793559
-0.00017794195
-0.00017792966
-0.00017789995
-0.0001778762
-0.00017787176
-0.0001778583
-0.00017786617
-0.00017788305
-0.00017790651
-0.00017792511
-0.0001779304
-0.00017791622
-0.00017788784
-0.00017787176
-0.00017786624
0.0019355131
0.001935507
0.0019354926
0.0019354637
0.0019354484
0.0019354581
0.0019354795
0.001935505
0.0019355253
0.0019355344
0.001935507
0.001935503
0.0019354803
0.0019354489
0.0019354375
0.0019354483
0.0019354708
0.001935499
0.001935519
0.001935526
0.0019354926
0.0019354803
0.0019354561
0.0019354275
0.001935417
0.0019354266
0.001935449
0.0019354797
0.0019355008
0.0019355069
0.0019354637
0.0019354489
0.0019354275
0.0019354001
0.0019353878
0.0019353943
0.0019354152
0.0019354475
0.0019354717
0.0019354808
0.0019354484
0.0019354375
0.001935417
0.0019353878
0.0019353719
0.001935374
0.0019353915
0.0019354226
0.0019354481
0.0019354594
0.0019354581
0.0019354483
0.0019354266
0.0019353943
0.001935374
0.0019353717
0.0019353855
0.0019354148
0.0019354401
0.0019354528
0.0019354795
0.0019354708
0.001935449
0.0019354152
0.0019353915
0.0019353855
0.0019353973
0.0019354265
0.0019354533
0.0019354683
0.001935505
0.001935499
0.0019354797
0.0019354475
0.0019354226
0.0019354148
0.0019354265
0.0019354575
0.0019354859
0.0019354992
0.0019355253
0.001935519
0.0019355008
0.0019354717
0.0019354481
0.0019354401
0.0019354533
0.0019354859
0.0019355117
0.0019355165
0.0019355344
0.001935526
0.0019355069
0.0019354808
0.0019354594
0.0019354528
0.0019354683
0.0019354992
0.0019355165
0.0019355225
0.0039734203
0.0039734138
0.0039733979
0.0039733673
0.0039733496
0.0039733589
0.0039733813
0.0039734086
0.0039734303
0.0039734396
0.0039734138
0.0039734091
0.003973385
0.0039733512
0.0039733375
0.0039733481
0.0039733717
0.0039734018
0.0039734233
0.0039734307
0.0039733979
0.003973385
0.0039733589
0.0039733279
0.003973315
0.0039733242
0.0039733479
0.0039733805
0.0039734029
0.0039734094
0.0039733673
0.0039733512
0.0039733279
0.0039732979
0.0039732831
0.003973289
0.003973311
0.0039733454
0.003973371
0.0039733806
0.0039733496
0.0039733375
0.003973315
0.0039732831
0.0039732643
0.0039732653
0.0039732837
0.003973317
0.0039733441
0.0039733563
0.0039733589
0.0039733481
0.0039733242
0.003973289
0.0039732653
0.0039732614
0.0039732759
0.0039733073
0.0039733344
0.0039733483
0.0039733813
0.0039733717
0.0039733479
0.003973311
0.0039732837
0.0039732759
0.0039732882
0.0039733196
0.0039733485
0.0039733649
0.0039734086
0.0039734018
0.0039733805
0.0039733454
0.003973317
0.0039733073
0.0039733196
0.0039733531
0.0039733838
0.0039733981
0.0039734303
0.0039734233
0.0039734029
0.003973371
0.0039733441
0.0039733344
0.0039733485
0.0039733838
0.0039734115
0.0039734165
0.0039734396
0.0039734307
0.0039734094
0.0039733806
0.0039733563
0.0039733483
0.0039733649
0.0039733981
0.0039734165
0.003973423
0.0059258647
0.0059258579
0.0059258405
0.0059258084
0.0059257881
0.0059257969
0.0059258202
0.0059258491
0.005925872
0.0059258814
0.0059258579
0.0059258526
0.0059258272
0.005925791
0.0059257748
0.0059257849
0.0059258096
0.0059258414
0.0059258642
0.0059258721
0.0059258405
0.0059258272
0.0059257992
0.0059257657
0.0059257503
0.005925759
0.0059257838
0.0059258182
0.0059258416
0.0059258485
0.0059258084
0.005925791
0.0059257657
0.0059257332
0.0059257156
0.0059257207
0.0059257439
0.0059257802
0.0059258069
0.0059258169
0.0059257881
0.0059257748
0.0059257503
0.0059257156
0.0059256937
0.0059256935
0.0059257128
0.0059257481
0.0059257767
0.0059257896
0.0059257969
0.0059257849
0.005925759
0.0059257207
0.0059256935
0.0059256879
0.005925703
0.0059257363
0.0059257651
0.0059257801
0.0059258202
0.0059258096
0.0059257838
0.0059257439
0.0059257128
0.005925703
0.0059257157
0.0059257491
0.00592578
0.0059257978
0.0059258491
0.0059258414
0.0059258182
0.0059257802
0.0059257481
0.0059257363
0.0059257491
0.0059257849
0.0059258177
0.005925833
0.005925872
0.0059258642
0.0059258416
0.0059258069
0.0059257767
0.0059257651
0.00592578
0.0059258177
0.005925847
0.0059258523
0.0059258814
0.0059258721
0.0059258485
0.0059258169
0.0059257896
0.0059257801
0.0059257978
0.005925833
0.0059258523
0.0059258592
0.007782071
0.0077820639
0.007782045
0.0077820115
0.0077819885
0.0077819964
0.0077820205
0.0077820508
0.0077820749
0.0077820841
0.0077820639
0.0077820579
0.0077820312
0.0077819927
0.0077819739
0.0077819833
0.007782009
0.0077820423
0.0077820663
0.0077820746
0.007782045
0.0077820312
0.0077820014
0.0077819655
0.0077819474
0.0077819553
0.0077819812
0.007782017
0.0077820413
0.0077820485
0.0077820115
0.0077819927
0.0077819655
0.0077819305
0.00778191
0.0077819141
0.0077819383
0.0077819763
0.0077820039
0.0077820142
0.0077819885
0.0077819739
0.0077819474
0.00778191
0.0077818848
0.0077818832
0.0077819032
0.0077819403
0.0077819702
0.0077819838
0.0077819964
0.0077819833
0.0077819553
0.0077819141
0.0077818832
0.0077818757
0.0077818912
0.0077819263
0.0077819567
0.0077819728
0.0077820205
0.007782009
0.0077819812
0.0077819383
0.0077819032
0.0077818912
0.0077819044
0.0077819397
0.0077819723
0.0077819914
0.0077820508
0.0077820423
0.007782017
0.0077819763
0.0077819403
0.0077819263
0.0077819397
0.0077819775
0.0077820121
0.0077820283
0.0077820749
0.0077820663
0.0077820413
0.0077820039
0.0077819702
0.0077819567
0.0077819723
0.0077820121
0.0077820429
0.0077820485
0.0077820841
0.0077820746
0.0077820485
0.0077820142
0.0077819838
0.0077819728
0.0077819914
0.0077820283
0.0077820485
0.0077820558
0.009530377
0.0095303696
0.0095303491
0.0095303144
0.0095302886
0.0095302955
0.0095303202
0.0095303517
0.0095303768
0.0095303858
0.0095303696
0.0095303628
0.0095303351
0.0095302944
0.0095302727
0.0095302813
0.0095303077
0.0095303423
0.0095303674
0.009530376
0.0095303491
0.0095303351
0.0095303034
0.0095302652
0.0095302442
0.0095302511
0.0095302779
0.009530315
0.0095303399
0.0095303475
0.0095303144
0.0095302944
0.0095302652
0.0095302277
0.0095302041
0.009530207
0.0095302321
0.0095302715
0.0095302999
0.0095303104
0.0095302886
0.0095302727
0.0095302442
0.0095302041
0.0095301753
0.0095301721
0.0095301929
0.0095302316
0.0095302625
0.0095302768
0.0095302955
0.0095302813
0.0095302511
0.009530207
0.0095301721
0.0095301626
0.0095301786
0.0095302153
0.009530247
0.0095302642
0.0095303202
0.0095303077
0.0095302779
0.0095302321
0.0095301929
0.0095301786
0.0095301921
0.0095302291
0.0095302633
0.0095302838
0.0095303517
0.0095303423
0.009530315
0.0095302715
0.0095302316
0.0095302153
0.0095302291
0.0095302688
0.0095303051
0.009530322
0.0095303768
0.0095303674
0.0095303399
0.0095302999
0.0095302625
0.009530247
0.0095302633
0.0095303051
0.009530337
0.0095303429
0.0095303858
0.009530376
0.0095303475
0.0095303104
0.0095302768
0.0095302642
0.0095302838
0.009530322
0.0095303429
0.0095303506
0.011158143
0.011158135
0.011158113
0.011158077
0.011158048
0.011158054
0.011158079
0.011158112
0.011158138
0.011158146
0.011158135
0.011158127
0.011158098
0.011158056
0.011158031
0.011158038
0.011158066
0.011158101
0.011158127
0.011158136
0.011158113
0.011158098
0.011158065
0.011158025
0.011158
0.011158006
0.011158034
0.011158072
0.011158097
0.011158105
0.011158077
0.011158056
0.011158025
0.011157985
0.011157958
0.011157959
0.011157985
0.011158026
0.011158055
0.011158065
0.011158048
0.011158031
0.011158
0.011157958
0.011157925
0.01115792
0.011157942
0.011157982
0.011158014
0.011158028
0.011158054
0.011158038
0.011158006
0.011157959
0.01115792
0.011157909
0.011157925
0.011157963
0.011157996
0.011158014
0.011158079
0.011158066
0.011158034
0.011157985
0.011157942
0.011157925
0.011157939
0.011157977
0.011158013
0.011158035
0.011158112
0.011158101
0.011158072
0.011158026
0.011157982
0.011157963
0.011157977
0.011158019
0.011158056
0.011158074
0.011158138
0.011158127
0.011158097
0.011158055
0.011158014
0.011157996
0.011158013
0.011158056
0.011158089
0.011158095
0.011158146
0.011158136
0.011158105
0.011158065
0.011158028
0.011158014
0.011158035
0.011158074
0.011158095
0.011158103
0.012651653
0.012651645
0.012651621
0.012651585
0.012651553
0.012651557
0.012651582
0.012651616
0.012651642
0.01265165
0.012651645
0.012651636
0.012651607
0.012651562
0.012651534
0.01265154
0.012651568
0.012651604
0.012651631
0.01265164
0.012651621
0.012651607
0.012651572
0.012651529
0.012651501
0.012651506
0.012651534
0.012651573
0.012651598
0.012651607
0.012651585
0.012651562
0.012651529
0.012651486
0.012651456
0.012651456
0.012651483
0.012651524
0.012651553
0.012651564
0.012651553
0.012651534
0.012651501
0.012651456
0.01265142
0.012651413
0.012651435
0.012651476
0.012651508
0.012651524
0.012651557
0.01265154
0.012651506
0.012651456
0.012651413
0.012651399
0.012651415
0.012651455
0.012651489
0.012651508
0.012651582
0.012651568
0.012651534
0.012651483
0.012651435
0.012651415
0.012651429
0.012651469
0.012651506
0.012651529
0.012651616
0.012651604
0.012651573
0.012651524
0.012651476
0.012651455
0.012651469
0.012651512
0.012651551
0.012651569
0.012651642
0.012651631
0.012651598
0.012651553
0.012651508
0.012651489
0.012651506
0.012651551
0.012651584
0.012651591
0.01265165
0.01265164
0.012651607
0.012651564
0.012651524
0.012651508
0.012651529
0.012651569
0.012651591
0.012651599
0.013996017
0.013996009
0.013995983
0.013995946
0.013995911
0.013995913
0.013995938
0.013995973
0.013996
0.013996007
0.013996009
0.013995999
0.013995969
0.013995922
0.013995891
0.013995895
0.013995923
0.01399596
0.013995988
0.013995997
0.013995983
0.013995969
0.013995932
0.013995887
0.013995856
0.013995859
0.013995887
0.013995927
0.013995953
0.013995961
0.013995946
0.013995922
0.013995887
0.013995842
0.013995808
0.013995806
0.013995833
0.013995875
0.013995905
0.013995916
0.013995911
0.013995891
0.013995856
0.013995808
0.013995768
0.013995759
0.013995781
0.013995823
0.013995856
0.013995872
0.013995913
0.013995895
0.013995859
0.013995806
0.013995759
0.013995742
0.013995759
0.013995799
0.013995834
0.013995854
0.013995938
0.013995923
0.013995887
0.013995833
0.013995781
0.013995759
0.013995773
0.013995814
0.013995852
0.013995876
0.013995973
0.01399596
0.013995927
0.013995875
0.013995823
0.013995799
0.013995814
0.013995858
0.013995898
0.013995917
0.013996
0.013995988
0.013995953
0.013995905
0.013995856
0.013995834
0.013995852
0.013995898
0.013995932
0.013995939
0.013996007
0.013995997
0.013995961
0.013995916
0.013995872
0.013995854
0.013995876
0.013995917
0.013995939
0.013995948
0.01517506
0.015175052
0.015175025
0.015174987
0.015174949
0.015174949
0.015174974
0.015175008
0.015175036
0.015175043
0.015175052
0.015175041
0.01517501
0.015174962
0.015174927
0.015174929
0.015174957
0.015174995
0.015175023
0.015175032
0.015175025
0.01517501
0.015174972
0.015174925
0.01517489
0.015174891
0.01517492
0.015174959
0.015174985
0.015174994
0.015174987
0.015174962
0.015174925
0.015174877
0.015174839
0.015174835
0.015174863
0.015174906
0.015174935
0.015174946
0.015174949
0.015174927
0.01517489
0.015174839
0.015174795
0.015174783
0.015174806
0.015174849
0.015174882
0.015174899
0.015174949
0.015174929
0.015174891
0.015174835
0.015174783
0.015174764
0.015174782
0.015174823
0.015174858
0.01517488
0.015174974
0.015174957
0.01517492
0.015174863
0.015174806
0.015174782
0.015174796
0.015174838
0.015174877
0.015174902
0.015175008
0.015174995
0.015174959
0.015174906
0.015174849
0.015174823
0.015174838
0.015174883
0.015174924
0.015174942
0.015175036
0.015175023
0.015174985
0.015174935
0.015174882
0.015174858
0.015174877
0.015174924
0.015174958
0.015174965
0.015175043
0.015175032
0.015174994
0.015174946
0.015174899
0.01517488
0.015174902
0.015174942
0.015174965
0.015174974
0.016171212
0.016171203
0.016171175
0.016171136
0.016171095
0.016171093
0.016171117
0.016171152
0.01617118
0.016171186
0.016171203
0.016171192
0.01617116
0.016171111
0.016171072
0.016171072
0.0161711
0.016171137
0.016171166
0.016171175
0.016171175
0.01617116
0.016171121
0.016171071
0.016171033
0.016171032
0.016171061
0.0161711
0.016171125
0.016171134
0.016171136
0.016171111
0.016171071
0.016171022
0.01617098
0.016170973
0.016171001
0.016171044
0.016171072
0.016171083
0.016171095
0.016171072
0.016171033
0.01617098
0.016170931
0.016170917
0.01617094
0.016170983
0.016171017
0.016171034
0.016171093
0.016171072
0.016171032
0.016170973
0.016170917
0.016170895
0.016170913
0.016170954
0.01617099
0.016171013
0.016171117
0.0161711
0.016171061
0.016171001
0.01617094
0.016170913
0.016170927
0.01617097
0.01617101
0.016171036
0.016171152
0.016171137
0.0161711
0.016171044
0.016170983
0.016170954
0.01617097
0.016171016
0.016171057
0.016171076
0.01617118
0.016171166
0.016171125
0.016171072
0.016171017
0.01617099
0.01617101
0.016171057
0.016171091
0.016171098
0.016171186
0.016171175
0.016171134
0.016171083
0.016171034
0.016171013
0.016171036
0.016171076
0.016171098
0.016171108
0.016965388
0.016965379
0.016965349
0.01696531
0.016965266
0.016965261
0.016965284
0.016965319
0.016965347
0.016965352
0.016965379
0.016965367
0.016965334
0.016965283
0.016965241
0.016965239
0.016965266
0.016965303
0.016965332
0.016965341
0.016965349
0.016965334
0.016965293
0.016965242
0.0169652
0.016965196
0.016965225
0.016965263
0.016965289
0.016965298
0.01696531
0.016965283
0.016965242
0.01696519
0.016965144
0.016965135
0.016965163
0.016965205
0.016965233
0.016965244
0.016965266
0.016965241
0.0169652
0.016965144
0.016965091
0.016965074
0.016965098
0.016965141
0.016965174
0.016965192
0.016965261
0.016965239
0.016965196
0.016965135
0.016965074
0.01696505
0.016965067
0.016965109
0.016965146
0.016965169
0.016965284
0.016965266
0.016965225
0.016965163
0.016965098
0.016965067
0.016965082
0.016965125
0.016965166
0.016965193
0.016965319
0.016965303
0.016965263
0.016965205
0.016965141
0.016965109
0.016965125
0.016965172
0.016965213
0.016965232
0.016965347
0.016965332
0.016965289
0.016965233
0.016965174
0.016965146
0.016965166
0.016965213
0.016965246
0.016965255
0.016965352
0.016965341
0.016965298
0.016965244
0.016965192
0.016965169
0.016965193
0.016965232
0.016965255
0.016965264
0.017536865
0.017536856
0.017536825
0.017536785
0.017536738
0.01753673
0.017536752
0.017536787
0.017536814
0.017536819
0.017536856
0.017536843
0.01753681
0.017536758
0.017536712
0.017536706
0.017536733
0.017536769
0.017536798
0.017536808
0.017536825
0.01753681
0.017536768
0.017536714
0.017536668
0.017536662
0.01753669
0.017536728
0.017536753
0.017536762
0.017536785
0.017536758
0.017536714
0.01753666
0.01753661
0.017536598
0.017536626
0.017536668
0.017536695
0.017536706
0.017536738
0.017536712
0.017536668
0.01753661
0.017536552
0.017536533
0.017536557
0.0175366
0.017536633
0.017536651
0.01753673
0.017536706
0.017536662
0.017536598
0.017536533
0.017536506
0.017536524
0.017536566
0.017536602
0.017536627
0.017536752
0.017536733
0.01753669
0.017536626
0.017536557
0.017536524
0.017536538
0.017536582
0.017536623
0.017536651
0.017536787
0.017536769
0.017536728
0.017536668
0.0175366
0.017536566
0.017536582
0.017536629
0.01753667
0.017536689
0.017536814
0.017536798
0.017536753
0.017536695
0.017536633
0.017536602
0.017536623
0.01753667
0.017536703
0.017536712
0.017536819
0.017536808
0.017536762
0.017536706
0.017536651
0.017536627
0.017536651
0.017536689
0.017536712
0.017536721
0.017863157
0.017863148
0.017863116
0.017863075
0.017863025
0.017863014
0.017863035
0.017863069
0.017863096
0.017863099
0.017863148
0.017863134
0.0178631
0.017863047
0.017862998
0.017862989
0.017863014
0.01786305
0.017863078
0.017863088
0.017863116
0.0178631
0.017863057
0.017863002
0.017862952
0.017862942
0.01786297
0.017863007
0.017863031
0.017863041
0.017863075
0.017863047
0.017863002
0.017862945
0.017862891
0.017862877
0.017862904
0.017862945
0.017862971
0.017862982
0.017863025
0.017862998
0.017862952
0.017862891
0.017862829
0.017862807
0.017862831
0.017862873
0.017862906
0.017862924
0.017863014
0.017862989
0.017862942
0.017862877
0.017862807
0.017862777
0.017862795
0.017862837
0.017862874
0.017862899
0.017863035
0.017863014
0.01786297
0.017862904
0.017862831
0.017862795
0.01786281
0.017862853
0.017862894
0.017862924
0.017863069
0.01786305
0.017863007