/*--------------------------------*- C++ -*----------------------------------*\
| =========                 |                                                 |
| \\      /  F ield         | OpenFOAM: The Open Source CFD Toolbox           |
|  \\    /   O peration     | Version:  v2106                                 |
|   \\  /    A nd           | Website:  www.openfoam.com                      |
|    \\/     M anipulation  |                                                 |
\*---------------------------------------------------------------------------*/
FoamFile
{
    version     2.0;
    format      ascii;
    arch        "LSB;label=32;scalar=64";
    class       volScalarField;
    location    "50";
    object      Tmode_lapla2;
}
// * * * * * * * * * * * * * * * * * * * * * * * * * * * * * * * * * * * * * //

dimensions      [0 -2 0 0 0 0 0];

internalField   nonuniform List<scalar> 
4000
(
0.067769246
0.067791053
0.068083754
0.067759266
0.067794906
0.067846627
0.067863196
0.067860775
0.067858809
0.067862691
0.067791053
0.068191901
0.067954181
0.067791682
0.067882436
0.067938787
0.067946599
0.067938595
0.067935572
0.067909695
0.068083754
0.067954181
0.067953477
0.067823054
0.067906773
0.067953476
0.067957339
0.067953814
0.067968156
0.06793119
0.067759266
0.067791682
0.067823054
0.067692634
0.067769265
0.067810842
0.06780846
0.067801064
0.067829475
0.067847204
0.067794906
0.067882436
0.067906773
0.067769265
0.067842538
0.067881125
0.067874278
0.067857774
0.067872614
0.067874542
0.067846627
0.067938787
0.067953476
0.067810842
0.067881125
0.067918769
0.067910374
0.067890244
0.067898703
0.067889915
0.067863196
0.067946599
0.067957339
0.06780846
0.067874278
0.067910374
0.067902043
0.067881731
0.067889452
0.067879406
0.067860775
0.067938595
0.067953814
0.067801064
0.067857774
0.067890244
0.067881731
0.067862639
0.06787235
0.067866706
0.067858809
0.067935572
0.067968156
0.067829475
0.067872614
0.067898703
0.067889452
0.06787235
0.067886262
0.06788816
0.067862691
0.067909695
0.06793119
0.067847204
0.067874542
0.067889915
0.067879406
0.067866706
0.06788816
0.067892704
0.20368216
0.20367733
0.2040887
0.20351896
0.20362276
0.20373466
0.20376417
0.20375582
0.20376052
0.20378505
0.20367733
0.20410647
0.20375673
0.20349585
0.2036906
0.2038003
0.20380926
0.20379405
0.20377833
0.20372068
0.2040887
0.20375673
0.20379738
0.20357959
0.20375445
0.2038434
0.20384421
0.20384969
0.20388385
0.20380049
0.20351896
0.20349585
0.20357959
0.20335757
0.20351838
0.20359475
0.20357923
0.20357676
0.20364824
0.20368301
0.20362276
0.2036906
0.20375445
0.20351838
0.20367188
0.20374121
0.20371343
0.20368819
0.20372855
0.20372839
0.20373466
0.2038003
0.2038434
0.20359475
0.20374121
0.20380778
0.20377576
0.20374126
0.20376639
0.20374128
0.20376417
0.20380926
0.20384421
0.20357923
0.20371343
0.20377576
0.20374354
0.20370868
0.20373275
0.20370933
0.20375582
0.20379405
0.20384969
0.20357676
0.20368819
0.20374126
0.20370868
0.2036776
0.20370901
0.203705
0.20376052
0.20377833
0.20388385
0.20364824
0.20372855
0.20376639
0.20373275
0.20370901
0.20375618
0.20377094
0.20378505
0.20372068
0.20380049
0.20368301
0.20372839
0.20374128
0.20370933
0.203705
0.20377094
0.20374279
0.34003001
0.33986087
0.34028094
0.33961784
0.33979423
0.33994843
0.33997912
0.33996289
0.33996266
0.34006634
0.33986087
0.34033196
0.33988484
0.33960598
0.33988647
0.34002778
0.34003185
0.34003114
0.3399723
0.33988163
0.34028094
0.33988484
0.33990576
0.33967345
0.33992374
0.3400327
0.340021
0.34006403
0.34011075
0.34000245
0.33961784
0.33960598
0.33967345
0.33943324
0.33966377
0.33975219
0.3397109
0.33973628
0.33983157
0.33987504
0.33979423
0.33988647
0.33992374
0.33966377
0.33988393
0.33996144
0.33989968
0.33988883
0.33993652
0.3399267
0.33994843
0.34002778
0.3400327
0.33975219
0.33996144
0.34003464
0.33996608
0.33994084
0.33996576
0.33992227
0.33997912
0.34003185
0.340021
0.3397109
0.33989968
0.33996608
0.33989722
0.33987218
0.33989775
0.33986855
0.33996289
0.34003114
0.34006403
0.33973628
0.33988883
0.33994084
0.33987218
0.33985565
0.33989901
0.33991366
0.33996266
0.3399723
0.34011075
0.33983157
0.33993652
0.33996576
0.33989775
0.33989901
0.33997799
0.33999133
0.34006634
0.33988163
0.34000245
0.33987504
0.3399267
0.33992227
0.33986855
0.33991366
0.33999133
0.33994685
0.47680165
0.4765446
0.47704502
0.47628701
0.47651286
0.47669813
0.476728
0.4767132
0.47669247
0.47684462
0.4765446
0.47706844
0.47657536
0.47626388
0.47660749
0.47676781
0.47676437
0.47680474
0.47671805
0.47659685
0.47704502
0.47657536
0.47661798
0.47635965
0.47666481
0.47678134
0.47675163
0.47685149
0.47690602
0.47674934
0.47628701
0.47626388
0.47635965
0.47609131
0.47637199
0.47646047
0.47638885
0.47646396
0.47657985
0.47660503
0.47651286
0.47660749
0.47666481
0.47637199
0.4766396
0.47671345
0.47661354
0.47664057
0.47669546
0.47665496
0.47669813
0.47676781
0.47678134
0.47646047
0.47671345
0.47678127
0.47667178
0.47667949
0.47670501
0.47662737
0.476728
0.47676437
0.47675163
0.47638885
0.47661354
0.47667178
0.47656158
0.47657035
0.47660002
0.47655621
0.4767132
0.47680474
0.47685149
0.47646396
0.47664057
0.47667949
0.47657035
0.47659446
0.47665772
0.47668581
0.47669247
0.47671805
0.47690602
0.47657985
0.47669546
0.47670501
0.47660002
0.47665772
0.47678202
0.47671637
0.47684462
0.47659685
0.47674934
0.47660503
0.47665496
0.47662737
0.47655621
0.47668581
0.47671637
0.47668428
0.61416996
0.61388729
0.61446473
0.61360917
0.61387194
0.6140818
0.61410804
0.61410447
0.61408663
0.61428339
0.61388729
0.61449078
0.61395179
0.61359809
0.61399251
0.61416356
0.61414499
0.61423015
0.6141299
0.61398358
0.61446473
0.61395179
0.61401167
0.61371977
0.61406856
0.61418502
0.61413041
0.61429138
0.61436273
0.61416258
0.61360917
0.61359809
0.61371977
0.61341657
0.61373654
0.61381767
0.61370954
0.61384072
0.61398747
0.61399857
0.61387194
0.61399251
0.61406856
0.61373654
0.61404084
0.61410357
0.61395948
0.61403165
0.61410578
0.61404169
0.6140818
0.61416356
0.61418502
0.61381767
0.61410357
0.61415822
0.61400145
0.61404926
0.61408784
0.61398619
0.61410804
0.61414499
0.61413041
0.61370954
0.61395948
0.61400145
0.61384328
0.61389324
0.61394111
0.61389892
0.61410447
0.61423015
0.61429138
0.61384072
0.61403165
0.61404926
0.61389324
0.61396761
0.61407108
0.61413666
0.61408663
0.6141299
0.61436273
0.61398747
0.61410578
0.61408784
0.61394111
0.61407108
0.61427241
0.61410509
0.61428339
0.61398358
0.61416258
0.61399857
0.61404169
0.61398619
0.61389892
0.61413666
0.61410509
0.61408594
0.7522935
0.75199815
0.75264061
0.75168951
0.75198084
0.75221086
0.75222879
0.75223285
0.75221992
0.75245414
0.75199815
0.75267901
0.75209169
0.75169134
0.75212896
0.75230615
0.75226669
0.75239128
0.75227774
0.75210486
0.75264061
0.75209169
0.75216115
0.75183277
0.7522183
0.75233062
0.75224621
0.75246362
0.75254978
0.75230634
0.75168951
0.75169134
0.75183277
0.75149231
0.7518449
0.75191477
0.7517659
0.75194985
0.7521257
0.75212208
0.75198084
0.75212896
0.7522183
0.7518449
0.7521791
0.75222665
0.75203413
0.75214874
0.7522415
0.75215512
0.75221086
0.75230615
0.75233062
0.75191477
0.75222665
0.7522638
0.75205515
0.75214007
0.7521911
0.75206842
0.75222879
0.75226669
0.75224621
0.7517659
0.75203413
0.75205515
0.75184404
0.75193202
0.75199813
0.751964
0.75223285
0.75239128
0.75246362
0.75194985
0.75214874
0.75214007
0.75193202
0.75205441
0.75220125
0.7523163
0.75221992
0.75227774
0.75254978
0.7521257
0.7522415
0.7521911
0.75199813
0.75220125
0.75248999
0.75222107
0.75245414
0.75210486
0.75230634
0.75212208
0.75215512
0.75206842
0.751964
0.7523163
0.75222107
0.75221641
0.89113385
0.89082674
0.89152515
0.89048468
0.89079817
0.89104615
0.89105361
0.89106251
0.89105382
0.89132077
0.89082674
0.89157696
0.89094306
0.89049525
0.89097063
0.89115231
0.89108996
0.89125014
0.89112349
0.89092499
0.89152515
0.89094306
0.89101742
0.89065304
0.8910704
0.89117726
0.89106175
0.89133158
0.89143036
0.89114555
0.89048468
0.89049525
0.89065304
0.89027617
0.89065654
0.8907139
0.89052356
0.89075724
0.89095973
0.8909417
0.89079817
0.89097063
0.8910704
0.89065654
0.89101573
0.89104668
0.890805
0.89095953
0.89106946
0.89096259
0.89104615
0.89115231
0.89117726
0.8907139
0.89104668
0.89106465
0.8908031
0.89092235
0.89098426
0.89084325
0.89105361
0.89108996
0.89106175
0.89052356
0.890805
0.8908031
0.89053773
0.89066068
0.89074355
0.89072159
0.89106251
0.89125014
0.89133158
0.89075724
0.89095953
0.89092235
0.89066068
0.89082827
0.89101802
0.89118819
0.89105382
0.89112349
0.89143036
0.89095973
0.89106946
0.89098426
0.89074355
0.89101802
0.89139584
0.8910306
0.89132077
0.89092499
0.89114555
0.8909417
0.89096259
0.89084325
0.89072159
0.89118819
0.8910306
0.89104313
1.0305163
1.0301979
1.0309454
1.0298241
1.030154
1.0304189
1.0304157
1.0304284
1.0304239
1.0307201
1.0301979
1.0310098
1.0303339
1.0298395
1.0303479
1.0305338
1.0304489
1.0306423
1.0305037
1.030282
1.0309454
1.0303339
1.0304105
1.0300121
1.030457
1.0305584
1.0304127
1.0307319
1.0308416
1.0305184
1.0298241
1.0298395
1.0300121
1.0296013
1.0300052
1.03005
1.0298198
1.0301011
1.0303279
1.0302962
1.030154
1.0303479
1.030457
1.0300052
1.030385
1.0303992
1.0301099
1.0303028
1.0304287
1.0303035
1.0304189
1.0305338
1.0305584
1.03005
1.0303992
1.0303977
1.0300846
1.0302364
1.030308
1.0301513
1.0304157
1.0304489
1.0304127
1.0298198
1.0301099
1.0300846
1.0297661
1.0299221
1.0300204
1.0300135
1.0304284
1.0306423
1.0307319
1.0301011
1.0303028
1.0302364
1.0299221
1.0301329
1.0303643
1.0305915
1.0304239
1.0305037
1.0308416
1.0303279
1.0304287
1.030308
1.0300204
1.0303643
1.0308294
1.0303733
1.0307201
1.030282
1.0305184
1.0302962
1.0303035
1.0301513
1.0300135
1.0305915
1.0303733
1.0304053
1.1701119
1.169784
1.1705741
1.1693818
1.1697225
1.1700037
1.1699904
1.1700068
1.1700067
1.1703287
1.169784
1.1706504
1.1699383
1.1693988
1.1699355
1.1701257
1.1700194
1.1702444
1.1700955
1.1698533
1.1705741
1.1699383
1.170015
1.1695854
1.1700535
1.1701497
1.1699757
1.1703416
1.1704605
1.1701021
1.1693818
1.1693988
1.1695854
1.1691436
1.1695667
1.1695995
1.1693319
1.1696591
1.1699079
1.1698633
1.1697225
1.1699355
1.1700535
1.1695667
1.1699626
1.1699605
1.1696264
1.1698565
1.1699972
1.1698558
1.1700037
1.1701257
1.1701497
1.1695995
1.1699605
1.1699396
1.1695775
1.1697608
1.1698408
1.1696711
1.1699904
1.1700194
1.1699757
1.1693319
1.1696264
1.1695775
1.1692084
1.1693961
1.1695087
1.1695191
1.1700068
1.1702444
1.1703416
1.1696591
1.1698565
1.1697608
1.1693961
1.1696487
1.1699203
1.1702043
1.1700067
1.1700955
1.1704605
1.1699079
1.1699972
1.1698408
1.1695087
1.1699203
1.1704692
1.1699271
1.1703287
1.1698533
1.1701021
1.1698633
1.1698558
1.1696711
1.1695191
1.1702043
1.1699271
1.1699801
1.3093964
1.3090609
1.3098871
1.3086345
1.3089799
1.3092768
1.3092542
1.3092745
1.3092794
1.3096232
1.3090609
1.3099748
1.3092326
1.3086499
1.3092097
1.3094044
1.3092785
1.3095333
1.3093759
1.309116
1.3098871
1.3092326
1.3093074
1.3088498
1.3093362
1.3094279
1.309228
1.3096375
1.3097639
1.3093738
1.3086345
1.3086499
1.3088498
1.3083803
1.3088179
1.3088394
1.3085377
1.3089087
1.309177
1.3091199
1.3089799
1.3092097
1.3093362
1.3088179
1.3092252
1.3092072
1.3088315
1.3090978
1.3092521
1.3090965
1.3092768
1.3094044
1.3094279
1.3088394
1.3092072
1.3091673
1.3087594
1.3089729
1.3090604
1.3088801
1.3092542
1.3092785
1.309228
1.3085377
1.3088315
1.3087594
1.3083428
1.3085609
1.3086868
1.3087165
1.3092745
1.3095333
1.3096375
1.3089087
1.3090978
1.3089729
1.3085609
1.3088542
1.3091642
1.3095037
1.3092794
1.3093759
1.3097639
1.309177
1.3092521
1.3090604
1.3086868
1.3091642
1.3097927
1.3091696
1.3096232
1.309116
1.3093738
1.3091199
1.3090965
1.3088801
1.3087165
1.3095037
1.3091696
1.3092444
1.4476003
1.4472598
1.4481152
1.4468135
1.4471573
1.4474692
1.4474384
1.4474626
1.4474729
1.4478343
1.4472598
1.4482135
1.4474479
1.4468241
1.4474015
1.4476009
1.4474572
1.4477397
1.447576
1.4473014
1.4481152
1.4474479
1.4475188
1.4470363
1.4475361
1.4476237
1.4474006
1.4478506
1.4479825
1.4475643
1.4468135
1.4468241
1.4470363
1.4465428
1.4469899
1.4470006
1.4466684
1.4470812
1.4473663
1.4472973
1.4471573
1.4474015
1.4475361
1.4469899
1.4474035
1.4473701
1.4469567
1.4472577
1.4474244
1.4472568
1.4474692
1.4476009
1.4476237
1.4470006
1.4473701
1.4473115
1.4468615
1.4471038
1.4471977
1.4470097
1.4474384
1.4474572
1.4474006
1.4466684
1.4469567
1.4468615
1.446401
1.4466484
1.4467864
1.4468375
1.4474626
1.4477397
1.4478506
1.4470812
1.4472577
1.4471038
1.4466484
1.4469809
1.4473278
1.4477205
1.4474729
1.447576
1.4479825
1.4473663
1.4474244
1.4471977
1.4467864
1.4473278
1.4480307
1.4473321
1.4478343
1.4473014
1.4475643
1.4472973
1.4472568
1.4470097
1.4468375
1.4477205
1.4473321
1.4474294
1.5836551
1.5833118
1.5841893
1.5828503
1.5831858
1.5835121
1.5834741
1.5835022
1.5835186
1.5838929
1.5833118
1.5842976
1.5835152
1.5828524
1.5834419
1.5836461
1.5834866
1.5837945
1.5836267
1.5833406
1.5841893
1.5835152
1.5835801
1.5830762
1.5835841
1.5836681
1.5834248
1.5839115
1.584047
1.5836047
1.5828503
1.5828524
1.5830762
1.5825624
1.5830138
1.5830143
1.5826555
1.5831076
1.5834065
1.5833264
1.5831858
1.5834419
1.5835841
1.5830138
1.5834283
1.5833799
1.5829329
1.5832673
1.5834449
1.5832676
1.5835121
1.5836461
1.5836681
1.5830143
1.5833799
1.583303
1.5828149
1.5830847
1.5831839
1.582991
1.5834741
1.5834866
1.5834248
1.5826555
1.5829329
1.5828149
1.5823146
1.5825898
1.582739
1.5828136
1.5835022
1.5837945
1.5839115
1.5831076
1.5832673
1.5830847
1.5825898
1.5829602
1.5833422
1.5837856
1.5835186
1.5836267
1.584047
1.5834065
1.5834449
1.5831839
1.582739
1.5833422
1.5841139
1.5833457
1.5838929
1.5833406
1.5836047
1.5833264
1.5832676
1.582991
1.5828136
1.5837856
1.5833457
1.5834659
1.7161273
1.7157835
1.7166759
1.7153116
1.715632
1.7159718
1.7159277
1.7159599
1.7159829
1.7163653
1.7157835
1.7167933
1.716001
1.7153015
1.7158972
1.7161064
1.7159331
1.7162639
1.7160944
1.7158003
1.7166759
1.716001
1.7160577
1.7155361
1.7160466
1.7161274
1.7158669
1.7163864
1.7165235
1.7160614
1.7153116
1.7153015
1.7155361
1.7150057
1.7154559
1.715447
1.7150657
1.7155545
1.7158641
1.7157738
1.715632
1.7158972
1.7160466
1.7154559
1.7158658
1.7158031
1.7153268
1.7156927
1.7158798
1.7156956
1.7159718
1.7161064
1.7161274
1.715447
1.7158031
1.7157083
1.7151864
1.7154819
1.7155852
1.7153907
1.7159277
1.7159331
1.7158669
1.7150657
1.7153268
1.7151864
1.7146506
1.714952
1.7151113
1.7152118
1.7159599
1.7162639
1.7163864
1.7155545
1.7156927
1.7154819
1.714952
1.7153587
1.7157739
1.7162651
1.7159829
1.7160944
1.7165235
1.7158641
1.7158798
1.7155852
1.7151113
1.7157739
1.7166081
1.7157771
1.7163653
1.7158003
1.7160614
1.7157738
1.7156956
1.7153907
1.7152118
1.7162651
1.7157771
1.7159207
1.8431416
1.8427995
1.8436993
1.842322
1.8426203
1.8429731
1.8429238
1.84296
1.8429902
1.8433756
1.8427995
1.843825
1.8430295
1.8422957
1.8428919
1.843106
1.8429211
1.8432721
1.8431032
1.8428049
1.8436993
1.8430295
1.8430759
1.8425402
1.8430477
1.8431259
1.8428515
1.8433995
1.8435359
1.8430586
1.842322
1.8422957
1.8425402
1.8419973
1.8424408
1.842423
1.8420235
1.842546
1.8428632
1.8427638
1.8426203
1.8428919
1.8430477
1.8424408
1.8428403
1.8427639
1.8422629
1.8426584
1.8428534
1.8426652
1.8429731
1.843106
1.8431259
1.842423
1.8427639
1.8426517
1.8421005
1.8424199
1.8425261
1.8423336
1.8429238
1.8429211
1.8428515
1.8420235
1.8422629
1.8421005
1.8415339
1.8418598
1.8420281
1.842157
1.84296
1.8432721
1.8433995
1.842546
1.8426584
1.8424199
1.8418598
1.842301
1.8427474
1.8432831
1.8429902
1.8431032
1.8435359
1.8428632
1.8428534
1.8425261
1.8420281
1.8427474
1.8436373
1.8427509
1.8433756
1.8428049
1.8430586
1.8427638
1.8426652
1.8423336
1.842157
1.8432831
1.8427509
1.8429182
1.962287
1.9619488
1.9628485
1.9614705
1.9617397
1.9621049
1.9620514
1.9620916
1.9621295
1.9625127
1.9619488
1.9629815
1.9621895
1.9614239
1.9620147
1.962234
1.9620395
1.9624076
1.9622421
1.9619433
1.9628485
1.9621895
1.9622233
1.9616776
1.9621765
1.9622526
1.9619674
1.9625393
1.962673
1.9621854
1.9614705
1.9614239
1.9616776
1.9611261
1.9615572
1.9615312
1.9611181
1.9616709
1.9619926
1.9618854
1.9617397
1.9620147
1.9621765
1.9615572
1.9619407
1.9618512
1.9613303
1.9617532
1.9619545
1.9617654
1.9621049
1.962234
1.9622526
1.9615312
1.9618512
1.9617223
1.9611466
1.9614877
1.9615955
1.9614087
1.9620514
1.9620395
1.9619674
1.9611181
1.9613303
1.9611466
1.9605539
1.9609023
1.9610785
1.9612385
1.9620916
1.9624076
1.9625393
1.9616709
1.9617532
1.9614877
1.9609023
1.9613761
1.9618516
1.9624283
1.9621295
1.9622421
1.962673
1.9619926
1.9619545
1.9615955
1.9610785
1.9618516
1.9627899
1.9618562
1.9625127
1.9619433
1.9621854
1.9618854
1.9617654
1.9614087
1.9612385
1.9624283
1.9618562
1.9620476
2.0705044
2.0701718
2.0710641
2.0696977
2.0699306
2.0703079
2.0702513
2.070295
2.0703413
2.0707171
2.0701718
2.0712032
2.0704215
2.0696263
2.0702063
2.0704308
2.0702287
2.0706106
2.0704511
2.0701561
2.0710641
2.0704215
2.0704403
2.0698886
2.0703734
2.0704478
2.0701551
2.070746
2.0708747
2.0703822
2.0696977
2.0696263
2.0698886
2.0693325
2.0697456
2.0697123
2.06929
2.0698696
2.0701924
2.0700791
2.0699306
2.0702063
2.0703734
2.0697456
2.0701075
2.0700058
2.0694697
2.0699174
2.0701235
2.0699369
2.0703079
2.0704308
2.0704478
2.0697123
2.0700058
2.0698609
2.0692655
2.0696259
2.0697341
2.0695569
2.0702513
2.0702287
2.0701551
2.06929
2.0694697
2.0692655
2.0686517
2.0690205
2.0692034
2.0693974
2.070295
2.0706106
2.070746
2.0698696
2.0699174
2.0696259
2.0690205
2.0695245
2.070027
2.0706411
2.0703413
2.0704511
2.0708747
2.0701924
2.0701235
2.0697341
2.0692034
2.070027
2.071006
2.0700338
2.0707171
2.0701561
2.0703822
2.0700791
2.0699369
2.0695569
2.0693974
2.0706411
2.0700338
2.0702496
2.163949
2.1636237
2.1645013
2.1631587
2.1633482
2.1637375
2.1636784
2.1637254
2.1637805
2.1641437
2.1636237
2.1646453
2.1638802
2.1630578
2.1636217
2.1638517
2.1636439
2.164036
2.1638851
2.1635984
2.1645013
2.1638802
2.1638818
2.1633281
2.1637934
2.1638669
2.1635699
2.1641744
2.164296
2.163804
2.1631587
2.1630578
2.1633281
2.1627714
2.1631612
2.1631214
2.1626942
2.1632968
2.1636176
2.1635001
2.1633482
2.1636217
2.1637934
2.1631612
2.1634959
2.1633829
2.1628364
2.1633062
2.1635155
2.1633349
2.1637375
2.1638517
2.1638669
2.1631214
2.1633829
2.163223
2.1626127
2.1629898
2.1630972
2.1629336
2.1636784
2.1636439
2.1635699
2.1626942
2.1628364
2.1626127
2.161983
2.1623697
2.1625582
2.162789
2.1637254
2.164036
2.1641744
2.1632968
2.1633062
2.1629898
2.1623697
2.1629016
2.1634288
2.1640764
2.1637805
2.1638851
2.164296
2.1636176
2.1635155
2.1630972
2.1625582
2.1634288
2.1644405
2.1634389
2.1641437
2.1635984
2.163804
2.1635001
2.1633349
2.1629336
2.162789
2.1640764
2.1634389
2.1636794
2.2378246
2.2375079
2.2383637
2.2370569
2.2371958
2.2375973
2.2375367
2.2375863
2.2376506
2.2379959
2.2375079
2.2385114
2.2377691
2.2369214
2.2374645
2.2377005
2.2374885
2.2378869
2.2377475
2.2374736
2.2383637
2.2377691
2.2377509
2.2371995
2.2376402
2.2377135
2.2374151
2.2380278
2.23814
2.2376542
2.2370569
2.2369214
2.2371995
2.2366462
2.2370073
2.2369621
2.2365342
2.2371559
2.2374714
2.2373518
2.2371958
2.2374645
2.2376402
2.2370073
2.2373097
2.2371864
2.2366341
2.2371231
2.2373339
2.2371632
2.2375973
2.2377005
2.2377135
2.2369621
2.2371864
2.2370128
2.2363925
2.2367834
2.2368886
2.2367427
2.2375367
2.2374885
2.2374151
2.2365342
2.2366341
2.2363925
2.2357519
2.2361538
2.2363467
2.2366172
2.2375863
2.2378869
2.2380278
2.2371559
2.2371231
2.2367834
2.2361538
2.236711
2.2372605
2.2379376
2.2376506
2.2377475
2.23814
2.2374714
2.2373339
2.2368886
2.2363467
2.2372605
2.2382967
2.2372752
2.2379959
2.2374736
2.2376542
2.2373518
2.2371632
2.2367427
2.2366172
2.2379376
2.2372752
2.2375409
2.2861817
2.2858745
2.2867018
2.2854425
2.2855232
2.285938
2.2858764
2.2859277
2.2860016
2.2863239
2.2858745
2.2868519
2.2861383
2.2852668
2.2857848
2.2860277
2.2858129
2.2862134
2.2860881
2.2858319
2.2867018
2.2861383
2.2860976
2.2855529
2.2859642
2.2860383
2.2857411
2.2863562
2.2864568
2.2859831
2.2854425
2.2852668
2.2855529
2.2850069
2.2853343
2.2852849
2.2848604
2.2854969
2.285804
2.2856848
2.2855232
2.2857848
2.2859642
2.2853343
2.2855993
2.2854673
2.2849135
2.2854184
2.2856293
2.2854724
2.285938
2.2860277
2.2860383
2.2852849
2.2854673
2.2852817
2.2846559
2.2850575
2.2851591
2.285035
2.2858764
2.2858129
2.2857411
2.2848604
2.2849135
2.2846559
2.2840093
2.2844236
2.2846197
2.2849327
2.2859277
2.2862134
2.2863562
2.2854969
2.2854184
2.2850575
2.2844236
2.2850031
2.2855726
2.2862752
2.2860016
2.2860881
2.2864568
2.285804
2.2856293
2.2851591
2.2846197
2.2855726
2.2866248
2.2855935
2.2863239
2.2858319
2.2859831
2.2856848
2.2854724
2.285035
2.2849327
2.2862752
2.2855935
2.2858846
2.301674
2.3013771
2.3021695
2.300969
2.3009839
2.3014136
2.3013515
2.3014035
2.3014873
2.3017814
2.3013771
2.3023207
2.3016415
2.3007472
2.3012367
2.3014877
2.3012712
2.3016692
2.3015608
2.3013273
2.3021695
2.3016415
2.3015756
2.3010418
2.3014194
2.3014957
2.3012022
2.3018136
2.3019001
2.3014445
2.300969
2.3007472
2.3010418
2.3005071
2.3007961
2.3007441
2.3003267
2.3009736
2.3012692
2.3011529
2.3009839
2.3012367
2.3014194
2.3007961
2.3010193
2.3008802
2.3003289
2.3008462
2.3010559
2.3009167
2.3014136
2.3014877
2.3014957
2.3007441
2.3008802
2.3006848
2.3000578
2.3004666
2.3005632
2.3004647
2.3013515
2.3012712
2.3012022
2.3003267
2.3003289
2.3000578
2.29941
2.2998337
2.3000315
2.3003898
2.3014035
2.3016692
2.3018136
2.3009736
2.3008462
2.3004666
2.2998337
2.3004323
2.3010192
2.301743
2.3014873
2.3015608
2.3019001
2.3012692
2.3010559
2.3005632
2.3000315
2.3010192
2.302079
2.3010479
2.3017814
2.3013273
2.3014445
2.3011529
2.3009167
2.3004647
2.3003898
2.301743
2.3010479
2.3013646
2.2752677
2.2749817
2.2757333
2.2746027
2.2745437
2.274991
2.2749288
2.2749799
2.2750739
2.2753346
2.2749817
2.2758846
2.2752451
2.2743283
2.2747866
2.2750478
2.2748302
2.2752207
2.2751319
2.2749262
2.2757333
2.2752451
2.275151
2.2746325
2.2749727
2.2750531
2.2747652
2.2753666
2.2754366
2.2750048
2.2746027
2.2743283
2.2746325
2.2741131
2.2743597
2.2743071
2.2739
2.2745527
2.2748339
2.2747229
2.2745437
2.2747866
2.2749727
2.2743597
2.2745368
2.274393
2.2738478
2.2743737
2.2745807
2.2744632
2.274991
2.2750478
2.2750531
2.2743071
2.274393
2.2741906
2.2735662
2.2739785
2.2740685
2.2739991
2.2749288
2.2748302
2.2747652
2.2739
2.2738478
2.2735662
2.2729218
2.2733513
2.2735494
2.2739552
2.2749799
2.2752207
2.2753666
2.2745527
2.2743737
2.2739785
2.2733513
2.2739658
2.2745675
2.2753081
2.2750739
2.2751319
2.2754366
2.2748339
2.2745807
2.2740685
2.2735494
2.2745675
2.2756265
2.2746054
2.2753346
2.2749262
2.2750048
2.2747229
2.2744632
2.2739991
2.2739552
2.2753081
2.2746054
2.2749476
2.1958994
2.1956248
2.19633
2.1952804
2.1951388
2.1956074
2.1955455
2.1955941
2.1956982
2.1959202
2.1956248
2.1964809
2.1958864
2.1949466
2.1953718
2.195646
2.1954277
2.1958054
2.1957388
2.1955659
2.19633
2.1958864
2.1957607
2.1952622
2.1955618
2.1956488
2.1953683
2.1959528
2.1960036
2.1956013
2.1952804
2.1949466
2.1952622
2.1947622
2.1949626
2.1949121
2.1945182
2.195172
2.1954358
2.1953324
2.1951388
2.1953718
2.1955618
2.1949626
2.1950902
2.1949446
2.1944085
2.1949391
2.1951419
2.1950497
2.1956074
2.195646
2.1956488
2.1949121
2.1949446
2.1947387
2.1941205
2.194532
2.1946136
2.1945759
2.1955455
2.1954277
2.1953683
2.1945182
2.1944085
2.1941205
2.1934836
2.1939153
2.1941118
2.1945669
2.1955941
2.1958054
2.1959528
2.195172
2.1949391
2.194532
2.1939153
2.1945417
2.1951556
2.1959083
2.1956982
2.1957388
2.1960036
2.1954358
2.1951419
2.1946136
2.1941118
2.1951556
2.1962053
2.1952037
2.1959202
2.1955659
2.1956013
2.1953324
2.1950497
2.1945759
2.1945669
2.1959083
2.1952037
2.1955709
2.0500837
2.0498215
2.0504752
2.0495176
2.0492841
2.049779
2.049718
2.0497618
2.049876
2.0500534
2.0498215
2.0506259
2.0500814
2.0491175
2.0495084
2.0497999
2.0495808
2.04994
2.0498981
2.049763
2.0504752
2.0500814
2.0499207
2.049447
2.0497036
2.0498008
2.0495288
2.0500895
2.0501178
2.04975
2.0495176
2.0491175
2.049447
2.0489708
2.0491221
2.049077
2.0486988
2.049349
2.0495922
2.0494981
2.0492841
2.0495084
2.0497036
2.0491221
2.0491972
2.0490535
2.0485291
2.04906
2.0492573
2.0491932
2.049779
2.0497999
2.0498008
2.049077
2.0490535
2.0488485
2.0482395
2.0486456
2.0487166
2.0487124
2.049718
2.0495808
2.0495288
2.0486988
2.0485291
2.0482395
2.047614
2.0480436
2.0482362
2.0487414
2.0497618
2.04994
2.0500895
2.049349
2.04906
2.0486456
2.0480436
2.048678
2.049301
2.0500604
2.049876
2.0498981
2.0501178
2.0495922
2.0492573
2.0487166
2.0482362
2.049301
2.0503333
2.0493596
2.0500534
2.049763
2.04975
2.0494981
2.0491932
2.0487124
2.0487414
2.0500604
2.0493596
2.0497506
1.8214835
1.8212352
1.8218328
1.8209783
1.820643
1.8211703
1.821111
1.8211476
1.8212718
1.8213982
1.8212352
1.8219846
1.8214952
1.8205054
1.8208616
1.8211758
1.8209561
1.8212903
1.8212756
1.8211826
1.8218328
1.8214952
1.8212963
1.8208519
1.8210639
1.8211758
1.8209138
1.8214431
1.8214452
1.821116
1.8209783
1.8205054
1.8208519
1.8204046
1.8205044
1.8204691
1.8201089
1.8207506
1.8209698
1.8208856
1.820643
1.8208616
1.8210639
1.8205044
1.8205247
1.8203874
1.8198769
1.8204039
1.8205938
1.8205598
1.8211703
1.8211758
1.8211758
1.8204691
1.8203874
1.8201889
1.8195916
1.8199874
1.8200448
1.8200742
1.821111
1.8209561
1.8209138
1.8201089
1.8198769
1.8195916
1.818981
1.819404
1.8195897
1.8201447
1.8211476
1.8212903
1.8214431
1.8207506
1.8204039
1.8199874
1.819404
1.8200422
1.8206708
1.8214307
1.8212718
1.8212756
1.8214452
1.8209698
1.8205938
1.8200448
1.8195897
1.8206708
1.8216775
1.8207386
1.8213982
1.8211826
1.821116
1.8208856
1.8205598
1.8200742
1.8201447
1.8214307
1.8207386
1.8211513
1.4904655
1.4902341
1.4907714
1.4900312
1.4895841
1.4901507
1.4900946
1.4901215
1.4902555
1.490323
1.4902341
1.4909275
1.4904977
1.4894807
1.4898017
1.4901456
1.4899257
1.4902284
1.490243
1.4901957
1.4907714
1.4904977
1.490258
1.4898479
1.4900143
1.4901468
1.489896
1.4903865
1.4903576
1.4900698
1.4900312
1.4894807
1.4898479
1.4894348
1.4894818
1.4894616
1.4891218
1.4897502
1.4899415
1.4898662
1.4895841
1.4898017
1.4900143
1.4894818
1.4894459
1.4893206
1.4888259
1.4893444
1.489525
1.4895211
1.4901507
1.4901456
1.4901468
1.4894616
1.4893206
1.4891347
1.4885515
1.4889316
1.4889719
1.4890328
1.4900946
1.4899257
1.489896
1.4891218
1.4888259
1.4885515
1.4879592
1.4883706
1.4885454
1.4891479
1.4901215
1.4902284
1.4903865
1.4897502
1.4893444
1.4889316
1.4883706
1.4890079
1.4896383
1.4903908
1.4902555
1.490243
1.4903576
1.4899415
1.489525
1.4889719
1.4885454
1.4896383
1.4906112
1.4897118
1.490323
1.4901957
1.4900698
1.4898662
1.4895211
1.4890328
1.4891479
1.4903908
1.4897118
1.4901425
1.0336893
1.0334793
1.0339528
1.0333382
1.0327697
1.0333825
1.0333321
1.0333469
1.0334904
1.0334897
1.0334793
1.0341185
1.0337525
1.0327082
1.032993
1.033375
1.0331563
1.0334208
1.0334668
1.0334669
1.0339528
1.0337525
1.0334709
1.0330996
1.0332202
1.0333803
1.0331433
1.033587
1.0335217
1.0332759
1.0333382
1.0327082
1.0330996
1.0327274
1.032721
1.0327223
1.0324059
1.0330166
1.033175
1.033105
1.0327697
1.032993
1.0332202
1.032721
1.0326286
1.0325213
1.0320449
1.0325507
1.032719
1.0327427
1.0333825
1.033375
1.0333803
1.0327223
1.0325213
1.0323551
1.0317885
1.0321474
1.0321657
1.0322531
1.0333321
1.0331563
1.0331433
1.0324059
1.0320449
1.0317885
1.0312178
1.0316123
1.031771
1.0324163
1.0333469
1.0334208
1.033587
1.0330166
1.0325507
1.0321474
1.0316123
1.0322439
1.0328716
1.0336065
1.0334904
1.0334668
1.0335217
1.033175
1.032719
1.0321657
1.031771
1.0328716
1.0338024
1.032944
1.0334897
1.0334669
1.0332759
1.033105
1.0327427
1.0322531
1.0324163
1.0336065
1.032944
1.0333869
0.42379038
0.42360858
0.42401526
0.42353687
0.42283969
0.42350406
0.42346291
0.42346413
0.42361713
0.4235367
0.42360858
0.42419856
0.42389932
0.42283076
0.42307702
0.42350598
0.42329193
0.4235117
0.42359108
0.42363762
0.42401526
0.42389932
0.42357769
0.42324937
0.42332429
0.42351992
0.42330066
0.42369036
0.4235819
0.42337574
0.42353687
0.42283076
0.42324937
0.42292528
0.42286643
0.42289602
0.42260759
0.42319668
0.42331642
0.42324422
0.42283969
0.42307702
0.42332429
0.42286643
0.4227185
0.42263586
0.42218101
0.42267049
0.42282277
0.42286735
0.42350406
0.42350598
0.42351992
0.42289602
0.42263586
0.42249619
0.42194944
0.42228177
0.42227219
0.42237692
0.42346291
0.42329193
0.42330066
0.42260759
0.42218101
0.42194944
0.42140418
0.42177636
0.42191233
0.42259198
0.42346413
0.4235117
0.42369036
0.42319668
0.42267049
0.42228177
0.42177636
0.4223976
0.42301707
0.42372073
0.42361713
0.42359108
0.4235819
0.42331642
0.42282277
0.42227219
0.42191233
0.42301707
0.42389751
0.42307706
0.4235367
0.42363762
0.42337574
0.42324422
0.42286735
0.42237692
0.42259198
0.42372073
0.42307706
0.42352264
-0.37077316
-0.37091808
-0.37057995
-0.37091395
-0.37174174
-0.37102466
-0.37105132
-0.37106384
-0.37090063
-0.37107471
-0.37091808
-0.37036901
-0.37060129
-0.37168544
-0.37148254
-0.37099889
-0.3712018
-0.37103172
-0.37091729
-0.37082913
-0.37057995
-0.37060129
-0.37095631
-0.37123859
-0.37120893
-0.37097015
-0.37116448
-0.37083483
-0.37099385
-0.37116674
-0.37091395
-0.37168544
-0.37123859
-0.37150653
-0.37161539
-0.37155096
-0.37180426
-0.37123934
-0.37116561
-0.37125239
-0.37174174
-0.37148254
-0.37120893
-0.37161539
-0.37181592
-0.3718681
-0.37229556
-0.37182482
-0.3716937
-0.37164072
-0.37102466
-0.37099889
-0.37097015
-0.37155096
-0.3718681
-0.37197542
-0.37249733
-0.37219577
-0.37224052
-0.37213324
-0.37105132
-0.3712018
-0.37116448
-0.37180426
-0.37229556
-0.37249733
-0.37301218
-0.37266716
-0.37256233
-0.37186159
-0.37106384
-0.37103172
-0.37083483
-0.37123934
-0.37182482
-0.37219577
-0.37266716
-0.37206045
-0.37145549
-0.37080229
-0.37090063
-0.37091729
-0.37099385
-0.37116561
-0.3716937
-0.37224052
-0.37256233
-0.37145549
-0.37063427
-0.37142617
-0.37107471
-0.37082913
-0.37116674
-0.37125239
-0.37164072
-0.37213324
-0.37186159
-0.37080229
-0.37142617
-0.37099223
-1.3856824
-1.3857814
-1.3855121
-1.3856986
-1.3866498
-1.3858867
-1.3858925
-1.3859163
-1.3857409
-1.3860247
-1.3857814
-1.3852635
-1.3854337
-1.3865166
-1.3863661
-1.3858247
-1.3860058
-1.3858875
-1.3857361
-1.3856162
-1.3855121
-1.3854337
-1.3858091
-1.3860447
-1.386061