/*--------------------------------*- C++ -*----------------------------------*\
| =========                 |                                                 |
| \\      /  F ield         | OpenFOAM: The Open Source CFD Toolbox           |
|  \\    /   O peration     | Version:  v2106                                 |
|   \\  /    A nd           | Website:  www.openfoam.com                      |
|    \\/     M anipulation  |                                                 |
\*---------------------------------------------------------------------------*/
FoamFile
{
    version     2.0;
    format      ascii;
    arch        "LSB;label=32;scalar=64";
    class       volScalarField;
    location    "50";
    object      Tmode_lapla1;
}
// * * * * * * * * * * * * * * * * * * * * * * * * * * * * * * * * * * * * * //

dimensions      [0 -2 0 0 0 0 0];

internalField   nonuniform List<scalar> 
4000
(
-0.030072129
-0.030058496
-0.030160161
-0.030090482
-0.030064272
-0.03008168
-0.030091115
-0.030092299
-0.030093067
-0.030094857
-0.030058496
-0.030186929
-0.030150495
-0.030076614
-0.030081418
-0.030105361
-0.030113088
-0.030113898
-0.030116087
-0.030111533
-0.030160161
-0.030150495
-0.030138659
-0.030090824
-0.030097661
-0.030117722
-0.030123929
-0.030125753
-0.030130939
-0.030118783
-0.030090482
-0.030076614
-0.030090824
-0.030048406
-0.030052741
-0.030071152
-0.030075878
-0.030078586
-0.030089444
-0.030091498
-0.030064272
-0.030081418
-0.030097661
-0.030052741
-0.030055751
-0.030072358
-0.030075377
-0.030076292
-0.030086767
-0.030090409
-0.03008168
-0.030105361
-0.030117722
-0.030071152
-0.030072358
-0.030088105
-0.030089808
-0.030088442
-0.030095747
-0.03009548
-0.030091115
-0.030113088
-0.030123929
-0.030075878
-0.030075377
-0.030089808
-0.03009132
-0.03008959
-0.030096147
-0.030094863
-0.030092299
-0.030113898
-0.030125753
-0.030078586
-0.030076292
-0.030088442
-0.03008959
-0.03008844
-0.030095841
-0.030095956
-0.030093067
-0.030116087
-0.030130939
-0.030089444
-0.030086767
-0.030095747
-0.030096147
-0.030095841
-0.030104927
-0.03010711
-0.030094857
-0.030111533
-0.030118783
-0.030091498
-0.030090409
-0.03009548
-0.030094863
-0.030095956
-0.03010711
-0.030107965
-0.090586765
-0.090588999
-0.09071668
-0.090580701
-0.090544715
-0.090584101
-0.090602958
-0.090605854
-0.09061082
-0.09061754
-0.090588999
-0.090739232
-0.09065978
-0.090536959
-0.090556085
-0.090603932
-0.090619045
-0.090623668
-0.090627704
-0.090616349
-0.09071668
-0.09065978
-0.090639597
-0.090557557
-0.090576687
-0.090616457
-0.09062886
-0.090638316
-0.0906492
-0.090623073
-0.090580701
-0.090536959
-0.090557557
-0.090482388
-0.090496471
-0.090532013
-0.090541242
-0.090554095
-0.090579357
-0.090584503
-0.090544715
-0.090556085
-0.090576687
-0.090496471
-0.09050713
-0.090538513
-0.090543136
-0.090551784
-0.090575947
-0.090583634
-0.090584101
-0.090603932
-0.090616457
-0.090532013
-0.090538513
-0.090567438
-0.090568749
-0.090572006
-0.09058928
-0.090588696
-0.090602958
-0.090619045
-0.09062886
-0.090541242
-0.090543136
-0.090568749
-0.090569391
-0.090571878
-0.090587883
-0.090586618
-0.090605854
-0.090623668
-0.090638316
-0.090554095
-0.090551784
-0.090572006
-0.090571878
-0.090576078
-0.090595074
-0.090598811
-0.09061082
-0.090627704
-0.0906492
-0.090579357
-0.090575947
-0.09058928
-0.090587883
-0.090595074
-0.090619732
-0.090625314
-0.09061754
-0.090616349
-0.090623073
-0.090584503
-0.090583634
-0.090588696
-0.090586618
-0.090598811
-0.090625314
-0.090612238
-0.15206029
-0.15204815
-0.15215746
-0.15198812
-0.15195817
-0.15201515
-0.15204002
-0.15204577
-0.15205333
-0.15207316
-0.15204815
-0.15220298
-0.15208633
-0.15193899
-0.15197533
-0.1520402
-0.15206128
-0.15207615
-0.15207537
-0.15205297
-0.15215746
-0.15208633
-0.15204528
-0.15194637
-0.15198062
-0.15203359
-0.15205136
-0.15207759
-0.15209256
-0.15205726
-0.15198812
-0.15193899
-0.15194637
-0.15185477
-0.15188148
-0.15192717
-0.15193938
-0.15197094
-0.15200669
-0.15201397
-0.15195817
-0.15197533
-0.15198062
-0.15188148
-0.15190287
-0.1519419
-0.151946
-0.15197017
-0.15200278
-0.15201166
-0.15201515
-0.1520402
-0.15203359
-0.15192717
-0.1519419
-0.15197705
-0.15197599
-0.15199204
-0.15201471
-0.15201297
-0.15204002
-0.15206128
-0.15205136
-0.15193938
-0.151946
-0.15197599
-0.15197397
-0.15198933
-0.15201128
-0.15201243
-0.15204577
-0.15207615
-0.15207759
-0.15197094
-0.15197017
-0.15199204
-0.15198933
-0.1520085
-0.15203738
-0.15204748
-0.15205333
-0.15207537
-0.15209256
-0.15200669
-0.15200278
-0.15201471
-0.15201128
-0.15203738
-0.15207756
-0.15207555
-0.15207316
-0.15205297
-0.15205726
-0.15201397
-0.15201166
-0.15201297
-0.15201243
-0.15204748
-0.15207555
-0.15205219
-0.21507357
-0.21504139
-0.21516283
-0.2149695
-0.21493778
-0.2150077
-0.21503802
-0.21504963
-0.21505855
-0.21508045
-0.21504139
-0.21520772
-0.21507515
-0.21490488
-0.21495042
-0.2150278
-0.21505533
-0.21508674
-0.2150857
-0.21505396
-0.21516283
-0.21507515
-0.2150274
-0.21491388
-0.21495581
-0.21501749
-0.21504101
-0.21508925
-0.21510762
-0.21505799
-0.2149695
-0.21490488
-0.21491388
-0.2148086
-0.21484088
-0.21489215
-0.21490777
-0.21496329
-0.2150075
-0.21500836
-0.21493778
-0.21495042
-0.21495581
-0.21484088
-0.21486609
-0.2149083
-0.21491261
-0.21495829
-0.21499831
-0.2150015
-0.2150077
-0.2150278
-0.21501749
-0.21489215
-0.2149083
-0.21494515
-0.21494245
-0.21497757
-0.21500524
-0.21499768
-0.21503802
-0.21505533
-0.21504101
-0.21490777
-0.21491261
-0.21494245
-0.21493839
-0.21497315
-0.21500153
-0.21500261
-0.21504963
-0.21508674
-0.21508925
-0.21496329
-0.21495829
-0.21497757
-0.21497315
-0.21501468
-0.21505555
-0.21506738
-0.21505855
-0.2150857
-0.21510762
-0.2150075
-0.21499831
-0.21500524
-0.21500153
-0.21505555
-0.21511334
-0.21508065
-0.21508045
-0.21505396
-0.21505799
-0.21500836
-0.2150015
-0.21499768
-0.21500261
-0.21506738
-0.21508065
-0.21505468
-0.28026004
-0.28022223
-0.28035863
-0.28014368
-0.28010492
-0.28018554
-0.28022118
-0.28024135
-0.28025735
-0.28028198
-0.28022223
-0.28040753
-0.28026347
-0.28006834
-0.28011785
-0.2802052
-0.28023901
-0.28028959
-0.28029214
-0.28025239
-0.28035863
-0.28026347
-0.28021019
-0.280081
-0.28012572
-0.28019345
-0.28022241
-0.28029474
-0.28031829
-0.28025491
-0.28014368
-0.28006834
-0.280081
-0.27996137
-0.27999449
-0.2800487
-0.28006771
-0.28014974
-0.28020419
-0.28019836
-0.28010492
-0.28011785
-0.28012572
-0.27999449
-0.28001884
-0.28006156
-0.28006619
-0.28013643
-0.28018641
-0.28018483
-0.28018554
-0.2802052
-0.28019345
-0.2800487
-0.28006156
-0.28009722
-0.28009287
-0.28015016
-0.28018572
-0.28017474
-0.28022118
-0.28023901
-0.28022241
-0.28006771
-0.28006619
-0.28009287
-0.28008674
-0.28014424
-0.28018279
-0.280188
-0.28024135
-0.28028959
-0.28029474
-0.28014974
-0.28013643
-0.28015016
-0.28014424
-0.28021243
-0.2802705
-0.2802864
-0.28025735
-0.28029214
-0.28031829
-0.28020419
-0.28018641
-0.28018572
-0.28018279
-0.2802705
-0.280351
-0.2802813
-0.28028198
-0.28025239
-0.28025491
-0.28019836
-0.28018483
-0.28017474
-0.280188
-0.2802864
-0.2802813
-0.2802521
-0.3482875
-0.34825236
-0.3483998
-0.34816561
-0.34811583
-0.34820553
-0.34824596
-0.34827516
-0.34829932
-0.34832537
-0.34825236
-0.34845746
-0.34830289
-0.34808153
-0.34813131
-0.34822677
-0.34826579
-0.34833515
-0.3483421
-0.34829443
-0.3483998
-0.34830289
-0.34824189
-0.34809649
-0.34814068
-0.34821276
-0.34824631
-0.34834207
-0.34837052
-0.34829371
-0.34816561
-0.34808153
-0.34809649
-0.34796225
-0.34799302
-0.34804853
-0.34807043
-0.34817886
-0.34824324
-0.34823025
-0.34811583
-0.34813131
-0.34814068
-0.34799302
-0.34801318
-0.34805466
-0.34805912
-0.34815411
-0.34821437
-0.3482085
-0.34820553
-0.34822677
-0.34821276
-0.34804853
-0.34805466
-0.3480872
-0.34808056
-0.34816014
-0.34820402
-0.34819113
-0.34824596
-0.34826579
-0.34824631
-0.34807043
-0.34805912
-0.34808056
-0.34807161
-0.34815212
-0.34820195
-0.34821426
-0.34827516
-0.34833515
-0.34834207
-0.34817886
-0.34815411
-0.34816014
-0.34815212
-0.34824803
-0.34832558
-0.34834704
-0.34829932
-0.3483421
-0.34837052
-0.34824324
-0.34821437
-0.34820402
-0.34820195
-0.34832558
-0.34843026
-0.34832305
-0.34832537
-0.34829443
-0.34829371
-0.34823025
-0.3482085
-0.34819113
-0.34821426
-0.34834704
-0.34832305
-0.34829054
-0.41982468
-0.41979414
-0.41994842
-0.41969879
-0.41963462
-0.41973233
-0.41977692
-0.41981452
-0.41984652
-0.41987183
-0.41979414
-0.42001591
-0.41985248
-0.41960483
-0.41965201
-0.41975482
-0.41979842
-0.41988519
-0.41989672
-0.41984155
-0.41994842
-0.41985248
-0.41978185
-0.41962088
-0.41966201
-0.41973784
-0.41977568
-0.41989318
-0.41992542
-0.41983588
-0.41969879
-0.41960483
-0.41962088
-0.41947293
-0.41949885
-0.41955504
-0.41957986
-0.41971346
-0.41978646
-0.41976596
-0.41963462
-0.41965201
-0.41966201
-0.41949885
-0.41951226
-0.41955171
-0.419556
-0.41967478
-0.41974455
-0.41973484
-0.41973233
-0.41975482
-0.41973784
-0.41955504
-0.41955171
-0.41958018
-0.41957104
-0.41967182
-0.41972327
-0.41970955
-0.41977692
-0.41979842
-0.41977568
-0.41957986
-0.419556
-0.41957104
-0.41955893
-0.41966131
-0.41972201
-0.41974345
-0.41981452
-0.41988519
-0.41989318
-0.41971346
-0.41967478
-0.41967182
-0.41966131
-0.41978431
-0.41988171
-0.41990981
-0.41984652
-0.41989672
-0.41992542
-0.41978646
-0.41974455
-0.41972327
-0.41972201
-0.41988171
-0.42001037
-0.41986735
-0.41987183
-0.41984155
-0.41983588
-0.41976596
-0.41973484
-0.41970955
-0.41974345
-0.41990981
-0.41986735
-0.41983218
-0.49554901
-0.49552386
-0.49568143
-0.49542117
-0.49533964
-0.49544479
-0.49549356
-0.49553922
-0.49557892
-0.49560143
-0.49552386
-0.49575857
-0.49558901
-0.49531579
-0.49535782
-0.49546792
-0.49551639
-0.49561943
-0.49563602
-0.49557427
-0.49568143
-0.49558901
-0.49550756
-0.49533234
-0.4953682
-0.49544781
-0.49549055
-0.49562815
-0.49566306
-0.49556197
-0.49542117
-0.49531579
-0.49533234
-0.49517226
-0.49519114
-0.49524803
-0.49527667
-0.49543427
-0.49551442
-0.4954863
-0.49533964
-0.49535782
-0.4953682
-0.49519114
-0.49519547
-0.49523277
-0.49523776
-0.49537946
-0.49545786
-0.49544494
-0.49544479
-0.49546792
-0.49544781
-0.49524803
-0.49523277
-0.49525682
-0.49524588
-0.49536687
-0.49542498
-0.49541148
-0.49549356
-0.49551639
-0.49549055
-0.49527667
-0.49523776
-0.49524588
-0.49523116
-0.49535432
-0.49542508
-0.49545704
-0.49553922
-0.49561943
-0.49562815
-0.49543427
-0.49537946
-0.49536687
-0.49535432
-0.49550347
-0.49562022
-0.49565528
-0.49557892
-0.49563602
-0.49566306
-0.49551442
-0.49545786
-0.49542498
-0.49542508
-0.49562022
-0.49577159
-0.49559503
-0.49560143
-0.49557427
-0.49556197
-0.4954863
-0.49544494
-0.49541148
-0.49545704
-0.49565528
-0.49559503
-0.49555798
-0.57616096
-0.57614227
-0.57629976
-0.57603432
-0.57593252
-0.5760447
-0.57609809
-0.57615176
-0.57619926
-0.57621681
-0.57614227
-0.5763863
-0.57621387
-0.57591624
-0.57595053
-0.57606804
-0.57612217
-0.57624046
-0.57626283
-0.57619563
-0.57629976
-0.57621387
-0.57612076
-0.57593296
-0.57596128
-0.57604493
-0.57609364
-0.57624975
-0.57628619
-0.57617494
-0.57603432
-0.57591624
-0.57593296
-0.57576266
-0.57577227
-0.57583008
-0.57586397
-0.57604444
-0.5761302
-0.57609436
-0.57593252
-0.57595053
-0.57596128
-0.57577227
-0.57576516
-0.57580037
-0.57580749
-0.57597132
-0.57605743
-0.57604198
-0.5760447
-0.57606804
-0.57604493
-0.57583008
-0.57580037
-0.57581988
-0.57580838
-0.57594872
-0.5760126
-0.57600035
-0.57609809
-0.57612217
-0.57609364
-0.57586397
-0.57580749
-0.57580838
-0.5757922
-0.5759352
-0.57601518
-0.57605871
-0.57615176
-0.57624046
-0.57624975
-0.57604444
-0.57597132
-0.57594872
-0.5759352
-0.57610962
-0.57624485
-0.57628644
-0.57619926
-0.57626283
-0.57628619
-0.5761302
-0.57605743
-0.5760126
-0.57601518
-0.57624485
-0.57641694
-0.57620923
-0.57621681
-0.57619563
-0.57617494
-0.57609436
-0.57604198
-0.57600035
-0.57605871
-0.57628644
-0.57620923
-0.57617093
-0.66238853
-0.66237766
-0.66253166
-0.66226685
-0.66214187
-0.66226057
-0.66231915
-0.6623809
-0.66243634
-0.66244659
-0.66237766
-0.66262737
-0.66245558
-0.66213497
-0.66215874
-0.66228376
-0.66234454
-0.662477
-0.66250597
-0.66243454
-0.66253166
-0.66245558
-0.6623501
-0.66215154
-0.66216989
-0.66225782
-0.66231388
-0.66248675
-0.66252353
-0.66240363
-0.66226685
-0.66213497
-0.66215154
-0.6619731
-0.66197104
-0.66203001
-0.66207089
-0.66227301
-0.66236266
-0.66231898
-0.66214187
-0.66215874
-0.66216989
-0.66197104
-0.66194997
-0.66198316
-0.66199417
-0.66217929
-0.6622721
-0.66225481
-0.66226057
-0.66228376
-0.66225782
-0.66203001
-0.66198316
-0.661998
-0.66198754
-0.66214632
-0.66221508
-0.66220518
-0.66231915
-0.66234454
-0.66231388
-0.66207089
-0.66199417
-0.66198754
-0.66197139
-0.6621333
-0.66222163
-0.66227772
-0.6623809
-0.662477
-0.66248675
-0.66227301
-0.66217929
-0.66214632
-0.6621333
-0.66233211
-0.66248483
-0.66253199
-0.66243634
-0.66250597
-0.66252353
-0.66236266
-0.6622721
-0.66221508
-0.66222163
-0.66248483
-0.66267511
-0.66243885
-0.66244659
-0.66243454
-0.66240363
-0.66231898
-0.66225481
-0.66220518
-0.66227772
-0.66253199
-0.66243885
-0.66239978
-0.75498995
-0.75498834
-0.75513535
-0.7548772
-0.75472614
-0.75485068
-0.7549151
-0.754985
-0.75504857
-0.75504899
-0.75498834
-0.75524003
-0.75507246
-0.75473057
-0.75474083
-0.75487334
-0.75494191
-0.75508736
-0.75512381
-0.75504937
-0.75513535
-0.75507246
-0.75495402
-0.75474661
-0.7547524
-0.75484477
-0.75490972
-0.75509743
-0.75513329
-0.75500636
-0.7548772
-0.75473057
-0.75474661
-0.75456219
-0.75454594
-0.75460622
-0.75465605
-0.75487841
-0.75497011
-0.7549185
-0.75472614
-0.75474083
-0.7547524
-0.75454594
-0.75450822
-0.75453939
-0.75455629
-0.75476173
-0.75486014
-0.75484176
-0.75485068
-0.75487334
-0.75484477
-0.75460622
-0.75453939
-0.75454933
-0.75454175
-0.754718
-0.75479068
-0.75478437
-0.7549151
-0.75494191
-0.75490972
-0.75465605
-0.75455629
-0.75454175
-0.75452737
-0.75470721
-0.75480304
-0.75487268
-0.754985
-0.75508736
-0.75509743
-0.75487841
-0.75476173
-0.754718
-0.75470721
-0.75492949
-0.75509862
-0.75515006
-0.75504857
-0.75512381
-0.75513329
-0.75497011
-0.75486014
-0.75479068
-0.75480304
-0.75509862
-0.75530415
-0.75504225
-0.75504899
-0.75504937
-0.75500636
-0.7549185
-0.75484176
-0.75478437
-0.75487268
-0.75515006
-0.75504225
-0.75500279
-0.85475698
-0.85476613
-0.8549026
-0.8546572
-0.8544773
-0.85460679
-0.85467769
-0.85475584
-0.8548277
-0.85481566
-0.85476613
-0.85501601
-0.85485624
-0.85449504
-0.85448864
-0.85462844
-0.85470604
-0.85486319
-0.85490803
-0.85483185
-0.8549026
-0.85485624
-0.85472437
-0.85451008
-0.85450058
-0.85459742
-0.85467294
-0.85487342
-0.85490707
-0.85477488
-0.8546572
-0.85449504
-0.85451008
-0.85432188
-0.85428879
-0.85435043
-0.85441136
-0.8546524
-0.85474419
-0.85468461
-0.8544773
-0.85448864
-0.85450058
-0.85428879
-0.85423168
-0.85426069
-0.85428569
-0.85451036
-0.85461315
-0.8545945
-0.85460679
-0.85462844
-0.85459742
-0.85435043
-0.85426069
-0.85426538
-0.85426273
-0.85445538
-0.85453102
-0.85452966
-0.85467769
-0.85470604
-0.85467294
-0.85441136
-0.85428569
-0.85426273
-0.85425206
-0.85444878
-0.85455123
-0.85463555
-0.85475584
-0.85486319
-0.85487342
-0.8546524
-0.85451036
-0.85445538
-0.85444878
-0.85469353
-0.85487793
-0.85493212
-0.8548277
-0.85490803
-0.85490707
-0.85474419
-0.85461315
-0.85453102
-0.85455123
-0.85487793
-0.85509539
-0.85481113
-0.85481566
-0.85483185
-0.85477488
-0.85468461
-0.8545945
-0.85452966
-0.85463555
-0.85493212
-0.85481113
-0.85477163
-0.96251874
-0.96254014
-0.96266253
-0.96243589
-0.96222466
-0.96235794
-0.96243597
-0.96252247
-0.9626028
-0.9625756
-0.96254014
-0.96278441
-0.9626359
-0.9622577
-0.96223139
-0.96237804
-0.96246599
-0.96263347
-0.96268761
-0.962611
-0.96266253
-0.9626359
-0.96249032
-0.96227113
-0.96224356
-0.96234473
-0.96243262
-0.96264365
-0.96267381
-0.96253823
-0.96243589
-0.9622577
-0.96227113
-0.96208138
-0.96202876
-0.96209166
-0.96216597
-0.96242393
-0.96251379
-0.9624463
-0.96222466
-0.96223139
-0.96224356
-0.96202876
-0.96194943
-0.96197605
-0.96201152
-0.9622542
-0.96236009
-0.96234206
-0.96235794
-0.96237804
-0.96234473
-0.96209166
-0.96197605
-0.96197501
-0.96197952
-0.96218738
-0.96226501
-0.96227013
-0.96243597
-0.96246599
-0.96243262
-0.96216597
-0.96201152
-0.96197952
-0.96197467
-0.96218712
-0.96229534
-0.96239555
-0.96252247
-0.96263347
-0.96264365
-0.96242393
-0.9622542
-0.96218738
-0.96218712
-0.96245325
-0.96265175
-0.96270693
-0.9626028
-0.96268761
-0.96267381
-0.96251379
-0.96236009
-0.96226501
-0.96229534
-0.96265175
-0.96287748
-0.96257455
-0.9625756
-0.962611
-0.96253823
-0.9624463
-0.96234206
-0.96227013
-0.96239555
-0.96270693
-0.96257455
-0.96253533
-1.0791456
-1.0791807
-1.0792856
-1.0790835
-1.0788389
-1.0789745
-1.0790602
-1.0791552
-1.0792441
-1.0791992
-1.0791807
-1.0794156
-1.0792817
-1.0788891
-1.0788396
-1.0789924
-1.0790921
-1.0792684
-1.0793328
-1.079257
-1.0792856
-1.0792817
-1.0791223
-1.0789002
-1.0788518
-1.0789569
-1.0790591
-1.0792783
-1.0793038
-1.0791668
-1.0790835
-1.0788891
-1.0789002
-1.0787111
-1.0786363
-1.0787002
-1.0787902
-1.0790632
-1.0791491
-1.0790738
-1.0788389
-1.0788396
-1.0788518
-1.0786363
-1.078532
-1.0785558
-1.0786042
-1.0788635
-1.0789712
-1.0789547
-1.0789745
-1.0789924
-1.0789569
-1.0787002
-1.0785558
-1.0785484
-1.0785624
-1.0787842
-1.0788629
-1.0788762
-1.0790602
-1.0790921
-1.0790591
-1.0787902
-1.0786042
-1.0785624
-1.0785657
-1.0787926
-1.0789058
-1.0790232
-1.0791552
-1.0792684
-1.0792783
-1.0790632
-1.0788635
-1.0787842
-1.0787926
-1.079079
-1.0792903
-1.0793446
-1.0792441
-1.0793328
-1.0793038
-1.0791491
-1.0789712
-1.0788629
-1.0789058
-1.0792903
-1.0795203
-1.0792028
-1.0791992
-1.079257
-1.0791668
-1.0790738
-1.0789547
-1.0788762
-1.0790232
-1.0793446
-1.0792028
-1.0791642
-1.2055532
-1.2056033
-1.2056875
-1.2055153
-1.2052358
-1.2053719
-1.205466
-1.2055696
-1.2056672
-1.2056019
-1.2056033
-1.2058253
-1.2057089
-1.2053049
-1.205229
-1.205387
-1.2054997
-1.2056835
-1.2057589
-1.2056852
-1.2056875
-1.2057089
-1.205536
-1.2053128
-1.2052409
-1.2053494
-1.2054677
-1.2056928
-1.2057124
-1.2055761
-1.2055153
-1.2053049
-1.2053128
-1.2051264
-1.2050269
-1.2050913
-1.2051995
-1.2054854
-1.2055653
-1.2054826
-1.2052358
-1.205229
-1.2052409
-1.2050269
-1.204895
-1.2049154
-1.2049795
-1.2052539
-1.2053619
-1.205348
-1.2053719
-1.205387
-1.2053494
-1.2050913
-1.2049154
-1.2049008
-1.2049269
-1.2051614
-1.2052401
-1.2052634
-1.205466
-1.2054997
-1.2054677
-1.2051995
-1.2049795
-1.2049269
-1.2049407
-1.2051808
-1.2052982
-1.2054341
-1.2055696
-1.2056835
-1.2056928
-1.2054854
-1.2052539
-1.2051614
-1.2051808
-1.2054861
-1.205709
-1.2057603
-1.2056672
-1.2057589
-1.2057124
-1.2055653
-1.2053619
-1.2052401
-1.2052982
-1.205709
-1.2059391
-1.2056115
-1.2056019
-1.2056852
-1.2055761
-1.2054826
-1.205348
-1.2052634
-1.2054341
-1.2057603
-1.2056115
-1.2055737
-1.342706
-1.3427722
-1.3428329
-1.3426954
-1.3423802
-1.3425147
-1.3426175
-1.3427298
-1.3428362
-1.3427483
-1.3427722
-1.342978
-1.3428816
-1.3424698
-1.3423643
-1.3425261
-1.3426533
-1.342843
-1.3429301
-1.3428597
-1.3428329
-1.3428816
-1.3426958
-1.3424735
-1.3423754
-1.3424865
-1.3426228
-1.3428514
-1.342864
-1.3427305
-1.3426954
-1.3424698
-1.3424735
-1.3422916
-1.342165
-1.3422293
-1.3423581
-1.3426547
-1.3427265
-1.3426369
-1.3423802
-1.3423643
-1.3423754
-1.342165
-1.3420031
-1.3420195
-1.3421018
-1.3423897
-1.3424966
-1.3424864
-1.3425147
-1.3425261
-1.3424865
-1.3422293
-1.3420195
-1.3419967
-1.3420375
-1.3422832
-1.3423611
-1.3423962
-1.3426175
-1.3426533
-1.3426228
-1.3423581
-1.3421018
-1.3420375
-1.3420642
-1.3423162
-1.342437
-1.3425927
-1.3427298
-1.342843
-1.3428514
-1.3426547
-1.3423897
-1.3422832
-1.3423162
-1.342639
-1.3428722
-1.3429183
-1.3428362
-1.3429301
-1.342864
-1.3427265
-1.3424966
-1.3423611
-1.342437
-1.3428722
-1.3430979
-1.3427649
-1.3427483
-1.3428597
-1.3427305
-1.3426369
-1.3424864
-1.3423962
-1.3425927
-1.3429183
-1.3427649
-1.3427283
-1.4916207
-1.491704
-1.4917386
-1.4916397
-1.4912891
-1.4914194
-1.4915313
-1.4916525
-1.4917676
-1.4916553
-1.491704
-1.4918905
-1.4918163
-1.4914004
-1.4912626
-1.4914263
-1.4915693
-1.4917635
-1.4918629
-1.4917968
-1.4917386
-1.4918163
-1.4916186
-1.4913987
-1.4912722
-1.4913847
-1.4915409
-1.4917705
-1.4917755
-1.4916468
-1.4916397
-1.4914004
-1.4913987
-1.4912232
-1.4910675
-1.4911307
-1.4912824
-1.4915873
-1.4916492
-1.4915532
-1.4912891
-1.4912626
-1.4912722
-1.4910675
-1.4908736
-1.4908848
-1.490988
-1.4912876
-1.4913919
-1.4913865
-1.4914194
-1.4914263
-1.4913847
-1.4911307
-1.4908848
-1.4908527
-1.4909108
-1.4911663
-1.4912426
-1.4912916
-1.4915313
-1.4915693
-1.4915409
-1.4912824
-1.490988
-1.4909108
-1.4909529
-1.4912154
-1.491339
-1.4915158
-1.4916525
-1.4917635
-1.4917705
-1.4915873
-1.4912876
-1.4911663
-1.4912154
-1.4915543
-1.4917964
-1.491835
-1.4917676
-1.4918629
-1.4917755
-1.4916492
-1.4913919
-1.4912426
-1.491339
-1.4917964
-1.4920131
-1.4916798
-1.4916553
-1.4917968
-1.4916468
-1.4915532
-1.4913865
-1.4912916
-1.4915158
-1.491835
-1.4916798
-1.4916445
-1.6533689
-1.65347
-1.6534766
-1.6534192
-1.6530345
-1.6531575
-1.6532788
-1.6534089
-1.6535326
-1.6533944
-1.65347
-1.6536346
-1.6535839
-1.6531682
-1.6529956
-1.6531591
-1.6533191
-1.6535164
-1.6536284
-1.6535674
-1.6534766
-1.6535839
-1.6533757
-1.6531598
-1.6530031
-1.6531153
-1.6532931
-1.6535215
-1.6535183
-1.6533965
-1.6534192
-1.6531682
-1.6531598
-1.6529921
-1.6528057
-1.6528665
-1.6530433
-1.653354
-1.6534043
-1.6533029
-1.6530345
-1.6529956
-1.6530031
-1.6528057
-1.6525782
-1.6525831
-1.6527099
-1.6530191
-1.6531195
-1.6531198
-1.6531575
-1.6531591
-1.6531153
-1.6528665
-1.6525831
-1.6525403
-1.6526184
-1.6528821
-1.6529563
-1.653021
-1.6532788
-1.6533191
-1.6532931
-1.6530433
-1.6527099
-1.6526184
-1.6526784
-1.6529499
-1.6530759
-1.6532748
-1.6534089
-1.6535164
-1.6535215
-1.653354
-1.6530191
-1.6528821
-1.6529499
-1.6533033
-1.6535529
-1.6535816
-1.6535326
-1.6536284
-1.6535183
-1.6534043
-1.6531195
-1.6529563
-1.6530759
-1.6535529
-1.6537558
-1.6534275
-1.6533944
-1.6535674
-1.6533965
-1.6533029
-1.6531198
-1.653021
-1.6532748
-1.6535816
-1.6534275
-1.6533938
-1.8290781
-1.8291973
-1.8291748
-1.8291605
-1.8287443
-1.8288566
-1.8289872
-1.8291265
-1.8292585
-1.8290937
-1.8291973
-1.8293381
-1.8293115
-1.8289009
-1.8286914
-1.828852
-1.8290301
-1.8292291
-1.8293538
-1.8292984
-1.8291748
-1.8293115
-1.829095
-1.8288842
-1.8286958
-1.8288059
-1.8290068
-1.8292318
-1.8292201
-1.8291072
-1.8291605
-1.8289009
-1.8288842
-1.8287253
-1.8285073
-1.8285642
-1.8287679
-1.8290818
-1.829119
-1.8290132
-1.8287443
-1.8286914
-1.8286958
-1.8285073
-1.8282453
-1.8282424
-1.8283951
-1.8287119
-1.828807
-1.8288139
-1.8288566
-1.828852
-1.8288059
-1.8285642
-1.8282424
-1.8281873
-1.8282878
-1.8285584
-1.8286299
-1.8287122
-1.8289872
-1.8290301
-1.8290068
-1.8287679
-1.8283951
-1.8282878
-1.8283682
-1.8286473
-1.8287752
-1.8289971
-1.8291265
-1.8292291
-1.8292318
-1.8290818
-1.8287119
-1.8285584
-1.8286473
-1.8290133
-1.8292692
-1.8292856
-1.8292585
-1.8293538
-1.8292201
-1.829119
-1.828807
-1.8286299
-1.8287752
-1.8292692
-1.8294536
-1.8291357
-1.8290937
-1.8292984
-1.8291072
-1.8290132
-1.8288139
-1.8287122
-1.8289971
-1.8292856
-1.8291357
-1.8291036
-2.0199308
-2.0200682
-2.0200161
-2.020045
-2.0196016
-2.0196992
-2.019839
-2.0199874
-2.0201272
-2.0199359
-2.0200682
-2.0201835
-2.0201811
-2.0197807
-2.019533
-2.0196872
-2.0198843
-2.0200839
-2.020221
-2.0201715
-2.0200161
-2.0201811
-2.0199587
-2.019754
-2.0195331
-2.0196387
-2.0198638
-2.0200835
-2.0200636
-2.0199612
-2.020045
-2.0197807
-2.019754
-2.0196047
-2.0193546
-2.0194057
-2.0196378
-2.0199521
-2.0199752
-2.0198662
-2.0196016
-2.019533
-2.0195331
-2.0193546
-2.0190579
-2.0190455
-2.0192262
-2.0195484
-2.0196368
-2.0196514
-2.0196992
-2.0196872
-2.0196387
-2.0194057
-2.0190455
-2.0189765
-2.0191017
-2.0193775
-2.0194461
-2.019548
-2.019839
-2.0198843
-2.0198638
-2.0196378
-2.0192262
-2.0191017
-2.0192045
-2.0194897
-2.0196195
-2.019865
-2.0199874
-2.0200839
-2.0200835
-2.0199521
-2.0195484
-2.0193775
-2.0194897
-2.0198667
-2.0201273
-2.0201292
-2.0201272
-2.020221
-2.0200636
-2.0199752
-2.0196368
-2.0194461
-2.0196195
-2.0201273
-2.0202887
-2.0199866
-2.0199359
-2.0201715
-2.0199612
-2.0198662
-2.0196514
-2.019548
-2.019865
-2.0201292
-2.0199866
-2.0199563
-2.2271588
-2.2273137
-2.2272325
-2.2273031
-2.2268383
-2.2269167
-2.2270652
-2.2272229
-2.2273699
-2.2271531
-2.2273137
-2.2274029
-2.2274234
-2.2270389
-2.2267523
-2.2268964
-2.227113
-2.2273122
-2.2274609
-2.2274173
-2.2272325
-2.2274234
-2.2271984
-2.2270004
-2.226747
-2.2268452
-2.2270952
-2.227308
-2.2272805
-2.2271901
-2.2273031
-2.2270389
-2.2270004
-2.2268608
-2.2265791
-2.2266221
-2.2268837
-2.2271955
-2.2272038
-2.2270931
-2.2268383
-2.2267523
-2.226747
-2.2265791
-2.2262483
-2.2262246
-2.226435
-2.2267601
-2.2268408
-2.2268637
-2.2269167
-2.2268964
-2.2268452
-2.2266221
-2.2262246
-2.2261396
-2.2262916
-2.2265712
-2.2266368
-2.2267599
-2.2270652
-2.227113
-2.2270952
-2.2268837
-2.226435
-2.2262916
-2.2264189
-2.2267087
-2.2268403
-2.2271095
-2.2272229
-2.2273122
-2.227308
-2.2271955
-2.2267601
-2.2265712
-2.2267087
-2.2270946
-2.2273584
-2.2273437
-2.2273699
-2.2274609
-2.2272805
-2.2272038
-2.2268408
-2.2266368
-2.2268403
-2.2273584
-2.2274925
-2.2272118
-2.2271531
-2.2274173
-2.2271901
-2.2270931
-2.2268637
-2.2267599
-2.2271095
-2.2273437
-2.2272118
-2.2271831
-2.4520292
-2.4522006
-2.4520917
-2.4522006
-2.4517219
-2.4517762
-2.4519327
-2.4520995
-2.4522529
-2.4520127
-2.4522006
-2.4522634
-2.4523048
-2.451942
-2.451617
-2.4517465
-2.4519828
-2.4521809
-2.4523399
-2.4523018
-2.4520917
-2.4523048
-2.4520808
-2.4518897
-2.4516046
-2.4516922
-2.4519673
-2.4521719
-2.4521378
-2.4520608
-2.4522006
-2.451942
-2.4518897
-2.4517596
-2.4514475
-2.4514799
-2.4517713
-2.4520778
-2.4520711
-2.4519606
-2.4517219
-2.451617
-2.4516046
-2.4514475
-2.4510842
-2.4510471
-2.4512884
-2.4516138
-2.4516858
-2.4517178
-2.4517762
-2.4517465
-2.4516922
-2.4514799
-2.4510471
-2.4509442
-2.4511246
-2.4514063
-2.4514694
-2.4516152
-2.4519327
-2.4519828
-2.4519673
-2.4517713
-2.4512884
-2.4511246
-2.4512778
-2.4515707
-2.4517045
-2.4519972
-2.4520995
-2.4521809
-2.4521719
-2.4520778
-2.4516138
-2.4514063
-2.4515707
-2.4519634
-2.4522291
-2.4521959
-2.4522529
-2.4523399
-2.4521378
-2.4520711
-2.4516858
-2.4514694
-2.4517045
-2.4522291
-2.4523318
-2.4520779
-2.4520127
-2.4523018
-2.4520608
-2.4519606
-2.4517178
-2.4516152
-2.4519972
-2.4521959
-2.4520779
-2.452051
-2.6958166
-2.6960027
-2.6958685
-2.6960106
-2.695527
-2.6955522
-2.6957154
-2.6958913
-2.6960499
-2.6957898
-2.6960027
-2.6960395
-2.6960989
-2.695764
-2.6954017
-2.6955117
-2.6957673
-2.6959638
-2.6961315
-2.696098
-2.6958685
-2.6960989
-2.69588
-2.6956957
-2.6953805
-2.6954537
-2.6957536
-2.695949
-2.6959101
-2.6958473
-2.6960106
-2.695764
-2.6956957
-2.6955741
-2.6952339
-2.6952528
-2.6955735
-2.6958718
-2.6958504
-2.6957423
-2.695527
-2.6954017
-2.6953805
-2.6952339
-2.6948408
-2.6947879
-2.6950606
-2.6953837
-2.6954462
-2.6954879
-2.6955522
-2.6955117
-2.6954537
-2.6952528
-2.6947879
-2.694665
-2.6948748
-2.6951573
-2.6952184
-2.6953883
-2.6957154
-2.6957673
-2.6957536
-2.6955735
-2.6950606
-2.6948748
-2.695055
-2.6953496
-2.695486
-2.6958015
-2.6958913
-2.6959638
-2.695949
-2.6958718
-2.6953837
-2.6951573
-2.6953496
-2.6957468
-2.6960129
-2.69596
-2.6960499
-2.6961315
-2.6959101
-2.6958504
-2.6954462
-2.6952184
-2.695486
-2.6960129
-2.6960808
-2.695859
-2.6957898
-2.696098
-2.6958473
-2.6957423
-2.6954879
-2.6953883
-2.6958015
-2.69596
-2.695859
-2.695834
-2.9597503
-2.9599486
-2.9597925
-2.9599606
-2.959483
-2.9594737
-2.9596421
-2.9598267
-2.9599889
-2.9597139
-2.9599486
-2.9599605
-2.960034
-2.9597327
-2.9593358
-2.959421
-2.9596949
-2.9598895
-2.9600634
-2.9600336
-2.9597925
-2.960034
-2.9598245
-2.9596464
-2.9593038
-2.9593586
-2.9596818
-2.9598676
-2.9598262
-2.9597784
-2.9599606
-2.9597327
-2.9596464
-2.9595319
-2.9591668
-2.959169
-2.9595176
-2.9598047
-2.9597698
-2.9596666
-2.959483
-2.9593358
-2.9593038
-2.9591668
-2.9587476
-2.9586766
-2.9589804
-2.9592982
-2.9593508
-2.959403
-2.9594737
-2.959421
-2.9593586
-2.959169
-2.9586766
-2.9585316
-2.9587713
-2.9590529
-2.9591131
-2.9593083
-2.9596421
-2.9596949
-2.9596818
-2.9595176
-2.9589804
-2.9587713
-2.9589787
-2.9592736
-2.9594136
-2.9597506
-2.9598267
-2.9598895
-2.9598676
-2.9598047
-2.9592982
-2.9590529
-2.9592736
-2.9596728
-2.959938
-2.9598646
-2.9599889
-2.9600634
-2.9598262
-2.9597698
-2.9593508
-2.9591131
-2.9594136
-2.959938
-2.9599683
-2.9597837
-2.9597139
-2.9600336
-2.9597784
-2.9596666
-2.959403
-2.9593083
-2.9597506
-2.9598646
-2.9597837
-2.9597609
-3.2449201
-3.2451274
-3.2449537
-3.2451388
-3.2446792
-3.2446303
-3.2448019
-3.2449946
-3.2451586
-3.2448752
-3.2451274
-3.2451159
-3.2451987
-3.2449368
-3.2445092
-3.2445638
-3.2448543
-3.2450469
-3.2452242
-3.2451967
-3.2449537
-3.2451987
-3.245003
-3.2448304
-3.2444642
-3.2444962
-3.2448404
-3.2450164
-3.2449755
-3.2449432
-3.2451388
-3.2449368
-3.2448304
-3.2447207
-3.244335
-3.2443174
-3.2446912
-3.2449641
-3.2449176
-3.2448224
-3.2446792
-3.2445092
-3.2444642
-3.244335
-3.2438944
-3.243803
-3.2441365
-3.2444462
-3.2444888
-3.2445523
-3.2446303
-3.2445638
-3.2444962
-3.2443174
-3.243803
-3.2436342
-3.2439031
-3.2441825
-3.2442432
-3.2444649
-3.2448019
-3.2448543
-3.2448404
-3.2446912
-3.2441365
-3.2439031
-3.2441375
-3.2444312
-3.2445759
-3.2449327
-3.2449946
-3.2450469
-3.2450164
-3.2449641
-3.2444462
-3.2441825
-3.2444312
-3.2448299
-3.2450927
-3.2449992
-3.2451586
-3.2452242
-3.2449755
-3.2449176
-3.2444888
-3.2442432
-3.2445759
-3.2450927
-3.2450837
-3.2449413
-3.2448752
-3.2451967
-3.2449432
-3.2448224
-3.2445523
-3.2444649
-3.2449327
-3.2449992
-3.2449413
-3.2449211
-3.5521154
-3.5523277
-3.5521417
-3.5523333
-3.5519044
-3.5518116
-3.5519836
-3.5521836
-3.5523471
-3.5520633
-3.5523277
-3.5522946
-3.5523817
-3.5521637
-3.551711
-3.5517295
-3.5520338
-3.5522246
-3.5524015
-3.5523752
-3.5521417
-3.5523817
-3.5522039
-3.5520358
-3.5516508
-3.5516556
-3.5520171
-3.5521837
-3.5521469
-3.5521303
-3.5523333
-3.5521637
-3.5520358