/*--------------------------------*- C++ -*----------------------------------*\
| =========                 |                                                 |
| \\      /  F ield         | OpenFOAM: The Open Source CFD Toolbox           |
|  \\    /   O peration     | Version:  v2106                                 |
|   \\  /    A nd           | Website:  www.openfoam.com                      |
|    \\/     M anipulation  |                                                 |
\*---------------------------------------------------------------------------*/
FoamFile
{
    version     2.0;
    format      ascii;
    arch        "LSB;label=32;scalar=64";
    class       volScalarField;
    location    "50";
    object      Tmode_lapla1;
}
// * * * * * * * * * * * * * * * * * * * * * * * * * * * * * * * * * * * * * //

dimensions      [0 -2 0 0 0 0 0];

internalField   nonuniform List<scalar> 
4000
(
24.262292
24.26231
24.262224
24.262232
24.262229
24.262231
24.262252
24.262277
24.262295
24.262304
24.26231
24.262214
24.26222
24.262227
24.262207
24.262209
24.262232
24.262258
24.262276
24.262287
24.262224
24.26222
24.262196
24.262188
24.262173
24.262179
24.262203
24.26223
24.262248
24.262265
24.262232
24.262227
24.262188
24.262183
24.262171
24.262177
24.2622
24.262228
24.262245
24.262256
24.262229
24.262207
24.262173
24.262171
24.262158
24.262161
24.262183
24.262209
24.262227
24.262239
24.262231
24.262209
24.262179
24.262177
24.262161
24.26216
24.262179
24.262204
24.262221
24.262234
24.262252
24.262232
24.262203
24.2622
24.262183
24.262179
24.262194
24.262216
24.262233
24.262246
24.262277
24.262258
24.26223
24.262228
24.262209
24.262204
24.262216
24.262238
24.262254
24.262266
24.262295
24.262276
24.262248
24.262245
24.262227
24.262221
24.262233
24.262254
24.26227
24.26228
24.262304
24.262287
24.262265
24.262256
24.262239
24.262234
24.262246
24.262266
24.26228
24.26229
-0.091058222
-0.091059567
-0.091191843
-0.091050733
-0.09101641
-0.091056195
-0.091074965
-0.091077804
-0.091082901
-0.091089861
-0.091059567
-0.091214428
-0.091131966
-0.091007707
-0.09102858
-0.091076611
-0.091091533
-0.091096057
-0.091099982
-0.091088014
-0.091191843
-0.091131966
-0.091113236
-0.091029429
-0.091049986
-0.091089877
-0.091102085
-0.091111637
-0.091122914
-0.091095814
-0.091050733
-0.091007707
-0.091029429
-0.090952245
-0.09096769
-0.091003327
-0.091012262
-0.091025084
-0.091050974
-0.091056244
-0.09101641
-0.09102858
-0.091049986
-0.09096769
-0.090979719
-0.091011218
-0.091015523
-0.091023984
-0.091048452
-0.091055831
-0.091056195
-0.091076611
-0.091089877
-0.091003327
-0.091011218
-0.091040293
-0.091041317
-0.091044403
-0.091061961
-0.091060946
-0.091074965
-0.091091533
-0.091102085
-0.091012262
-0.091015523
-0.091041317
-0.09104169
-0.091044022
-0.091060326
-0.091058657
-0.091077804
-0.091096057
-0.091111637
-0.091025084
-0.091023984
-0.091044403
-0.091044022
-0.09104806
-0.09106736
-0.091070793
-0.091082901
-0.091099982
-0.091122914
-0.091050974
-0.091048452
-0.091061961
-0.091060326
-0.09106736
-0.091092375
-0.091097785
-0.091089861
-0.091088014
-0.091095814
-0.091056244
-0.091055831
-0.091060946
-0.091058657
-0.091070793
-0.091097785
-0.091084188
-0.15284728
-0.15283266
-0.15294716
-0.152772
-0.15274427
-0.15280173
-0.15282642
-0.15283205
-0.15283968
-0.1528606
-0.15283266
-0.15299321
-0.15287282
-0.15272401
-0.15276264
-0.15282768
-0.15284846
-0.15286339
-0.15286196
-0.15283852
-0.15294716
-0.15287282
-0.15283322
-0.15273241
-0.15276854
-0.15282156
-0.15283897
-0.15286565
-0.15288107
-0.15284441
-0.152772
-0.15272401
-0.15273241
-0.15263861
-0.15266712
-0.15271281
-0.15272447
-0.15275622
-0.15279269
-0.15280001
-0.15274427
-0.15276264
-0.15276854
-0.15266712
-0.15269032
-0.1527294
-0.15273292
-0.15275703
-0.15278991
-0.15279823
-0.15280173
-0.15282768
-0.15282156
-0.15271281
-0.1527294
-0.15276466
-0.15276307
-0.15277909
-0.15280199
-0.1527995
-0.15282642
-0.15284846
-0.15283897
-0.15272447
-0.15273292
-0.15276307
-0.15276053
-0.15277587
-0.15279807
-0.15279858
-0.15283205
-0.15286339
-0.15286565
-0.15275622
-0.15275703
-0.15277909
-0.15277587
-0.15279503
-0.1528242
-0.15283392
-0.15283968
-0.15286196
-0.15288107
-0.15279269
-0.15278991
-0.15280199
-0.15279807
-0.1528242
-0.15286483
-0.15286243
-0.1528606
-0.15283852
-0.15284441
-0.15280001
-0.15279823
-0.1527995
-0.15279858
-0.15283392
-0.15286243
-0.15283837
-0.21617481
-0.21613945
-0.21626711
-0.21606703
-0.21603795
-0.21610845
-0.21613851
-0.21615002
-0.21615873
-0.21618219
-0.21613945
-0.21631238
-0.21617572
-0.21600369
-0.21605196
-0.21612949
-0.2161566
-0.21618846
-0.21618637
-0.21615317
-0.21626711
-0.21617572
-0.21612975
-0.21601402
-0.21605818
-0.21611984
-0.21614277
-0.21619197
-0.21621077
-0.21615915
-0.21606703
-0.21600369
-0.21601402
-0.21590616
-0.21594058
-0.21599179
-0.21600655
-0.21606266
-0.21610767
-0.21610826
-0.21603795
-0.21605196
-0.21605818
-0.21594058
-0.21596798
-0.21601018
-0.21601358
-0.21605955
-0.21609979
-0.21610199
-0.21610845
-0.21612949
-0.21611984
-0.21599179
-0.21601018
-0.21604709
-0.21604354
-0.21607898
-0.2161068
-0.21609803
-0.21613851
-0.2161566
-0.21614277
-0.21600655
-0.21601358
-0.21604354
-0.21603867
-0.21607376
-0.21610232
-0.21610238
-0.21615002
-0.21618846
-0.21619197
-0.21606266
-0.21605955
-0.21607898
-0.21607376
-0.21611562
-0.21615676
-0.21616811
-0.21615873
-0.21618637
-0.21621077
-0.21610767
-0.21609979
-0.2161068
-0.21610232
-0.21615676
-0.21621522
-0.21618117
-0.21618219
-0.21615317
-0.21615915
-0.21610826
-0.21610199
-0.21609803
-0.21610238
-0.21616811
-0.21618117
-0.21615475
-0.28167451
-0.28163332
-0.28177681
-0.28155417
-0.28151842
-0.28159971
-0.281635
-0.28165516
-0.28167091
-0.28169752
-0.28163332
-0.28182624
-0.28167768
-0.28148043
-0.2815331
-0.28162056
-0.28165374
-0.28170517
-0.28170638
-0.28166484
-0.28177681
-0.28167768
-0.2816264
-0.28149466
-0.28154195
-0.2816096
-0.28163768
-0.28171149
-0.28173552
-0.28166963
-0.28155417
-0.28148043
-0.28149466
-0.28137205
-0.28140765
-0.28146171
-0.2814795
-0.28156258
-0.28161799
-0.28161165
-0.28151842
-0.2815331
-0.28154195
-0.28140765
-0.28143453
-0.28147717
-0.28148052
-0.28155142
-0.28160168
-0.28159876
-0.28159971
-0.28162056
-0.2816096
-0.28146171
-0.28147717
-0.28151284
-0.28150729
-0.28156525
-0.28160098
-0.2815884
-0.281635
-0.28165374
-0.28163768
-0.2814795
-0.28148052
-0.28150729
-0.28149998
-0.28155818
-0.28159693
-0.28160087
-0.28165516
-0.28170517
-0.28171149
-0.28156258
-0.28155142
-0.28156525
-0.28155818
-0.28162706
-0.28168554
-0.28170112
-0.28167091
-0.28170638
-0.28173552
-0.28161799
-0.28160168
-0.28160098
-0.28159693
-0.28168554
-0.28176726
-0.28169499
-0.28169752
-0.28166484
-0.28166963
-0.28161165
-0.28159876
-0.2815884
-0.28160087
-0.28170112
-0.28169499
-0.28166561
-0.35001524
-0.34997653
-0.35013179
-0.34988905
-0.34984259
-0.34993306
-0.34997301
-0.35000225
-0.35002612
-0.35005451
-0.34997653
-0.35019015
-0.3500307
-0.34980683
-0.34986018
-0.34995572
-0.34999388
-0.35006442
-0.35006974
-0.35001994
-0.35013179
-0.3500307
-0.34997185
-0.34982355
-0.34987065
-0.34994257
-0.34997494
-0.35007265
-0.35010162
-0.35002176
-0.34988905
-0.34980683
-0.34982355
-0.34968596
-0.34971952
-0.34977479
-0.3497951
-0.34990498
-0.34997048
-0.34995673
-0.34984259
-0.34986018
-0.34987065
-0.34971952
-0.34974254
-0.34978387
-0.34978665
-0.34988264
-0.34994322
-0.34993566
-0.34993306
-0.34995572
-0.34994257
-0.34977479
-0.34978387
-0.34981638
-0.34980814
-0.34988872
-0.34993278
-0.34991791
-0.34997301
-0.34999388
-0.34997494
-0.3497951
-0.34978665
-0.34980814
-0.34979763
-0.34987915
-0.34992917
-0.34993999
-0.35000225
-0.35006442
-0.35007265
-0.34990498
-0.34988264
-0.34988872
-0.34987915
-0.34997608
-0.35005414
-0.35007555
-0.35002612
-0.35006974
-0.35010162
-0.34997048
-0.34994322
-0.34993278
-0.34992917
-0.35005414
-0.35016068
-0.35004969
-0.35005451
-0.35001994
-0.35002176
-0.34995673
-0.34993566
-0.34991791
-0.34993999
-0.35007555
-0.35004969
-0.35001729
-0.42186612
-0.42183181
-0.42199456
-0.4217356
-0.42167503
-0.42177362
-0.42181759
-0.42185525
-0.42188694
-0.42191491
-0.42183181
-0.42206292
-0.42189427
-0.42164372
-0.42169486
-0.42179775
-0.42184024
-0.4219285
-0.42193814
-0.42188049
-0.42199456
-0.42189427
-0.42182588
-0.42166171
-0.42170607
-0.42178168
-0.42181803
-0.42193793
-0.42197072
-0.42187762
-0.4217356
-0.42164372
-0.42166171
-0.42151006
-0.42153907
-0.42159495
-0.4216178
-0.42175324
-0.4218275
-0.421806
-0.42167503
-0.42169486
-0.42170607
-0.42153907
-0.42155564
-0.42159489
-0.42159709
-0.4217172
-0.42178734
-0.42177562
-0.42177362
-0.42179775
-0.42178168
-0.42159495
-0.42159489
-0.42162329
-0.42161216
-0.42171426
-0.42176588
-0.42174981
-0.42181759
-0.42184024
-0.42181803
-0.4216178
-0.42159709
-0.42161216
-0.4215981
-0.42170179
-0.42176266
-0.42178239
-0.42185525
-0.4219285
-0.42193793
-0.42175324
-0.4217172
-0.42171426
-0.42170179
-0.42182611
-0.42192411
-0.42195247
-0.42188694
-0.42193814
-0.42197072
-0.4218275
-0.42178734
-0.42176588
-0.42176266
-0.42192411
-0.42205529
-0.42190731
-0.42191491
-0.42188049
-0.42187762
-0.421806
-0.42177562
-0.42174981
-0.42178239
-0.42195247
-0.42190731
-0.42187255
-0.49790554
-0.49787646
-0.49804304
-0.4977728
-0.49769508
-0.49780124
-0.49784926
-0.497895
-0.49793437
-0.49795983
-0.49787646
-0.49812121
-0.49794618
-0.49766965
-0.49771603
-0.4978262
-0.49787332
-0.49797815
-0.4979926
-0.49792807
-0.49804304
-0.49794618
-0.49786701
-0.49768833
-0.49772771
-0.49780706
-0.49784799
-0.49798844
-0.4980239
-0.49791877
-0.4977728
-0.49766965
-0.49768833
-0.49752424
-0.49754647
-0.497603
-0.49762928
-0.49778912
-0.49787067
-0.4978413
-0.49769508
-0.49771603
-0.49772771
-0.49754647
-0.49755424
-0.49759129
-0.4975938
-0.49773714
-0.49781596
-0.49780072
-0.49780124
-0.4978262
-0.49780706
-0.497603
-0.49759129
-0.49761527
-0.49760194
-0.49772455
-0.49778283
-0.49776661
-0.49784926
-0.49787332
-0.49784799
-0.49762928
-0.4975938
-0.49760194
-0.4975849
-0.49770965
-0.49778056
-0.4978106
-0.497895
-0.49797815
-0.49798844
-0.49778912
-0.49773714
-0.49772455
-0.49770965
-0.4978604
-0.49797783
-0.49801346
-0.49793437
-0.4979926
-0.4980239
-0.49787067
-0.49781596
-0.49778283
-0.49778056
-0.49797783
-0.49813237
-0.4979497
-0.49795983
-0.49792807
-0.49791877
-0.4978413
-0.49780072
-0.49776661
-0.4978106
-0.49801346
-0.4979497
-0.49791337
-0.57883564
-0.57881293
-0.57897985
-0.57870393
-0.57860606
-0.57871938
-0.57877188
-0.57882566
-0.57887282
-0.57889357
-0.57881293
-0.57906759
-0.57888953
-0.57858816
-0.57862714
-0.57874476
-0.57879729
-0.57891763
-0.57893764
-0.57886741
-0.57897985
-0.57888953
-0.57879868
-0.57860719
-0.57863928
-0.57872263
-0.57876924
-0.5789286
-0.5789656
-0.57884987
-0.57870393
-0.57858816
-0.57860719
-0.5784326
-0.57844579
-0.57850319
-0.57853436
-0.57871746
-0.57880472
-0.5787674
-0.57860606
-0.57862714
-0.57863928
-0.57844579
-0.57844235
-0.57847728
-0.57848153
-0.57864732
-0.5787339
-0.57871584
-0.57871938
-0.57874476
-0.57872263
-0.57850319
-0.57847728
-0.57849672
-0.57848246
-0.5786247
-0.57868874
-0.57867344
-0.57877188
-0.57879729
-0.57876924
-0.57853436
-0.57848153
-0.57848246
-0.57846359
-0.57860845
-0.57868854
-0.57872998
-0.57882566
-0.57891763
-0.5789286
-0.57871746
-0.57864732
-0.5786247
-0.57860845
-0.57878473
-0.57892075
-0.5789632
-0.57887282
-0.57893764
-0.5789656
-0.57880472
-0.5787339
-0.57868874
-0.57868854
-0.57892075
-0.57909662
-0.57888171
-0.57889357
-0.57886741
-0.57884987
-0.5787674
-0.57871584
-0.57867344
-0.57872998
-0.5789632
-0.57888171
-0.57884444
-0.66538699
-0.66537203
-0.66553577
-0.66526012
-0.66513911
-0.66525911
-0.66531667
-0.66537853
-0.66543365
-0.6654473
-0.66537203
-0.66563284
-0.66545537
-0.66513057
-0.66515934
-0.66528452
-0.66534347
-0.66547822
-0.66550465
-0.66542995
-0.66553577
-0.66545537
-0.66535207
-0.66514964
-0.66517197
-0.66525958
-0.66531325
-0.66548975
-0.66552707
-0.66540229
-0.66526012
-0.66513057
-0.66514964
-0.66496669
-0.66496839
-0.66502691
-0.66506472
-0.66526983
-0.6653611
-0.66531571
-0.66513911
-0.66515934
-0.66517197
-0.66496839
-0.66495119
-0.66498408
-0.66499184
-0.6651792
-0.66527253
-0.66525239
-0.66525911
-0.66528452
-0.66525958
-0.66502691
-0.66498408
-0.66499885
-0.66498527
-0.66514622
-0.66521512
-0.66520186
-0.66531667
-0.66534347
-0.66531325
-0.66506472
-0.66499184
-0.66498527
-0.66496607
-0.66513011
-0.66521852
-0.66527235
-0.66537853
-0.66547822
-0.66548975
-0.66526983
-0.6651792
-0.66514622
-0.66513011
-0.66533104
-0.66548462
-0.66553295
-0.66543365
-0.66550465
-0.66552707
-0.6653611
-0.66527253
-0.66521512
-0.66521852
-0.66548462
-0.66567927
-0.66543478
-0.6654473
-0.66542995
-0.66540229
-0.66531571
-0.66525239
-0.66520186
-0.66527235
-0.66553295
-0.66543478
-0.66539703
-0.75832151
-0.75831583
-0.75847274
-0.75820356
-0.7580564
-0.75818243
-0.75824569
-0.7583157
-0.75837898
-0.75838295
-0.75831583
-0.75857894
-0.75840575
-0.75805921
-0.75807473
-0.75820746
-0.75827399
-0.75842193
-0.75845569
-0.7583778
-0.75847274
-0.75840575
-0.75828932
-0.75807792
-0.75808785
-0.75817991
-0.75824219
-0.75843387
-0.75847024
-0.75833807
-0.75820356
-0.75805921
-0.75807792
-0.75788883
-0.75787647
-0.75793628
-0.75798271
-0.75820841
-0.75830183
-0.75824827
-0.7580564
-0.75807473
-0.75808785
-0.75787647
-0.75784277
-0.75787363
-0.75788691
-0.75809489
-0.75819386
-0.7581724
-0.75818243
-0.75820746
-0.75817991
-0.75793628
-0.75787363
-0.75788353
-0.75787248
-0.75805115
-0.75812395
-0.75811399
-0.75824569
-0.75827399
-0.75824219
-0.75798271
-0.75788691
-0.75787248
-0.75785471
-0.75803692
-0.75813278
-0.75820005
-0.7583157
-0.75842193
-0.75843387
-0.75820841
-0.75809489
-0.75805115
-0.75803692
-0.75826156
-0.75843165
-0.75848453
-0.75837898
-0.75845569
-0.75847024
-0.75830183
-0.75819386
-0.75812395
-0.75813278
-0.75843165
-0.75864209
-0.75837097
-0.75838295
-0.7583778
-0.75833807
-0.75824827
-0.7581724
-0.75811399
-0.75820005
-0.75848453
-0.75837097
-0.75833314
-0.85843623
-0.85844138
-0.85858775
-0.85833134
-0.85815517
-0.85828634
-0.85835594
-0.85843421
-0.85850582
-0.85849742
-0.85844138
-0.85870286
-0.85853765
-0.85817133
-0.85817041
-0.85831053
-0.85838585
-0.85854568
-0.85858772
-0.85850796
-0.85858775
-0.85853765
-0.85840755
-0.85818921
-0.85818397
-0.85828051
-0.85835311
-0.85855785
-0.85859196
-0.85845421
-0.85833134
-0.85817133
-0.85818921
-0.85799625
-0.85796713
-0.85802828
-0.85808551
-0.85833021
-0.8584238
-0.85836204
-0.85815517
-0.85817041
-0.85818397
-0.85796713
-0.85791411
-0.85794283
-0.85796386
-0.85819134
-0.85829474
-0.85827281
-0.85828634
-0.85831053
-0.85828051
-0.85802828
-0.85794283
-0.85794753
-0.85794108
-0.85813636
-0.85821209
-0.85820682
-0.85835594
-0.85838585
-0.85835311
-0.85808551
-0.85796386
-0.85794108
-0.8579267
-0.858126
-0.85822843
-0.85831029
-0.85843421
-0.85854568
-0.85855785
-0.85833021
-0.85819134
-0.85813636
-0.858126
-0.85837334
-0.85855879
-0.85861465
-0.85850582
-0.85858772
-0.85859196
-0.8584238
-0.85829474
-0.85821209
-0.85822843
-0.85855879
-0.85878166
-0.85848727
-0.85849742
-0.85850796
-0.85845421
-0.85836204
-0.85827281
-0.85820682
-0.85831029
-0.85861465
-0.85848727
-0.85844968
-0.96656755
-0.96658509
-0.96671722
-0.9664798
-0.96627201
-0.9664072
-0.96648378
-0.9665704
-0.96665054
-0.966627
-0.96658509
-0.96684097
-0.96668736
-0.96630353
-0.96628287
-0.96642997
-0.96651543
-0.96668572
-0.966737
-0.96665672
-0.96671722
-0.96668736
-0.9665432
-0.96631998
-0.96629673
-0.96639763
-0.96648236
-0.96669791
-0.96672844
-0.96658706
-0.9664798
-0.96630353
-0.96631998
-0.96612543
-0.9660768
-0.96613924
-0.96620955
-0.96647149
-0.9665632
-0.96649329
-0.96627201
-0.96628287
-0.96629673
-0.9660768
-0.96600161
-0.96602795
-0.96605913
-0.96630486
-0.9664114
-0.96638993
-0.9664072
-0.96642997
-0.96639763
-0.96613924
-0.96602795
-0.96602699
-0.96602739
-0.96623809
-0.96631574
-0.96631675
-0.96648378
-0.96651543
-0.96648236
-0.96620955
-0.96605913
-0.96602739
-0.96601855
-0.96623376
-0.9663419
-0.96643959
-0.9665704
-0.96668572
-0.96669791
-0.96647149
-0.96630486
-0.96623809
-0.96623376
-0.96650269
-0.96670233
-0.9667594
-0.96665054
-0.966737
-0.96672844
-0.9665632
-0.9664114
-0.96631574
-0.9663419
-0.96670233
-0.96693389
-0.96662001
-0.966627
-0.96665672
-0.96658706
-0.96649329
-0.96638993
-0.96631675
-0.96643959
-0.9667594
-0.96662001
-0.96658297
-1.0835958
-1.0836272
-1.0837415
-1.0835291
-1.0832875
-1.0834252
-1.0835094
-1.0836045
-1.0836933
-1.0836519
-1.0836272
-1.0838736
-1.083735
-1.0833363
-1.0832925
-1.083446
-1.0835429
-1.0837222
-1.0837837
-1.0837042
-1.0837415
-1.083735
-1.0835766
-1.0833506
-1.0833065
-1.0834114
-1.0835102
-1.0837341
-1.0837598
-1.0836169
-1.0835291
-1.0833363
-1.0833506
-1.0831567
-1.0830858
-1.0831493
-1.0832351
-1.0835123
-1.0836001
-1.0835222
-1.0832875
-1.0832925
-1.0833065
-1.0830858
-1.0829856
-1.0830092
-1.0830531
-1.0833157
-1.083424
-1.083404
-1.0834252
-1.083446
-1.0834114
-1.0831493
-1.0830092
-1.083002
-1.0830116
-1.0832365
-1.0833151
-1.083324
-1.0835094
-1.0835429
-1.0835102
-1.0832351
-1.0830531
-1.0830116
-1.0830106
-1.0832405
-1.0833535
-1.0834684
-1.0836045
-1.0837222
-1.0837341
-1.0835123
-1.0833157
-1.0832365
-1.0832405
-1.0835298
-1.0837424
-1.0837987
-1.0836933
-1.0837837
-1.0837598
-1.0836001
-1.083424
-1.0833151
-1.0833535
-1.0837424
-1.0839786
-1.0836494
-1.0836519
-1.0837042
-1.0836169
-1.0835222
-1.083404
-1.083324
-1.0834684
-1.0837987
-1.0836494
-1.0836132
-1.2104497
-1.2104964
-1.2105895
-1.2104077
-1.2101306
-1.2102692
-1.2103615
-1.2104652
-1.2105628
-1.2105009
-1.2104964
-1.2107295
-1.2106091
-1.2101985
-1.2101284
-1.2102871
-1.210397
-1.2105837
-1.2106563
-1.210579
-1.2105895
-1.2106091
-1.2104367
-1.2102097
-1.210142
-1.2102504
-1.2103652
-1.2105951
-1.2106148
-1.2104724
-1.2104077
-1.2101985
-1.2102097
-1.2100187
-1.209923
-1.209987
-1.2100908
-1.2103812
-1.2104629
-1.2103774
-1.2101306
-1.2101284
-1.210142
-1.209923
-1.2097951
-1.2098153
-1.2098746
-1.2101525
-1.2102612
-1.2102437
-1.2102692
-1.2102871
-1.2102504
-1.209987
-1.2098153
-1.209801
-1.2098225
-1.2100601
-1.2101387
-1.2101575
-1.2103615
-1.210397
-1.2103652
-1.2100908
-1.2098746
-1.2098225
-1.2098318
-1.210075
-1.2101921
-1.2103255
-1.2104652
-1.2105837
-1.2105951
-1.2103812
-1.2101525
-1.2100601
-1.210075
-1.2103834
-1.2106076
-1.2106611
-1.2105628
-1.2106563
-1.2106148
-1.2104629
-1.2102612
-1.2101387
-1.2101921
-1.2106076
-1.2108442
-1.2105042
-1.2105009
-1.210579
-1.2104724
-1.2103774
-1.2102437
-1.2101575
-1.2103255
-1.2106611
-1.2105042
-1.2104692
-1.348111
-1.3481743
-1.348243
-1.3480969
-1.3477835
-1.3479207
-1.3480216
-1.348134
-1.3482405
-1.3481558
-1.3481743
-1.3483906
-1.348291
-1.347872
-1.3477723
-1.3479351
-1.3480593
-1.3482519
-1.3483363
-1.3482624
-1.348243
-1.348291
-1.3481051
-1.3478792
-1.3477852
-1.3478963
-1.3480289
-1.3482624
-1.348275
-1.3481353
-1.3480969
-1.347872
-1.3478792
-1.347693
-1.34757
-1.347634
-1.3477582
-1.3480595
-1.3481331
-1.3480404
-1.3477835
-1.3477723
-1.3477852
-1.34757
-1.347412
-1.3474282
-1.3475054
-1.347797
-1.3479046
-1.3478907
-1.3479207
-1.3479351
-1.3478963
-1.347634
-1.3474282
-1.3474058
-1.3474418
-1.3476907
-1.3477683
-1.3477989
-1.3480216
-1.3480593
-1.3480289
-1.3477582
-1.3475054
-1.3474418
-1.3474638
-1.3477189
-1.3478393
-1.3479927
-1.348134
-1.3482519
-1.3482624
-1.3480595
-1.347797
-1.3476907
-1.3477189
-1.348045
-1.3482796
-1.3483279
-1.3482405
-1.3483363
-1.348275
-1.3481331
-1.3479046
-1.3477683
-1.3478393
-1.3482796
-1.3485119
-1.3481661
-1.3481558
-1.3482624
-1.3481353
-1.3480404
-1.3478907
-1.3477989
-1.3479927
-1.3483279
-1.3481661
-1.3481324
-1.4976184
-1.4976993
-1.497741
-1.4976348
-1.4972851
-1.4974184
-1.4975283
-1.4976495
-1.4977649
-1.4976553
-1.4976993
-1.4978956
-1.497819
-1.4973955
-1.4972633
-1.4974283
-1.4975681
-1.4977651
-1.4978621
-1.4977926
-1.497741
-1.497819
-1.4976205
-1.4973974
-1.4972748
-1.4973874
-1.4975398
-1.4977743
-1.497779
-1.4976443
-1.4976348
-1.4973955
-1.4973974
-1.4972179
-1.4970656
-1.4971285
-1.4972755
-1.4975853
-1.4976489
-1.4975496
-1.4972851
-1.4972633
-1.4972748
-1.4970656
-1.4968752
-1.4968864
-1.4969844
-1.4972877
-1.4973928
-1.4973836
-1.4974184
-1.4974283
-1.4973874
-1.4971285
-1.4968864
-1.4968548
-1.4969079
-1.4971667
-1.4972426
-1.497287
-1.4975283
-1.4975681
-1.4975398
-1.4972755
-1.4969844
-1.4969079
-1.4969453
-1.4972109
-1.497334
-1.4975086
-1.4976495
-1.4977651
-1.4977743
-1.4975853
-1.4972877
-1.4971667
-1.4972109
-1.4975531
-1.4977968
-1.4978376
-1.4977649
-1.4978621
-1.497779
-1.4976489
-1.4973928
-1.4972426
-1.497334
-1.4977968
-1.4980201
-1.4976737
-1.4976553
-1.4977926
-1.4976443
-1.4975496
-1.4973836
-1.497287
-1.4975086
-1.4978376
-1.4976737
-1.4976415
-1.6600702
-1.6601694
-1.6601821
-1.6601187
-1.659734
-1.6598604
-1.6599795
-1.6601096
-1.6602339
-1.6600979
-1.6601694
-1.660343
-1.6602909
-1.6598672
-1.6596999
-1.659865
-1.6600217
-1.6602216
-1.6603315
-1.6602673
-1.6601821
-1.6602909
-1.6600812
-1.6598625
-1.6597093
-1.6598218
-1.6599958
-1.660229
-1.6602252
-1.6600975
-1.6601187
-1.6598672
-1.6598625
-1.6596912
-1.6595078
-1.6595684
-1.6597405
-1.6600563
-1.6601081
-1.6600032
-1.659734
-1.6596999
-1.6597093
-1.6595078
-1.6592836
-1.6592885
-1.6594099
-1.659723
-1.6598242
-1.6598208
-1.6598604
-1.659865
-1.6598218
-1.6595684
-1.6592885
-1.6592463
-1.6593193
-1.6595863
-1.65966
-1.6597201
-1.6599795
-1.6600217
-1.6599958
-1.6597405
-1.6594099
-1.6593193
-1.6593745
-1.6596492
-1.6597745
-1.6599715
-1.6601096
-1.6602216
-1.660229
-1.6600563
-1.659723
-1.6595863
-1.6596492
-1.6600059
-1.6602572
-1.660288
-1.6602339
-1.6603315
-1.6602252
-1.6601081
-1.6598242
-1.65966
-1.6597745
-1.6602572
-1.6604667
-1.6601251
-1.6600979
-1.6602673
-1.6600975
-1.6600032
-1.6598208
-1.6597201
-1.6599715
-1.660288
-1.6601251
-1.6600946
-1.8366245
-1.8367425
-1.8367248
-1.8367062
-1.8362891
-1.8364049
-1.8365333
-1.8366725
-1.8368053
-1.8366421
-1.8367425
-1.8368911
-1.8368644
-1.8364453
-1.8362408
-1.8364032
-1.836578
-1.8367794
-1.8369023
-1.8368441
-1.8367248
-1.8368644
-1.8366455
-1.8364324
-1.8362472
-1.8363577
-1.8365548
-1.8367844
-1.8367718
-1.8366532
-1.8367062
-1.8364453
-1.8364324
-1.8362705
-1.836055
-1.8361117
-1.8363108
-1.8366298
-1.8366684
-1.8365588
-1.8362891
-1.8362408
-1.8362472
-1.836055
-1.8357958
-1.835793
-1.8359403
-1.8362611
-1.8363569
-1.8363603
-1.8364049
-1.8364032
-1.8363577
-1.8361117
-1.835793
-1.8357388
-1.8358341
-1.8361079
-1.8361786
-1.8362566
-1.8365333
-1.836578
-1.8365548
-1.8363108
-1.8359403
-1.8358341
-1.8359096
-1.8361918
-1.8363189
-1.8365393
-1.8366725
-1.8367794
-1.8367844
-1.8366298
-1.8362611
-1.8361079
-1.8361918
-1.8365613
-1.8368189
-1.8368373
-1.8368053
-1.8369023
-1.8367718
-1.8366684
-1.8363569
-1.8361786
-1.8363189
-1.8368189
-1.8370097
-1.8366785
-1.8366421
-1.8368441
-1.8366532
-1.8365588
-1.8363603
-1.8362566
-1.8365393
-1.8368373
-1.8366785
-1.8366498
-2.0284955
-2.0286323
-2.0285835
-2.02861
-2.0281646
-2.0282658
-2.0284033
-2.0285517
-2.0286926
-2.0285022
-2.0286323
-2.0287543
-2.0287527
-2.0283436
-2.0281005
-2.0282568
-2.0284506
-2.0286523
-2.0287879
-2.0287361
-2.0285835
-2.0287527
-2.0285273
-2.0283208
-2.0281026
-2.0282087
-2.0284301
-2.0286541
-2.028633
-2.0285253
-2.02861
-2.0283436
-2.0283208
-2.0281689
-2.0279209
-2.0279719
-2.0281995
-2.028519
-2.0285432
-2.0284303
-2.0281646
-2.0281005
-2.0281026
-2.0279209
-2.0276265
-2.0276143
-2.0277897
-2.0281158
-2.0282049
-2.0282161
-2.0282658
-2.0282568
-2.0282087
-2.0279719
-2.0276143
-2.0275462
-2.0276663
-2.0279452
-2.0280129
-2.0281105
-2.0284033
-2.0284506
-2.0284301
-2.0281995
-2.0277897
-2.0276663
-2.0277643
-2.0280525
-2.0281813
-2.0284257
-2.0285517
-2.0286523
-2.0286541
-2.028519
-2.0281158
-2.0279452
-2.0280525
-2.0284329
-2.0286954
-2.028699
-2.0286926
-2.0287879
-2.028633
-2.0285432
-2.0282049
-2.0280129
-2.0281813
-2.0286954
-2.0288628
-2.0285476
-2.0285022
-2.0287361
-2.0285253
-2.0284303
-2.0282161
-2.0281105
-2.0284257
-2.028699
-2.0285476
-2.0285208
-2.2369403
-2.2370954
-2.2370159
-2.2370861
-2.2366182
-2.2367004
-2.2368465
-2.237004
-2.2371525
-2.2369357
-2.2370954
-2.2371899
-2.2372125
-2.236819
-2.2365365
-2.2366828
-2.2368962
-2.2370972
-2.237245
-2.2371994
-2.2370159
-2.2372125
-2.2369836
-2.2367843
-2.236533
-2.2366318
-2.2368784
-2.2370952
-2.2370661
-2.2369709
-2.2370861
-2.236819
-2.2367843
-2.2366429
-2.2363626
-2.2364055
-2.2366628
-2.2369798
-2.236989
-2.2368743
-2.2366182
-2.2365365
-2.236533
-2.2363626
-2.2360336
-2.2360101
-2.2362153
-2.2365443
-2.2366256
-2.2366453
-2.2367004
-2.2366828
-2.2366318
-2.2364055
-2.2360101
-2.235926
-2.2360731
-2.2363556
-2.2364201
-2.2365393
-2.2368465
-2.2368962
-2.2368784
-2.2366628
-2.2362153
-2.2360731
-2.2361957
-2.2364883
-2.2366187
-2.2368875
-2.237004
-2.2370972
-2.2370952
-2.2369798
-2.2365443
-2.2363556
-2.2364883
-2.2368776
-2.2371435
-2.2371302
-2.2371525
-2.237245
-2.2370661
-2.236989
-2.2366256
-2.2364201
-2.2366187
-2.2371435
-2.237283
-2.2369896
-2.2369357
-2.2371994
-2.2369709
-2.2368743
-2.2366453
-2.2365393
-2.2368875
-2.2371302
-2.2369896
-2.2369647
-2.4632333
-2.4634056
-2.4632968
-2.4634073
-2.4629244
-2.4629826
-2.4631366
-2.4633033
-2.4634585
-2.4632174
-2.4634056
-2.4634723
-2.463517
-2.4631453
-2.4628234
-2.4629554
-2.4631886
-2.4633881
-2.4635468
-2.4635072
-2.4632968
-2.463517
-2.4632884
-2.4630965
-2.4628129
-2.4629011
-2.4631731
-2.4633812
-2.4633453
-2.4632639
-2.4634073
-2.4631453
-2.4630965
-2.4629652
-2.462654
-2.4626862
-2.4629736
-2.4632852
-2.4632791
-2.4631645
-2.4629244
-2.4628234
-2.4628129
-2.462654
-2.4622919
-2.4622548
-2.4624912
-2.4628205
-2.462893
-2.4629221
-2.4629826
-2.4629554
-2.4629011
-2.4626862
-2.4622548
-2.4621529
-2.4623285
-2.4626131
-2.4626748
-2.462817
-2.4631366
-2.4631886
-2.4631731
-2.4629736
-2.4624912
-2.4623285
-2.4624773
-2.4627728
-2.4629053
-2.4631981
-2.4633033
-2.4633881
-2.4633812
-2.4632852
-2.4628205
-2.4626131
-2.4627728
-2.4631689
-2.4634369
-2.4634046
-2.4634585
-2.4635468
-2.4633453
-2.4632791
-2.462893
-2.4626748
-2.4629053
-2.4634369
-2.4635443
-2.4632784
-2.4632174
-2.4635072
-2.4632639
-2.4631645
-2.4629221
-2.462817
-2.4631981
-2.4634046
-2.4632784
-2.4632552
-2.7086167
-2.7088045
-2.7086688
-2.7088143
-2.7083258
-2.7083546
-2.7085154
-2.7086911
-2.7088518
-2.7085899
-2.7088045
-2.708844
-2.7089076
-2.7085639
-2.708204
-2.7083166
-2.7085693
-2.7087667
-2.7089345
-2.7089001
-2.7086688
-2.7089076
-2.7086834
-2.7084988
-2.7081845
-2.7082584
-2.7085554
-2.7087538
-2.7087128
-2.7086463
-2.7088143
-2.7085639
-2.7084988
-2.7083768
-2.7080368
-2.7080554
-2.7083725
-2.7086758
-2.7086547
-2.7085424
-2.7083258
-2.708204
-2.7081845
-2.7080368
-2.7076442
-2.7075913
-2.7078595
-2.7081863
-2.7082492
-2.7082884
-2.7083546
-2.7083166
-2.7082584
-2.7080554
-2.7075913
-2.7074693
-2.7076747
-2.7079598
-2.7080193
-2.7081861
-2.7085154
-2.7085693
-2.7085554
-2.7083725
-2.7078595
-2.7076747
-2.7078508
-2.7081478
-2.7082827
-2.7085991
-2.7086911
-2.7087667
-2.7087538
-2.7086758
-2.7081863
-2.7079598
-2.7081478
-2.7085482
-2.7088169
-2.7087642
-2.7088518
-2.7089345
-2.7087128
-2.7086547
-2.7082492
-2.7080193
-2.7082827
-2.7088169
-2.7088887
-2.7086556
-2.7085899
-2.7089001
-2.7086463
-2.7085424
-2.7082884
-2.7081861
-2.7085991
-2.7087642
-2.7086556
-2.7086343
-2.9742167
-2.9744175
-2.9742582
-2.9744315
-2.9739483
-2.9739422
-2.9741083
-2.9742927
-2.9744574
-2.9741796
-2.9744175
-2.9744307
-2.9745092
-2.9741998
-2.9738042
-2.9738919
-2.9741634
-2.9743584
-2.974533
-2.9745027
-2.9742582
-2.9745092
-2.9742941
-2.9741161
-2.9737739
-2.9738292
-2.97415
-2.9743383
-2.9742944
-2.9742436
-2.9744315
-2.9741998
-2.9741161
-2.9740019
-2.9736364
-2.9736382
-2.9739837
-2.9742755
-2.9742406
-2.9741332
-2.9739483
-2.9738042
-2.9737739
-2.9736364
-2.9732171
-2.9731459
-2.9734456
-2.9737671
-2.97382
-2.9738698
-2.9739422
-2.9738919
-2.9738292
-2.9736382
-2.9731459
-2.9730017
-2.9732374
-2.9735214
-2.9735798
-2.9737724
-2.9741083
-2.9741634
-2.97415
-2.9739837
-2.9734456
-2.9732374
-2.9734412
-2.9737382
-2.9738765
-2.9742151
-2.9742927
-2.9743584
-2.9743383
-2.9742755
-2.9737671
-2.9735214
-2.9737382
-2.9741406
-2.9744086
-2.9743346
-2.9744574
-2.974533
-2.9742944
-2.9742406
-2.97382
-2.9735798
-2.9738765
-2.9744086
-2.9744418
-2.9742469
-2.9741796
-2.9745027
-2.9742436
-2.9741332
-2.9738698
-2.9737724
-2.9742151
-2.9743346
-2.9742469
-2.9742276
-3.2609061
-3.2611167
-3.2609384
-3.2611302
-3.2606647
-3.2606184
-3.2607877
-3.2609804
-3.2611473
-3.26086
-3.2611167
-3.2611054
-3.2611938
-3.2609246
-3.2604972
-3.2605543
-3.2608428
-3.2610353
-3.2612138
-3.2611862
-3.2609384
-3.2611938
-3.2609925
-3.2608203
-3.2604538
-3.2604862
-3.2608286
-3.2610066
-3.2609629
-3.2609281
-3.2611302
-3.2609246
-3.2608203
-3.2607117
-3.2603251
-3.2603068
-3.2606782
-3.2609554
-3.2609085
-3.260809
-3.2606647
-3.2604972
-3.2604538
-3.2603251
-3.2598839
-3.259792
-3.2601221
-3.2604351
-3.2604778
-3.2605391
-3.2606184
-3.2605543
-3.2604862
-3.2603068
-3.259792
-3.2596237
-3.2598893
-3.2601707
-3.2602295
-3.2604488
-3.2607877
-3.2608428
-3.2608286
-3.2606782
-3.2601221
-3.2598893
-3.2601207
-3.2604162
-3.260559
-3.260918
-3.2609804
-3.2610353
-3.2610066
-3.2609554
-3.2604351
-3.2601707
-3.2604162
-3.2608178
-3.2610837
-3.2609884
-3.2611473
-3.2612138
-3.2609629
-3.2609085
-3.2604778
-3.2602295
-3.260559
-3.2610837
-3.2610763
-3.2609247
-3.26086
-3.2611862
-3.2609281
-3.260809
-3.2605391
-3.2604488
-3.260918
-3.2609884
-3.2609247
-3.2609077
-3.5690948
-3.5693111
-3.5691193
-3.5693187
-3.5688843
-3.568793
-3.5689631
-3.569163
-3.5693297
-3.5690412
-3.5693111
-3.5692773
-3.5693703
-3.5691464
-3.5686925
-3.5687134
-3.5690164
-3.5692066
-3.5693851
-3.5693587
-3.5691193
-3.5693703
-3.5691872
-3.5690196
-3.5686339
-3.568639
-3.5689996
-3.5691675
-3.5691275
-3.5691089
-3.5693187
-3.5691464
-3.5690196
-3.568914
-3.5685116
-3.56847
-3.5688635
-3.5691231
-3.5690668
-3.5689787
-3.5688843
-3.5686925
-3.5686339
-3.5685116
-3.5680547
-3.56794
-3.5682979
-3.5685992
-3.5686321
-3.5687056
-3.568793
-3.5687134
-3.568639
-3.56847
-3.56794
-3.5677461
-3.5680402
-3.5683174
-3.5683783
-3.5686253
-3.5689631
-3.5690164
-3.5689996