/*--------------------------------*- C++ -*----------------------------------*\
| =========                 |                                                 |
| \\      /  F ield         | OpenFOAM: The Open Source CFD Toolbox           |
|  \\    /   O peration     | Version:  v2106                                 |
|   \\  /    A nd           | Website:  www.openfoam.com                      |
|    \\/     M anipulation  |                                                 |
\*---------------------------------------------------------------------------*/
FoamFile
{
    version     2.0;
    format      ascii;
    arch        "LSB;label=32;scalar=64";
    class       volScalarField;
    location    "50";
    object      Tmode2;
}
// * * * * * * * * * * * * * * * * * * * * * * * * * * * * * * * * * * * * * //

dimensions      [0 0 0 0 0 0 0];

internalField   nonuniform List<scalar> 
4000
(
-0.017260543
-0.017260545
-0.017260548
-0.017260539
-0.01726054
-0.017260544
-0.017260547
-0.017260548
-0.017260549
-0.01726055
-0.017260545
-0.01726055
-0.017260545
-0.017260539
-0.017260541
-0.017260545
-0.017260548
-0.017260549
-0.01726055
-0.01726055
-0.017260548
-0.017260545
-0.017260542
-0.017260538
-0.017260541
-0.017260544
-0.017260547
-0.017260548
-0.017260549
-0.017260549
-0.017260539
-0.017260539
-0.017260538
-0.017260534
-0.017260537
-0.01726054
-0.017260541
-0.017260542
-0.017260544
-0.017260545
-0.01726054
-0.017260541
-0.017260541
-0.017260537
-0.017260539
-0.017260541
-0.017260542
-0.017260542
-0.017260543
-0.017260544
-0.017260544
-0.017260545
-0.017260544
-0.01726054
-0.017260541
-0.017260543
-0.017260543
-0.017260543
-0.017260543
-0.017260543
-0.017260547
-0.017260548
-0.017260547
-0.017260541
-0.017260542
-0.017260543
-0.017260543
-0.017260542
-0.017260542
-0.017260542
-0.017260548
-0.017260549
-0.017260548
-0.017260542
-0.017260542
-0.017260543
-0.017260542
-0.017260541
-0.017260542
-0.017260542
-0.017260549
-0.01726055
-0.017260549
-0.017260544
-0.017260543
-0.017260543
-0.017260542
-0.017260542
-0.017260542
-0.017260543
-0.01726055
-0.01726055
-0.017260549
-0.017260545
-0.017260544
-0.017260543
-0.017260542
-0.017260542
-0.017260543
-0.017260543
-0.017604348
-0.017604349
-0.017604351
-0.017604333
-0.017604336
-0.017604346
-0.017604353
-0.017604358
-0.017604361
-0.017604363
-0.017604349
-0.017604354
-0.017604343
-0.01760433
-0.017604336
-0.017604346
-0.017604353
-0.017604358
-0.01760436
-0.017604359
-0.017604351
-0.017604343
-0.017604336
-0.017604327
-0.017604334
-0.017604343
-0.017604349
-0.017604354
-0.017604357
-0.017604356
-0.017604333
-0.01760433
-0.017604327
-0.017604318
-0.017604325
-0.017604333
-0.017604337
-0.017604341
-0.017604345
-0.017604347
-0.017604336
-0.017604336
-0.017604334
-0.017604325
-0.01760433
-0.017604336
-0.017604338
-0.017604339
-0.017604342
-0.017604343
-0.017604346
-0.017604346
-0.017604343
-0.017604333
-0.017604336
-0.01760434
-0.01760434
-0.017604339
-0.017604341
-0.017604341
-0.017604353
-0.017604353
-0.017604349
-0.017604337
-0.017604338
-0.01760434
-0.017604338
-0.017604337
-0.017604338
-0.017604338
-0.017604358
-0.017604358
-0.017604354
-0.017604341
-0.017604339
-0.017604339
-0.017604337
-0.017604336
-0.017604337
-0.017604338
-0.017604361
-0.01760436
-0.017604357
-0.017604345
-0.017604342
-0.017604341
-0.017604338
-0.017604337
-0.017604339
-0.01760434
-0.017604363
-0.017604359
-0.017604356
-0.017604347
-0.017604343
-0.017604341
-0.017604338
-0.017604338
-0.01760434
-0.017604341
-0.017929783
-0.017929779
-0.017929778
-0.017929754
-0.01792976
-0.017929775
-0.017929787
-0.017929794
-0.017929799
-0.017929803
-0.017929779
-0.017929782
-0.017929766
-0.01792975
-0.01792976
-0.017929775
-0.017929786
-0.017929793
-0.017929796
-0.017929795
-0.017929778
-0.017929766
-0.017929756
-0.017929744
-0.017929755
-0.017929769
-0.017929778
-0.017929786
-0.017929791
-0.01792979
-0.017929754
-0.01792975
-0.017929744
-0.017929734
-0.017929744
-0.017929755
-0.017929761
-0.017929767
-0.017929774
-0.017929776
-0.01792976
-0.01792976
-0.017929755
-0.017929744
-0.017929752
-0.017929759
-0.017929761
-0.017929764
-0.017929768
-0.01792977
-0.017929775
-0.017929775
-0.017929769
-0.017929755
-0.017929759
-0.017929763
-0.017929762
-0.017929762
-0.017929764
-0.017929764
-0.017929787
-0.017929786
-0.017929778
-0.017929761
-0.017929761
-0.017929762
-0.017929759
-0.017929758
-0.017929759
-0.017929759
-0.017929794
-0.017929793
-0.017929786
-0.017929767
-0.017929764
-0.017929762
-0.017929758
-0.017929757
-0.017929759
-0.017929761
-0.017929799
-0.017929796
-0.017929791
-0.017929774
-0.017929768
-0.017929764
-0.017929759
-0.017929759
-0.017929763
-0.017929765
-0.017929803
-0.017929795
-0.01792979
-0.017929776
-0.01792977
-0.017929764
-0.017929759
-0.017929761
-0.017929765
-0.017929765
-0.018224566
-0.018224559
-0.018224557
-0.01822453
-0.018224538
-0.018224558
-0.018224572
-0.018224582
-0.018224588
-0.018224594
-0.018224559
-0.018224561
-0.018224543
-0.018224524
-0.018224538
-0.018224556
-0.018224569
-0.01822458
-0.018224583
-0.018224583
-0.018224557
-0.018224543
-0.018224531
-0.018224518
-0.018224532
-0.018224548
-0.018224558
-0.01822457
-0.018224577
-0.018224576
-0.01822453
-0.018224524
-0.018224518
-0.018224506
-0.018224518
-0.01822453
-0.018224536
-0.018224546
-0.018224555
-0.018224558
-0.018224538
-0.018224538
-0.018224532
-0.018224518
-0.018224526
-0.018224534
-0.018224535
-0.01822454
-0.018224546
-0.018224546
-0.018224558
-0.018224556
-0.018224548
-0.01822453
-0.018224534
-0.018224536
-0.018224534
-0.018224535
-0.018224538
-0.018224537
-0.018224572
-0.018224569
-0.018224558
-0.018224536
-0.018224535
-0.018224534
-0.018224528
-0.018224528
-0.01822453
-0.01822453
-0.018224582
-0.01822458
-0.01822457
-0.018224546
-0.01822454
-0.018224535
-0.018224528
-0.018224528
-0.018224532
-0.018224534
-0.018224588
-0.018224583
-0.018224577
-0.018224555
-0.018224546
-0.018224538
-0.01822453
-0.018224532
-0.018224538
-0.018224539
-0.018224594
-0.018224583
-0.018224576
-0.018224558
-0.018224546
-0.018224537
-0.01822453
-0.018224534
-0.018224539
-0.01822454
-0.018476388
-0.018476379
-0.018476377
-0.018476346
-0.018476356
-0.018476378
-0.018476394
-0.018476406
-0.018476414
-0.018476423
-0.018476379
-0.018476382
-0.018476361
-0.01847634
-0.018476355
-0.018476376
-0.01847639
-0.018476404
-0.018476409
-0.018476408
-0.018476377
-0.018476361
-0.018476348
-0.018476333
-0.018476348
-0.018476365
-0.018476376
-0.018476391
-0.0184764
-0.018476398
-0.018476346
-0.01847634
-0.018476333
-0.018476319
-0.018476331
-0.018476343
-0.018476349
-0.018476361
-0.018476372
-0.018476375
-0.018476356
-0.018476355
-0.018476348
-0.018476331
-0.018476339
-0.018476345
-0.018476344
-0.018476351
-0.018476358
-0.018476359
-0.018476378
-0.018476376
-0.018476365
-0.018476343
-0.018476345
-0.018476345
-0.018476339
-0.018476342
-0.018476346
-0.018476345
-0.018476394
-0.01847639
-0.018476376
-0.018476349
-0.018476344
-0.018476339
-0.01847633
-0.018476331
-0.018476335
-0.018476336
-0.018476406
-0.018476404
-0.018476391
-0.018476361
-0.018476351
-0.018476342
-0.018476331
-0.018476333
-0.01847634
-0.018476344
-0.018476414
-0.018476409
-0.0184764
-0.018476372
-0.018476358
-0.018476346
-0.018476335
-0.01847634
-0.018476349
-0.018476348
-0.018476423
-0.018476408
-0.018476398
-0.018476375
-0.018476359
-0.018476345
-0.018476336
-0.018476344
-0.018476348
-0.018476349
-0.018672891
-0.018672882
-0.01867288
-0.018672844
-0.018672855
-0.018672877
-0.018672895
-0.018672909
-0.018672918
-0.018672928
-0.018672882
-0.018672886
-0.018672862
-0.018672838
-0.018672854
-0.018672875
-0.01867289
-0.018672906
-0.018672911
-0.018672911
-0.01867288
-0.018672862
-0.018672847
-0.018672829
-0.018672845
-0.018672861
-0.018672872
-0.01867289
-0.018672901
-0.018672898
-0.018672844
-0.018672838
-0.018672829
-0.018672813
-0.018672824
-0.018672835
-0.018672839
-0.018672854
-0.018672867
-0.018672869
-0.018672855
-0.018672854
-0.018672845
-0.018672824
-0.01867283
-0.018672833
-0.01867283
-0.018672838
-0.018672847
-0.018672847
-0.018672877
-0.018672875
-0.018672861
-0.018672835
-0.018672833
-0.018672829
-0.01867282
-0.018672823
-0.018672828
-0.018672827
-0.018672895
-0.01867289
-0.018672872
-0.018672839
-0.01867283
-0.01867282
-0.018672807
-0.018672808
-0.018672814
-0.018672816
-0.018672909
-0.018672906
-0.01867289
-0.018672854
-0.018672838
-0.018672823
-0.018672808
-0.018672812
-0.018672822
-0.018672828
-0.018672918
-0.018672911
-0.018672901
-0.018672867
-0.018672847
-0.018672828
-0.018672814
-0.018672822
-0.018672834
-0.018672833
-0.018672928
-0.018672911
-0.018672898
-0.018672869
-0.018672847
-0.018672827
-0.018672816
-0.018672828
-0.018672833
-0.018672834
-0.018801671
-0.018801661
-0.018801657
-0.018801618
-0.018801627
-0.01880165
-0.018801667
-0.018801682
-0.018801693
-0.018801704
-0.018801661
-0.018801665
-0.018801639
-0.01880161
-0.018801625
-0.018801646
-0.018801661
-0.018801678
-0.018801684
-0.018801683
-0.018801657
-0.018801639
-0.018801621
-0.0188016
-0.018801614
-0.01880163
-0.018801639
-0.018801659
-0.018801671
-0.018801667
-0.018801618
-0.01880161
-0.0188016
-0.01880158
-0.01880159
-0.018801597
-0.018801599
-0.018801616
-0.01880163
-0.018801632
-0.018801627
-0.018801625
-0.018801614
-0.01880159
-0.018801593
-0.018801592
-0.018801585
-0.018801594
-0.018801604
-0.018801604
-0.01880165
-0.018801646
-0.01880163
-0.018801597
-0.018801592
-0.018801583
-0.018801569
-0.018801572
-0.018801579
-0.018801578
-0.018801667
-0.018801661
-0.018801639
-0.018801599
-0.018801585
-0.018801569
-0.018801551
-0.018801553
-0.018801561
-0.018801564
-0.018801682
-0.018801678
-0.018801659
-0.018801616
-0.018801594
-0.018801572
-0.018801553
-0.018801558
-0.018801571
-0.018801579
-0.018801693
-0.018801684
-0.018801671
-0.01880163
-0.018801604
-0.018801579
-0.018801561
-0.018801571
-0.018801587
-0.018801585
-0.018801704
-0.018801683
-0.018801667
-0.018801632
-0.018801604
-0.018801578
-0.018801564
-0.018801579
-0.018801585
-0.018801586
-0.018850278
-0.018850267
-0.018850262
-0.018850218
-0.018850225
-0.018850247
-0.018850264
-0.018850279
-0.01885029
-0.018850303
-0.018850267
-0.018850271
-0.018850242
-0.01885021
-0.018850223
-0.018850242
-0.018850256
-0.018850274
-0.018850281
-0.018850279
-0.018850262
-0.018850242
-0.018850222
-0.018850197
-0.018850209
-0.018850222
-0.01885023
-0.018850251
-0.018850263
-0.018850259
-0.018850218
-0.01885021
-0.018850197
-0.018850172
-0.01885018
-0.018850184
-0.018850183
-0.0188502
-0.018850216
-0.018850218
-0.018850225
-0.018850223
-0.018850209
-0.01885018
-0.018850179
-0.018850173
-0.018850162
-0.018850171
-0.018850182
-0.018850182
-0.018850247
-0.018850242
-0.018850222
-0.018850184
-0.018850173
-0.018850159
-0.01885014
-0.018850143
-0.01885015
-0.018850149
-0.018850264
-0.018850256
-0.01885023
-0.018850183
-0.018850162
-0.01885014
-0.018850116
-0.018850118
-0.018850128
-0.018850132
-0.018850279
-0.018850274
-0.018850251
-0.0188502
-0.018850171
-0.018850143
-0.018850118
-0.018850125
-0.018850141
-0.018850151
-0.01885029
-0.018850281
-0.018850263
-0.018850216
-0.018850182
-0.01885015
-0.018850128
-0.018850141
-0.01885016
-0.018850157
-0.018850303
-0.018850279
-0.018850259
-0.018850218
-0.018850182
-0.018850149
-0.018850132
-0.018850151
-0.018850157
-0.018850159
-0.018806245
-0.018806233
-0.018806227
-0.018806177
-0.018806182
-0.018806203
-0.018806218
-0.018806233
-0.018806245
-0.018806258
-0.018806233
-0.018806237
-0.018806205
-0.018806168
-0.018806179
-0.018806196
-0.018806208
-0.018806227
-0.018806233
-0.018806231
-0.018806227
-0.018806205
-0.018806182
-0.018806152
-0.018806162
-0.018806172
-0.018806178
-0.0188062
-0.018806212
-0.018806207
-0.018806177
-0.018806168
-0.018806152
-0.018806123
-0.018806127
-0.018806127
-0.018806123
-0.018806141
-0.018806157
-0.018806159
-0.018806182
-0.018806179
-0.018806162
-0.018806127
-0.018806122
-0.018806111
-0.018806096
-0.018806105
-0.018806116
-0.018806116
-0.018806203
-0.018806196
-0.018806172
-0.018806127
-0.018806111
-0.018806091
-0.018806066
-0.018806069
-0.018806076
-0.018806076
-0.018806218
-0.018806208
-0.018806178
-0.018806123
-0.018806096
-0.018806066
-0.018806037
-0.018806039
-0.01880605
-0.018806055
-0.018806233
-0.018806227
-0.0188062
-0.018806141
-0.018806105
-0.018806069
-0.018806039
-0.018806046
-0.018806065
-0.018806077
-0.018806245
-0.018806233
-0.018806212
-0.018806157
-0.018806116
-0.018806076
-0.01880605
-0.018806065
-0.018806087
-0.018806084
-0.018806258
-0.018806231
-0.018806207
-0.018806159
-0.018806116
-0.018806076
-0.018806055
-0.018806077
-0.018806084
-0.018806087
-0.018657119
-0.018657107
-0.018657098
-0.018657043
-0.018657045
-0.018657064
-0.018657078
-0.018657092
-0.018657104
-0.018657118
-0.018657107
-0.01865711
-0.018657075
-0.018657033
-0.018657041
-0.018657056
-0.018657065
-0.018657084
-0.01865709
-0.018657088
-0.018657098
-0.018657075
-0.018657049
-0.018657015
-0.018657021
-0.018657028
-0.018657031
-0.018657053
-0.018657066
-0.018657059
-0.018657043
-0.018657033
-0.018657015
-0.018656981
-0.01865698
-0.018656976
-0.018656968
-0.018656986
-0.018657003
-0.018657004
-0.018657045
-0.018657041
-0.018657021
-0.01865698
-0.01865697
-0.018656954
-0.018656934
-0.018656942
-0.018656954
-0.018656953
-0.018657064
-0.018657056
-0.018657028
-0.018656976
-0.018656954
-0.018656927
-0.018656897
-0.018656899
-0.018656907
-0.018656906
-0.018657078
-0.018657065
-0.018657031
-0.018656968
-0.018656934
-0.018656897
-0.018656862
-0.018656863
-0.018656876
-0.018656882
-0.018657092
-0.018657084
-0.018657053
-0.018656986
-0.018656942
-0.018656899
-0.018656863
-0.018656871
-0.018656893
-0.018656907
-0.018657104
-0.01865709
-0.018657066
-0.018657003
-0.018656954
-0.018656907
-0.018656876
-0.018656893
-0.018656917
-0.018656914
-0.018657118
-0.018657088
-0.018657059
-0.018657004
-0.018656953
-0.018656906
-0.018656882
-0.018656907
-0.018656914
-0.018656918
-0.018390518
-0.018390505
-0.018390494
-0.018390433
-0.018390432
-0.018390449
-0.01839046
-0.018390474
-0.018390485
-0.0183905
-0.018390505
-0.018390507
-0.018390468
-0.018390421
-0.018390426
-0.018390439
-0.018390445
-0.018390464
-0.01839047
-0.018390466
-0.018390494
-0.018390468
-0.018390439
-0.0183904
-0.018390403
-0.018390406
-0.018390406
-0.018390428
-0.018390441
-0.018390434
-0.018390433
-0.018390421
-0.0183904
-0.018390361
-0.018390357
-0.018390348
-0.018390336
-0.018390354
-0.018390371
-0.018390371
-0.018390432
-0.018390426
-0.018390403
-0.018390357
-0.018390341
-0.018390319
-0.018390294
-0.018390302
-0.018390314
-0.018390313
-0.018390449
-0.018390439
-0.018390406
-0.018390348
-0.018390319
-0.018390285
-0.01839025
-0.018390251
-0.018390259
-0.018390258
-0.01839046
-0.018390445
-0.018390406
-0.018390336
-0.018390294
-0.01839025
-0.018390209
-0.01839021
-0.018390223
-0.018390231
-0.018390474
-0.018390464
-0.018390428
-0.018390354
-0.018390302
-0.018390251
-0.01839021
-0.018390218
-0.018390242
-0.018390258
-0.018390485
-0.01839047
-0.018390441
-0.018390371
-0.018390314
-0.018390259
-0.018390223
-0.018390242
-0.018390269
-0.018390265
-0.0183905
-0.018390466
-0.018390434
-0.018390371
-0.018390313
-0.018390258
-0.018390231
-0.018390258
-0.018390265
-0.01839027
-0.017994203
-0.017994189
-0.017994175
-0.01799411
-0.017994105
-0.017994118
-0.017994127
-0.017994141
-0.017994152
-0.017994166
-0.017994189
-0.01799419
-0.017994148
-0.017994096
-0.017994097
-0.017994107
-0.017994111
-0.017994129
-0.017994134
-0.01799413
-0.017994175
-0.017994148
-0.017994116
-0.017994072
-0.017994071
-0.01799407
-0.017994066
-0.017994089
-0.017994101
-0.017994093
-0.01799411
-0.017994096
-0.017994072
-0.017994028
-0.017994018
-0.017994005
-0.017993989
-0.017994006
-0.017994023
-0.017994023
-0.017994105
-0.017994097
-0.017994071
-0.017994018
-0.017993997
-0.017993969
-0.017993939
-0.017993946
-0.017993958
-0.017993957
-0.017994118
-0.017994107
-0.01799407
-0.017994005
-0.017993969
-0.017993929
-0.017993888
-0.017993887
-0.017993895
-0.017993895
-0.017994127
-0.017994111
-0.017994066
-0.017993989
-0.017993939
-0.017993888
-0.017993841
-0.017993841
-0.017993855
-0.017993864
-0.017994141
-0.017994129
-0.017994089
-0.017994006
-0.017993946
-0.017993887
-0.017993841
-0.017993849
-0.017993875
-0.017993893
-0.017994152
-0.017994134
-0.017994101
-0.017994023
-0.017993958
-0.017993895
-0.017993855
-0.017993875
-0.017993905
-0.017993901
-0.017994166
-0.01799413
-0.017994093
-0.017994023
-0.017993957
-0.017993895
-0.017993864
-0.017993893
-0.017993901
-0.017993906
-0.017456188
-0.017456172
-0.017456156
-0.017456086
-0.017456076
-0.017456087
-0.017456093
-0.017456105
-0.017456116
-0.01745613
-0.017456172
-0.017456173
-0.017456127
-0.01745607
-0.017456067
-0.017456073
-0.017456074
-0.017456091
-0.017456096
-0.017456092
-0.017456156
-0.017456127
-0.017456091
-0.017456042
-0.017456037
-0.017456032
-0.017456025
-0.017456047
-0.017456058
-0.017456049
-0.017456086
-0.01745607
-0.017456042
-0.017455993
-0.017455979
-0.01745596
-0.01745594
-0.017455957
-0.017455974
-0.017455973
-0.017456076
-0.017456067
-0.017456037
-0.017455979
-0.017455951
-0.017455918
-0.017455883
-0.017455889
-0.0174559
-0.017455898
-0.017456087
-0.017456073
-0.017456032
-0.01745596
-0.017455918
-0.01745587
-0.017455823
-0.017455822
-0.01745583
-0.01745583
-0.017456093
-0.017456074
-0.017456025
-0.01745594
-0.017455883
-0.017455823
-0.017455771
-0.01745577
-0.017455785
-0.017455796
-0.017456105
-0.017456091
-0.017456047
-0.017455957
-0.017455889
-0.017455822
-0.01745577
-0.017455778
-0.017455806
-0.017455827
-0.017456116
-0.017456096
-0.017456058
-0.017455974
-0.0174559
-0.01745583
-0.017455785
-0.017455806
-0.017455839
-0.017455834
-0.01745613
-0.017456092
-0.017456049
-0.017455973
-0.017455898
-0.01745583
-0.017455796
-0.017455827
-0.017455834
-0.01745584
-0.016764873
-0.016764856
-0.016764837
-0.016764762
-0.016764748
-0.016764755
-0.016764759
-0.01676477
-0.01676478
-0.016764794
-0.016764856
-0.016764855
-0.016764807
-0.016764744
-0.016764737
-0.016764739
-0.016764738
-0.016764754
-0.016764758
-0.016764753
-0.016764837
-0.016764807
-0.016764767
-0.016764714
-0.016764703
-0.016764694
-0.016764684
-0.016764705
-0.016764716
-0.016764706
-0.016764762
-0.016764744
-0.016764714
-0.016764659
-0.016764639
-0.016764615
-0.016764591
-0.016764608
-0.016764624
-0.016764623
-0.016764748
-0.016764737
-0.016764703
-0.016764639
-0.016764606
-0.016764566
-0.016764526
-0.016764531
-0.016764542
-0.016764541
-0.016764755
-0.016764739
-0.016764694
-0.016764615
-0.016764566
-0.016764511
-0.016764459
-0.016764456
-0.016764465
-0.016764465
-0.016764759
-0.016764738
-0.016764684
-0.016764591
-0.016764526
-0.016764459
-0.016764402
-0.0167644
-0.016764416
-0.016764428
-0.01676477
-0.016764754
-0.016764705
-0.016764608
-0.016764531
-0.016764456
-0.0167644
-0.016764408
-0.016764438
-0.01676446
-0.01676478
-0.016764758
-0.016764716
-0.016764624
-0.016764542
-0.016764465
-0.016764416
-0.016764438
-0.016764473
-0.016764468
-0.016764794
-0.016764753
-0.016764706
-0.016764623
-0.016764541
-0.016764465
-0.016764428
-0.01676446
-0.016764468
-0.016764475
-0.01590923
-0.015909211
-0.01590919
-0.01590911
-0.015909091
-0.015909095
-0.015909096
-0.015909106
-0.015909116
-0.01590913
-0.015909211
-0.01590921
-0.015909158
-0.015909091
-0.015909079
-0.015909077
-0.015909072
-0.015909088
-0.015909091
-0.015909086
-0.01590919
-0.015909158
-0.015909115
-0.015909057
-0.015909041
-0.015909028
-0.015909014
-0.015909034
-0.015909044
-0.015909034
-0.01590911
-0.015909091
-0.015909057
-0.015908997
-0.015908971
-0.015908942
-0.015908914
-0.01590893
-0.015908946
-0.015908945
-0.015909091
-0.015909079
-0.015909041
-0.015908971
-0.015908931
-0.015908885
-0.015908841
-0.015908845
-0.015908856
-0.015908854
-0.015909095
-0.015909077
-0.015909028
-0.015908942
-0.015908885
-0.015908824
-0.015908767
-0.015908763
-0.015908771
-0.015908771
-0.015909096
-0.015909072
-0.015909014
-0.015908914
-0.015908841
-0.015908767
-0.015908704
-0.015908702
-0.015908718
-0.015908732
-0.015909106
-0.015909088
-0.015909034
-0.01590893
-0.015908845
-0.015908763
-0.015908702
-0.01590871
-0.015908742
-0.015908765
-0.015909116
-0.015909091
-0.015909044
-0.015908946
-0.015908856
-0.015908771
-0.015908718
-0.015908742
-0.015908778
-0.015908773
-0.01590913
-0.015909086
-0.015909034
-0.015908945
-0.015908854
-0.015908771
-0.015908732
-0.015908765
-0.015908773
-0.015908781
-0.014879029
-0.014879009
-0.014878984
-0.014878901
-0.014878877
-0.014878877
-0.014878875
-0.014878884
-0.014878893
-0.014878906
-0.014879009
-0.014879006
-0.014878951
-0.014878879
-0.014878862
-0.014878857
-0.014878849
-0.014878863
-0.014878866
-0.01487886
-0.014878984
-0.014878951
-0.014878905
-0.014878842
-0.014878821
-0.014878803
-0.014878786
-0.014878805
-0.014878814
-0.014878803
-0.014878901
-0.014878879
-0.014878842
-0.014878777
-0.014878745
-0.014878711
-0.01487868
-0.014878694
-0.01487871
-0.014878708
-0.014878877
-0.014878862
-0.014878821
-0.014878745
-0.014878699
-0.014878647
-0.014878598
-0.014878601
-0.014878612
-0.01487861
-0.014878877
-0.014878857
-0.014878803
-0.014878711
-0.014878647
-0.014878579
-0.014878517
-0.014878512
-0.01487852
-0.014878521
-0.014878875
-0.014878849
-0.014878786
-0.01487868
-0.014878598
-0.014878517
-0.01487845
-0.014878446
-0.014878463
-0.014878478
-0.014878884
-0.014878863
-0.014878805
-0.014878694
-0.014878601
-0.014878512
-0.014878446
-0.014878454
-0.014878488
-0.014878513
-0.014878893
-0.014878866
-0.014878814
-0.01487871
-0.014878612
-0.01487852
-0.014878463
-0.014878488
-0.014878526
-0.014878521
-0.014878906
-0.01487886
-0.014878803
-0.014878708
-0.01487861
-0.014878521
-0.014878478
-0.014878513
-0.014878521
-0.01487853
-0.01366513
-0.013665109
-0.013665082
-0.013664995
-0.013664965
-0.013664962
-0.013664957
-0.013664963
-0.013664972
-0.013664985
-0.013665109
-0.013665105
-0.013665047
-0.01366497
-0.013664948
-0.013664938
-0.013664928
-0.01366494
-0.013664942
-0.013664937
-0.013665082
-0.013665047
-0.013664997
-0.013664929
-0.013664903
-0.013664881
-0.013664861
-0.013664878
-0.013664887
-0.013664875
-0.013664995
-0.01366497
-0.013664929
-0.01366486
-0.013664822
-0.013664783
-0.013664748
-0.013664761
-0.013664776
-0.013664774
-0.013664965
-0.013664948
-0.013664903
-0.013664822
-0.013664769
-0.013664711
-0.013664659
-0.01366466
-0.01366467
-0.013664668
-0.013664962
-0.013664938
-0.013664881
-0.013664783
-0.013664711
-0.013664637
-0.013664571
-0.013664564
-0.013664572
-0.013664573
-0.013664957
-0.013664928
-0.013664861
-0.013664748
-0.013664659
-0.013664571
-0.013664499
-0.013664494
-0.013664512
-0.013664528
-0.013664963
-0.01366494
-0.013664878
-0.013664761
-0.01366466
-0.013664564
-0.013664494
-0.013664502
-0.013664537
-0.013664564
-0.013664972
-0.013664942
-0.013664887
-0.013664776
-0.01366467
-0.013664572
-0.013664512
-0.013664537
-0.013664577
-0.013664573
-0.013664985
-0.013664937
-0.013664875
-0.013664774
-0.013664668
-0.013664573
-0.013664528
-0.013664564
-0.013664573
-0.013664582
-0.012259849
-0.012259826
-0.012259796
-0.012259705
-0.012259669
-0.012259663
-0.012259655
-0.01225966
-0.012259668
-0.01225968
-0.012259826
-0.01225982
-0.01225976
-0.012259678
-0.012259651
-0.012259637
-0.012259624
-0.012259635
-0.012259636
-0.01225963
-0.012259796
-0.01225976
-0.012259707
-0.012259634
-0.012259602
-0.012259576
-0.012259552
-0.012259568
-0.012259576
-0.012259564
-0.012259705
-0.012259678
-0.012259634
-0.01225956
-0.012259516
-0.012259472
-0.012259434
-0.012259445
-0.012259459
-0.012259457
-0.012259669
-0.012259651
-0.012259602
-0.012259516
-0.012259456
-0.012259393
-0.012259337
-0.012259337
-0.012259347
-0.012259345
-0.012259663
-0.012259637
-0.012259576
-0.012259472
-0.012259393
-0.012259312
-0.012259242
-0.012259234
-0.012259242
-0.012259244
-0.012259655
-0.012259624
-0.012259552
-0.012259434
-0.012259337
-0.012259242
-0.012259166
-0.012259161
-0.012259179
-0.012259197
-0.01225966
-0.012259635
-0.012259568
-0.012259445
-0.012259337
-0.012259234
-0.012259161
-0.012259169
-0.012259205
-0.012259234
-0.012259668
-0.012259636
-0.012259576
-0.012259459
-0.012259347
-0.012259242
-0.012259179
-0.012259205
-0.012259246
-0.012259243
-0.01225968
-0.01225963
-0.012259564
-0.012259457
-0.012259345
-0.012259244
-0.012259197
-0.012259234
-0.012259243
-0.012259253
-0.010657404
-0.01065738
-0.010657346
-0.010657253
-0.010657212
-0.010657201
-0.010657191
-0.010657194
-0.010657201
-0.010657212
-0.01065738
-0.010657372
-0.010657309
-0.010657223
-0.010657191
-0.010657173
-0.010657157
-0.010657166
-0.010657167
-0.010657161
-0.010657346
-0.010657309
-0.010657253
-0.010657176
-0.010657139
-0.010657108
-0.010657082
-0.010657096
-0.010657102
-0.01065709
-0.010657253
-0.010657223
-0.010657176
-0.010657097
-0.010657048
-0.010656999
-0.010656957
-0.010656968
-0.010656981
-0.010656978
-0.010657212
-0.010657191
-0.010657139
-0.010657048
-0.010656981
-0.010656913
-0.010656853
-0.010656852
-0.010656861
-0.01065686
-0.010657201
-0.010657173
-0.010657108
-0.010656999
-0.010656913
-0.010656826
-0.010656752
-0.010656743
-0.010656751
-0.010656754
-0.010657191
-0.010657157
-0.010657082
-0.010656957
-0.010656853
-0.010656752
-0.010656673
-0.010656667
-0.010656686
-0.010656706
-0.010657194
-0.010657166
-0.010657096
-0.010656968
-0.010656852
-0.010656743
-0.010656667
-0.010656675
-0.010656713
-0.010656743
-0.010657201
-0.010657167
-0.010657102
-0.010656981
-0.010656861
-0.010656751
-0.010656686
-0.010656713
-0.010656755
-0.010656752
-0.010657212
-0.010657161
-0.01065709
-0.010656978
-0.01065686
-0.010656754
-0.010656706
-0.010656743
-0.010656752
-0.010656763
-0.0088544798
-0.0088544546
-0.0088544181
-0.0088543222
-0.0088542752
-0.0088542613
-0.0088542482
-0.0088542495
-0.0088542554
-0.0088542654
-0.0088544546
-0.0088544448
-0.0088543798
-0.0088542899
-0.008854252
-0.008854231
-0.0088542114
-0.0088542189
-0.0088542191
-0.0088542132
-0.0088544181
-0.0088543798
-0.0088543205
-0.0088542397
-0.008854197
-0.008854162
-0.0088541327
-0.0088541448
-0.00885415
-0.0088541386
-0.0088543222
-0.0088542899
-0.0088542397
-0.008854157
-0.0088541016
-0.0088540482
-0.0088540036
-0.0088540124
-0.0088540244
-0.0088540217
-0.0088542752
-0.008854252
-0.008854197
-0.0088541016
-0.0088540284
-0.0088539549
-0.0088538922
-0.0088538898
-0.0088538985
-0.0088538977
-0.0088542613
-0.008854231
-0.008854162
-0.0088540482
-0.0088539549
-0.0088538632
-0.0088537863
-0.0088537757
-0.0088537833
-0.0088537877
-0.0088542482
-0.0088542114
-0.0088541327
-0.0088540036
-0.0088538922
-0.0088537863
-0.0088537036
-0.0088536967
-0.0088537163
-0.008853738
-0.0088542495
-0.0088542189
-0.0088541448
-0.0088540124
-0.0088538898
-0.0088537757
-0.0088536967
-0.0088537052
-0.008853744
-0.0088537757
-0.0088542554
-0.0088542191
-0.00885415
-0.0088540244
-0.0088538985
-0.0088537833
-0.0088537163
-0.008853744
-0.0088537872
-0.0088537851
-0.0088542654
-0.0088542132
-0.0088541386
-0.0088540217
-0.0088538977
-0.0088537877
-0.008853738
-0.0088537757
-0.0088537851
-0.0088537977
-0.0068509093
-0.0068508827
-0.0068508434
-0.0068507455
-0.0068506929
-0.0068506757
-0.00685066
-0.0068506593
-0.0068506643
-0.0068506731
-0.0068508827
-0.006850871
-0.0068508041
-0.0068507106
-0.0068506676
-0.0068506431
-0.0068506208
-0.0068506263
-0.0068506259
-0.0068506203
-0.0068508434
-0.0068508041
-0.0068507419
-0.0068506577
-0.0068506097
-0.006850571
-0.006850539
-0.006850549
-0.006850553
-0.0068505417
-0.0068507455
-0.0068507106
-0.0068506577
-0.0068505714
-0.0068505104
-0.0068504529
-0.0068504058
-0.0068504129
-0.0068504237
-0.0068504211
-0.0068506929
-0.0068506676
-0.0068506097
-0.0068505104
-0.0068504311
-0.0068503532
-0.0068502877
-0.006850284
-0.0068502922
-0.006850292
-0.0068506757
-0.0068506431
-0.006850571
-0.0068504529
-0.0068503532
-0.0068502567
-0.006850177
-0.0068501653
-0.0068501727
-0.0068501783
-0.00685066
-0.0068506208
-0.006850539
-0.0068504058
-0.0068502877
-0.006850177
-0.0068500919
-0.0068500843
-0.0068501044
-0.0068501278
-0.0068506593
-0.0068506263
-0.006850549
-0.0068504129
-0.006850284
-0.0068501653
-0.0068500843
-0.0068500928
-0.0068501327
-0.0068501658
-0.0068506643
-0.0068506259
-0.006850553
-0.0068504237
-0.0068502922
-0.0068501727
-0.0068501044
-0.0068501327
-0.0068501767
-0.0068501756
-0.0068506731
-0.0068506203
-0.0068505417
-0.0068504211
-0.006850292
-0.0068501783
-0.0068501278
-0.0068501658
-0.0068501756
-0.0068501895
-0.0046505091
-0.0046504814
-0.0046504393
-0.0046503402
-0.004650282
-0.0046502621
-0.0046502439
-0.0046502413
-0.0046502453
-0.0046502527
-0.0046504814
-0.0046504678
-0.0046503994
-0.0046503026
-0.0046502549
-0.0046502274
-0.0046502025
-0.0046502059
-0.004650205
-0.0046501998
-0.0046504393
-0.0046503994
-0.0046503345
-0.0046502474
-0.0046501946
-0.0046501526
-0.0046501182
-0.0046501258
-0.0046501284
-0.0046501177
-0.0046503402
-0.0046503026
-0.0046502474
-0.0046501582
-0.0046500919
-0.004650031
-0.0046499816
-0.004649987
-0.0046499964
-0.0046499939
-0.004650282
-0.0046502549
-0.0046501946
-0.0046500919
-0.004650007
-0.0046499253
-0.0046498576
-0.0046498525
-0.0046498601
-0.0046498606
-0.0046502621
-0.0046502274
-0.0046501526
-0.004650031
-0.0046499253
-0.0046498249
-0.0046497429
-0.00464973
-0.0046497372
-0.004649744
-0.0046502439
-0.0046502025
-0.0046501182
-0.0046499816
-0.0046498576
-0.0046497429
-0.0046496557
-0.0046496476
-0.004649668
-0.0046496932
-0.0046502413
-0.0046502059
-0.0046501258
-0.004649987
-0.0046498525
-0.00464973
-0.0046496476
-0.0046496561
-0.0046496968
-0.0046497312
-0.0046502453
-0.004650205
-0.0046501284
-0.0046499964
-0.0046498601
-0.0046497372
-0.004649668
-0.0046496968
-0.0046497414
-0.0046497415
-0.0046502527
-0.0046501998
-0.0046501177
-0.0046499939
-0.0046498606
-0.004649744
-0.0046496932
-0.0046497312
-0.0046497415
-0.0046497567
-0.0022620945
-0.0022620658
-0.0022620214
-0.0022619217
-0.0022618583
-0.002261836
-0.0022618156
-0.0022618111
-0.002261814
-0.0022618199
-0.0022620658
-0.0022620504
-0.002261981
-0.0022618816
-0.0022618295
-0.0022617996
-0.0022617725
-0.0022617736
-0.0022617721
-0.0022617674
-0.0022620214
-0.002261981
-0.002261914
-0.0022618247
-0.0022617675
-0.0022617228
-0.0022616863
-0.0022616914
-0.0022616925
-0.0022616823
-0.0022619217
-0.0022618816
-0.0022618247