/*--------------------------------*- C++ -*----------------------------------*\
| =========                 |                                                 |
| \\      /  F ield         | OpenFOAM: The Open Source CFD Toolbox           |
|  \\    /   O peration     | Version:  v2106                                 |
|   \\  /    A nd           | Website:  www.openfoam.com                      |
|    \\/     M anipulation  |                                                 |
\*---------------------------------------------------------------------------*/
FoamFile
{
    version     2.0;
    format      ascii;
    arch        "LSB;label=32;scalar=64";
    class       volVectorField;
    location    "50";
    object      Tmode_grad4;
}
// * * * * * * * * * * * * * * * * * * * * * * * * * * * * * * * * * * * * * //

dimensions      [0 -1 0 0 0 0 0];

internalField   nonuniform List<vector> 
4000
(
(-4.603153e-07 -4.6031529e-07 -0.38773594)
(-1.5176099e-06 -1.1027947e-06 -0.38773747)
(2.2240069e-06 6.9372321e-07 -0.38773948)
(2.631159e-06 8.4543567e-09 -0.38772899)
(-1.5355771e-06 -2.8636119e-07 -0.38773071)
(-1.8899671e-06 -3.0520778e-07 -0.38773493)
(-1.204965e-06 -2.4724489e-07 -0.38773788)
(-7.1140287e-07 -2.1366564e-07 -0.38773959)
(-4.5478065e-07 -1.7011326e-07 -0.38774076)
(-1.1597855e-07 8.5093635e-09 -0.38774158)
(-1.1027947e-06 -1.5176099e-06 -0.38773747)
(2.1344787e-07 2.1344789e-07 -0.38774174)
(3.8908805e-06 2.020629e-06 -0.38773531)
(1.1610324e-06 4.8508952e-07 -0.38772838)
(-2.0060703e-06 -4.5959327e-08 -0.38773161)
(-1.8312927e-06 2.3994315e-08 -0.38773587)
(-1.0676518e-06 2.0954548e-07 -0.3877385)
(-5.9570544e-07 2.1615476e-07 -0.38774004)
(-1.2151815e-07 8.8285553e-08 -0.38774089)
(6.2644076e-08 3.3590387e-07 -0.38774062)
(6.9372323e-07 2.2240069e-06 -0.38773948)
(2.0206291e-06 3.8908805e-06 -0.38773531)
(2.4956485e-06 2.4956485e-06 -0.3877318)
(5.6457062e-07 1.8394009e-06 -0.38772662)
(-1.9966723e-06 1.8205271e-06 -0.38773013)
(-1.6344623e-06 2.0846271e-06 -0.387734)
(-1.0128045e-06 2.3713685e-06 -0.38773625)
(-8.326628e-07 2.4193248e-06 -0.387738)
(-3.3503155e-07 2.0666664e-06 -0.38773962)
(4.9100326e-08 1.6517862e-06 -0.3877394)
(8.4543717e-09 2.6311591e-06 -0.38772899)
(4.8508955e-07 1.1610324e-06 -0.38772838)
(1.8394009e-06 5.6457059e-07 -0.38772662)
(4.8591099e-07 4.85911e-07 -0.38772195)
(-1.760844e-06 6.9860341e-07 -0.38772518)
(-1.2804514e-06 1.0515038e-06 -0.38772839)
(-7.3295407e-07 1.4580675e-06 -0.38772989)
(-9.004075e-07 1.7832028e-06 -0.3877313)
(-8.8905674e-07 1.8278622e-06 -0.38773351)
(-2.1394275e-07 1.5691563e-06 -0.38773471)
(-2.8636124e-07 -1.535577e-06 -0.38773071)
(-4.5959414e-08 -2.0060703e-06 -0.38773161)
(1.8205272e-06 -1.9966723e-06 -0.38773013)
(6.9860343e-07 -1.7608441e-06 -0.38772518)
(-1.4310794e-06 -1.4310794e-06 -0.38772784)
(-8.7499825e-07 -1.0667111e-06 -0.38773032)
(-2.8110553e-07 -6.7669845e-07 -0.38773096)
(-4.6286807e-07 -2.739699e-07 -0.38773146)
(-5.4907812e-07 9.0583944e-08 -0.3877329)
(-1.2337031e-07 3.5992392e-07 -0.38773361)
(-3.052078e-07 -1.8899672e-06 -0.38773493)
(2.3994281e-08 -1.8312927e-06 -0.38773587)
(2.0846271e-06 -1.6344623e-06 -0.387734)
(1.0515038e-06 -1.2804514e-06 -0.38772839)
(-1.0667111e-06 -8.7499826e-07 -0.38773032)
(-5.2607036e-07 -5.2607038e-07 -0.38773209)
(5.9787145e-08 -2.3603358e-07 -0.38773205)
(-1.331251e-07 1.0592911e-08 -0.38773189)
(-2.5516293e-07 2.1598494e-07 -0.38773272)
(-3.4382769e-08 3.6815439e-07 -0.38773293)
(-2.4724488e-07 -1.204965e-06 -0.38773788)
(2.0954549e-07 -1.0676517e-06 -0.3877385)
(2.3713685e-06 -1.0128045e-06 -0.38773625)
(1.4580675e-06 -7.3295407e-07 -0.38772989)
(-6.7669845e-07 -2.8110552e-07 -0.38773096)
(-2.3603357e-07 5.978715e-08 -0.38773205)
(2.5555777e-07 2.5555775e-07 -0.38773154)
(-1.084955e-08 3.3532251e-07 -0.38773108)
(-1.9151665e-07 3.3425027e-07 -0.38773176)
(-2.1924018e-08 2.8743732e-07 -0.38773192)
(-2.1366562e-07 -7.1140287e-07 -0.38773959)
(2.1615478e-07 -5.9570543e-07 -0.38774004)
(2.4193247e-06 -8.326628e-07 -0.387738)
(1.7832028e-06 -9.0040747e-07 -0.3877313)
(-2.7396988e-07 -4.6286807e-07 -0.38773146)
(1.0592902e-08 -1.3312508e-07 -0.38773189)
(3.3532251e-07 -1.0849567e-08 -0.38773108)
(-5.443258e-08 -5.4432589e-08 -0.38773063)
(-3.0304812e-07 -1.8897161e-07 -0.38773151)
(-6.55914e-08 -3.3171854e-07 -0.38773196)
(-1.7011326e-07 -4.5478068e-07 -0.38774076)
(8.8285551e-08 -1.2151815e-07 -0.38774089)
(2.0666664e-06 -3.3503156e-07 -0.38773962)
(1.8278622e-06 -8.8905675e-07 -0.38773351)
(9.0583939e-08 -5.4907811e-07 -0.3877329)
(2.1598493e-07 -2.5516291e-07 -0.38773272)
(3.3425026e-07 -1.9151666e-07 -0.38773176)
(-1.889716e-07 -3.0304809e-07 -0.38773151)
(-4.688026e-07 -4.6880259e-07 -0.38773274)
(-1.1708863e-07 -5.5312899e-07 -0.38773346)
(8.5093909e-09 -1.1597857e-07 -0.38774158)
(3.3590389e-07 6.2644077e-08 -0.38774062)
(1.6517862e-06 4.9100325e-08 -0.3877394)
(1.5691563e-06 -2.1394278e-07 -0.38773471)
(3.5992395e-07 -1.2337031e-07 -0.38773361)
(3.6815436e-07 -3.4382768e-08 -0.38773293)
(2.8743733e-07 -2.1924023e-08 -0.38773192)
(-3.3171851e-07 -6.5591389e-08 -0.38773196)
(-5.5312901e-07 -1.1708863e-07 -0.38773346)
(-1.21809e-07 -1.21809e-07 -0.38773405)
(-1.4595577e-07 -1.4595577e-07 -0.38157068)
(-7.4668587e-07 -9.583373e-07 -0.38156832)
(6.0469951e-06 2.0808251e-06 -0.38156697)
(5.2482918e-06 5.8302477e-07 -0.38156164)
(-4.3052164e-06 -3.2391059e-08 -0.38156359)
(-5.0845672e-06 -2.4492611e-08 -0.38156694)
(-3.3715509e-06 1.2889488e-07 -0.38156931)
(-2.1836892e-06 1.8825316e-07 -0.38157092)
(-1.628086e-06 3.8272174e-07 -0.38157216)
(-4.734275e-07 9.4341513e-07 -0.38157368)
(-9.583373e-07 -7.4668587e-07 -0.38156832)
(2.5934855e-06 2.5934855e-06 -0.38156747)
(8.3590382e-06 5.4463769e-06 -0.38156359)
(2.0784674e-06 2.1024267e-06 -0.38156022)
(-5.2164925e-06 1.0148698e-06 -0.38156287)
(-4.8426383e-06 1.3228541e-06 -0.38156606)
(-3.0524322e-06 1.8278506e-06 -0.38156819)
(-1.802949e-06 1.7302179e-06 -0.38156989)
(-4.9534301e-07 1.4519619e-06 -0.38157057)
(8.7265892e-08 2.2660665e-06 -0.3815706)
(2.0808251e-06 6.0469951e-06 -0.38156697)
(5.4463769e-06 8.3590382e-06 -0.38156359)
(5.5559363e-06 5.5559363e-06 -0.38156108)
(8.1678464e-07 4.1365216e-06 -0.38155863)
(-5.0847889e-06 4.1839516e-06 -0.38156132)
(-4.2715863e-06 4.9674602e-06 -0.38156406)
(-2.9641871e-06 5.7929606e-06 -0.38156582)
(-2.559578e-06 5.8618094e-06 -0.38156787)
(-1.0922374e-06 4.8678926e-06 -0.3815694)
(6.9308922e-08 3.9028812e-06 -0.38156944)
(5.8302479e-07 5.2482918e-06 -0.38156164)
(2.1024267e-06 2.0784674e-06 -0.38156022)
(4.1365216e-06 8.1678465e-07 -0.38155863)
(7.0648284e-07 7.0648284e-07 -0.3815564)
(-4.3855539e-06 1.3349482e-06 -0.38155877)
(-3.2336293e-06 2.3703305e-06 -0.38156085)
(-2.158083e-06 3.5601324e-06 -0.38156186)
(-2.728017e-06 4.4728445e-06 -0.38156355)
(-2.4542713e-06 4.5874786e-06 -0.3815655)
(-5.5607506e-07 3.9865145e-06 -0.3815664)
(-3.239107e-08 -4.3052164e-06 -0.38156359)
(1.0148697e-06 -5.2164925e-06 -0.38156287)
(4.1839516e-06 -5.0847889e-06 -0.38156132)
(1.3349482e-06 -4.3855539e-06 -0.38155877)
(-3.4209413e-06 -3.4209413e-06 -0.38156058)
(-2.0464022e-06 -2.3482234e-06 -0.38156195)
(-8.6167314e-07 -1.2049233e-06 -0.38156212)
(-1.5322318e-06 -6.3008541e-08 -0.381563)
(-1.5785673e-06 9.1399258e-07 -0.38156432)
(-3.313338e-07 1.5946192e-06 -0.38156482)
(-2.4492622e-08 -5.0845672e-06 -0.38156694)
(1.3228541e-06 -4.8426383e-06 -0.38156606)
(4.9674602e-06 -4.2715863e-06 -0.38156406)
(2.3703305e-06 -3.2336293e-06 -0.38156085)
(-2.3482234e-06 -2.0464022e-06 -0.38156195)
(-1.0176113e-06 -1.0176113e-06 -0.38156263)
(1.2713185e-07 -1.6905097e-07 -0.38156216)
(-6.0910113e-07 5.2856392e-07 -0.38156245)
(-7.9664353e-07 1.0702239e-06 -0.38156327)
(-1.0232398e-07 1.4201003e-06 -0.38156343)
(1.2889489e-07 -3.3715509e-06 -0.38156931)
(1.8278506e-06 -3.0524322e-06 -0.38156819)
(5.7929606e-06 -2.9641872e-06 -0.38156582)
(3.5601324e-06 -2.158083e-06 -0.38156186)
(-1.2049233e-06 -8.6167313e-07 -0.38156212)
(-1.6905097e-07 1.2713187e-07 -0.38156216)
(6.8450208e-07 6.8450208e-07 -0.38156128)
(-2.9295692e-07 8.8186102e-07 -0.38156134)
(-6.8703097e-07 8.1861437e-07 -0.38156211)
(-9.8082852e-08 5.9054112e-07 -0.3815624)
(1.8825314e-07 -2.1836892e-06 -0.38157092)
(1.7302178e-06 -1.802949e-06 -0.38156989)
(5.8618094e-06 -2.559578e-06 -0.38156787)
(4.4728445e-06 -2.728017e-06 -0.38156355)
(-6.3008524e-08 -1.5322317e-06 -0.381563)
(5.285639e-07 -6.0910115e-07 -0.38156245)
(8.81861e-07 -2.9295692e-07 -0.38156134)
(-4.7498884e-07 -4.7498883e-07 -0.38156149)
(-1.0879634e-06 -9.0955023e-07 -0.38156258)
(-2.5437282e-07 -1.3132585e-06 -0.38156326)
(3.8272175e-07 -1.628086e-06 -0.38157216)
(1.4519618e-06 -4.9534299e-07 -0.38157057)
(4.8678926e-06 -1.0922374e-06 -0.3815694)
(4.5874786e-06 -2.4542713e-06 -0.3815655)
(9.1399258e-07 -1.5785674e-06 -0.38156432)
(1.0702238e-06 -7.9664352e-07 -0.38156327)
(8.186144e-07 -6.8703094e-07 -0.38156211)
(-9.0955023e-07 -1.0879634e-06 -0.38156258)
(-1.5253007e-06 -1.5253007e-06 -0.38156401)
(-3.6722173e-07 -1.4829533e-06 -0.38156467)
(9.4341514e-07 -4.7342751e-07 -0.38157368)
(2.2660665e-06 8.7265888e-08 -0.3815706)
(3.9028812e-06 6.9308923e-08 -0.38156944)
(3.9865145e-06 -5.5607506e-07 -0.3815664)
(1.5946192e-06 -3.3133383e-07 -0.38156482)
(1.4201003e-06 -1.0232396e-07 -0.38156343)
(5.905411e-07 -9.8082837e-08 -0.3815624)
(-1.3132586e-06 -2.5437283e-07 -0.38156326)
(-1.4829533e-06 -3.6722173e-07 -0.38156467)
(-2.2614123e-07 -2.2614123e-07 -0.381565)
(1.1107631e-06 1.1107632e-06 -0.37022043)
(2.186896e-06 -5.3492075e-07 -0.37021732)
(8.9075205e-06 2.9488406e-06 -0.37021583)
(6.0122722e-06 9.5474782e-07 -0.3702126)
(-6.8391991e-06 1.953885e-07 -0.37021449)
(-7.6115724e-06 2.8249783e-07 -0.37021708)
(-5.1863572e-06 5.0142926e-07 -0.37021891)
(-3.5592803e-06 4.7459746e-07 -0.37022046)
(-3.2161138e-06 8.8978289e-07 -0.37022155)
(-1.1308803e-06 2.0635609e-06 -0.37022341)
(-5.3492077e-07 2.186896e-06 -0.37021732)
(4.9440121e-06 4.9440121e-06 -0.37021632)
(1.1142023e-05 7.9122732e-06 -0.3702135)
(1.8820941e-06 3.4938495e-06 -0.37021159)
(-7.8475741e-06 2.2271585e-06 -0.37021382)
(-7.1525113e-06 2.9023603e-06 -0.37021612)
(-4.8982077e-06 3.7037164e-06 -0.37021775)
(-2.9767498e-06 3.2629876e-06 -0.37021971)
(-8.3266862e-07 2.8477271e-06 -0.37022033)
(4.2897752e-08 4.5761454e-06 -0.37022046)
(2.9488406e-06 8.9075204e-06 -0.37021583)
(7.9122732e-06 1.1142023e-05 -0.3702135)
(7.4573578e-06 7.4573578e-06 -0.37021166)
(3.2715757e-07 5.6556603e-06 -0.37021032)
(-7.4306883e-06 5.921677e-06 -0.37021241)
(-6.1350145e-06 7.2937892e-06 -0.37021418)
(-4.8257299e-06 8.704439e-06 -0.37021539)
(-4.4152697e-06 8.7566979e-06 -0.37021774)
(-1.902956e-06 7.1327446e-06 -0.3702192)
(2.1398569e-08 5.8521216e-06 -0.37021919)
(9.5474782e-07 6.0122722e-06 -0.3702126)
(3.4938495e-06 1.8820941e-06 -0.37021159)
(5.6556603e-06 3.2715759e-07 -0.37021032)
(3.4641327e-07 3.4641327e-07 -0.37020902)
(-6.2094452e-06 1.4365681e-06 -0.37021072)
(-4.3697493e-06 3.1678573e-06 -0.3702118)
(-3.4352991e-06 5.1539726e-06 -0.37021223)
(-4.5484442e-06 6.6596534e-06 -0.37021421)
(-3.7372449e-06 6.9116338e-06 -0.37021597)
(-8.1085097e-07 6.1867936e-06 -0.37021652)
(1.953885e-07 -6.8391991e-06 -0.37021449)
(2.2271585e-06 -7.8475741e-06 -0.37021382)
(5.921677e-06 -7.4306883e-06 -0.37021241)
(1.4365681e-06 -6.2094452e-06 -0.37021072)
(-4.6092443e-06 -4.6092443e-06 -0.37021186)
(-2.41761e-06 -2.8468791e-06 -0.37021223)
(-1.3339338e-06 -9.8350386e-07 -0.37021186)
(-2.6576084e-06 8.3134984e-07 -0.37021309)
(-2.3758158e-06 2.3271034e-06 -0.3702143)
(-4.6182825e-07 3.3292318e-06 -0.37021452)
(2.8249783e-07 -7.6115724e-06 -0.37021708)
(2.9023603e-06 -7.1525113e-06 -0.37021612)
(7.2937892e-06 -6.1350145e-06 -0.37021418)
(3.1678573e-06 -4.3697493e-06 -0.3702118)
(-2.8468791e-06 -2.41761e-06 -0.37021223)
(-7.4400889e-07 -7.4400888e-07 -0.37021195)
(2.4292987e-07 6.1040595e-07 -0.37021099)
(-1.2378369e-06 1.6727382e-06 -0.37021169)
(-1.2393629e-06 2.4217124e-06 -0.37021253)
(-1.4276532e-07 2.7947322e-06 -0.37021256)
(5.0142925e-07 -5.1863572e-06 -0.37021891)
(3.7037164e-06 -4.8982077e-06 -0.37021775)
(8.704439e-06 -4.8257299e-06 -0.37021539)
(5.1539726e-06 -3.4352991e-06 -0.37021223)
(-9.8350389e-07 -1.3339339e-06 -0.37021186)
(6.1040596e-07 2.4292987e-07 -0.37021099)
(1.0828133e-06 1.0828132e-06 -0.37020967)
(-8.4630198e-07 1.2872218e-06 -0.37021026)
(-1.2538217e-06 1.0245403e-06 -0.37021119)
(-2.1314836e-07 4.5814444e-07 -0.37021153)
(4.7459746e-07 -3.5592803e-06 -0.37022046)
(3.2629876e-06 -2.9767498e-06 -0.37021971)
(8.7566979e-06 -4.4152697e-06 -0.37021774)
(6.6596533e-06 -4.5484442e-06 -0.37021421)
(8.3134984e-07 -2.6576084e-06 -0.37021309)
(1.6727382e-06 -1.2378369e-06 -0.37021169)
(1.2872218e-06 -8.4630198e-07 -0.37021026)
(-1.2961098e-06 -1.2961098e-06 -0.37021108)
(-2.0684403e-06 -2.0827809e-06 -0.37021245)
(-5.2036259e-07 -2.6065582e-06 -0.37021325)
(8.897829e-07 -3.2161138e-06 -0.37022155)
(2.8477271e-06 -8.3266861e-07 -0.37022033)
(7.1327447e-06 -1.902956e-06 -0.3702192)
(6.9116338e-06 -3.7372449e-06 -0.37021597)
(2.3271034e-06 -2.3758158e-06 -0.3702143)
(2.4217124e-06 -1.2393629e-06 -0.37021253)
(1.0245403e-06 -1.2538217e-06 -0.37021119)
(-2.0827809e-06 -2.0684403e-06 -0.37021245)
(-2.5642701e-06 -2.5642702e-06 -0.37021406)
(-5.6233324e-07 -2.2983293e-06 -0.37021424)
(2.0635609e-06 -1.1308803e-06 -0.37022341)
(4.5761453e-06 4.2897753e-08 -0.37022046)
(5.8521216e-06 2.1398572e-08 -0.37021919)
(6.1867936e-06 -8.1085098e-07 -0.37021652)
(3.3292319e-06 -4.6182826e-07 -0.37021452)
(2.7947323e-06 -1.4276532e-07 -0.37021256)
(4.5814443e-07 -2.1314836e-07 -0.37021153)
(-2.6065582e-06 -5.2036258e-07 -0.37021325)
(-2.2983293e-06 -5.6233324e-07 -0.37021424)
(-3.4306868e-07 -3.4306868e-07 -0.37021463)
(1.9279523e-06 1.9279523e-06 -0.35328738)
(3.8513107e-06 -2.8989933e-07 -0.35328562)
(1.0766258e-05 3.6397167e-06 -0.35328499)
(6.5946063e-06 1.2564099e-06 -0.35328214)
(-8.7784638e-06 4.1445845e-07 -0.35328351)
(-9.5052921e-06 6.1467572e-07 -0.35328532)
(-6.754081e-06 8.9865848e-07 -0.35328663)
(-4.8283367e-06 6.8602947e-07 -0.35328816)
(-4.5788229e-06 1.1986719e-06 -0.35328928)
(-1.7103127e-06 2.9074286e-06 -0.35329098)
(-2.8989933e-07 3.8513107e-06 -0.35328562)
(6.4189572e-06 6.4189573e-06 -0.35328528)
(1.3085722e-05 9.6182097e-06 -0.35328326)
(1.7567189e-06 4.3867841e-06 -0.35328149)
(-9.741065e-06 3.0891299e-06 -0.35328307)
(-8.778992e-06 4.2171868e-06 -0.35328451)
(-6.6470503e-06 5.3488231e-06 -0.35328557)
(-4.3783166e-06 4.444307e-06 -0.35328763)
(-1.2467242e-06 3.8068974e-06 -0.35328843)
(-1.5559613e-09 6.481753e-06 -0.35328861)
(3.6397167e-06 1.0766258e-05 -0.35328499)
(9.6182097e-06 1.3085722e-05 -0.35328326)
(8.7340852e-06 8.7340852e-06 -0.35328203)
(6.552642e-08 6.7123369e-06 -0.35328068)
(-8.9480611e-06 7.2798948e-06 -0.35328204)
(-7.2455988e-06 9.2844047e-06 -0.3532829)
(-6.5269608e-06 1.1313217e-05 -0.35328349)
(-6.3702624e-06 1.136281e-05 -0.35328592)
(-2.5413769e-06 9.223021e-06 -0.35328741)
(7.2924354e-08 7.8419493e-06 -0.35328727)
(1.2564099e-06 6.5946063e-06 -0.35328214)
(4.3867841e-06 1.7567189e-06 -0.35328149)
(6.7123369e-06 6.5526401e-08 -0.35328068)
(3.0252852e-07 3.0252851e-07 -0.35327928)
(-7.1689972e-06 1.8884837e-06 -0.35328021)
(-4.7456695e-06 4.3195196e-06 -0.35328037)
(-4.5686448e-06 7.0831078e-06 -0.3532802)
(-6.4685129e-06 9.1304067e-06 -0.35328229)
(-4.7675851e-06 9.4861479e-06 -0.35328408)
(-9.2227039e-07 8.6574714e-06 -0.35328443)
(4.1445845e-07 -8.7784638e-06 -0.35328351)
(3.0891298e-06 -9.741065e-06 -0.35328307)
(7.2798948e-06 -8.9480611e-06 -0.35328204)
(1.8884837e-06 -7.1689972e-06 -0.35328021)
(-4.93107e-06 -4.93107e-06 -0.35328057)
(-2.0509747e-06 -2.4980358e-06 -0.35328003)
(-1.7160737e-06 4.3581203e-08 -0.3532791)
(-3.9672223e-06 2.45266e-06 -0.3532805)
(-3.0143122e-06 4.3577969e-06 -0.35328183)
(-4.7952668e-07 5.5599399e-06 -0.35328194)
(6.1467571e-07 -9.5052921e-06 -0.35328532)
(4.2171868e-06 -8.778992e-06 -0.35328451)
(9.2844047e-06 -7.2455987e-06 -0.3532829)
(4.3195195e-06 -4.7456695e-06 -0.35328037)
(-2.4980358e-06 -2.0509748e-06 -0.35328003)
(2.2898173e-07 2.2898173e-07 -0.35327888)
(3.8205099e-07 2.0288849e-06 -0.35327739)
(-2.1542973e-06 3.359132e-06 -0.35327836)
(-1.6603052e-06 4.1791197e-06 -0.35327943)
(-1.2084169e-07 4.4100916e-06 -0.35327948)
(8.9865849e-07 -6.754081e-06 -0.35328663)
(5.3488232e-06 -6.6470503e-06 -0.35328557)
(1.1313217e-05 -6.5269608e-06 -0.35328349)
(7.0831077e-06 -4.5686448e-06 -0.3532802)
(4.3581216e-08 -1.7160737e-06 -0.3532791)
(2.0288849e-06 3.8205101e-07 -0.35327739)
(1.4140766e-06 1.4140766e-06 -0.35327562)
(-1.8169875e-06 1.5000295e-06 -0.35327658)
(-1.9633526e-06 9.0082951e-07 -0.3532779)
(-3.2554539e-07 -1.0171713e-07 -0.35327843)
(6.8602947e-07 -4.8283367e-06 -0.35328816)
(4.444307e-06 -4.3783167e-06 -0.35328763)
(1.136281e-05 -6.3702625e-06 -0.35328592)
(9.1304067e-06 -6.4685129e-06 -0.35328229)
(2.45266e-06 -3.9672223e-06 -0.3532805)
(3.359132e-06 -2.1542973e-06 -0.35327836)
(1.5000295e-06 -1.8169875e-06 -0.35327658)
(-2.6675444e-06 -2.6675444e-06 -0.35327791)
(-3.2620518e-06 -3.7815177e-06 -0.35327982)
(-7.8920612e-07 -4.0174756e-06 -0.35328087)
(1.1986719e-06 -4.5788229e-06 -0.35328928)
(3.8068974e-06 -1.2467242e-06 -0.35328843)
(9.223021e-06 -2.5413769e-06 -0.35328741)
(9.4861479e-06 -4.7675851e-06 -0.35328408)
(4.3577969e-06 -3.0143122e-06 -0.35328183)
(4.1791197e-06 -1.6603052e-06 -0.35327943)
(9.008295e-07 -1.9633526e-06 -0.3532779)
(-3.7815177e-06 -3.2620518e-06 -0.35327982)
(-3.3132838e-06 -3.3132838e-06 -0.35328186)
(-4.8285065e-07 -2.8607674e-06 -0.35328153)
(2.9074286e-06 -1.7103127e-06 -0.35329098)
(6.481753e-06 -1.5559644e-09 -0.35328861)
(7.8419493e-06 7.2924354e-08 -0.35328727)
(8.6574714e-06 -9.222704e-07 -0.35328443)
(5.5599399e-06 -4.7952666e-07 -0.35328194)
(4.4100916e-06 -1.2084169e-07 -0.35327948)
(-1.0171712e-07 -3.2554536e-07 -0.35327843)
(-4.0174756e-06 -7.8920611e-07 -0.35328087)
(-2.8607674e-06 -4.8285064e-07 -0.35328153)
(-4.8752846e-07 -4.8752846e-07 -0.35328196)
(2.2820457e-06 2.2820457e-06 -0.33089165)
(4.5699627e-06 -3.1120389e-07 -0.33089078)
(1.2388466e-05 4.1079646e-06 -0.33089037)
(7.5002388e-06 1.3849743e-06 -0.33088736)
(-1.002358e-05 4.879525e-07 -0.33088811)
(-1.0733445e-05 8.267644e-07 -0.33088918)
(-8.0275588e-06 1.2075173e-06 -0.33088988)
(-6.2140201e-06 8.2979775e-07 -0.3308912)
(-6.0326567e-06 1.4552952e-06 -0.33089239)
(-2.2633314e-06 3.6476208e-06 -0.33089396)
(-3.112039e-07 4.5699627e-06 -0.33089078)
(7.308841e-06 7.308841e-06 -0.33089092)
(1.4932734e-05 1.0874657e-05 -0.33088903)
(2.0702207e-06 4.9521729e-06 -0.33088701)
(-1.0860895e-05 3.6907425e-06 -0.3308879)
(-9.6540979e-06 5.3232634e-06 -0.33088854)
(-8.0230087e-06 6.8417291e-06 -0.33088894)
(-5.8423533e-06 5.5111565e-06 -0.33089074)
(-1.8059221e-06 4.7224361e-06 -0.33089158)
(-7.1005752e-08 8.2855758e-06 -0.33089174)
(4.1079646e-06 1.2388466e-05 -0.33089037)
(1.0874657e-05 1.4932734e-05 -0.33088903)
(1.0031798e-05 1.0031798e-05 -0.33088785)
(3.1632449e-07 7.8681419e-06 -0.33088616)
(-9.6524898e-06 8.7765025e-06 -0.33088681)
(-7.5824584e-06 1.1427481e-05 -0.33088685)
(-7.8396656e-06 1.4072432e-05 -0.33088677)
(-8.3333131e-06 1.4101978e-05 -0.33088893)
(-3.2582375e-06 1.1484213e-05 -0.3308904)
(1.1209503e-07 1.0026455e-05 -0.33089025)
(1.3849742e-06 7.5002388e-06 -0.33088736)
(4.9521728e-06 2.0702206e-06 -0.33088701)
(7.8681419e-06 3.163245e-07 -0.33088616)
(8.1492487e-07 8.1492483e-07 -0.33088438)
(-7.3015558e-06 2.9120632e-06 -0.33088458)
(-4.3581679e-06 6.0357535e-06 -0.33088393)
(-5.3485121e-06 9.5467393e-06 -0.33088311)
(-8.430573e-06 1.2077134e-05 -0.33088498)
(-5.8814445e-06 1.2484406e-05 -0.33088678)
(-1.042844e-06 1.1518153e-05 -0.33088711)
(4.8795249e-07 -1.002358e-05 -0.33088811)
(3.6907425e-06 -1.0860895e-05 -0.3308879)
(8.7765025e-06 -9.6524898e-06 -0.33088681)
(2.9120632e-06 -7.3015558e-06 -0.33088458)
(-4.4316612e-06 -4.4316612e-06 -0.3308842)
(-9.4778236e-07 -1.3501688e-06 -0.33088288)
(-1.7982851e-06 1.8265768e-06 -0.33088133)
(-5.3956466e-06 4.7570621e-06 -0.33088258)
(-3.817219e-06 6.9764824e-06 -0.33088399)
(-5.3207379e-07 8.2809021e-06 -0.33088415)
(8.2676441e-07 -1.0733445e-05 -0.33088918)
(5.3232634e-06 -9.6540978e-06 -0.33088854)
(1.1427481e-05 -7.5824584e-06 -0.33088685)
(6.0357535e-06 -4.3581679e-06 -0.33088393)
(-1.3501688e-06 -9.4778237e-07 -0.33088288)
(1.9000701e-06 1.9000701e-06 -0.33088096)
(7.587188e-07 4.0868941e-06 -0.33087891)
(-3.2806675e-06 5.5941235e-06 -0.33087979)
(-2.3576046e-06 6.3596587e-06 -0.33088103)
(-1.7323083e-07 6.3059953e-06 -0.33088123)
(1.2075173e-06 -8.0275588e-06 -0.33088988)
(6.8417291e-06 -8.0230088e-06 -0.33088894)
(1.4072432e-05 -7.8396656e-06 -0.33088677)
(9.5467393e-06 -5.3485121e-06 -0.33088311)
(1.8265768e-06 -1.7982851e-06 -0.33088133)
(4.0868941e-06 7.587188e-07 -0.33087891)
(1.8957683e-06 1.8957683e-06 -0.33087663)
(-3.122882e-06 1.7345349e-06 -0.3308776)
(-3.1053472e-06 6.4159879e-07 -0.3308792)
(-5.6784939e-07 -9.2784271e-07 -0.33088003)
(8.2979774e-07 -6.2140201e-06 -0.3308912)
(5.5111565e-06 -5.8423533e-06 -0.33089074)
(1.4101978e-05 -8.3333131e-06 -0.33088893)
(1.2077134e-05 -8.430573e-06 -0.33088498)
(4.7570621e-06 -5.3956466e-06 -0.33088258)
(5.5941235e-06 -3.2806675e-06 -0.33087979)
(1.7345349e-06 -3.122882e-06 -0.3308776)
(-4.534837e-06 -4.534837e-06 -0.33087907)
(-5.0199821e-06 -6.0473247e-06 -0.33088141)
(-1.2195252e-06 -5.7056446e-06 -0.33088287)
(1.4552952e-06 -6.0326567e-06 -0.33089239)
(4.7224361e-06 -1.8059221e-06 -0.33089158)
(1.1484213e-05 -3.2582375e-06 -0.3308904)
(1.2484406e-05 -5.8814445e-06 -0.33088678)
(6.9764824e-06 -3.817219e-06 -0.33088399)
(6.3596587e-06 -2.3576045e-06 -0.33088103)
(6.4159879e-07 -3.1053472e-06 -0.3308792)
(-6.0473248e-06 -5.0199822e-06 -0.33088141)
(-4.2761547e-06 -4.2761547e-06 -0.33088393)
(-3.400626e-07 -3.388392e-06 -0.33088356)
(3.6476208e-06 -2.2633314e-06 -0.33089396)
(8.2855757e-06 -7.1005769e-08 -0.33089174)
(1.0026455e-05 1.1209503e-07 -0.33089025)
(1.1518153e-05 -1.042844e-06 -0.33088711)
(8.2809021e-06 -5.3207378e-07 -0.33088415)
(6.3059953e-06 -1.7323082e-07 -0.33088123)
(-9.2784273e-07 -5.6784939e-07 -0.33088003)
(-5.7056446e-06 -1.2195252e-06 -0.33088287)
(-3.388392e-06 -3.4006259e-07 -0.33088356)
(-6.2768336e-07 -6.2768334e-07 -0.33088401)
(2.5116352e-06 2.5116352e-06 -0.30319743)
(5.133713e-06 -3.8296324e-07 -0.30319673)
(1.4179305e-05 4.5312765e-06 -0.30319617)
(8.8524867e-06 1.4948328e-06 -0.30319289)
(-1.0596599e-05 5.5399019e-07 -0.30319307)
(-1.1272146e-05 1.0398464e-06 -0.30319348)
(-8.7751981e-06 1.528206e-06 -0.30319356)
(-7.3395887e-06 9.9579855e-07 -0.30319447)
(-7.332881e-06 1.7415388e-06 -0.30319547)
(-2.7549238e-06 4.3868195e-06 -0.30319685)
(-3.8296324e-07 5.133713e-06 -0.30319673)
(8.1631748e-06 8.1631748e-06 -0.30319689)
(1.6995999e-05 1.2142126e-05 -0.30319487)
(2.8865573e-06 5.5917764e-06 -0.3031925)
(-1.1279079e-05 4.3939929e-06 -0.3031928)
(-9.8108226e-06 6.5449582e-06 -0.30319277)
(-8.8412699e-06 8.462288e-06 -0.30319253)
(-7.0195894e-06 6.7154218e-06 -0.3031939)
(-2.2463496e-06 5.7985231e-06 -0.30319454)
(-1.0964311e-07 1.0188575e-05 -0.3031946)
(4.5312765e-06 1.4179305e-05 -0.30319617)
(1.2142126e-05 1.6995999e-05 -0.30319487)
(1.1607906e-05 1.1607906e-05 -0.30319349)
(1.104354e-06 9.3404994e-06 -0.30319142)
(-9.6434175e-06 1.0604121e-05 -0.30319146)
(-7.2038512e-06 1.3897373e-05 -0.30319084)
(-8.6047345e-06 1.7139655e-05 -0.30319013)
(-1.0003354e-05 1.7121054e-05 -0.30319187)
(-3.8597278e-06 1.4024293e-05 -0.30319313)
(1.7177747e-07 1.2465957e-05 -0.30319291)
(1.4948328e-06 8.8524867e-06 -0.30319289)
(5.5917763e-06 2.8865573e-06 -0.3031925)
(9.3404994e-06 1.104354e-06 -0.30319142)
(1.8827726e-06 1.8827726e-06 -0.30318925)
(-6.722205e-06 4.4921826e-06 -0.30318883)
(-3.2752886e-06 8.2929796e-06 -0.30318753)
(-5.6175895e-06 1.2518469e-05 -0.30318612)
(-1.0134952e-05 1.5481548e-05 -0.3031876)
(-6.9014459e-06 1.5895478e-05 -0.30318921)
(-1.1485336e-06 1.475516e-05 -0.3031895)
(5.5399016e-07 -1.0596599e-05 -0.30319307)
(4.3939929e-06 -1.1279079e-05 -0.3031928)
(1.0604121e-05 -9.6434175e-06 -0.30319146)
(4.4921826e-06 -6.722205e-06 -0.30318883)
(-3.2332105e-06 -3.2332106e-06 -0.30318786)
(8.2243548e-07 4.7208569e-07 -0.3031859)
(-1.4161662e-06 4.2448147e-06 -0.3031838)
(-6.6263446e-06 7.6390218e-06 -0.30318471)
(-4.586116e-06 1.0103629e-05 -0.30318599)
(-5.8843496e-07 1.1443305e-05 -0.30318614)
(1.0398464e-06 -1.1272146e-05 -0.30319348)
(6.5449582e-06 -9.8108226e-06 -0.30319277)
(1.3897373e-05 -7.2038512e-06 -0.30319084)
(8.2929795e-06 -3.2752886e-06 -0.30318753)
(4.720857e-07 8.2243549e-07 -0.3031859)
(4.2027367e-06 4.2027367e-06 -0.30318337)
(1.5493466e-06 6.7286387e-06 -0.30318081)
(-4.2761375e-06 8.34523e-06 -0.30318141)
(-3.097163e-06 8.9674903e-06 -0.30318257)
(-2.5541644e-07 8.5314533e-06 -0.30318283)
(1.528206e-06 -8.775198e-06 -0.30319356)
(8.462288e-06 -8.8412699e-06 -0.30319253)
(1.7139655e-05 -8.6047345e-06 -0.30319013)
(1.2518469e-05 -5.6175895e-06 -0.30318612)
(4.2448147e-06 -1.4161662e-06 -0.3031838)
(6.7286387e-06 1.5493466e-06 -0.30318081)
(2.7263272e-06 2.7263272e-06 -0.30317807)
(-4.387493e-06 2.224412e-06 -0.3031788)
(-4.3998928e-06 5.1647815e-07 -0.30318042)
(-8.7912632e-07 -1.7426291e-06 -0.3031814)
(9.9579855e-07 -7.3395887e-06 -0.30319447)
(6.7154218e-06 -7.0195894e-06 -0.3031939)
(1.7121054e-05 -1.0003354e-05 -0.30319187)
(1.5481548e-05 -1.0134952e-05 -0.3031876)
(7.6390218e-06 -6.6263446e-06 -0.30318471)
(8.34523e-06 -4.2761375e-06 -0.30318141)
(2.224412e-06 -4.387493e-06 -0.3031788)
(-6.4859865e-06 -6.4859865e-06 -0.30318014)
(-7.0642041e-06 -8.5104453e-06 -0.30318261)
(-1.761488e-06 -7.5414354e-06 -0.30318431)
(1.7415388e-06 -7.332881e-06 -0.30319547)
(5.7985231e-06 -2.2463495e-06 -0.30319454)
(1.4024293e-05 -3.8597278e-06 -0.30319313)
(1.5895478e-05 -6.9014459e-06 -0.30318921)
(1.0103629e-05 -4.586116e-06 -0.30318599)
(8.9674903e-06 -3.0971629e-06 -0.30318257)
(5.1647814e-07 -4.3998928e-06 -0.30318042)
(-8.5104453e-06 -7.0642041e-06 -0.30318261)
(-5.4553417e-06 -5.4553417e-06 -0.30318533)
(-2.3311974e-07 -4.0014921e-06 -0.30318507)
(4.3868195e-06 -2.7549238e-06 -0.30319685)
(1.0188575e-05 -1.0964312e-07 -0.3031946)
(1.2465957e-05 1.7177747e-07 -0.30319291)
(1.475516e-05 -1.1485336e-06 -0.3031895)
(1.1443305e-05 -5.8843496e-07 -0.30318614)
(8.5314533e-06 -2.5541644e-07 -0.30318283)
(-1.7426291e-06 -8.7912633e-07 -0.3031814)
(-7.5414354e-06 -1.761488e-06 -0.30318431)
(-4.0014921e-06 -2.3311974e-07 -0.30318507)
(-7.9225489e-07 -7.9225489e-07 -0.30318561)
(2.7513216e-06 2.7513215e-06 -0.27042244)
(5.8272111e-06 -4.1785924e-07 -0.27042167)
(1.6220326e-05 4.9769356e-06 -0.2704209)
(1.0603574e-05 1.6449722e-06 -0.27041739)
(-1.0608728e-05 6.651684e-07 -0.27041709)
(-1.1229163e-05 1.299039e-06 -0.27041697)
(-9.0168301e-06 1.8958937e-06 -0.27041656)
(-8.1178473e-06 1.2112912e-06 -0.27041705)
(-8.4195201e-06 2.0729994e-06 -0.27041781)
(-3.1876963e-06 5.1477034e-06 -0.27041904)
(-4.1785923e-07 5.8272111e-06 -0.27042167)
(9.1656322e-06 9.1656322e-06 -0.2704217)
(1.9314573e-05 1.3559184e-05 -0.27041952)
(4.1359234e-06 6.4210732e-06 -0.27041687)
(-1.1127627e-05 5.2973618e-06 -0.27041669)
(-9.3830749e-06 7.9637678e-06 -0.27041613)
(-9.1484518e-06 1.0273061e-05 -0.27041539)
(-7.8521887e-06 8.1085287e-06 -0.27041634)
(-2.5149018e-06 7.0603045e-06 -0.27041676)
(-1.1299237e-07 1.2226919e-05 -0.27041673)
(4.9769356e-06 1.6220326e-05 -0.2704209)
(1.3559184e-05 1.9314573e-05 -0.27041952)
(1.3475767e-05 1.3475767e-05 -0.27041793)
(2.3417522e-06 1.1124118e-05 -0.27041556)
(-9.0660329e-06 1.2744608e-05 -0.27041511)
(-6.2534641e-06 1.6666915e-05 -0.27041398)
(-8.8720692e-06 2.0483215e-05 -0.27041278)
(-1.1330603e-05 2.0394133e-05 -0.27041411)
(-4.3011302e-06 1.6813039e-05 -0.27041514)
(2.5671309e-07 1.5134965e-05 -0.27041485)
(1.6449722e-06 1.0603574e-05 -0.27041739)
(6.4210732e-06 4.1359234e-06 -0.27041687)
(1.1124118e-05 2.3417522e-06 -0.27041556)
(3.4047648e-06 3.4047648e-06 -0.27041307)
(-5.5848298e-06 6.5183281e-06 -0.27041218)
(-1.6444684e-06 1.0975659e-05 -0.27041038)
(-5.4212338e-06 1.5883246e-05 -0.27040852)
(-1.1522364e-05 1.9239326e-05 -0.27040962)
(-7.7740698e-06 1.9628479e-05 -0.27041101)
(-1.2317084e-06 1.8291528e-05 -0.27041122)
(6.6516841e-07 -1.0608728e-05 -0.27041709)
(5.2973618e-06 -1.1127627e-05 -0.27041669)
(1.2744608e-05 -9.0660329e-06 -0.27041511)
(6.5183281e-06 -5.5848298e-06 -0.27041218)
(-1.4951384e-06 -1.4951384e-06 -0.27041074)
(3.1114536e-06 2.8075536e-06 -0.27040831)
(-6.0840218e-07 7.1409656e-06 -0.27040579)
(-7.5853702e-06 1.0954522e-05 -0.27040636)
(-5.2489287e-06 1.3617197e-05 -0.27040746)
(-6.3458759e-07 1.4951126e-05 -0.27040758)
(1.299039e-06 -1.1229163e-05 -0.27041697)
(7.9637678e-06 -9.3830749e-06 -0.27041613)
(1.6666915e-05 -6.2534641e-06 -0.27041398)
(1.0975659e-05 -1.6444684e-06 -0.27041038)
(2.8075536e-06 3.1114536e-06 -0.27040831)
(6.9916355e-06 6.9916355e-06 -0.27040535)
(2.7257343e-06 9.8183701e-06 -0.27040239)
(-5.0461331e-06 1.1497859e-05 -0.27040269)
(-3.7774655e-06 1.1922662e-05 -0.27040372)
(-3.4242218e-07 1.1050706e-05 -0.27040397)
(1.8958937e-06 -9.0168301e-06 -0.27041656)
(1.0273061e-05 -9.1484518e-06 -0.27041539)
(2.0483215e-05 -8.8720692e-06 -0.27041278)
(1.5883246e-05 -5.4212338e-06 -0.27040852)
(7.1409656e-06 -6.0840218e-07 -0.27040579)
(9.8183701e-06 2.7257343e-06 -0.27040239)
(3.897821e-06 3.897821e-06 -0.2703993)
(-5.4810782e-06 2.9983938e-06 -0.27039978)
(-5.696081e-06 6.0570966e-07 -0.2704013)
(-1.2158914e-06 -2.4147408e-06 -0.27040232)
(1.2112912e-06 -8.1178473e-06 -0.27041705)
(8.1085287e-06 -7.8521887e-06 -0.27041634)
(2.0394133e-05 -1.1330603e-05 -0.27041411)
(1.9239326e-05 -1.1522364e-05 -0.27040962)
(1.0954522e-05 -7.5853702e-06 -0.27040636)
(1.1497859e-05 -5.0461332e-06 -0.27040269)
(2.9983939e-06 -5.4810782e-06 -0.27039978)
(-8.3382445e-06 -8.3382445e-06 -0.27040091)
(-9.1906001e-06 -1.0952894e-05 -0.27040334)
(-2.3560558e-06 -9.3838887e-06 -0.27040514)
(2.0729994e-06 -8.4195201e-06 -0.27041781)
(7.0603045e-06 -2.5149018e-06 -0.27041676)