/*--------------------------------*- C++ -*----------------------------------*\
| =========                 |                                                 |
| \\      /  F ield         | OpenFOAM: The Open Source CFD Toolbox           |
|  \\    /   O peration     | Version:  v2106                                 |
|   \\  /    A nd           | Website:  www.openfoam.com                      |
|    \\/     M anipulation  |                                                 |
\*---------------------------------------------------------------------------*/
FoamFile
{
    version     2.0;
    format      ascii;
    arch        "LSB;label=32;scalar=64";
    class       volScalarField;
    location    "50";
    object      Tmode2;
}
// * * * * * * * * * * * * * * * * * * * * * * * * * * * * * * * * * * * * * //

dimensions      [0 0 0 0 0 0 0];

internalField   nonuniform List<scalar> 
4000
(
-0.014488808
-0.01448881
-0.014488813
-0.014488803
-0.014488804
-0.014488808
-0.014488811
-0.014488813
-0.014488814
-0.014488815
-0.01448881
-0.014488815
-0.01448881
-0.014488803
-0.014488805
-0.01448881
-0.014488813
-0.014488814
-0.014488815
-0.014488815
-0.014488813
-0.01448881
-0.014488807
-0.014488802
-0.014488804
-0.014488808
-0.014488811
-0.014488813
-0.014488814
-0.014488814
-0.014488803
-0.014488803
-0.014488802
-0.014488797
-0.0144888
-0.014488803
-0.014488805
-0.014488806
-0.014488808
-0.014488809
-0.014488804
-0.014488805
-0.014488804
-0.0144888
-0.014488802
-0.014488805
-0.014488806
-0.014488806
-0.014488807
-0.014488808
-0.014488808
-0.01448881
-0.014488808
-0.014488803
-0.014488805
-0.014488806
-0.014488807
-0.014488807
-0.014488807
-0.014488807
-0.014488811
-0.014488813
-0.014488811
-0.014488805
-0.014488806
-0.014488807
-0.014488807
-0.014488806
-0.014488806
-0.014488806
-0.014488813
-0.014488814
-0.014488813
-0.014488806
-0.014488806
-0.014488807
-0.014488806
-0.014488806
-0.014488806
-0.014488806
-0.014488814
-0.014488815
-0.014488814
-0.014488808
-0.014488807
-0.014488807
-0.014488806
-0.014488806
-0.014488807
-0.014488807
-0.014488815
-0.014488815
-0.014488814
-0.014488809
-0.014488808
-0.014488807
-0.014488806
-0.014488806
-0.014488807
-0.014488808
-0.015122375
-0.015122376
-0.015122379
-0.015122358
-0.015122361
-0.015122372
-0.015122381
-0.015122386
-0.015122389
-0.015122391
-0.015122376
-0.015122382
-0.015122369
-0.015122355
-0.015122361
-0.015122373
-0.01512238
-0.015122385
-0.015122388
-0.015122387
-0.015122379
-0.015122369
-0.015122362
-0.015122351
-0.015122358
-0.015122369
-0.015122376
-0.015122381
-0.015122385
-0.015122384
-0.015122358
-0.015122355
-0.015122351
-0.015122342
-0.015122348
-0.015122357
-0.015122362
-0.015122366
-0.015122371
-0.015122374
-0.015122361
-0.015122361
-0.015122358
-0.015122348
-0.015122354
-0.01512236
-0.015122363
-0.015122365
-0.015122368
-0.015122369
-0.015122372
-0.015122373
-0.015122369
-0.015122357
-0.01512236
-0.015122364
-0.015122365
-0.015122365
-0.015122366
-0.015122367
-0.015122381
-0.01512238
-0.015122376
-0.015122362
-0.015122363
-0.015122365
-0.015122363
-0.015122363
-0.015122364
-0.015122364
-0.015122386
-0.015122385
-0.015122381
-0.015122366
-0.015122365
-0.015122365
-0.015122363
-0.015122362
-0.015122363
-0.015122364
-0.015122389
-0.015122388
-0.015122385
-0.015122371
-0.015122368
-0.015122366
-0.015122364
-0.015122363
-0.015122366
-0.015122367
-0.015122391
-0.015122387
-0.015122384
-0.015122374
-0.015122369
-0.015122367
-0.015122364
-0.015122364
-0.015122367
-0.015122368
-0.015735573
-0.015735569
-0.015735567
-0.015735541
-0.015735547
-0.015735564
-0.015735577
-0.015735585
-0.015735591
-0.015735596
-0.015735569
-0.015735572
-0.015735554
-0.015735536
-0.015735547
-0.015735563
-0.015735575
-0.015735584
-0.015735587
-0.015735587
-0.015735567
-0.015735554
-0.015735543
-0.01573553
-0.015735541
-0.015735556
-0.015735566
-0.015735575
-0.015735582
-0.015735581
-0.015735541
-0.015735536
-0.01573553
-0.015735518
-0.015735528
-0.01573554
-0.015735547
-0.015735555
-0.015735563
-0.015735566
-0.015735547
-0.015735547
-0.015735541
-0.015735528
-0.015735536
-0.015735544
-0.015735547
-0.015735551
-0.015735556
-0.015735558
-0.015735564
-0.015735563
-0.015735556
-0.01573554
-0.015735544
-0.015735549
-0.015735548
-0.015735549
-0.015735552
-0.015735552
-0.015735577
-0.015735575
-0.015735566
-0.015735547
-0.015735547
-0.015735548
-0.015735545
-0.015735545
-0.015735547
-0.015735547
-0.015735585
-0.015735584
-0.015735575
-0.015735555
-0.015735551
-0.015735549
-0.015735545
-0.015735544
-0.015735548
-0.015735549
-0.015735591
-0.015735587
-0.015735582
-0.015735563
-0.015735556
-0.015735552
-0.015735547
-0.015735548
-0.015735553
-0.015735554
-0.015735596
-0.015735587
-0.015735581
-0.015735566
-0.015735558
-0.015735552
-0.015735547
-0.015735549
-0.015735554
-0.015735555
-0.016314777
-0.016314769
-0.016314766
-0.016314736
-0.016314744
-0.016314765
-0.016314781
-0.016314793
-0.0163148
-0.016314807
-0.016314769
-0.016314771
-0.01631475
-0.016314729
-0.016314743
-0.016314763
-0.016314778
-0.01631479
-0.016314795
-0.016314795
-0.016314766
-0.01631475
-0.016314736
-0.016314721
-0.016314736
-0.016314753
-0.016314766
-0.016314779
-0.016314787
-0.016314786
-0.016314736
-0.016314729
-0.016314721
-0.016314708
-0.01631472
-0.016314734
-0.016314741
-0.016314753
-0.016314763
-0.016314766
-0.016314744
-0.016314743
-0.016314736
-0.01631472
-0.016314729
-0.016314737
-0.016314739
-0.016314745
-0.016314752
-0.016314754
-0.016314765
-0.016314763
-0.016314753
-0.016314734
-0.016314737
-0.01631474
-0.016314738
-0.01631474
-0.016314744
-0.016314744
-0.016314781
-0.016314778
-0.016314766
-0.016314741
-0.016314739
-0.016314738
-0.016314732
-0.016314733
-0.016314737
-0.016314737
-0.016314793
-0.01631479
-0.016314779
-0.016314753
-0.016314745
-0.01631474
-0.016314733
-0.016314734
-0.01631474
-0.016314743
-0.0163148
-0.016314795
-0.016314787
-0.016314763
-0.016314752
-0.016314744
-0.016314737
-0.01631474
-0.016314747
-0.016314748
-0.016314807
-0.016314795
-0.016314786
-0.016314766
-0.016314754
-0.016314744
-0.016314737
-0.016314743
-0.016314748
-0.016314749
-0.016846316
-0.016846307
-0.016846304
-0.016846269
-0.016846279
-0.016846303
-0.016846321
-0.016846336
-0.016846345
-0.016846354
-0.016846307
-0.016846309
-0.016846286
-0.016846262
-0.016846277
-0.0168463
-0.016846317
-0.016846333
-0.016846339
-0.016846339
-0.016846304
-0.016846286
-0.01684627
-0.016846253
-0.016846269
-0.016846288
-0.016846301
-0.016846318
-0.016846329
-0.016846327
-0.016846269
-0.016846262
-0.016846253
-0.016846237
-0.01684625
-0.016846263
-0.016846271
-0.016846285
-0.016846298
-0.016846302
-0.016846279
-0.016846277
-0.016846269
-0.01684625
-0.016846258
-0.016846264
-0.016846265
-0.016846274
-0.016846283
-0.016846284
-0.016846303
-0.0168463
-0.016846288
-0.016846263
-0.016846264
-0.016846265
-0.01684626
-0.016846263
-0.016846269
-0.016846269
-0.016846321
-0.016846317
-0.016846301
-0.016846271
-0.016846265
-0.01684626
-0.016846251
-0.016846253
-0.016846259
-0.01684626
-0.016846336
-0.016846333
-0.016846318
-0.016846285
-0.016846274
-0.016846263
-0.016846253
-0.016846256
-0.016846265
-0.016846269
-0.016846345
-0.016846339
-0.016846329
-0.016846298
-0.016846283
-0.016846269
-0.016846259
-0.016846265
-0.016846276
-0.016846276
-0.016846354
-0.016846339
-0.016846327
-0.016846302
-0.016846284
-0.016846269
-0.01684626
-0.016846269
-0.016846276
-0.016846277
-0.017316458
-0.017316448
-0.017316444
-0.017316405
-0.017316415
-0.01731644
-0.01731646
-0.017316476
-0.017316487
-0.017316498
-0.017316448
-0.017316451
-0.017316424
-0.017316397
-0.017316413
-0.017316436
-0.017316454
-0.017316472
-0.01731648
-0.017316479
-0.017316444
-0.017316424
-0.017316407
-0.017316386
-0.017316402
-0.017316421
-0.017316434
-0.017316455
-0.017316467
-0.017316465
-0.017316405
-0.017316397
-0.017316386
-0.017316367
-0.017316379
-0.017316391
-0.017316397
-0.017316414
-0.01731643
-0.017316433
-0.017316415
-0.017316413
-0.017316402
-0.017316379
-0.017316385
-0.017316388
-0.017316386
-0.017316397
-0.017316407
-0.017316409
-0.01731644
-0.017316436
-0.017316421
-0.017316391
-0.017316388
-0.017316385
-0.017316376
-0.017316381
-0.017316388
-0.017316387
-0.01731646
-0.017316454
-0.017316434
-0.017316397
-0.017316386
-0.017316376
-0.017316362
-0.017316366
-0.017316374
-0.017316377
-0.017316476
-0.017316472
-0.017316455
-0.017316414
-0.017316397
-0.017316381
-0.017316366
-0.017316372
-0.017316384
-0.01731639
-0.017316487
-0.01731648
-0.017316467
-0.01731643
-0.017316407
-0.017316388
-0.017316374
-0.017316384
-0.017316398
-0.017316397
-0.017316498
-0.017316479
-0.017316465
-0.017316433
-0.017316409
-0.017316387
-0.017316377
-0.01731639
-0.017316397
-0.017316399
-0.01771139
-0.017711379
-0.017711374
-0.01771133
-0.017711339
-0.017711364
-0.017711384
-0.017711402
-0.017711415
-0.017711427
-0.017711379
-0.017711383
-0.017711353
-0.017711321
-0.017711337
-0.01771136
-0.017711377
-0.017711397
-0.017711406
-0.017711405
-0.017711374
-0.017711353
-0.017711333
-0.017711309
-0.017711324
-0.017711341
-0.017711353
-0.017711376
-0.01771139
-0.017711387
-0.01771133
-0.017711321
-0.017711309
-0.017711286
-0.017711295
-0.017711304
-0.017711308
-0.017711328
-0.017711345
-0.017711348
-0.017711339
-0.017711337
-0.017711324
-0.017711295
-0.017711298
-0.017711297
-0.017711292
-0.017711303
-0.017711315
-0.017711317
-0.017711364
-0.01771136
-0.017711341
-0.017711304
-0.017711297
-0.017711288
-0.017711275
-0.01771128
-0.017711289
-0.017711289
-0.017711384
-0.017711377
-0.017711353
-0.017711308
-0.017711292
-0.017711275
-0.017711256
-0.017711261
-0.017711271
-0.017711275
-0.017711402
-0.017711397
-0.017711376
-0.017711328
-0.017711303
-0.01771128
-0.017711261
-0.017711268
-0.017711284
-0.017711293
-0.017711415
-0.017711406
-0.01771139
-0.017711345
-0.017711315
-0.017711289
-0.017711271
-0.017711284
-0.017711302
-0.017711301
-0.017711427
-0.017711405
-0.017711387
-0.017711348
-0.017711317
-0.017711289
-0.017711275
-0.017711293
-0.017711301
-0.017711303
-0.018017231
-0.018017219
-0.018017213
-0.018017163
-0.01801717
-0.018017194
-0.018017214
-0.018017232
-0.018017245
-0.018017259
-0.018017219
-0.018017223
-0.01801719
-0.018017153
-0.018017167
-0.018017188
-0.018017204
-0.018017226
-0.018017235
-0.018017234
-0.018017213
-0.01801719
-0.018017167
-0.018017138
-0.01801715
-0.018017165
-0.018017176
-0.0180172
-0.018017215
-0.018017211
-0.018017163
-0.018017153
-0.018017138
-0.01801711
-0.018017117
-0.018017122
-0.018017123
-0.018017144
-0.018017162
-0.018017165
-0.01801717
-0.018017167
-0.01801715
-0.018017117
-0.018017115
-0.01801711
-0.018017099
-0.018017112
-0.018017125
-0.018017126
-0.018017194
-0.018017188
-0.018017165
-0.018017122
-0.01801711
-0.018017094
-0.018017075
-0.018017081
-0.018017091
-0.018017091
-0.018017214
-0.018017204
-0.018017176
-0.018017123
-0.018017099
-0.018017075
-0.018017052
-0.018017056
-0.018017068
-0.018017074
-0.018017232
-0.018017226
-0.0180172
-0.018017144
-0.018017112
-0.018017081
-0.018017056
-0.018017065
-0.018017085
-0.018017096
-0.018017245
-0.018017235
-0.018017215
-0.018017162
-0.018017125
-0.018017091
-0.018017068
-0.018017085
-0.018017107
-0.018017104
-0.018017259
-0.018017234
-0.018017211
-0.018017165
-0.018017126
-0.018017091
-0.018017074
-0.018017096
-0.018017104
-0.018017107
-0.018220043
-0.01822003
-0.018220022
-0.018219967
-0.018219971
-0.018219994
-0.018220012
-0.01822003
-0.018220044
-0.018220059
-0.01822003
-0.018220034
-0.018219997
-0.018219955
-0.018219966
-0.018219986
-0.01822
-0.018220023
-0.018220031
-0.01822003
-0.018220022
-0.018219997
-0.018219971
-0.018219937
-0.018219947
-0.018219959
-0.018219967
-0.018219992
-0.018220008
-0.018220003
-0.018219967
-0.018219955
-0.018219937
-0.018219904
-0.018219907
-0.018219908
-0.018219905
-0.018219927
-0.018219947
-0.01821995
-0.018219971
-0.018219966
-0.018219947
-0.018219907
-0.0182199
-0.01821989
-0.018219875
-0.018219887
-0.018219901
-0.018219902
-0.018219994
-0.018219986
-0.018219959
-0.018219908
-0.01821989
-0.018219868
-0.018219843
-0.018219849
-0.018219859
-0.018219859
-0.018220012
-0.01822
-0.018219967
-0.018219905
-0.018219875
-0.018219843
-0.018219814
-0.018219818
-0.018219832
-0.018219839
-0.01822003
-0.018220023
-0.018219992
-0.018219927
-0.018219887
-0.018219849
-0.018219818
-0.018219828
-0.018219851
-0.018219865
-0.018220044
-0.018220031
-0.018220008
-0.018219947
-0.018219901
-0.018219859
-0.018219832
-0.018219851
-0.018219877
-0.018219874
-0.018220059
-0.01822003
-0.018220003
-0.01821995
-0.018219902
-0.018219859
-0.018219839
-0.018219865
-0.018219874
-0.018219878
-0.01830587
-0.018305856
-0.018305845
-0.018305784
-0.018305785
-0.018305806
-0.018305822
-0.01830584
-0.018305855
-0.01830587
-0.018305856
-0.018305859
-0.018305819
-0.018305771
-0.018305779
-0.018305796
-0.018305808
-0.018305831
-0.01830584
-0.018305838
-0.018305845
-0.018305819
-0.018305789
-0.01830575
-0.018305756
-0.018305764
-0.018305769
-0.018305796
-0.018305811
-0.018305806
-0.018305784
-0.018305771
-0.01830575
-0.018305711
-0.01830571
-0.018305706
-0.0183057
-0.018305722
-0.018305742
-0.018305745
-0.018305785
-0.018305779
-0.018305756
-0.01830571
-0.018305698
-0.018305681
-0.018305661
-0.018305673
-0.018305688
-0.018305689
-0.018305806
-0.018305796
-0.018305764
-0.018305706
-0.018305681
-0.018305652
-0.018305622
-0.018305627
-0.018305638
-0.018305638
-0.018305822
-0.018305808
-0.018305769
-0.0183057
-0.018305661
-0.018305622
-0.018305586
-0.01830559
-0.018305606
-0.018305615
-0.01830584
-0.018305831
-0.018305796
-0.018305722
-0.018305673
-0.018305627
-0.01830559
-0.018305601
-0.018305627
-0.018305643
-0.018305855
-0.01830584
-0.018305811
-0.018305742
-0.018305688
-0.018305638
-0.018305606
-0.018305627
-0.018305656
-0.018305653
-0.01830587
-0.018305838
-0.018305806
-0.018305745
-0.018305689
-0.018305638
-0.018305615
-0.018305643
-0.018305653
-0.018305658
-0.018260785
-0.01826077
-0.018260756
-0.01826069
-0.018260686
-0.018260705
-0.018260719
-0.018260737
-0.018260751
-0.018260767
-0.01826077
-0.018260772
-0.018260728
-0.018260675
-0.018260679
-0.018260693
-0.018260703
-0.018260725
-0.018260734
-0.018260731
-0.018260756
-0.018260728
-0.018260695
-0.01826065
-0.018260652
-0.018260657
-0.018260658
-0.018260685
-0.018260701
-0.018260694
-0.01826069
-0.018260675
-0.01826065
-0.018260606
-0.0182606
-0.018260591
-0.018260581
-0.018260603
-0.018260624
-0.018260626
-0.018260686
-0.018260679
-0.018260652
-0.0182606
-0.018260582
-0.018260559
-0.018260534
-0.018260545
-0.018260561
-0.018260561
-0.018260705
-0.018260693
-0.018260657
-0.018260591
-0.018260559
-0.018260522
-0.018260486
-0.01826049
-0.018260502
-0.018260502
-0.018260719
-0.018260703
-0.018260658
-0.018260581
-0.018260534
-0.018260486
-0.018260445
-0.018260448
-0.018260465
-0.018260476
-0.018260737
-0.018260725
-0.018260685
-0.018260603
-0.018260545
-0.01826049
-0.018260448
-0.01826046
-0.018260488
-0.018260507
-0.018260751
-0.018260734
-0.018260701
-0.018260624
-0.018260561
-0.018260502
-0.018260465
-0.018260488
-0.01826052
-0.018260517
-0.018260767
-0.018260731
-0.018260694
-0.018260626
-0.018260561
-0.018260502
-0.018260476
-0.018260507
-0.018260517
-0.018260522
-0.01807097
-0.018070953
-0.018070937
-0.018070865
-0.018070857
-0.018070873
-0.018070885
-0.018070902
-0.018070916
-0.018070932
-0.018070953
-0.018070955
-0.018070907
-0.018070848
-0.018070848
-0.018070859
-0.018070866
-0.018070888
-0.018070896
-0.018070893
-0.018070937
-0.018070907
-0.01807087
-0.01807082
-0.018070818
-0.018070818
-0.018070816
-0.018070843
-0.018070859
-0.018070851
-0.018070865
-0.018070848
-0.01807082
-0.01807077
-0.018070759
-0.018070745
-0.01807073
-0.018070752
-0.018070773
-0.018070775
-0.018070857
-0.018070848
-0.018070818
-0.018070759
-0.018070734
-0.018070705
-0.018070675
-0.018070686
-0.018070701
-0.018070701
-0.018070873
-0.018070859
-0.018070818
-0.018070745
-0.018070705
-0.018070661
-0.018070619
-0.018070622
-0.018070634
-0.018070635
-0.018070885
-0.018070866
-0.018070816
-0.01807073
-0.018070675
-0.018070619
-0.018070571
-0.018070575
-0.018070593
-0.018070605
-0.018070902
-0.018070888
-0.018070843
-0.018070752
-0.018070686
-0.018070622
-0.018070575
-0.018070587
-0.018070618
-0.018070639
-0.018070916
-0.018070896
-0.018070859
-0.018070773
-0.018070701
-0.018070634
-0.018070593
-0.018070618
-0.018070653
-0.018070649
-0.018070932
-0.018070893
-0.018070851
-0.018070775
-0.018070701
-0.018070635
-0.018070605
-0.018070639
-0.018070649
-0.018070655
-0.017722822
-0.017722805
-0.017722785
-0.017722708
-0.017722695
-0.017722708
-0.017722717
-0.017722733
-0.017722747
-0.017722763
-0.017722805
-0.017722805
-0.017722754
-0.017722689
-0.017722684
-0.017722692
-0.017722696
-0.017722717
-0.017722725
-0.017722721
-0.017722785
-0.017722754
-0.017722713
-0.017722657
-0.01772265
-0.017722646
-0.017722641
-0.017722667
-0.017722682
-0.017722674
-0.017722708
-0.017722689
-0.017722657
-0.017722602
-0.017722584
-0.017722565
-0.017722546
-0.017722568
-0.017722589
-0.01772259
-0.017722695
-0.017722684
-0.01772265
-0.017722584
-0.017722553
-0.017722517
-0.017722482
-0.017722492
-0.017722508
-0.017722508
-0.017722708
-0.017722692
-0.017722646
-0.017722565
-0.017722517
-0.017722466
-0.017722419
-0.01772242
-0.017722432
-0.017722434
-0.017722717
-0.017722696
-0.017722641
-0.017722546
-0.017722482
-0.017722419
-0.017722365
-0.017722367
-0.017722386
-0.0177224
-0.017722733
-0.017722717
-0.017722667
-0.017722568
-0.017722492
-0.01772242
-0.017722367
-0.01772238
-0.017722413
-0.017722436
-0.017722747
-0.017722725
-0.017722682
-0.017722589
-0.017722508
-0.017722432
-0.017722386
-0.017722413
-0.017722451
-0.017722447
-0.017722763
-0.017722721
-0.017722674
-0.01772259
-0.017722508
-0.017722434
-0.0177224
-0.017722436
-0.017722447
-0.017722454
-0.017203098
-0.017203079
-0.017203056
-0.017202974
-0.017202956
-0.017202965
-0.017202971
-0.017202986
-0.017203
-0.017203016
-0.017203079
-0.017203077
-0.017203023
-0.017202953
-0.017202943
-0.017202946
-0.017202947
-0.017202968
-0.017202975
-0.017202971
-0.017203056
-0.017203023
-0.017202978
-0.017202917
-0.017202904
-0.017202895
-0.017202887
-0.017202913
-0.017202927
-0.017202918
-0.017202974
-0.017202953
-0.017202917
-0.017202856
-0.017202832
-0.017202808
-0.017202785
-0.017202806
-0.017202827
-0.017202827
-0.017202956
-0.017202943
-0.017202904
-0.017202832
-0.017202794
-0.017202752
-0.017202712
-0.017202721
-0.017202736
-0.017202736
-0.017202965
-0.017202946
-0.017202895
-0.017202808
-0.017202752
-0.017202693
-0.01720264
-0.01720264
-0.017202653
-0.017202655
-0.017202971
-0.017202947
-0.017202887
-0.017202785
-0.017202712
-0.01720264
-0.017202581
-0.017202582
-0.017202602
-0.017202618
-0.017202986
-0.017202968
-0.017202913
-0.017202806
-0.017202721
-0.01720264
-0.017202582
-0.017202595
-0.017202631
-0.017202656
-0.017203
-0.017202975
-0.017202927
-0.017202827
-0.017202736
-0.017202653
-0.017202602
-0.017202631
-0.01720267
-0.017202667
-0.017203016
-0.017202971
-0.017202918
-0.017202827
-0.017202736
-0.017202655
-0.017202618
-0.017202656
-0.017202667
-0.017202674
-0.016499097
-0.016499077
-0.016499051
-0.016498964
-0.016498941
-0.016498946
-0.01649895
-0.016498963
-0.016498976
-0.016498992
-0.016499077
-0.016499074
-0.016499016
-0.01649894
-0.016498925
-0.016498925
-0.016498923
-0.016498942
-0.016498949
-0.016498944
-0.016499051
-0.016499016
-0.016498967
-0.016498901
-0.016498882
-0.016498869
-0.016498858
-0.016498882
-0.016498896
-0.016498886
-0.016498964
-0.01649894
-0.016498901
-0.016498834
-0.016498804
-0.016498774
-0.016498747
-0.016498768
-0.016498788
-0.016498788
-0.016498941
-0.016498925
-0.016498882
-0.016498804
-0.016498759
-0.01649871
-0.016498665
-0.016498674
-0.016498689
-0.016498688
-0.016498946
-0.016498925
-0.016498869
-0.016498774
-0.01649871
-0.016498644
-0.016498586
-0.016498585
-0.016498597
-0.016498599
-0.01649895
-0.016498923
-0.016498858
-0.016498747
-0.016498665
-0.016498586
-0.016498521
-0.016498521
-0.016498543
-0.016498559
-0.016498963
-0.016498942
-0.016498882
-0.016498768
-0.016498674
-0.016498585
-0.016498521
-0.016498534
-0.016498572
-0.016498599
-0.016498976
-0.016498949
-0.016498896
-0.016498788
-0.016498689
-0.016498597
-0.016498543
-0.016498572
-0.016498614
-0.01649861
-0.016498992
-0.016498944
-0.016498886
-0.016498788
-0.016498688
-0.016498599
-0.016498559
-0.016498599
-0.01649861
-0.016498619
-0.015598909
-0.015598887
-0.015598859
-0.015598767
-0.015598738
-0.015598739
-0.01559874
-0.015598752
-0.015598764
-0.015598779
-0.015598887
-0.015598883
-0.015598822
-0.015598741
-0.01559872
-0.015598715
-0.01559871
-0.015598728
-0.015598734
-0.01559873
-0.015598859
-0.015598822
-0.015598769
-0.015598698
-0.015598673
-0.015598655
-0.01559864
-0.015598664
-0.015598677
-0.015598666
-0.015598767
-0.015598741
-0.015598698
-0.015598625
-0.015598589
-0.015598553
-0.015598522
-0.015598542
-0.015598561
-0.015598561
-0.015598738
-0.01559872
-0.015598673
-0.015598589
-0.015598536
-0.01559848
-0.015598431
-0.015598438
-0.015598453
-0.015598453
-0.015598739
-0.015598715
-0.015598655
-0.015598553
-0.01559848
-0.015598407
-0.015598344
-0.015598342
-0.015598354
-0.015598357
-0.01559874
-0.01559871
-0.01559864
-0.015598522
-0.015598431
-0.015598344
-0.015598274
-0.015598274
-0.015598296
-0.015598314
-0.015598752
-0.015598728
-0.015598664
-0.015598542
-0.015598438
-0.015598342
-0.015598274
-0.015598287
-0.015598327
-0.015598356
-0.015598764
-0.015598734
-0.015598677
-0.015598561
-0.015598453
-0.015598354
-0.015598296
-0.015598327
-0.015598371
-0.015598367
-0.015598779
-0.01559873
-0.015598666
-0.015598561
-0.015598453
-0.015598357
-0.015598314
-0.015598356
-0.015598367
-0.015598377
-0.014491715
-0.014491692
-0.01449166
-0.014491564
-0.014491528
-0.014491526
-0.014491523
-0.014491534
-0.014491546
-0.01449156
-0.014491692
-0.014491686
-0.014491621
-0.014491535
-0.014491509
-0.014491499
-0.014491491
-0.014491508
-0.014491513
-0.014491508
-0.01449166
-0.014491621
-0.014491565
-0.014491488
-0.014491457
-0.014491434
-0.014491416
-0.014491438
-0.01449145
-0.014491439
-0.014491564
-0.014491535
-0.014491488
-0.01449141
-0.014491367
-0.014491325
-0.014491291
-0.014491309
-0.014491328
-0.014491327
-0.014491528
-0.014491509
-0.014491457
-0.014491367
-0.014491306
-0.014491245
-0.014491192
-0.014491197
-0.014491212
-0.014491212
-0.014491526
-0.014491499
-0.014491434
-0.014491325
-0.014491245
-0.014491164
-0.014491096
-0.014491093
-0.014491105
-0.014491109
-0.014491523
-0.014491491
-0.014491416
-0.014491291
-0.014491192
-0.014491096
-0.014491022
-0.014491021
-0.014491044
-0.014491064
-0.014491534
-0.014491508
-0.014491438
-0.014491309
-0.014491197
-0.014491093
-0.014491021
-0.014491034
-0.014491076
-0.014491106
-0.014491546
-0.014491513
-0.01449145
-0.014491328
-0.014491212
-0.014491105
-0.014491044
-0.014491076
-0.014491121
-0.014491118
-0.01449156
-0.014491508
-0.014491439
-0.014491327
-0.014491212
-0.014491109
-0.014491064
-0.014491106
-0.014491118
-0.014491129
-0.013168173
-0.013168148
-0.013168113
-0.013168013
-0.013167971
-0.013167965
-0.013167959
-0.013167968
-0.013167979
-0.013167993
-0.013168148
-0.01316814
-0.013168073
-0.013167981
-0.013167949
-0.013167935
-0.013167924
-0.013167939
-0.013167944
-0.013167939
-0.013168113
-0.013168073
-0.013168013
-0.013167931
-0.013167894
-0.013167866
-0.013167844
-0.013167865
-0.013167876
-0.013167865
-0.013168013
-0.013167981
-0.013167931
-0.013167848
-0.013167798
-0.013167751
-0.013167713
-0.01316773
-0.013167748
-0.013167747
-0.013167971
-0.013167949
-0.013167894
-0.013167798
-0.01316773
-0.013167662
-0.013167605
-0.013167609
-0.013167623
-0.013167624
-0.013167965
-0.013167935
-0.013167866
-0.013167751
-0.013167662
-0.013167575
-0.013167502
-0.013167498
-0.01316751
-0.013167515
-0.013167959
-0.013167924
-0.013167844
-0.013167713
-0.013167605
-0.013167502
-0.013167424
-0.013167422
-0.013167446
-0.013167468
-0.013167968
-0.013167939
-0.013167865
-0.01316773
-0.013167609
-0.013167498
-0.013167422
-0.013167436
-0.013167479
-0.013167511
-0.013167979
-0.013167944
-0.013167876
-0.013167748
-0.013167623
-0.01316751
-0.013167446
-0.013167479
-0.013167526
-0.013167523
-0.013167993
-0.013167939
-0.013167865
-0.013167747
-0.013167624
-0.013167515
-0.013167468
-0.013167511
-0.013167523
-0.013167535
-0.011620898
-0.011620872
-0.011620833
-0.01162073
-0.011620682
-0.011620671
-0.011620663
-0.01162067
-0.01162068
-0.011620693
-0.011620872
-0.011620862
-0.011620792
-0.011620696
-0.011620657
-0.011620639
-0.011620625
-0.011620639
-0.011620643
-0.011620638
-0.011620833
-0.011620792
-0.011620728
-0.011620642
-0.011620598
-0.011620566
-0.011620541
-0.01162056
-0.01162057
-0.011620559
-0.01162073
-0.011620696
-0.011620642
-0.011620553
-0.011620497
-0.011620445
-0.011620404
-0.011620419
-0.011620436
-0.011620435
-0.011620682
-0.011620657
-0.011620598
-0.011620497
-0.011620421
-0.011620348
-0.011620287
-0.01162029
-0.011620304
-0.011620304
-0.011620671
-0.011620639
-0.011620566
-0.011620445
-0.011620348
-0.011620254
-0.011620178
-0.011620172
-0.011620184
-0.011620191
-0.011620663
-0.011620625
-0.011620541
-0.011620404
-0.011620287
-0.011620178
-0.011620095
-0.011620093
-0.011620118
-0.011620142
-0.01162067
-0.011620639
-0.01162056
-0.011620419
-0.01162029
-0.011620172
-0.011620093
-0.011620107
-0.011620151
-0.011620186
-0.01162068
-0.011620643
-0.01162057
-0.011620436
-0.011620304
-0.011620184
-0.011620118
-0.011620151
-0.0116202
-0.011620198
-0.011620693
-0.011620638
-0.011620559
-0.011620435
-0.011620304
-0.011620191
-0.011620142
-0.011620186
-0.011620198
-0.011620211
-0.0098450587
-0.0098450307
-0.0098449885
-0.009844883
-0.0098448286
-0.0098448138
-0.0098448025
-0.0098448076
-0.0098448169
-0.0098448282
-0.0098450307
-0.0098450186
-0.0098449461
-0.0098448456
-0.0098448013
-0.0098447791
-0.0098447614
-0.0098447732
-0.0098447767
-0.0098447719
-0.0098449885
-0.0098449461
-0.0098448788
-0.009844788
-0.0098447387
-0.0098447015
-0.0098446737
-0.0098446905
-0.0098446989
-0.0098446882
-0.009844883
-0.0098448456
-0.009844788
-0.0098446952
-0.009844632
-0.0098445749
-0.0098445308
-0.0098445445
-0.0098445604
-0.0098445591
-0.0098448286
-0.0098448013
-0.0098447387
-0.009844632
-0.0098445492
-0.0098444701
-0.0098444062
-0.0098444081
-0.0098444211
-0.0098444225
-0.0098448138
-0.0098447791
-0.0098447015
-0.0098445749
-0.0098444701
-0.0098443707
-0.0098442912
-0.0098442843
-0.0098442964
-0.0098443039
-0.0098448025
-0.0098447614
-0.0098446737
-0.0098445308
-0.0098444062
-0.0098442912
-0.0098442053
-0.0098442025
-0.0098442277
-0.0098442538
-0.0098448076
-0.0098447732
-0.0098446905
-0.0098445445
-0.0098444081
-0.0098442843
-0.0098442025
-0.0098442163
-0.0098442621
-0.0098442979
-0.0098448169
-0.0098447767
-0.0098446989
-0.0098445604
-0.0098444211
-0.0098442964
-0.0098442277
-0.0098442621
-0.0098443116
-0.0098443109
-0.0098448282
-0.0098447719
-0.0098446882
-0.0098445591
-0.0098444225
-0.0098443039
-0.0098442538
-0.0098442979
-0.0098443109
-0.0098443255
-0.0078391075
-0.0078390781
-0.0078390327
-0.007838925
-0.0078388643
-0.0078388458
-0.0078388317
-0.0078388347
-0.0078388431
-0.007838853
-0.0078390781
-0.0078390638
-0.0078389893
-0.0078388847
-0.0078388346
-0.0078388086
-0.0078387879
-0.0078387976
-0.0078388005
-0.007838796
-0.0078390327
-0.0078389893
-0.0078389186
-0.007838824
-0.0078387687
-0.0078387274
-0.0078386967
-0.0078387112
-0.0078387183
-0.0078387079
-0.007838925
-0.0078388847
-0.007838824
-0.0078387272
-0.0078386576
-0.007838596
-0.0078385491
-0.007838561
-0.0078385756
-0.0078385744
-0.0078388643
-0.0078388346
-0.0078387687
-0.0078386576
-0.0078385679
-0.0078384838
-0.0078384171
-0.0078384176
-0.0078384301
-0.0078384322
-0.0078388458
-0.0078388086
-0.0078387274
-0.007838596
-0.0078384838
-0.0078383792
-0.0078382967
-0.0078382887
-0.0078383007
-0.0078383095
-0.0078388317
-0.0078387879
-0.0078386967
-0.0078385491
-0.0078384171
-0.0078382967
-0.0078382082
-0.0078382048
-0.0078382306
-0.0078382587
-0.0078388347
-0.0078387976
-0.0078387112
-0.007838561
-0.0078384176
-0.0078382887
-0.0078382048
-0.0078382188
-0.0078382657
-0.007838303
-0.0078388431
-0.0078388005
-0.0078387183
-0.0078385756
-0.0078384301
-0.0078383007
-0.0078382306
-0.0078382657
-0.0078383161
-0.0078383165
-0.007838853
-0.007838796
-0.0078387079
-0.0078385744
-0.0078384322
-0.0078383095
-0.0078382587
-0.007838303
-0.0078383165
-0.0078383326
-0.0056056883
-0.0056056577
-0.0056056092
-0.0056055001
-0.0056054333
-0.0056054114
-0.0056053946
-0.0056053956
-0.0056054029
-0.0056054113
-0.0056056577
-0.0056056413
-0.005605565
-0.0056054569
-0.0056054014
-0.0056053719
-0.0056053485
-0.0056053558
-0.0056053582
-0.0056053541
-0.0056056092
-0.005605565
-0.0056054915
-0.0056053936
-0.0056053327
-0.0056052877
-0.0056052543
-0.0056052663
-0.005605272
-0.0056052621
-0.0056055001
-0.0056054569
-0.0056053936
-0.0056052934
-0.0056052179
-0.0056051522
-0.005605103
-0.005605113
-0.0056051262
-0.0056051251
-0.0056054333
-0.0056054014
-0.0056053327
-0.0056052179
-0.0056051218
-0.0056050334
-0.0056049642
-0.0056049634
-0.0056049751
-0.0056049781
-0.0056054114
-0.0056053719
-0.0056052877
-0.0056051522
-0.0056050334
-0.0056049242
-0.0056048394
-0.0056048302
-0.0056048419
-0.0056048522
-0.0056053946
-0.0056053485
-0.0056052543
-0.005605103
-0.0056049642
-0.0056048394
-0.0056047488
-0.0056047448
-0.0056047711
-0.0056048012
-0.0056053956
-0.0056053558
-0.0056052663
-0.005605113
-0.0056049634
-0.0056048302
-0.0056047448
-0.005604759
-0.0056048068
-0.0056048455
-0.0056054029
-0.0056053582
-0.005605272
-0.0056051262
-0.0056049751
-0.0056048419
-0.0056047711
-0.0056048068
-0.0056048578
-0.0056048595
-0.0056054113
-0.0056053541
-0.0056052621
-0.0056051251
-0.0056049781
-0.0056048522
-0.0056048012
-0.0056048455
-0.0056048595
-0.0056048771
-0.0031527406
-0.0031527088
-0.0031526578
-0.003152548
-0.0031524754
-0.0031524507
-0.0031524316
-0.0031524303
-0.0031524365
-0.0031524432
-0.0031527088
-0.0031526905
-0.003152613
-0.0031525021
-0.0031524416
-0.0031524093
-0.0031523833
-0.0031523882
-0.00315239
-0.0031523865
-0.0031526578
-0.003152613
-0.0031525372
-0.0031524367
-0.0031523709
-0.0031523228
-0.0031522871
-0.0031522964
-0.0031523003
-0.003152291
-0.003152548