/*--------------------------------*- C++ -*----------------------------------*\
| =========                 |                                                 |
| \\      /  F ield         | OpenFOAM: The Open Source CFD Toolbox           |
|  \\    /   O peration     | Version:  v2106                                 |
|   \\  /    A nd           | Website:  www.openfoam.com                      |
|    \\/     M anipulation  |                                                 |
\*---------------------------------------------------------------------------*/
FoamFile
{
    version     2.0;
    format      ascii;
    arch        "LSB;label=32;scalar=64";
    class       volVectorField;
    location    "65";
    object      flux;
}
// * * * * * * * * * * * * * * * * * * * * * * * * * * * * * * * * * * * * * //

dimensions      [0 1 -1 1 0 0 0];

internalField   nonuniform List<vector> 
4000
(
(-2.3125878e-07 -2.3125878e-07 0.31871681)
(-3.6034609e-07 -1.4898024e-07 0.31871428)
(-3.1158745e-08 -1.4801323e-07 0.31871408)
(-2.2403527e-08 -1.4663891e-07 0.31871394)
(2.2829823e-09 -1.4618604e-07 0.3187139)
(2.5621816e-08 -1.4628676e-07 0.31871396)
(5.044126e-08 -1.4684491e-07 0.31871412)
(7.8317523e-08 -1.4771197e-07 0.31871439)
(9.9525853e-08 -1.468574e-07 0.31871479)
(3.5342318e-08 -1.3396849e-07 0.31871527)
(-1.4898024e-07 -3.6034609e-07 0.31871428)
(-2.3547778e-07 -2.3547778e-07 0.31871257)
(-2.7646757e-08 -2.3002312e-07 0.31871241)
(-1.9662729e-08 -2.2589576e-07 0.31871228)
(2.8112058e-09 -2.2454275e-07 0.31871225)
(2.4633508e-08 -2.249617e-07 0.31871231)
(4.8303443e-08 -2.2698586e-07 0.31871246)
(7.829879e-08 -2.3090373e-07 0.31871271)
(1.2014108e-07 -2.3520212e-07 0.31871313)
(4.8231222e-08 -2.2598943e-07 0.31871383)
(-1.4801324e-07 -3.1158741e-08 0.31871408)
(-2.3002312e-07 -2.7646761e-08 0.31871241)
(-2.1576722e-08 -2.1576723e-08 0.31871228)
(-1.6923162e-08 -1.8350463e-08 0.31871217)
(3.2170403e-09 -1.7338308e-08 0.31871214)
(2.3178707e-08 -1.7935137e-08 0.3187122)
(4.4499238e-08 -2.006362e-08 0.31871234)
(7.0101265e-08 -2.4243256e-08 0.31871257)
(1.0444015e-07 -3.1921219e-08 0.31871294)
(4.1484115e-08 -4.4008908e-08 0.31871357)
(-1.4663892e-07 -2.2403528e-08 0.31871394)
(-2.2589576e-07 -1.9662726e-08 0.31871228)
(-1.8350459e-08 -1.6923163e-08 0.31871217)
(-1.5424314e-08 -1.5424313e-08 0.31871207)
(3.2265323e-09 -1.5117278e-08 0.31871204)
(2.1908196e-08 -1.5804383e-08 0.3187121)
(4.1995323e-08 -1.7397449e-08 0.31871223)
(6.6441191e-08 -1.9865718e-08 0.31871245)
(1.0037542e-07 -2.2986045e-08 0.3187128)
(4.0172763e-08 -2.5707911e-08 0.31871341)
(-1.4618603e-07 2.2829797e-09 0.3187139)
(-2.2454275e-07 2.8112094e-09 0.31871225)
(-1.7338309e-08 3.2170417e-09 0.31871214)
(-1.5117277e-08 3.2265296e-09 0.31871204)
(2.8369702e-09 2.8369702e-09 0.31871202)
(2.0898536e-08 2.1276146e-09 0.31871207)
(4.0437903e-08 1.1529542e-09 0.31871219)
(6.4512668e-08 -2.9654206e-11 0.31871241)
(9.859796e-08 -1.2599137e-09 0.31871275)
(3.9669538e-08 -2.1225458e-09 0.31871335)
(-1.4628676e-07 2.5621819e-08 0.31871396)
(-2.249617e-07 2.4633506e-08 0.31871231)
(-1.7935139e-08 2.3178707e-08 0.3187122)
(-1.5804386e-08 2.1908196e-08 0.3187121)
(2.1276172e-09 2.0898536e-08 0.31871207)
(2.022418e-08 2.0224181e-08 0.31871211)
(3.9838054e-08 1.9911272e-08 0.31871224)
(6.4028323e-08 1.9970098e-08 0.31871245)
(9.8282533e-08 2.0331379e-08 0.31871279)
(3.9597675e-08 2.0734466e-08 0.31871339)
(-1.4684491e-07 5.044126e-08 0.31871412)
(-2.2698587e-07 4.8303443e-08 0.31871246)
(-2.0063619e-08 4.4499237e-08 0.31871234)
(-1.7397448e-08 4.1995327e-08 0.31871223)
(1.1529557e-09 4.0437904e-08 0.31871219)
(1.9911272e-08 3.9838052e-08 0.31871224)
(4.018382e-08 4.018382e-08 0.31871236)
(6.4932776e-08 4.1488761e-08 0.31871258)
(9.9362329e-08 4.355769e-08 0.31871292)
(3.9938263e-08 4.5492315e-08 0.31871352)
(-1.4771197e-07 7.8317518e-08 0.31871439)
(-2.3090373e-07 7.829879e-08 0.31871271)
(-2.4243254e-08 7.0101266e-08 0.31871257)
(-1.9865719e-08 6.6441193e-08 0.31871245)
(-2.9657782e-11 6.4512668e-08 0.31871241)
(1.9970096e-08 6.402832e-08 0.31871245)
(4.1488763e-08 6.4932775e-08 0.31871258)
(6.7402192e-08 6.7402193e-08 0.3187128)
(1.0228609e-07 7.1486623e-08 0.31871315)
(4.0887425e-08 7.5908424e-08 0.31871377)
(-1.468574e-07 9.9525852e-08 0.31871479)
(-2.3520212e-07 1.2014108e-07 0.31871313)
(-3.1921216e-08 1.0444015e-07 0.31871294)
(-2.2986046e-08 1.0037542e-07 0.3187128)
(-1.2599172e-09 9.8597961e-08 0.31871275)
(2.0331379e-08 9.8282533e-08 0.31871279)
(4.3557692e-08 9.9362328e-08 0.31871292)
(7.1486623e-08 1.0228609e-07 0.31871315)
(1.0786856e-07 1.0786856e-07 0.31871353)
(4.2886131e-08 1.1572246e-07 0.31871418)
(-1.3396849e-07 3.5342319e-08 0.31871527)
(-2.2598942e-07 4.8231224e-08 0.31871383)
(-4.4008909e-08 4.1484116e-08 0.31871357)
(-2.5707911e-08 4.0172762e-08 0.31871341)
(-2.1225478e-09 3.9669539e-08 0.31871335)
(2.0734464e-08 3.9597675e-08 0.31871339)
(4.5492317e-08 3.9938263e-08 0.31871352)
(7.5908425e-08 4.0887425e-08 0.31871377)
(1.1572246e-07 4.2886131e-08 0.31871418)
(4.6123356e-08 4.6123356e-08 0.31871487)
(-1.8952366e-06 -1.8952366e-06 0.6749352)
(-3.1088027e-06 -1.3091562e-06 0.67493102)
(-4.4086798e-07 -1.2746267e-06 0.67493055)
(-2.2026714e-07 -1.2601473e-06 0.67493027)
(2.546852e-08 -1.2556912e-06 0.6749302)
(2.5842468e-07 -1.2567966e-06 0.67493033)
(5.089066e-07 -1.2626691e-06 0.67493066)
(7.99623e-07 -1.272153e-06 0.67493123)
(1.0622136e-06 -1.2623259e-06 0.67493214)
(3.8925937e-07 -1.0714785e-06 0.67493357)
(-1.3091562e-06 -3.1088027e-06 0.67493102)
(-2.1778885e-06 -2.1778885e-06 0.67492809)
(-3.6735467e-07 -2.0856019e-06 0.67492771)
(-1.9186382e-07 -2.0436289e-06 0.67492747)
(3.0494524e-08 -2.0303437e-06 0.67492741)
(2.4795775e-07 -2.0348272e-06 0.67492754)
(4.8587207e-07 -2.055813e-06 0.67492785)
(8.0013792e-07 -2.0970401e-06 0.67492838)
(1.3632252e-06 -2.1402682e-06 0.67492926)
(5.801067e-07 -1.9408657e-06 0.67493117)
(-1.2746267e-06 -4.4086798e-07 0.67493055)
(-2.0856019e-06 -3.6735467e-07 0.67492771)
(-3.0660842e-07 -3.0660842e-07 0.67492741)
(-1.6500891e-07 -2.749124e-07 0.67492719)
(3.4270308e-08 -2.65022e-07 0.67492715)
(2.3295544e-07 -2.7126187e-07 0.67492726)
(4.4669369e-07 -2.9305603e-07 0.67492755)
(7.1516772e-07 -3.3608021e-07 0.67492803)
(1.218388e-06 -4.1630947e-07 0.67492881)
(5.2219445e-07 -5.2470473e-07 0.67493057)
(-1.2601473e-06 -2.2026715e-07 0.67493027)
(-2.0436289e-06 -1.9186381e-07 0.67492747)
(-2.749124e-07 -1.6500891e-07 0.67492719)
(-1.502774e-07 -1.502774e-07 0.674927)
(3.4145053e-08 -1.4739131e-07 0.67492696)
(2.1992372e-07 -1.5448811e-07 0.67492707)
(4.2105373e-07 -1.7073944e-07 0.67492734)
(6.7688448e-07 -1.9594718e-07 0.67492779)
(1.1746007e-06 -2.2860004e-07 0.67492852)
(5.0784319e-07 -2.5784531e-07 0.67493025)
(-1.2556912e-06 2.5468523e-08 0.6749302)
(-2.0303437e-06 3.0494527e-08 0.67492741)
(-2.6502201e-07 3.4270308e-08 0.67492715)
(-1.4739131e-07 3.4145051e-08 0.67492696)
(3.00596e-08 3.0059601e-08 0.67492691)
(2.0960731e-07 2.2785962e-08 0.67492702)
(4.0523462e-07 1.286378e-08 0.67492727)
(6.5730712e-07 8.8372738e-10 0.67492771)
(1.1564899e-06 -1.1579468e-08 0.67492842)
(5.026976e-07 -2.0334322e-08 0.67493013)
(-1.2567966e-06 2.5842468e-07 0.67493033)
(-2.0348272e-06 2.4795775e-07 0.67492754)
(-2.7126188e-07 2.3295543e-07 0.67492726)
(-1.5448811e-07 2.1992373e-07 0.67492707)
(2.2785965e-08 2.0960731e-07 0.67492702)
(2.027279e-07 2.0272791e-07 0.67492711)
(3.991515e-07 1.9955925e-07 0.67492737)
(6.5244123e-07 2.0022567e-07 0.67492779)
(1.1533826e-06 2.0404646e-07 0.6749285)
(5.0200662e-07 2.0835173e-07 0.67493021)
(-1.2626691e-06 5.089066e-07 0.67493066)
(-2.055813e-06 4.8587207e-07 0.67492785)
(-2.9305603e-07 4.4669369e-07 0.67492755)
(-1.7073943e-07 4.2105373e-07 0.67492734)
(1.2863782e-08 4.0523463e-07 0.67492727)
(1.9955925e-07 3.991515e-07 0.67492737)
(4.0273239e-07 4.027324e-07 0.67492762)
(6.6179434e-07 4.1620173e-07 0.67492805)
(1.1646159e-06 4.3773259e-07 0.67492877)
(5.0556778e-07 4.5823507e-07 0.67493049)
(-1.272153e-06 7.99623e-07 0.67493123)
(-2.0970401e-06 8.0013792e-07 0.67492838)
(-3.3608021e-07 7.1516772e-07 0.67492803)
(-1.9594717e-07 6.7688448e-07 0.67492779)
(8.8372852e-10 6.5730712e-07 0.67492771)
(2.0022567e-07 6.5244123e-07 0.67492779)
(4.1620172e-07 6.6179434e-07 0.67492805)
(6.8744142e-07 6.8744142e-07 0.67492851)
(1.195416e-06 7.306654e-07 0.67492926)
(5.1567495e-07 7.7965085e-07 0.67493101)
(-1.2623259e-06 1.0622136e-06 0.67493214)
(-2.1402682e-06 1.3632252e-06 0.67492926)
(-4.1630947e-07 1.218388e-06 0.67492881)
(-2.2860004e-07 1.1746007e-06 0.67492852)
(-1.1579468e-08 1.1564899e-06 0.67492842)
(2.0404646e-07 1.1533826e-06 0.6749285)
(4.3773258e-07 1.1646159e-06 0.67492877)
(7.306654e-07 1.195416e-06 0.67492926)
(1.2568254e-06 1.2568253e-06 0.67493008)
(5.3822474e-07 1.3543299e-06 0.67493192)
(-1.0714785e-06 3.8925936e-07 0.67493357)
(-1.9408657e-06 5.801067e-07 0.67493117)
(-5.2470472e-07 5.2219445e-07 0.67493057)
(-2.5784531e-07 5.0784319e-07 0.67493025)
(-2.0334326e-08 5.026976e-07 0.67493013)
(2.0835173e-07 5.0200662e-07 0.67493021)
(4.5823507e-07 5.0556777e-07 0.67493049)
(7.7965085e-07 5.1567495e-07 0.67493101)
(1.3543299e-06 5.3822474e-07 0.67493192)
(5.8067801e-07 5.8067801e-07 0.67493403)
(-2.9832515e-06 -2.9832515e-06 0.67440117)
(-4.958617e-06 -2.0817195e-06 0.67439818)
(-7.8298237e-07 -2.0175482e-06 0.67439785)
(-3.7047019e-07 -1.9919312e-06 0.67439766)
(6.4154211e-08 -1.9843329e-06 0.67439763)
(4.8226927e-07 -1.987173e-06 0.67439776)
(9.4733633e-07 -2.0005045e-06 0.67439805)
(1.5553242e-06 -2.0281211e-06 0.67439857)
(2.4523017e-06 -2.045419e-06 0.67439946)
(9.982858e-07 -1.7181254e-06 0.67440126)
(-2.0817195e-06 -4.958617e-06 0.67439818)
(-3.5100631e-06 -3.5100631e-06 0.67439608)
(-6.4829996e-07 -3.3425018e-06 0.67439583)
(-3.2064729e-07 -3.2685517e-06 0.67439566)
(7.1291535e-08 -3.2460789e-06 0.67439564)
(4.5801186e-07 -3.2567094e-06 0.67439576)
(8.8591425e-07 -3.3009862e-06 0.67439604)
(1.4879524e-06 -3.3955388e-06 0.67439649)
(2.9172949e-06 -3.5351602e-06 0.67439729)
(1.3255794e-06 -3.1959538e-06 0.67439949)
(-2.0175482e-06 -7.8298237e-07 0.67439785)
(-3.3425018e-06 -6.4829996e-07 0.67439583)
(-5.4147088e-07 -5.4147087e-07 0.67439563)
(-2.7404727e-07 -4.860868e-07 0.67439549)
(7.5996462e-08 -4.6991935e-07 0.67439547)
(4.2736198e-07 -4.8364838e-07 0.67439559)
(8.0850696e-07 -5.271333e-07 0.67439584)
(1.3211502e-06 -6.1197317e-07 0.67439624)
(2.6518867e-06 -7.6998304e-07 0.67439691)
(1.2244235e-06 -9.6323303e-07 0.674399)
(-1.9919312e-06 -3.7047019e-07 0.67439766)
(-3.2685517e-06 -3.206473e-07 0.67439566)
(-4.860868e-07 -2.7404727e-07 0.67439549)
(-2.4909577e-07 -2.4909576e-07 0.67439536)
(7.372995e-08 -2.4559241e-07 0.67439535)
(4.0079791e-07 -2.6056192e-07 0.67439546)
(7.5758946e-07 -2.9289964e-07 0.67439568)
(1.2451027e-06 -3.4256048e-07 0.67439605)
(2.5660351e-06 -4.0714563e-07 0.67439668)
(1.196746e-06 -4.6357898e-07 0.67439872)
(-1.9843329e-06 6.4154212e-08 0.67439763)
(-3.2460789e-06 7.1291537e-08 0.67439564)
(-4.6991935e-07 7.599646e-08 0.67439547)
(-2.4559241e-07 7.3729954e-08 0.67439535)
(6.4530304e-08 6.4530308e-08 0.67439533)
(3.8005474e-07 4.9694124e-08 0.67439543)
(7.265084e-07 3.0099091e-08 0.67439564)
(1.2069042e-06 6.8194982e-09 0.674396)
(2.5308682e-06 -1.7188405e-08 0.67439661)
(1.1868013e-06 -3.3804155e-08 0.67439863)
(-1.987173e-06 4.8226928e-07 0.67439776)
(-3.2567094e-06 4.5801187e-07 0.67439576)
(-4.8364838e-07 4.2736198e-07 0.67439559)
(-2.6056192e-07 4.0079791e-07 0.67439546)
(4.969412e-08 3.8005475e-07 0.67439543)
(3.6636669e-07 3.663667e-07 0.67439552)
(7.1471484e-07 3.6026357e-07 0.67439573)
(1.1978152e-06 3.6212797e-07 0.67439607)
(2.5254114e-06 3.7079688e-07 0.67439668)
(1.1856689e-06 3.8072026e-07 0.6743987)
(-2.0005045e-06 9.4733633e-07 0.67439805)
(-3.3009862e-06 8.8591424e-07 0.67439604)
(-5.2713331e-07 8.0850696e-07 0.67439584)
(-2.9289964e-07 7.5758946e-07 0.67439568)
(3.0099094e-08 7.265084e-07 0.67439564)
(3.6026356e-07 7.1471484e-07 0.67439573)
(7.2226967e-07 7.2226967e-07 0.67439593)
(1.2174375e-06 7.5032055e-07 0.67439629)
(2.5494605e-06 7.9659493e-07 0.67439691)
(1.1934169e-06 8.4348565e-07 0.67439894)
(-2.0281211e-06 1.5553242e-06 0.67439857)
(-3.3955388e-06 1.4879524e-06 0.67439649)
(-6.1197317e-07 1.3211502e-06 0.67439624)
(-3.4256048e-07 1.2451027e-06 0.67439605)
(6.8194992e-09 1.2069042e-06 0.674396)
(3.6212797e-07 1.1978152e-06 0.67439607)
(7.5032055e-07 1.2174375e-06 0.67439629)
(1.2721404e-06 1.2721404e-06 0.67439666)
(2.6185765e-06 1.3710006e-06 0.67439732)
(1.2169294e-06 1.5014899e-06 0.67439941)
(-2.045419e-06 2.4523017e-06 0.67439946)
(-3.5351602e-06 2.9172949e-06 0.67439729)
(-7.6998304e-07 2.6518867e-06 0.67439691)
(-4.0714563e-07 2.5660351e-06 0.67439668)
(-1.7188406e-08 2.5308682e-06 0.67439661)
(3.7079687e-07 2.5254114e-06 0.67439668)
(7.9659493e-07 2.5494605e-06 0.67439691)
(1.3710006e-06 2.6185765e-06 0.67439732)
(2.77881e-06 2.77881e-06 0.67439807)
(1.2804098e-06 3.1512612e-06 0.67440029)
(-1.7181254e-06 9.982858e-07 0.67440126)
(-3.1959538e-06 1.3255794e-06 0.67439949)
(-9.6323302e-07 1.2244235e-06 0.674399)
(-4.6357898e-07 1.1967461e-06 0.67439872)
(-3.380416e-08 1.1868013e-06 0.67439863)
(3.8072026e-07 1.1856689e-06 0.6743987)
(8.4348566e-07 1.1934169e-06 0.67439894)
(1.5014899e-06 1.2169294e-06 0.67439941)
(3.1512612e-06 1.2804098e-06 0.67440029)
(1.4652303e-06 1.4652303e-06 0.67440304)
(-3.8769886e-06 -3.8769886e-06 0.6736369)
(-6.4041064e-06 -2.7008264e-06 0.67363439)
(-9.5681744e-07 -2.6166647e-06 0.67363428)
(-4.4225466e-07 -2.5828516e-06 0.6736342)
(1.2525274e-07 -2.5732857e-06 0.67363422)
(6.8362224e-07 -2.5786256e-06 0.67363435)
(1.3188078e-06 -2.6004888e-06 0.67363459)
(2.1941525e-06 -2.6489249e-06 0.67363501)
(3.7402096e-06 -2.7015203e-06 0.67363574)
(1.58704e-06 -2.2397903e-06 0.67363742)
(-2.7008264e-06 -6.4041064e-06 0.67363439)
(-4.5136223e-06 -4.5136223e-06 0.67363269)
(-7.798554e-07 -4.2932971e-06 0.67363263)
(-3.7718622e-07 -4.1957196e-06 0.67363257)
(1.3159187e-07 -4.1679077e-06 0.67363259)
(6.4281768e-07 -4.1873197e-06 0.67363271)
(1.2133588e-06 -4.2581981e-06 0.67363293)
(2.0426054e-06 -4.4127944e-06 0.67363328)
(4.353911e-06 -4.6658461e-06 0.6736339)
(2.0487698e-06 -4.1883458e-06 0.67363597)
(-2.6166647e-06 -9.5681744e-07 0.67363428)
(-4.2932971e-06 -7.798554e-07 0.67363263)
(-6.3891468e-07 -6.3891468e-07 0.67363262)
(-3.1686525e-07 -5.6642552e-07 0.67363257)
(1.336527e-07 -5.4779552e-07 0.6736326)
(5.9333175e-07 -5.7180471e-07 0.6736327)
(1.0933331e-06 -6.3996056e-07 0.6736329)
(1.7865046e-06 -7.7079396e-07 0.67363318)
(3.9646582e-06 -1.013195e-06 0.67363367)
(1.9053737e-06 -1.2901285e-06 0.67363562)
(-2.5828516e-06 -4.4225466e-07 0.6736342)
(-4.1957196e-06 -3.7718622e-07 0.67363257)
(-5.6642552e-07 -3.1686525e-07 0.67363257)
(-2.8606706e-07 -2.8606706e-07 0.67363254)
(1.2621267e-07 -2.8496616e-07 0.67363257)
(5.5065265e-07 -3.1010187e-07 0.67363266)
(1.0143696e-06 -3.6064719e-07 0.67363283)
(1.669371e-06 -4.3702402e-07 0.67363308)
(3.8345765e-06 -5.3606561e-07 0.67363352)
(1.8641474e-06 -6.2027994e-07 0.67363542)
(-2.5732857e-06 1.2525274e-07 0.67363422)
(-4.1679077e-06 1.3159187e-07 0.67363259)
(-5.4779552e-07 1.336527e-07 0.6736326)
(-2.8496616e-07 1.2621267e-07 0.67363257)
(1.0961789e-07 1.0961789e-07 0.67363258)
(5.1765072e-07 8.5538015e-08 0.67363266)
(9.6641091e-07 5.4991407e-08 0.67363282)
(1.6110862e-06 1.9445937e-08 0.67363305)
(3.7814023e-06 -1.6770525e-08 0.67363347)
(1.8492308e-06 -4.1348979e-08 0.67363535)
(-2.5786256e-06 6.8362225e-07 0.67363435)
(-4.1873197e-06 6.4281769e-07 0.67363271)
(-5.7180471e-07 5.9333176e-07 0.6736327)
(-3.1010187e-07 5.5065265e-07 0.67363266)
(8.5538011e-08 5.1765072e-07 0.67363266)
(4.9602616e-07 4.9602617e-07 0.67363274)
(9.482775e-07 4.8654152e-07 0.67363288)
(1.5976091e-06 4.8990161e-07 0.67363311)
(3.7737816e-06 5.0443498e-07 0.67363352)
(1.8477618e-06 5.2115573e-07 0.67363541)
(-2.6004888e-06 1.3188078e-06 0.67363459)
(-4.2581981e-06 1.2133588e-06 0.67363293)
(-6.3996056e-07 1.0933331e-06 0.6736329)
(-3.6064719e-07 1.0143696e-06 0.67363283)
(5.4991405e-08 9.6641091e-07 0.67363282)
(4.8654152e-07 9.482775e-07 0.67363288)
(9.6028635e-07 9.6028635e-07 0.67363303)
(1.6289796e-06 1.0049316e-06 0.67363326)
(3.8126564e-06 1.0798893e-06 0.67363369)
(1.860378e-06 1.1578891e-06 0.67363559)
(-2.6489249e-06 2.1941525e-06 0.67363501)
(-4.4127944e-06 2.0426054e-06 0.67363328)
(-7.7079395e-07 1.7865046e-06 0.67363318)
(-4.3702402e-07 1.669371e-06 0.67363308)
(1.9445938e-08 1.6110862e-06 0.67363305)
(4.8990161e-07 1.5976091e-06 0.67363311)
(1.0049316e-06 1.6289796e-06 0.67363326)
(1.717212e-06 1.7172121e-06 0.67363352)
(3.9267391e-06 1.8821399e-06 0.673634)
(1.8997616e-06 2.1143006e-06 0.67363594)
(-2.7015202e-06 3.7402096e-06 0.67363574)
(-4.6658461e-06 4.353911e-06 0.6736339)
(-1.013195e-06 3.9646582e-06 0.67363367)
(-5.360656e-07 3.8345765e-06 0.67363352)
(-1.6770524e-08 3.7814023e-06 0.67363347)
(5.0443498e-07 3.7737816e-06 0.67363352)
(1.0798893e-06 3.8126564e-06 0.67363369)
(1.8821399e-06 3.9267391e-06 0.673634)
(4.209745e-06 4.209745e-06 0.67363456)
(2.0151519e-06 4.9808051e-06 0.67363667)
(-2.2397903e-06 1.58704e-06 0.67363742)
(-4.1883458e-06 2.0487698e-06 0.67363597)
(-1.2901285e-06 1.9053737e-06 0.67363562)
(-6.2027994e-07 1.8641474e-06 0.67363542)
(-4.1348978e-08 1.8492308e-06 0.67363535)
(5.2115573e-07 1.8477618e-06 0.67363541)
(1.1578891e-06 1.860378e-06 0.67363559)
(2.1143006e-06 1.8997616e-06 0.67363594)
(4.9808051e-06 2.0151519e-06 0.67363667)
(2.413802e-06 2.413802e-06 0.67363945)
(-4.649054e-06 -4.649054e-06 0.67266033)
(-7.5602864e-06 -3.2115933e-06 0.67265817)
(-9.6543114e-07 -3.1137254e-06 0.67265826)
(-4.3115435e-07 -3.0741081e-06 0.67265829)
(2.0758962e-07 -3.0636953e-06 0.67265835)
(8.5296971e-07 -3.0723378e-06 0.67265847)
(1.6065963e-06 -3.1038392e-06 0.67265865)
(2.6957809e-06 -3.1755579e-06 0.67265895)
(4.8580119e-06 -3.270155e-06 0.67265951)
(2.1172543e-06 -2.6859344e-06 0.67266101)
(-3.2115933e-06 -7.5602864e-06 0.67265817)
(-5.2572962e-06 -5.2572962e-06 0.67265677)
(-7.5920339e-07 -5.0000328e-06 0.6726569)
(-3.5610913e-07 -4.8860197e-06 0.67265694)
(2.1024507e-07 -4.8566715e-06 0.67265701)
(7.9275375e-07 -4.887641e-06 0.67265711)
(1.4517662e-06 -4.9884858e-06 0.67265727)
(2.4463073e-06 -5.2093545e-06 0.6726575)
(5.5924466e-06 -5.5903962e-06 0.67265792)
(2.7014749e-06 -4.995885e-06 0.67265976)
(-3.1137254e-06 -9.6543114e-07 0.67265826)
(-5.0000328e-06 -7.5920338e-07 0.6726569)
(-5.9415455e-07 -5.9415454e-07 0.67265706)
(-2.8779303e-07 -5.1083236e-07 0.67265711)
(2.0596827e-07 -4.9374299e-07 0.67265718)
(7.2115542e-07 -5.3107544e-07 0.67265727)
(1.2848828e-06 -6.2701798e-07 0.67265739)
(2.0938704e-06 -8.0795475e-07 0.67265755)
(5.0714814e-06 -1.1411259e-06 0.67265784)
(2.5135955e-06 -1.5061927e-06 0.67265954)
(-3.0741081e-06 -4.3115435e-07 0.67265829)
(-4.8860197e-06 -3.5610913e-07 0.67265694)
(-5.1083237e-07 -2.8779303e-07 0.67265711)
(-2.5569758e-07 -2.5569758e-07 0.67265717)
(1.9000199e-07 -2.6037051e-07 0.67265723)
(6.5947876e-07 -2.9833485e-07 0.67265731)
(1.1748869e-06 -3.6953297e-07 0.6726574)
(1.9321994e-06 -4.7515991e-07 0.67265753)
(4.8942087e-06 -6.114032e-07 0.67265776)
(2.458097e-06 -7.2494342e-07 0.67265942)
(-3.0636952e-06 2.0758962e-07 0.67265835)
(-4.8566715e-06 2.1024507e-07 0.67265701)
(-4.9374299e-07 2.0596827e-07 0.67265718)
(-2.6037051e-07 1.9000199e-07 0.67265723)
(1.63331e-07 1.63331e-07 0.67265728)
(6.1199296e-07 1.2791305e-07 0.67265734)
(1.1080578e-06 8.4719045e-08 0.67265742)
(1.8520002e-06 3.5499837e-08 0.67265752)
(4.8216979e-06 -1.4048433e-08 0.67265774)
(2.437902e-06 -4.7120268e-08 0.67265937)
(-3.0723378e-06 8.5296971e-07 0.67265847)
(-4.887641e-06 7.9275375e-07 0.67265711)
(-5.3107545e-07 7.2115542e-07 0.67265727)
(-2.9833485e-07 6.5947876e-07 0.67265731)
(1.2791304e-07 6.1199296e-07 0.67265734)
(5.8086681e-07 5.8086681e-07 0.67265739)
(1.0824737e-06 5.6703667e-07 0.67265746)
(1.8334319e-06 5.7150698e-07 0.67265755)
(4.8115886e-06 5.9202613e-07 0.67265776)
(2.4360491e-06 6.1587958e-07 0.6726594)
(-3.1038392e-06 1.6065963e-06 0.67265865)
(-4.9884858e-06 1.4517662e-06 0.67265727)
(-6.2701798e-07 1.2848828e-06 0.67265739)
(-3.6953297e-07 1.1748869e-06 0.6726574)
(8.4719046e-08 1.1080578e-06 0.67265742)
(5.6703667e-07 1.0824737e-06 0.67265746)
(1.0986979e-06 1.0986979e-06 0.67265753)
(1.8769896e-06 1.1606742e-06 0.67265763)
(4.8660705e-06 1.2659776e-06 0.67265786)
(2.4538043e-06 1.3767797e-06 0.67265951)
(-3.1755579e-06 2.6957809e-06 0.67265895)
(-5.2093545e-06 2.4463073e-06 0.6726575)
(-8.0795475e-07 2.0938704e-06 0.67265755)
(-4.751599e-07 1.9321994e-06 0.67265753)
(3.5499838e-08 1.8520002e-06 0.67265752)
(5.7150697e-07 1.8334319e-06 0.67265755)
(1.1606742e-06 1.8769896e-06 0.67265763)
(2.0007115e-06 2.0007115e-06 0.67265776)
(5.0276941e-06 2.2356628e-06 0.67265803)
(2.5099173e-06 2.5751313e-06 0.67265973)
(-3.270155e-06 4.8580119e-06 0.67265951)
(-5.5903962e-06 5.5924466e-06 0.67265792)
(-1.1411259e-06 5.0714814e-06 0.67265784)
(-6.1140319e-07 4.8942087e-06 0.67265776)
(-1.4048432e-08 4.8216979e-06 0.67265774)
(5.9202612e-07 4.8115886e-06 0.67265776)
(1.2659776e-06 4.8660705e-06 0.67265786)
(2.2356628e-06 5.0276941e-06 0.67265803)
(5.4404902e-06 5.4404902e-06 0.67265839)
(2.6801167e-06 6.6504295e-06 0.67266026)
(-2.6859344e-06 2.1172543e-06 0.67266101)
(-4.995885e-06 2.7014749e-06 0.67265976)
(-1.5061927e-06 2.5135955e-06 0.67265954)
(-7.2494342e-07 2.458097e-06 0.67265942)
(-4.7120265e-08 2.437902e-06 0.67265937)
(6.1587958e-07 2.4360491e-06 0.6726594)
(1.3767797e-06 2.4538043e-06 0.67265951)
(2.5751313e-06 2.5099172e-06 0.67265973)
(6.6504296e-06 2.6801167e-06 0.67266026)
(3.3165441e-06 3.316544e-06 0.67266285)
(-5.31372e-06 -5.31372e-06 0.67149023)
(-8.4637491e-06 -3.6262529e-06 0.67148838)
(-8.2950844e-07 -3.5191462e-06 0.67148865)
(-3.4573893e-07 -3.4755762e-06 0.67148877)
(3.0454449e-07 -3.465273e-06 0.67148888)
(9.816998e-07 -3.4779312e-06 0.67148897)
(1.7992967e-06 -3.5200223e-06 0.67148909)
(3.0477766e-06 -3.617141e-06 0.67148926)
(5.7849668e-06 -3.7598169e-06 0.67148965)
(2.5791588e-06 -3.0695203e-06 0.67149093)
(-3.6262529e-06 -8.4637491e-06 0.67148838)
(-5.7718917e-06 -5.7718917e-06 0.67148727)
(-6.0349354e-07 -5.4892798e-06 0.67148755)
(-2.6492918e-07 -5.3646128e-06 0.67148769)
(3.0101204e-07 -5.3370771e-06 0.67148779)
(8.9957596e-07 -5.3821408e-06 0.67148788)
(1.5904821e-06 -5.515919e-06 0.67148796)
(2.6880849e-06 -5.8084124e-06 0.67148805)
(6.606397e-06 -6.3303385e-06 0.67148828)
(3.2694553e-06 -5.647995e-06 0.67148986)
(-3.5191462e-06 -8.2950844e-07 0.67148865)
(-5.4892798e-06 -6.0349354e-07 0.67148755)
(-4.2222949e-07 -4.2222948e-07 0.67148786)
(-1.935362e-07 -3.3346953e-07 0.671488)
(2.8701652e-07 -3.2162683e-07 0.6714881)
(8.0285783e-07 -3.7520052e-07 0.67148817)
(1.3730251e-06 -5.0185261e-07 0.67148821)
(2.233357e-06 -7.3658055e-07 0.67148824)
(5.9453843e-06 -1.1660782e-06 0.67148833)
(3.034055e-06 -1.6252706e-06 0.67148976)
(-3.4755762e-06 -3.4573893e-07 0.67148877)
(-5.3646128e-06 -2.6492919e-07 0.67148769)
(-3.3346954e-07 -1.935362e-07 0.671488)
(-1.6432654e-07 -1.6432653e-07 0.67148815)
(2.5928106e-07 -1.7805989e-07 0.67148823)
(7.1935019e-07 -2.3154871e-07 0.67148828)
(1.2291021e-06 -3.258925e-07 0.6714883)
(2.0238593e-06 -4.6332828e-07 0.67148829)
(5.717707e-06 -6.3951681e-07 0.67148832)
(2.9633269e-06 -7.8443028e-07 0.6714897)
(-3.465273e-06 3.0454448e-07 0.67148888)
(-5.3370771e-06 3.0101203e-07 0.67148779)
(-3.2162683e-07 2.8701652e-07 0.6714881)
(-1.7805989e-07 2.5928106e-07 0.67148823)
(2.1979434e-07 2.1979435e-07 0.67148831)
(6.5502522e-07 1.7077312e-07 0.67148834)
(1.1412455e-06 1.1298366e-07 0.67148834)
(1.9197327e-06 4.8354919e-08 0.6714883)
(5.6242823e-06 -1.6023999e-08 0.67148831)
(2.937446e-06 -5.8497827e-08 0.67148967)
(-3.4779312e-06 9.8169979e-07 0.67148897)
(-5.3821408e-06 8.9957596e-07 0.67148788)
(-3.7520052e-07 8.0285783e-07 0.67148817)
(-2.3154871e-07 7.1935019e-07 0.67148828)
(1.7077312e-07 6.5502523e-07 0.67148834)
(6.125395e-07 6.1253951e-07 0.67148836)
(1.1066839e-06 5.9291815e-07 0.67148835)
(1.8948516e-06 5.9739684e-07 0.6714883)
(5.6108543e-06 6.2311615e-07 0.6714883)
(2.935011e-06 6.5367217e-07 0.67148967)
(-3.5200223e-06 1.7992967e-06 0.67148909)
(-5.515919e-06 1.5904821e-06 0.67148796)
(-5.0185261e-07 1.3730251e-06 0.67148821)
(-3.2589249e-07 1.2291021e-06 0.6714883)
(1.1298366e-07 1.1412455e-06 0.67148834)
(5.9291814e-07 1.1066839e-06 0.67148835)
(1.1261028e-06 1.1261028e-06 0.67148833)
(1.9499307e-06 1.2048016e-06 0.67148829)
(5.6805576e-06 1.3401295e-06 0.67148831)
(2.9578167e-06 1.4834912e-06 0.67148969)
(-3.617141e-06 3.0477766e-06 0.67148926)
(-5.8084124e-06 2.6880849e-06 0.67148805)
(-7.3658055e-07 2.233357e-06 0.67148824)
(-4.6332828e-07 2.0238593e-06 0.67148829)
(4.8354919e-08 1.9197327e-06 0.6714883)
(5.9739684e-07 1.8948516e-06 0.6714883)
(1.2048016e-06 1.9499307e-06 0.67148829)
(2.1088783e-06 2.1088783e-06 0.67148828)
(5.8895439e-06 2.4137482e-06 0.67148834)
(3.0305855e-06 2.8602917e-06 0.67148976)
(-3.7598169e-06 5.7849668e-06 0.67148965)
(-6.3303385e-06 6.606397e-06 0.67148828)
(-1.1660782e-06 5.9453843e-06 0.67148833)
(-6.3951681e-07 5.717707e-06 0.67148832)
(-1.6023999e-08 5.6242823e-06 0.67148831)
(6.2311615e-07 5.6108543e-06 0.6714883)
(1.3401295e-06 5.6805576e-06 0.67148831)
(2.4137482e-06 5.8895439e-06 0.67148834)
(6.431971e-06 6.431971e-06 0.67148849)
(3.2555125e-06 8.0914478e-06 0.67149008)
(-3.0695203e-06 2.5791588e-06 0.67149093)
(-5.6479949e-06 3.2694553e-06 0.67148986)
(-1.6252706e-06 3.034055e-06 0.67148976)
(-7.8443029e-07 2.9633269e-06 0.6714897)
(-5.8497829e-08 2.937446e-06 0.67148967)
(6.5367217e-07 2.935011e-06 0.67148967)
(1.4834912e-06 2.9578167e-06 0.67148969)
(2.8602917e-06 3.0305855e-06 0.67148976)
(8.0914478e-06 3.2555125e-06 0.67149008)
(4.1369044e-06 4.1369044e-06 0.6714924)
(-5.8764978e-06 -5.8764978e-06 0.67014526)
(-9.137298e-06 -3.9520058e-06 0.67014372)
(-5.7163472e-07 -3.8393483e-06 0.67014412)
(-1.9891933e-07 -3.7933545e-06 0.67014433)
(4.0781589e-07 -3.7839712e-06 0.67014446)
(1.0636146e-06 -3.8012447e-06 0.67014454)
(1.8920398e-06 -3.8546817e-06 0.67014458)
(3.246774e-06 -3.9788543e-06 0.67014463)
(6.5150325e-06 -4.1746425e-06 0.67014483)
(2.9695624e-06 -3.3953834e-06 0.6701459)
(-3.9520058e-06 -9.137298e-06 0.67014372)
(-6.0815775e-06 -6.0815775e-06 0.67014286)
(-3.3365787e-07 -5.7831713e-06 0.67014328)
(-1.158537e-07 -5.6526779e-06 0.67014349)
(3.9598065e-07 -5.6298335e-06 0.67014362)
(9.5754888e-07 -5.6911722e-06 0.67014368)
(1.6256254e-06 -5.8603043e-06 0.67014368)
(2.7668332e-06 -6.2285981e-06 0.67014365)
(7.390238e-06 -6.9017208e-06 0.67014369)
(3.7488215e-06 -6.1611169e-06 0.670145)
(-3.8393483e-06 -5.7163472e-07 0.67014412)
(-5.7831713e-06 -3.3365787e-07 0.67014328)
(-1.4273495e-07 -1.4273495e-07 0.6701437)
(-4.5581456e-08 -5.3152156e-08 0.67014392)
(3.6932152e-07 -4.9829965e-08 0.67014404)
(8.3314381e-07 -1.2224855e-07 0.67014408)
(1.3546138e-06 -2.821383e-07 0.67014405)
(2.2053574e-06 -5.7366716e-07 0.67014394)
(6.5825138e-06 -1.1037456e-06 0.67014384)
(3.4632989e-06 -1.6622974e-06 0.67014499)
(-3.7933545e-06 -1.9891933e-07 0.67014433)
(-5.6526779e-06 -1.1585371e-07 0.67014349)
(-5.3152156e-08 -4.5581459e-08 0.67014392)
(-2.2948721e-08 -2.2948721e-08 0.67014413)
(3.2688426e-07 -4.8743104e-08 0.67014424)
(7.2524055e-07 -1.2027387e-07 0.67014426)
(1.1742068e-06 -2.4009045e-07 0.6701442)
(1.9452259e-06 -4.1167902e-07 0.67014405)
(6.3016079e-06 -6.3025152e-07 0.67014388)
(3.3764534e-06 -8.0850327e-07 0.67014499)
(-3.7839712e-06 4.0781589e-07 0.67014446)
(-5.6298335e-06 3.9598065e-07 0.67014362)
(-4.9829959e-08 3.6932152e-07 0.67014404)
(-4.8743101e-08 3.2688427e-07 0.67014424)
(2.7199637e-07 2.7199638e-07 0.67014433)
(6.4179646e-07 2.0713196e-07 0.67014434)
(1.0632086e-06 1.3272999e-07 0.67014425)
(1.8151963e-06 5.0818255e-08 0.67014407)
(6.1856896e-06 -3.0058389e-08 0.67014388)
(3.3444643e-06 -8.3017042e-08 0.67014497)
(-3.8012447e-06 1.0636146e-06 0.67014454)
(-5.6911722e-06 9.5754889e-07 0.67014368)
(-1.2224854e-07 8.3314381e-07 0.67014408)
(-1.2027386e-07 7.2524055e-07 0.67014426)
(2.0713195e-07 6.4179646e-07 0.67014434)
(5.8597416e-07 5.8597417e-07 0.67014432)
(1.0178931e-06 5.5879447e-07 0.67014422)
(1.7824376e-06 5.6164954e-07 0.67014404)
(6.1677726e-06 5.9111438e-07 0.67014384)
(3.3411476e-06 6.2739024e-07 0.67014492)
(-3.8546817e-06 1.8920398e-06 0.67014458)
(-5.8603043e-06 1.6256254e-06 0.67014368)
(-2.8213831e-07 1.3546138e-06 0.67014405)
(-2.4009045e-07 1.1742068e-06 0.6701442)
(1.3272999e-07 1.0632086e-06 0.67014425)
(5.5879447e-07 1.0178931e-06 0.67014422)
(1.038884e-06 1.038884e-06 0.67014412)
(1.8475162e-06 1.1326501e-06 0.67014394)
(6.2514303e-06 1.2962233e-06 0.67014375)
(3.3686483e-06 1.4705633e-06 0.67014485)
(-3.9788543e-06 3.246774e-06 0.67014463)
(-6.2285981e-06 2.7668332e-06 0.67014365)
(-5.7366716e-07 2.2053574e-06 0.67014394)
(-4.1167902e-07 1.9452259e-06 0.67014405)
(5.0818252e-08 1.8151963e-06 0.67014407)
(5.6164954e-07 1.7824376e-06 0.67014404)
(1.1326501e-06 1.8475162e-06 0.67014394)
(2.0397769e-06 2.0397769e-06 0.67014378)
(6.5056858e-06 2.4117658e-06 0.67014364)
(3.4573743e-06 2.9619197e-06 0.67014478)
(-4.1746425e-06 6.5150325e-06 0.67014483)
(-6.9017208e-06 7.390238e-06 0.67014369)
(-1.1037456e-06 6.5825138e-06 0.67014384)
(-6.3025153e-07 6.3016079e-06 0.67014388)
(-3.0058392e-08 6.1856896e-06 0.67014388)
(5.9111438e-07 6.1677726e-06 0.67014384)
(1.2962233e-06 6.2514303e-06 0.67014375)
(2.4117658e-06 6.5056858e-06 0.67014364)
(7.1735729e-06 7.1735729e-06 0.67014358)
(3.7354177e-06 9.2807152e-06 0.67014488)
(-3.3953834e-06 2.9695624e-06 0.6701459)
(-6.1611169e-06 3.7488215e-06 0.670145)
(-1.6622974e-06 3.4632989e-06 0.67014499)
(-8.0850328e-07 3.3764534e-06 0.67014499)
(-8.3017048e-08 3.3444643e-06 0.67014497)
(6.2739024e-07 3.3411476e-06 0.67014492)
(1.4705633e-06 3.3686483e-06 0.67014485)
(2.9619197e-06 3.4573743e-06 0.67014478)
(9.2807152e-06 3.7354177e-06 0.67014488)
(4.8621372e-06 4.8621372e-06 0.67014692)