/*--------------------------------*- C++ -*----------------------------------*\
| =========                 |                                                 |
| \\      /  F ield         | OpenFOAM: The Open Source CFD Toolbox           |
|  \\    /   O peration     | Version:  v2106                                 |
|   \\  /    A nd           | Website:  www.openfoam.com                      |
|    \\/     M anipulation  |                                                 |
\*---------------------------------------------------------------------------*/
FoamFile
{
    version     2.0;
    format      ascii;
    arch        "LSB;label=32;scalar=64";
    class       volScalarField;
    location    "65";
    object      gradTx;
}
// * * * * * * * * * * * * * * * * * * * * * * * * * * * * * * * * * * * * * //

dimensions      [0 -1 0 1 0 0 0];

internalField   nonuniform List<scalar> 
4000
(
-0.00042146807
-0.00065672913
-5.6786673e-05
-4.0830328e-05
4.160725e-06
4.6695644e-05
9.1928971e-05
0.00014273333
0.00018138542
6.4411216e-05
-0.00027151581
-0.00042915722
-5.0386092e-05
-3.5835237e-05
5.1234102e-06
4.489446e-05
8.803281e-05
0.0001426992
0.00021895658
8.7901187e-05
-0.00026975346
-0.00041921612
-3.9323481e-05
-3.0842388e-05
5.8630418e-06
4.224309e-05
8.1099664e-05
0.00012775925
0.00019034171
7.5604615e-05
-0.00026724877
-0.00041169403
-3.344363e-05
-2.8110745e-05
5.8803408e-06
3.9927591e-05
7.653629e-05
0.00012108878
0.00018293377
7.3214681e-05
-0.00026642339
-0.00040922818
-3.1598991e-05
-2.755117e-05
5.1703658e-06
3.8087489e-05
7.36979e-05
0.00011757405
0.00017969435
7.2297557e-05
-0.00026660697
-0.00040999171
-3.2686711e-05
-2.8803423e-05
3.877573e-06
3.6858479e-05
7.2604678e-05
0.00011669134
0.00017911948
7.2166586e-05
-0.00026762419
-0.00041368074
-3.6565857e-05
-3.1706773e-05
2.1012567e-06
3.6288205e-05
7.3234833e-05
0.0001183397
0.0001810874
7.2787306e-05
-0.00026920441
-0.00042082102
-4.4183223e-05
-3.6205185e-05
-5.4051177e-08
3.6395412e-05
7.5613087e-05
0.0001228402
0.00018641594
7.451715e-05
-0.00026764694
-0.00042865482
-5.8176275e-05
-4.1891967e-05
-2.2961936e-06
3.7053847e-05
7.93837e-05
0.00013028405
0.00019658997
7.8159782e-05
-0.00024415697
-0.00041186472
-8.0206041e-05
-4.6852554e-05
-3.8683339e-06
3.7788467e-05
8.2909546e-05
0.00013834277
0.00021090366
8.405961e-05
-0.0033089718
-0.005427789
-0.00076972991
-0.00038457366
4.4466559e-05
0.0004511945
0.00088852139
0.0013960953
0.0018545631
0.00067962415
-0.0022857106
-0.0038024677
-0.00064138008
-0.00033498318
5.3241683e-05
0.00043291995
0.00084830463
0.0013969946
0.0023801124
0.0010128327
-0.0022254243
-0.0036413408
-0.00053532064
-0.00028809607
5.9833985e-05
0.00040672678
0.00077990146
0.0012486416
0.0021272351
0.00091172126
-0.0022001441
-0.0035680584
-0.00047998123
-0.0002623757
5.9615298e-05
0.00038397417
0.00073513557
0.0011818013
0.002050785
0.00088666482
-0.002192364
-0.0035448632
-0.00046271317
-0.00025733675
5.2482332e-05
0.0003659623
0.00070751633
0.0011476204
0.0020191646
0.00087768092
-0.002194294
-0.003552691
-0.00047360762
-0.00026972735
3.9782984e-05
0.00035395125
0.00069689553
0.0011391248
0.0020137395
0.00087647451
-0.002204547
-0.0035893309
-0.00051165894
-0.00029810122
2.2459423e-05
0.00034841896
0.00070314755
0.0011554548
0.0020333522
0.00088269206
-0.0022211052
-0.003661311
-0.00058677668
-0.00034211247
1.5429391e-06
0.00034958248
0.00072666421
0.001200233
0.0020871272
0.00090033856
-0.0022039475
-0.0037367846
-0.00072685229
-0.00039912247
-2.0217082e-05
0.00035625335
0.00076425581
0.0012756996
0.0021943443
0.00093970914
-0.001870739
-0.003388639
-0.00091610405
-0.00045018299
-3.5502556e-05
0.00036377005
0.0008000519
0.0013612252
0.0023645814
0.00101383
-0.0050068492
-0.0083221478
-0.0013140953
-0.00062176772
0.00010767133
0.00080940239
0.0015899339
0.0026103321
0.0041157472
0.0016754429
-0.0034937922
-0.0058910124
-0.0010880554
-0.0005381491
0.00011965009
0.00076869095
0.0014868485
0.0024972616
0.0048961565
0.0022247469
-0.0033860923
-0.005609791
-0.00090876198
-0.00045993932
0.00012754647
0.00071725063
0.0013569342
0.002217314
0.0044507166
0.002054975
-0.003343099
-0.0054856791
-0.00081580974
-0.0004180627
0.00012374254
0.0006726676
0.0012714784
0.0020896819
0.0043066302
0.0020085234
-0.0033303466
-0.0054479626
-0.00078867556
-0.00041218293
0.00010830258
0.00063785391
0.0012193144
0.0020255726
0.0042476089
0.001991833
-0.0033351131
-0.005465804
-0.00081171728
-0.00043730658
8.3402692e-05
0.00061488096
0.001199521
0.0020103184
0.0042384507
0.0019899324
-0.0033574875
-0.0055401144
-0.00088469891
-0.00049157964
5.0515945e-05
0.00060463792
0.0012122004
0.0020432508
0.0042788126
0.002002936
-0.0034038368
-0.0056988036
-0.0010270874
-0.00057492645
1.1445309e-05
0.00060776697
0.0012592787
0.0021350598
0.0043948112
0.0020423973
-0.0034328679
-0.0059331325
-0.0012922785
-0.000683321
-2.884766e-05
0.00062231612
0.0013369418
0.0023009787
0.0046637338
0.0021489375
-0.0028835639
-0.0053638342
-0.0016166137
-0.0007780341
-5.6734216e-05
0.00063897062
0.0014156392
0.002519981
0.0052888253
0.002459125
-0.006273126
-0.010362112
-0.0015481708
-0.00071558662
0.00020266419
0.0011061295
0.0021338863
0.0035502304
0.0060518145
0.0025678959
-0.0043700501
-0.0073032329
-0.0012618393
-0.0006103034
0.00021292125
0.0010401064
0.0019632662
0.0033050222
0.0070448118
0.003314995
-0.0042338732
-0.0069467376
-0.0010337912
-0.0005127015
0.00021625578
0.00096003611
0.0017690595
0.0028906404
0.0064149848
0.0030829744
-0.0041791625
-0.0067888534
-0.00091650069
-0.00046286874
0.0002042175
0.00089097952
0.0016412933
0.0027011133
0.0062045074
0.0030162687
-0.0041636844
-0.0067438525
-0.00088635656
-0.00046108743
0.00017736644
0.00083758099
0.0015636941
0.002606806
0.0061184693
0.002992133
-0.0041723244
-0.0067752618
-0.00092520444
-0.00050175808
0.00013840416
0.00080259152
0.0015343534
0.0025849995
0.0061061386
0.002989756
-0.0042076998
-0.0068899459
-0.0010354835
-0.00058354255
8.897844e-05
0.00078724494
0.0015537842
0.0026357583
0.0061690395
0.0030101695
-0.0042860711
-0.0071400886
-0.0012471774
-0.00070712346
3.1464356e-05
0.00079268165
0.001626022
0.0027785219
0.0063536296
0.0030738936
-0.004371172
-0.0075495359
-0.0016393923
-0.00086737687
-2.713542e-05
0.00081619717
0.0017473067
0.0030453818
0.0068115442
0.0032605994
-0.0036240729
-0.0067769182
-0.0020874818
-0.0010036389
-6.690438e-05
0.00084325182
0.001873513
0.0034210266
0.0080591493
0.0039056303
-0.0072705882
-0.011823431
-0.0015098249
-0.00067427657
0.00032464666
0.001333948
0.0025125345
0.0042158952
0.0075973778
0.0033111438
-0.0050225678
-0.0082218189
-0.0011873086
-0.0005569146
0.00032879963
0.0012397776
0.0022703988
0.0038257487
0.0087459543
0.0042247998
-0.0048695137
-0.0078194883
-0.00092919084
-0.00045007592
0.00032211121
0.0011278059
0.002009412
0.0032745772
0.0079312242
0.003930978
-0.0048075569
-0.0076411848
-0.00079888435
-0.00039988226
0.00029714174
0.0010313506
0.0018373909
0.0030217421
0.00765399
0.0038441849
-0.0047912724
-0.0075952876
-0.00077215849
-0.00040719019
0.00025543131
0.00095708815
0.0017328776
0.0028963196
0.0075405914
0.0038126022
-0.0048047882
-0.0076437203
-0.00083054223
-0.00046656215
0.00020004161
0.00090841033
0.001692867
0.0028672809
0.0075247815
0.0038097045
-0.0048540527
-0.0078014297
-0.00098058552
-0.00057790796
0.00013249105
0.00088678151
0.0017182398
0.0029354001
0.0076099847
0.0038374714
-0.0049662121
-0.0081468427
-0.0012635501
-0.00074309655
5.5517748e-05
0.0008937725
0.0018151636
0.003128887
0.0078627452
0.0039252254
-0.0051141504
-0.0087427477
-0.0017845921
-0.00095616559
-2.1970162e-05
0.00092586203
0.001979846
0.0034963239
0.0085083105
0.0041913973
-0.0042004944
-0.0078129964
-0.0023555144
-0.0011337293
-7.3690751e-05
0.0009631658
0.0021531273
0.0040272128
0.010400514
0.0051866947
-0.0080497503
-0.012821736
-0.0012566227
-0.00052376006
0.00046135458
0.0014871774
0.0027257551
0.0046170772
0.0087636456
0.003907166
-0.0054934117
-0.008743845
-0.00091423305
-0.00040134153
0.0004560035
0.0013627686
0.002409423
0.0040721822
0.010008035
0.0049528978
-0.0053311561
-0.0083157162
-0.00063963595
-0.00029318823
0.00043480167
0.0012162503
0.0020799971
0.0033833147
0.0090066673
0.0045962904
-0.005265152
-0.0081268583
-0.0005051734
-0.00024893847
0.00039278519
0.0010897445
0.0018619681
0.0030659465
0.0086617592
0.0044891446
-0.0052495437
-0.0080851443
-0.00048723287
-0.00026974314
0.00033296671
0.00099229849
0.0017288741
0.002908205
0.0085202302
0.0044499377
-0.0052687194
-0.0081534112
-0.0005683917
-0.00035077341
0.0002587044
0.0009279368
0.0016765166
0.0028705126
0.0084998879
0.0044462489
-0.0053324829
-0.0083560715
-0.00076025706
-0.0004936949
0.00017115907
0.00089821235
0.0017059343
0.0029539518
0.0086054812
0.0044807969
-0.0054796075
-0.0087991692
-0.0011158466
-0.00070189648
7.3252916e-05
0.00090499707
0.0018251551
0.0031947416
0.0089220739
0.0045910341
-0.0056957462
-0.009589834
-0.0017664928
-0.00096880456
-2.427477e-05
0.00094395917
0.0020301632
0.0036565887
0.0097437956
0.0049317751
-0.0046500144
-0.0085561475
-0.0024621226
-0.0011883336
-8.8618376e-05
0.00099024812
0.0022473411
0.004333056
0.012257732
0.0062669919
-0.0086403509
-0.013434791
-0.00084048844
-0.00029247594
0.00059962164
0.0015638585
0.0027819119
0.00477381
0.0095792073
0.0043662165
-0.0058107301
-0.0089418957
-0.00049058553
-0.00017034261
0.00058222028
0.0014079081
0.0023901976
0.0040681435
0.010866049
0.0055119817
-0.0056450872
-0.0085031417
-0.00020986677
-6.7019557e-05
0.00054302269
0.0012249922
0.0019917224
0.0032425918
0.0096784325
0.0050921716
-0.0055774615
-0.008311274
-7.8150948e-05
-3.374208e-05
0.00048062613
0.0010663393
0.0017264656
0.0028601141
0.00926541
0.0049644808
-0.005563665
-0.0082776854
-7.3266237e-05
-7.1668204e-05
0.00039992309
0.00094364941
0.0015632622
0.0026689284
0.0090949725
0.0049174466
-0.0055890624
-0.008367873
-0.00017974509
-0.00017684168
0.0003045513
0.00086157247
0.0014966336
0.0026207623
0.0090686287
0.0049125699
-0.0056676319
-0.0086165516
-0.000414835
-0.00035301098
0.00019515622
0.00082160946
0.001527497
0.002716449
0.0091916322
0.0049530045
-0.0058502053
-0.0091580625
-0.00084347709
-0.00060530191
7.4719341e-05
0.0008258073
0.0016653635
0.0029991344
0.0095654697
0.0050834601
-0.0061380763
-0.01014777
-0.0016228644
-0.00092667441
-4.4195598e-05
0.0008691301
0.0019058692
0.0035460785
0.010547479
0.0054922731
-0.0049923111
-0.0090588373
-0.0024441158
-0.0011887618
-0.00012206197
0.00092246699
0.0021622046
0.0043549813
0.013645655
0.0071489109
-0.0090654095
-0.013724306
-0.00030542602
-6.1085713e-06
0.00072833432
0.0015655916
0.002695014
0.0047129301
0.010080146
0.0047012317
-0.0059970102
-0.0088752416
4.2006755e-05
0.00011152418
0.00069703109
0.0013775366
0.0022281788
0.0038441746
0.01136405
0.005918505
-0.0058326996
-0.0084381128
0.00032058275
0.00020519803
0.00063726029
0.0011572048
0.001761191
0.0028850212
0.0099936004
0.0054361825
-0.0057653883
-0.0082492328
0.00044409968
0.00022356702
0.00055195235
0.00096498929
0.001448216
0.0024377765
0.0095129873
0.0052880486
-0.0057542778
-0.0082268062
0.00043262558
0.00016569072
0.00044817803
0.00081543906
0.0012537501
0.0022123784
0.009313156
0.0052330607
-0.0057862572
-0.0083403069
0.00029902094
3.4484759e-05
0.0003298522
0.00071381647
0.0011709735
0.0021518643
0.0092792501
0.0052265683
-0.0058796478
-0.008635193
2.0078252e-05
-0.00017607504
0.00019700522
0.00066145223
0.0012004112
0.0022562662
0.0094162092
0.0052718545
-0.0060974806
-0.0092741298
-0.00048094188
-0.00047295622
5.2609729e-05
0.00066047755
0.0013526878
0.0025745211
0.0098397192
0.0054199609
-0.0064588181
-0.010463102
-0.0013863198
-0.00084871784
-8.8907004e-05
0.0007053401
0.0016230679
0.0031959011
0.010964411
0.0058897359
-0.0052415448
-0.0093606757
-0.0023320045
-0.0011534006
-0.00018112751
0.00076353074
0.0019131569
0.0041227232
0.014603319
0.0078458992
-0.0093447004
-0.013742632
0.00031156587
0.00031371933
0.00083928899
0.0014968524
0.0024821846
0.0044640923
0.010304497
0.0049256358
-0.0060715229
-0.0085942578
0.00064829666
0.00042347728
0.00079281181
0.0012768067
0.0019418263
0.0034333118
0.01154774
0.0061893682
-0.0059124508
-0.0081688678
0.00091799105
0.00050371962
0.00071068519
0.0010188456
0.0014079937
0.0023456228
0.010000857
0.0056463534
-0.0058470357
-0.0079878326
0.0010289825
0.00050417027
0.00060069725
0.00079236951
0.0010476167
0.0018349629
0.0094542683
0.0054782275
-0.0058392789
-0.0079788675
0.00099868406
0.00042426888
0.00047229464
0.00061488745
0.00082125295
0.0015751042
0.0092250057
0.005415284
-0.0058780205
-0.0081164364
0.00083686795
0.00026577973
0.00032966826
0.00049225421
0.00072071679
0.0015005631
0.0091821086
0.0054067802
-0.005985976
-0.0084568743
0.00051424683
2.031072e-05
0.00017217934
0.00042554207
0.00074591381
0.0016100984
0.0093294876
0.0054558578
-0.0062382593
-0.0091906273
-5.7341625e-05
-0.00032096099
2.7683427e-06
0.00041691507
0.00090826122
0.0019573566
0.0097948486
0.0056189762
-0.006673163
-0.010575344
-0.0010841021
-0.0007502079
-0.00016222043
0.00046053622
0.0012027073
0.0026421581
0.011044137
0.0061424234
-0.0054094306
-0.0094942673
-0.0021508132
-0.0010968121
-0.00026939136
0.000521397
0.0015210012
0.0036720064
0.01517715
0.0083743179
-0.0094958377
-0.013535334
0.00097941344
0.00064938049
0.000927075
0.0013641784
0.0021619347
0.0040573382
0.010289621
0.0050524832
-0.0060512221
-0.0081424861
0.0012986759
0.00074858018
0.00086465018
0.0011128616
0.0015508392
0.0028685756
0.011461463
0.0063408423
-0.0059006055
-0.0077371715
0.0015539896
0.00081247224
0.00075908803
0.00081780251
0.00095287294
0.0016591924
0.0097471989
0.0057399637
-0.0058383805
-0.00756791
0.0016490622
0.00079280061
0.00062336023
0.00055707146
0.00054621249
0.0010874521
0.0091372975
0.0055526316
-0.0058344724
-0.0075740797
0.00159821
0.00068949961
0.00046940116
0.00035117079
0.00028789714
0.00079347206
0.0088790677
0.0054818698
-0.005879997
-0.0077358969
0.0014077722
0.00050311374
0.00030167415
0.00020652229
0.00016838728
0.0007035686
0.0088260074
0.0054710252
-0.0060020169
-0.0081204556
0.0010424199
0.00022286789
0.00011885199
0.00012388056
0.00018679594
0.00081485644
0.0089804163
0.005522873
-0.006287394
-0.0089449587
0.00040314547
-0.00016186207
-7.6151064e-05
0.00010542109
0.00035506443
0.0011846963
0.0094799444
0.0056984104
-0.0067945253
-0.010518601
-0.00073870359
-0.00064285249
-0.00026503152
0.00014526493
0.00066792368
0.0019220624
0.010835876
0.0062682687
-0.0055061662
-0.0094873808
-0.0019210196
-0.0010299933
-0.00038744117
0.00020676969
0.0010090014
0.0030401559
0.015414553
0.0087508619
-0.0095347209
-0.013142474
0.0016720614
0.00098676399
0.00098861586
0.0011754248
0.0017530424
0.0035217629
0.010071027
0.0050941249
-0.0059511734
-0.0075578128
0.0019683877
0.0010733216
0.00090990593
0.00089408763
0.0010750238
0.0021816318
0.011146992
0.0063882141
-0.0058116133
-0.0071793399
0.0022048966
0.0011186964
0.00078045404
0.00056313196
0.00041655745
0.00085891936
0.0092766581
0.0057331589
-0.0057536226
-0.0070249776
0.0022814681
0.0010774147
0.00061857715
0.00026881186
-3.4518201e-05
0.00022933097
0.0086070424
0.0055277037
-0.0057539082
-0.0070474075
0.0022089897
0.00094998491
0.00043873751
3.4588587e-05
-0.00032424958
-9.7840921e-05
0.0083208053
0.005449397
-0.0058060959
-0.0072331394
0.0019901393
0.00073569818
0.0002456636
-0.00013257942
-0.00046348655
-0.00020402741
0.0082567243
0.0054359633
-0.0059414663
-0.0076597004
0.0015837139
0.00042144155
3.7346221e-05
-0.00023229083
-0.00045403095
-9.4029715e-05
0.0084150383
0.0054896316
-0.0062581083
-0.0085696243
0.00088059731
-5.1088654e-06
-0.00018330476
-0.00026236079
-0.00028364003
0.00029232021
0.0089413867
0.0056751004
-0.0068348871
-0.010322544
-0.00036858691
-0.00053531874
-0.00039601217
-0.00022847962
4.2316677e-05
0.0010718135
0.010386461
0.0062842511
-0.005540798
-0.0093639929
-0.0016593523
-0.00096096165
-0.00053362288
-0.00016812771
0.00040102238
0.0022637428
0.015361344
0.0089916889
-0.0094757833
-0.012599421
0.0023677254
0.0013147227
0.0010226559
0.00093916412
0.0012738478
0.0028848213
0.0096818676
0.0050620897
-0.0057848204
-0.0068732828
0.0026368221
0.0013870884
0.00092770724
0.00062951638
0.00053359253
0.0014021219
0.010643078
0.0063456834
-0.0056583578
-0.0065269985
0.002851063
0.0014124474
0.0007744678
0.0002644556
-0.00018094936
-2.4285044e-05
0.008629856
0.0056408543
-0.0056054226
-0.0063899451
0.0029072736
0.0013487102
0.00058662322
-6.2186483e-05
-0.0006738983
-0.00070770324
0.0079049287
0.0054186119
-0.005610114
-0.0064292739
0.0028126849
0.0011970116
0.00038114296
-0.00032408244
-0.00099394845
-0.0010665814
0.0075921029
0.0053331583
-0.0056687217
-0.0066381332
0.0025661895
0.0009553854
0.00016300954
-0.00051377286
-0.0011531901
-0.0011895372
0.0075164739
0.0053169722
-0.0058165458
-0.0071039824
0.002120982
0.00060847355
-7.0443414e-05
-0.00063122677
-0.0011544178
-0.0010834699
0.0076758904
0.0053715987
-0.0061622252
-0.0080929304
0.0013586987
0.00014238631
-0.00031628227
-0.0006742422
-0.0009852731
-0.00068622751
0.0082221512
0.005564647
-0.0068050121
-0.010013089
1.1156925e-05
-0.00043382285
-0.00055227741
-0.00064811524
-0.00065110808
0.00012551253
0.0097395087
0.0062061841
-0.0055214185
-0.0091449419
-0.0013794503
-0.00089536681
-0.00070473703
-0.00059045469
-0.00027959585
0.0013773907
0.015060707
0.0091121124
-0.009332166
-0.01193746
0.0030482681
0.0016245617
0.0010293014
0.00066423635
0.00074182458
0.0021719929
0.0091527711
0.0049670572
-0.0055641821
-0.0061177322
0.0032869106
0.0016816646
0.00091849738
0.00032837837
-5.525545e-05
0.00055736029
0.0099853314
0.0062263598
-0.0054523471
-0.0058076921
0.0034762876
0.0016861078
0.00074206462
-6.8485762e-05
-0.00082078656
-0.0009620758
0.0078439227
0.0054767423
-0.0054050872
-0.0056897127
0.0035109257
0.0015996462
0.00052896308
-0.00042564826
-0.0013524794
-0.0016946378
0.007068757
0.0052392588
-0.0054142785
-0.005746146
0.0033942692
0.0014240703
0.00029859698
-0.00071405823
-0.0017012372
-0.0020832348
0.0067311693
0.0051471661
-0.0054789565
-0.0059769495
0.0031213914
0.0011561786
5.6187441e-05
-0.00092579638
-0.0018803001
-0.0022230225
0.0066437866
0.005128147
-0.0056381839
-0.0064788681
0.0026402425
0.00077849784
-0.00020155113
-0.0010612056
-0.0018934959
-0.0021231023
0.0068018458
0.0051829625
-0.0060103432
-0.0075395606
0.0018241674
0.00027572796
-0.00047163321
-0.0011180551
-0.0017285064
-0.0017200833
0.0073616008
0.0053813899
-0.0067146056
-0.0096129368
0.00038824451
-0.00034266114
-0.00072993592
-0.0011010731
-0.0013905566
-0.00088534838
0.0089351379
0.0060486673
-0.005455303
-0.0088484091
-0.001092407
-0.0008370254
-0.00089660366
-0.0010473785
-0.0010106921
0.00041320887
0.014552804
0.0091265008
-0.0091158553
-0.011184284
0.0036986789
0.0019096009
0.0010096446
0.00035942679
0.00017332888
0.0014066452
0.0085118259
0.0048188713
-0.0053000119
-0.0053163059
0.0039046127
0.0019508001
0.00088366255
-2.1460721e-07
-0.0006745725
-0.00032776855
0.0092062719
0.0060422972
-0.0052038695
-0.0050453918
0.0040673142
0.0019339625
0.00068506198
-0.0004261471
-0.001485467
-0.001928757
0.0069525746
0.0052533419
-0.0051627226
-0.0049476705
0.0040797501
0.0018250212
0.00044788226
-0.00081156303
-0.002052275
-0.0027052247
0.0061327891
0.005002333
-0.0051764035
-0.0050210302
0.0039415354
0.0016264333
0.00019384554
-0.0011248733
-0.002427673
-0.0031211137
0.0057726179
0.004904203
-0.0052467107
-0.0052722531
0.0036439698
0.0013338048
-7.1608162e-05
-0.0013577453
-0.0026259451
-0.0032774007
0.0056735761
0.0048823473
-0.0054161644
-0.0058066041
0.003130187
0.00092770708
-0.0003523367
-0.0015108889
-0.0026519611
-0.0031854241
0.0058281623
0.0049366766
-0.0058119782
-0.006931049
0.0022662673
0.00039159883
-0.00064527818
-0.0015820334
-0.0024935748
-0.0027812271
0.0063955054
0.005138442
-0.0065724402
-0.0091420063
0.00075273079
-0.0002646496
-0.00092451261
-0.0015751994
-0.0021557876
-0.0019320855
0.0080099486
0.0058251065
-0.0053490143
-0.0084903003
-0.00080721546
-0.00078835793
-0.0011044912
-0.001526489
-0.0017716456
-0.00059944082
0.013874675
0.0090482595
-0.0088377951
-0.010364398
0.0043066372
0.0021648128
0.00096546969
3.3242739e-05
-0.0004165358
0.00061000908
0.0077846475
0.0046265728
-0.00500193
-0.0044908909
0.0044784865
0.0021898515
0.00082524058
-0.00034748791
-0.0013087859
-0.0012308041
0.0083354404
0.0058045453
-0.0049221238
-0.0042609216
0.0046134078
0.002151844
0.00060587122
-0.00079939337
-0.0021589914
-0.0029012548
0.005986265
0.0049820617
-0.0048873638
-0.0041841204
0.0046035308
0.0020211219
0.00034619992
-0.0012103987
-0.0027568718
-0.0037159474
0.0051279072
0.0047193766
-0.0049054314
-0.0042738904
0.0044446782
0.0018008035
7.0112071e-05
-0.0015465979
-0.0031564477
-0.0041563268
0.0047476264
0.0046158891
-0.0049808499
-0.0045437188
0.0041244901
0.0014853628
-0.00021675742
-0.0017992962
-0.0033729295
-0.0043284214
0.0046372931
0.0045912634
-0.0051592518
-0.0051065265
0.0035817674
0.0010535989
-0.00051878548
-0.0019695571
-0.0034122117
-0.004245783
0.0047866243
0.004644523
-0.0055756833
-0.0062861744
0.0026764042
0.00048790642
-0.00083281513
-0.0020550602
-0.0032624305
-0.0038444924
0.0053561664
0.0048477471
-0.0063864606
-0.0086177903
0.0010966241
-0.00020147317
-0.0011312594
-0.0020590132
-0.0029282827
-0.0029888548
0.0069971206
0.0055477621
-0.005208488
-0.0080845569
-0.00053112899
-0.00075073219
-0.0013234293
-0.0020160623
-0.0025435571
-0.0016339961
0.013060274
0.0088898493
-0.0085079828
-0.0094994618
0.0048621494
0.002386529
0.00089902766
-0.00030623595
-0.0010139798
-0.00019878398
0.0069944813
0.0043984381
-0.0046785363
-0.0036604822
0.0049993285
0.0023954919
0.00074569867
-0.00070514855
-0.0019437473
-0.0021316444
0.0073995491
0.0055232052
-0.0046153298
-0.0034723187
0.0051059987
0.0023368449
0.00050727854
-0.0011796391
-0.0028268875
-0.0038590315
0.0049723614
0.0046732673
-0.0045870836
-0.0034166329
0.0050741586
0.0021854382
0.00022705204
-0.0016132386
-0.0034514647
-0.0047059262
0.0040818027
0.0044008552
-0.0046093545
-0.0035220028
0.0048959451
0.0019450308
-6.9119108e-05
-0.0019699752
-0.003872423
-0.0051676837
0.0036841279
0.0042927533
-0.0046893029
-0.003808382
0.004555512
0.0016090406
-0.000375433
-0.002240848
-0.0041057729
-0.0053545757
0.0035631133
0.0042654868
-0.0048752963
-0.004395406
0.003987855
0.0011546947
-0.00069672849
-0.0024272541
-0.0041583937
-0.0052822927
0.0037057248
0.0043171809
-0.0053091479
-0.0056212898
0.0030477946
0.00056350513
-0.0010297412
-0.0025268187
-0.004018797
-0.0048874921
0.0042725896
0.0045201464
-0.0061638699
-0.0080556535
0.0014135732
-0.00015395748
-0.0013453779
-0.0025418631
-0.0036913101
-0.0040325916
0.005926567
0.0052278087
-0.0050391027
-0.0076434097
-0.00026995177
-0.00072472844
-0.0015484307
-0.0025052217
-0.0033093207
-0.0026666499
0.012140577
0.0086628197
-0.0081355504
-0.0086085852
0.0053572445
0.0025722033
0.0008128669
-0.00065145232
-0.0016065399
-0.0010026295
0.0061623223
0.0041420213
-0.0043375062
-0.0028414937
0.0054598748
0.002565476
0.00064776652
-0.0010654761
-0.0025667348
-0.0030124481
0.0064226395
0.0052074857
-0.0042908227
-0.0026951396
0.0055383877
0.0024870868
0.00039228165
-0.0015589342
-0.0034762034
-0.0047839699
0.0039353318
0.0043363471
-0.004269086
-0.0026603505
0.0054853386
0.0023164348
9.3730776e-05
-0.0020118635
-0.0041228436
-0.0056567939
0.0030191725
0.0040562282
-0.0042953076
-0.0027802561
0.0052893465
0.0020578864
-0.00022026162
-0.0023865017
-0.0045621146
-0.0061365666
0.0026070099
0.0039443045
-0.004379153
-0.0030809357
0.0049313028
0.0017038915
-0.00054375818
-0.0026736017
-0.0048106949
-0.0063369685
0.0024761367
0.0039145809
-0.0045713234
-0.003687738
0.0043429591
0.0012303189
-0.00088199983
-0.0028748705
-0.0048763899
-0.0062757098
0.0026108617
0.0039642969
-0.0050192829
-0.0049505992
0.003375194
0.00061798026
-0.0012316095
-0.002987877
-0.0047481632
-0.005890502
0.0031706739
0.0041654459
-0.0059112025
-0.0074690784
0.0016986133
-0.00012227772
-0.0015621744
-0.0030140138
-0.0044299234
-0.0050429036
0.0048251105
0.0048753972
-0.0048457381
-0.0071775896
-2.8272953e-05
-0.00071034165
-0.0017746453
-0.0029840251
-0.004053626
-0.0036762533
0.011143716
0.0083778498
-0.007728834
-0.0077085734
0.0057857194
0.0027202216
0.00070970746
-0.00099542854
-0.0021830612
-0.0017863586
0.00530704
0.0038641958
-0.0039856738
-0.0020480237
0.0058545495
0.0026984527
0.00053431321
-0.0014213744
-0.0031664247
-0.0038575211
0.0054262429
0.0048657578
-0.0039551341
-0.0019427205
0.0059054985
0.002601536
0.00026396997
-0.0019300106
-0.0040954695
-0.0056602425
0.0028969291
0.0039797763
-0.0039397871
-0.0019282445
0.0058323463
0.0024133695
-5.0432021e-05
-0.0023987942
-0.0047593505
-0.0065525567
0.001961913
0.0036940147
-0.0039696468
-0.0020614062
0.0056204154
0.0021388841
-0.00037974098
-0.0027884675
-0.0052136465
-0.0070467876
0.0015383129
0.0035790986
-0.0040567166
-0.002373982
0.005247601
0.0017696586
-0.00071791856
-0.0030895999
-0.0054755685
-0.0072591749
0.0013985862
0.003547149
-0.0042536107
-0.0029959882
0.0046429956
0.0012804271
-0.0010705467
-0.0033041812
-0.0055537732
-0.0072092916
0.0015245345
0.0035945521
-0.0047122923
-0.0042863903
0.0036546752
0.00065148157
-0.0014341366
-0.0034297265
-0.0054377386
-0.0068363224
0.0020734043
0.0037924824
-0.0056343857
-0.0068698721
0.00194796
-0.00010611807
-0.0017771649
-0.0034666852
-0.0051309207
-0.0060019376
0.0037166653
0.0044997161
-0.0046328237
-0.0066965012
0.0001903453
-0.00070713461
-0.0019974634
-0.0034435049
-0.0047629205
-0.0046441917
0.010095126
0.0080447899
-0.0072954348
-0.0068141416
0.0061429251
0.0028297494
0.00059234904
-0.001331794
-0.0027336577
-0.0025366366
0.0044455044
0.0035711943
-0.0036291038
-0.0012920834
0.0061792556
0.0027938148
0.00040825758
-0.0017663957
-0.0037328439
-0.0046531947
0.0044295373
0.0045056066
-0.0036140626
-0.0012264011
0.0062036719
0.0026798557
0.00012543845
-0.0022863009
-0.004674643
-0.0064741746
0.0018763692
0.0036111758
-0.0036048835
-0.0012313365
0.0061118245
0.0024761499
-0.00020214751
-0.0027673063
-0.0053508171
-0.0073794492
0.00092930709
0.003321856
-0.0036380191
-0.0013762949
0.0058860071
0.0021881393
-0.00054407411
-0.0031689675
-0.0058166849
-0.0078844402
0.00049742063
0.0032048022
-0.0037276111
-0.0016982471
0.0055014194
0.0018066373
-0.00089423899
-0.0034817355
-0.006089852
-0.0081070898
0.00034999959
0.0031708976
-0.0039277536
-0.0023308019
0.0048850965
0.0013054728
-0.0012585033
-0.0037078536
-0.0061797386
-0.0080686458
0.00046653571
0.0032157256
-0.0043937352
-0.0036392324
0.0038834462
0.00066459545
-0.0016332739
-0.0038447892
-0.0060763865
-0.0077101297
0.0010010404
0.0034091861
-0.0053387923
-0.0062683399
0.002158842
-0.00010479276
-0.0019861439
-0.0038920591
-0.0057827785
-0.0068942362
0.0026224175
0.0041090511
-0.00440438
-0.0062083676
0.00038321601
-0.00071435317
-0.0022125814
-0.0038756741
-0.0054253457
-0.0055542479
0.0090176951
0.0076727046
-0.0068422715
-0.0059381004
0.0064255852
0.0029006091
0.00046360499
-0.0016547923
-0.0032496603
-0.0032418575
0.0035927082
0.003268648
-0.0032731546
-0.0005837947
0.0064311975
0.0028515787
0.00027250465
-0.002094744
-0.0042573093
-0.0053877016
0.0034494974
0.0041338799
-0.0032727343
-0.00055571721
0.006430492
0.0027222895
-2.027252e-05
-0.0026219379
-0.0052050395
-0.0072141074
0.00089050132
0.0032373686
-0.0032694131
-0.00057888788
0.0063216134
0.0025052186
-0.00035822654
-0.0031114245
-0.0058884915
-0.0081257899
-6.1798014e-05
0.0029465742
-0.0033054213
-0.00073403682
0.0060841319
0.0022062586
-0.00070992289
-0.0035218921
-0.0063623605
-0.0086377493
-0.00049875802
0.0028282521
-0.0033968133
-0.0010627654
0.0056908822
0.0018155683
-0.0010692339
-0.0038437401
-0.0066445094
-0.0088687765
-0.00065258719
0.0027926969
-0.0035987224
-0.0017011825
0.0050674514
0.0013063044
-0.0014422384
-0.0040794334
-0.0067450224
-0.0088415786
-0.00054586588
0.0028347541
-0.0040685794
-0.0030181445
0.0040597
0.00065824719
-0.0018252518
-0.0042264019
-0.0066545422
-0.0084993257
-2.8702419e-05
0.0030226397
-0.0050292851
-0.0056734324
0.0023293631
-0.00011733745
-0.0021852251
-0.0042832627
-0.0063755715
-0.00770659
0.0015610001
0.003710841
-0.0041640532
-0.0057203514
0.00054840457
-0.00073101217
-0.002416041
-0.0042735098
-0.0060306574
-0.0063924597
0.0079319106
0.0072699133
-0.0063756267
-0.0050915166
0.0066316423
0.002933182
0.00032625712
-0.0019592734
-0.0037235553
-0.0038920364
0.0027618857
0.0029616227
-0.0029225338
6.8437711e-05
0.0066087308
0.0028722889
0.00012990255
-0.0024012631
-0.0047323595
-0.0060510523
0.0025010397
0.0037567344
-0.0029356571
6.1431825e-05
0.0065846402
0.0027295683
-0.00017021714
-0.0029317379
-0.0056792574
-0.007870261
-4.6031042e-05
0.0028644318
-0.0029378081
2.1435545e-05
0.0064606067
0.0025014642
-0.00051561621
-0.0034259026
-0.0063649568
-0.0087818377
-0.00099682186
0.0025742268
-0.0029762525
-0.00014218189
0.0062138155
0.002194253
-0.00087412731
-0.0038419043
-0.0068431843
-0.0092969248
-0.0014356168
0.0024555108
-0.0030687112
-0.0004750387
0.0058150879
0.0017975541
-0.0012396375
-0.0041701576
-0.0071319229
-0.0095343174
-0.0015944662
0.0024186362
-0.0032709123
-0.0011146464
0.0051891759
0.0012840865
-0.0016183823
-0.0044133166
-0.0072418128
-0.009517945
-0.0014977508
0.0024577886
-0.0037412473
-0.0024307408
0.0041824906
0.0006336271
-0.0020066036
-0.0045687861
-0.007164124
-0.0091933883
-0.0010004799
0.0026391336
-0.0047102563
-0.0050928711
0.0024583905
-0.00014257719
-0.002370862
-0.0046343368
-0.0069008837
-0.0084278903
0.00054866088
0.0033117311
-0.0039151446
-0.0052386575
0.00068462906
-0.00075595862
-0.0026042479
-0.0046309202
-0.0065701377
-0.0071469766
0.0068560058
0.0068440302
-0.005901188
-0.0042838548
0.0067601268
0.0029283303
0.00018302675
-0.0022406734
-0.0041489172
-0.0044787022
0.0019646275
0.0026546545
-0.0025813473
0.0006577756
0.0067112358
0.0028569414
-1.6784318e-05
-0.0026814137
-0.0051516803
-0.0066349125
0.001597159
0.003379679
-0.0026067678
0.00061863674
0.006665771
0.0027028371
-0.00032156787
-0.0032111733
-0.0060910977
-0.0084346019
-0.00092063636
0.0024977459
-0.0026139413