/*--------------------------------*- C++ -*----------------------------------*\
| =========                 |                                                 |
| \\      /  F ield         | OpenFOAM: The Open Source CFD Toolbox           |
|  \\    /   O peration     | Version:  v2106                                 |
|   \\  /    A nd           | Website:  www.openfoam.com                      |
|    \\/     M anipulation  |                                                 |
\*---------------------------------------------------------------------------*/
FoamFile
{
    version     2.0;
    format      ascii;
    arch        "LSB;label=32;scalar=64";
    class       volVectorField;
    location    "65";
    object      gradT;
}
// * * * * * * * * * * * * * * * * * * * * * * * * * * * * * * * * * * * * * //

dimensions      [0 -1 0 1 0 0 0];

internalField   nonuniform List<vector> 
4000
(
(-0.00042146807 -0.00042146807 580.85992)
(-0.00065672913 -0.00027151581 580.85535)
(-5.6786673e-05 -0.00026975346 580.85499)
(-4.0830328e-05 -0.00026724876 580.85472)
(4.160725e-06 -0.0002664234 580.85465)
(4.6695644e-05 -0.00026660697 580.85476)
(9.1928971e-05 -0.00026762419 580.85505)
(0.00014273333 -0.00026920441 580.85554)
(0.00018138542 -0.00026764694 580.85626)
(6.4411216e-05 -0.00024415697 580.85714)
(-0.00027151581 -0.00065672913 580.85535)
(-0.00042915722 -0.00042915722 580.85225)
(-5.0386092e-05 -0.00041921612 580.85196)
(-3.5835237e-05 -0.00041169403 580.85172)
(5.1234102e-06 -0.00040922818 580.85166)
(4.489446e-05 -0.00040999171 580.85177)
(8.803281e-05 -0.00041368073 580.85204)
(0.0001426992 -0.00042082102 580.85251)
(0.00021895658 -0.00042865482 580.85326)
(8.7901187e-05 -0.00041186472 580.85453)
(-0.00026975346 -5.6786666e-05 580.85499)
(-0.00041921612 -5.03861e-05 580.85196)
(-3.9323481e-05 -3.9323482e-05 580.85173)
(-3.0842388e-05 -3.3443638e-05 580.85152)
(5.8630418e-06 -3.159899e-05 580.85147)
(4.224309e-05 -3.2686707e-05 580.85157)
(8.1099664e-05 -3.6565859e-05 580.85183)
(0.00012775925 -4.4183227e-05 580.85226)
(0.00019034171 -5.8176281e-05 580.85292)
(7.5604615e-05 -8.0206038e-05 580.85405)
(-0.00026724877 -4.0830329e-05 580.85472)
(-0.00041169403 -3.5835232e-05 580.85172)
(-3.344363e-05 -3.084239e-05 580.85152)
(-2.8110745e-05 -2.8110743e-05 580.85134)
(5.8803408e-06 -2.7551172e-05 580.85129)
(3.9927591e-05 -2.8803419e-05 580.85139)
(7.653629e-05 -3.1706773e-05 580.85163)
(0.00012108878 -3.6205183e-05 580.85203)
(0.00018293377 -4.1891965e-05 580.85266)
(7.3214681e-05 -4.6852553e-05 580.85376)
(-0.00026642339 4.1607202e-06 580.85465)
(-0.00040922818 5.1234167e-06 580.85166)
(-3.1598991e-05 5.8630442e-06 580.85147)
(-2.755117e-05 5.880336e-06 580.85129)
(5.1703658e-06 5.1703657e-06 580.85125)
(3.8087489e-05 3.8775681e-06 580.85134)
(7.36979e-05 2.1012539e-06 580.85157)
(0.00011757405 -5.404466e-08 580.85196)
(0.00017969435 -2.2961871e-06 580.85257)
(7.2297557e-05 -3.8683303e-06 580.85366)
(-0.00026660697 4.6695651e-05 580.85476)
(-0.00040999171 4.4894456e-05 580.85177)
(-3.2686711e-05 4.2243092e-05 580.85157)
(-2.8803423e-05 3.992759e-05 580.85139)
(3.877573e-06 3.8087489e-05 580.85134)
(3.6858479e-05 3.6858481e-05 580.85142)
(7.2604678e-05 3.6288205e-05 580.85165)
(0.00011669134 3.6395414e-05 580.85203)
(0.00017911948 3.7053848e-05 580.85264)
(7.2166586e-05 3.7788472e-05 580.85373)
(-0.00026762419 9.1928971e-05 580.85505)
(-0.00041368074 8.8032811e-05 580.85204)
(-3.6565857e-05 8.1099662e-05 580.85183)
(-3.1706773e-05 7.6536298e-05 580.85163)
(2.1012567e-06 7.3697901e-05 580.85157)
(3.6288205e-05 7.2604674e-05 580.85165)
(7.3234833e-05 7.3234835e-05 580.85187)
(0.0001183397 7.5613083e-05 580.85226)
(0.0001810874 7.9383696e-05 580.85288)
(7.2787306e-05 8.2909542e-05 580.85398)
(-0.00026920441 0.00014273333 580.85554)
(-0.00042082102 0.0001426992 580.85251)
(-4.4183223e-05 0.00012775925 580.85226)
(-3.6205185e-05 0.00012108878 580.85203)
(-5.4051177e-08 0.00011757405 580.85196)
(3.6395412e-05 0.00011669133 580.85203)
(7.5613087e-05 0.00011833969 580.85226)
(0.0001228402 0.0001228402 580.85267)
(0.00018641594 0.00013028405 580.85331)
(7.451715e-05 0.00013834277 580.85443)
(-0.00026764694 0.00018138542 580.85626)
(-0.00042865482 0.00021895658 580.85326)
(-5.8176275e-05 0.00019034172 580.85292)
(-4.1891967e-05 0.00018293376 580.85266)
(-2.2961936e-06 0.00017969435 580.85257)
(3.7053847e-05 0.00017911948 580.85264)
(7.93837e-05 0.0001810874 580.85288)
(0.00013028405 0.00018641594 580.85331)
(0.00019658997 0.00019658997 580.85399)
(7.8159782e-05 0.00021090366 580.85516)
(-0.00024415697 6.4411217e-05 580.85714)
(-0.00041186472 8.7901191e-05 580.85453)
(-8.0206041e-05 7.5604617e-05 580.85405)
(-4.6852554e-05 7.3214679e-05 580.85376)
(-3.8683339e-06 7.2297559e-05 580.85366)
(3.7788467e-05 7.2166586e-05 580.85373)
(8.2909546e-05 7.2787306e-05 580.85398)
(0.00013834277 7.451715e-05 580.85443)
(0.00021090366 7.8159781e-05 580.85516)
(8.405961e-05 8.4059609e-05 580.85643)
(-0.0033089718 -0.0033089718 1178.3972)
(-0.005427789 -0.0022857106 1178.3904)
(-0.00076972991 -0.0022254243 1178.3896)
(-0.00038457366 -0.0022001441 1178.3891)
(4.4466559e-05 -0.002192364 1178.389)
(0.0004511945 -0.002194294 1178.3892)
(0.00088852139 -0.002204547 1178.3898)
(0.0013960953 -0.0022211052 1178.3907)
(0.0018545631 -0.0022039475 1178.3922)
(0.00067962415 -0.001870739 1178.3946)
(-0.0022857106 -0.005427789 1178.3904)
(-0.0038024677 -0.0038024677 1178.3855)
(-0.00064138008 -0.0036413408 1178.3849)
(-0.00033498318 -0.0035680584 1178.3845)
(5.3241683e-05 -0.0035448632 1178.3844)
(0.00043291995 -0.003552691 1178.3846)
(0.00084830463 -0.0035893309 1178.3851)
(0.0013969946 -0.003661311 1178.386)
(0.0023801124 -0.0037367846 1178.3875)
(0.0010128327 -0.003388639 1178.3907)
(-0.0022254243 -0.00076972991 1178.3896)
(-0.0036413408 -0.00064138008 1178.3849)
(-0.00053532064 -0.00053532065 1178.3844)
(-0.00028809607 -0.00047998123 1178.384)
(5.9833985e-05 -0.00046271317 1178.384)
(0.00040672678 -0.00047360762 1178.3842)
(0.00077990146 -0.00051165895 1178.3846)
(0.0012486416 -0.00058677668 1178.3854)
(0.0021272351 -0.00072685229 1178.3867)
(0.00091172126 -0.00091610406 1178.3897)
(-0.0022001441 -0.00038457366 1178.3891)
(-0.0035680584 -0.00033498317 1178.3845)
(-0.00047998123 -0.00028809606 1178.384)
(-0.0002623757 -0.0002623757 1178.3837)
(5.9615298e-05 -0.00025733675 1178.3836)
(0.00038397417 -0.00026972735 1178.3838)
(0.00073513557 -0.00029810123 1178.3843)
(0.0011818013 -0.00034211248 1178.385)
(0.002050785 -0.00039912247 1178.3862)
(0.00088666482 -0.00045018299 1178.3891)
(-0.002192364 4.4466565e-05 1178.389)
(-0.0035448632 5.3241688e-05 1178.3844)
(-0.00046271317 5.9833985e-05 1178.384)
(-0.00025733675 5.9615294e-05 1178.3836)
(5.2482332e-05 5.2482334e-05 1178.3836)
(0.0003659623 3.978298e-05 1178.3837)
(0.00070751633 2.2459419e-05 1178.3842)
(0.0011476204 1.5429371e-06 1178.3849)
(0.0020191646 -2.0217084e-05 1178.3861)
(0.00087768092 -3.5502549e-05 1178.389)
(-0.002194294 0.0004511945 1178.3892)
(-0.003552691 0.00043291995 1178.3846)
(-0.00047360762 0.00040672678 1178.3842)
(-0.00026972735 0.00038397417 1178.3838)
(3.9782984e-05 0.00036596231 1178.3837)
(0.00035395125 0.00035395126 1178.3839)
(0.00069689553 0.00034841896 1178.3843)
(0.0011391248 0.00034958249 1178.385)
(0.0020137395 0.00035625335 1178.3862)
(0.00087647451 0.00036377006 1178.3891)
(-0.002204547 0.00088852139 1178.3898)
(-0.0035893309 0.00084830463 1178.3851)
(-0.00051165894 0.00077990146 1178.3846)
(-0.00029810122 0.00073513558 1178.3843)
(2.2459423e-05 0.00070751633 1178.3842)
(0.00034841896 0.00069689554 1178.3843)
(0.00070314755 0.00070314756 1178.3847)
(0.0011554548 0.00072666422 1178.3855)
(0.0020333522 0.00076425582 1178.3867)
(0.00088269206 0.0008000519 1178.3896)
(-0.0022211052 0.0013960953 1178.3907)
(-0.003661311 0.0013969946 1178.386)
(-0.00058677668 0.0012486416 1178.3854)
(-0.00034211247 0.0011818013 1178.385)
(1.5429391e-06 0.0011476204 1178.3849)
(0.00034958248 0.0011391248 1178.385)
(0.00072666421 0.0011554548 1178.3855)
(0.001200233 0.001200233 1178.3862)
(0.0020871272 0.0012756996 1178.3875)
(0.00090033856 0.0013612252 1178.3904)
(-0.0022039475 0.0018545631 1178.3922)
(-0.0037367846 0.0023801124 1178.3875)
(-0.00072685229 0.0021272351 1178.3867)
(-0.00039912247 0.002050785 1178.3862)
(-2.0217082e-05 0.0020191646 1178.3861)
(0.00035625335 0.0020137395 1178.3862)
(0.00076425581 0.0020333521 1178.3867)
(0.0012756996 0.0020871272 1178.3875)
(0.0021943443 0.0021943443 1178.3888)
(0.00093970914 0.0023645814 1178.3919)
(-0.001870739 0.00067962414 1178.3946)
(-0.003388639 0.0010128327 1178.3907)
(-0.00091610405 0.00091172127 1178.3897)
(-0.00045018299 0.00088666482 1178.3891)
(-3.5502556e-05 0.00087768092 1178.389)
(0.00036377005 0.00087647451 1178.3891)
(0.0008000519 0.00088269206 1178.3896)
(0.0013612252 0.00090033856 1178.3904)
(0.0023645814 0.00093970914 1178.3919)
(0.00101383 0.00101383 1178.3955)
(-0.0050068492 -0.0050068492 1131.8606)
(-0.0083221478 -0.0034937922 1131.8562)
(-0.0013140953 -0.0033860923 1131.8557)
(-0.00062176772 -0.003343099 1131.8554)
(0.00010767133 -0.0033303466 1131.8554)
(0.00080940239 -0.0033351131 1131.8556)
(0.0015899339 -0.0033574875 1131.856)
(0.0026103321 -0.0034038368 1131.8568)
(0.0041157472 -0.0034328679 1131.8582)
(0.0016754429 -0.0028835639 1131.861)
(-0.0034937922 -0.0083221478 1131.8562)
(-0.0058910124 -0.0058910124 1131.8531)
(-0.0010880554 -0.005609791 1131.8527)
(-0.0005381491 -0.0054856791 1131.8524)
(0.00011965009 -0.0054479626 1131.8524)
(0.00076869095 -0.005465804 1131.8526)
(0.0014868485 -0.0055401144 1131.853)
(0.0024972616 -0.0056988036 1131.8537)
(0.0048961565 -0.0059331325 1131.8549)
(0.0022247469 -0.0053638342 1131.8584)
(-0.0033860923 -0.0013140953 1131.8557)
(-0.005609791 -0.0010880554 1131.8527)
(-0.00090876198 -0.00090876197 1131.8524)
(-0.00045993932 -0.00081580973 1131.8522)
(0.00012754647 -0.00078867557 1131.8522)
(0.00071725063 -0.00081171729 1131.8523)
(0.0013569342 -0.00088469891 1131.8527)
(0.002217314 -0.0010270874 1131.8533)
(0.0044507166 -0.0012922785 1131.8544)
(0.002054975 -0.0016166137 1131.8576)
(-0.003343099 -0.00062176772 1131.8554)
(-0.0054856791 -0.00053814911 1131.8524)
(-0.00081580974 -0.00045993932 1131.8522)
(-0.0004180627 -0.00041806269 1131.852)
(0.00012374254 -0.00041218293 1131.852)
(0.0006726676 -0.00043730658 1131.8521)
(0.0012714784 -0.00049157964 1131.8525)
(0.0020896819 -0.00057492645 1131.8531)
(0.0043066302 -0.00068332101 1131.854)
(0.0020085234 -0.0007780341 1131.8572)
(-0.0033303466 0.00010767133 1131.8554)
(-0.0054479626 0.00011965009 1131.8524)
(-0.00078867556 0.00012754646 1131.8522)
(-0.00041218293 0.00012374254 1131.852)
(0.00010830258 0.00010830258 1131.852)
(0.00063785391 8.3402699e-05 1131.8521)
(0.0012193144 5.0515939e-05 1131.8524)
(0.0020255726 1.1445307e-05 1131.853)
(0.0042476089 -2.8847659e-05 1131.8539)
(0.001991833 -5.6734207e-05 1131.8571)
(-0.0033351131 0.0008094024 1131.8556)
(-0.005465804 0.00076869096 1131.8526)
(-0.00081171728 0.00071725063 1131.8523)
(-0.00043730658 0.0006726676 1131.8521)
(8.3402692e-05 0.00063785392 1131.8521)
(0.00061488096 0.00061488097 1131.8522)
(0.001199521 0.00060463793 1131.8526)
(0.0020103184 0.00060776698 1131.8531)
(0.0042384507 0.00062231613 1131.854)
(0.0019899324 0.00063897062 1131.8572)
(-0.0033574875 0.0015899339 1131.856)
(-0.0055401144 0.0014868485 1131.853)
(-0.00088469891 0.0013569342 1131.8527)
(-0.00049157964 0.0012714784 1131.8525)
(5.0515945e-05 0.0012193144 1131.8524)
(0.00060463792 0.001199521 1131.8526)
(0.0012122004 0.0012122004 1131.8529)
(0.0020432508 0.0012592787 1131.8534)
(0.0042788126 0.0013369418 1131.8544)
(0.002002936 0.0014156392 1131.8575)
(-0.0034038368 0.0026103321 1131.8568)
(-0.0056988036 0.0024972616 1131.8537)
(-0.0010270874 0.002217314 1131.8533)
(-0.00057492645 0.0020896819 1131.8531)
(1.1445309e-05 0.0020255726 1131.853)
(0.00060776697 0.0020103183 1131.8531)
(0.0012592787 0.0020432508 1131.8534)
(0.0021350598 0.0021350598 1131.854)
(0.0043948112 0.0023009787 1131.855)
(0.0020423973 0.002519981 1131.8582)
(-0.0034328679 0.0041157472 1131.8582)
(-0.0059331325 0.0048961565 1131.8549)
(-0.0012922785 0.0044507166 1131.8544)
(-0.000683321 0.0043066302 1131.854)
(-2.884766e-05 0.0042476089 1131.8539)
(0.00062231612 0.0042384507 1131.854)
(0.0013369418 0.0042788126 1131.8544)
(0.0023009787 0.0043948112 1131.855)
(0.0046637338 0.0046637338 1131.8561)
(0.0021489375 0.0052888253 1131.8596)
(-0.0028835639 0.0016754429 1131.861)
(-0.0053638342 0.0022247469 1131.8584)
(-0.0016166137 0.002054975 1131.8576)
(-0.0007780341 0.0020085234 1131.8572)
(-5.6734216e-05 0.001991833 1131.8571)
(0.00063897062 0.0019899324 1131.8572)
(0.0014156392 0.002002936 1131.8575)
(0.002519981 0.0020423973 1131.8582)
(0.0052888253 0.0021489375 1131.8596)
(0.002459125 0.002459125 1131.8639)
(-0.006273126 -0.006273126 1089.972)
(-0.010362112 -0.0043700501 1089.9686)
(-0.0015481708 -0.0042338732 1089.9685)
(-0.00071558662 -0.0041791625 1089.9684)
(0.00020266419 -0.0041636844 1089.9685)
(0.0011061295 -0.0041723244 1089.9687)
(0.0021338863 -0.0042076998 1089.969)
(0.0035502304 -0.0042860711 1089.9696)
(0.0060518145 -0.004371172 1089.9706)
(0.0025678959 -0.0036240729 1089.9731)
(-0.0043700501 -0.010362112 1089.9686)
(-0.0073032329 -0.0073032329 1089.9663)
(-0.0012618393 -0.0069467376 1089.9663)
(-0.0006103034 -0.0067888534 1089.9662)
(0.00021292125 -0.0067438525 1089.9663)
(0.0010401064 -0.0067752618 1089.9665)
(0.0019632662 -0.0068899458 1089.9668)
(0.0033050222 -0.0071400886 1089.9672)
(0.0070448118 -0.0075495359 1089.9681)
(0.003314995 -0.0067769182 1089.9711)
(-0.0042338732 -0.0015481707 1089.9685)
(-0.0069467376 -0.0012618393 1089.9663)
(-0.0010337912 -0.0010337912 1089.9663)
(-0.0005127015 -0.00091650068 1089.9663)
(0.00021625578 -0.00088635656 1089.9663)
(0.00096003611 -0.00092520444 1089.9665)
(0.0017690595 -0.0010354835 1089.9667)
(0.0028906404 -0.0012471774 1089.9671)
(0.0064149848 -0.0016393923 1089.9678)
(0.0030829744 -0.0020874818 1089.9706)
(-0.0041791625 -0.00071558662 1089.9684)
(-0.0067888534 -0.00061030339 1089.9662)
(-0.00091650069 -0.0005127015 1089.9663)
(-0.00046286874 -0.00046286873 1089.9663)
(0.0002042175 -0.00046108743 1089.9663)
(0.00089097952 -0.00050175808 1089.9664)
(0.0016412933 -0.00058354255 1089.9667)
(0.0027011133 -0.00070712346 1089.967)
(0.0062045074 -0.00086737688 1089.9676)
(0.0030162687 -0.0010036389 1089.9703)
(-0.0041636844 0.0002026642 1089.9685)
(-0.0067438525 0.00021292126 1089.9663)
(-0.00088635656 0.00021625577 1089.9663)
(-0.00046108743 0.00020421751 1089.9663)
(0.00017736644 0.00017736644 1089.9663)
(0.00083758099 0.00013840417 1089.9664)
(0.0015636941 8.8978443e-05 1089.9667)
(0.002606806 3.1464354e-05 1089.967)
(0.0061184693 -2.7135421e-05 1089.9675)
(0.002992133 -6.6904383e-05 1089.9703)
(-0.0041723244 0.0011061295 1089.9687)
(-0.0067752618 0.0010401064 1089.9665)
(-0.00092520444 0.00096003611 1089.9665)
(-0.00050175808 0.00089097952 1089.9664)
(0.00013840416 0.000837581 1089.9664)
(0.00080259152 0.00080259153 1089.9665)
(0.0015343534 0.00078724494 1089.9667)
(0.0025849995 0.00079268165 1089.967)
(0.0061061386 0.00081619718 1089.9676)
(0.002989756 0.00084325182 1089.9703)
(-0.0042076998 0.0021338863 1089.969)
(-0.0068899459 0.0019632662 1089.9668)
(-0.0010354835 0.0017690595 1089.9667)
(-0.00058354255 0.0016412933 1089.9667)
(8.897844e-05 0.0015636941 1089.9667)
(0.00078724494 0.0015343535 1089.9667)
(0.0015537842 0.0015537842 1089.9669)
(0.0026357583 0.001626022 1089.9672)
(0.0061690395 0.0017473067 1089.9678)
(0.0030101695 0.001873513 1089.9706)
(-0.0042860711 0.0035502304 1089.9696)
(-0.0071400886 0.0033050222 1089.9672)
(-0.0012471774 0.0028906404 1089.9671)
(-0.00070712346 0.0027011133 1089.967)
(3.1464356e-05 0.002606806 1089.967)
(0.00079268165 0.0025849995 1089.967)
(0.001626022 0.0026357583 1089.9672)
(0.0027785219 0.0027785219 1089.9676)
(0.0063536296 0.0030453818 1089.9682)
(0.0030738936 0.0034210266 1089.9711)
(-0.004371172 0.0060518145 1089.9706)
(-0.0075495359 0.0070448118 1089.9681)
(-0.0016393923 0.0064149848 1089.9678)
(-0.00086737687 0.0062045074 1089.9676)
(-2.713542e-05 0.0061184693 1089.9675)
(0.00081619717 0.0061061386 1089.9676)
(0.0017473067 0.0061690395 1089.9678)
(0.0030453818 0.0063536296 1089.9682)
(0.0068115442 0.0068115442 1089.969)
(0.0032605994 0.0080591493 1089.9721)
(-0.0036240729 0.0025678959 1089.9731)
(-0.0067769182 0.003314995 1089.9711)
(-0.0020874818 0.0030829744 1089.9706)
(-0.0010036389 0.0030162687 1089.9703)
(-6.690438e-05 0.002992133 1089.9703)
(0.00084325182 0.002989756 1089.9703)
(0.001873513 0.0030101695 1089.9706)
(0.0034210266 0.0030738936 1089.9711)
(0.0080591493 0.0032605994 1089.9721)
(0.0039056303 0.0039056303 1089.9762)
(-0.0072705882 -0.0072705882 1051.9638)
(-0.011823431 -0.0050225678 1051.9611)
(-0.0015098249 -0.0048695137 1051.9613)
(-0.00067427657 -0.0048075569 1051.9614)
(0.00032464666 -0.0047912724 1051.9615)
(0.001333948 -0.0048047882 1051.9616)
(0.0025125345 -0.0048540527 1051.9619)
(0.0042158952 -0.0049662121 1051.9622)
(0.0075973778 -0.0051141504 1051.9629)
(0.0033111438 -0.0042004944 1051.9649)
(-0.0050225678 -0.011823431 1051.9611)
(-0.0082218189 -0.0082218189 1051.9594)
(-0.0011873086 -0.0078194883 1051.9597)
(-0.0005569146 -0.0076411848 1051.9598)
(0.00032879963 -0.0075952876 1051.9599)
(0.0012397776 -0.0076437203 1051.96)
(0.0022703988 -0.0078014297 1051.9602)
(0.0038257487 -0.0081468427 1051.9604)
(0.0087459543 -0.0087427477 1051.961)
(0.0042247998 -0.0078129964 1051.9634)
(-0.0048695137 -0.0015098249 1051.9613)
(-0.0078194883 -0.0011873086 1051.9597)
(-0.00092919084 -0.00092919083 1051.9599)
(-0.00045007592 -0.00079888435 1051.96)
(0.00032211121 -0.00077215849 1051.9601)
(0.0011278059 -0.00083054223 1051.9603)
(0.002009412 -0.00098058551 1051.9604)
(0.0032745772 -0.0012635501 1051.9606)
(0.0079312242 -0.0017845921 1051.9609)
(0.003930978 -0.0023555144 1051.9632)
(-0.0048075569 -0.00067427657 1051.9614)
(-0.0076411848 -0.0005569146 1051.9598)
(-0.00079888435 -0.00045007592 1051.96)
(-0.00039988226 -0.00039988225 1051.9602)
(0.00029714174 -0.00040719019 1051.9603)
(0.0010313506 -0.00046656215 1051.9604)
(0.0018373909 -0.00057790797 1051.9605)
(0.0030217421 -0.00074309656 1051.9606)
(0.00765399 -0.0009561656 1051.9608)
(0.0038441849 -0.0011337293 1051.963)
(-0.0047912724 0.00032464666 1051.9615)
(-0.0075952876 0.00032879963 1051.9599)
(-0.00077215849 0.00032211121 1051.9601)
(-0.00040719019 0.00029714175 1051.9603)
(0.00025543131 0.00025543132 1051.9603)
(0.00095708815 0.00020004161 1051.9604)
(0.0017328776 0.00013249105 1051.9605)
(0.0028963196 5.5517745e-05 1051.9606)
(0.0075405914 -2.1970163e-05 1051.9608)
(0.0038126022 -7.3690755e-05 1051.963)
(-0.0048047882 0.001333948 1051.9616)
(-0.0076437203 0.0012397776 1051.96)
(-0.00083054223 0.0011278059 1051.9603)
(-0.00046656215 0.0010313506 1051.9604)
(0.00020004161 0.00095708815 1051.9604)
(0.00090841033 0.00090841033 1051.9605)
(0.001692867 0.00088678151 1051.9605)
(0.0028672809 0.00089377251 1051.9606)
(0.0075247815 0.00092586204 1051.9608)
(0.0038097045 0.00096316581 1051.963)
(-0.0048540527 0.0025125345 1051.9619)
(-0.0078014297 0.0022703988 1051.9602)
(-0.00098058552 0.002009412 1051.9604)
(-0.00057790796 0.0018373909 1051.9605)
(0.00013249105 0.0017328776 1051.9605)
(0.00088678151 0.001692867 1051.9605)
(0.0017182398 0.0017182398 1051.9606)
(0.0029354001 0.0018151636 1051.9607)
(0.0076099847 0.001979846 1051.9609)
(0.0038374714 0.0021531273 1051.9631)
(-0.0049662121 0.0042158952 1051.9622)
(-0.0081468427 0.0038257487 1051.9604)
(-0.0012635501 0.0032745772 1051.9606)
(-0.00074309655 0.0030217421 1051.9606)
(5.5517748e-05 0.0028963196 1051.9606)
(0.0008937725 0.0028672809 1051.9606)
(0.0018151636 0.0029354001 1051.9607)
(0.003128887 0.003128887 1051.9608)
(0.0078627452 0.0034963239 1051.9611)
(0.0039252254 0.0040272128 1051.9634)
(-0.0051141504 0.0075973778 1051.9629)
(-0.0087427477 0.0087459543 1051.961)
(-0.0017845921 0.0079312242 1051.9609)
(-0.00095616559 0.00765399 1051.9608)
(-2.1970162e-05 0.0075405914 1051.9608)
(0.00092586203 0.0075247815 1051.9608)
(0.001979846 0.0076099847 1051.9609)
(0.0034963239 0.0078627452 1051.9611)
(0.0085083105 0.0085083105 1051.9615)
(0.0041913973 0.010400514 1051.964)
(-0.0042004944 0.0033111438 1051.9649)
(-0.0078129964 0.0042247998 1051.9634)
(-0.0023555144 0.003930978 1051.9632)
(-0.0011337293 0.0038441849 1051.963)
(-7.3690751e-05 0.0038126022 1051.963)
(0.0009631658 0.0038097045 1051.963)
(0.0021531273 0.0038374714 1051.9631)
(0.0040272128 0.0039252254 1051.9634)
(0.010400514 0.0041913973 1051.964)
(0.0051866947 0.0051866947 1051.9676)
(-0.0080497503 -0.0080497503 1017.24)
(-0.012821736 -0.0054934117 1017.238)
(-0.0012566227 -0.0053311561 1017.2384)
(-0.00052376006 -0.005265152 1017.2386)
(0.00046135458 -0.0052495437 1017.2388)
(0.0014871774 -0.0052687194 1017.2389)
(0.0027257551 -0.0053324829 1017.239)
(0.0046170772 -0.0054796075 1017.2392)
(0.0087636456 -0.0056957462 1017.2396)
(0.003907166 -0.0046500144 1017.2412)
(-0.0054934117 -0.012821736 1017.238)
(-0.008743845 -0.008743845 1017.2368)
(-0.00091423305 -0.0083157162 1017.2373)
(-0.00040134153 -0.0081268583 1017.2375)
(0.0004560035 -0.0080851443 1017.2376)
(0.0013627686 -0.0081534112 1017.2377)
(0.002409423 -0.0083560715 1017.2378)
(0.0040721822 -0.0087991692 1017.2379)
(0.010008035 -0.009589834 1017.2381)
(0.0049528978 -0.0085561475 1017.24)
(-0.0053311561 -0.0012566227 1017.2384)
(-0.0083157162 -0.00091423305 1017.2373)
(-0.00063963595 -0.00063963594 1017.2377)
(-0.00029318823 -0.0005051734 1017.238)
(0.00043480167 -0.00048723287 1017.2381)
(0.0012162503 -0.00056839171 1017.2382)
(0.0020799971 -0.00076025707 1017.2382)
(0.0033833147 -0.0011158466 1017.2382)
(0.0090066673 -0.0017664928 1017.2382)
(0.0045962904 -0.0024621226 1017.2399)
(-0.005265152 -0.00052376006 1017.2386)
(-0.0081268583 -0.00040134154 1017.2375)
(-0.0005051734 -0.00029318823 1017.238)
(-0.00024893847 -0.00024893846 1017.2382)
(0.00039278519 -0.00026974314 1017.2383)
(0.0010897445 -0.00035077342 1017.2384)
(0.0018619681 -0.00049369491 1017.2384)
(0.0030659465 -0.00070189649 1017.2383)
(0.0086617592 -0.00096880456 1017.2382)
(0.0044891446 -0.0011883336 1017.2399)
(-0.0052495437 0.00046135458 1017.2388)
(-0.0080851443 0.00045600349 1017.2376)
(-0.00048723287 0.00043480167 1017.2381)
(-0.00026974314 0.00039278519 1017.2383)
(0.00033296671 0.00033296673 1017.2385)
(0.00099229849 0.0002587044 1017.2385)
(0.0017288741 0.00017115907 1017.2384)
(0.002908205 7.3252916e-05 1017.2383)
(0.0085202302 -2.427477e-05 1017.2382)
(0.0044499377 -8.8618373e-05 1017.2399)
(-0.0052687194 0.0014871774 1017.2389)
(-0.0081534112 0.0013627686 1017.2377)
(-0.0005683917 0.0012162503 1017.2382)
(-0.00035077341 0.0010897445 1017.2384)
(0.0002587044 0.0009922985 1017.2385)
(0.0009279368 0.00092793682 1017.2385)
(0.0016765166 0.00089821236 1017.2384)
(0.0028705126 0.00090499708 1017.2383)
(0.0084998879 0.00094395918 1017.2382)
(0.0044462489 0.00099024812 1017.2398)
(-0.0053324829 0.0027257551 1017.239)
(-0.0083560715 0.002409423 1017.2378)
(-0.00076025706 0.0020799971 1017.2382)
(-0.0004936949 0.0018619681 1017.2384)
(0.00017115907 0.0017288741 1017.2384)
(0.00089821235 0.0016765166 1017.2384)
(0.0017059343 0.0017059343 1017.2384)
(0.0029539518 0.0018251551 1017.2383)
(0.0086054812 0.0020301633 1017.2382)
(0.0044807969 0.0022473411 1017.2398)
(-0.0054796075 0.0046170772 1017.2392)
(-0.0087991692 0.0040721822 1017.2379)
(-0.0011158466 0.0033833147 1017.2382)
(-0.00070189648 0.0030659465 1017.2383)
(7.3252916e-05 0.002908205 1017.2383)
(0.00090499707 0.0028705126 1017.2383)
(0.0018251551 0.0029539518 1017.2383)
(0.0031947416 0.0031947416 1017.2382)
(0.0089220739 0.0036565887 1017.2381)
(0.0045910341 0.004333056 1017.2399)
(-0.0056957462 0.0087636456 1017.2396)
(-0.009589834 0.010008035 1017.2381)
(-0.0017664928 0.0090066673 1017.2382)
(-0.00096880456 0.0086617592 1017.2382)
(-2.427477e-05 0.0085202301 1017.2382)
(0.00094395917 0.0084998879 1017.2382)
(0.0020301632 0.0086054812 1017.2382)
(0.0036565887 0.0089220739 1017.2381)
(0.0097437956 0.0097437956 1017.2382)
(0.0049317751 0.012257732 1017.2402)
(-0.0046500144 0.003907166 1017.2412)
(-0.0085561475 0.0049528978 1017.24)
(-0.0024621226 0.0045962904 1017.2399)
(-0.0011883336 0.0044891446 1017.2399)
(-8.8618376e-05 0.0044499376 1017.2399)
(0.00099024812 0.0044462489 1017.2398)
(0.0022473411 0.0044807969 1017.2398)
(0.004333056 0.0045910341 1017.2399)
(0.012257732 0.0049317751 1017.2402)
(0.0062669919 0.0062669919 1017.2431)
(-0.0086403509 -0.0086403509 985.33011)
(-0.013434791 -0.0058107301 985.32858)
(-0.00084048844 -0.0056450872 985.3292)
(-0.00029247594 -0.0055774615 985.32953)
(0.00059962164 -0.005563665 985.32972)
(0.0015638585 -0.0055890624 985.3298)
(0.0027819119 -0.0056676319 985.3298)
(0.00477381 -0.0058502053 985.32977)
(0.0095792073 -0.0061380762 985.3299)
(0.0043662165 -0.0049923111 985.33109)
(-0.0058107301 -0.013434791 985.32858)
(-0.0089418957 -0.0089418957 985.32783)
(-0.00049058553 -0.0085031417 985.32845)
(-0.00017034261 -0.008311274 985.32878)
(0.00058222028 -0.0082776854 985.32896)
(0.0014079081 -0.008367873 985.32902)
(0.0023901976 -0.0086165516 985.32898)
(0.0040681435 -0.0091580625 985.32884)
(0.010866049 -0.01014777 985.32875)
(0.0055119817 -0.0090588373 985.3302)
(-0.0056450872 -0.00084048844 985.3292)
(-0.0085031417 -0.00049058553 985.32845)
(-0.00020986677 -0.00020986677 985.32908)
(-6.7019557e-05 -7.8150948e-05 985.32941)
(0.00054302269 -7.3266247e-05 985.32958)
(0.0012249922 -0.0001797451 985.32961)
(0.0019917224 -0.00041483499 985.32952)
(0.0032425918 -0.00084347709 985.3293)
(0.0096784325 -0.0016228644 985.32902)
(0.0050921716 -0.0024441158 985.33028)
(-0.0055774615 -0.00029247594 985.32953)
(-0.008311274 -0.00017034262 985.32878)
(-7.8150948e-05 -6.7019562e-05 985.32941)
(-3.374208e-05 -3.374208e-05 985.32973)
(0.00048062613 -7.1668208e-05 985.32988)
(0.0010663393 -0.00017684168 985.32989)
(0.0017264656 -0.00035301099 985.32976)
(0.0028601141 -0.00060530191 985.32948)
(0.00926541 -0.00092667441 985.32913)
(0.0049644808 -0.0011887618 985.33033)
(-0.005563665 0.00059962163 985.32972)
(-0.0082776854 0.00058222028 985.32896)
(-7.3266237e-05 0.00054302269 985.32958)
(-7.1668204e-05 0.00048062614 985.32988)
(0.00039992309 0.0003999231 985.33002)
(0.00094364941 0.0003045513 985.33)
(0.0015632622 0.00019515622 985.32984)
(0.0026689284 7.4719347e-05 985.32952)
(0.0090949725 -4.4195593e-05 985.32914)
(0.0049174466 -0.00012206196 985.33032)
(-0.0055890624 0.0015638585 985.3298)
(-0.008367873 0.0014079081 985.32902)
(-0.00017974509 0.0012249922 985.32961)
(-0.00017684168 0.0010663393 985.32989)
(0.0003045513 0.00094364941 985.33)
(0.00086157247 0.00086157248 985.32996)
(0.0014966336 0.00082160947 985.32979)
(0.0026207623 0.0008258073 985.32946)
(0.0090686287 0.0008691301 985.32907)
(0.0049125699 0.00092246699 985.33024)
(-0.0056676319 0.0027819119 985.3298)
(-0.0086165516 0.0023901976 985.32898)
(-0.000414835 0.0019917224 985.32952)
(-0.00035301098 0.0017264656 985.32976)
(0.00019515622 0.0015632622 985.32984)
(0.00082160946 0.0014966336 985.32979)
(0.001527497 0.001527497 985.3296)
(0.002716449 0.0016653635 985.32928)
(0.0091916322 0.0019058692 985.3289)
(0.0049530045 0.0021622046 985.33009)
(-0.0058502053 0.00477381 985.32977)
(-0.0091580625 0.0040681435 985.32884)
(-0.00084347709 0.0032425918 985.3293)
(-0.00060530191 0.0028601141 985.32948)
(7.4719341e-05 0.0026689284 985.32952)
(0.0008258073 0.0026207623 985.32946)
(0.0016653635 0.002716449 985.32928)
(0.0029991344 0.0029991344 985.32899)
(0.0095654697 0.0035460785 985.32866)
(0.0050834601 0.0043549813 985.3299)
(-0.0061380763 0.0095792073 985.3299)
(-0.01014777 0.010866049 985.32875)
(-0.0016228644 0.0096784325 985.32902)
(-0.00092667441 0.00926541 985.32913)
(-4.4195598e-05 0.0090949725 985.32914)
(0.0008691301 0.0090686287 985.32907)
(0.0019058692 0.0091916322 985.3289)
(0.0035460785 0.0095654697 985.32866)
(0.010547479 0.010547479 985.32844)
(0.0054922731 0.013645655 985.32988)
(-0.0049923111 0.0043662165 985.33109)
(-0.0090588373 0.0055119817 985.3302)
(-0.0024441158 0.0050921716 985.33028)
(-0.0011887618 0.0049644808 985.33033)
(-0.00012206197 0.0049174466 985.33032)
(0.00092246699 0.0049125699 985.33024)
(0.0021622046 0.0049530045 985.33009)
(0.0043549813 0.0050834601 985.3299)
(0.013645655 0.0054922731 985.32988)
(0.0071489109 0.0071489109 985.33225)
(-0.0090654095 -0.0090654095 955.85659)
(-0.013724306 -0.0059970102 955.85553)
(-0.00030542602 -0.0058326996 955.85628)
(-6.1085713e-06 -0.0057653883 955.85668)
(0.00072833432 -0.0057542778 955.85689)
(0.0015655916 -0.0057862572 955.85692)
(0.002695014 -0.0058796478 955.85682)
(0.0047129301 -0.0060974806 955.85662)
(0.010080146 -0.0064588181 955.85651)
(0.0047012317 -0.0052415448 955.85735)
(-0.0059970102 -0.013724306 955.85553)
(-0.0088752416 -0.0088752416 955.85514)
(4.2006755e-05 -0.0084381128 955.85588)
(0.00011152418 -0.0082492328 955.85628)
(0.00069703109 -0.0082268062 955.85647)
(0.0013775366 -0.0083403069 955.85649)
(0.0022281788 -0.008635193 955.85634)
(0.0038441746 -0.0092741298 955.85604)
(0.01136405 -0.010463102 955.85571)
(0.005918505 -0.0093606757 955.85672)
(-0.0058326996 -0.00030542603 955.85628)
(-0.0084381128 4.2006753e-05 955.85588)
(0.00032058275 0.00032058274 955.85662)
(0.00020519803 0.00044409968 955.85701)
(0.00063726029 0.00043262557 955.85719)
(0.0011572048 0.00029902094 955.85718)
(0.001761191 2.0078255e-05 955.85698)
(0.0028850212 -0.00048094187 955.85659)
(0.0099936004 -0.0013863198 955.85608)
(0.0054361825 -0.0023320045 955.85691)
(-0.0057653883 -6.1085827e-06 955.85668)
(-0.0082492328 0.00011152417 955.85628)
(0.00044409968 0.00020519803 955.85701)
(0.00022356702 0.00022356701 955.85739)
(0.00055195235 0.00016569072 955.85755)
(0.00096498929 3.4484752e-05 955.85751)
(0.001448216 -0.00017607505 955.85727)
(0.0024377765 -0.00047295622 955.85683)
(0.0095129873 -0.00084871784 955.85625)
(0.0052880486 -0.0011534006 955.85702)