/*--------------------------------*- C++ -*----------------------------------*\
| =========                 |                                                 |
| \\      /  F ield         | OpenFOAM: The Open Source CFD Toolbox           |
|  \\    /   O peration     | Version:  v2106                                 |
|   \\  /    A nd           | Website:  www.openfoam.com                      |
|    \\/     M anipulation  |                                                 |
\*---------------------------------------------------------------------------*/
FoamFile
{
    version     2.0;
    format      ascii;
    arch        "LSB;label=32;scalar=64";
    class       volVectorField;
    location    "65";
    object      gradT;
}
// * * * * * * * * * * * * * * * * * * * * * * * * * * * * * * * * * * * * * //

dimensions      [0 -1 0 1 0 0 0];

internalField   nonuniform List<vector> 
4000
(
(0.00036291584 0.00036291584 571.87604)
(0.00079737948 0.00032176946 571.87871)
(0.00040148753 0.00031223134 571.88)
(0.00021749587 0.00030852731 571.88077)
(6.9456024e-05 0.00030635422 571.88112)
(-5.931503e-05 0.00030436465 571.88112)
(-0.00016919267 0.00030165497 571.8808)
(-0.00024942049 0.00029667404 571.88022)
(-0.00026638946 0.00028545773 571.87947)
(-8.4269772e-05 0.0002581748 571.87876)
(0.00032176945 0.00079737948 571.87871)
(0.00072135274 0.00072135273 571.88106)
(0.00038162431 0.0006974786 571.88228)
(0.00020868019 0.00068569502 571.88301)
(6.321203e-05 0.00067766636 571.88336)
(-6.6363916e-05 0.0006700752 571.88334)
(-0.00018072859 0.00066042774 571.883)
(-0.00027371635 0.00064498886 571.88238)
(-0.00032413832 0.00061620316 571.88153)
(-0.0001115527 0.00056042251 571.88056)
(0.00031223133 0.00040148752 571.88)
(0.00069747861 0.00038162431 571.88228)
(0.00036582982 0.0003658298 571.88344)
(0.00019768363 0.00035398006 571.88415)
(5.3836201e-05 0.00034407131 571.88446)
(-7.6553649e-05 0.00033433319 571.88442)
(-0.00019427901 0.00032308046 571.88405)
(-0.00029364507 0.00030843948 571.88339)
(-0.00035095581 0.00028889754 571.88248)
(-0.00012145687 0.00026753503 571.88144)
(0.00030852731 0.00021749587 571.88077)
(0.00068569502 0.0002086802 571.88301)
(0.00035398006 0.00019768363 571.88415)
(0.0001869217 0.0001869217 571.88483)
(4.3565166e-05 0.00017665447 571.88512)
(-8.7354772e-05 0.00016638785 571.88505)
(-0.00020662231 0.00015543603 571.88465)
(-0.00030789927 0.00014332905 571.88395)
(-0.00036504276 0.00013062377 571.883)
(-0.00012579437 0.00012060056 571.88192)
(0.00030635422 6.9456028e-05 571.88112)
(0.00067766637 6.3212033e-05 571.88336)
(0.00034407132 5.3836201e-05 571.88446)
(0.00017665447 4.3565169e-05 571.88512)
(3.3302353e-05 3.3302358e-05 571.88538)
(-9.7772084e-05 2.3158441e-05 571.88528)
(-0.00021733781 1.3000061e-05 571.88486)
(-0.00031845733 2.9399096e-06 571.88413)
(-0.0003736843 -6.1256628e-06 571.88315)
(-0.00012813901 -1.2061258e-05 571.88206)
(0.00030436465 -5.9315026e-05 571.88112)
(0.00067007519 -6.6363915e-05 571.88334)
(0.0003343332 -7.6553654e-05 571.88442)
(0.00016638786 -8.7354778e-05 571.88505)
(2.3158437e-05 -9.7772082e-05 571.88528)
(-0.00010765707 -0.00010765707 571.88516)
(-0.00022684084 -0.00011708925 571.88471)
(-0.00032702499 -0.00012591737 571.88396)
(-0.00038004393 -0.00013338373 571.88296)
(-0.00012975143 -0.00013795973 571.88185)
(0.00030165497 -0.00016919267 571.8808)
(0.00066042774 -0.00018072859 571.883)
(0.00032308046 -0.000194279 571.88405)
(0.00015543604 -0.00020662232 571.88465)
(1.3000061e-05 -0.00021733781 571.88486)
(-0.00011708925 -0.00022684084 571.88471)
(-0.00023559811 -0.00023559811 571.88423)
(-0.00033475181 -0.00024377356 571.88346)
(-0.00038572666 -0.0002509089 571.88244)
(-0.00013118968 -0.00025556203 571.88132)
(0.00029667404 -0.00024942049 571.88022)
(0.00064498886 -0.00027371635 571.88238)
(0.00030843947 -0.00029364507 571.88339)
(0.00014332905 -0.00030789927 571.88395)
(2.9399116e-06 -0.00031845733 571.88413)
(-0.00012591737 -0.00032702499 571.88396)
(-0.00024377355 -0.00033475181 571.88346)
(-0.00034233578 -0.00034233577 571.88266)
(-0.0003918324 -0.0003498529 571.88163)
(-0.00013285352 -0.00035583606 571.88049)
(0.00028545773 -0.00026638946 571.87947)
(0.00061620316 -0.00032413832 571.88153)
(0.00028889754 -0.00035095581 571.88248)
(0.00013062378 -0.00036504275 571.883)
(-6.1256579e-06 -0.00037368431 571.88315)
(-0.00013338373 -0.00038004392 571.88296)
(-0.0002509089 -0.00038572665 571.88244)
(-0.00034985291 -0.00039183239 571.88163)
(-0.00039922695 -0.00039922694 571.88057)
(-0.00013517845 -0.00040732278 571.87942)
(0.0002581748 -8.426977e-05 571.87876)
(0.00056042251 -0.0001115527 571.88056)
(0.00026753504 -0.00012145687 571.88144)
(0.00012060055 -0.00012579437 571.88192)
(-1.2061258e-05 -0.00012813901 571.88206)
(-0.00013795972 -0.00012975143 571.88185)
(-0.00025556202 -0.00013118968 571.88132)
(-0.00035583607 -0.00013285352 571.88049)
(-0.00040732279 -0.00013517845 571.87942)
(-0.00013825075 -0.00013825074 571.87823)
(0.0015836054 0.0015836054 845.03704)
(0.0035493316 0.0013844156 845.04033)
(0.0018805406 0.0013402642 845.04204)
(0.0010358393 0.001322863 845.0431)
(0.00032590463 0.0013123786 845.04358)
(-0.00030157616 0.0013026816 845.04355)
(-0.00084420011 0.0012893908 845.04305)
(-0.0012565314 0.0012645238 845.04214)
(-0.0013990922 0.0012053184 845.04092)
(-0.00045900153 0.0010348128 845.03955)
(0.0013844156 0.0035493316 845.04033)
(0.0031843198 0.0031843198 845.04319)
(0.0017882116 0.0030735471 845.04482)
(0.00099401091 0.0030176612 845.04583)
(0.00029563255 0.0029788241 845.04629)
(-0.00033605786 0.0029418312 845.04624)
(-0.00090143682 0.00289461 845.04571)
(-0.0013826401 0.0028182233 845.04474)
(-0.0017436586 0.0026704126 845.04337)
(-0.00062950709 0.0023437317 845.04157)
(0.0013402642 0.0018805406 845.04204)
(0.0030735471 0.0017882116 845.04482)
(0.001713882 0.001713882 845.04637)
(0.00094111622 0.0016569034 845.04734)
(0.00025007459 0.0016087987 845.04777)
(-0.00038579023 0.0015613331 845.04768)
(-0.00096780799 0.0015063664 845.04711)
(-0.0014807289 0.0014346689 845.04608)
(-0.0018735838 0.0013386177 845.04461)
(-0.00067678876 0.0012361257 845.04271)
(0.001322863 0.0010358393 845.0431)
(0.0030176612 0.00099401091 845.04583)
(0.0016569034 0.00094111623 845.04734)
(0.0008889276 0.0008889276 845.04827)
(0.00020006227 0.00083894798 845.04866)
(-0.00043849013 0.00078887506 845.04853)
(-0.001028101 0.00073540178 845.04791)
(-0.0015503888 0.00067624708 845.04683)
(-0.0019422019 0.00061416569 845.04531)
(-0.0006978351 0.00056543613 845.04336)
(0.0013123786 0.00032590464 845.04358)
(0.0029788241 0.00029563255 845.04629)
(0.0016087987 0.00025007459 845.04777)
(0.00083894797 0.00020006228 845.04866)
(0.00015002206 0.00015002206 845.04901)
(-0.00048933643 0.00010051182 845.04884)
(-0.001080436 5.0889725e-05 845.04818)
(-0.001601965 1.7131505e-06 845.04706)
(-0.0019843947 -4.2619561e-05 845.0455)
(-0.00070927514 -7.1635677e-05 845.04352)
(0.0013026816 -0.00030157615 845.04355)
(0.0029418312 -0.00033605787 845.04624)
(0.0015613331 -0.00038579024 845.04768)
(0.00078887506 -0.00043849013 845.04853)
(0.00010051181 -0.00048933642 845.04884)
(-0.00053762246 -0.00053762246 845.04864)
(-0.0011268997 -0.00058375424 845.04794)
(-0.0016438981 -0.00062701498 845.04678)
(-0.0020155507 -0.0006637097 845.04519)
(-0.00071717918 -0.00068628614 845.04319)
(0.0012893908 -0.00084420012 845.04305)
(0.00289461 -0.00090143683 845.04571)
(0.0015063664 -0.000967808 845.04711)
(0.00073540179 -0.001028101 845.04791)
(5.0889727e-05 -0.001080436 845.04818)
(-0.00058375424 -0.0011268997 845.04794)
(-0.0011698285 -0.0011698285 845.04721)
(-0.0016819205 -0.0012101222 845.04601)
(-0.0020436659 -0.0012456697 845.04439)
(-0.0007243261 -0.0012693062 845.04238)
(0.0012645238 -0.0012565314 845.04214)
(0.0028182233 -0.00138264 845.04474)
(0.0014346689 -0.0014807289 845.04608)
(0.00067624709 -0.0015503888 845.04683)
(1.7131515e-06 -0.001601965 845.04706)
(-0.00062701498 -0.001643898 845.04678)
(-0.0012101222 -0.0016819205 845.04601)
(-0.0017197392 -0.0017197392 845.04479)
(-0.0020747347 -0.0017583867 845.04314)
(-0.00073293689 -0.0017912636 845.0411)
(0.0012053184 -0.0013990922 845.04092)
(0.0026704126 -0.0017436586 845.04337)
(0.0013386177 -0.0018735838 845.04461)
(0.00061416569 -0.0019422019 845.04531)
(-4.2619554e-05 -0.0019843947 845.0455)
(-0.00066370969 -0.0020155507 845.04519)
(-0.0012456697 -0.0020436659 845.04439)
(-0.0017583868 -0.0020747347 845.04314)
(-0.0021151903 -0.0021151903 845.04145)
(-0.00074624403 -0.0021690805 845.03936)
(0.0010348128 -0.00045900153 845.03955)
(0.0023437317 -0.00062950709 845.04157)
(0.0012361257 -0.00067678876 845.04271)
(0.00056543613 -0.00069783511 845.04336)
(-7.163567e-05 -0.00070927514 845.04352)
(-0.00068628612 -0.00071717918 845.04319)
(-0.0012693062 -0.00072432609 845.04238)
(-0.0017912637 -0.00073293689 845.0411)
(-0.0021690805 -0.00074624403 845.03936)
(-0.00076886372 -0.00076886372 845.03716)
(0.0025545849 0.0025545849 839.47662)
(0.0058013083 0.0022335689 839.47938)
(0.0031730371 0.0021612569 839.48087)
(0.0017586709 0.0021317837 839.4818)
(0.00052477426 0.0021135198 839.48221)
(-0.00058964851 0.0020963578 839.48213)
(-0.0015785741 0.0020726309 839.48158)
(-0.0023861887 0.0020278626 839.4806)
(-0.0028556872 0.0019200743 839.47924)
(-0.00099247638 0.0016055531 839.47759)
(0.0022335689 0.0058013083 839.47938)
(0.0052113163 0.0052113163 839.48179)
(0.0030203593 0.0050279055 839.4832)
(0.0016870652 0.0049323382 839.4841)
(0.00047163543 0.0048644121 839.48449)
(-0.00065098173 0.0047989146 839.48438)
(-0.001681317 0.0047147539 839.4838)
(-0.0026150236 0.0045778369 839.48276)
(-0.0034891514 0.0043109491 839.48126)
(-0.0013069976 0.0037158712 839.47917)
(0.0021612569 0.0031730371 839.48087)
(0.0050279055 0.0030203593 839.4832)
(0.0028940591 0.0028940591 839.48456)
(0.0015951775 0.0027951622 839.48542)
(0.00039135063 0.0027105438 839.48577)
(-0.0007393067 0.0026264205 839.48563)
(-0.0017996518 0.0025286146 839.48501)
(-0.0027899936 0.002400788 839.48391)
(-0.0037176529 0.0022297475 839.48231)
(-0.001389195 0.002051053 839.48012)
(0.0021317837 0.0017586709 839.4818)
(0.0049323382 0.0016870652 839.4841)
(0.0027951622 0.0015951775 839.48542)
(0.00150355 0.00150355 839.48623)
(0.00030289373 0.0014152055 839.48655)
(-0.00083291095 0.0013263281 839.48637)
(-0.0019069495 0.0012311857 839.48571)
(-0.0029138907 0.0011258319 839.48456)
(-0.0038388864 0.0010154212 839.4829)
(-0.0014261273 0.00092958623 839.48067)
(0.0021135198 0.00052477427 839.48221)
(0.0048644121 0.00047163544 839.48449)
(0.0027105438 0.00039135063 839.48577)
(0.0014152055 0.00030289374 839.48655)
(0.00021412881 0.00021412881 839.48683)
(-0.00092332649 0.00012609205 839.48661)
(-0.0020001481 3.767561e-05 839.48591)
(-0.0030057581 -5.0089026e-05 839.48471)
(-0.0039138986 -0.00012926467 839.48302)
(-0.0014464183 -0.00018099311 839.48076)
(0.0020963578 -0.00058964852 839.48213)
(0.0047989146 -0.00065098173 839.48438)
(0.0026264205 -0.00073930669 839.48563)
(0.0013263281 -0.00083291094 839.48637)
(0.00012609204 -0.00092332649 839.48661)
(-0.0010093641 -0.0010093641 839.48636)
(-0.0020831306 -0.0010918183 839.48561)
(-0.003080831 -0.0011694976 839.48439)
(-0.0039697905 -0.0012358315 839.48267)
(-0.0014606129 -0.0012770028 839.48039)
(0.0020726309 -0.0015785742 839.48158)
(0.0047147539 -0.001681317 839.4838)
(0.0025286146 -0.0017996518 839.48501)
(0.0012311857 -0.0019069495 839.48571)
(3.7675602e-05 -0.0020001481 839.48591)
(-0.0010918183 -0.0020831306 839.48561)
(-0.0021602816 -0.0021602816 839.48484)
(-0.0031497712 -0.0022336019 839.48358)
(-0.0040214037 -0.0022998426 839.48183)
(-0.0014738658 -0.0023458212 839.47953)
(0.0020278626 -0.0023861887 839.4806)
(0.0045778369 -0.0026150236 839.48276)
(0.002400788 -0.0027899936 839.48391)
(0.0011258319 -0.0029138907 839.48456)
(-5.0089028e-05 -0.0030057581 839.48471)
(-0.0011694976 -0.003080831 839.48439)
(-0.0022336019 -0.0031497712 839.48358)
(-0.003220392 -0.003220392 839.48229)
(-0.0040820098 -0.003297346 839.4805)
(-0.0014912654 -0.003372224 839.47817)
(0.0019200743 -0.0028556872 839.47924)
(0.0043109491 -0.0034891514 839.48126)
(0.0022297475 -0.0037176529 839.48231)
(0.0010154212 -0.0038388864 839.4829)
(-0.00012926467 -0.0039138986 839.48302)
(-0.0012358315 -0.0039697905 839.48267)
(-0.0022998426 -0.0040214037 839.48183)
(-0.003297346 -0.0040820098 839.4805)
(-0.0041732357 -0.0041732357 839.47867)
(-0.0015237845 -0.0043448818 839.47628)
(0.0016055531 -0.00099247639 839.47759)
(0.0037158712 -0.0013069976 839.47917)
(0.002051053 -0.001389195 839.48012)
(0.00092958623 -0.0014261273 839.48067)
(-0.00018099311 -0.0014464183 839.48076)
(-0.0012770028 -0.0014606129 839.48039)
(-0.0023458212 -0.0014738658 839.47953)
(-0.003372224 -0.0014912654 839.47817)
(-0.0043448818 -0.0015237845 839.47628)
(-0.0016056961 -0.0016056961 839.47371)
(0.0034206689 0.0034206689 833.99335)
(0.0077995481 0.0029914076 833.99586)
(0.004306257 0.0028943608 833.99719)
(0.0023768361 0.0028540224 833.998)
(0.00065156689 0.002828495 833.99833)
(-0.00093506763 0.0028041546 833.99818)
(-0.0023727004 0.0027702249 833.99759)
(-0.0035959387 0.0027058342 833.99655)
(-0.0044139248 0.0025499476 833.99513)
(-0.0015621171 0.0020926521 833.99341)
(0.0029914075 0.0077995481 833.99586)
(0.0070100858 0.0070100858 833.99805)
(0.0041001792 0.0067624353 833.99931)
(0.0022780374 0.0066307778 834.00009)
(0.0005767652 0.0065355272 834.0004)
(-0.0010224728 0.0064426045 834.00023)
(-0.002520181 0.0063224169 833.9996)
(-0.0039263547 0.0061260511 833.99851)
(-0.0053336978 0.005741826 833.99695)
(-0.0020194126 0.0048819286 833.99481)
(0.0028943608 0.004306257 833.99719)
(0.0067624353 0.0041001792 833.99931)
(0.0039269489 0.0039269489 834.00051)
(0.002149928 0.0037892021 834.00126)
(0.00046339359 0.0036699495 834.00153)
(-0.0011481779 0.0035504855 834.00133)
(-0.0026892538 0.0034109912 834.00066)
(-0.0041765297 0.0032283204 833.99951)
(-0.0056580472 0.0029840565 833.99786)
(-0.002135382 0.0027317475 833.99562)
(0.0028540224 0.0023768361 833.998)
(0.0066307778 0.0022780374 834.00009)
(0.0037892021 0.002149928 834.00126)
(0.002021038 0.002021038 834.00196)
(0.00033804853 0.0018959402 834.0022)
(-0.0012814311 0.0017695125 834.00197)
(-0.0028423461 0.0016337897 834.00126)
(-0.0043532894 0.0014833154 834.00006)
(-0.0058302707 0.0013257621 833.99835)
(-0.0021876186 0.0012040558 833.99606)
(0.002828495 0.00065156689 833.99833)
(0.0065355272 0.00057676519 834.0004)
(0.0036699495 0.00046339358 834.00153)
(0.0018959402 0.00033804853 834.0022)
(0.00021186805 0.00021186806 834.00241)
(-0.0014103284 8.636634e-05 834.00213)
(-0.0029754509 -3.998852e-05 834.00138)
(-0.0044845573 -0.00016565154 834.00015)
(-0.0059373069 -0.00027911692 833.9984)
(-0.0022165196 -0.00035315084 833.99609)
(0.0028041546 -0.00093506763 833.99818)
(0.0064426045 -0.0010224728 834.00023)
(0.0035504855 -0.0011481779 834.00133)
(0.0017695125 -0.0012814311 834.00197)
(8.6366336e-05 -0.0014103284 834.00213)
(-0.0015332877 -0.0015332877 834.00183)
(-0.003094364 -0.001651547 834.00104)
(-0.0045924178 -0.0017634952 833.99977)
(-0.00601777 -0.001859682 833.99799)
(-0.0022369745 -0.0019197913 833.99566)
(0.0027702249 -0.0023727004 833.99759)
(0.0063224169 -0.002520181 833.9996)
(0.0034109912 -0.0026892538 834.00066)
(0.0016337897 -0.0028423461 834.00126)
(-3.9988531e-05 -0.0029754509 834.00138)
(-0.001651547 -0.003094364 834.00104)
(-0.0032056583 -0.0032056584 834.00022)
(-0.0046926923 -0.0033126525 833.99891)
(-0.006093603 -0.0034110989 833.9971)
(-0.0022565924 -0.0034812089 833.99476)
(0.0027058342 -0.0035959388 833.99655)
(0.0061260511 -0.0039263547 833.99851)
(0.0032283203 -0.0041765297 833.99951)
(0.0014833154 -0.0043532894 834.00006)
(-0.00016565154 -0.0044845572 834.00015)
(-0.0017634952 -0.0045924178 833.99977)
(-0.0033126525 -0.0046926923 833.99891)
(-0.0047978583 -0.0047978583 833.99757)
(-0.0061863263 -0.0049169417 833.99573)
(-0.0022837145 -0.005039 833.99335)
(0.0025499476 -0.0044139248 833.99513)
(0.005741826 -0.0053336978 833.99695)
(0.0029840565 -0.0056580472 833.99786)
(0.0013257621 -0.0058302707 833.99835)
(-0.00027911692 -0.0059373069 833.9984)
(-0.001859682 -0.00601777 833.99799)
(-0.0034110989 -0.006093603 833.9971)
(-0.0049169417 -0.0061863263 833.99573)
(-0.0063347446 -0.0063347446 833.99383)
(-0.0023379646 -0.0066339688 833.99139)
(0.0020926521 -0.0015621171 833.99341)
(0.0048819286 -0.0020194126 833.99481)
(0.0027317475 -0.002135382 833.99562)
(0.0012040558 -0.0021876186 833.99606)
(-0.00035315084 -0.0022165196 833.99609)
(-0.0019197913 -0.0022369745 833.99566)
(-0.0034812088 -0.0022565924 833.99476)
(-0.005039 -0.0022837145 833.99335)
(-0.0066339688 -0.0023379646 833.99139)
(-0.0024831973 -0.0024831973 833.98876)
(0.0042270608 0.0042270608 828.58583)
(0.0096375705 0.0036950621 828.58817)
(0.0053141085 0.0035750584 828.58937)
(0.0029002284 0.0035246661 828.59009)
(0.00070894117 0.0034923106 828.59034)
(-0.0013326565 0.0034610956 828.59014)
(-0.0032096102 0.0034172846 828.5895)
(-0.0048433556 0.0033338081 828.58844)
(-0.0059970394 0.0031311152 828.587)
(-0.0021365304 0.0025350809 828.58529)
(0.0036950621 0.0096375705 828.58817)
(0.0086595668 0.0086595668 828.59022)
(0.0050585144 0.0083524618 828.59135)
(0.0027761067 0.0081873185 828.59203)
(0.00061358545 0.0080663121 828.59227)
(-0.0014451954 0.0079471234 828.59205)
(-0.0034005414 0.0077920907 828.59138)
(-0.0052726097 0.0075379884 828.59027)
(-0.0071951302 0.0070397265 828.58869)
(-0.0027325647 0.0059227746 828.58657)
(0.0035750584 0.0053141085 828.58937)
(0.0083524618 0.0050585144 828.59135)
(0.0048418601 0.0048418602 828.59244)
(0.0026140788 0.0046678012 828.59308)
(0.00046874611 0.0045157276 828.59329)
(-0.001606878 0.0043623721 828.59304)
(-0.0036187452 0.0041825983 828.59233)
(-0.0055957197 0.0039467652 828.59116)
(-0.0076122532 0.0036315244 828.58949)
(-0.002881165 0.0033081216 828.58728)
(0.0035246661 0.0029002284 828.59009)
(0.0081873185 0.0027761067 828.59203)
(0.0046678012 0.0026140788 828.59308)
(0.0024499741 0.0024499741 828.5937)
(0.00030815643 0.0022898073 828.59386)
(-0.0017783247 0.0021272579 828.59358)
(-0.0038161484 0.00195228 828.59284)
(-0.0058236836 0.0017580421 828.59162)
(-0.0078337738 0.0015547718 828.5899)
(-0.0029481666 0.0013983993 828.58764)
(0.0034923106 0.00070894116 828.59034)
(0.0080663121 0.00061358545 828.59227)
(0.0045157276 0.0004687461 828.59329)
(0.0022898073 0.00030815643 828.59386)
(0.00014602988 0.00014602987 828.594)
(-0.0019444053 -1.5670993e-05 828.59368)
(-0.0039879611 -0.00017886859 828.5929)
(-0.0059932279 -0.00034146974 828.59164)
(-0.0079718959 -0.00048840949 828.58988)
(-0.0029854133 -0.00058419321 828.5876)
(0.0034610956 -0.0013326565 828.59014)
(0.0079471234 -0.0014451954 828.59205)
(0.0043623721 -0.001606878 828.59304)
(0.0021272579 -0.0017783247 828.59358)
(-1.5670992e-05 -0.0019444053 828.59368)
(-0.0021032232 -0.0021032232 828.59332)
(-0.0041419471 -0.0022564856 828.59251)
(-0.0061332245 -0.002402173 828.59121)
(-0.0080764972 -0.0025279388 828.58943)
(-0.0030120224 -0.0026068836 828.58713)
(0.0034172846 -0.0032096102 828.5895)
(0.0077920906 -0.0034005414 828.59138)
(0.0041825983 -0.0036187452 828.59233)
(0.00195228 -0.0038161484 828.59284)
(-0.0001788686 -0.0039879611 828.5929)
(-0.0022564855 -0.0041419471 828.59251)
(-0.0042869109 -0.0042869109 828.59166)
(-0.0062646811 -0.0044275318 828.59033)
(-0.0081766065 -0.0045585092 828.58852)
(-0.0030380432 -0.0046531154 828.5862)
(0.0033338081 -0.0048433556 828.58844)
(0.0075379884 -0.0052726097 828.59027)
(0.0039467652 -0.0055957197 828.59116)
(0.0017580421 -0.0058236836 828.59162)
(-0.00034146975 -0.0059932279 828.59164)
(-0.002402173 -0.0061332245 828.59121)
(-0.0044275318 -0.0062646811 828.59033)
(-0.0064048228 -0.0064048228 828.58897)
(-0.0083020809 -0.0065669522 828.58712)
(-0.0030750932 -0.0067367956 828.58477)
(0.0031311152 -0.0059970394 828.587)
(0.0070397266 -0.0071951302 828.58869)
(0.0036315244 -0.0076122532 828.58949)
(0.0015547718 -0.0078337738 828.5899)
(-0.00048840949 -0.0079718959 828.58988)
(-0.0025279388 -0.0080764973 828.58943)
(-0.0045585092 -0.0081766065 828.58852)
(-0.0065669522 -0.0083020809 828.58712)
(-0.0085085792 -0.0085085792 828.58522)
(-0.0031512721 -0.0089335049 828.58281)
(0.0025350809 -0.0021365304 828.58529)
(0.0059227746 -0.0027325647 828.58657)
(0.0033081216 -0.002881165 828.58728)
(0.0013983993 -0.0029481666 828.58764)
(-0.00058419321 -0.0029854133 828.5876)
(-0.0026068836 -0.0030120224 828.58713)
(-0.0046531154 -0.0030380432 828.5862)
(-0.0067367956 -0.0030750932 828.58477)
(-0.0089335049 -0.0031512721 828.58281)
(-0.003358377 -0.003358377 828.58021)
(0.0049840797 0.0049840797 823.25257)
(0.011344777 0.0043539585 823.25477)
(0.0062188056 0.0042123012 823.25587)
(0.003342248 0.0041524804 823.25649)
(0.00070689961 0.0041136814 823.25668)
(-0.0017701171 0.0040759108 823.25644)
(-0.0040693526 0.0040226123 823.25578)
(-0.0060967079 0.0039207691 823.25472)
(-0.0075650054 0.0036730382 823.25329)
(-0.0027018219 0.00294361 823.25162)
(0.0043539585 0.011344777 823.25477)
(0.010187109 0.010187109 823.25669)
(0.0059165885 0.0098240985 823.25772)
(0.0031943183 0.0096275518 823.25831)
(0.00059204516 0.0094822195 823.25848)
(-0.0019067209 0.0093379875 823.25822)
(-0.0043020651 0.0091495214 823.25754)
(-0.0066210689 0.00883989 823.25642)
(-0.009030744 0.008231945 823.25486)
(-0.0034312501 0.0068679585 823.2528)
(0.0042123012 0.0062188056 823.25587)
(0.0098240985 0.0059165885 823.25772)
(0.0056592485 0.0056592485 823.2587)
(0.003000369 0.005451058 823.25927)
(0.00041733532 0.0052679065 823.25941)
(-0.0021028153 0.0050822134 823.25912)
(-0.0045674501 0.0048638061 823.25839)
(-0.0070142842 0.0045768716 823.25722)
(-0.0095369369 0.0041934095 823.25558)
(-0.0036111462 0.0038018157 823.25343)
(0.0041524804 0.003342248 823.25649)
(0.0096275518 0.0031943183 823.25831)
(0.005451058 0.003000369 823.25927)
(0.0028029763 0.0028029763 823.2598)
(0.00022320057 0.0026094634 823.25991)
(-0.0023108213 0.0024123706 823.25958)
(-0.0048074069 0.0021996965 823.25882)
(-0.0072914656 0.0019633484 823.2576)
(-0.0098058 0.0017160883 823.25591)
(-0.0036923126 0.0015264212 823.25372)
(0.0041136814 0.00070689961 823.25668)
(0.0094822195 0.00059204515 823.25848)
(0.0052679065 0.00041733533 823.25941)
(0.0026094634 0.00022320057 823.25991)
(2.6729659e-05 2.6729647e-05 823.25998)
(-0.0025125821 -0.00016970691 823.25963)
(-0.0050164724 -0.00036839502 823.25883)
(-0.0074978924 -0.00056667224 823.25757)
(-0.0099738641 -0.00074597399 823.25585)
(-0.003737591 -0.00086276447 823.25363)
(0.0040759108 -0.0017701171 823.25644)
(0.0093379875 -0.0019067209 823.25822)
(0.0050822134 -0.0021028153 823.25912)
(0.0024123706 -0.0023108213 823.25958)
(-0.00016970691 -0.0025125821 823.25963)
(-0.0027059459 -0.0027059459 823.25924)
(-0.0052043722 -0.0028930907 823.2584)
(-0.0076690445 -0.0030715832 823.25712)
(-0.010101892 -0.0032262002 823.25536)
(-0.0037701729 -0.003323534 823.25313)
(0.0040226123 -0.0040693526 823.25578)
(0.0091495214 -0.0043020651 823.25754)
(0.0048638061 -0.0045674501 823.25839)
(0.0021996966 -0.0048074069 823.25882)
(-0.00036839501 -0.0050164724 823.25883)
(-0.0028930907 -0.0052043722 823.2584)
(-0.0053821097 -0.0053821097 823.25754)
(-0.007831002 -0.0055556851 823.25622)
(-0.010225815 -0.0057186851 823.25444)
(-0.0038024802 -0.0058374066 823.25218)
(0.0039207691 -0.0060967079 823.25472)
(0.00883989 -0.0066210689 823.25642)
(0.0045768716 -0.0070142842 823.25722)
(0.0019633483 -0.0072914656 823.2576)
(-0.00056667224 -0.0074978925 823.25757)
(-0.0030715832 -0.0076690445 823.25712)
(-0.0055556851 -0.007831002 823.25622)
(-0.00800562 -0.00800562 823.25487)
(-0.010383614 -0.0082102465 823.25305)
(-0.0038493206 -0.0084269966 823.25077)
(0.0036730382 -0.0075650054 823.25329)
(0.008231945 -0.009030744 823.25486)
(0.0041934095 -0.0095369369 823.25558)
(0.0017160883 -0.0098058 823.25591)
(-0.00074597398 -0.0099738641 823.25585)
(-0.0032262002 -0.010101892 823.25536)
(-0.0057186851 -0.010225815 823.25444)
(-0.0082102465 -0.010383614 823.25305)
(-0.010647191 -0.010647191 823.25118)
(-0.0039469802 -0.011194449 823.24884)
(0.00294361 -0.0027018219 823.25162)
(0.0068679585 -0.0034312501 823.2528)
(0.0038018157 -0.0036111462 823.25343)
(0.0015264212 -0.0036923126 823.25372)
(-0.00086276447 -0.003737591 823.25363)
(-0.003323534 -0.0037701729 823.25313)
(-0.0058374066 -0.0038024802 823.25218)
(-0.0084269966 -0.0038493206 823.25077)
(-0.011194449 -0.0039469802 823.24884)
(-0.0042141588 -0.0042141588 823.24632)
(0.0056932112 0.0056932112 817.99226)
(0.012930155 0.0049698929 817.99431)
(0.0070333284 0.0048078091 817.99531)
(0.0037146842 0.0047391281 817.99586)
(0.00065703433 0.0046942556 817.996)
(-0.0022336426 0.0046502682 817.99572)
(-0.0049336286 0.0045879353 817.99506)
(-0.0073325329 0.0044685794 817.99401)
(-0.0090927172 0.0041779028 817.99262)
(-0.0032498866 0.0033212963 817.99101)
(0.0049698929 0.012930155 817.99431)
(0.011602052 0.011602052 817.9961)
(0.0066871812 0.011186409 817.99703)
(0.003544354 0.010960363 817.99756)
(0.00052374448 0.010792098 817.99768)
(-0.0023931231 0.010624123 817.99739)
(-0.0052061618 0.010403834 817.99669)
(-0.0079475816 0.010041272 817.99559)
(-0.010813642 0.0093287706 817.99408)
(-0.0041064931 0.0077293676 817.9921)
(0.0048078091 0.0070333284 817.99531)
(0.011186409 0.0066871812 817.99703)
(0.0063916399 0.0063916399 817.99793)
(0.0033203731 0.006151364 817.99842)
(0.00032079379 0.0059388776 817.99851)
(-0.0026219064 0.0057225134 817.99819)
(-0.0055164798 0.0054673382 817.99746)
(-0.0084075963 0.0051317017 817.99631)
(-0.011404621 0.0046832309 817.99472)
(-0.0043161552 0.0042267659 817.99265)
(0.0047391281 0.0037146842 817.99586)
(0.010960363 0.003544354 817.99756)
(0.006151364 0.0033203731 817.99842)
(0.0030915917 0.0030915917 817.99888)
(9.4893839e-05 0.0028665219 817.99894)
(-0.0028646625 0.0026366143 817.99859)
(-0.0057969735 0.0023880271 817.99783)
(-0.0087316889 0.0021115058 817.99663)
(-0.011718578 0.001822283 817.99499)
(-0.0044108031 0.0016008996 817.99289)
(0.0046942556 0.00065703431 817.996)
(0.010792098 0.00052374447 817.99768)
(0.0059388776 0.00032079379 817.99851)
(0.0028665219 9.4893828e-05 817.99894)
(-0.00013418358 -0.00013418359 817.99897)
(-0.0031004012 -0.00036369979 817.99859)
(-0.0060415883 -0.00059628002 817.99779)
(-0.0089733404 -0.00082868735 817.99656)
(-0.011915227 -0.0010389648 817.99489)
(-0.0044637442 -0.0011758441 817.99276)
(0.0046502682 -0.0022336426 817.99572)
(0.010624123 -0.0023931231 817.99739)
(0.0057225134 -0.0026219064 817.99819)
(0.0026366143 -0.0028646625 817.99859)
(-0.00036369977 -0.0031004012 817.99859)
(-0.003326759 -0.003326759 817.99818)
(-0.0062619611 -0.0035463712 817.99734)
(-0.0091743737 -0.0037563883 817.99608)
(-0.012065735 -0.0039387783 817.99438)
(-0.004502056 -0.0040538154 817.99224)
(0.0045879353 -0.0049336286 817.99506)
(0.010403834 -0.0052061618 817.99669)
(0.0054673382 -0.0055164798 817.99746)
(0.0023880271 -0.0057969735 817.99783)
(-0.00059628002 -0.0060415883 817.99779)
(-0.0035463712 -0.0062619611 817.99734)
(-0.0064712175 -0.0064712176 817.99648)
(-0.0093657475 -0.0066766123 817.99519)
(-0.012212655 -0.0068706013 817.99346)
(-0.0045404356 -0.0070126565 817.9913)
(0.0044685794 -0.0073325329 817.99401)
(0.010041272 -0.0079475816 817.99559)
(0.0051317017 -0.0084075963 817.99631)
(0.0021115058 -0.0087316889 817.99663)
(-0.00082868735 -0.0089733404 817.99656)
(-0.0037563882 -0.0091743737 817.99608)
(-0.0066766123 -0.0093657475 817.99519)
(-0.0095737574 -0.0095737574 817.99387)
(-0.012401779 -0.009819578 817.99211)
(-0.0045967595 -0.010081699 817.98991)
(0.0041779028 -0.0090927172 817.99262)
(0.0093287706 -0.010813642 817.99408)
(0.0046832309 -0.011404621 817.99472)
(0.001822283 -0.011718578 817.99499)
(-0.0010389648 -0.011915227 817.99489)
(-0.0039387783 -0.012065735 817.99438)
(-0.0068706013 -0.012212655 817.99346)
(-0.009819578 -0.012401779 817.99211)
(-0.012720597 -0.012720597 817.9903)
(-0.0047151833 -0.013385902 817.98805)
(0.0033212963 -0.0032498866 817.99101)
(0.0077293676 -0.0041064931 817.9921)
(0.0042267659 -0.0043161552 817.99265)
(0.0016008996 -0.0044108031 817.99289)
(-0.0011758441 -0.0044637442 817.99276)
(-0.0040538154 -0.004502056 817.99224)
(-0.0070126565 -0.0045404356 817.9913)
(-0.010081699 -0.0045967595 817.98991)
(-0.013385902 -0.0047151833 817.98805)
(-0.0050402963 -0.0050402963 817.98562)
(0.0063532268 0.0063532268 812.80376)
(0.014394918 0.0055421284 812.80566)
(0.0077650155 0.0053608931 812.80657)
(0.0040267361 0.0052839224 812.80705)
(0.00057003091 0.0052333544 812.80714)
(-0.0027104007 0.0051835137 812.80685)
(-0.0057868365 0.0051126517 812.80618)
(-0.0085328596 0.0049767475 812.80516)
(-0.010562269 0.004645483 812.80383)
(-0.0037750752 0.0036686682 812.8023)
(0.0055421284 0.014394918 812.80566)
(0.012906417 0.012906417 812.80731)
(0.0073777065 0.012441487 812.80816)
(0.003835428 0.012187848 812.80862)
(0.00041941792 0.011998076 812.80869)
(-0.0028914546 0.011807751 812.80838)
(-0.0060969859 0.01155743 812.80769)
(-0.0092336127 0.011144865 812.80663)
(-0.012524388 0.010333582 812.80518)
(-0.00475189 0.0085117771 812.80329)
(0.0053608931 0.0077650155 812.80657)
(0.012441487 0.0073777066 812.80816)
(0.0070464462 0.0070464462 812.80897)
(0.0035833243 0.0067761405 812.8094)
(0.00018993432 0.0065361231 812.80945)
(-0.0031510467 0.0062908809 812.80911)
(-0.0064497232 0.0060010076 812.80839)
(-0.0097567077 0.0056193694 812.80727)
(-0.013195357 0.0051095069 812.80575)
(-0.0049896115 0.0045918767 812.80379)
(0.0052839224 0.0040267361 812.80705)
(0.012187848 0.003835428 812.80862)
(0.0067761405 0.0035833243 812.8094)
(0.0033251049 0.0033251049 812.8098)
(-6.5841666e-05 0.0030703673 812.80982)
(-0.0034265701 0.0028095279 812.80945)
(-0.0067684973 0.0025270207 812.8087)
(-0.010125113 0.0022125218 812.80754)
(-0.013551881 0.0018836364 812.80597)
(-0.0050969768 0.0016323129 812.80397)
(0.0052333544 0.00057003091 812.80714)
(0.011998076 0.0004194179 812.80869)
(0.006536123 0.0001899343 812.80945)