/*--------------------------------*- C++ -*----------------------------------*\
| =========                 |                                                 |
| \\      /  F ield         | OpenFOAM: The Open Source CFD Toolbox           |
|  \\    /   O peration     | Version:  v2106                                 |
|   \\  /    A nd           | Website:  www.openfoam.com                      |
|    \\/     M anipulation  |                                                 |
\*---------------------------------------------------------------------------*/
FoamFile
{
    version     2.0;
    format      ascii;
    arch        "LSB;label=32;scalar=64";
    class       volScalarField;
    location    "65";
    object      gradTz;
}
// * * * * * * * * * * * * * * * * * * * * * * * * * * * * * * * * * * * * * //

dimensions      [0 -1 0 1 0 0 0];

internalField   nonuniform List<scalar> 
4000
(
580.85992
580.85535
580.85499
580.85472
580.85465
580.85476
580.85505
580.85554
580.85626
580.85714
580.85535
580.85225
580.85196
580.85172
580.85166
580.85177
580.85204
580.85251
580.85326
580.85453
580.85499
580.85196
580.85173
580.85152
580.85147
580.85157
580.85183
580.85226
580.85292
580.85405
580.85472
580.85172
580.85152
580.85134
580.85129
580.85139
580.85163
580.85203
580.85266
580.85376
580.85465
580.85166
580.85147
580.85129
580.85125
580.85134
580.85157
580.85196
580.85257
580.85366
580.85476
580.85177
580.85157
580.85139
580.85134
580.85142
580.85165
580.85203
580.85264
580.85373
580.85505
580.85204
580.85183
580.85163
580.85157
580.85165
580.85187
580.85226
580.85288
580.85398
580.85554
580.85251
580.85226
580.85203
580.85196
580.85203
580.85226
580.85267
580.85331
580.85443
580.85626
580.85326
580.85292
580.85266
580.85257
580.85264
580.85288
580.85331
580.85399
580.85516
580.85714
580.85453
580.85405
580.85376
580.85366
580.85373
580.85398
580.85443
580.85516
580.85643
1178.3972
1178.3904
1178.3896
1178.3891
1178.389
1178.3892
1178.3898
1178.3907
1178.3922
1178.3946
1178.3904
1178.3855
1178.3849
1178.3845
1178.3844
1178.3846
1178.3851
1178.386
1178.3875
1178.3907
1178.3896
1178.3849
1178.3844
1178.384
1178.384
1178.3842
1178.3846
1178.3854
1178.3867
1178.3897
1178.3891
1178.3845
1178.384
1178.3837
1178.3836
1178.3838
1178.3843
1178.385
1178.3862
1178.3891
1178.389
1178.3844
1178.384
1178.3836
1178.3836
1178.3837
1178.3842
1178.3849
1178.3861
1178.389
1178.3892
1178.3846
1178.3842
1178.3838
1178.3837
1178.3839
1178.3843
1178.385
1178.3862
1178.3891
1178.3898
1178.3851
1178.3846
1178.3843
1178.3842
1178.3843
1178.3847
1178.3855
1178.3867
1178.3896
1178.3907
1178.386
1178.3854
1178.385
1178.3849
1178.385
1178.3855
1178.3862
1178.3875
1178.3904
1178.3922
1178.3875
1178.3867
1178.3862
1178.3861
1178.3862
1178.3867
1178.3875
1178.3888
1178.3919
1178.3946
1178.3907
1178.3897
1178.3891
1178.389
1178.3891
1178.3896
1178.3904
1178.3919
1178.3955
1131.8606
1131.8562
1131.8557
1131.8554
1131.8554
1131.8556
1131.856
1131.8568
1131.8582
1131.861
1131.8562
1131.8531
1131.8527
1131.8524
1131.8524
1131.8526
1131.853
1131.8537
1131.8549
1131.8584
1131.8557
1131.8527
1131.8524
1131.8522
1131.8522
1131.8523
1131.8527
1131.8533
1131.8544
1131.8576
1131.8554
1131.8524
1131.8522
1131.852
1131.852
1131.8521
1131.8525
1131.8531
1131.854
1131.8572
1131.8554
1131.8524
1131.8522
1131.852
1131.852
1131.8521
1131.8524
1131.853
1131.8539
1131.8571
1131.8556
1131.8526
1131.8523
1131.8521
1131.8521
1131.8522
1131.8526
1131.8531
1131.854
1131.8572
1131.856
1131.853
1131.8527
1131.8525
1131.8524
1131.8526
1131.8529
1131.8534
1131.8544
1131.8575
1131.8568
1131.8537
1131.8533
1131.8531
1131.853
1131.8531
1131.8534
1131.854
1131.855
1131.8582
1131.8582
1131.8549
1131.8544
1131.854
1131.8539
1131.854
1131.8544
1131.855
1131.8561
1131.8596
1131.861
1131.8584
1131.8576
1131.8572
1131.8571
1131.8572
1131.8575
1131.8582
1131.8596
1131.8639
1089.972
1089.9686
1089.9685
1089.9684
1089.9685
1089.9687
1089.969
1089.9696
1089.9706
1089.9731
1089.9686
1089.9663
1089.9663
1089.9662
1089.9663
1089.9665
1089.9668
1089.9672
1089.9681
1089.9711
1089.9685
1089.9663
1089.9663
1089.9663
1089.9663
1089.9665
1089.9667
1089.9671
1089.9678
1089.9706
1089.9684
1089.9662
1089.9663
1089.9663
1089.9663
1089.9664
1089.9667
1089.967
1089.9676
1089.9703
1089.9685
1089.9663
1089.9663
1089.9663
1089.9663
1089.9664
1089.9667
1089.967
1089.9675
1089.9703
1089.9687
1089.9665
1089.9665
1089.9664
1089.9664
1089.9665
1089.9667
1089.967
1089.9676
1089.9703
1089.969
1089.9668
1089.9667
1089.9667
1089.9667
1089.9667
1089.9669
1089.9672
1089.9678
1089.9706
1089.9696
1089.9672
1089.9671
1089.967
1089.967
1089.967
1089.9672
1089.9676
1089.9682
1089.9711
1089.9706
1089.9681
1089.9678
1089.9676
1089.9675
1089.9676
1089.9678
1089.9682
1089.969
1089.9721
1089.9731
1089.9711
1089.9706
1089.9703
1089.9703
1089.9703
1089.9706
1089.9711
1089.9721
1089.9762
1051.9638
1051.9611
1051.9613
1051.9614
1051.9615
1051.9616
1051.9619
1051.9622
1051.9629
1051.9649
1051.9611
1051.9594
1051.9597
1051.9598
1051.9599
1051.96
1051.9602
1051.9604
1051.961
1051.9634
1051.9613
1051.9597
1051.9599
1051.96
1051.9601
1051.9603
1051.9604
1051.9606
1051.9609
1051.9632
1051.9614
1051.9598
1051.96
1051.9602
1051.9603
1051.9604
1051.9605
1051.9606
1051.9608
1051.963
1051.9615
1051.9599
1051.9601
1051.9603
1051.9603
1051.9604
1051.9605
1051.9606
1051.9608
1051.963
1051.9616
1051.96
1051.9603
1051.9604
1051.9604
1051.9605
1051.9605
1051.9606
1051.9608
1051.963
1051.9619
1051.9602
1051.9604
1051.9605
1051.9605
1051.9605
1051.9606
1051.9607
1051.9609
1051.9631
1051.9622
1051.9604
1051.9606
1051.9606
1051.9606
1051.9606
1051.9607
1051.9608
1051.9611
1051.9634
1051.9629
1051.961
1051.9609
1051.9608
1051.9608
1051.9608
1051.9609
1051.9611
1051.9615
1051.964
1051.9649
1051.9634
1051.9632
1051.963
1051.963
1051.963
1051.9631
1051.9634
1051.964
1051.9676
1017.24
1017.238
1017.2384
1017.2386
1017.2388
1017.2389
1017.239
1017.2392
1017.2396
1017.2412
1017.238
1017.2368
1017.2373
1017.2375
1017.2376
1017.2377
1017.2378
1017.2379
1017.2381
1017.24
1017.2384
1017.2373
1017.2377
1017.238
1017.2381
1017.2382
1017.2382
1017.2382
1017.2382
1017.2399
1017.2386
1017.2375
1017.238
1017.2382
1017.2383
1017.2384
1017.2384
1017.2383
1017.2382
1017.2399
1017.2388
1017.2376
1017.2381
1017.2383
1017.2385
1017.2385
1017.2384
1017.2383
1017.2382
1017.2399
1017.2389
1017.2377
1017.2382
1017.2384
1017.2385
1017.2385
1017.2384
1017.2383
1017.2382
1017.2398
1017.239
1017.2378
1017.2382
1017.2384
1017.2384
1017.2384
1017.2384
1017.2383
1017.2382
1017.2398
1017.2392
1017.2379
1017.2382
1017.2383
1017.2383
1017.2383
1017.2383
1017.2382
1017.2381
1017.2399
1017.2396
1017.2381
1017.2382
1017.2382
1017.2382
1017.2382
1017.2382
1017.2381
1017.2382
1017.2402
1017.2412
1017.24
1017.2399
1017.2399
1017.2399
1017.2398
1017.2398
1017.2399
1017.2402
1017.2431
985.33011
985.32858
985.3292
985.32953
985.32972
985.3298
985.3298
985.32977
985.3299
985.33109
985.32858
985.32783
985.32845
985.32878
985.32896
985.32902
985.32898
985.32884
985.32875
985.3302
985.3292
985.32845
985.32908
985.32941
985.32958
985.32961
985.32952
985.3293
985.32902
985.33028
985.32953
985.32878
985.32941
985.32973
985.32988
985.32989
985.32976
985.32948
985.32913
985.33033
985.32972
985.32896
985.32958
985.32988
985.33002
985.33
985.32984
985.32952
985.32914
985.33032
985.3298
985.32902
985.32961
985.32989
985.33
985.32996
985.32979
985.32946
985.32907
985.33024
985.3298
985.32898
985.32952
985.32976
985.32984
985.32979
985.3296
985.32928
985.3289
985.33009
985.32977
985.32884
985.3293
985.32948
985.32952
985.32946
985.32928
985.32899
985.32866
985.3299
985.3299
985.32875
985.32902
985.32913
985.32914
985.32907
985.3289
985.32866
985.32844
985.32988
985.33109
985.3302
985.33028
985.33033
985.33032
985.33024
985.33009
985.3299
985.32988
985.33225
955.85659
955.85553
955.85628
955.85668
955.85689
955.85692
955.85682
955.85662
955.85651
955.85735
955.85553
955.85514
955.85588
955.85628
955.85647
955.85649
955.85634
955.85604
955.85571
955.85672
955.85628
955.85588
955.85662
955.85701
955.85719
955.85718
955.85698
955.85659
955.85608
955.85691
955.85668
955.85628
955.85701
955.85739
955.85755
955.85751
955.85727
955.85683
955.85625
955.85702
955.85689
955.85647
955.85719
955.85755
955.85768
955.85762
955.85735
955.85688
955.85626
955.85701
955.85692
955.85649
955.85718
955.85751
955.85762
955.85753
955.85725
955.85676
955.85613
955.85687
955.85682
955.85634
955.85698
955.85727
955.85735
955.85725
955.85696
955.85647
955.85585
955.8566
955.85662
955.85604
955.85659
955.85683
955.85688
955.85676
955.85647
955.856
955.85543
955.85623
955.85651
955.85571
955.85608
955.85625
955.85626
955.85613
955.85585
955.85543
955.85495
955.85592
955.85735
955.85672
955.85691
955.85702
955.85701
955.85687
955.8566
955.85623
955.85592
955.85776
928.51311
928.51246
928.5133
928.51375
928.51395
928.51395
928.51375
928.51341
928.5131
928.51362
928.51246
928.51238
928.5132
928.51364
928.51383
928.51381
928.51357
928.51313
928.51259
928.51323
928.5133
928.5132
928.514
928.51443
928.51461
928.51455
928.51427
928.51374
928.51304
928.5135
928.51375
928.51364
928.51443
928.51484
928.515
928.51492
928.51459
928.51401
928.51324
928.51364
928.51395
928.51383
928.51461
928.515
928.51513
928.51502
928.51467
928.51405
928.51325
928.51362
928.51395
928.51381
928.51455
928.51492
928.51502
928.51489
928.51451
928.51389
928.51307
928.51343
928.51375
928.51357
928.51427
928.51459
928.51467
928.51451
928.51413
928.5135
928.51269
928.51306
928.51341
928.51313
928.51374
928.51401
928.51405
928.51389
928.5135
928.51289
928.51211
928.51253
928.5131
928.51259
928.51304
928.51324
928.51325
928.51307
928.51269
928.51211
928.51141
928.51198
928.51362
928.51323
928.5135
928.51364
928.51362
928.51343
928.51306
928.51253
928.51198
928.51334
903.04815
903.04786
903.04875
903.04922
903.04942
903.04937
903.0491
903.04864
903.04816
903.04841
903.04786
903.04804
903.0489
903.04936
903.04955
903.04948
903.04917
903.04862
903.04792
903.04821
903.04875
903.0489
903.04974
903.05019
903.05035
903.05026
903.0499
903.04927
903.04841
903.04854
903.04922
903.04936
903.05019
903.05062
903.05076
903.05064
903.05024
903.04955
903.04863
903.04871
903.04942
903.04955
903.05035
903.05076
903.05088
903.05073
903.0503
903.04958
903.04863
903.04868
903.04937
903.04948
903.05026
903.05064
903.05073
903.05055
903.0501
903.04937
903.0484
903.04844
903.0491
903.04917
903.0499
903.05024
903.0503
903.0501
903.04964
903.0489
903.04794
903.04799
903.04864
903.04862
903.04927
903.04955
903.04958
903.04937
903.0489
903.04818
903.04724
903.04732
903.04816
903.04792
903.04841
903.04863
903.04863
903.0484
903.04794
903.04724
903.04637
903.04658
903.04841
903.04821
903.04854
903.04871
903.04868
903.04844
903.04799
903.04732
903.04658
903.04751
879.25313
879.25316
879.25406
879.25455
879.25473
879.25464
879.2543
879.25375
879.25313
879.25315
879.25316
879.25356
879.25443
879.25489
879.25506
879.25496
879.25458
879.25394
879.25312
879.25312
879.25406
879.25443
879.25527
879.25572
879.25587
879.25574
879.25532
879.25461
879.25364
879.25349
879.25455
879.25489
879.25572
879.25615
879.25628
879.25612
879.25566
879.2549
879.25387
879.25366
879.25473
879.25506
879.25587
879.25628
879.25638
879.25619
879.25571
879.25491
879.25385
879.25362
879.25464
879.25496
879.25574
879.25612
879.25619
879.25598
879.25547
879.25466
879.25358
879.25335
879.2543
879.25458
879.25532
879.25566
879.25571
879.25547
879.25495
879.25413
879.25305
879.25283
879.25375
879.25394
879.25461
879.2549
879.25491
879.25466
879.25413
879.25332
879.25226
879.25206
879.25313
879.25312
879.25364
879.25387
879.25385
879.25358
879.25305
879.25226
879.25126
879.25116
879.25315
879.25312
879.25349
879.25366
879.25362
879.25335
879.25283
879.25206
879.25116
879.2517
856.95348
856.95379
856.95469
856.95516
856.95533
856.9552
856.95481
856.95419
856.95346
856.95327
856.95379
856.95437
856.95523
856.95569
856.95584
856.95569
856.95527
856.95456
856.95365
856.9534
856.95469
856.95523
856.95606
856.9565
856.95663
856.95646
856.956
856.95522
856.95417
856.95379
856.95516
856.95569
856.9565
856.95692
856.95702
856.95683
856.95633
856.95551
856.9544
856.95397
856.95533
856.95584
856.95663
856.95702
856.9571
856.95688
856.95635
856.9555
856.95437
856.95391
856.9552
856.95569
856.95646
856.95683
856.95688
856.95664
856.95609
856.95522
856.95407
856.95361
856.95481
856.95527
856.956
856.95633
856.95635
856.95609
856.95552
856.95465
856.95349
856.95303
856.95419
856.95456
856.95522
856.95551
856.9555
856.95522
856.95465
856.95377
856.95264
856.95219
856.95346
856.95365
856.95417
856.9544
856.95437
856.95407
856.95349
856.95264
856.95154
856.95118
856.95327
856.9534
856.95379
856.95397
856.95391
856.95361
856.95303
856.95219
856.95118
856.95139
836.0019
836.00244
836.00332
836.00377
836.00391
836.00376
836.00333
836.00266
836.00185
836.00149
836.00244
836.00317
836.004
836.00443
836.00456
836.00439
836.00393
836.00318
836.0022
836.00175
836.00332
836.004
836.0048
836.00521
836.00532
836.00512
836.00463
836.00382
836.00272
836.00214
836.00377
836.00443
836.00521
836.00561
836.00569
836.00547
836.00494
836.00409
836.00294
836.00232
836.00391
836.00456
836.00532
836.00569
836.00575
836.0055
836.00495
836.00407
836.00289
836.00225
836.00376
836.00439
836.00512
836.00547
836.0055
836.00523
836.00466
836.00376
836.00257
836.00192
836.00333
836.00393
836.00463
836.00494
836.00495
836.00466
836.00407
836.00316
836.00197
836.00131
836.00266
836.00318
836.00382
836.00409
836.00407
836.00376
836.00316
836.00225
836.00107
836.00043
836.00185
836.0022
836.00272
836.00294
836.00289
836.00257
836.00197
836.00107
835.99991
835.99934
836.00149
836.00175
836.00214
836.00232
836.00225
836.00192
836.00131
836.00043
835.99934
835.99924
816.27308
816.27383
816.27466
816.27508
816.2752
816.27502
816.27457
816.27386
816.27301
816.27249
816.27383
816.27467
816.27545
816.27586
816.27596
816.27577
816.27529
816.27451
816.2735
816.27286
816.27466
816.27545
816.2762
816.27659
816.27667
816.27645
816.27594
816.27512
816.274
816.27326
816.27508
816.27586
816.27659
816.27695
816.27701
816.27677
816.27623
816.27537
816.27421
816.27343
816.2752
816.27596
816.27667
816.27701
816.27705
816.27678
816.27621
816.27533
816.27414
816.27334
816.27502
816.27577
816.27645
816.27677
816.27678
816.2765
816.27591
816.27501
816.2738
816.273
816.27457
816.27529
816.27594
816.27623
816.27621
816.27591
816.27531
816.27439
816.27318
816.27238
816.27386
816.27451
816.27512
816.27537
816.27533
816.27501
816.27439
816.27347
816.27227
816.27147
816.27301
816.2735
816.274
816.27421
816.27414
816.2738
816.27318
816.27227
816.27108
816.27033
816.27249
816.27286
816.27326
816.27343
816.27334
816.273
816.27238
816.27147
816.27033
816.26997
797.6597
797.66062
797.66139
797.66178
797.66187
797.66167
797.6612
797.66048
797.65959
797.65896
797.66062
797.66155
797.66227
797.66264
797.66272
797.6625
797.66201
797.66124
797.66021
797.65943
797.66139
797.66227
797.66296
797.66331
797.66336
797.66313
797.66261
797.66179
797.66068
797.65981
797.66178
797.66264
797.66331
797.66364
797.66367
797.66342
797.66287
797.66202
797.66087
797.65997
797.66187
797.66272
797.66336
797.66367
797.66368
797.66341
797.66284
797.66196
797.66079
797.65987
797.66167
797.6625
797.66313
797.66342
797.66341
797.66311
797.66252
797.66163
797.66045
797.65952
797.6612
797.66201
797.66261
797.66287
797.66284
797.66252
797.66192
797.66102
797.65982
797.6589
797.66048
797.66124
797.66179
797.66202
797.66196
797.66163
797.66102
797.66011
797.65891
797.65798
797.65959
797.66021
797.66068
797.66087
797.66079
797.66045
797.65982
797.65891
797.65772
797.65683
797.65896
797.65943
797.65981
797.65997
797.65987
797.65952
797.6589
797.65798
797.65683
797.65625
780.06918
780.07023
780.07093
780.07128
780.07134
780.07113
780.07066
780.06994
780.06904
780.06832
780.07023
780.07123
780.07188
780.07221
780.07226
780.07203
780.07154
780.07078
780.06976
780.06886
780.07093
780.07188
780.0725
780.07281
780.07284
780.07259
780.07208
780.07128
780.07019
780.06923
780.07128
780.07221
780.07281
780.07309
780.0731
780.07284
780.0723
780.07147
780.07036
780.06937
780.07134
780.07226
780.07284
780.0731
780.07309
780.07281
780.07225
780.07141
780.07027
780.06927
780.07113
780.07203
780.07259
780.07284
780.07281
780.07251
780.07194
780.07108
780.06993
780.06891
780.07066
780.07154
780.07208
780.0723
780.07225
780.07194
780.07135
780.07047
780.06932
780.0683
780.06994
780.07078
780.07128
780.07147
780.07141
780.07108
780.07047
780.06959
780.06843
780.0674
780.06904
780.06976
780.07019
780.07036
780.07027
780.06993
780.06932
780.06843
780.06726
780.06626
780.06832
780.06886
780.06923
780.06937
780.06927
780.06891
780.0683
780.0674
780.06626
780.06549
763.42114
763.42231
763.42293
763.42324
763.42327
763.42305
763.42258
763.42188
763.42099
763.42019
763.42231
763.42335
763.42392
763.42421
763.42423
763.424
763.42351
763.42277
763.42179
763.4208
763.42293
763.42392
763.42446
763.42472
763.42473
763.42448
763.42398
763.42321
763.42218
763.42114
763.42324
763.42421
763.42472
763.42496
763.42495
763.42469
763.42417
763.42338
763.42232
763.42126
763.42327
763.42423
763.42473
763.42495
763.42492
763.42464
763.4241
763.4233
763.42222
763.42115
763.42305
763.424
763.42448
763.42469
763.42464
763.42434
763.42379
763.42298
763.42189
763.42081
763.42258
763.42351
763.42398
763.42417
763.4241
763.42379
763.42323
763.4224
763.4213
763.42022
763.42188
763.42277
763.42321
763.42338
763.4233
763.42298
763.4224
763.42156
763.42045
763.41936
763.42099
763.42179
763.42218
763.42232
763.42222
763.42189
763.4213
763.42045
763.41933
763.41824
763.42019
763.4208
763.42114
763.42126
763.42115
763.42081
763.42022
763.41936
763.41824
763.41731
747.64539
747.64665
747.64719
747.64744
747.64745
747.64722
747.64676
747.64609
747.64523
747.64437
747.64665
747.64772
747.6482
747.64844
747.64843
747.6482
747.64773
747.64703
747.64609
747.64504
747.64719
747.6482
747.64866
747.64887
747.64885
747.6486
747.64812
747.6474
747.64643
747.64534
747.64744
747.64844
747.64887
747.64906
747.64903
747.64877
747.64827
747.64754
747.64655
747.64545
747.64745
747.64843
747.64885
747.64903
747.64898
747.6487
747.6482
747.64745
747.64645
747.64534
747.64722
747.6482
747.6486
747.64877
747.6487
747.64842
747.6479
747.64714
747.64613
747.64501
747.64676
747.64773
747.64812
747.64827
747.6482
747.6479
747.64736
747.64659
747.64557
747.64445
747.64609
747.64703
747.6474
747.64754
747.64745
747.64714
747.64659
747.64581
747.64477
747.64364
747.64523
747.64609
747.64643
747.64655
747.64645
747.64613
747.64557
747.64477
747.64372
747.64257
747.64437
747.64504
747.64534
747.64545
747.64534
747.64501
747.64445
747.64364
747.64257
747.64151
732.68024
732.68157
732.68201
732.68221
732.68219
732.68196
732.68153
732.68089
732.68007
732.67918
732.68157
732.68263
732.68303
732.68321
732.68318
732.68295
732.68251
732.68186
732.68098
732.67988
732.68201
732.68303
732.68339
732.68355
732.68351
732.68327
732.68282
732.68216
732.68127
732.68015
732.68221
732.68321
732.68355
732.6837
732.68365
732.68339
732.68293
732.68226
732.68136
732.68024
732.68219
732.68318
732.68351
732.68365
732.68358
732.68332
732.68285
732.68217
732.68126
732.68013
732.68196
732.68295
732.68327
732.68339
732.68332
732.68304
732.68256
732.68187
732.68095
732.67982
732.68153
732.68251
732.68282
732.68293
732.68285
732.68256
732.68207
732.68137
732.68044
732.6793
732.68089
732.68186
732.68216
732.68226
732.68217
732.68187
732.68137
732.68066
732.67971
732.67855
732.68007
732.68098
732.68127
732.68136
732.68126
732.68095
732.68044
732.67971
732.67874
732.67755
732.67918
732.67988
732.68015
732.68024
732.68013
732.67982
732.6793
732.67855
732.67755
732.67639
718.47114
718.47252
718.47286
718.47301
718.47297
718.47274
718.47234
718.47175
718.47098
718.47007
718.47252
718.47358
718.47388
718.47401
718.47396
718.47373
718.47332
718.47273
718.47193
718.4708
718.47286
718.47388
718.47415
718.47426
718.4742
718.47396
718.47355
718.47296
718.47216
718.47104
718.47301
718.47401
718.47426
718.47436
718.47429
718.47404
718.47363
718.47303
718.47222
718.4711
718.47297
718.47396
718.4742
718.47429
718.47421
718.47396
718.47353
718.47293
718.47212
718.471
718.47274
718.47373
718.47396
718.47404
718.47396
718.4737
718.47327
718.47266
718.47184
718.47071
718.47234
718.47332
718.47355
718.47363
718.47353
718.47327
718.47283
718.47221
718.47138
718.47024
718.47175
718.47273
718.47296
718.47303
718.47293
718.47266
718.47221
718.47157
718.47072
718.46957
718.47098
718.47193
718.47216
718.47222
718.47212
718.47184
718.47138
718.47072
718.46984
718.46865
718.47007
718.4708
718.47104
718.4711
718.471
718.47071
718.47024
718.46957
718.46865
718.46741
704.96962
704.97104
704.97128
704.97137
704.97131
704.97109
704.97072
704.97019
704.96948
704.96856
704.97104
704.97207
704.97228
704.97235
704.97228
704.97206
704.9717
704.97117
704.97045
704.96932
704.97128
704.97228
704.97245
704.97251
704.97243
704.97221
704.97184
704.97133
704.97062
704.96951
704.97137
704.97235
704.97251
704.97256
704.97247
704.97225
704.97188
704.97136
704.97066
704.96956
704.97131
704.97228
704.97243
704.97247
704.97238
704.97215
704.97178
704.97126
704.97056
704.96946
704.97109
704.97206
704.97221
704.97225
704.97215
704.97191
704.97154
704.97101
704.97031
704.9692
704.97072
704.9717
704.97184
704.97188
704.97178
704.97154
704.97115
704.97062
704.9699
704.96879
704.97019
704.97117
704.97133
704.97136
704.97126
704.97101
704.97062
704.97007
704.96933
704.9682
704.96948
704.97045
704.97062
704.97066
704.97056
704.97031
704.9699
704.96933
704.96856
704.96737
704.96856
704.96932
704.96951
704.96956
704.96946
704.9692
704.96879
704.9682
704.96737
704.96607
692.13235
692.13378
692.13392
692.13395
692.13387
692.13367
692.13333
692.13287
692.13223
692.13132
692.13378
692.13478
692.13489
692.13491
692.13482
692.13461
692.13429
692.13384
692.13321
692.13209
692.13392
692.13489
692.13497
692.13498
692.13488
692.13467
692.13436
692.13392
692.13332
692.13224
692.13395
692.13491
692.13498
692.13498
692.13487
692.13467
692.13435
692.13392
692.13334
692.13227
692.13387
692.13482
692.13488
692.13487
692.13477
692.13456
692.13425
692.13382
692.13324
692.13217
692.13367
692.13461
692.13467
692.13467
692.13456
692.13435
692.13404
692.1336
692.13302
692.13195
692.13333
692.13429
692.13436
692.13435
692.13425
692.13404
692.13371
692.13327
692.13268
692.1316
692.13287
692.13384
692.13392
692.13392
692.13382
692.1336
692.13327
692.13282
692.1322
692.1311
692.13223
692.13321
692.13332
692.13334
692.13324
692.13302
692.13268
692.1322
692.13154
692.13038
692.13132
692.13209
692.13224
692.13227
692.13217
692.13195
692.1316
692.1311
692.13038
692.12904
679.92034
679.92177
679.92181
679.9218
679.9217
679.9215
679.92122
679.92082
679.92026
679.91937
679.92177
679.92273
679.92274
679.92272
679.92261
679.92242
679.92214
679.92177
679.92124
679.92014
679.92181
679.92274
679.92273
679.92269
679.92258
679.92239
679.92213
679.92178
679.9213
679.92025
679.9218
679.92272
679.92269
679.92264
679.92253
679.92235
679.92209
679.92175
679.92129
679.92026
679.9217
679.92261
679.92258
679.92253
679.92242
679.92224
679.92198
679.92165
679.9212
679.92017
679.9215
679.92242
679.92239
679.92235
679.92224
679.92205
679.9218
679.92147
679.92101
679.91999
679.92122
679.92214
679.92213
679.92209
679.92198
679.9218
679.92154
679.9212
679.92074
679.9197
679.92082
679.92177
679.92178
679.92175
679.92165
679.92147
679.9212
679.92084
679.92036
679.9193
679.92026
679.92124
679.9213
679.92129
679.9212
679.92101
679.92074
679.92036
679.91982
679.91869
679.91937
679.92014
679.92025
679.92026
679.92017
679.91999
679.9197
679.9193
679.91869
679.91733
668.29839
668.2998
668.29974
668.29968
668.29956
668.29939
668.29915
668.29882
668.29835
668.29748
668.2998
668.30071
668.30063
668.30055
668.30043
668.30026
668.30003
668.29974
668.29932
668.29825
668.29974
668.30063
668.30052
668.30043
668.30031
668.30015
668.29994
668.29967
668.29932
668.29832
668.29968
668.30055
668.30043
668.30034
668.30022
668.30006
668.29986
668.29962
668.29929
668.29831
668.29956
668.30043
668.30031
668.30022
668.3001
668.29995
668.29976
668.29952
668.2992
668.29824
668.29939
668.30026
668.30015
668.30006
668.29995
668.2998
668.29961
668.29938
668.29906
668.29809
668.29915
668.30003
668.29994
668.29986
668.29976
668.29961
668.29942
668.29918
668.29885
668.29788
668.29882
668.29974
668.29967
668.29962
668.29952
668.29938
668.29918
668.29893
668.29857
668.29757
668.29835
668.29932
668.29932
668.29929
668.2992
668.29906
668.29885
668.29857
668.29817
668.29709
668.29748
668.29825
668.29832
668.29831
668.29824
668.29809
668.29788
668.29757
668.29709
668.29572
657.23446
657.23585
657.23569
657.23557
657.23544
657.23529
657.2351
657.23485
657.23447
657.23363
657.23585
657.2367
657.23652
657.23639
657.23626
657.23611
657.23594
657.23574
657.23542
657.2344
657.23569
657.23652
657.23632
657.23619
657.23606
657.23592
657.23577
657.2356
657.23536
657.23443
657.23557
657.23639
657.23619
657.23605
657.23593
657.2358
657.23566
657.23551
657.23531
657.23441
657.23544
657.23626
657.23606
657.23593
657.2358
657.23568
657.23556
657.23542
657.23523
657.23434
657.23529
657.23611
657.23592
657.2358
657.23568
657.23556
657.23544
657.23532
657.23513
657.23424
657.2351
657.23594
657.23577
657.23566
657.23556
657.23544
657.23532
657.23519
657.235
657.23409
657.23485
657.23574
657.2356
657.23551
657.23542
657.23532
657.23519
657.23505
657.23483
657.23389
657.23447
657.23542
657.23536
657.23531
657.23523
657.23513
657.235
657.23483
657.23455
657.23353
657.23363
657.2344
657.23443
657.23441
657.23434
657.23424
657.23409
657.23389
657.23353
657.23218
646.69928
646.70064
646.70039
646.70023
646.70008
646.69995
646.69982
646.69965
646.69935
646.69856
646.70064
646.70143
646.70116
646.70099
646.70085
646.70072
646.70061
646.70049
646.70029
646.69931
646.70039
646.70116
646.70087
646.7007
646.70056
646.70045
646.70036
646.70028
646.70017
646.69931
646.70023
646.70099
646.7007
646.70052
646.70039
646.70029
646.70022
646.70017
646.7001
646.69927
646.70008
646.70085
646.70056
646.70039
646.70027
646.70018
646.70012
646.70009
646.70004
646.69922
646.69995
646.70072
646.70045
646.70029
646.70018
646.7001
646.70005
646.70003
646.69997
646.69916
646.69982
646.70061
646.70036
646.70022
646.70012
646.70005
646.7
646.69997
646.69992
646.69909
646.69965
646.70049
646.70028
646.70017
646.70009
646.70003
646.69997
646.69994
646.69985
646.699
646.69935
646.70029
646.70017
646.7001
646.70004
646.69997
646.69992
646.69985
646.69971
646.69876
646.69856
646.69931
646.69931
646.69927
646.69922
646.69916
646.69909
646.699
646.69876
646.69743
636.66598
636.6673
636.66695
636.66675
636.66659
636.66649
636.6664
636.66632
636.66612
636.66538
636.6673
636.66801
636.66766
636.66745
636.6673
636.6672
636.66714
636.66711
636.66702
636.66611
636.66695
636.66766
636.66729
636.66707
636.66693
636.66685
636.66682
636.66684
636.66686
636.66607
636.66675
636.66745
636.66707
636.66686
636.66673
636.66666
636.66665
636.66671
636.66677
636.66602
636.66659
636.6673
636.66693
636.66673
636.66661
636.66655
636.66656
636.66664
636.66672
636.66598
636.66649
636.6672
636.66685
636.66666
636.66655
636.66651
636.66653
636.66661
636.6667
636.66597
636.6664
636.66714
636.66682
636.66665
636.66656
636.66653
636.66656
636.66664
636.66672
636.66598
636.66632
636.66711
636.66684
636.66671
636.66664
636.66661
636.66664
636.66671
636.66676
636.66599
636.66612
636.66702
636.66686
636.66677
636.66672
636.6667
636.66672
636.66676
636.66676
636.66589
636.66538
636.66611
636.66607
636.66602
636.66598
636.66597
636.66598
636.66599
636.66589
636.66459
627.10971
627.11097
627.11054
627.11029
627.11014
627.11005
627.11003
627.11002
627.10992
627.10924
627.11097
627.11162
627.11118
627.11093
627.11078
627.11071
627.11071
627.11077
627.11079
627.10995
627.11054
627.11118
627.11073
627.11048
627.11034
627.11028
627.11032
627.11044
627.11058
627.10987
627.11029
627.11093
627.11048
627.11024
627.1101
627.11007
627.11013
627.11028
627.11047
627.10981
627.11014
627.11078
627.11034
627.1101
627.10998
627.10996
627.11004
627.11022
627.11044
627.10979
627.11005
627.11071
627.11028
627.11007
627.10996
627.10996
627.11005
627.11024
627.11046
627.10982
627.11003
627.11071
627.11032
627.11013
627.11004
627.11005
627.11015
627.11034
627.11056
627.10991
627.11002
627.11077
627.11044
627.11028
627.11022
627.11024
627.11034
627.11052
627.11071
627.11003
627.10992
627.11079
627.11058
627.11047
627.11044
627.11046
627.11056
627.11071
627.11084
627.11006
627.10924
627.10995
627.10987
627.10981
627.10979
627.10982
627.10991
627.11003
627.11006
627.1088
618.00739
618.0086
618.00809
618.00781
618.00765
618.0076
618.00763
618.00771
618.0077
618.00708
618.0086
618.00917
618.00866
618.00838
618.00822
618.00818
618.00825
618.0084
618.00853
618.00776
618.00809
618.00866
618.00814
618.00786
618.00771
618.00769
618.00779
618.00801
618.00827
618.00765
618.00781
618.00838
618.00786
618.00758
618.00745
618.00745
618.00758
618.00784
618.00815
618.00758
618.00765
618.00822
618.00771
618.00745
618.00734
618.00736
618.00751
618.00779
618.00813
618.00758
618.0076
618.00818
618.00769
618.00745
618.00736
618.0074
618.00756
618.00786
618.00821
618.00766
618.00763
618.00825
618.00779
618.00758
618.00751
618.00756
618.00774
618.00803
618.00838
618.00783
618.00771
618.0084
618.00801
618.00784
618.00779
618.00786
618.00803
618.00832
618.00864
618.00805
618.0077
618.00853
618.00827
618.00815
618.00813
618.00821
618.00838
618.00864
618.00891
618.00821
618.00708
618.00776
618.00765
618.00758
618.00758
618.00766
618.00783
618.00805
618.00821
618.00701
609.33752
609.33867
609.33808
609.33777
609.33761
609.33759
609.33768
609.33784
609.33793
609.33737
609.33867
609.33917
609.33858
609.33827
609.33812
609.33811
609.33824
609.33847
609.33872
609.33803
609.33808
609.33858
609.338
609.33769
609.33755
609.33756
609.33773
609.33803
609.33842
609.33789
609.33777
609.33827
609.33769
609.33739
609.33726
609.3373
609.3375
609.33785
609.33829
609.33781
609.33761
609.33812