/*--------------------------------*- C++ -*----------------------------------*\
| =========                 |                                                 |
| \\      /  F ield         | OpenFOAM: The Open Source CFD Toolbox           |
|  \\    /   O peration     | Version:  v2106                                 |
|   \\  /    A nd           | Website:  www.openfoam.com                      |
|    \\/     M anipulation  |                                                 |
\*---------------------------------------------------------------------------*/
FoamFile
{
    version     2.0;
    format      ascii;
    arch        "LSB;label=32;scalar=64";
    class       volScalarField;
    location    "65";
    object      T;
}
// * * * * * * * * * * * * * * * * * * * * * * * * * * * * * * * * * * * * * //

dimensions      [0 0 0 1 0 0 0];

internalField   nonuniform List<scalar> 
4000
(
274.34911
274.3491
274.3491
274.3491
274.3491
274.3491
274.3491
274.3491
274.3491
274.3491
274.3491
274.34909
274.34909
274.34909
274.34909
274.34909
274.34909
274.34909
274.34909
274.34909
274.3491
274.34909
274.34909
274.34909
274.34909
274.34909
274.34909
274.34909
274.34909
274.34909
274.3491
274.34909
274.34909
274.34909
274.34909
274.34909
274.34909
274.34909
274.34909
274.34909
274.3491
274.34909
274.34909
274.34909
274.34909
274.34909
274.34909
274.34909
274.34909
274.34909
274.3491
274.34909
274.34909
274.34909
274.34909
274.34909
274.34909
274.34909
274.34909
274.34909
274.3491
274.34909
274.34909
274.34909
274.34909
274.34909
274.34909
274.34909
274.34909
274.34909
274.3491
274.34909
274.34909
274.34909
274.34909
274.34909
274.34909
274.34909
274.34909
274.34909
274.3491
274.34909
274.34909
274.34909
274.34909
274.34909
274.34909
274.34909
274.34909
274.3491
274.3491
274.34909
274.34909
274.34909
274.34909
274.34909
274.34909
274.34909
274.3491
274.3491
286.37847
286.37837
286.37836
286.37835
286.37835
286.37836
286.37836
286.37837
286.37839
286.37841
286.37837
286.3783
286.37829
286.37829
286.37829
286.37829
286.3783
286.37831
286.37832
286.37835
286.37836
286.37829
286.37829
286.37828
286.37828
286.37828
286.37829
286.3783
286.37832
286.37834
286.37835
286.37829
286.37828
286.37828
286.37828
286.37828
286.37829
286.3783
286.37831
286.37834
286.37835
286.37829
286.37828
286.37828
286.37828
286.37828
286.37828
286.37829
286.37831
286.37833
286.37836
286.37829
286.37828
286.37828
286.37828
286.37828
286.37829
286.3783
286.37831
286.37834
286.37836
286.3783
286.37829
286.37829
286.37828
286.37829
286.37829
286.3783
286.37831
286.37834
286.37837
286.37831
286.3783
286.3783
286.37829
286.3783
286.3783
286.37831
286.37832
286.37835
286.37839
286.37832
286.37832
286.37831
286.37831
286.37831
286.37831
286.37832
286.37834
286.37837
286.37841
286.37835
286.37834
286.37834
286.37833
286.37834
286.37834
286.37835
286.37837
286.3784
297.91705
297.9169
297.91689
297.91688
297.91688
297.91688
297.91689
297.91691
297.91694
297.91699
297.9169
297.9168
297.91679
297.91678
297.91678
297.91678
297.91679
297.91681
297.91684
297.91691
297.91689
297.91679
297.91678
297.91677
297.91677
297.91677
297.91678
297.9168
297.91683
297.91689
297.91688
297.91678
297.91677
297.91676
297.91676
297.91676
297.91677
297.91679
297.91681
297.91688
297.91688
297.91678
297.91677
297.91676
297.91676
297.91676
297.91677
297.91679
297.91681
297.91687
297.91688
297.91678
297.91677
297.91676
297.91676
297.91677
297.91677
297.91679
297.91681
297.91687
297.91689
297.91679
297.91678
297.91677
297.91677
297.91677
297.91678
297.9168
297.91682
297.91688
297.91691
297.91681
297.9168
297.91679
297.91679
297.91679
297.9168
297.91681
297.91684
297.9169
297.91694
297.91684
297.91683
297.91681
297.91681
297.91681
297.91682
297.91684
297.91687
297.91693
297.91699
297.91691
297.91689
297.91688
297.91687
297.91687
297.91688
297.9169
297.91693
297.91701
309.01568
309.01549
309.01547
309.01546
309.01546
309.01547
309.01548
309.01551
309.01555
309.01563
309.01549
309.01536
309.01535
309.01534
309.01534
309.01534
309.01536
309.01538
309.01542
309.01552
309.01547
309.01535
309.01534
309.01533
309.01533
309.01533
309.01534
309.01537
309.0154
309.0155
309.01546
309.01534
309.01533
309.01532
309.01532
309.01532
309.01534
309.01536
309.01539
309.01548
309.01546
309.01534
309.01533
309.01532
309.01532
309.01532
309.01533
309.01535
309.01539
309.01548
309.01547
309.01534
309.01533
309.01532
309.01532
309.01533
309.01534
309.01536
309.01539
309.01548
309.01548
309.01536
309.01534
309.01534
309.01533
309.01534
309.01535
309.01537
309.0154
309.01549
309.01551
309.01538
309.01537
309.01536
309.01535
309.01536
309.01537
309.01539
309.01542
309.01552
309.01555
309.01542
309.0154
309.01539
309.01539
309.01539
309.0154
309.01542
309.01546
309.01556
309.01563
309.01552
309.0155
309.01548
309.01548
309.01548
309.01549
309.01552
309.01556
309.01568
319.71649
319.71628
319.71626
319.71625
319.71624
319.71625
319.71627
319.7163
319.71636
319.71646
319.71628
319.71613
319.71611
319.7161
319.7161
319.71611
319.71613
319.71615
319.7162
319.71633
319.71626
319.71611
319.7161
319.71609
319.71609
319.7161
319.71612
319.71614
319.71618
319.7163
319.71625
319.7161
319.71609
319.71609
319.71609
319.71609
319.71611
319.71613
319.71617
319.71628
319.71624
319.7161
319.71609
319.71609
319.71608
319.71609
319.7161
319.71613
319.71616
319.71628
319.71625
319.71611
319.7161
319.71609
319.71609
319.7161
319.71611
319.71613
319.71617
319.71628
319.71627
319.71613
319.71612
319.71611
319.7161
319.71611
319.71612
319.71614
319.71618
319.7163
319.7163
319.71615
319.71614
319.71613
319.71613
319.71613
319.71614
319.71617
319.71621
319.71632
319.71636
319.7162
319.71618
319.71617
319.71616
319.71617
319.71618
319.71621
319.71625
319.71638
319.71646
319.71633
319.7163
319.71628
319.71628
319.71628
319.7163
319.71632
319.71638
319.71653
330.05496
330.05472
330.0547
330.05469
330.05469
330.0547
330.05472
330.05475
330.05481
330.05493
330.05472
330.05455
330.05454
330.05453
330.05453
330.05454
330.05456
330.05459
330.05464
330.05479
330.0547
330.05454
330.05453
330.05453
330.05453
330.05454
330.05455
330.05458
330.05462
330.05476
330.05469
330.05453
330.05453
330.05452
330.05452
330.05453
330.05454
330.05457
330.05461
330.05474
330.05469
330.05453
330.05453
330.05452
330.05452
330.05453
330.05454
330.05456
330.0546
330.05473
330.0547
330.05454
330.05454
330.05453
330.05453
330.05454
330.05455
330.05457
330.05461
330.05474
330.05472
330.05456
330.05455
330.05454
330.05454
330.05455
330.05456
330.05458
330.05462
330.05475
330.05475
330.05459
330.05458
330.05457
330.05456
330.05457
330.05458
330.05461
330.05465
330.05478
330.05481
330.05464
330.05462
330.05461
330.0546
330.05461
330.05462
330.05465
330.05469
330.05484
330.05493
330.05479
330.05476
330.05474
330.05473
330.05474
330.05475
330.05478
330.05484
330.05503
340.0613
340.06104
340.06103
340.06102
340.06102
340.06103
340.06105
340.06109
340.06115
340.06128
340.06104
340.06086
340.06086
340.06085
340.06085
340.06086
340.06088
340.06091
340.06096
340.06113
340.06103
340.06086
340.06086
340.06085
340.06086
340.06086
340.06088
340.0609
340.06094
340.0611
340.06102
340.06085
340.06085
340.06085
340.06085
340.06086
340.06087
340.06089
340.06093
340.06108
340.06102
340.06085
340.06086
340.06085
340.06085
340.06086
340.06087
340.06089
340.06093
340.06107
340.06103
340.06086
340.06086
340.06086
340.06086
340.06087
340.06088
340.0609
340.06093
340.06108
340.06105
340.06088
340.06088
340.06087
340.06087
340.06088
340.06089
340.06091
340.06094
340.06109
340.06109
340.06091
340.0609
340.06089
340.06089
340.0609
340.06091
340.06093
340.06097
340.06112
340.06115
340.06096
340.06094
340.06093
340.06093
340.06093
340.06094
340.06097
340.06101
340.06118
340.06128
340.06113
340.0611
340.06108
340.06107
340.06108
340.06109
340.06112
340.06118
340.06139
349.76156
349.76129
349.76128
349.76128
349.76128
349.7613
349.76132
349.76135
349.76141
349.76155
349.76129
349.76111
349.76111
349.76111
349.76111
349.76112
349.76114
349.76117
349.76122
349.76139
349.76128
349.76111
349.76112
349.76112
349.76112
349.76113
349.76114
349.76116
349.7612
349.76136
349.76128
349.76111
349.76112
349.76112
349.76112
349.76113
349.76114
349.76116
349.76119
349.76135
349.76128
349.76111
349.76112
349.76112
349.76112
349.76113
349.76114
349.76115
349.76118
349.76134
349.7613
349.76112
349.76113
349.76113
349.76113
349.76113
349.76114
349.76116
349.76119
349.76134
349.76132
349.76114
349.76114
349.76114
349.76114
349.76114
349.76115
349.76117
349.7612
349.76136
349.76135
349.76117
349.76116
349.76116
349.76115
349.76116
349.76117
349.76119
349.76122
349.76138
349.76141
349.76122
349.7612
349.76119
349.76118
349.76119
349.7612
349.76122
349.76126
349.76144
349.76155
349.76139
349.76136
349.76135
349.76134
349.76134
349.76136
349.76138
349.76144
349.76167
359.17843
359.17815
359.17815
359.17815
359.17816
359.17817
359.17819
359.17822
359.17828
359.17843
359.17815
359.17796
359.17797
359.17798
359.17798
359.17799
359.17801
359.17803
359.17808
359.17826
359.17815
359.17797
359.17799
359.17799
359.178
359.17801
359.17802
359.17804
359.17807
359.17824
359.17815
359.17798
359.17799
359.178
359.178
359.17801
359.17802
359.17803
359.17806
359.17822
359.17816
359.17798
359.178
359.178
359.17801
359.17801
359.17802
359.17803
359.17805
359.17821
359.17817
359.17799
359.17801
359.17801
359.17801
359.17802
359.17802
359.17803
359.17805
359.17821
359.17819
359.17801
359.17802
359.17802
359.17802
359.17802
359.17803
359.17804
359.17806
359.17822
359.17822
359.17803
359.17804
359.17803
359.17803
359.17803
359.17804
359.17805
359.17808
359.17825
359.17828
359.17808
359.17807
359.17806
359.17805
359.17805
359.17806
359.17808
359.17811
359.1783
359.17843
359.17826
359.17824
359.17822
359.17821
359.17821
359.17822
359.17825
359.1783
359.17855
368.33182
368.33154
368.33155
368.33156
368.33156
368.33157
368.33159
368.33162
368.33167
368.33182
368.33154
368.33136
368.33137
368.33138
368.33139
368.3314
368.33141
368.33143
368.33147
368.33166
368.33155
368.33137
368.3314
368.3314
368.33141
368.33142
368.33143
368.33144
368.33146
368.33163
368.33156
368.33138
368.3314
368.33141
368.33142
368.33143
368.33143
368.33144
368.33145
368.33162
368.33156
368.33139
368.33141
368.33142
368.33143
368.33143
368.33143
368.33144
368.33145
368.33161
368.33157
368.3314
368.33142
368.33143
368.33143
368.33143
368.33143
368.33144
368.33145
368.33161
368.33159
368.33141
368.33143
368.33143
368.33143
368.33143
368.33144
368.33144
368.33145
368.33162
368.33162
368.33143
368.33144
368.33144
368.33144
368.33144
368.33144
368.33144
368.33146
368.33163
368.33167
368.33147
368.33146
368.33145
368.33145
368.33145
368.33145
368.33146
368.33149
368.33168
368.33182
368.33166
368.33163
368.33162
368.33161
368.33161
368.33162
368.33163
368.33168
368.33194
377.23939
377.2391
377.23913
377.23914
377.23915
377.23916
377.23917
377.23919
377.23924
377.23939
377.2391
377.23893
377.23895
377.23896
377.23897
377.23898
377.23899
377.239
377.23904
377.23923
377.23913
377.23895
377.23898
377.239
377.23901
377.23901
377.23902
377.23902
377.23903
377.23921
377.23914
377.23896
377.239
377.23901
377.23902
377.23902
377.23902
377.23902
377.23903
377.23919
377.23915
377.23897
377.23901
377.23902
377.23903
377.23903
377.23903
377.23902
377.23902
377.23919
377.23916
377.23898
377.23901
377.23902
377.23903
377.23903
377.23902
377.23902
377.23902
377.23918
377.23917
377.23899
377.23902
377.23902
377.23903
377.23902
377.23902
377.23902
377.23902
377.23918
377.23919
377.239
377.23902
377.23902
377.23902
377.23902
377.23902
377.23901
377.23902
377.23919
377.23924
377.23904
377.23903
377.23903
377.23902
377.23902
377.23902
377.23902
377.23904
377.23923
377.23939
377.23923
377.23921
377.23919
377.23919
377.23918
377.23918
377.23919
377.23923
377.2395
385.91688
385.9166
385.91663
385.91665
385.91666
385.91667
385.91668
385.91669
385.91673
385.91689
385.9166
385.91643
385.91646
385.91648
385.91649
385.9165
385.9165
385.91651
385.91653
385.91672
385.91663
385.91646
385.9165
385.91652
385.91653
385.91653
385.91654
385.91653
385.91653
385.9167
385.91665
385.91648
385.91652
385.91654
385.91655
385.91655
385.91655
385.91654
385.91653
385.91669
385.91666
385.91649
385.91653
385.91655
385.91655
385.91655
385.91655
385.91653
385.91653
385.91669
385.91667
385.9165
385.91653
385.91655
385.91655
385.91655
385.91654
385.91653
385.91652
385.91668
385.91668
385.9165
385.91654
385.91655
385.91655
385.91654
385.91653
385.91652
385.91651
385.91667
385.91669
385.91651
385.91653
385.91654
385.91653
385.91653
385.91652
385.91651
385.91651
385.91667
385.91673
385.91653
385.91653
385.91653
385.91653
385.91652
385.91651
385.91651
385.91652
385.9167
385.91689
385.91672
385.9167
385.91669
385.91669
385.91668
385.91667
385.91667
385.9167
385.91698
394.37846
394.37818
394.37822
394.37824
394.37825
394.37826
394.37827
394.37828
394.37831
394.37846
394.37818
394.37801
394.37806
394.37808
394.37809
394.3781
394.3781
394.3781
394.37811
394.3783
394.37822
394.37806
394.3781
394.37813
394.37814
394.37814
394.37814
394.37813
394.37812
394.37828
394.37824
394.37808
394.37813
394.37815
394.37816
394.37816
394.37815
394.37813
394.37812
394.37827
394.37825
394.37809
394.37814
394.37816
394.37817
394.37817
394.37815
394.37813
394.37811
394.37827
394.37826
394.3781
394.37814
394.37816
394.37817
394.37816
394.37815
394.37812
394.3781
394.37826
394.37827
394.3781
394.37814
394.37815
394.37815
394.37815
394.37813
394.37811
394.37809
394.37824
394.37828
394.3781
394.37813
394.37813
394.37813
394.37812
394.37811
394.37809
394.37807
394.37824
394.37831
394.37811
394.37812
394.37812
394.37811
394.3781
394.37809
394.37807
394.37807
394.37825
394.37846
394.3783
394.37828
394.37827
394.37827
394.37826
394.37824
394.37824
394.37825
394.37853
402.63692
402.63665
402.6367
402.63672
402.63674
402.63674
402.63674
402.63675
402.63677
402.63692
402.63665
402.63649
402.63654
402.63657
402.63658
402.63659
402.63658
402.63657
402.63657
402.63676
402.6367
402.63654
402.6366
402.63662
402.63664
402.63664
402.63663
402.63661
402.63659
402.63675
402.63672
402.63657
402.63662
402.63665
402.63666
402.63666
402.63664
402.63662
402.63659
402.63674
402.63674
402.63658
402.63664
402.63666
402.63667
402.63666
402.63665
402.63662
402.63658
402.63673
402.63674
402.63659
402.63664
402.63666
402.63666
402.63666
402.63664
402.6366
402.63657
402.63672
402.63674
402.63658
402.63663
402.63664
402.63665
402.63664
402.63662
402.63658
402.63655
402.6367
402.63675
402.63657
402.63661
402.63662
402.63662
402.6366
402.63658
402.63655
402.63653
402.63668
402.63677
402.63657
402.63659
402.63659
402.63658
402.63657
402.63655
402.63653
402.63651
402.63669
402.63692
402.63676
402.63675
402.63674
402.63673
402.63672
402.6367
402.63668
402.63669
402.63696
410.70392
410.70366
410.70371
410.70374
410.70376
410.70376
410.70376
410.70375
410.70377
410.70391
410.70366
410.70351
410.70357
410.7036
410.70361
410.70361
410.7036
410.70359
410.70358
410.70375
410.70371
410.70357
410.70363
410.70366
410.70367
410.70367
410.70366
410.70363
410.7036
410.70375
410.70374
410.7036
410.70366
410.70369
410.7037
410.70369
410.70368
410.70364
410.7036
410.70374
410.70376
410.70361
410.70367
410.7037
410.70371
410.7037
410.70368
410.70364
410.70359
410.70373
410.70376
410.70361
410.70367
410.70369
410.7037
410.70369
410.70366
410.70362
410.70358
410.70372
410.70376
410.7036
410.70366
410.70368
410.70368
410.70366
410.70364
410.7036
410.70355
410.70369
410.70375
410.70359
410.70363
410.70364
410.70364
410.70362
410.7036
410.70356
410.70352
410.70367
410.70377
410.70358
410.7036
410.7036
410.70359
410.70358
410.70355
410.70352
410.70349
410.70366
410.70391
410.70375
410.70375
410.70374
410.70373
410.70372
410.70369
410.70367
410.70366
410.70393
418.59012
418.58986
418.58993
418.58996
418.58997
418.58998
418.58997
418.58996
418.58996
418.5901
418.58986
418.58972
418.58979
418.58982
418.58984
418.58984
418.58982
418.5898
418.58978
418.58994
418.58993
418.58979
418.58986
418.58989
418.5899
418.5899
418.58988
418.58984
418.5898
418.58994
418.58996
418.58982
418.58989
418.58992
418.58993
418.58993
418.5899
418.58986
418.58981
418.58994
418.58997
418.58984
418.5899
418.58993
418.58994
418.58993
418.5899
418.58985
418.5898
418.58993
418.58998
418.58984
418.5899
418.58993
418.58993
418.58992
418.58989
418.58984
418.58978
418.58991
418.58997
418.58982
418.58988
418.5899
418.5899
418.58989
418.58985
418.5898
418.58975
418.58988
418.58996
418.5898
418.58984
418.58986
418.58985
418.58984
418.5898
418.58976
418.58971
418.58984
418.58996
418.58978
418.5898
418.58981
418.5898
418.58978
418.58975
418.58971
418.58967
418.58983
418.5901
418.58994
418.58994
418.58994
418.58993
418.58991
418.58988
418.58984
418.58983
418.59008
426.30531
426.30506
426.30513
426.30517
426.30518
426.30518
426.30517
426.30515
426.30515
426.30528
426.30506
426.30493
426.305
426.30504
426.30506
426.30505
426.30503
426.305
426.30497
426.30513
426.30513
426.305
426.30508
426.30512
426.30513
426.30512
426.3051
426.30505
426.305
426.30513
426.30517
426.30504
426.30512
426.30515
426.30516
426.30515
426.30512
426.30507
426.30501
426.30513
426.30518
426.30506
426.30513
426.30516
426.30517
426.30516
426.30512
426.30507
426.305
426.30512
426.30518
426.30505
426.30512
426.30515
426.30516
426.30514
426.3051
426.30504
426.30498
426.30509
426.30517
426.30503
426.3051
426.30512
426.30512
426.3051
426.30506
426.30501
426.30494
426.30506
426.30515
426.305
426.30505
426.30507
426.30507
426.30504
426.30501
426.30495
426.30489
426.30501
426.30515
426.30497
426.305
426.30501
426.305
426.30498
426.30494
426.30489
426.30484
426.30498
426.30528
426.30513
426.30513
426.30513
426.30512
426.30509
426.30506
426.30501
426.30498
426.30524
433.85854
433.85831
433.85838
433.85842
433.85844
433.85844
433.85842
433.85839
433.85838
433.8585
433.85831
433.85819
433.85827
433.8583
433.85832
433.85832
433.85829
433.85825
433.85821
433.85836
433.85838
433.85827
433.85835
433.85838
433.8584
433.85839
433.85836
433.85831
433.85825
433.85837
433.85842
433.8583
433.85838
433.85842
433.85843
433.85842
433.85838
433.85833
433.85825
433.85836
433.85844
433.85832
433.8584
433.85843
433.85844
433.85843
433.85839
433.85832
433.85824
433.85835
433.85844
433.85832
433.85839
433.85842
433.85843
433.85841
433.85836
433.8583
433.85822
433.85832
433.85842
433.85829
433.85836
433.85838
433.85839
433.85836
433.85832
433.85825
433.85817
433.85828
433.85839
433.85825
433.85831
433.85833
433.85832
433.8583
433.85825
433.85819
433.85812
433.85823
433.85838
433.85821
433.85825
433.85825
433.85824
433.85822
433.85817
433.85812
433.85805
433.85819
433.8585
433.85836
433.85837
433.85836
433.85835
433.85832
433.85828
433.85823
433.85819
433.85843
441.25821
441.25799
441.25808
441.25812
441.25813
441.25813
441.25811
441.25807
441.25806
441.25816
441.25799
441.25789
441.25797
441.25801
441.25802
441.25802
441.25799
441.25794
441.2579
441.25803
441.25808
441.25797
441.25805
441.25809
441.25811
441.25809
441.25806
441.258
441.25793
441.25804
441.25812
441.25801
441.25809
441.25813
441.25814
441.25813
441.25809
441.25802
441.25794
441.25804
441.25813
441.25802
441.25811
441.25814
441.25815
441.25813
441.25809
441.25801
441.25793
441.25802
441.25813
441.25802
441.25809
441.25813
441.25813
441.25811
441.25806
441.25799
441.2579
441.25799
441.25811
441.25799
441.25806
441.25809
441.25809
441.25806
441.25801
441.25794
441.25785
441.25795
441.25807
441.25794
441.258
441.25802
441.25801
441.25799
441.25794
441.25787
441.25778
441.25789
441.25806
441.2579
441.25793
441.25794
441.25793
441.2579
441.25785
441.25778
441.25771
441.25784
441.25816
441.25803
441.25804
441.25804
441.25802
441.25799
441.25795
441.25789
441.25784
441.25807
448.51214
448.51194
448.51203
448.51207
448.51208
448.51208
448.51205
448.51201
448.51199
448.51208
448.51194
448.51184
448.51193
448.51197
448.51198
448.51197
448.51194
448.51189
448.51183
448.51196
448.51203
448.51193
448.51201
448.51206
448.51207
448.51206
448.51202
448.51195
448.51187
448.51197
448.51207
448.51197
448.51206
448.5121
448.51211
448.51209
448.51204
448.51197
448.51188
448.51197
448.51208
448.51198
448.51207
448.51211
448.51211
448.51209
448.51204
448.51196
448.51187
448.51195
448.51208
448.51197
448.51206
448.51209
448.51209
448.51207
448.51201
448.51193
448.51184
448.51192
448.51205
448.51194
448.51202
448.51204
448.51204
448.51201
448.51196
448.51188
448.51178
448.51187
448.51201
448.51189
448.51195
448.51197
448.51196
448.51193
448.51188
448.5118
448.51171
448.5118
448.51199
448.51183
448.51187
448.51188
448.51187
448.51184
448.51178
448.51171
448.51163
448.51174
448.51208
448.51196
448.51197
448.51197
448.51195
448.51192
448.51187
448.5118
448.51174
448.51196
455.62764
455.62744
455.62753
455.62758
455.62759
455.62758
455.62755
455.62751
455.62748
455.62756
455.62744
455.62736
455.62745
455.62749
455.6275
455.62749
455.62746
455.6274
455.62733
455.62745
455.62753
455.62745
455.62754
455.62758
455.62759
455.62757
455.62753
455.62746
455.62737
455.62746
455.62758
455.62749
455.62758
455.62762
455.62763
455.62761
455.62756
455.62748
455.62738
455.62746
455.62759
455.6275
455.62759
455.62763
455.62763
455.62761
455.62756
455.62747
455.62737
455.62744
455.62758
455.62749
455.62757
455.62761
455.62761
455.62758
455.62753
455.62744
455.62734
455.62741
455.62755
455.62746
455.62753
455.62756
455.62756
455.62753
455.62747
455.62738
455.62728
455.62735
455.62751
455.6274
455.62746
455.62748
455.62747
455.62744
455.62738
455.6273
455.6272
455.62728
455.62748
455.62733
455.62737
455.62738
455.62737
455.62734
455.62728
455.6272
455.62711
455.62721
455.62756
455.62745
455.62746
455.62746
455.62744
455.62741
455.62735
455.62728
455.62721
455.62741
462.61154
462.61136
462.61145
462.61149
462.61151
462.6115
462.61146
462.61142
462.61137
462.61145
462.61136
462.61128
462.61137
462.61142
462.61143
462.61142
462.61138
462.61131
462.61124
462.61134
462.61145
462.61137
462.61146
462.61151
462.61152
462.6115
462.61145
462.61138
462.61128
462.61136
462.61149
462.61142
462.61151
462.61155
462.61156
462.61153
462.61148
462.6114
462.61129
462.61136
462.61151
462.61143
462.61152
462.61156
462.61156
462.61153
462.61148
462.61139
462.61128
462.61134
462.6115
462.61142
462.6115
462.61153
462.61153
462.61151
462.61145
462.61135
462.61124
462.6113
462.61146
462.61138
462.61145
462.61148
462.61148
462.61145
462.61138
462.61129
462.61118
462.61124
462.61142
462.61131
462.61138
462.6114
462.61139
462.61135
462.61129
462.6112
462.6111
462.61116
462.61137
462.61124
462.61128
462.61129
462.61128
462.61124
462.61118
462.6111
462.611
462.61109
462.61145
462.61134
462.61136
462.61136
462.61134
462.6113
462.61124
462.61116
462.61109
462.61128
469.47028
469.47012
469.47021
469.47026
469.47027
469.47026
469.47022
469.47017
469.47012
469.47019
469.47012
469.47005
469.47014
469.47019
469.4702
469.47018
469.47014
469.47007
469.47
469.47009
469.47021
469.47014
469.47023
469.47028
469.47029
469.47027
469.47022
469.47014
469.47004
469.4701
469.47026
469.47019
469.47028
469.47032
469.47033
469.4703
469.47025
469.47016
469.47005
469.47011
469.47027
469.4702
469.47029
469.47033
469.47033
469.4703
469.47024
469.47015
469.47004
469.47009
469.47026
469.47018
469.47027
469.4703
469.4703
469.47027
469.47021
469.47011
469.47
469.47005
469.47022
469.47014
469.47022
469.47025
469.47024
469.47021
469.47014
469.47005
469.46993
469.46998
469.47017
469.47007
469.47014
469.47016
469.47015
469.47011
469.47005
469.46995
469.46984
469.4699
469.47012
469.47
469.47004
469.47005
469.47004
469.47
469.46993
469.46984
469.46974
469.46982
469.47019
469.47009
469.4701
469.47011
469.47009
469.47005
469.46998
469.4699
469.46982
469.47
476.20994
476.20979
476.20989
476.20993
476.20994
476.20993
476.20989
476.20983
476.20978
476.20984
476.20979
476.20974
476.20983
476.20987
476.20988
476.20986
476.20982
476.20975
476.20967
476.20975
476.20989
476.20983
476.20992
476.20996
476.20997
476.20995
476.2099
476.20981
476.20971
476.20976
476.20993
476.20987
476.20996
476.21
476.21001
476.20998
476.20992
476.20983
476.20972
476.20977
476.20994
476.20988
476.20997
476.21001
476.21001
476.20998
476.20992
476.20982
476.2097
476.20975
476.20993
476.20986
476.20995
476.20998
476.20998
476.20995
476.20988
476.20978
476.20966
476.2097
476.20989
476.20982
476.2099
476.20992
476.20992
476.20988
476.20981
476.20972
476.2096
476.20964
476.20983
476.20975
476.20981
476.20983
476.20982
476.20978
476.20972
476.20962
476.2095
476.20955
476.20978
476.20967
476.20971
476.20972
476.2097
476.20966
476.2096
476.2095
476.2094
476.20946
476.20984
476.20975
476.20976
476.20977
476.20975
476.2097
476.20964
476.20955
476.20946
476.20963
482.83625
482.83612
482.83621
482.83625
482.83626
482.83624
482.8362
482.83614
482.83609
482.83614
482.83612
482.83607
482.83616
482.8362
482.83621
482.83619
482.83614
482.83607
482.83598
482.83605
482.83621
482.83616
482.83624
482.83629
482.83629
482.83627
482.83622
482.83613
482.83603
482.83607
482.83625
482.8362
482.83629
482.83632
482.83633
482.8363
482.83624
482.83615
482.83604
482.83607
482.83626
482.83621
482.83629
482.83633
482.83633
482.8363
482.83624
482.83614
482.83602
482.83605
482.83624
482.83619
482.83627
482.8363
482.8363
482.83627
482.8362
482.8361
482.83598
482.83601
482.8362
482.83614
482.83622
482.83624
482.83624
482.8362
482.83613
482.83603
482.83591
482.83594
482.83614
482.83607
482.83613
482.83615
482.83614
482.8361
482.83603
482.83593
482.83581
482.83585
482.83609
482.83598
482.83603
482.83604
482.83602
482.83598
482.83591
482.83581
482.8357
482.83576
482.83614
482.83605
482.83607
482.83607
482.83605
482.83601
482.83594
482.83585
482.83576
482.83591
489.35463
489.35451
489.3546
489.35464
489.35465
489.35463
489.35459
489.35453
489.35447
489.35451
489.35451
489.35447
489.35456
489.3546
489.35461
489.35459
489.35454
489.35446
489.35438
489.35444
489.3546
489.35456
489.35464
489.35468
489.35469
489.35467
489.35461
489.35452
489.35442
489.35445
489.35464
489.3546
489.35468
489.35472
489.35472
489.3547
489.35464
489.35454
489.35443
489.35445
489.35465
489.35461
489.35469
489.35472
489.35472
489.35469
489.35463
489.35453
489.35441
489.35443
489.35463
489.35459
489.35467
489.3547
489.35469
489.35466
489.35459
489.35449
489.35437
489.35439
489.35459
489.35454
489.35461
489.35464
489.35463
489.35459
489.35452
489.35442
489.3543
489.35432
489.35453
489.35446
489.35452
489.35454
489.35453
489.35449
489.35442
489.35432
489.3542
489.35423
489.35447
489.35438
489.35442
489.35443
489.35441
489.35437
489.3543
489.3542
489.35409
489.35413
489.35451
489.35444
489.35445
489.35445
489.35443
489.35439
489.35432
489.35423
489.35413
489.35427
495.77024
495.77013
495.77021
495.77025
495.77026
495.77024
495.7702
495.77014
495.77007
495.77011
495.77013
495.7701
495.77018
495.77022
495.77023
495.7702
495.77015
495.77008
495.76999
495.77004
495.77021
495.77018
495.77026
495.7703
495.7703
495.77028
495.77022
495.77014
495.77003
495.77006
495.77025
495.77022
495.7703
495.77034
495.77034
495.77031
495.77025
495.77015
495.77004
495.77006
495.77026
495.77023
495.7703
495.77034
495.77034
495.7703
495.77024
495.77014
495.77002
495.77004
495.77024
495.7702
495.77028
495.77031
495.7703
495.77027
495.7702
495.7701
495.76998
495.76999
495.7702
495.77015
495.77022
495.77025
495.77024
495.7702
495.77013
495.77003
495.76991
495.76992
495.77014
495.77008
495.77014
495.77015
495.77014
495.7701
495.77003
495.76993
495.76981
495.76983
495.77007
495.76999
495.77003
495.77004
495.77002
495.76998
495.76991
495.76981
495.7697
495.76973
495.77011
495.77004
495.77006
495.77006
495.77004
495.76999
495.76992
495.76983
495.76973
495.76986
502.08795
502.08786
502.08794
502.08798
502.08798
502.08796
502.08792
502.08785
502.08779
502.08782
502.08786
502.08783
502.08791
502.08795
502.08795
502.08793
502.08788
502.0878
502.08772
502.08776
502.08794
502.08791
502.08799
502.08802
502.08803
502.088
502.08795
502.08786
502.08775
502.08777
502.08798
502.08795
502.08802
502.08806
502.08806
502.08803
502.08797
502.08788
502.08776
502.08777
502.08798
502.08795
502.08803
502.08806
502.08806
502.08802
502.08796
502.08786
502.08774
502.08775
502.08796
502.08793
502.088
502.08803
502.08802
502.08799
502.08792
502.08782
502.0877
502.08771
502.08792
502.08788
502.08795
502.08797
502.08796
502.08792
502.08785
502.08775
502.08763
502.08764
502.08785
502.0878
502.08786
502.08788
502.08786
502.08782
502.08775
502.08765
502.08754
502.08755
502.08779
502.08772
502.08775
502.08776
502.08774
502.0877
502.08763
502.08754
502.08742
502.08745
502.08782
502.08776
502.08777
502.08777
502.08775
502.08771
502.08764
502.08755
502.08745
502.08756
508.31243
508.31235
508.31243
508.31246
508.31247
508.31244
508.3124
508.31234
508.31227
508.3123
508.31235
508.31233
508.3124
508.31244
508.31244
508.31242
508.31237
508.31229
508.31221
508.31224
508.31243
508.3124
508.31248
508.31251
508.31251
508.31249
508.31243
508.31235
508.31224
508.31225
508.31246
508.31244
508.31251
508.31254
508.31254
508.31251
508.31245
508.31236
508.31225
508.31225
508.31247
508.31244
508.31251
508.31254
508.31254
508.3125
508.31244
508.31235
508.31223
508.31223
508.31244
508.31242
508.31249
508.31251
508.3125
508.31247
508.3124
508.31231
508.31219
508.31219
508.3124
508.31237
508.31243
508.31245
508.31244
508.3124
508.31233
508.31224
508.31212
508.31212
508.31234
508.31229
508.31235
508.31236
508.31235
508.31231
508.31224
508.31214
508.31202
508.31203
508.31227
508.31221
508.31224
508.31225
508.31223
508.31219
508.31212
508.31202
508.31191
508.31193
508.3123
508.31224
508.31225
508.31225
508.31223
508.31219
508.31212
508.31203
508.31193
508.31203
514.4481
514.44803
514.4481
514.44813
514.44814
514.44812
514.44807
514.44801
514.44795
514.44796
514.44803
514.44801
514.44808
514.44811
514.44812
514.44809
514.44805
514.44797
514.44789
514.44791
514.4481
514.44808
514.44815
514.44818
514.44818
514.44816
514.4481
514.44802
514.44792
514.44793
514.44813
514.44811
514.44818
514.44821
514.44821
514.44818
514.44812
514.44803
514.44792
514.44793
514.44814
514.44812
514.44818