/*--------------------------------*- C++ -*----------------------------------*\
| =========                 |                                                 |
| \\      /  F ield         | OpenFOAM: The Open Source CFD Toolbox           |
|  \\    /   O peration     | Version:  v2106                                 |
|   \\  /    A nd           | Website:  www.openfoam.com                      |
|    \\/     M anipulation  |                                                 |
\*---------------------------------------------------------------------------*/
FoamFile
{
    version     2.0;
    format      ascii;
    arch        "LSB;label=32;scalar=64";
    class       volVectorField;
    location    "55";
    object      flux;
}
// * * * * * * * * * * * * * * * * * * * * * * * * * * * * * * * * * * * * * //

dimensions      [0 1 -1 1 0 0 0];

internalField   nonuniform List<vector> 
4000
(
(-4.1001151e-07 -4.1001151e-07 0.32903668)
(-6.3859609e-07 -2.6414705e-07 0.32903221)
(-5.4686011e-08 -2.6245854e-07 0.32903187)
(-3.9268685e-08 -2.60029e-07 0.32903161)
(4.2599887e-09 -2.5923199e-07 0.32903154)
(4.5374442e-08 -2.5941625e-07 0.32903165)
(8.9187973e-08 -2.604122e-07 0.32903192)
(1.3857498e-07 -2.6195634e-07 0.3290324)
(1.7632668e-07 -2.6043908e-07 0.32903311)
(6.2657837e-08 -2.3752838e-07 0.32903396)
(-2.6414705e-07 -6.3859609e-07 0.32903221)
(-4.1726666e-07 -4.1726666e-07 0.32902918)
(-4.8508925e-08 -4.0765207e-07 0.3290289)
(-3.4428848e-08 -4.0036103e-07 0.32902867)
(5.1791104e-09 -3.9798522e-07 0.32902862)
(4.3604126e-08 -3.9874941e-07 0.32902872)
(8.5377843e-08 -4.0235975e-07 0.32902899)
(1.3853465e-07 -4.0932621e-07 0.32902944)
(2.1296861e-07 -4.1694644e-07 0.32903017)
(8.5568543e-08 -4.0050224e-07 0.32903142)
(-2.6245854e-07 -5.468601e-08 0.32903187)
(-4.0765206e-07 -4.8508926e-08 0.3290289)
(-3.7780383e-08 -3.7780385e-08 0.32902868)
(-2.9601835e-08 -3.2093235e-08 0.32902848)
(5.8716136e-09 -3.0328985e-08 0.32902843)
(4.0999911e-08 -3.1415085e-08 0.32902853)
(7.8611169e-08 -3.521435e-08 0.32902878)
(1.2398829e-07 -4.2645047e-08 0.3290292)
(1.8515066e-07 -5.6264524e-08 0.32902984)
(7.3620643e-08 -7.7670274e-08 0.32903095)
(-2.60029e-07 -3.9268682e-08 0.32903161)
(-4.0036104e-07 -3.4428849e-08 0.32902867)
(-3.2093234e-08 -2.9601835e-08 0.32902848)
(-2.6977448e-08 -2.6977447e-08 0.3290283)
(5.8572602e-09 -2.6465457e-08 0.32902826)
(3.871876e-08 -2.7714112e-08 0.32902835)
(7.4147882e-08 -3.0565946e-08 0.32902858)
(1.1748448e-07 -3.4963856e-08 0.32902898)
(1.7794339e-07 -4.050776e-08 0.32902959)
(7.1298043e-08 -4.5332744e-08 0.32903067)
(-2.5923199e-07 4.2599908e-09 0.32903154)
(-3.9798522e-07 5.1791108e-09 0.32902862)
(-3.0328981e-08 5.8716181e-09 0.32902843)
(-2.6465457e-08 5.8572591e-09 0.32902826)
(5.1349493e-09 5.1349524e-09 0.32902821)
(3.6899422e-08 3.8474467e-09 0.3290283)
(7.1361424e-08 2.0928871e-09 0.32902853)
(1.1404647e-07 -2.5251166e-11 0.3290289)
(1.7478177e-07 -2.2206475e-09 0.3290295)
(7.0403987e-08 -3.7559797e-09 0.32903057)
(-2.5941625e-07 4.5374442e-08 0.32903165)
(-3.9874941e-07 4.3604123e-08 0.32902872)
(-3.1415086e-08 4.099991e-08 0.32902853)
(-2.7714114e-08 3.8718758e-08 0.32902835)
(3.8474478e-09 3.6899423e-08 0.3290283)
(3.5676695e-08 3.5676696e-08 0.32902839)
(7.0275184e-08 3.5098719e-08 0.3290286)
(1.1317094e-07 3.5185286e-08 0.32902898)
(1.7421266e-07 3.5814703e-08 0.32902957)
(7.0274488e-08 3.6524681e-08 0.32903064)
(-2.604122e-07 8.9187971e-08 0.32903192)
(-4.0235975e-07 8.5377845e-08 0.32902899)
(-3.5214346e-08 7.8611165e-08 0.32902878)
(-3.0565944e-08 7.4147883e-08 0.32902858)
(2.0928871e-09 7.1361425e-08 0.32902853)
(3.5098717e-08 7.0275184e-08 0.3290286)
(7.0870014e-08 7.0870016e-08 0.32902882)
(1.1476246e-07 7.3171638e-08 0.3290292)
(1.7612116e-07 7.6834859e-08 0.3290298)
(7.0877306e-08 8.0265199e-08 0.32903088)
(-2.6195634e-07 1.3857498e-07 0.3290324)
(-4.0932621e-07 1.3853466e-07 0.32902944)
(-4.2645048e-08 1.2398829e-07 0.3290292)
(-3.4963854e-08 1.1748448e-07 0.32902898)
(-2.5251637e-11 1.1404647e-07 0.3290289)
(3.5185287e-08 1.1317094e-07 0.32902898)
(7.3171639e-08 1.1476246e-07 0.3290292)
(1.1913579e-07 1.1913579e-07 0.3290296)
(1.8130622e-07 1.2638156e-07 0.32903022)
(7.2561381e-08 1.3423155e-07 0.32903132)
(-2.6043908e-07 1.7632668e-07 0.32903311)
(-4.1694644e-07 2.1296861e-07 0.32903017)
(-5.6264527e-08 1.8515066e-07 0.32902984)
(-4.0507761e-08 1.7794339e-07 0.32902959)
(-2.2206433e-09 1.7478177e-07 0.3290295)
(3.5814704e-08 1.7421266e-07 0.32902957)
(7.6834858e-08 1.7612116e-07 0.3290298)
(1.2638156e-07 1.8130622e-07 0.32903022)
(1.9121693e-07 1.9121693e-07 0.32903088)
(7.6110632e-08 2.0516675e-07 0.32903203)
(-2.3752838e-07 6.2657837e-08 0.32903396)
(-4.0050224e-07 8.556854e-08 0.32903142)
(-7.7670272e-08 7.362064e-08 0.32903095)
(-4.5332741e-08 7.1298044e-08 0.32903067)
(-3.7559771e-09 7.0403987e-08 0.32903057)
(3.652468e-08 7.0274488e-08 0.32903064)
(8.0265198e-08 7.0877304e-08 0.32903088)
(1.3423155e-07 7.2561381e-08 0.32903132)
(2.0516675e-07 7.6110632e-08 0.32903203)
(8.186126e-08 8.186126e-08 0.32903327)
(-3.3596227e-06 -3.3596227e-06 0.6969961)
(-5.5069806e-06 -2.3200105e-06 0.6969887)
(-7.7462277e-07 -2.2590817e-06 0.69698787)
(-3.8563556e-07 -2.2335015e-06 0.69698737)
(4.7327947e-08 -2.2256646e-06 0.69698726)
(4.5751753e-07 -2.227683e-06 0.69698749)
(8.9954026e-07 -2.2381615e-06 0.69698807)
(1.4144749e-06 -2.2550561e-06 0.69698908)
(1.881613e-06 -2.2376503e-06 0.69699068)
(6.9003421e-07 -1.8987181e-06 0.69699322)
(-2.3200105e-06 -5.5069806e-06 0.6969887)
(-3.8561707e-06 -3.8561707e-06 0.69698351)
(-6.4485934e-07 -3.6932182e-06 0.69698285)
(-3.3550995e-07 -3.6191147e-06 0.69698242)
(5.6055715e-08 -3.5958029e-06 0.69698232)
(4.3877223e-07 -3.6039713e-06 0.69698254)
(8.5848054e-07 -3.6414e-06 0.69698309)
(1.4152416e-06 -3.7147192e-06 0.69698403)
(2.4161198e-06 -3.7914412e-06 0.69698559)
(1.0289664e-06 -3.4369604e-06 0.69698897)
(-2.2590817e-06 -7.7462276e-07 0.69698787)
(-3.6932182e-06 -6.4485935e-07 0.69698285)
(-5.3756667e-07 -5.3756667e-07 0.69698231)
(-2.8822033e-07 -4.8172375e-07 0.69698194)
(6.247135e-08 -4.6450146e-07 0.69698186)
(4.1192042e-07 -4.7584904e-07 0.69698207)
(7.8879226e-07 -5.1474738e-07 0.69698258)
(1.2644337e-06 -5.9123657e-07 0.69698342)
(2.159372e-06 -7.3357926e-07 0.69698479)
(9.2635493e-07 -9.2563656e-07 0.69698792)
(-2.2335015e-06 -3.8563555e-07 0.69698737)
(-3.6191147e-06 -3.3550995e-07 0.69698242)
(-4.8172375e-07 -2.8822033e-07 0.69698194)
(-2.6244474e-07 -2.6244474e-07 0.6969816)
(6.1930426e-08 -2.5765933e-07 0.69698153)
(3.8852632e-07 -2.7055077e-07 0.69698172)
(7.4309301e-07 -2.9964025e-07 0.6969822)
(1.1964097e-06 -3.4455107e-07 0.69698299)
(2.0817198e-06 -4.0256331e-07 0.69698429)
(9.0092813e-07 -4.5441554e-07 0.69698735)
(-2.2256646e-06 4.7327947e-08 0.69698726)
(-3.5958029e-06 5.6055719e-08 0.69698232)
(-4.6450147e-07 6.2471354e-08 0.69698186)
(-2.5765933e-07 6.1930427e-08 0.69698153)
(5.4365322e-08 5.4365323e-08 0.69698145)
(3.699395e-07 4.1166792e-08 0.69698164)
(7.1479197e-07 2.3306495e-08 0.69698209)
(1.1615106e-06 1.8494179e-09 0.69698285)
(2.0495076e-06 -2.0391292e-08 0.69698411)
(8.9178677e-07 -3.5973209e-08 0.69698715)
(-2.227683e-06 4.5751753e-07 0.69698749)
(-3.6039713e-06 4.3877223e-07 0.69698254)
(-4.7584904e-07 4.1192043e-07 0.69698207)
(-2.7055077e-07 3.8852632e-07 0.69698172)
(4.1166791e-08 3.6993951e-07 0.69698164)
(3.5746749e-07 3.574675e-07 0.69698181)
(7.0377563e-07 3.5161315e-07 0.69698225)
(1.1527119e-06 3.526124e-07 0.696983)
(2.0438972e-06 3.5927046e-07 0.69698426)
(8.9054018e-07 3.6685369e-07 0.69698729)
(-2.2381615e-06 8.9954026e-07 0.69698807)
(-3.6414e-06 8.5848054e-07 0.69698309)
(-5.1474738e-07 7.8879226e-07 0.69698258)
(-2.9964024e-07 7.4309301e-07 0.6969822)
(2.3306497e-08 7.1479196e-07 0.69698209)
(3.5161315e-07 7.0377564e-07 0.69698225)
(7.0993687e-07 7.0993687e-07 0.69698269)
(1.169168e-06 7.3369042e-07 0.69698346)
(2.0637488e-06 7.7180721e-07 0.69698473)
(8.9684225e-07 8.0815608e-07 0.69698778)
(-2.2550561e-06 1.4144749e-06 0.69698908)
(-3.7147192e-06 1.4152416e-06 0.69698403)
(-5.9123657e-07 1.2644337e-06 0.69698342)
(-3.4455107e-07 1.1964097e-06 0.69698299)
(1.8494173e-09 1.1615106e-06 0.69698285)
(3.526124e-07 1.1527119e-06 0.696983)
(7.3369042e-07 1.169168e-06 0.69698346)
(1.2145822e-06 1.2145822e-06 0.69698426)
(2.1183628e-06 1.2912514e-06 0.69698559)
(9.1477276e-07 1.3782059e-06 0.6969887)
(-2.2376503e-06 1.881613e-06 0.69699068)
(-3.7914412e-06 2.4161198e-06 0.69698559)
(-7.3357926e-07 2.159372e-06 0.69698479)
(-4.0256331e-07 2.0817198e-06 0.69698429)
(-2.0391289e-08 2.0495076e-06 0.69698411)
(3.5927046e-07 2.0438972e-06 0.69698426)
(7.7180721e-07 2.0637489e-06 0.69698473)
(1.2912514e-06 2.1183628e-06 0.69698559)
(2.2273725e-06 2.2273725e-06 0.69698703)
(9.5481194e-07 2.4005449e-06 0.6969903)
(-1.8987181e-06 6.9003421e-07 0.69699322)
(-3.4369604e-06 1.0289664e-06 0.69698897)
(-9.2563656e-07 9.2635492e-07 0.69698792)
(-4.5441553e-07 9.0092813e-07 0.69698735)
(-3.5973207e-08 8.9178677e-07 0.69698715)
(3.6685369e-07 8.9054018e-07 0.69698729)
(8.0815608e-07 8.9684225e-07 0.69698778)
(1.3782059e-06 9.1477276e-07 0.6969887)
(2.4005449e-06 9.5481194e-07 0.6969903)
(1.030221e-06 1.030221e-06 0.69699405)
(-5.2855222e-06 -5.2855222e-06 0.69610927)
(-8.7752647e-06 -3.6856375e-06 0.69610398)
(-1.3705074e-06 -3.5725141e-06 0.69610342)
(-6.4593357e-07 -3.5273051e-06 0.69610308)
(1.1813759e-07 -3.5139671e-06 0.69610303)
(8.5314552e-07 -3.5191252e-06 0.69610326)
(1.6729362e-06 -3.5429174e-06 0.69610379)
(2.7493307e-06 -3.5921351e-06 0.69610469)
(4.3434965e-06 -3.623164e-06 0.69610626)
(1.7696728e-06 -3.0425145e-06 0.69610945)
(-3.6856375e-06 -8.7752647e-06 0.69610398)
(-6.2057562e-06 -6.2057562e-06 0.69610028)
(-1.1330091e-06 -5.9101919e-06 0.69609984)
(-5.5811314e-07 -5.7797711e-06 0.69609956)
(1.3040741e-07 -5.7404293e-06 0.69609952)
(8.0972004e-07 -5.7597298e-06 0.69609974)
(1.5634215e-06 -5.8387266e-06 0.69610022)
(2.6289609e-06 -6.0070203e-06 0.69610102)
(5.1679267e-06 -6.2554325e-06 0.69610242)
(2.3503221e-06 -5.653766e-06 0.69610633)
(-3.5725141e-06 -1.3705074e-06 0.69610342)
(-5.9101919e-06 -1.1330091e-06 0.69609984)
(-9.4452223e-07 -9.4452223e-07 0.6960995)
(-4.7617089e-07 -8.4706782e-07 0.69609927)
(1.3817886e-07 -8.1903854e-07 0.69609924)
(7.5484821e-07 -8.4395664e-07 0.69609944)
(1.4256457e-06 -9.215984e-07 0.69609988)
(2.3326248e-06 -1.0725262e-06 0.69610059)
(4.696751e-06 -1.3531572e-06 0.69610178)
(2.1707842e-06 -1.6961231e-06 0.69610546)
(-3.5273051e-06 -6.4593358e-07 0.69610308)
(-5.7797711e-06 -5.5811314e-07 0.69609956)
(-8.4706782e-07 -4.7617089e-07 0.69609927)
(-4.3262945e-07 -4.3262945e-07 0.69609905)
(1.3351859e-07 -4.2708179e-07 0.69609903)
(7.0716018e-07 -4.5424162e-07 0.69609922)
(1.3348519e-06 -5.1214155e-07 0.69609962)
(2.1974022e-06 -6.0066456e-07 0.69610026)
(4.5443298e-06 -7.1550011e-07 0.69610137)
(2.121678e-06 -8.1568626e-07 0.69610498)
(-3.5139671e-06 1.1813759e-07 0.69610303)
(-5.7404293e-06 1.3040741e-07 0.69609952)
(-8.1903854e-07 1.3817886e-07 0.69609924)
(-4.2708179e-07 1.3351859e-07 0.69609903)
(1.1656669e-07 1.165667e-07 0.69609901)
(6.6978845e-07 8.9659672e-08 0.69609917)
(1.2792227e-06 5.4376565e-08 0.69609955)
(2.1292662e-06 1.2652047e-08 0.69610016)
(4.4817293e-06 -3.0232076e-08 0.69610123)
(2.1039934e-06 -5.9843347e-08 0.69610482)
(-3.5191252e-06 8.5314552e-07 0.69610326)
(-5.7597298e-06 8.0972004e-07 0.69609974)
(-8.4395664e-07 7.5484821e-07 0.69609944)
(-4.5424162e-07 7.0716018e-07 0.69609922)
(8.9659669e-08 6.6978845e-07 0.69609917)
(6.4497005e-07 6.4497006e-07 0.69609933)
(1.2578443e-06 6.3367301e-07 0.69609969)
(2.1127935e-06 6.3660306e-07 0.6961003)
(4.4718344e-06 6.5172396e-07 0.69610136)
(2.1019372e-06 6.6920488e-07 0.69610494)
(-3.5429174e-06 1.6729362e-06 0.69610379)
(-5.8387266e-06 1.5634215e-06 0.69610022)
(-9.215984e-07 1.4256457e-06 0.69609988)
(-5.1214155e-07 1.3348519e-06 0.69609962)
(5.4376567e-08 1.2792227e-06 0.69609955)
(6.3367301e-07 1.2578443e-06 0.69609969)
(1.2708557e-06 1.2708557e-06 0.69610005)
(2.1473171e-06 1.3203218e-06 0.69610067)
(4.5143311e-06 1.4022385e-06 0.69610176)
(2.1156473e-06 1.4853716e-06 0.69610537)
(-3.5921351e-06 2.7493307e-06 0.69610469)
(-6.0070203e-06 2.6289609e-06 0.69610102)
(-1.0725262e-06 2.3326248e-06 0.69610059)
(-6.0066456e-07 2.1974022e-06 0.69610026)
(1.2652047e-08 2.1292662e-06 0.69610016)
(6.3660306e-07 2.1127935e-06 0.6961003)
(1.3203218e-06 2.1473172e-06 0.69610067)
(2.2441763e-06 2.2441763e-06 0.69610133)
(4.6368841e-06 2.4195322e-06 0.69610249)
(2.1573593e-06 2.6511938e-06 0.69610618)
(-3.623164e-06 4.3434965e-06 0.69610626)
(-6.2554325e-06 5.1679267e-06 0.69610242)
(-1.3531572e-06 4.696751e-06 0.69610178)
(-7.1550011e-07 4.5443298e-06 0.69610137)
(-3.0232073e-08 4.4817293e-06 0.69610123)
(6.5172396e-07 4.4718344e-06 0.69610136)
(1.4022385e-06 4.5143311e-06 0.69610176)
(2.4195322e-06 4.6368842e-06 0.69610249)
(4.9213486e-06 4.9213486e-06 0.6961038)
(2.2700884e-06 5.5830156e-06 0.69610773)
(-3.0425145e-06 1.7696728e-06 0.69610945)
(-5.653766e-06 2.3503221e-06 0.69610633)
(-1.6961231e-06 2.1707842e-06 0.69610546)
(-8.1568626e-07 2.121678e-06 0.69610498)
(-5.9843344e-08 2.1039934e-06 0.69610482)
(6.6920488e-07 2.1019372e-06 0.69610494)
(1.4853716e-06 2.1156473e-06 0.69610537)
(2.6511938e-06 2.1573593e-06 0.69610618)
(5.5830156e-06 2.2700884e-06 0.69610773)
(2.5984708e-06 2.5984709e-06 0.6961126)
(-6.864115e-06 -6.864115e-06 0.69480796)
(-1.1319551e-05 -4.7763124e-06 0.69480353)
(-1.663864e-06 -4.6282176e-06 0.69480336)
(-7.6546488e-07 -4.5686291e-06 0.69480323)
(2.2883715e-07 -4.5518881e-06 0.69480326)
(1.2077326e-06 -4.5615569e-06 0.69480349)
(2.3250617e-06 -4.6005956e-06 0.69480392)
(3.8727794e-06 -4.6869971e-06 0.69480465)
(6.6186788e-06 -4.7812746e-06 0.69480593)
(2.8113718e-06 -3.963223e-06 0.69480891)
(-4.7763124e-06 -1.1319551e-05 0.69480353)
(-7.9657109e-06 -7.9657109e-06 0.69480053)
(-1.3523392e-06 -7.5777084e-06 0.69480045)
(-6.5097075e-07 -7.4058745e-06 0.69480036)
(2.3944546e-07 -7.3573785e-06 0.6948004)
(1.1346714e-06 -7.3925314e-06 0.69480061)
(2.1369015e-06 -7.5190553e-06 0.69480099)
(3.601761e-06 -7.7944718e-06 0.6948016)
(7.7043385e-06 -8.2454973e-06 0.69480268)
(3.6294233e-06 -7.4008332e-06 0.69480634)
(-4.6282176e-06 -1.6638639e-06 0.69480336)
(-7.5777084e-06 -1.3523392e-06 0.69480045)
(-1.1040274e-06 -1.1040274e-06 0.69480044)
(-5.4513486e-07 -9.7671706e-07 0.69480038)
(2.421803e-07 -9.4470001e-07 0.69480043)
(1.0460557e-06 -9.8819081e-07 0.69480061)
(1.9231212e-06 -1.1099374e-06 0.69480095)
(3.1463373e-06 -1.3428552e-06 0.69480145)
(7.0123176e-06 -1.7738111e-06 0.6948023)
(3.374482e-06 -2.2660964e-06 0.69480573)
(-4.5686291e-06 -7.6546488e-07 0.69480323)
(-7.4058745e-06 -6.5097075e-07 0.69480036)
(-9.7671706e-07 -5.4513486e-07 0.69480038)
(-4.9164338e-07 -4.9164339e-07 0.69480033)
(2.2797171e-07 -4.9073717e-07 0.69480038)
(9.6943405e-07 -5.3628057e-07 0.69480054)
(1.7822372e-06 -6.2681329e-07 0.69480083)
(2.9378873e-06 -7.6304751e-07 0.69480127)
(6.7810974e-06 -9.3930994e-07 0.69480203)
(3.3012329e-06 -1.08902e-06 0.69480539)
(-4.5518881e-06 2.2883715e-07 0.69480326)
(-7.3573785e-06 2.3944546e-07 0.6948004)
(-9.4470002e-07 2.421803e-07 0.69480043)
(-4.9073717e-07 2.2797171e-07 0.69480038)
(1.9754311e-07 1.9754311e-07 0.69480041)
(9.0997962e-07 1.5390299e-07 0.69480056)
(1.6963543e-06 9.8880449e-08 0.69480082)
(2.8338407e-06 3.5115596e-08 0.69480122)
(6.6863451e-06 -2.9656767e-08 0.69480194)
(3.2746752e-06 -7.3531758e-08 0.69480527)
(-4.5615569e-06 1.2077326e-06 0.69480349)
(-7.3925314e-06 1.1346714e-06 0.69480061)
(-9.8819081e-07 1.0460557e-06 0.69480061)
(-5.3628057e-07 9.6943406e-07 0.69480054)
(1.5390299e-07 9.0997962e-07 0.69480056)
(8.7077139e-07 8.707714e-07 0.69480068)
(1.6634498e-06 8.5319421e-07 0.69480093)
(2.8093501e-06 8.5853328e-07 0.69480132)
(6.6724501e-06 8.8386819e-07 0.69480204)
(3.2719829e-06 9.1330079e-07 0.69480536)
(-4.6005956e-06 2.3250617e-06 0.69480392)
(-7.5190553e-06 2.1369015e-06 0.69480099)
(-1.1099374e-06 1.9231212e-06 0.69480095)
(-6.2681329e-07 1.7822372e-06 0.69480083)
(9.8880452e-08 1.6963543e-06 0.69480082)
(8.5319421e-07 1.6634498e-06 0.69480093)
(1.6841162e-06 1.6841162e-06 0.69480118)
(2.8645147e-06 1.7628114e-06 0.69480158)
(6.7411126e-06 1.8954576e-06 0.69480233)
(3.294297e-06 2.0337022e-06 0.69480568)
(-4.6869971e-06 3.8727794e-06 0.69480465)
(-7.7944718e-06 3.601761e-06 0.6948016)
(-1.3428552e-06 3.1463373e-06 0.69480145)
(-7.6304751e-07 2.9378873e-06 0.69480127)
(3.5115596e-08 2.8338407e-06 0.69480122)
(8.5853328e-07 2.8093501e-06 0.69480132)
(1.7628114e-06 2.8645147e-06 0.69480158)
(3.0206916e-06 3.0206916e-06 0.69480203)
(6.9433409e-06 3.3131671e-06 0.69480286)
(3.3641459e-06 3.725285e-06 0.69480629)
(-4.7812746e-06 6.6186788e-06 0.69480593)
(-8.2454973e-06 7.7043386e-06 0.69480268)
(-1.7738111e-06 7.0123176e-06 0.6948023)
(-9.3930994e-07 6.7810974e-06 0.69480203)
(-2.9656757e-08 6.6863451e-06 0.69480194)
(8.8386819e-07 6.6724501e-06 0.69480204)
(1.8954576e-06 6.7411126e-06 0.69480233)
(3.3131671e-06 6.9433409e-06 0.69480286)
(7.4457059e-06 7.4457059e-06 0.69480384)
(3.5690424e-06 8.8157468e-06 0.69480756)
(-3.963223e-06 2.8113718e-06 0.69480891)
(-7.4008332e-06 3.6294233e-06 0.69480634)
(-2.2660964e-06 3.374482e-06 0.69480573)
(-1.08902e-06 3.3012329e-06 0.69480539)
(-7.3531754e-08 3.2746752e-06 0.69480527)
(9.1330079e-07 3.2719829e-06 0.69480536)
(2.0337021e-06 3.294297e-06 0.69480568)
(3.725285e-06 3.3641459e-06 0.69480629)
(8.8157468e-06 3.5690424e-06 0.69480756)
(4.2775074e-06 4.2775074e-06 0.69481249)
(-8.2245957e-06 -8.2245957e-06 0.69312693)
(-1.334514e-05 -5.6726309e-06 0.69312312)
(-1.6610762e-06 -5.5008076e-06 0.69312331)
(-7.3674761e-07 -5.4311119e-06 0.69312338)
(3.7704507e-07 -5.4129698e-06 0.6931235)
(1.504088e-06 -5.4285869e-06 0.6931237)
(2.8258583e-06 -5.4848608e-06 0.69312402)
(4.7482528e-06 -5.6128897e-06 0.69312454)
(8.5859515e-06 -5.7825466e-06 0.69312551)
(3.7469658e-06 -4.7488659e-06 0.69312814)
(-5.6726309e-06 -1.334514e-05 0.69312312)
(-9.2594655e-06 -9.2594655e-06 0.69312068)
(-1.298798e-06 -8.8073236e-06 0.69312093)
(-6.049911e-07 -8.6069212e-06 0.69312102)
(3.8083249e-07 -8.5560654e-06 0.69312114)
(1.3962517e-06 -8.6120405e-06 0.69312133)
(2.5494045e-06 -8.7921362e-06 0.69312159)
(4.3017246e-06 -9.185908e-06 0.69312198)
(9.8819852e-06 -9.8658959e-06 0.69312271)
(4.7806463e-06 -8.8171218e-06 0.69312595)
(-5.5008076e-06 -1.6610762e-06 0.69312331)
(-8.8073236e-06 -1.298798e-06 0.69312093)
(-1.0085317e-06 -1.0085317e-06 0.69312123)
(-4.8548927e-07 -8.6256759e-07 0.69312134)
(3.7192577e-07 -8.337171e-07 0.69312146)
(1.2680172e-06 -9.0122989e-07 0.69312161)
(2.2519907e-06 -1.0726784e-06 0.69312182)
(3.6744929e-06 -1.3949947e-06 0.69312209)
(8.9547379e-06 -1.9878266e-06 0.69312259)
(4.4461498e-06 -2.6376604e-06 0.69312558)
(-5.4311119e-06 -7.3674761e-07 0.69312338)
(-8.6069212e-06 -6.049911e-07 0.69312102)
(-8.6256759e-07 -4.8548926e-07 0.69312134)
(-4.301765e-07 -4.3017649e-07 0.69312146)
(3.4217019e-07 -4.3994115e-07 0.69312157)
(1.1572904e-06 -5.086398e-07 0.6931217)
(2.0556396e-06 -6.362028e-07 0.69312186)
(3.3865764e-06 -8.2472377e-07 0.69312206)
(8.6393197e-06 -1.067392e-06 0.69312246)
(4.3474235e-06 -1.2694737e-06 0.69312537)
(-5.4129698e-06 3.7704507e-07 0.6931235)
(-8.5560654e-06 3.808325e-07 0.69312114)
(-8.337171e-07 3.7192577e-07 0.69312146)
(-4.3994115e-07 3.421702e-07 0.69312157)
(2.9346246e-07 2.9346247e-07 0.69312166)
(1.0717555e-06 2.2932797e-07 0.69312177)
(1.9359067e-06 1.5150554e-07 0.69312189)
(3.2433037e-06 6.3140957e-08 0.69312206)
(8.5099881e-06 -2.5580062e-08 0.69312241)
(4.3114286e-06 -8.4711142e-08 0.69312529)
(-5.4285869e-06 1.504088e-06 0.6931237)
(-8.6120405e-06 1.3962517e-06 0.69312133)
(-9.0122989e-07 1.2680172e-06 0.69312161)
(-5.0863981e-07 1.1572904e-06 0.6931217)
(2.2932797e-07 1.0717555e-06 0.69312177)
(1.0153335e-06 1.0153335e-06 0.69312185)
(1.8894526e-06 9.8971452e-07 0.69312196)
(3.2094908e-06 9.967197e-07 0.69312211)
(8.4914677e-06 1.0324215e-06 0.69312246)
(4.3080028e-06 1.0743542e-06 0.69312534)
(-5.4848608e-06 2.8258583e-06 0.69312402)
(-8.7921362e-06 2.5494045e-06 0.69312159)
(-1.0726784e-06 2.2519907e-06 0.69312182)
(-6.362028e-07 2.0556396e-06 0.69312186)
(1.5150554e-07 1.9359067e-06 0.69312189)
(9.8971451e-07 1.8894526e-06 0.69312196)
(1.917293e-06 1.917293e-06 0.69312207)
(3.2860107e-06 2.0264531e-06 0.69312223)
(8.5876226e-06 2.2126924e-06 0.69312261)
(4.3393838e-06 2.4089753e-06 0.69312552)
(-5.6128897e-06 4.7482528e-06 0.69312454)
(-9.185908e-06 4.3017246e-06 0.69312198)
(-1.3949947e-06 3.6744929e-06 0.69312209)
(-8.2472377e-07 3.3865764e-06 0.69312206)
(6.3140957e-08 3.2433037e-06 0.69312206)
(9.967197e-07 3.2094908e-06 0.69312211)
(2.0264531e-06 3.2860107e-06 0.69312223)
(3.5048903e-06 3.5048903e-06 0.69312244)
(8.8739898e-06 3.9213694e-06 0.6931229)
(4.4388581e-06 4.5238092e-06 0.69312589)
(-5.7825466e-06 8.5859515e-06 0.69312551)
(-9.8658959e-06 9.8819852e-06 0.69312271)
(-1.9878266e-06 8.9547379e-06 0.69312259)
(-1.067392e-06 8.6393197e-06 0.69312246)
(-2.5580054e-08 8.5099881e-06 0.69312241)
(1.0324215e-06 8.4914677e-06 0.69312246)
(2.2126924e-06 8.5876226e-06 0.69312261)
(3.9213694e-06 8.8739898e-06 0.6931229)
(9.6065413e-06 9.6065413e-06 0.69312352)
(4.7410106e-06 1.1756673e-05 0.69312681)
(-4.7488659e-06 3.7469658e-06 0.69312814)
(-8.8171218e-06 4.7806463e-06 0.69312595)
(-2.6376604e-06 4.4461498e-06 0.69312558)
(-1.2694737e-06 4.3474235e-06 0.69312537)
(-8.471114e-08 4.3114286e-06 0.69312529)
(1.0743542e-06 4.3080028e-06 0.69312534)
(2.4089753e-06 4.3393838e-06 0.69312552)
(4.5238092e-06 4.4388581e-06 0.69312589)
(1.1756673e-05 4.7410106e-06 0.69312681)
(5.8722809e-06 5.8722809e-06 0.69313138)
(-9.3929128e-06 -9.3929128e-06 0.69110142)
(-1.4918739e-05 -6.3969981e-06 0.69109818)
(-1.400141e-06 -6.2094438e-06 0.69109867)
(-5.7566729e-07 -6.1329479e-06 0.69109891)
(5.5068813e-07 -6.1151123e-06 0.6910991)
(1.7268528e-06 -6.1379512e-06 0.69109927)
(3.1552536e-06 -6.2131633e-06 0.69109946)
(5.3541696e-06 -6.3866183e-06 0.69109976)
(1.0209249e-05 -6.642579e-06 0.69110041)
(4.5593909e-06 -5.4228134e-06 0.69110266)
(-6.3969981e-06 -1.4918739e-05 0.69109818)
(-1.0143546e-05 -1.0143546e-05 0.69109623)
(-1.0040661e-06 -9.6479955e-06 0.69109676)
(-4.3417016e-07 -9.4293488e-06 0.69109702)
(5.431832e-07 -9.3821102e-06 0.69109721)
(1.5797764e-06 -9.4634394e-06 0.69109735)
(2.7822534e-06 -9.702417e-06 0.69109749)
(4.7100466e-06 -1.0224142e-05 0.69109764)
(1.1654954e-05 -1.1156271e-05 0.69109802)
(5.7791564e-06 -9.9559303e-06 0.69110079)
(-6.2094438e-06 -1.400141e-06 0.69109867)
(-9.6479955e-06 -1.0040661e-06 0.69109676)
(-6.8594393e-07 -6.8594393e-07 0.69109733)
(-3.0978193e-07 -5.3095647e-07 0.6910976)
(5.1659755e-07 -5.1188825e-07 0.69109777)
(1.4065459e-06 -6.0863724e-07 0.69109789)
(2.3945505e-06 -8.3501982e-07 0.69109796)
(3.9003153e-06 -1.2533473e-06 0.69109799)
(1.0477461e-05 -2.0180424e-06 0.69109812)
(5.3596195e-06 -2.836244e-06 0.69110062)
(-6.1329479e-06 -5.7566729e-07 0.69109891)
(-9.4293488e-06 -4.3417016e-07 0.69109702)
(-5.3095647e-07 -3.0978193e-07 0.6910976)
(-2.6011448e-07 -2.6011448e-07 0.69109786)
(4.6550244e-07 -2.8641912e-07 0.69109802)
(1.2566448e-06 -3.8309365e-07 0.69109811)
(2.1375433e-06 -5.5215441e-07 0.69109813)
(3.5270241e-06 -7.9755764e-07 0.69109808)
(1.0072058e-05 -1.1115693e-06 0.69109811)
(5.2336882e-06 -1.3697196e-06 0.69110053)
(-6.1151123e-06 5.5068813e-07 0.6910991)
(-9.3821102e-06 5.4318321e-07 0.69109721)
(-5.1188825e-07 5.1659755e-07 0.69109777)
(-2.8641912e-07 4.6550245e-07 0.69109802)
(3.9361838e-07 3.9361839e-07 0.69109816)
(1.1408107e-06 3.0493282e-07 0.69109821)
(1.9800865e-06 2.0081082e-07 0.6910982)
(3.3409004e-06 8.4716203e-08 0.69109811)
(9.9052995e-06 -3.0666299e-08 0.69109809)
(5.1875192e-06 -1.0670395e-07 0.69110048)
(-6.1379512e-06 1.7268528e-06 0.69109927)
(-9.4634394e-06 1.5797764e-06 0.69109735)
(-6.0863724e-07 1.4065459e-06 0.69109789)
(-3.8309365e-07 1.2566449e-06 0.69109811)
(3.0493282e-07 1.1408107e-06 0.69109821)
(1.0638373e-06 1.0638373e-06 0.69109825)
(1.9173267e-06 1.0275642e-06 0.69109821)
(3.295547e-06 1.0342244e-06 0.6910981)
(9.8806375e-06 1.078839e-06 0.69109808)
(5.1829964e-06 1.1324638e-06 0.69110046)
(-6.2131633e-06 3.1552536e-06 0.69109946)
(-9.702417e-06 2.7822534e-06 0.69109749)
(-8.3501981e-07 2.3945505e-06 0.69109796)
(-5.521544e-07 2.1375433e-06 0.69109813)
(2.0081081e-07 1.9800865e-06 0.6910982)
(1.0275642e-06 1.9173267e-06 0.69109821)
(1.9504736e-06 1.9504736e-06 0.69109817)
(3.3921752e-06 2.0889444e-06 0.69109808)
(1.0003539e-05 2.3281151e-06 0.69109808)
(5.2232691e-06 2.5819207e-06 0.69110049)
(-6.3866183e-06 5.3541696e-06 0.69109976)
(-1.0224142e-05 4.7100466e-06 0.69109764)
(-1.2533473e-06 3.9003153e-06 0.69109799)
(-7.9755764e-07 3.5270241e-06 0.69109808)
(8.47162e-08 3.3409004e-06 0.69109811)
(1.0342244e-06 3.295547e-06 0.6910981)
(2.0889444e-06 3.3921752e-06 0.69109808)
(3.6731885e-06 3.6731885e-06 0.69109803)
(1.0373614e-05 4.2133316e-06 0.6910981)
(5.3522003e-06 5.0055057e-06 0.6911006)
(-6.642579e-06 1.0209249e-05 0.69110041)
(-1.1156271e-05 1.1654954e-05 0.69109802)
(-2.0180424e-06 1.0477461e-05 0.69109812)
(-1.1115693e-06 1.0072058e-05 0.69109811)
(-3.0666301e-08 9.9052995e-06 0.69109809)
(1.078839e-06 9.8806375e-06 0.69109808)
(2.3281151e-06 1.0003539e-05 0.69109808)
(4.2133316e-06 1.0373614e-05 0.6910981)
(1.1335856e-05 1.1335856e-05 0.69109835)
(5.7513857e-06 1.4284992e-05 0.69110113)
(-5.4228134e-06 4.5593909e-06 0.69110266)
(-9.9559303e-06 5.7791564e-06 0.69110079)
(-2.836244e-06 5.3596195e-06 0.69110062)
(-1.3697196e-06 5.2336882e-06 0.69110053)
(-1.0670395e-07 5.1875192e-06 0.69110048)
(1.1324638e-06 5.1829964e-06 0.69110046)
(2.5819207e-06 5.2232691e-06 0.69110049)
(5.0055057e-06 5.3522003e-06 0.6911006)
(1.4284992e-05 5.7513857e-06 0.69110113)
(7.318294e-06 7.318294e-06 0.69110523)
(-1.037955e-05 -1.037955e-05 0.68876575)
(-1.6082723e-05 -6.9629227e-06 0.68876304)
(-9.22466e-07 -6.7662224e-06 0.68876379)
(-3.0584091e-07 -6.6856514e-06 0.68876417)
(7.3477736e-07 -6.6695649e-06 0.68876441)
(1.8651637e-06 -6.7006928e-06 0.68876454)
(3.3051543e-06 -6.7961884e-06 0.6887646)
(5.6855762e-06 -7.0180142e-06 0.68876466)
(1.1479214e-05 -7.3692651e-06 0.688765)
(5.2434698e-06 -5.9940426e-06 0.68876687)
(-6.9629227e-06 -1.6082723e-05 0.68876304)
(-1.0662744e-05 -1.0662744e-05 0.68876156)
(-5.0655942e-07 -1.0140836e-05 0.68876232)
(-1.6085486e-07 -9.9125471e-06 0.68876271)
(7.1221533e-07 -9.8740524e-06 0.68876294)
(1.6752287e-06 -9.9846169e-06 0.68876305)
(2.8291727e-06 -1.0286782e-05 0.68876304)
(4.825962e-06 -1.0943892e-05 0.68876296)
(1.3015169e-05 -1.2146558e-05 0.688763)
(6.6186922e-06 -1.0847564e-05 0.6887653)
(-6.7662224e-06 -9.22466e-07 0.68876379)
(-1.0140836e-05 -5.0655941e-07 0.68876232)
(-1.722691e-07 -1.7226911e-07 0.6887631)
(-3.905737e-08 -1.6479158e-08 0.6887635)
(6.6270756e-07 -1.3022908e-08 0.68876371)
(1.4524335e-06 -1.4364437e-07 0.68876378)
(2.3458788e-06 -4.2946286e-07 0.68876371)
(3.8258002e-06 -9.4915847e-07 0.6887635)
(1.1575543e-05 -1.8932943e-06 0.68876328)
(6.1094679e-06 -2.8892116e-06 0.6887653)
(-6.6856514e-06 -3.0584091e-07 0.68876417)
(-9.9125471e-06 -1.6085486e-07 0.68876271)
(-1.6479159e-08 -3.9057363e-08 0.6887635)
(-1.6086651e-09 -1.6086651e-09 0.68876389)
(5.8505012e-07 -4.9797244e-08 0.68876408)
(1.2587888e-06 -1.7893361e-07 0.68876411)
(2.0236586e-06 -3.9364267e-07 0.68876399)
(3.3621306e-06 -7.0011094e-07 0.6887637)
(1.1075116e-05 -1.0898195e-06 0.68876338)
(5.9547467e-06 -1.4075485e-06 0.68876531)
(-6.6695649e-06 7.3477736e-07 0.68876441)
(-9.8740524e-06 7.1221533e-07 0.68876294)
(-1.3022907e-08 6.6270756e-07 0.68876371)
(-4.9797251e-08 5.8505013e-07 0.68876408)
(4.8538261e-07 4.8538262e-07 0.68876425)
(1.1085881e-06 3.6814977e-07 0.68876425)
(1.8247015e-06 2.3412278e-07 0.68876408)
(3.1296233e-06 8.6942713e-08 0.68876375)
(1.0868105e-05 -5.8091566e-08 0.68876337)
(5.8976484e-06 -1.5297937e-07 0.68876527)
(-6.7006928e-06 1.8651637e-06 0.68876454)
(-9.9846169e-06 1.6752287e-06 0.68876305)
(-1.4364437e-07 1.4524335e-06 0.68876378)
(-1.7893361e-07 1.2587888e-06 0.68876411)
(3.6814976e-07 1.1085881e-06 0.68876425)
(1.0075289e-06 1.0075289e-06 0.68876422)
(1.7424516e-06 9.5743148e-07 0.68876403)
(3.0699163e-06 9.6080654e-07 0.68876367)
(1.0835194e-05 1.0117037e-06 0.68876329)
(5.8914881e-06 1.0752392e-06 0.68876518)
(-6.7961884e-06 3.3051543e-06 0.6887646)
(-1.0286782e-05 2.8291727e-06 0.68876304)
(-4.2946285e-07 2.3458788e-06 0.68876371)
(-3.9364267e-07 2.0236586e-06 0.68876399)
(2.3412277e-07 1.8247015e-06 0.68876408)
(9.5743148e-07 1.7424516e-06 0.68876403)
(1.7779791e-06 1.7779791e-06 0.68876383)
(3.1838955e-06 1.9427568e-06 0.68876349)
(1.0982538e-05 2.2316154e-06 0.68876313)
(5.9400054e-06 2.5400573e-06 0.68876504)
(-7.0180142e-06 5.6855762e-06 0.68876466)
(-1.0943892e-05 4.825962e-06 0.68876296)
(-9.4915847e-07 3.8258002e-06 0.6887635)
(-7.0011094e-07 3.3621306e-06 0.6887637)
(8.6942711e-08 3.1296233e-06 0.68876375)
(9.6080653e-07 3.0699163e-06 0.68876367)
(1.9427568e-06 3.1838955e-06 0.68876349)
(3.5235526e-06 3.5235526e-06 0.68876318)
(1.1432494e-05 4.1822398e-06 0.68876289)
(6.0971162e-06 5.157814e-06 0.68876489)
(-7.3692651e-06 1.1479214e-05 0.688765)
(-1.2146558e-05 1.3015169e-05 0.688763)
(-1.8932943e-06 1.1575543e-05 0.68876328)
(-1.0898195e-06 1.1075116e-05 0.68876338)
(-5.8091565e-08 1.0868105e-05 0.68876337)
(1.0117037e-06 1.0835194e-05 0.68876329)
(2.2316154e-06 1.0982538e-05 0.68876313)
(4.1822398e-06 1.1432494e-05 0.68876289)
(1.2616799e-05 1.2616799e-05 0.68876276)
(6.5903889e-06 1.6361413e-05 0.68876503)
(-5.9940426e-06 5.2434698e-06 0.68876687)
(-1.0847564e-05 6.6186922e-06 0.6887653)
(-2.8892117e-06 6.1094679e-06 0.6887653)
(-1.4075485e-06 5.9547467e-06 0.68876531)
(-1.5297938e-07 5.8976484e-06 0.68876527)
(1.0752392e-06 5.8914881e-06 0.68876518)
(2.5400573e-06 5.9400054e-06 0.68876504)
(5.157814e-06 6.0971161e-06 0.68876489)
(1.6361413e-05 6.5903889e-06 0.68876503)
(8.5935297e-06 8.5935297e-06 0.6887686)