/*--------------------------------*- C++ -*----------------------------------*\
| =========                 |                                                 |
| \\      /  F ield         | OpenFOAM: The Open Source CFD Toolbox           |
|  \\    /   O peration     | Version:  v2106                                 |
|   \\  /    A nd           | Website:  www.openfoam.com                      |
|    \\/     M anipulation  |                                                 |
\*---------------------------------------------------------------------------*/
FoamFile
{
    version     2.0;
    format      ascii;
    arch        "LSB;label=32;scalar=64";
    class       volScalarField;
    location    "55";
    object      gradTz;
}
// * * * * * * * * * * * * * * * * * * * * * * * * * * * * * * * * * * * * * //

dimensions      [0 -1 0 1 0 0 0];

internalField   nonuniform List<scalar> 
4000
(
599.57103
599.56293
599.5623
599.56183
599.56171
599.5619
599.56241
599.56327
599.56456
599.5661
599.56293
599.55744
599.55693
599.55652
599.55641
599.5566
599.55708
599.55791
599.55923
599.56149
599.5623
599.55693
599.55652
599.55617
599.55608
599.55626
599.55671
599.55746
599.55863
599.56065
599.56183
599.55652
599.55617
599.55584
599.55576
599.55593
599.55636
599.55707
599.55818
599.56014
599.56171
599.55641
599.55608
599.55576
599.55569
599.55585
599.55625
599.55694
599.55802
599.55996
599.5619
599.5566
599.55626
599.55593
599.55585
599.556
599.55639
599.55707
599.55814
599.56008
599.56241
599.55708
599.55671
599.55636
599.55625
599.55639
599.55679
599.55747
599.55856
599.56052
599.56327
599.55791
599.55746
599.55707
599.55694
599.55707
599.55747
599.55819
599.55932
599.56131
599.56456
599.55923
599.55863
599.55818
599.55802
599.55814
599.55856
599.55932
599.56053
599.56261
599.5661
599.56149
599.56065
599.56014
599.55996
599.56008
599.56052
599.56131
599.56261
599.56485
1215.0965
1215.0844
1215.083
1215.0822
1215.082
1215.0823
1215.0833
1215.085
1215.0877
1215.0919
1215.0844
1215.0758
1215.0747
1215.074
1215.0739
1215.0742
1215.0751
1215.0767
1215.0793
1215.0849
1215.083
1215.0747
1215.0738
1215.0732
1215.0731
1215.0734
1215.0743
1215.0757
1215.078
1215.0832
1215.0822
1215.074
1215.0732
1215.0727
1215.0725
1215.0729
1215.0737
1215.075
1215.0771
1215.0822
1215.082
1215.0739
1215.0731
1215.0725
1215.0724
1215.0727
1215.0735
1215.0747
1215.0768
1215.0819
1215.0823
1215.0742
1215.0734
1215.0729
1215.0727
1215.073
1215.0737
1215.075
1215.0771
1215.0822
1215.0833
1215.0751
1215.0743
1215.0737
1215.0735
1215.0737
1215.0745
1215.0757
1215.0779
1215.083
1215.085
1215.0767
1215.0757
1215.075
1215.0747
1215.075
1215.0757
1215.0771
1215.0793
1215.0845
1215.0877
1215.0793
1215.078
1215.0771
1215.0768
1215.0771
1215.0779
1215.0793
1215.0817
1215.0872
1215.0919
1215.0849
1215.0832
1215.0822
1215.0819
1215.0822
1215.083
1215.0845
1215.0872
1215.0935
1165.2496
1165.2418
1165.241
1165.2405
1165.2404
1165.2408
1165.2416
1165.2429
1165.2453
1165.2503
1165.2418
1165.2363
1165.2357
1165.2353
1165.2352
1165.2355
1165.2363
1165.2375
1165.2396
1165.2457
1165.241
1165.2357
1165.2352
1165.2348
1165.2348
1165.2351
1165.2358
1165.2368
1165.2386
1165.2444
1165.2405
1165.2353
1165.2348
1165.2345
1165.2345
1165.2348
1165.2354
1165.2364
1165.238
1165.2437
1165.2404
1165.2352
1165.2348
1165.2345
1165.2345
1165.2347
1165.2353
1165.2362
1165.2378
1165.2434
1165.2408
1165.2355
1165.2351
1165.2348
1165.2347
1165.235
1165.2355
1165.2364
1165.238
1165.2436
1165.2416
1165.2363
1165.2358
1165.2354
1165.2353
1165.2355
1165.2361
1165.237
1165.2386
1165.2443
1165.2429
1165.2375
1165.2368
1165.2364
1165.2362
1165.2364
1165.237
1165.238
1165.2397
1165.2455
1165.2453
1165.2396
1165.2386
1165.238
1165.2378
1165.238
1165.2386
1165.2397
1165.2417
1165.2479
1165.2503
1165.2457
1165.2444
1165.2437
1165.2434
1165.2436
1165.2443
1165.2455
1165.2479
1165.2555
1120.2537
1120.2477
1120.2476
1120.2475
1120.2475
1120.2478
1120.2484
1120.2494
1120.2512
1120.2555
1120.2477
1120.2438
1120.2437
1120.2436
1120.2437
1120.244
1120.2445
1120.2454
1120.2468
1120.2521
1120.2476
1120.2437
1120.2438
1120.2437
1120.2438
1120.2441
1120.2445
1120.2452
1120.2463
1120.2513
1120.2475
1120.2436
1120.2437
1120.2437
1120.2438
1120.244
1120.2444
1120.245
1120.246
1120.2508
1120.2475
1120.2437
1120.2438
1120.2438
1120.2438
1120.244
1120.2444
1120.2449
1120.2459
1120.2507
1120.2478
1120.244
1120.2441
1120.244
1120.244
1120.2442
1120.2445
1120.2451
1120.246
1120.2508
1120.2484
1120.2445
1120.2445
1120.2444
1120.2444
1120.2445
1120.2449
1120.2454
1120.2464
1120.2512
1120.2494
1120.2454
1120.2452
1120.245
1120.2449
1120.2451
1120.2454
1120.246
1120.2471
1120.2521
1120.2512
1120.2468
1120.2463
1120.246
1120.2459
1120.246
1120.2464
1120.2471
1120.2485
1120.2538
1120.2555
1120.2521
1120.2513
1120.2508
1120.2507
1120.2508
1120.2512
1120.2521
1120.2538
1120.261
1079.2993
1079.2947
1079.2951
1079.2953
1079.2955
1079.2957
1079.2961
1079.2967
1079.2979
1079.3015
1079.2947
1079.2918
1079.2922
1079.2924
1079.2926
1079.2929
1079.2932
1079.2936
1079.2945
1079.2988
1079.2951
1079.2922
1079.2928
1079.293
1079.2932
1079.2934
1079.2936
1079.2939
1079.2944
1079.2984
1079.2953
1079.2924
1079.293
1079.2932
1079.2934
1079.2936
1079.2937
1079.2939
1079.2943
1079.2982
1079.2955
1079.2926
1079.2932
1079.2934
1079.2935
1079.2937
1079.2938
1079.2939
1079.2943
1079.2981
1079.2957
1079.2929
1079.2934
1079.2936
1079.2937
1079.2938
1079.2939
1079.294
1079.2943
1079.2981
1079.2961
1079.2932
1079.2936
1079.2937
1079.2938
1079.2939
1079.294
1079.2941
1079.2945
1079.2983
1079.2967
1079.2936
1079.2939
1079.2939
1079.2939
1079.294
1079.2941
1079.2943
1079.2948
1079.2987
1079.2979
1079.2945
1079.2944
1079.2943
1079.2943
1079.2943
1079.2945
1079.2948
1079.2955
1079.2998
1079.3015
1079.2988
1079.2984
1079.2982
1079.2981
1079.2981
1079.2983
1079.2987
1079.2998
1079.306
1041.7634
1041.7599
1041.7607
1041.7611
1041.7614
1041.7616
1041.7618
1041.762
1041.7627
1041.7655
1041.7599
1041.7579
1041.7587
1041.7591
1041.7594
1041.7596
1041.7597
1041.7598
1041.7601
1041.7634
1041.7607
1041.7587
1041.7596
1041.76
1041.7603
1041.7604
1041.7604
1041.7603
1041.7603
1041.7633
1041.7611
1041.7591
1041.76
1041.7605
1041.7607
1041.7608
1041.7607
1041.7605
1041.7604
1041.7633
1041.7614
1041.7594
1041.7603
1041.7607
1041.7609
1041.7609
1041.7609
1041.7606
1041.7604
1041.7632
1041.7616
1041.7596
1041.7604
1041.7608
1041.7609
1041.761
1041.7608
1041.7606
1041.7603
1041.7632
1041.7618
1041.7597
1041.7604
1041.7607
1041.7609
1041.7608
1041.7607
1041.7605
1041.7602
1041.7631
1041.762
1041.7598
1041.7603
1041.7605
1041.7606
1041.7606
1041.7605
1041.7603
1041.7601
1041.7632
1041.7627
1041.7601
1041.7603
1041.7604
1041.7604
1041.7603
1041.7602
1041.7601
1041.7603
1041.7636
1041.7655
1041.7634
1041.7633
1041.7633
1041.7632
1041.7632
1041.7631
1041.7632
1041.7636
1041.7688
1007.1569
1007.1543
1007.1554
1007.156
1007.1563
1007.1565
1007.1564
1007.1564
1007.1565
1007.1586
1007.1543
1007.153
1007.1541
1007.1547
1007.155
1007.1551
1007.155
1007.1548
1007.1546
1007.1571
1007.1554
1007.1541
1007.1553
1007.1558
1007.1562
1007.1562
1007.156
1007.1556
1007.1551
1007.1572
1007.156
1007.1547
1007.1558
1007.1564
1007.1567
1007.1567
1007.1565
1007.1559
1007.1553
1007.1573
1007.1563
1007.155
1007.1562
1007.1567
1007.1569
1007.1569
1007.1566
1007.156
1007.1553
1007.1573
1007.1565
1007.1551
1007.1562
1007.1567
1007.1569
1007.1568
1007.1565
1007.1559
1007.1552
1007.1572
1007.1564
1007.155
1007.156
1007.1565
1007.1566
1007.1565
1007.1562
1007.1556
1007.1548
1007.1569
1007.1564
1007.1548
1007.1556
1007.1559
1007.156
1007.1559
1007.1556
1007.155
1007.1544
1007.1565
1007.1565
1007.1546
1007.1551
1007.1553
1007.1553
1007.1552
1007.1548
1007.1544
1007.1539
1007.1564
1007.1586
1007.1571
1007.1572
1007.1573
1007.1573
1007.1572
1007.1569
1007.1565
1007.1564
1007.1605
975.08985
975.08805
975.0894
975.09012
975.09049
975.09054
975.09034
975.08997
975.08973
975.09116
975.08805
975.08741
975.08874
975.08946
975.08981
975.08983
975.08955
975.08899
975.08836
975.0901
975.0894
975.08874
975.09007
975.09077
975.09109
975.09106
975.0907
975.08999
975.08905
975.09045
975.09012
975.08946
975.09077
975.09145
975.09173
975.09166
975.09122
975.09041
975.08934
975.09064
975.09049
975.08981
975.09109
975.09173
975.09197
975.09185
975.09137
975.0905
975.08937
975.09062
975.09054
975.08983
975.09106
975.09166
975.09185
975.09169
975.09117
975.09028
975.08913
975.09037
975.09034
975.08955
975.0907
975.09122
975.09137
975.09117
975.09064
975.08975
975.08862
975.08988
975.08997
975.08899
975.08999
975.09041
975.0905
975.09028
975.08975
975.08889
975.08783
975.08919
975.08973
975.08836
975.08905
975.08934
975.08937
975.08913
975.08862
975.08783
975.08694
975.0886
975.09116
975.0901
975.09045
975.09064
975.09062
975.09037
975.08988
975.08919
975.0886
975.09177
945.24778
945.2467
945.24819
945.249
945.24936
945.24934
945.24898
945.24836
945.24777
945.24865
945.2467
945.2466
945.24806
945.24885
945.24919
945.24914
945.2487
945.2479
945.24692
945.24798
945.24819
945.24806
945.24949
945.25026
945.25058
945.25047
945.24995
945.249
945.24773
945.24847
945.249
945.24885
945.25026
945.251
945.25128
945.25112
945.25053
945.24949
945.24809
945.24873
945.24936
945.24919
945.25058
945.25128
945.25151
945.2513
945.25066
945.24956
945.2481
945.2487
945.24934
945.24914
945.25047
945.25112
945.2513
945.25106
945.25038
945.24925
945.24776
945.24835
945.24898
945.2487
945.24995
945.25053
945.25066
945.25038
945.24969
945.24855
945.24708
945.24768
945.24836
945.2479
945.249
945.24949
945.24956
945.24925
945.24855
945.24744
945.24603
945.24671
945.24777
945.24692
945.24773
945.24809
945.2481
945.24776
945.24708
945.24603
945.24476
945.2457
945.24865
945.24798
945.24847
945.24873
945.2487
945.24835
945.24768
945.24671
945.2457
945.24803
917.37385
917.37339
917.37497
917.37582
917.37616
917.37607
917.37558
917.37475
917.37386
917.37427
917.37339
917.37375
917.37527
917.3761
917.37642
917.3763
917.37573
917.37473
917.37346
917.37394
917.37497
917.37527
917.37676
917.37756
917.37785
917.37768
917.37703
917.37589
917.37435
917.37453
917.37582
917.3761
917.37756
917.37833
917.37858
917.37835
917.37763
917.3764
917.37474
917.37483
917.37616
917.37642
917.37785
917.37858
917.37878
917.37851
917.37774
917.37645
917.37473
917.37477
917.37607
917.3763
917.37768
917.37835
917.37851
917.37819
917.37738
917.37606
917.37432
917.37435
917.37558
917.37573
917.37703
917.37763
917.37774
917.37738
917.37655
917.37523
917.37349
917.37353
917.37475
917.37473
917.37589
917.3764
917.37645
917.37606
917.37523
917.37392
917.37223
917.37233
917.37386
917.37346
917.37435
917.37474
917.37473
917.37432
917.37349
917.37223
917.37066
917.37098
917.37427
917.37394
917.37453
917.37483
917.37477
917.37435
917.37353
917.37233
917.37098
917.37256
891.25625
891.25633
891.25794
891.2588
891.25912
891.25896
891.25835
891.25736
891.25624
891.25623
891.25633
891.25707
891.25861
891.25944
891.25974
891.25954
891.25886
891.25772
891.25623
891.25621
891.25794
891.25861
891.26011
891.26091
891.26117
891.26092
891.26017
891.25889
891.25716
891.25686
891.2588
891.25944
891.26091
891.26167
891.26189
891.26159
891.26077
891.25941
891.25757
891.25717
891.25912
891.25974
891.26117
891.26189
891.26206
891.26172
891.26085
891.25943
891.25753
891.25709
891.25896
891.25954
891.26092
891.26159
891.26172
891.26134
891.26043
891.25897
891.25705
891.2566
891.25835
891.25886
891.26017
891.26077
891.26085
891.26043
891.2595
891.25803
891.25611
891.25566
891.25736
891.25772
891.25889
891.25941
891.25943
891.25897
891.25803
891.25658
891.25469
891.25429
891.25624
891.25623
891.25716
891.25757
891.25753
891.25705
891.25611
891.25469
891.25289
891.25268
891.25623
891.25621
891.25686
891.25717
891.25709
891.2566
891.25566
891.25429
891.25268
891.25359
866.71867
866.71923
866.72082
866.72166
866.72194
866.72172
866.72102
866.71991
866.71861
866.71825
866.71923
866.72027
866.72179
866.7226
866.72286
866.7226
866.72184
866.72058
866.71894
866.71849
866.72082
866.72179
866.72326
866.72403
866.72425
866.72395
866.72312
866.72175
866.71988
866.71917
866.72166
866.7226
866.72403
866.72477
866.72495
866.7246
866.72371
866.72225
866.72028
866.71949
866.72194
866.72286
866.72425
866.72495
866.72509
866.72469
866.72375
866.72224
866.72022
866.71939
866.72172
866.7226
866.72395
866.7246
866.72469
866.72425
866.72327
866.72173
866.71968
866.71884
866.72102
866.72184
866.72312
866.72371
866.72375
866.72327
866.72227
866.72071
866.71866
866.71782
866.71991
866.72058
866.72175
866.72225
866.72224
866.72173
866.72071
866.71916
866.71713
866.71632
866.71861
866.71894
866.71988
866.72028
866.72022
866.71968
866.71866
866.71713
866.71517
866.71451
866.71825
866.71849
866.71917
866.71949
866.71939
866.71884
866.71782
866.71632
866.71451
866.71483
843.61311
843.61407
843.61561
843.61641
843.61665
843.61638
843.61562
843.61442
843.61299
843.61233
843.61407
843.61536
843.61682
843.61759
843.61781
843.6175
843.61668
843.61535
843.61361
843.61279
843.61561
843.61682
843.61823
843.61896
843.61914
843.61879
843.61791
843.61648
843.61453
843.61349
843.61641
843.61759
843.61896
843.61965
843.61979
843.6194
843.61846
843.61695
843.61491
843.61379
843.61665
843.61781
843.61914
843.61979
843.61989
843.61945
843.61846
843.61691
843.61482
843.61367
843.61638
843.6175
843.61879
843.6194
843.61945
843.61897
843.61795
843.61636
843.61425
843.61308
843.61562
843.61668
843.61791
843.61846
843.61846
843.61795
843.6169
843.61529
843.61317
843.612
843.61442
843.61535
843.61648
843.61695
843.61691
843.61636
843.61529
843.61368
843.61158
843.61043
843.61299
843.61361
843.61453
843.61491
843.61482
843.61425
843.61317
843.61158
843.60952
843.60849
843.61233
843.61279
843.61349
843.61379
843.61367
843.61308
843.612
843.61043
843.60849
843.6083
821.81432
821.81563
821.81709
821.81783
821.81803
821.81771
821.81691
821.81566
821.81414
821.81323
821.81563
821.81711
821.81849
821.8192
821.81937
821.81903
821.81817
821.81681
821.81501
821.81388
821.81709
821.81849
821.81981
821.82048
821.82062
821.82023
821.81932
821.81786
821.81589
821.81457
821.81783
821.8192
821.82048
821.82112
821.82121
821.82078
821.81982
821.8183
821.81625
821.81486
821.81803
821.81937
821.82062
821.82121
821.82127
821.8208
821.81979
821.81823
821.81613
821.81472
821.81771
821.81903
821.82023
821.82078
821.8208
821.82029
821.81925
821.81765
821.81553
821.8141
821.81691
821.81817
821.81932
821.81982
821.81979
821.81925
821.81818
821.81657
821.81443
821.813
821.81566
821.81681
821.81786
821.8183
821.81823
821.81765
821.81657
821.81494
821.81281
821.81139
821.81414
821.81501
821.81589
821.81625
821.81613
821.81553
821.81443
821.81281
821.81071
821.80938
821.81323
821.81388
821.81457
821.81486
821.81472
821.8141
821.813
821.81139
821.80938
821.80874
801.21555
801.21715
801.2185
801.21918
801.21933
801.21898
801.21815
801.21688
801.21532
801.2142
801.21715
801.21878
801.22005
801.22069
801.22082
801.22044
801.21957
801.2182
801.21639
801.21501
801.2185
801.22005
801.22125
801.22186
801.22195
801.22154
801.22062
801.21917
801.21722
801.21568
801.21918
801.22069
801.22186
801.22243
801.22248
801.22203
801.22107
801.21956
801.21754
801.21595
801.21933
801.22082
801.22195
801.22248
801.2225
801.22201
801.22101
801.21946
801.2174
801.21578
801.21898
801.22044
801.22154
801.22203
801.22201
801.22149
801.22045
801.21888
801.21679
801.21516
801.21815
801.21957
801.22062
801.22107
801.22101
801.22045
801.21939
801.21779
801.21569
801.21405
801.21688
801.2182
801.21917
801.21956
801.21946
801.21888
801.21779
801.21619
801.21408
801.21245
801.21532
801.21639
801.21722
801.21754
801.2174
801.21679
801.21569
801.21408
801.21199
801.21041
801.2142
801.21501
801.21568
801.21595
801.21578
801.21516
801.21405
801.21245
801.21041
801.20939
781.72514
781.72698
781.7282
781.72881
781.7289
781.72853
781.7277
781.72643
781.72486
781.72359
781.72698
781.72872
781.72985
781.73042
781.7305
781.7301
781.72923
781.72789
781.7261
781.72453
781.7282
781.72985
781.73093
781.73146
781.73151
781.73108
781.73017
781.72876
781.72686
781.72516
781.72881
781.73042
781.73146
781.73196
781.73197
781.73151
781.73056
781.7291
781.72715
781.7254
781.7289
781.7305
781.73151
781.73197
781.73195
781.73145
781.73047
781.72898
781.72699
781.72522
781.72853
781.7301
781.73108
781.73151
781.73145
781.73092
781.72991
781.72839
781.72638
781.7246
781.7277
781.72923
781.73017
781.73056
781.73047
781.72991
781.72887
781.72734
781.72531
781.72352
781.72643
781.72789
781.72876
781.7291
781.72898
781.72839
781.72734
781.72578
781.72374
781.72195
781.72486
781.7261
781.72686
781.72715
781.72699
781.72638
781.72531
781.72374
781.7217
781.71993
781.72359
781.72453
781.72516
781.7254
781.72522
781.7246
781.72352
781.72195
781.71993
781.71858
763.26386
763.26589
763.26697
763.26749
763.26754
763.26715
763.26633
763.2651
763.26355
763.26215
763.26589
763.2677
763.26869
763.26918
763.26921
763.2688
763.26795
763.26666
763.26493
763.26321
763.26697
763.26869
763.26963
763.27008
763.27008
763.26964
763.26876
763.26742
763.26561
763.26379
763.26749
763.26918
763.27008
763.27049
763.27047
763.27
763.26908
763.26771
763.26585
763.264
763.26754
763.26921
763.27008
763.27047
763.27041
763.26991
763.26897
763.26756
763.26568
763.26381
763.26715
763.2688
763.26964
763.27
763.26991
763.26939
763.26842
763.26699
763.26509
763.2632
763.26633
763.26795
763.26876
763.26908
763.26897
763.26842
763.26743
763.26597
763.26405
763.26216
763.2651
763.26666
763.26742
763.26771
763.26756
763.26699
763.26597
763.2645
763.26256
763.26065
763.26355
763.26493
763.26561
763.26585
763.26568
763.26509
763.26405
763.26256
763.2606
763.25869
763.26215
763.26321
763.26379
763.264
763.26381
763.2632
763.26216
763.26065
763.25869
763.25708
745.76276
745.76495
745.76587
745.76631
745.76631
745.76591
745.76512
745.76394
745.76244
745.76094
745.76495
745.76679
745.76764
745.76803
745.76802
745.76761
745.76679
745.76557
745.76392
745.76209
745.76587
745.76764
745.76842
745.76878
745.76874
745.76831
745.76747
745.76621
745.76451
745.76262
745.76631
745.76803
745.76878
745.76911
745.76905
745.76859
745.76772
745.76644
745.76471
745.76279
745.76631
745.76802
745.76874
745.76905
745.76896
745.76847
745.76759
745.76628
745.76453
745.7626
745.76591
745.76761
745.76831
745.76859
745.76847
745.76797
745.76706
745.76573
745.76396
745.76202
745.76512
745.76679
745.76747
745.76772
745.76759
745.76706
745.76613
745.76478
745.76299
745.76104
745.76394
745.76557
745.76621
745.76644
745.76628
745.76573
745.76478
745.76341
745.7616
745.75962
745.76244
745.76392
745.76451
745.76471
745.76453
745.76396
745.76299
745.7616
745.75976
745.75776
745.76094
745.76209
745.76262
745.76279
745.7626
745.76202
745.76104
745.75962
745.75776
745.75592
729.16146
729.16376
729.16452
729.16486
729.16482
729.16442
729.16366
729.16256
729.16113
729.15958
729.16376
729.16561
729.16629
729.1666
729.16654
729.16613
729.16537
729.16423
729.1627
729.16079
729.16452
729.16629
729.16691
729.16719
729.16711
729.16668
729.1659
729.16475
729.16319
729.16126
729.16486
729.1666
729.16719
729.16743
729.16734
729.16689
729.16609
729.16492
729.16335
729.1614
729.16482
729.16654
729.16711
729.16734
729.16722
729.16675
729.16593
729.16475
729.16316
729.16121
729.16442
729.16613
729.16668
729.16689
729.16675
729.16627
729.16543
729.16423
729.16263
729.16066
729.16366
729.16537
729.1659
729.16609
729.16593
729.16543
729.16458
729.16336
729.16174
729.15976
729.16256
729.16423
729.16475
729.16492
729.16475
729.16423
729.16336
729.16211
729.16046
729.15845
729.16113
729.1627
729.16319
729.16335
729.16316
729.16263
729.16174
729.16046
729.15877
729.15671
729.15958
729.16079
729.16126
729.1614
729.16121
729.16066
729.15976
729.15845
729.15671
729.15469
713.40668
713.40907
713.40966
713.4099
713.40982
713.40943
713.40873
713.40771
713.40637
713.40479
713.40907
713.41091
713.41142
713.41163
713.41154
713.41114
713.41043
713.4094
713.408
713.40605
713.40966
713.41142
713.41187
713.41206
713.41195
713.41154
713.41082
713.40979
713.4084
713.40646
713.4099
713.41163
713.41206
713.41222
713.41209
713.41167
713.41094
713.4099
713.40851
713.40656
713.40982
713.41154
713.41195
713.41209
713.41195
713.41151
713.41077
713.40972
713.40832
713.40637
713.40943
713.41114
713.41154
713.41167
713.41151
713.41106
713.41031
713.40925
713.40783
713.40587
713.40873
713.41043
713.41082
713.41094
713.41077
713.41031
713.40954
713.40846
713.40703
713.40506
713.40771
713.4094
713.40979
713.4099
713.40972
713.40925
713.40846
713.40736
713.40589
713.40389
713.40637
713.408
713.4084
713.40851
713.40832
713.40783
713.40703
713.40589
713.40436
713.40229
713.40479
713.40605
713.40646
713.40656
713.40637
713.40587
713.40506
713.40389
713.40229
713.40014
698.45117
698.45361
698.45402
698.45417
698.45405
698.45367
698.45303
698.45211
698.45089
698.44929
698.45361
698.4554
698.45575
698.45587
698.45574
698.45536
698.45472
698.45381
698.45256
698.4506
698.45402
698.45575
698.45604
698.45613
698.45599
698.4556
698.45496
698.45406
698.45285
698.45093
698.45417
698.45587
698.45613
698.45621
698.45605
698.45565
698.45502
698.45412
698.45292
698.45101
698.45405
698.45574
698.45599
698.45605
698.45588
698.45548
698.45484
698.45394
698.45273
698.45082
698.45367
698.45536
698.4556
698.45565
698.45548
698.45507
698.45442
698.45351
698.45229
698.45038
698.45303
698.45472
698.45496
698.45502
698.45484
698.45442
698.45375
698.45282
698.45159
698.44966
698.45211
698.45381
698.45406
698.45412
698.45394
698.45351
698.45282
698.45187
698.4506
698.44864
698.45089
698.45256
698.45285
698.45292
698.45273
698.45229
698.45159
698.4506
698.44927
698.44721
698.44929
698.4506
698.45093
698.45101
698.45082
698.45038
698.44966
698.44864
698.44721
698.44496
684.25266
684.25514
684.25536
684.25542
684.25527
684.25491
684.25434
684.25353
684.25243
684.25085
684.25514
684.25687
684.25704
684.25707
684.25691
684.25655
684.25599
684.25521
684.25412
684.25218
684.25536
684.25704
684.25716
684.25717
684.257
684.25664
684.25609
684.25533
684.25431
684.25244
684.25542
684.25707
684.25717
684.25716
684.25698
684.25662
684.25607
684.25533
684.25433
684.25248
684.25527
684.25691
684.257
684.25698
684.25679
684.25643
684.25589
684.25515
684.25416
684.25231
684.25491
684.25655
684.25664
684.25662
684.25643
684.25607
684.25552
684.25477
684.25378
684.25192
684.25434
684.25599
684.25609
684.25607
684.25589
684.25552
684.25496
684.2542
684.25318
684.25132
684.25353
684.25521
684.25533
684.25533
684.25515
684.25477
684.2542
684.25342
684.25236
684.25045
684.25243
684.25412
684.25431
684.25433
684.25416
684.25378
684.25318
684.25236
684.25123
684.24922
684.25085
684.25218
684.25244
684.25248
684.25231
684.25192
684.25132
684.25045
684.24922
684.2469
670.77315
670.77563
670.77568
670.77564
670.77546
670.77512
670.77463
670.77395
670.77299
670.77144
670.77563
670.77728
670.77728
670.77722
670.77703
670.7767
670.77623
670.77558
670.77468
670.77277
670.77568
670.77728
670.77724
670.77716
670.77696
670.77664
670.77618
670.77558
670.77476
670.77296
670.77564
670.77722
670.77716
670.77707
670.77687
670.77655
670.7761
670.77553
670.77474
670.77297
670.77546
670.77703
670.77696
670.77687
670.77667
670.77635
670.77592
670.77535
670.77458
670.77281
670.77512
670.7767
670.77664
670.77655
670.77635
670.77604
670.7756
670.77503
670.77426
670.7725
670.77463
670.77623
670.77618
670.7761
670.77592
670.7756
670.77516
670.77458
670.77379
670.772
670.77395
670.77558
670.77558
670.77553
670.77535
670.77503
670.77458
670.77397
670.77314
670.77131
670.77299
670.77468
670.77476
670.77474
670.77458
670.77426
670.77379
670.77314
670.77222
670.77027
670.77144
670.77277
670.77296
670.77297
670.77281
670.7725
670.772
670.77131
670.77027
670.76792
657.97818
657.98064
657.98051
657.98039
657.98018
657.97987
657.97946
657.97891
657.9781
657.97659
657.98064
657.9822
657.98204
657.98189
657.98168
657.98138
657.98099
657.9805
657.97978
657.97793
657.98051
657.98204
657.98183
657.98167
657.98145
657.98117
657.98081
657.98037
657.97976
657.97805
657.98039
657.98189
657.98167
657.9815
657.98128
657.98101
657.98067
657.98026
657.9797
657.97803
657.98018
657.98168
657.98145
657.98128
657.98107
657.98081
657.98048
657.98009
657.97955
657.97789
657.97987
657.98138
657.98117
657.98101
657.98081
657.98055
657.98023
657.97984
657.9793
657.97764
657.97946
657.98099
657.98081
657.98067
657.98048
657.98023
657.97991
657.97951
657.97895
657.97727
657.97891
657.9805
657.98037
657.98026
657.98009
657.97984
657.97951
657.97908
657.97848
657.97676
657.9781
657.97978
657.97976
657.9797
657.97955
657.9793
657.97895
657.97848
657.97779
657.97593
657.97659
657.97793
657.97805
657.97803
657.97789
657.97764
657.97727
657.97676
657.97593
657.97357
645.83632
645.83873
645.83844
645.83823
645.83799
645.83772
645.8374
645.83698
645.83632
645.83489
645.83873
645.8402
645.83987
645.83964
645.83941
645.83915
645.83886
645.83851
645.83798
645.83621
645.83844
645.83987
645.8395
645.83926
645.83903
645.83879
645.83853
645.83825
645.83786
645.83626
645.83823
645.83964
645.83926
645.83902
645.83879
645.83857
645.83834
645.8381
645.83777
645.83621
645.83799
645.83941
645.83903
645.83879
645.83858
645.83837
645.83816
645.83794
645.83763
645.83609
645.83772
645.83915
645.83879
645.83857
645.83837
645.83817
645.83797
645.83776
645.83746
645.83592
645.8374
645.83886
645.83853
645.83834
645.83816
645.83797
645.83777
645.83755
645.83723
645.83568
645.83698
645.83851
645.83825
645.8381
645.83794
645.83776
645.83755
645.83731
645.83695
645.83535
645.83632
645.83798
645.83786
645.83777
645.83763
645.83746
645.83723
645.83695
645.83649
645.83474
645.83489
645.83621
645.83626
645.83621
645.83609
645.83592
645.83568
645.83535
645.83474
645.83239
634.31866
634.32102
634.32056
634.32027
634.32001
634.31978
634.31955
634.31927
634.31878
634.31742
634.32102
634.32238
634.32189
634.32158
634.32133
634.32112
634.32092
634.32073
634.32039
634.31872
634.32056
634.32189
634.32137
634.32106
634.32081
634.32062
634.32047
634.32035
634.32018
634.31869
634.32027
634.32158
634.32106
634.32074
634.32051
634.32034
634.32022
634.32016
634.32005
634.31862
634.32001
634.32133
634.32081
634.32051
634.32029
634.32014
634.32005
634.32001
634.31994
634.31853
634.31978
634.32112
634.32062
634.32034
634.32014
634.32
634.31992
634.3199
634.31984
634.31843
634.31955
634.32092
634.32047
634.32022
634.32005
634.31992
634.31985
634.31983
634.31975
634.31833
634.31927
634.32073
634.32035
634.32016
634.32001
634.3199
634.31983
634.31977
634.31965
634.31818
634.31878
634.32039
634.32018
634.32005
634.31994
634.31984
634.31975
634.31965
634.31943
634.3178
634.31742
634.31872
634.31869
634.31862
634.31853
634.31843
634.31833
634.31818
634.3178
634.31549
623.39847
623.40076
623.40013
623.39977
623.3995
623.39931
623.39918
623.39904
623.39871
623.39743
623.40076
623.40199
623.40135
623.40097
623.40071
623.40054
623.40045
623.40042
623.40028
623.39871
623.40013
623.40135
623.40069
623.40031
623.40006
623.39991
623.39987
623.39993
623.39997
623.39862
623.39977
623.40097
623.40031
623.39993
623.39969
623.39958
623.39958
623.39969
623.39981
623.39852
623.3995
623.40071
623.40006
623.39969
623.39948
623.39938
623.39941
623.39956
623.39972
623.39846
623.39931
623.40054
623.39991
623.39958
623.39938
623.39931
623.39936
623.39953
623.3997
623.39844
623.39918
623.40045
623.39987
623.39958
623.39941
623.39936
623.39942
623.39958
623.39974
623.39847
623.39904
623.40042
623.39993
623.39969
623.39956
623.39953
623.39958
623.39972
623.39984
623.39851
623.39871
623.40028
623.39997
623.39981
623.39972
623.3997
623.39974
623.39984
623.39985
623.39836
623.39743
623.39871
623.39862
623.39852
623.39846
623.39844
623.39847
623.39851
623.39836
623.39611
613.05079
613.053
613.05223
613.05179
613.05151
613.05137
613.05134
613.05134
613.05118
613.05
613.053
613.05411
613.05333
613.05289
613.05262
613.0525
613.05251
613.05263
613.05269
613.05124
613.05223
613.05333
613.05253
613.05209
613.05183
613.05174
613.05181
613.05204
613.0523
613.05108
613.05179
613.05289
613.05209
613.05165
613.05142
613.05136
613.05148
613.05176
613.05211
613.05097
613.05151
613.05262
613.05183
613.05142
613.05121
613.05118
613.05133
613.05166
613.05205
613.05094
613.05137
613.0525
613.05174
613.05136
613.05118
613.05118
613.05135
613.0517
613.05211
613.05101
613.05134
613.05251
613.05181
613.05148
613.05133
613.05135
613.05154
613.05189
613.05229
613.05117
613.05134
613.05263
613.05204
613.05176
613.05166
613.0517
613.05189
613.05222
613.05257
613.0514
613.05118
613.05269
613.0523
613.05211
613.05205
613.05211
613.05229
613.05257
613.05282
613.05147
613.05
613.05124
613.05108
613.05097
613.05094
613.05101
613.05117
613.0514
613.05147
613.0493
603.25223
603.25434
603.25343
603.25293
603.25265
603.25256
603.25262
603.25277
603.25278
603.2517
603.25434
603.25533
603.25442
603.25391
603.25364
603.25358
603.2537
603.25397
603.25423
603.2529
603.25343
603.25442
603.25349
603.25299
603.25274
603.25271
603.25289
603.25328
603.25376
603.25269
603.25293
603.25391
603.25299
603.2525
603.25227
603.25228
603.25251
603.25297
603.25355
603.25256
603.25265
603.25364
603.25274
603.25227
603.25207
603.25211
603.25239
603.2529
603.25352
603.25257
603.25256
603.25358
603.25271
603.25228
603.25211
603.25218
603.25249
603.25302
603.25366
603.25272
603.25262
603.2537
603.25289
603.25251
603.25239
603.25249
603.2528
603.25334
603.25397
603.25302
603.25277
603.25397
603.25328
603.25297
603.2529
603.25302
603.25334
603.25385
603.25444
603.25343
603.25278
603.25423
603.25376
603.25355
603.25352
603.25366
603.25397
603.25444
603.25493
603.25373
603.2517
603.2529
603.25269
603.25256
603.25257
603.25272
603.25302
603.25343
603.25373
603.25165
593.98066
593.98266
593.98162
593.98106
593.98078
593.98075
593.98092
593.98121
593.98138
593.98042
593.98266
593.98352
593.98248
593.98193
593.98166
593.98165
593.98188
593.98231
593.98277
593.98157
593.98162
593.98248
593.98144
593.9809
593.98065
593.98068
593.98098
593.98153
593.98222
593.98131
593.98106
593.98193
593.9809
593.98036
593.98015
593.98022
593.98057
593.9812
593.982
593.98117