/*--------------------------------*- C++ -*----------------------------------*\
| =========                 |                                                 |
| \\      /  F ield         | OpenFOAM: The Open Source CFD Toolbox           |
|  \\    /   O peration     | Version:  v2106                                 |
|   \\  /    A nd           | Website:  www.openfoam.com                      |
|    \\/     M anipulation  |                                                 |
\*---------------------------------------------------------------------------*/
FoamFile
{
    version     2.0;
    format      ascii;
    arch        "LSB;label=32;scalar=64";
    class       volVectorField;
    location    "55";
    object      gradT;
}
// * * * * * * * * * * * * * * * * * * * * * * * * * * * * * * * * * * * * * //

dimensions      [0 -1 0 1 0 0 0];

internalField   nonuniform List<vector> 
4000
(
(-0.00026302306 -0.00026302306 576.42527)
(-0.00014913919 -4.8720405e-05 576.42353)
(0.00032835745 -7.2940897e-05 576.42466)
(0.00012626134 -7.4118143e-05 576.42509)
(5.4575003e-05 -7.5084935e-05 576.42532)
(-2.8866842e-06 -7.6919011e-05 576.42538)
(-4.2982099e-05 -8.0607377e-05 576.4253)
(-5.3743781e-05 -8.809987e-05 576.42514)
(-2.4418599e-05 -0.00010006688 576.42501)
(3.3698667e-07 -0.00010288638 576.42506)
(-4.8720405e-05 -0.00014913918 576.42353)
(0.00013598405 0.00013598406 576.42314)
(0.00029026085 9.6547905e-05 576.42413)
(0.00012304529 9.3228708e-05 576.42456)
(5.0373702e-05 8.9369991e-05 576.42478)
(-1.1170347e-05 8.2961861e-05 576.42482)
(-5.9753388e-05 7.1577392e-05 576.42471)
(-8.293304e-05 4.9857682e-05 576.4245)
(-4.6598371e-05 1.1008958e-05 576.42427)
(-2.4825151e-06 -3.0089921e-05 576.42434)
(-7.29409e-05 0.00032835746 576.42466)
(9.6547896e-05 0.00029026085 576.42413)
(0.0002856021 0.00028560211 576.42511)
(0.00011908343 0.00028173975 576.42553)
(4.4308156e-05 0.00027624455 576.42573)
(-2.0679283e-05 0.00026856986 576.42576)
(-7.6086279e-05 0.00025746732 576.42562)
(-0.00011431221 0.00024035218 576.42535)
(-0.0001043662 0.00021197348 576.42501)
(-2.7062266e-05 0.00016897773 576.42489)
(-7.4118139e-05 0.00012626134 576.42509)
(9.3228707e-05 0.00012304528 576.42456)
(0.00028173974 0.00011908344 576.42553)
(0.00011368772 0.00011368772 576.42593)
(3.7203813e-05 0.00010707529 576.42612)
(-2.9947572e-05 9.9101771e-05 576.42612)
(-8.7971068e-05 8.9350189e-05 576.42596)
(-0.00012842688 7.7688153e-05 576.42565)
(-0.00011797283 6.5237245e-05 576.42527)
(-3.1146351e-05 5.5790135e-05 576.42512)
(-7.5084935e-05 5.4575003e-05 576.42532)
(8.9369998e-05 5.0373697e-05 576.42478)
(0.00027624454 4.4308158e-05 576.42573)
(0.00010707529 3.7203814e-05 576.42612)
(2.9722206e-05 2.9722198e-05 576.42629)
(-3.8404386e-05 2.2022817e-05 576.42627)
(-9.7499897e-05 1.3970475e-05 576.42608)
(-0.00013842516 5.6474185e-06 576.42575)
(-0.00012626422 -2.0792697e-06 576.42535)
(-3.3360339e-05 -7.0538639e-06 576.42517)
(-7.691901e-05 -2.8866838e-06 576.42538)
(8.2961862e-05 -1.1170345e-05 576.42482)
(0.00026856986 -2.0679287e-05 576.42576)
(9.9101764e-05 -2.9947567e-05 576.42612)
(2.2022817e-05 -3.8404389e-05 576.42627)
(-4.5699294e-05 -4.5699295e-05 576.42623)
(-0.00010434647 -5.1967467e-05 576.42603)
(-0.00014447662 -5.7161191e-05 576.42568)
(-0.00013067411 -6.0979961e-05 576.42526)
(-3.4462747e-05 -6.299232e-05 576.42507)
(-8.0607376e-05 -4.2982099e-05 576.4253)
(7.1577395e-05 -5.9753393e-05 576.42471)
(0.00025746732 -7.6086278e-05 576.42562)
(8.9350184e-05 -8.7971065e-05 576.42596)
(1.3970478e-05 -9.7499893e-05 576.42608)
(-5.1967464e-05 -0.00010434647 576.42603)
(-0.00010896179 -0.00010896179 576.4258)
(-0.00014743765 -0.0001114447 576.42544)
(-0.00013209535 -0.00011184936 576.42502)
(-3.4701912e-05 -0.0001109931 576.42484)
(-8.8099873e-05 -5.3743783e-05 576.42514)
(4.9857684e-05 -8.2933033e-05 576.4245)
(0.00024035219 -0.00011431221 576.42535)
(7.7688148e-05 -0.00012842688 576.42565)
(5.6474148e-06 -0.00013842516 576.42575)
(-5.716119e-05 -0.00014447663 576.42568)
(-0.0001114447 -0.00014743765 576.42544)
(-0.00014736419 -0.00014736419 576.42508)
(-0.0001302225 -0.00014401376 576.42466)
(-3.3891907e-05 -0.00013882008 576.42448)
(-0.00010006688 -2.4418601e-05 576.42501)
(1.1008965e-05 -4.6598367e-05 576.42427)
(0.00021197347 -0.00010436621 576.42501)
(6.5237235e-05 -0.00011797283 576.42527)
(-2.0792705e-06 -0.00012626422 576.42535)
(-6.0979953e-05 -0.00013067411 576.42526)
(-0.00011184935 -0.00013209535 576.42502)
(-0.00014401376 -0.0001302225 576.42466)
(-0.00012355124 -0.00012355123 576.42426)
(-3.1239459e-05 -0.00011181648 576.4241)
(-0.00010288638 3.3698797e-07 576.42506)
(-3.0089922e-05 -2.4825189e-06 576.42434)
(0.00016897772 -2.7062269e-05 576.42489)
(5.5790136e-05 -3.1146351e-05 576.42512)
(-7.053859e-06 -3.3360335e-05 576.42517)
(-6.2992322e-05 -3.4462743e-05 576.42507)
(-0.0001109931 -3.4701915e-05 576.42484)
(-0.00013882007 -3.3891907e-05 576.42448)
(-0.00011181648 -3.1239458e-05 576.4241)
(-2.6068737e-05 -2.6068735e-05 576.42401)
(-0.00094776986 -0.00094776986 851.68253)
(-0.00047008138 -0.00024900082 851.68102)
(0.0013552478 -0.00030696048 851.68225)
(0.00061159173 -0.00031194721 851.68285)
(0.00025898733 -0.0003167789 851.68315)
(-2.3118795e-05 -0.00032573085 851.68321)
(-0.00022098881 -0.00034394173 851.68307)
(-0.00026572843 -0.00038193277 851.6828)
(-5.737561e-05 -0.00044251878 851.68259)
(4.1035196e-05 -0.00041083345 851.68288)
(-0.00024900082 -0.00047008138 851.68102)
(0.00049113269 0.00049113269 851.68064)
(0.0012608282 0.00038837017 851.6818)
(0.0005968641 0.00037214381 851.68239)
(0.00023831187 0.00035294124 851.68269)
(-6.3863051e-05 0.00032161567 851.68273)
(-0.00030529168 0.00026561932 851.68254)
(-0.000413594 0.00015664859 851.68218)
(-0.00010072663 -4.0367766e-05 851.68177)
(7.2720527e-05 -0.00016351359 851.68211)
(-0.00030696048 0.0013552478 851.68225)
(0.00038837017 0.0012608282 851.6818)
(0.0012362589 0.0012362589 851.68294)
(0.00057616279 0.0012158938 851.68352)
(0.0002084592 0.0011888129 851.68379)
(-0.00011044072 0.0011512977 851.68381)
(-0.00038595589 0.0010969843 851.68358)
(-0.00057171551 0.0010124071 851.68313)
(-0.00037753779 0.00086769133 851.68256)
(-4.1062021e-05 0.0006623892 851.68265)
(-0.00031194721 0.00061159173 851.68285)
(0.00037214381 0.0005968641 851.68239)
(0.0012158938 0.0005761628 851.68352)
(0.00054941805 0.00054941806 851.68408)
(0.00017371582 0.00051706917 851.68433)
(-0.00015569163 0.00047814378 851.68431)
(-0.00044418227 0.00043058199 851.68404)
(-0.00064288695 0.00037363466 851.68354)
(-0.00045074456 0.00031110824 851.68291)
(-6.4147557e-05 0.00026069266 851.68294)
(-0.00031677889 0.00025898734 851.68315)
(0.00035294124 0.00023831187 851.68269)
(0.0011888129 0.0002084592 851.68379)
(0.00051706917 0.00017371582 851.68433)
(0.00013718492 0.00013718492 851.68456)
(-0.0001969279 9.9600613e-05 851.68451)
(-0.00049046501 6.0340819e-05 851.6842)
(-0.00069118927 1.9929397e-05 851.68366)
(-0.00049047979 -1.7377536e-05 851.68299)
(-7.4672408e-05 -4.0952958e-05 851.683)
(-0.00032573085 -2.3118792e-05 851.68321)
(0.00032161567 -6.3863052e-05 851.68273)
(0.0011512977 -0.00011044072 851.68381)
(0.00047814378 -0.00015569163 851.68431)
(9.9600609e-05 -0.00019692789 851.68451)
(-0.00023253573 -0.00023253573 851.68443)
(-0.00052385348 -0.0002630977 851.6841)
(-0.00072060531 -0.00028834984 851.68353)
(-0.00051162691 -0.00030674289 851.68284)
(-7.9864505e-05 -0.000316028 851.68284)
(-0.00034394173 -0.00022098882 851.68307)
(0.00026561932 -0.00030529169 851.68254)
(0.0010969843 -0.00038595589 851.68358)
(0.00043058199 -0.00044418227 851.68404)
(6.0340824e-05 -0.00049046502 851.6842)
(-0.0002630977 -0.00052385348 851.6841)
(-0.00054627913 -0.00054627912 851.68374)
(-0.00073483446 -0.00055809865 851.68316)
(-0.00051815795 -0.00055928722 851.68247)
(-8.0862482e-05 -0.00055363665 851.68246)
(-0.00038193277 -0.00026572843 851.6828)
(0.00015664859 -0.00041359399 851.68218)
(0.0010124071 -0.00057171551 851.68313)
(0.00037363465 -0.00064288695 851.68354)
(1.9929398e-05 -0.00069118927 851.68366)
(-0.00028834984 -0.00072060531 851.68353)
(-0.00055809865 -0.00073483446 851.68316)
(-0.00073361341 -0.00073361341 851.68258)
(-0.00050716492 -0.00071420681 851.68189)
(-7.6097455e-05 -0.00068107373 851.68191)
(-0.00044251877 -5.7375611e-05 851.68259)
(-4.036776e-05 -0.00010072662 851.68177)
(0.00086769132 -0.00037753779 851.68256)
(0.00031110823 -0.00045074456 851.68291)
(-1.7377535e-05 -0.00049047978 851.68299)
(-0.00030674289 -0.00051162692 851.68284)
(-0.00055928723 -0.00051815794 851.68247)
(-0.00071420681 -0.00050716492 851.68189)
(-0.00046561827 -0.00046561827 851.68124)
(-5.8773763e-05 -0.00037326859 851.68132)
(-0.00041083345 4.1035195e-05 851.68288)
(-0.00016351359 7.2720524e-05 851.68211)
(0.00066238921 -4.1062025e-05 851.68265)
(0.00026069267 -6.4147554e-05 851.68294)
(-4.0952962e-05 -7.4672405e-05 851.683)
(-0.000316028 -7.9864505e-05 851.68284)
(-0.00055363665 -8.0862479e-05 851.68246)
(-0.00068107374 -7.6097454e-05 851.68191)
(-0.00037326859 -5.8773762e-05 851.68132)
(-1.4530999e-05 -1.4530998e-05 851.68167)
(-0.0012724172 -0.0012724172 845.95174)
(-0.0004354386 -0.000297536 845.95085)
(0.0021567428 -0.00036794229 845.95183)
(0.0010333272 -0.00037542816 845.95236)
(0.00042198499 -0.00038384742 845.95262)
(-8.45968e-05 -0.0003995051 845.95263)
(-0.00045530363 -0.00043204497 845.95244)
(-0.00053728611 -0.00050534827 845.95209)
(5.9247129e-05 -0.00064428841 845.95178)
(0.00019869323 -0.0006188901 845.95218)
(-0.000297536 -0.0004354386 845.95085)
(0.0009212737 0.0009212737 845.95072)
(0.0020399046 0.00079224861 845.95166)
(0.0010094695 0.00076565707 845.95218)
(0.00038586958 0.0007317173 845.95242)
(-0.00015689312 0.0006764006 845.95242)
(-0.00061406839 0.00057708126 845.95219)
(-0.00085565127 0.0003768501 845.95174)
(-0.00011106562 -1.7127357e-05 845.95119)
(0.00022409154 -0.00026203575 845.95161)
(-0.0003679423 0.0021567428 845.95183)
(0.00079224861 0.0020399046 845.95166)
(0.0020011262 0.0020011262 845.95259)
(0.0009727959 0.0019650386 845.95309)
(0.00033272852 0.0019167745 845.95332)
(-0.00023923284 0.0018499609 845.95329)
(-0.00075485413 0.0017536238 845.95302)
(-0.0011314947 0.0016048901 845.95249)
(-0.00057963872 0.0013487653 845.95179)
(3.5420969e-05 0.0010015762 845.95199)
(-0.00037542816 0.0010333272 845.95236)
(0.00076565707 0.0010094695 845.95218)
(0.0019650386 0.00097279591 845.95309)
(0.00092511788 0.00092511788 845.95358)
(0.0002707918 0.0008675262 845.95378)
(-0.00032004386 0.00079822162 845.95372)
(-0.00085913914 0.00071345963 845.95341)
(-0.0012605098 0.00061187945 845.95283)
(-0.00071437953 0.00049888725 845.95207)
(-7.3678677e-06 0.00040658763 845.95221)
(-0.00038384742 0.00042198498 845.95262)
(0.0007317173 0.00038586958 845.95242)
(0.0019167745 0.00033272852 845.95332)
(0.00086752619 0.00027079181 845.95378)
(0.00020583225 0.00020583226 845.95396)
(-0.00039329941 0.00013903572 845.95387)
(-0.00094119629 6.9344747e-05 845.95352)
(-0.0013460671 -2.1947057e-06 845.95291)
(-0.00078493054 -6.8162997e-05 845.95211)
(-2.6112111e-05 -0.00010985166 845.95223)
(-0.00039950509 -8.4596806e-05 845.95263)
(0.00067640061 -0.00015689313 845.95242)
(0.0018499609 -0.00023923284 845.95329)
(0.00079822162 -0.00032004386 845.95372)
(0.00013903572 -0.0003932994 845.95387)
(-0.00045653138 -0.00045653137 845.95375)
(-0.0010003696 -0.00051068456 845.95338)
(-0.0013980175 -0.00055519371 845.95274)
(-0.00082203649 -0.00058719876 845.95192)
(-3.5160309e-05 -0.00060281774 845.95203)
(-0.00043204497 -0.00045530363 845.95244)
(0.00057708126 -0.00061406839 845.95219)
(0.0017536238 -0.00075485413 845.95302)
(0.00071345964 -0.00085913914 845.95341)
(6.9344745e-05 -0.00094119629 845.95352)
(-0.00051068457 -0.0010003696 845.95338)
(-0.0010398586 -0.0010398586 845.95298)
(-0.0014225813 -0.0010599276 845.95233)
(-0.00083255457 -0.0010596416 845.9515)
(-3.6524767e-05 -0.0010452755 845.95161)
(-0.00050534827 -0.00053728612 845.95209)
(0.0003768501 -0.00085565127 845.95174)
(0.0016048901 -0.0011314947 845.95249)
(0.00061187946 -0.0012605098 845.95283)
(-2.1947073e-06 -0.0013460671 845.95291)
(-0.00055519371 -0.0013980175 845.95274)
(-0.0010599276 -0.0014225813 845.95233)
(-0.0014178004 -0.0014178004 845.95168)
(-0.00080738443 -0.0013731873 845.95086)
(-2.5582939e-05 -0.0012849032 845.95099)
(-0.0006442884 5.9247129e-05 845.95178)
(-1.7127355e-05 -0.00011106561 845.95119)
(0.0013487653 -0.00057963872 845.95179)
(0.00049888726 -0.00071437954 845.95207)
(-6.8163001e-05 -0.00078493055 845.95211)
(-0.00058719876 -0.00082203649 845.95192)
(-0.0010596416 -0.00083255457 845.9515)
(-0.0013731873 -0.00080738443 845.95086)
(-0.00069965739 -0.00069965739 845.95008)
(2.2331272e-05 -0.00034981347 845.95031)
(-0.0006188901 0.00019869323 845.95218)
(-0.00026203575 0.00022409154 845.95161)
(0.0010015762 3.542097e-05 845.95199)
(0.00040658763 -7.3678704e-06 845.95221)
(-0.00010985166 -2.6112115e-05 845.95223)
(-0.00060281774 -3.5160311e-05 845.95203)
(-0.0010452755 -3.6524768e-05 845.95161)
(-0.0012849032 -2.5582939e-05 845.95099)
(-0.00034981346 2.2331274e-05 845.95031)
(0.00020764635 0.00020764635 845.95107)
(-0.0015411359 -0.0015411359 840.25877)
(-0.00037650056 -0.00033957832 840.258)
(0.0028619589 -0.00042294635 840.25889)
(0.0013916282 -0.00043307681 840.25935)
(0.000534658 -0.00044503303 840.25956)
(-0.00019706631 -0.00046706271 840.25953)
(-0.00076049096 -0.0005127163 840.25928)
(-0.00093163827 -0.00061793341 840.25887)
(3.2675318e-05 -0.00083031556 840.25843)
(0.00031378294 -0.00079323718 840.25873)
(-0.00033957832 -0.00037650055 840.258)
(0.0013007837 0.0013007837 840.25788)
(0.0027217112 0.0011448427 840.25873)
(0.0013584982 0.0011076838 840.25918)
(0.00048367915 0.0010592091 840.25938)
(-0.00029859122 0.00098065596 840.25933)
(-0.00098679702 0.00084030049 840.25905)
(-0.0014080372 0.00055513952 840.25854)
(-0.00023028033 -2.6061917e-05 840.25788)
(0.00035086132 -0.00035360825 840.25823)
(-0.00042294635 0.0028619589 840.25889)
(0.0011448427 0.0027217112 840.25873)
(0.002668859 0.002668859 840.25957)
(0.0013059947 0.0026171765 840.26)
(0.0004076302 0.0025480922 840.26018)
(-0.00041597496 0.0024526115 840.26011)
(-0.0011860074 0.0023152476 840.25978)
(-0.0017980007 0.0021043794 840.2592)
(-0.00087607246 0.0017398691 840.25839)
(9.5418712e-05 0.0012644133 840.25855)
(-0.00043307681 0.0013916282 840.25935)
(0.0011076838 0.0013584982 840.25918)
(0.0026171765 0.0013059947 840.26)
(0.0012377315 0.0012377315 840.26042)
(0.00031911417 0.0011554527 840.26058)
(-0.00053143581 0.0010565543 840.26047)
(-0.0013350291 0.0009356354 840.26011)
(-0.0019834157 0.00079086733 840.25948)
(-0.0010702464 0.0006287004 840.25861)
(3.3890753e-05 0.00049638893 840.25871)
(-0.00044503302 0.00053465799 840.25956)
(0.0010592092 0.00048367915 840.25938)
(0.0025480922 0.0004076302 840.26018)
(0.0011554527 0.00031911417 840.26058)
(0.00022645304 0.00022645305 840.2607)
(-0.00063579225 0.00013128078 840.26057)
(-0.0014516944 3.2128027e-05 840.26018)
(-0.0021049357 -6.9386114e-05 840.25951)
(-0.0011705509 -0.00016291292 840.25861)
(7.2110659e-06 -0.00022200537 840.25868)
(-0.00046706271 -0.00019706631 840.25953)
(0.00098065596 -0.00029859123 840.25933)
(0.0024526115 -0.00041597497 840.26011)
(0.0010565543 -0.00053143581 840.26047)
(0.00013128078 -0.00063579225 840.26057)
(-0.00072576083 -0.00072576083 840.26041)
(-0.001535696 -0.00080260854 840.25999)
(-0.0021784566 -0.00086545935 840.2593)
(-0.0012228657 -0.00091028253 840.25838)
(-5.5042119e-06 -0.00093186884 840.25844)
(-0.0005127163 -0.00076049097 840.25928)
(0.00084030049 -0.00098679703 840.25905)
(0.0023152476 -0.0011860074 840.25978)
(0.0009356354 -0.0013350291 840.26011)
(3.2128024e-05 -0.0014516944 840.26018)
(-0.00080260854 -0.001535696 840.25999)
(-0.0015913929 -0.0015913929 840.25955)
(-0.0022126097 -0.0016189607 840.25885)
(-0.0012369603 -0.0016167414 840.25792)
(-7.1798051e-06 -0.0015938514 840.25798)
(-0.00061793341 -0.00093163827 840.25887)
(0.00055513953 -0.0014080372 840.25854)
(0.0021043794 -0.0017980007 840.2592)
(0.00079086733 -0.0019834157 840.25948)
(-6.9386112e-05 -0.0021049357 840.25951)
(-0.00086545936 -0.0021784566 840.2593)
(-0.0016189607 -0.0022126097 840.25885)
(-0.0022038052 -0.0022038052 840.25814)
(-0.0011977564 -0.0021334112 840.25723)
(9.75582e-06 -0.0019848395 840.25731)
(-0.00083031556 3.2675321e-05 840.25843)
(-2.6061915e-05 -0.00023028032 840.25788)
(0.0017398691 -0.00087607247 840.25839)
(0.0006287004 -0.0010702464 840.25861)
(-0.00016291292 -0.0011705509 840.25861)
(-0.00091028253 -0.0012228657 840.25838)
(-0.0016167414 -0.0012369603 840.25792)
(-0.0021334112 -0.0011977564 840.25723)
(-0.0010179947 -0.0010179947 840.25635)
(9.1867995e-05 -0.00029802288 840.25653)
(-0.00079323718 0.00031378294 840.25873)
(-0.00035360826 0.00035086132 840.25823)
(0.0012644132 9.5418707e-05 840.25855)
(0.00049638894 3.3890751e-05 840.25871)
(-0.00022200536 7.2110674e-06 840.25868)
(-0.00093186884 -5.5042104e-06 840.25844)
(-0.0015938514 -7.1798077e-06 840.25798)
(-0.0019848395 9.7558219e-06 840.25731)
(-0.00029802289 9.1867997e-05 840.25653)
(0.00048973704 0.00048973705 840.25737)
(-0.0017858916 -0.0017858916 834.60346)
(-0.00031399077 -0.00037636683 834.60276)
(0.0035067311 -0.00047394572 834.60359)
(0.0016972888 -0.00048713246 834.604)
(0.00060015442 -0.00050267951 834.60416)
(-0.0003553395 -0.00053096818 834.60409)
(-0.0011160924 -0.00058935898 834.60381)
(-0.0013911226 -0.00072521164 834.60334)
(-7.6720102e-05 -0.0010083602 834.60285)
(0.00039893316 -0.00095399929 834.60307)
(-0.00037636683 -0.00031399077 834.60276)
(0.001653928 0.001653928 834.60266)
(0.0033405826 0.0014681841 834.60345)
(0.0016541881 0.0014195165 834.60385)
(0.00053440084 0.0013565076 834.604)
(-0.00048535871 0.0012552542 834.60391)
(-0.0014074575 0.0010751152 834.60359)
(-0.0020196244 0.00070830589 834.60304)
(-0.00041990158 -5.3566697e-05 834.60233)
(0.00045329403 -0.00044785186 834.60261)
(-0.00047394573 0.0035067311 834.60359)
(0.0014681841 0.0033405826 834.60345)
(0.0032723196 0.0032723196 834.60423)
(0.0015856123 0.0032047042 834.60461)
(0.0004358921 0.0031151103 834.60474)
(-0.00063673189 0.0029917736 834.60463)
(-0.0016630407 0.0028147474 834.60426)
(-0.0025198045 0.002544097 834.60364)
(-0.0012328778 0.0020748403 834.60279)
(0.00013607639 0.0014803272 834.60288)
(-0.00048713246 0.0016972888 834.604)
(0.0014195165 0.0016541881 834.60385)
(0.0032047042 0.0015856123 834.60461)
(0.0014969788 0.0014969788 834.60498)
(0.00032147027 0.0013905957 834.60509)
(-0.00078572155 0.0012630192 834.60494)
(-0.0018551342 0.0011072167 834.60454)
(-0.0027595315 0.00092098991 834.60387)
(-0.0014836714 0.00071148906 834.60296)
(5.6951942e-05 0.00054146967 834.603)
(-0.00050267951 0.00060015443 834.60416)
(0.0013565076 0.00053440084 834.604)
(0.0031151103 0.00043589209 834.60474)
(0.0013905957 0.00032147026 834.60509)
(0.00020193249 0.00020193249 834.60517)
(-0.00092011084 7.9349122e-05 834.605)
(-0.00200507 -4.8145233e-05 834.60457)
(-0.0029155322 -0.00017833743 834.60386)
(-0.0016123981 -0.00029816404 834.60292)
(2.2730125e-05 -0.00037372873 834.60294)
(-0.00053096818 -0.0003553395 834.60409)
(0.0012552542 -0.00048535872 834.60391)
(0.0029917736 -0.00063673189 834.60463)
(0.0012630192 -0.00078572155 834.60494)
(7.9349127e-05 -0.00092011085 834.605)
(-0.0010357993 -0.0010357993 834.6048)
(-0.0021128208 -0.0011343316 834.60435)
(-0.0030095503 -0.0012145009 834.60362)
(-0.0016790627 -0.0012712209 834.60266)
(6.5754849e-06 -0.0012982041 834.60267)
(-0.00058935899 -0.0011160924 834.60381)
(0.0010751152 -0.0014074576 834.60359)
(0.0028147474 -0.0016630407 834.60426)
(0.0011072167 -0.0018551342 834.60454)
(-4.8145231e-05 -0.00200507 834.60457)
(-0.0011343316 -0.0021128208 834.60435)
(-0.0021837716 -0.0021837716 834.60387)
(-0.0030524215 -0.0022179629 834.60313)
(-0.0016961013 -0.0022132213 834.60217)
(4.7413134e-06 -0.0021820002 834.60218)
(-0.00072521164 -0.0013911227 834.60334)
(0.00070830588 -0.0020196244 834.60304)
(0.002544097 -0.0025198045 834.60364)
(0.00092098992 -0.0027595315 834.60387)
(-0.00017833742 -0.0029155322 834.60386)
(-0.0012145009 -0.0030095503 834.60362)
(-0.0022179629 -0.0030524215 834.60313)
(-0.003039 -0.003039 834.60239)
(-0.0016431 -0.002943488 834.60144)
(2.7389556e-05 -0.0027380313 834.60146)
(-0.0010083602 -7.6720097e-05 834.60285)
(-5.3566703e-05 -0.00041990157 834.60233)
(0.0020748403 -0.0012328778 834.60279)
(0.00071148908 -0.0014836714 834.60296)
(-0.00029816404 -0.0016123981 834.60292)
(-0.0012712209 -0.0016790627 834.60266)
(-0.0022132213 -0.0016961013 834.60217)
(-0.002943488 -0.0016431 834.60144)
(-0.0013951326 -0.0013951326 834.60052)
(0.0001417124 -0.00028174121 834.60064)
(-0.00095399929 0.00039893317 834.60307)
(-0.00044785187 0.00045329403 834.60261)
(0.0014803272 0.00013607639 834.60288)
(0.00054146968 5.6951944e-05 834.603)
(-0.00037372872 2.2730127e-05 834.60294)
(-0.0012982041 6.5754849e-06 834.60267)
(-0.0021820002 4.7413153e-06 834.60218)
(-0.0027380313 2.738956e-05 834.60146)
(-0.00028174121 0.0001417124 834.60064)
(0.00076965049 0.00076965049 834.60145)
(-0.0020075683 -0.0020075683 828.98685)
(-0.0002427472 -0.00040458096 828.98622)
(0.0041030262 -0.0005167042 828.98701)
(0.0019593308 -0.00053319701 828.98737)
(0.00062509241 -0.00055233224 828.98749)
(-0.0005519982 -0.00058668456 828.98739)
(-0.0015097247 -0.00065733722 828.98707)
(-0.0018917291 -0.0008226527 828.98657)
(-0.00024010344 -0.001174318 828.98604)
(0.00046272116 -0.0011035025 828.98621)
(-0.00040458096 -0.0002427472 828.98622)
(0.0019935489 0.0019935489 828.98615)
(0.0039101021 0.00177684 828.98689)
(0.0019058887 0.0017160471 828.98725)
(0.00054486109 0.001638632 828.98736)
(-0.00070950567 0.0015154105 828.98724)
(-0.0018636769 0.0012970314 828.98688)
(-0.0026672004 0.00085189535 828.9863)
(-0.00066137816 -8.4276566e-05 828.98557)
(0.0005335367 -0.00054132956 828.98578)
(-0.0005167042 0.0041030262 828.98701)
(0.00177684 0.0039101021 828.98689)
(0.0038255243 0.0038255244 828.98761)
(0.0018211228 0.0037417587 828.98796)
(0.00042445581 0.0036320504 828.98805)
(-0.00089359885 0.003481801 828.9879)
(-0.0021732399 0.0032667038 828.98751)
(-0.0032730371 0.0029389033 828.98686)
(-0.0016333284 0.0023691775 828.98599)
(0.00015801916 0.0016622804 828.98603)
(-0.00053319702 0.0019593308 828.98737)
(0.0017160471 0.0019058887 828.98725)
(0.0037417587 0.0018211228 828.98796)
(0.0017124148 0.0017124148 828.98828)
(0.00028490339 0.0015826003 828.98835)
(-0.0010748523 0.0014273754 828.98817)
(-0.0024065746 0.0012381043 828.98775)
(-0.0035647267 0.0010122697 828.98705)
(-0.0019380011 0.00075749782 828.98612)
(6.2271986e-05 0.00055182298 828.98611)
(-0.00055233224 0.00062509241 828.98749)
(0.001638632 0.00054486109 828.98736)
(0.0036320504 0.0004244558 828.98805)
(0.0015826003 0.00028490339 828.98835)
(0.00013941638 0.00013941638 828.9884)
(-0.0012380949 -9.5172453e-06 828.98819)
(-0.0025883456 -0.00016415184 828.98774)
(-0.0037536436 -0.00032169082 828.98701)
(-0.0020937751 -0.00046654656 828.98605)
(2.09026e-05 -0.00055767913 828.98602)
(-0.00058668456 -0.0005519982 828.98739)
(0.0015154105 -0.00070950567 828.98724)
(0.003481801 -0.00089359885 828.9879)
(0.0014273754 -0.0010748523 828.98817)
(-9.5172436e-06 -0.0012380949 828.98819)
(-0.0013784206 -0.0013784205 828.98797)
(-0.0027187482 -0.0014976262 828.98749)
(-0.0038671214 -0.001594173 828.98674)
(-0.0021739894 -0.0016619993 828.98576)
(1.5169398e-06 -0.0016938722 828.98572)
(-0.00065733722 -0.0015097247 828.98707)
(0.0012970314 -0.0018636769 828.98688)
(0.0032667038 -0.0021732399 828.98751)
(0.0012381043 -0.0024065746 828.98775)
(-0.00016415183 -0.0025883456 828.98774)
(-0.0014976262 -0.0027187482 828.98749)
(-0.002804098 -0.002804098 828.98699)
(-0.0039180167 -0.0028442553 828.98623)
(-0.0021934743 -0.0028365843 828.98525)
(-3.4599718e-07 -0.0027969678 828.98521)
(-0.0008226527 -0.0018917291 828.98657)
(0.00085189536 -0.0026672004 828.9863)
(0.0029389033 -0.0032730371 828.98686)
(0.0010122697 -0.0035647267 828.98705)
(-0.00032169082 -0.0037536436 828.98701)
(-0.001594173 -0.0038671214 828.98674)
(-0.0028442553 -0.0039180167 828.98623)
(-0.0038996077 -0.0038996077 828.98547)
(-0.002126702 -0.0037795118 828.9845)
(2.7927909e-05 -0.0035202486 828.98448)
(-0.0011743181 -0.00024010344 828.98604)
(-8.4276568e-05 -0.00066137815 828.98557)
(0.0023691775 -0.0016333284 828.98599)
(0.00075749782 -0.0019380011 828.98612)
(-0.00046654657 -0.0020937751 828.98605)
(-0.0016619993 -0.0021739894 828.98576)
(-0.0028365843 -0.0021934743 828.98525)
(-0.0037795118 -0.002126702 828.9845)
(-0.0018141152 -0.0018141152 828.98356)
(0.00017249617 -0.00031225081 828.98363)
(-0.0011035025 0.00046272116 828.98621)
(-0.00054132957 0.00053353671 828.98578)
(0.0016622804 0.00015801916 828.98603)
(0.00055182299 6.2271987e-05 828.98611)
(-0.00055767914 2.0902603e-05 828.98602)
(-0.0016938722 1.5169405e-06 828.98572)
(-0.0027969678 -3.4599529e-07 828.98521)
(-0.0035202486 2.7927908e-05 828.98448)
(-0.00031225081 0.00017249617 828.98363)
(0.0010291708 0.0010291708 828.98437)
(-0.0022050103 -0.0022050103 823.41036)
(-0.00015938427 -0.00042303548 823.40981)
(0.0046557995 -0.00054953824 823.41054)
(0.0021844949 -0.00056944647 823.41087)
(0.00061677584 -0.00059211607 823.41096)
(-0.00077818927 -0.00063229275 823.41083)
(-0.0019297969 -0.00071464912 823.41049)
(-0.0024184945 -0.00090811106 823.40997)
(-0.00044372022 -0.0013257118 823.40942)
(0.0005087439 -0.0012408926 823.40953)
(-0.00042303548 -0.00015938427 823.40981)
(0.0023238238 0.0023238238 823.40977)
(0.004436183 0.0020761143 823.41046)
(0.0021206281 0.0020029523 823.41078)
(0.00052250643 0.0019114189 823.41086)
(-0.00096198885 0.0017670936 823.41071)
(-0.0023435244 0.0015122265 823.41033)
(-0.0033350886 0.00099242317 823.40973)
(-0.00094289246 -0.00011079411 823.40899)
(0.0005935632 -0.00062962172 823.40914)
(-0.00054953825 0.0046557995 823.41054)
(0.0020761143 0.004436183 823.41046)
(0.004334928 0.004334928 823.41113)
(0.0020197995 0.0042350584 823.41144)
(0.00038091716 0.004105786 823.4115)
(-0.0011773817 0.0039296977 823.41132)
(-0.0027044674 0.0036782722 823.41091)
(-0.004041515 0.0032961303 823.41025)
(-0.0020657651 0.0026307049 823.40937)
(0.00016285883 0.0018174164 823.40936)
(-0.00056944647 0.0021844949 823.41087)
(0.0020029523 0.0021206281 823.41078)
(0.0042350584 0.0020197995 823.41144)
(0.0018914861 0.0018914861 823.41172)
(0.00021714573 0.0017390461 823.41176)
(-0.0013895026 0.0015573196 823.41156)
(-0.0029770918 0.0013361085 823.41112)
(-0.0043826559 0.0010725995 823.41041)
(-0.0024216064 0.00077475304 823.40948)
(5.1370871e-05 0.00053531417 823.40943)
(-0.00059211607 0.00061677584 823.41096)
(0.0019114189 0.00052250642 823.41086)
(0.004105786 0.00038091714 823.4115)
(0.0017390461 0.00021714573 823.41176)
(4.6750601e-05 4.6750606e-05 823.41178)
(-0.0015803192 -0.00012738374 823.41155)
(-0.0031891874 -0.00030789665 823.41108)
(-0.0046028705 -0.00049143862 823.41035)
(-0.0026030505 -0.0006600683 823.40938)
(3.2329156e-06 -0.00076593806 823.40931)
(-0.00063229275 -0.00077818928 823.41083)
(0.0017670936 -0.00096198886 823.41071)
(0.0039296977 -0.0011773817 823.41132)
(0.0015573196 -0.0013895026 823.41156)
(-0.00012738373 -0.0015803192 823.41155)
(-0.0017441499 -0.0017441499 823.41131)
(-0.0033411467 -0.0018830353 823.41081)
(-0.0047348275 -0.0019951277 823.41005)
(-0.0026961058 -0.0020734636 823.40908)
(-1.9208967e-05 -0.0021099263 823.40899)
(-0.00071464913 -0.0019297969 823.41049)
(0.0015122264 -0.0023435244 823.41033)
(0.0036782722 -0.0027044674 823.41091)
(0.0013361086 -0.0029770918 823.41112)
(-0.00030789664 -0.0031891874 823.41108)
(-0.0018830352 -0.0033411467 823.41081)
(-0.0034401653 -0.0034401653 823.4103)
(-0.0047932989 -0.0034859369 823.40953)
(-0.0027178491 -0.0034754065 823.40855)
(-2.1075574e-05 -0.0034277314 823.40847)
(-0.00090811106 -0.0024184945 823.40997)
(0.00099242318 -0.0033350886 823.40973)
(0.0032961303 -0.004041515 823.41025)
(0.0010725995 -0.0043826559 823.41041)
(-0.00049143862 -0.0046028705 823.41035)
(-0.0019951277 -0.0047348275 823.41005)
(-0.0034859369 -0.0047932989 823.40953)
(-0.0047700688 -0.0047700688 823.40877)
(-0.0026379003 -0.004626616 823.40779)
(1.2574438e-05 -0.0043167382 823.40773)
(-0.0013257119 -0.00044372022 823.40942)
(-0.00011079411 -0.00094289246 823.40899)
(0.0026307049 -0.0020657651 823.40937)
(0.00077475304 -0.0024216064 823.40948)
(-0.0006600683 -0.0026030505 823.40938)
(-0.0020734636 -0.0026961058 823.40908)
(-0.0034754065 -0.0027178491 823.40855)
(-0.004626616 -0.0026379003 823.40779)
(-0.0022645186 -0.0022645186 823.40685)
(0.00018550964 -0.00038821011 823.40687)
(-0.0012408926 0.0005087439 823.40953)
(-0.00062962172 0.0005935632 823.40914)
(0.0018174164 0.00016285883 823.40936)
(0.00053531417 5.1370869e-05 823.40943)
(-0.00076593805 3.2329168e-06 823.40931)
(-0.0021099263 -1.9208967e-05 823.40899)
(-0.0034277314 -2.1075573e-05 823.40847)
(-0.0043167382 1.2574437e-05 823.40773)
(-0.0003882101 0.00018550964 823.40687)
(0.0012634467 0.0012634467 823.40753)
(-0.0023772642 -0.0023772642 817.87574)
(-6.2483361e-05 -0.0004314269 817.87526)
(0.0051670269 -0.00057188825 817.87594)
(0.0023776275 -0.00059523434 817.87624)
(0.00058171268 -0.00062134224 817.8763)
(-0.0010256461 -0.00066706855 817.87615)
(-0.0023661228 -0.00076050966 817.87579)
(-0.0029599561 -0.00098065687 817.87527)
(-0.0006786096 -0.0014612172 817.8747)
(0.00053904594 -0.0013651389 817.87477)
(-0.0004314269 -6.2483363e-05 817.87526)
(0.0026455805 0.0026455805 817.87525)
(0.0049213157 0.0023674572 817.87589)
(0.0023034465 0.0022819451 817.87618)
(0.00047396136 0.0021767274 817.87623)
(-0.0012343972 0.0020122852 817.87606)
(-0.0028365053 0.0017228542 817.87567)
(-0.0040110174 0.0011323839 817.87507)
(-0.0012553326 -0.0001296834 817.87432)
(0.00063512427 -0.00070957335 817.87442)
(-0.00057188825 0.0051670269 817.87594)
(0.0023674572 0.0049213157 817.87589)
(0.0048033914 0.0048033914 817.87652)
(0.0021868978 0.0046876972 817.87679)
(0.00031205285 0.0045395705 817.87682)