/*--------------------------------*- C++ -*----------------------------------*\
| =========                 |                                                 |
| \\      /  F ield         | OpenFOAM: The Open Source CFD Toolbox           |
|  \\    /   O peration     | Version:  v2106                                 |
|   \\  /    A nd           | Website:  www.openfoam.com                      |
|    \\/     M anipulation  |                                                 |
\*---------------------------------------------------------------------------*/
FoamFile
{
    version     2.0;
    format      ascii;
    arch        "LSB;label=32;scalar=64";
    class       volScalarField;
    location    "55";
    object      gradTx;
}
// * * * * * * * * * * * * * * * * * * * * * * * * * * * * * * * * * * * * * //

dimensions      [0 -1 0 1 0 0 0];

internalField   nonuniform List<scalar> 
4000
(
-0.00074712346
-0.0011636506
-9.9648921e-05
-7.155545e-05
7.7625571e-06
8.2681368e-05
0.00016251844
0.00025251152
0.0003213027
0.00011417519
-0.00048132911
-0.0007603439
-8.8393032e-05
-6.2736297e-05
9.4373823e-06
7.94555e-05
0.00015557563
0.00025243804
0.0003880717
0.00015592311
-0.0004782523
-0.00074282417
-6.8843467e-05
-5.3940507e-05
1.0699263e-05
7.4710096e-05
0.00014324538
0.00022593163
0.00033738179
0.00013415164
-0.00047382519
-0.00072953845
-5.8480337e-05
-4.9158345e-05
1.0673108e-05
7.0553381e-05
0.00013511238
0.00021408038
0.00032424869
0.00012991939
-0.00047237287
-0.00072520923
-5.5265513e-05
-4.8225395e-05
9.356912e-06
6.7238179e-05
0.00013003489
0.00020781565
0.00031848759
0.00012829024
-0.00047270864
-0.00072660174
-5.7244614e-05
-5.0500698e-05
7.0108249e-06
6.5010125e-05
0.00012805554
0.00020622025
0.00031745055
0.00012805427
-0.00047452345
-0.0007331805
-6.4167632e-05
-5.5697307e-05
3.8136619e-06
6.3956932e-05
0.00012913944
0.00020912031
0.00032092823
0.00012915272
-0.00047733718
-0.0007458748
-7.7707866e-05
-6.3711184e-05
-4.601357e-08
6.4114679e-05
0.00013333346
0.0002170894
0.00033037644
0.00013222145
-0.00047457244
-0.00075976039
-0.0001025253
-7.3813298e-05
-4.0464593e-06
6.5261604e-05
0.00014000858
0.00023029266
0.00034843575
0.0001386889
-0.00043282452
-0.00072979572
-0.00014153088
-8.2605382e-05
-6.8441466e-06
6.6555322e-05
0.00014625935
0.00024459692
0.00037385512
0.00014916769
-0.0058569421
-0.0096005085
-0.0013504266
-0.00067229178
8.2508446e-05
0.0007976061
0.0015681995
0.0024659026
0.0032802802
0.0012029601
-0.004044554
-0.0067225978
-0.001124206
-0.00058490631
9.7723904e-05
0.00076492709
0.0014966193
0.0024672402
0.0042121059
0.0017938326
-0.0039383349
-0.0064385172
-0.00093715892
-0.00050246468
0.00010890851
0.00071811541
0.0013751293
0.0022043317
0.0037645087
0.0016149467
-0.0038937403
-0.0063093301
-0.00083980601
-0.00045752919
0.0001079655
0.00067733166
0.0012954603
0.0020857431
0.0036291351
0.0015706193
-0.003880078
-0.0062686901
-0.00080978181
-0.00044918661
9.4776988e-05
0.00064492861
0.0012461221
0.0020249024
0.0035729783
0.0015546829
-0.0038835967
-0.0062829301
-0.00082956442
-0.00047166072
7.1767522e-05
0.0006231857
0.0012269169
0.0020095632
0.0035631976
0.0015525096
-0.003901864
-0.0063481807
-0.00089737724
-0.00052237341
4.0631039e-05
0.0006129796
0.0012376579
0.0020382516
0.0035978055
0.0015634962
-0.0039313168
-0.0064760002
-0.0010307235
-0.000600668
3.2241542e-06
0.00061472159
0.0012790683
0.0021174237
0.0036930158
0.001594755
-0.0039009722
-0.0066097517
-0.0012788744
-0.00070180271
-3.5548849e-05
0.00062632878
0.0013455185
0.0022510836
0.0038830558
0.0016645565
-0.0033100997
-0.0059917718
-0.0016136943
-0.00079219838
-6.2713341e-05
0.00063954878
0.0014088865
0.002402674
0.0041849525
0.0017960194
-0.008847681
-0.014689336
-0.0022941583
-0.0010812593
0.00019775621
0.0014281213
0.0028004083
0.0046022361
0.0072707851
0.0029623384
-0.0061695651
-0.010388119
-0.0018965995
-0.00093425301
0.00021829538
0.0013554301
0.0026170878
0.0044007461
0.0086508432
0.0039343167
-0.005980203
-0.0098933603
-0.0015810822
-0.00079708591
0.0002313044
0.0012635776
0.0023864583
0.0039046948
0.0078621202
0.00363378
-0.0059045259
-0.0096750429
-0.0014179485
-0.00072419978
0.00022350335
0.0011837503
0.0022344742
0.0036783392
0.0076069753
0.0035515791
-0.0058821988
-0.0096091868
-0.001371029
-0.00071491327
0.00019512673
0.0011211919
0.0021413539
0.0035642832
0.0075021855
0.003521976
-0.0058908331
-0.0096414947
-0.0014127406
-0.00076037743
0.00015008574
0.0010796471
0.0021055674
0.0035367087
0.0074856218
0.003518534
-0.0059306596
-0.0097737306
-0.0015427088
-0.00085729894
9.1023611e-05
0.0010607364
0.0021273478
0.0035944993
0.0075567587
0.0035414838
-0.0060130468
-0.010055445
-0.0017953542
-0.0010054819
2.1178883e-05
0.0010656411
0.0022101513
0.0037566361
0.0077619054
0.003611307
-0.0060649863
-0.010471272
-0.0022651157
-0.0011977105
-5.0606943e-05
0.0010909525
0.0023472753
0.0040501724
0.0082380828
0.0038000091
-0.005093008
-0.0094641096
-0.002839222
-0.0013654165
-0.00010017466
0.0011202143
0.0024864349
0.0044379603
0.0093456755
0.0043497021
-0.011067159
-0.018250773
-0.0026826865
-0.0012341769
0.00036895948
0.0019472554
0.0037487508
0.0062441709
0.010671445
0.004532836
-0.0077009586
-0.012843309
-0.0021804095
-0.0010495761
0.00038606377
0.0018294585
0.0034453783
0.005807206
0.012421888
0.0058518019
-0.0074621827
-0.012217724
-0.0017800504
-0.00087893433
0.00039047325
0.0016865813
0.0031006953
0.0050729158
0.011306127
0.0054407551
-0.0073661073
-0.011940673
-0.0015747849
-0.00079268874
0.00036756441
0.0015630424
0.0028735447
0.0047368271
0.010933326
0.0053226542
-0.0073391155
-0.011862482
-0.0015231631
-0.00079122764
0.00031850363
0.0014671825
0.0027350736
0.0045690703
0.010780555
0.0052798349
-0.0073547045
-0.011919159
-0.0015932843
-0.00086465836
0.00024814157
0.0014039661
0.0026820208
0.0045295835
0.010758151
0.0052754938
-0.0074176467
-0.012123156
-0.0017895792
-0.0010106264
0.00015942738
0.0013756259
0.0027153415
0.0046185263
0.010868857
0.005311471
-0.0075569528
-0.012567215
-0.0021651179
-0.00123028
5.661773e-05
0.0013842341
0.0028422234
0.0048703336
0.011194913
0.0054240893
-0.0077089567
-0.013294411
-0.002859958
-0.001514472
-4.7816303e-05
0.0014250819
0.0030560916
0.0053418978
0.012004885
0.0057544471
-0.0063899908
-0.011932532
-0.0036536794
-0.0017558522
-0.00011855695
0.001472536
0.0032789849
0.006006362
0.014213826
0.0068967166
-0.01280689
-0.020780346
-0.0025865403
-0.0011472246
0.00058711476
0.0023420867
0.0044002773
0.0073937272
0.013369584
0.0058345714
-0.008833121
-0.014418362
-0.0020224214
-0.00094206106
0.00059301279
0.0021741713
0.0039698011
0.0066984226
0.015387711
0.0074441676
-0.0085655676
-0.013714311
-0.0015704338
-0.00075597898
0.00057914373
0.0019744912
0.003506684
0.0057217304
0.013943852
0.0069233086
-0.0084570417
-0.013402256
-0.001343146
-0.00066984881
0.00053280989
0.0018020733
0.0032009363
0.005273402
0.0134527
0.0067695779
-0.0084287919
-0.013323066
-0.0012982215
-0.00068505382
0.00045696471
0.0016688827
0.0030144945
0.0050503052
0.013251312
0.0067135287
-0.0084531097
-0.013410227
-0.0014033489
-0.00079202781
0.00035709775
0.0015810252
0.0029421584
0.0049976534
0.013222473
0.0067081941
-0.0085407355
-0.013690661
-0.0016703195
-0.00099066229
0.00023591663
0.0015411325
0.0029855098
0.0051168058
0.013372199
0.0067570583
-0.0087400938
-0.01430382
-0.0021722137
-0.0012842173
9.8319842e-05
0.0015520405
0.0031554879
0.0054576331
0.013818113
0.0069119534
-0.0090042719
-0.015362658
-0.0030953402
-0.0016620874
-3.9831933e-05
0.0016076331
0.0034454895
0.0061061515
0.0149588
0.0073824471
-0.0073946757
-0.013729552
-0.0041072248
-0.0019767573
-0.00013190771
0.0016729275
0.0037511286
0.0070442347
0.018306859
0.0091439926
-0.014158838
-0.022488475
-0.0021105697
-0.00086775973
0.00083010618
0.0026030544
0.0047562222
0.0080708618
0.015389392
0.006872808
-0.009642821
-0.015290372
-0.0015135284
-0.00065446778
0.00081879396
0.0023813537
0.0041939661
0.0070999187
0.017568659
0.0087114842
-0.0093601027
-0.014543381
-0.0010339914
-0.00046696507
0.00077871878
0.0021202263
0.0036095432
0.005879331
0.01579371
0.0080790769
-0.0092447935
-0.014213793
-0.00080036342
-0.0003920964
0.00070169807
0.0018942655
0.003222131
0.0053166326
0.015182606
0.007889249
-0.0092179081
-0.014142586
-0.00077161998
-0.00043174799
0.00059334008
0.0017196572
0.0029847807
0.00503607
0.014931236
0.0078196543
-0.009252335
-0.014265181
-0.0009174593
-0.00057747509
0.00045965551
0.0016036275
0.0028901766
0.0049677042
0.01489406
0.0078128364
-0.0093657085
-0.014625414
-0.0012587081
-0.00083231708
0.00030270206
0.0015489494
0.002940142
0.0051133611
0.01507932
0.0078735427
-0.0096271724
-0.01541186
-0.0018892944
-0.0012022376
0.00012770112
0.0015589887
0.0031488724
0.0055369595
0.015637168
0.0080678921
-0.010013004
-0.016816945
-0.0030419942
-0.0016755781
-4.6226343e-05
0.0016262405
0.0035093973
0.0063511692
0.017087646
0.0086696204
-0.0081743277
-0.015007542
-0.004275347
-0.002064712
-0.00016084529
0.0017070732
0.0038919808
0.0075452857
0.021533151
0.011031562
-0.015177635
-0.023517207
-0.00134889
-0.00044722056
0.0010744395
0.0027273641
0.0048330118
0.0083138182
0.016785647
0.007667334
-0.01018164
-0.015591773
-0.0007407249
-0.00023521269
0.0010414487
0.0024496308
0.0041370041
0.0070568408
0.019031636
0.0096782788
-0.0098940121
-0.014828605
-0.00025190335
-5.7112287e-05
0.00096905511
0.0021238449
0.0034302997
0.0055943383
0.016926522
0.0089336596
-0.0097761964
-0.014494787
-2.4096924e-05
-2.3522972e-06
0.00085549924
0.0018406847
0.0029591281
0.0049163303
0.016194766
0.008707417
-0.0097526736
-0.014438497
-1.9042962e-05
-7.2816856e-05
0.00070975877
0.0016210513
0.0026681998
0.0045763427
0.015892062
0.0086239244
-0.0097981902
-0.014600171
-0.00021004634
-0.00026164863
0.00053833307
0.0014732758
0.0025479284
0.0044890351
0.015843936
0.0086149163
-0.0099378291
-0.015042016
-0.00062798909
-0.00057561046
0.00034234988
0.0014000199
0.0025998789
0.0046557028
0.016059391
0.0086858609
-0.010262195
-0.016002883
-0.0013879224
-0.0010237486
0.0001271334
0.001404955
0.0028408275
0.0051523713
0.016717345
0.0089155971
-0.010775814
-0.017761496
-0.0027684997
-0.0015936061
-8.4945323e-05
0.0014793799
0.0032632152
0.0061155459
0.018449109
0.0096368895
-0.0087648692
-0.015862008
-0.0042247924
-0.0020582088
-0.00022369638
0.0015722846
0.0037142363
0.0075420888
0.023924708
0.012565997
-0.015905528
-0.023978984
-0.00038087372
6.8237118e-05
0.00130046
0.0027185818
0.0046569695
0.008172556
0.017625749
0.008242414
-0.010490664
-0.015430285
0.0002209238
0.00027157944
0.0012425707
0.0023838959
0.0038278347
0.0066258291
0.019858724
0.010375358
-0.010206395
-0.014672408
0.00070454273
0.00043184218
0.0011333733
0.001991734
0.0029999272
0.0049270964
0.017429806
0.0095198611
-0.010089466
-0.014344868
0.00091697854
0.00045961225
0.0009788775
0.0016489442
0.0024442156
0.0041344945
0.01657844
0.0092574201
-0.010070834
-0.014308803
0.00089257554
0.0003534023
0.00079195059
0.0013814856
0.0020977266
0.0037337796
0.016223591
0.009159819
-0.010128059
-0.014511955
0.00065328535
0.0001181895
0.00057957538
0.0011987687
0.0019484983
0.0036242341
0.016161766
0.009147866
-0.010293958
-0.015035651
0.0001576239
-0.0002568461
0.00034177502
0.0011031344
0.0019973575
0.0038056462
0.016401276
0.0092272077
-0.010680815
-0.016168997
-0.00073033376
-0.00078401115
8.3858034e-05
0.0010983995
0.0022630034
0.0043641247
0.017145842
0.0094877537
-0.011325109
-0.01828111
-0.0023337107
-0.0014501628
-0.00016848539
0.001175001
0.0027372481
0.0054572602
0.019127476
0.010315918
-0.0091921652
-0.01636494
-0.0040106175
-0.0019902259
-0.00033281649
0.0012760841
0.0032470796
0.0070903251
0.025555426
0.013773054
-0.016378592
-0.023968644
0.00072712877
0.00064000336
0.0014938152
0.002585329
0.0042596949
0.0077015338
0.017979791
0.0086228798
-0.010604887
-0.014896907
0.0013082424
0.00082881495
0.001408846
0.0021939769
0.0033004356
0.0058673844
0.020133978
0.010833935
-0.010330767
-0.014161916
0.0017749264
0.00096466973
0.001259784
0.001735158
0.0023544132
0.0039416233
0.017392927
0.0098709096
-0.010217478
-0.013849109
0.0019644685
0.00096023301
0.0010613112
0.0013315935
0.001714822
0.003036942
0.016424939
0.0095731099
-0.010204893
-0.01383725
0.0019063444
0.00081469854
0.00083052553
0.0010144901
0.001311723
0.0025751349
0.016017941
0.0094614142
-0.010274124
-0.01408314
0.0016169338
0.00053097459
0.00057489107
0.00079430215
0.0011307398
0.0024404248
0.015939919
0.0094458241
-0.010465794
-0.014687421
0.001043961
9.4030705e-05
0.0002932342
0.00067289557
0.0011715628
0.0026302652
0.016197237
0.0095316885
-0.01091363
-0.015988422
3.132023e-05
-0.00051171563
-9.1911545e-06
0.00065414194
0.0014542466
0.0032389326
0.017014554
0.0098183651
-0.011688561
-0.018447332
-0.0017864814
-0.0012724577
-0.00030328297
0.00072802594
0.0019700705
0.0044424999
0.019213945
0.010740449
-0.0094775059
-0.016575287
-0.0036777185
-0.0018867009
-0.00049421161
0.00083343747
0.002528882
0.0062556404
0.026511257
0.01468324
-0.016628715
-0.023568161
0.0019197558
0.0012368211
0.0016451885
0.0023397863
0.0036749529
0.0069553759
0.01791594
0.0088326288
-0.010554866
-0.014069752
0.0024685147
0.0014064775
0.001531847
0.0018931268
0.00259067
0.004841413
0.019938168
0.011083757
-0.010296441
-0.013372035
0.0029087627
0.0015129025
0.0013411135
0.0013686908
0.0015314621
0.0027009473
0.016901335
0.010018338
-0.010189026
-0.013080745
0.0030695625
0.0014724845
0.0010968923
0.00090445851
0.00081007434
0.0016884401
0.015821566
0.0096866113
-0.010183337
-0.013095954
0.0029747697
0.0012852983
0.00082069937
0.00053693604
0.00035035493
0.0011662234
0.01536331
0.0095610829
-0.010264587
-0.01338482
0.0026346078
0.00095207034
0.00052047449
0.00027757626
0.00013553915
0.0010040487
0.015267063
0.0095412848
-0.01048111
-0.01406705
0.0019861014
0.00045354356
0.00019381712
0.00012766799
0.00016387989
0.0011963896
0.015536231
0.0096318753
-0.010987443
-0.015528311
0.00085401209
-0.0002290368
-0.0001540607
9.1101212e-05
0.00045631574
0.0018439357
0.016412746
0.0099401063
-0.011890419
-0.018321478
-0.0011668715
-0.0010811804
-0.00049057426
0.00015783422
0.0010037668
0.0031387722
0.018798148
0.010943262
-0.0096392903
-0.016542915
-0.0032625902
-0.0017670625
-0.00070856409
0.00026402283
0.0016019991
0.0051058528
0.026878898
0.015327272
-0.016684445
-0.022849072
0.0031509123
0.001833862
0.0017494375
0.0019963456
0.0029366848
0.0059865452
0.017498414
0.008894067
-0.010367547
-0.013016292
0.0036579742
0.00198081
0.001607205
0.0014966725
0.001734283
0.0036049031
0.019346741
0.011152525
-0.010129258
-0.012367421
0.0040642095
0.0020541242
0.0013741035
0.000908841
0.00056843527
0.0012647172
0.016034432
0.0099913549
-0.010029506
-0.012102995
0.0041918664
0.0019752261
0.0010835176
0.00038521622
-0.00023134426
0.00015021354
0.014849364
0.0096276555
-0.010031292
-0.012147158
0.0040586255
0.0017452084
0.00076144265
-3.2464428e-05
-0.00074664871
-0.00043068418
0.014341616
0.009488797
-0.010124327
-0.012478328
0.003668179
0.0013625652
0.00041628183
-0.00033180332
-0.00099654913
-0.0006218781
0.014225684
0.0094643662
-0.010364408
-0.013234663
0.0029471692
0.00080390296
4.4423101e-05
-0.00051214836
-0.00098443924
-0.00043234117
0.01450124
0.0095580206
-0.010925929
-0.014846578
0.0017025517
4.7481233e-05
-0.00034892304
-0.00056959387
-0.00068888558
0.00024343802
0.015424048
0.0098834338
-0.011952169
-0.017956491
-0.00050752032
-0.00089149841
-0.00072766853
-0.00051380535
-0.00011912313
0.0016111985
0.01796464
0.010955114
-0.0096937107
-0.016310559
-0.0027948252
-0.0016453352
-0.00097260261
-0.00040996997
0.00050947828
0.0037068385
0.026741356
0.015734577
-0.01657149
-0.021874061
0.0043823417
0.0024116822
0.0018046483
0.0015705385
0.0020777833
0.0048441762
0.016786699
0.008827934
-0.010066792
-0.011794944
0.0048404563
0.0025333159
0.0016336832
0.0010209485
0.00076568614
0.002210811
0.01842913
0.011065758
-0.0098520791
-0.011203961
0.0052068101
0.0025710238
0.0013584989
0.00037297762
-0.00049887817
-0.00031190946
0.014864909
0.0098167269
-0.0097613821
-0.010970476
0.0052982053
0.0024522842
0.0010219752
-0.00020770641
-0.0013724643
-0.0015212082
0.013582425
0.0094234497
-0.00977099
-0.01104462
0.0051257784
0.0021792972
0.0006545406
-0.00067430588
-0.0019413276
-0.0021580793
0.01302776
0.0092719825
-0.0098753588
-0.011416625
0.0046864973
0.001748326
0.00026504264
-0.0010135415
-0.002226718
-0.0023790725
0.012891272
0.0092426464
-0.010137383
-0.012242181
0.0038971235
0.0011320137
-0.00015129453
-0.0012254249
-0.0022338059
-0.0021969138
0.01316834
0.0093378623
-0.01075009
-0.013993287
0.0025483469
0.00030587652
-0.00058921111
-0.0013060199
-0.0019409854
-0.001502708
0.014125357
0.0096763401
-0.01189296
-0.017398266
0.00016510434
-0.00071415615
-0.0010091588
-0.0012642594
-0.0013574414
-7.9323711e-05
0.016791548
0.010804411
-0.0096551363
-0.015915077
-0.002298358
-0.0015312727
-0.0012803638
-0.0011654397
-0.00070690078
0.0021204998
0.026176227
0.015932793
-0.016313072
-0.020698161
0.0055824356
0.0029552631
0.0018112981
0.0010782432
0.001129367
0.0035735492
0.015835337
0.0086532896
-0.009673771
-0.010456312
0.0059862409
0.0030498209
0.0016123495
0.00048251165
-0.00028274666
0.00070760297
0.017248677
0.010846827
-0.0094851734
-0.0099299775
0.0063083765
0.0030504813
0.0012962309
-0.00022145285
-0.0016369595
-0.0019786929
0.013458726
0.0095188372
-0.0094045675
-0.0097303716
0.0063615343
0.0028915537
0.00091512613
-0.00085592724
-0.0025787433
-0.0032744271
0.012087873
0.009098741
-0.0094221348
-0.0098347592
0.0061501093
0.0025763945
0.00050375948
-0.0013693123
-0.0031982376
-0.0039636849
0.011489577
0.0089355784
-0.0095371999
-0.010245439
0.0056643109
0.0020990822
7.1396182e-05
-0.0017475196
-0.0035187081
-0.004214507
0.011332234
0.0089012111
-0.0098192892
-0.011134455
0.0048116704
0.0014285351
-0.0003878329
-0.0019912274
-0.0035471657
-0.0040435398
0.011606557
0.008996655
-0.010478609
-0.013011765
0.0033683143
0.00053780416
-0.00086856857
-0.0020964478
-0.0032621012
-0.0033398009
0.012586597
0.0093443589
-0.01172992
-0.016686697
0.00082964028
-0.00055645696
-0.0013279128
-0.0020710823
-0.0026724596
-0.0018769358
0.015350209
0.010517179
-0.0095363824
-0.015388376
-0.001792489
-0.0014313451
-0.0016242077
-0.0019794674
-0.002007738
0.00040385046
0.025255124
0.015947636
-0.015930213
-0.019369731
0.0067252395
0.003453194
0.0017715747
0.0005351251
0.00012037612
0.0022159177
0.014693991
0.0083875708
-0.0092072889
-0.009044203
0.0070710778
0.0035196673
0.0015459035
-0.00010240872
-0.0013810596
-0.00086085226
0.015862811
0.010517064
-0.0090465275
-0.008587215
0.0073460336
0.003482776
0.0011907515
-0.00085747031
-0.0028149256
-0.0036903788
0.011875368
0.0091198161
-0.0089767301
-0.008423409
0.0073599974
0.0032842128
0.00076723978
-0.0015416558
-0.0038184327
-0.0050632373
0.010426129
0.008675952
-0.0090022119
-0.008557633
0.0071105791
0.0029285071
0.00031417399
-0.0020988977
-0.0044848335
-0.0058005298
0.0097881001
0.0085021701
-0.0091271775
-0.0090042322
0.0065813336
0.0024076353
-0.00015879733
-0.0025143807
-0.0048392203
-0.0060805137
0.0096101318
0.0084627818
-0.0094272345
-0.0099502284
0.005671332
0.0016870797
-0.00065855085
-0.0027894347
-0.0048904527
-0.005923803
0.0098780698
0.0085572886
-0.010128135
-0.011939534
0.0041439605
0.0007377274
-0.0011795849
-0.0029199998
-0.0046173435
-0.0052184931
0.010870874
0.008910669
-0.011478414
-0.015856525
0.0014689469
-0.00042307126
-0.0016758272
-0.0029127079
-0.0040284321
-0.0037310845
0.013705253
0.010117138
-0.0093489215
-0.014758157
-0.0012927209
-0.0013495402
-0.0019955825
-0.0028300302
-0.0033566014
-0.0013913103
0.024043611
0.015802908
-0.015441968
-0.017931261
0.0077896267
0.0038970013
0.0016888462
-4.3744038e-05
-0.00092262865
0.0008085273
0.013407646
0.0080466772
-0.0086840505
-0.0075964765
0.008075371
0.0039350498
0.001438153
-0.00071828193
-0.0025018919
-0.0024552043
0.014323353
0.010095882
-0.0085521112
-0.007211681
0.0083014171
0.0038609301
0.0010465161
-0.0015189231
-0.0040046877
-0.005406579
0.010168203
0.0086396899
-0.0084935543
-0.0070846862
0.0082761344
0.0036240743
0.00058348022
-0.0022480529
-0.0050627306
-0.006846492
0.0086512954
0.0081753366
-0.0085267455
-0.0072477522
0.0079904416
0.0032301715
9.165156e-05
-0.0028455313
-0.0057716278
-0.007626818
0.0079779427
0.0079921464
-0.008660683
-0.0077270163
0.0074214616
0.0026692097
-0.00041897988
-0.0032959066
-0.0061580891
-0.0079346679
0.0077800565
0.0079478705
-0.0089764374
-0.0087229312
0.0064606706
0.0019035634
-0.00095620215
-0.0036011337
-0.0062327852
-0.0077945664
0.008038562
0.008040438
-0.0097135252
-0.010809075
0.004860623
0.00090226963
-0.0015143385
-0.003757064
-0.0059750396
-0.0070947301
0.0090347978
0.0083962365
-0.011152258
-0.014938038
0.0020693829
-0.00031667566
-0.002044378
-0.0037688821
-0.0053928475
-0.0055964984
0.011914881
0.0096258299
-0.0091030541
-0.014048518
-0.00081143446
-0.0012879909
-0.0023855773
-0.0036964447
-0.0047202983
-0.0032184107
0.022601384
0.015520572
-0.01486563
-0.016420059
0.0087586105
0.0042806047
0.0015672605
-0.00064413381
-0.001975537
-0.00061526153
0.012016861
0.007645066
-0.0081188891
-0.0061457625
0.008983503
0.0042904782
0.0012936178
-0.0013505145
-0.0036205275
-0.0040404442
0.012676859
0.0096009077
-0.0080160996
-0.0058343464
0.0091600063
0.0041801795
0.00086859477
-0.0021907169
-0.005180982
-0.0070915563
0.0083848897
0.0080965331
-0.0079689608
-0.0057443667
0.0090962212
0.003907061
0.00036952162
-0.0029594537
-0.0062858025
-0.0085878727
0.006811577
0.007615139
-0.0080095172
-0.0059347717
0.0087765891
0.0034779337
-0.00015753074
-0.0035929595
-0.00703221
-0.009405695
0.0061077253
0.0074238602
-0.0081513893
-0.0064430325
0.0081721251
0.0028809355
-0.0007022799
-0.0040752455
-0.0074483086
-0.0097395599
0.0058910529
0.0073749386
-0.0084804377
-0.0074813548
0.0071676499
0.0020756911
-0.0012733225
-0.004408854
-0.0075465032
-0.0096177573
0.0061376377
0.0074647202
-0.0092480496
-0.0096484774
0.0055068502
0.0010297075
-0.0018647861
-0.0045895387
-0.0073067854
-0.0089295526
0.0071288837
0.0078199662
-0.010763893
-0.01395765
0.0026202213
-0.0002384476
-0.0024250097
-0.0046209163
-0.0067364959
-0.007433013
0.010031234
0.0090627577
-0.0088080511
-0.013280449
-0.00035843168
-0.001247457
-0.0027853102
-0.0045596263
-0.0060689546
-0.0050359568
0.020982544
0.01512084
-0.0142169
-0.01486882
0.0096187743
0.0045998835
0.0014114451
-0.0012528074
-0.0030166786
-0.0020257953
0.010558043
0.0071958489
-0.0075249604
-0.0047200642
0.0097832731
0.0045823488
0.0011172355
-0.0019855934
-0.0047148639
-0.0055856794
0.010964974
0.0090481105
-0.0074510628
-0.0044817391
0.0099105723
0.0044375509
0.00066238448
-0.0028589481
-0.0063213208
-0.0087139663
0.0065677758
0.0075066134
-0.0074152946
-0.0044282663
0.0098097243
0.0041307897
0.00013126681
-0.0036614941
-0.0074647222
-0.010255614
0.0049497057
0.0070117449
-0.0074627526
-0.0046440717
0.0094590132
0.0036699376
-0.00042696373
-0.0043263294
-0.008243183
-0.011104966
0.0042205052
0.0068137815
-0.0076114343
-0.0051773269
0.0088237556
0.0030414415
-0.0010017875
-0.0048370336
-0.0086859687
-0.011462514
0.0039865466
0.0067605516
-0.0079512766
-0.0062502124
0.0077831125
0.0022025563
-0.0016025032
-0.0051966928
-0.0088071093
-0.011360091
0.0042192444
0.006846846
-0.0087435579
-0.0084819691
0.0060738973
0.0011195793
-0.0022230341
-0.00540096
-0.008587394
-0.010688831
0.005197962
0.0071988502
-0.010324533
-0.012938383
0.003113178
-0.00018844341
-0.0028094033
-0.0054518176
-0.0080334265
-0.0092053195
0.0081007757
0.0084455259
-0.008472271
-0.012472237
5.8629485e-05
-0.0012276912
-0.0031861932
-0.0054022209
-0.0073759786
-0.0068072997
0.019235918
0.014622279
-0.01351003
-0.013306124
0.010359797
0.004852329
0.0012262875
-0.0018576054
-0.0040267602
-0.0033969234
0.0090637236
0.0067108849
-0.0069139088
-0.0033432722
0.010465433
0.0048086019
0.00091414696
-0.0026111615
-0.005765332
-0.0070638874
0.0092247756
0.0084519193
-0.0068681283
-0.0031764466
0.01054472
0.0046315269
0.00043340122
-0.0035109698
-0.007405896
-0.01024658
0.0047542899
0.0068845279
-0.0068434851
-0.003158349
0.01040885
0.0042942416
-0.00012535437
-0.0043411682
-0.0085793637
-0.01182221
0.0031033455
0.0063798237
-0.0068972797
-0.0033972487
0.01003036
0.0038056018
-0.00071030236
-0.0050322402
-0.0093840483
-0.012696796
0.0023541905
0.0061766421
-0.0070515788
-0.0039512353
0.0093693487
0.003150538
-0.0013107466
-0.0055674447
-0.0098501386
-0.013075286
0.0021047604
0.0061195224
-0.0073996505
-0.0050506132
0.0083003531
0.0022843314
-0.0019365789
-0.0059503621
-0.0099931532
-0.012992771
0.0023220864
0.0062017642
-0.0082106267
-0.0073303711
0.0065553171
0.0011723858
-0.0025815216
-0.0061765496
-0.0097947829
-0.012342971
0.0032815861
0.0065481099
-0.0098442931
-0.011900269
0.0035420304
-0.0001658849
-0.0031896548
-0.006246337
-0.0092608384
-0.01088268
0.0061646935
0.0077899749
-0.0081032587
-0.011639805
0.000433887
-0.0012277136
-0.0035801067
-0.0062086538
-0.0086179571
-0.0085003641
0.017405395
0.014041911
-0.01275795
-0.011756848
0.010974057
0.0050367687
0.0010167768
-0.00244748
-0.0049887719
-0.0047057826
0.0075628249
0.0062008683
-0.006296011
-0.0020356025
0.011023297
0.004968451
0.00068954207
-0.003216045
-0.006754786
-0.0084516637
0.0074891069
0.007825336
-0.0062771203
-0.0019375439
0.01105651
0.0047617802
0.00018713261
-0.0041354095
-0.0084174533
-0.011666003
0.0029773091
0.0062433295
-0.006263184
-0.0019531496
0.010888172
0.0043975041
-0.00039452572
-0.0049868386
-0.0096122645
-0.013264123
0.0013054768
0.0057324598
-0.0063226655
-0.0022125325
0.010485563
0.003885367
-0.0010014004
-0.0056987475
-0.010437063
-0.014157407
0.00054193058
0.0055255682
-0.0064813405
-0.0027827938
0.0098041043
0.0032089711
-0.0016226837
-0.0062541895
-0.01092272
-0.014553759
0.00027910792
0.0054650461
-0.0068350421
-0.003900462
0.0087147692
0.002322029
-0.0022687513
-0.0066571855
-0.011086082
-0.014491184
0.00048001813
0.0055427951
-0.0076586832
-0.0062114751
0.0069466258
0.0011893614
-0.002933139
-0.0069032088
-0.010909825
-0.013866612
0.0014144221
0.0058813286
-0.0093322962
-0.010860683
0.0039023099
-0.00016937519
-0.0035583873
-0.0069909616
-0.010398935
-0.012438631
0.0042592688
0.0071103085
-0.0077078285
-0.010796991
0.00076299569
-0.0012460172
-0.0039595079
-0.0069651212
-0.0097745112
-0.010087361
0.015530245
0.013395313
-0.011972384
-0.010242528
0.0114563
0.0051531469
0.00078789201
-0.0030124951
-0.0058878725
-0.0059325799
0.0060809173
0.0056754118
-0.0056803005
-0.00081397341
0.011452425
0.0050621674
0.00044855281
-0.0037902453
-0.0076683744
-0.0097289716
0.005786883
0.007180039
-0.0056866805
-0.00078095955
0.011442141
0.0048289652
-7.10628e-05
-0.0047221534
-0.0093411501
-0.012952407
0.001265503
0.005594643
-0.0056828838
-0.00082813289
0.011244322
0.0044415674
-0.00067063881
-0.0055882122
-0.010548474
-0.014561493
-0.000415245
0.005081273
-0.0057473334
-0.0011051412
0.010821541
0.0039104992
-0.0012943985
-0.0063153328
-0.01138708
-0.015466787
-0.0011875183
0.0048722034
-0.0059091099
-0.0016870877
0.01012513
0.0032182318
-0.0019314905
-0.0068864797
-0.011888281
-0.015877643
-0.001461438
0.004808823
-0.0062658336
-0.0028147994
0.0090235737
0.0023173198
-0.0025926659
-0.0073060583
-0.012070075
-0.015834598
-0.0012775867
0.0048817543
-0.0070961112
-0.0051403653
0.0072450309
0.0011723019
-0.0032712979
-0.0075694752
-0.011916183
-0.015238324
-0.00037338515
0.0052105735
-0.0087967614
-0.0098346265
0.004191052
-0.00019705999
-0.003908816
-0.0076738699
-0.011430756
-0.013850687
0.0024162365
0.0064192121
-0.0072921341
-0.0099557796
0.001042903
-0.0012807194
-0.0043174909
-0.0076595436
-0.01082813
-0.0115445
0.01364544
0.012696709
-0.011163935
-0.008781672
0.011803362
0.0052023498
0.00054452734
-0.0035437996
-0.006711263
-0.0070603785
0.00464046
0.0051431231
-0.0050746763
0.00030767065
0.011750344
0.0050909105
0.00019618258
-0.0043249076
-0.008493401
-0.010878898
0.0041433834
0.0065264796
-0.005104373
0.00028020949
0.011699687
0.0048345538
-0.00033602018
-0.0052623059
-0.010164404
-0.014089257
-0.00035634498
0.0049487723
-0.0051100217
0.00020399589
0.01147573
0.0044281669
-0.0009483513
-0.0061362929
-0.01137539
-0.015697864
-0.0020341554
0.0044365298
-0.0051786659
-8.7586497e-05
0.011036944
0.003882938
-0.001583776
-0.0068728492
-0.01222138
-0.016608398
-0.0028094523
0.0042268217
-0.0053422515
-0.00067655165
0.010331196
0.0031804111
-0.00223147
-0.0074549691
-0.012733886
-0.017030188
-0.0030920016
0.0041611726
-0.0056994045
-0.0018060928
0.0092255585
0.0022723948
-0.0029024522
-0.0078873836
-0.012931866
-0.017005875
-0.0029254906
0.0042290663
-0.0065303435
-0.0041296923
0.0074492073
0.0011234351
-0.0035899661
-0.0081654558
-0.012800127
-0.016440321
-0.0020558681
0.0045465095
-0.0082450845
-0.0088349711
0.0044065933
-0.0002467463
-0.0042347765
-0.008284861
-0.012341999
-0.015100053
0.0006631215
0.0057279626
-0.0068617279
-0.0091264973
0.0012716685
-0.0013296722
-0.0046478123
-0.0082814941
-0.011763994
-0.012851709
0.011781945
0.011959058
-0.010342178
-0.0073900242
0.012013933
0.0051860694
0.00029144678
-0.0040335827
-0.0074480534
-0.0080748885
0.0032610302
0.0046116773
-0.0044859985
0.0013180774
0.011916326
0.0050565949
-6.2735529e-05
-0.0048122691
-0.0092191794
-0.01188742
0.0025805249
0.0058739702
-0.0045367765
0.0012354258
0.01182888
0.0047807076
-0.00060280476
-0.005748132
-0.010876735
-0.015063062
-0.0018670375
0.004314799
-0.0045510694
0.001133025
0.011582414
0.0043596611
-0.0012226172
-0.0066233162
-0.012082598
-0.016659913
-0.00353027
0.0038072456
-0.0046230928
0.00083006405
0.011131946
0.0038051801
-0.0018643759
-0.0073634503
-0.012929499
-0.017568911
-0.0043029036
0.0035984311
-0.004787191
0.00023877345
0.010422533
0.00309809
-0.0025173551
-0.0079516767
-0.013448917
-0.017997904
-0.0045914845
0.0035311378
-0.0051422171
-0.00088448526
0.0093208993
0.0021898618
-0.0031927364
-0.0083929915
-0.013660564
-0.017991187
-0.0044422709
0.0035938697
-0.0059679416
-0.0031899084
0.0075591141
0.0010453267
-0.0038836743
-0.0086827419
-0.013550359
-0.017458179
-0.0036109157
0.0038985036
-0.0076839047
-0.0078726586