/*--------------------------------*- C++ -*----------------------------------*\
| =========                 |                                                 |
| \\      /  F ield         | OpenFOAM: The Open Source CFD Toolbox           |
|  \\    /   O peration     | Version:  v2106                                 |
|   \\  /    A nd           | Website:  www.openfoam.com                      |
|    \\/     M anipulation  |                                                 |
\*---------------------------------------------------------------------------*/
FoamFile
{
    version     2.0;
    format      ascii;
    arch        "LSB;label=32;scalar=64";
    class       volScalarField;
    location    "55";
    object      gradTz;
}
// * * * * * * * * * * * * * * * * * * * * * * * * * * * * * * * * * * * * * //

dimensions      [0 -1 0 1 0 0 0];

internalField   nonuniform List<scalar> 
4000
(
576.42527
576.42353
576.42466
576.42509
576.42532
576.42538
576.4253
576.42514
576.42501
576.42506
576.42353
576.42314
576.42413
576.42456
576.42478
576.42482
576.42471
576.4245
576.42427
576.42434
576.42466
576.42413
576.42511
576.42553
576.42573
576.42576
576.42562
576.42535
576.42501
576.42489
576.42509
576.42456
576.42553
576.42593
576.42612
576.42612
576.42596
576.42565
576.42527
576.42512
576.42532
576.42478
576.42573
576.42612
576.42629
576.42627
576.42608
576.42575
576.42535
576.42517
576.42538
576.42482
576.42576
576.42612
576.42627
576.42623
576.42603
576.42568
576.42526
576.42507
576.4253
576.42471
576.42562
576.42596
576.42608
576.42603
576.4258
576.42544
576.42502
576.42484
576.42514
576.4245
576.42535
576.42565
576.42575
576.42568
576.42544
576.42508
576.42466
576.42448
576.42501
576.42427
576.42501
576.42527
576.42535
576.42526
576.42502
576.42466
576.42426
576.4241
576.42506
576.42434
576.42489
576.42512
576.42517
576.42507
576.42484
576.42448
576.4241
576.42401
851.68253
851.68102
851.68225
851.68285
851.68315
851.68321
851.68307
851.6828
851.68259
851.68288
851.68102
851.68064
851.6818
851.68239
851.68269
851.68273
851.68254
851.68218
851.68177
851.68211
851.68225
851.6818
851.68294
851.68352
851.68379
851.68381
851.68358
851.68313
851.68256
851.68265
851.68285
851.68239
851.68352
851.68408
851.68433
851.68431
851.68404
851.68354
851.68291
851.68294
851.68315
851.68269
851.68379
851.68433
851.68456
851.68451
851.6842
851.68366
851.68299
851.683
851.68321
851.68273
851.68381
851.68431
851.68451
851.68443
851.6841
851.68353
851.68284
851.68284
851.68307
851.68254
851.68358
851.68404
851.6842
851.6841
851.68374
851.68316
851.68247
851.68246
851.6828
851.68218
851.68313
851.68354
851.68366
851.68353
851.68316
851.68258
851.68189
851.68191
851.68259
851.68177
851.68256
851.68291
851.68299
851.68284
851.68247
851.68189
851.68124
851.68132
851.68288
851.68211
851.68265
851.68294
851.683
851.68284
851.68246
851.68191
851.68132
851.68167
845.95174
845.95085
845.95183
845.95236
845.95262
845.95263
845.95244
845.95209
845.95178
845.95218
845.95085
845.95072
845.95166
845.95218
845.95242
845.95242
845.95219
845.95174
845.95119
845.95161
845.95183
845.95166
845.95259
845.95309
845.95332
845.95329
845.95302
845.95249
845.95179
845.95199
845.95236
845.95218
845.95309
845.95358
845.95378
845.95372
845.95341
845.95283
845.95207
845.95221
845.95262
845.95242
845.95332
845.95378
845.95396
845.95387
845.95352
845.95291
845.95211
845.95223
845.95263
845.95242
845.95329
845.95372
845.95387
845.95375
845.95338
845.95274
845.95192
845.95203
845.95244
845.95219
845.95302
845.95341
845.95352
845.95338
845.95298
845.95233
845.9515
845.95161
845.95209
845.95174
845.95249
845.95283
845.95291
845.95274
845.95233
845.95168
845.95086
845.95099
845.95178
845.95119
845.95179
845.95207
845.95211
845.95192
845.9515
845.95086
845.95008
845.95031
845.95218
845.95161
845.95199
845.95221
845.95223
845.95203
845.95161
845.95099
845.95031
845.95107
840.25877
840.258
840.25889
840.25935
840.25956
840.25953
840.25928
840.25887
840.25843
840.25873
840.258
840.25788
840.25873
840.25918
840.25938
840.25933
840.25905
840.25854
840.25788
840.25823
840.25889
840.25873
840.25957
840.26
840.26018
840.26011
840.25978
840.2592
840.25839
840.25855
840.25935
840.25918
840.26
840.26042
840.26058
840.26047
840.26011
840.25948
840.25861
840.25871
840.25956
840.25938
840.26018
840.26058
840.2607
840.26057
840.26018
840.25951
840.25861
840.25868
840.25953
840.25933
840.26011
840.26047
840.26057
840.26041
840.25999
840.2593
840.25838
840.25844
840.25928
840.25905
840.25978
840.26011
840.26018
840.25999
840.25955
840.25885
840.25792
840.25798
840.25887
840.25854
840.2592
840.25948
840.25951
840.2593
840.25885
840.25814
840.25723
840.25731
840.25843
840.25788
840.25839
840.25861
840.25861
840.25838
840.25792
840.25723
840.25635
840.25653
840.25873
840.25823
840.25855
840.25871
840.25868
840.25844
840.25798
840.25731
840.25653
840.25737
834.60346
834.60276
834.60359
834.604
834.60416
834.60409
834.60381
834.60334
834.60285
834.60307
834.60276
834.60266
834.60345
834.60385
834.604
834.60391
834.60359
834.60304
834.60233
834.60261
834.60359
834.60345
834.60423
834.60461
834.60474
834.60463
834.60426
834.60364
834.60279
834.60288
834.604
834.60385
834.60461
834.60498
834.60509
834.60494
834.60454
834.60387
834.60296
834.603
834.60416
834.604
834.60474
834.60509
834.60517
834.605
834.60457
834.60386
834.60292
834.60294
834.60409
834.60391
834.60463
834.60494
834.605
834.6048
834.60435
834.60362
834.60266
834.60267
834.60381
834.60359
834.60426
834.60454
834.60457
834.60435
834.60387
834.60313
834.60217
834.60218
834.60334
834.60304
834.60364
834.60387
834.60386
834.60362
834.60313
834.60239
834.60144
834.60146
834.60285
834.60233
834.60279
834.60296
834.60292
834.60266
834.60217
834.60144
834.60052
834.60064
834.60307
834.60261
834.60288
834.603
834.60294
834.60267
834.60218
834.60146
834.60064
834.60145
828.98685
828.98622
828.98701
828.98737
828.98749
828.98739
828.98707
828.98657
828.98604
828.98621
828.98622
828.98615
828.98689
828.98725
828.98736
828.98724
828.98688
828.9863
828.98557
828.98578
828.98701
828.98689
828.98761
828.98796
828.98805
828.9879
828.98751
828.98686
828.98599
828.98603
828.98737
828.98725
828.98796
828.98828
828.98835
828.98817
828.98775
828.98705
828.98612
828.98611
828.98749
828.98736
828.98805
828.98835
828.9884
828.98819
828.98774
828.98701
828.98605
828.98602
828.98739
828.98724
828.9879
828.98817
828.98819
828.98797
828.98749
828.98674
828.98576
828.98572
828.98707
828.98688
828.98751
828.98775
828.98774
828.98749
828.98699
828.98623
828.98525
828.98521
828.98657
828.9863
828.98686
828.98705
828.98701
828.98674
828.98623
828.98547
828.9845
828.98448
828.98604
828.98557
828.98599
828.98612
828.98605
828.98576
828.98525
828.9845
828.98356
828.98363
828.98621
828.98578
828.98603
828.98611
828.98602
828.98572
828.98521
828.98448
828.98363
828.98437
823.41036
823.40981
823.41054
823.41087
823.41096
823.41083
823.41049
823.40997
823.40942
823.40953
823.40981
823.40977
823.41046
823.41078
823.41086
823.41071
823.41033
823.40973
823.40899
823.40914
823.41054
823.41046
823.41113
823.41144
823.4115
823.41132
823.41091
823.41025
823.40937
823.40936
823.41087
823.41078
823.41144
823.41172
823.41176
823.41156
823.41112
823.41041
823.40948
823.40943
823.41096
823.41086
823.4115
823.41176
823.41178
823.41155
823.41108
823.41035
823.40938
823.40931
823.41083
823.41071
823.41132
823.41156
823.41155
823.41131
823.41081
823.41005
823.40908
823.40899
823.41049
823.41033
823.41091
823.41112
823.41108
823.41081
823.4103
823.40953
823.40855
823.40847
823.40997
823.40973
823.41025
823.41041
823.41035
823.41005
823.40953
823.40877
823.40779
823.40773
823.40942
823.40899
823.40937
823.40948
823.40938
823.40908
823.40855
823.40779
823.40685
823.40687
823.40953
823.40914
823.40936
823.40943
823.40931
823.40899
823.40847
823.40773
823.40687
823.40753
817.87574
817.87526
817.87594
817.87624
817.8763
817.87615
817.87579
817.87527
817.8747
817.87477
817.87526
817.87525
817.87589
817.87618
817.87623
817.87606
817.87567
817.87507
817.87432
817.87442
817.87594
817.87589
817.87652
817.87679
817.87682
817.87663
817.87621
817.87555
817.87468
817.87462
817.87624
817.87618
817.87679
817.87704
817.87706
817.87684
817.87639
817.87568
817.87476
817.87467
817.8763
817.87623
817.87682
817.87706
817.87705
817.87681
817.87633
817.8756
817.87465
817.87453
817.87615
817.87606
817.87663
817.87684
817.87681
817.87655
817.87604
817.87529
817.87433
817.87421
817.87579
817.87567
817.87621
817.87639
817.87633
817.87604
817.87553
817.87477
817.8738
817.87367
817.87527
817.87507
817.87555
817.87568
817.8756
817.87529
817.87477
817.87401
817.87304
817.87294
817.8747
817.87432
817.87468
817.87476
817.87465
817.87433
817.8738
817.87304
817.87211
817.87208
817.87477
817.87442
817.87462
817.87467
817.87453
817.87421
817.87367
817.87294
817.87208
817.87267
812.38503
812.38463
812.38526
812.38553
812.38557
812.3854
812.38503
812.38451
812.38394
812.38397
812.38463
812.38465
812.38524
812.3855
812.38552
812.38534
812.38495
812.38435
812.38361
812.38366
812.38526
812.38524
812.38582
812.38606
812.38607
812.38587
812.38544
812.38479
812.38393
812.38384
812.38553
812.3855
812.38606
812.38628
812.38628
812.38605
812.38559
812.3849
812.384
812.38387
812.38557
812.38552
812.38607
812.38628
812.38625
812.386
812.38552
812.3848
812.38387
812.38372
812.3854
812.38534
812.38587
812.38605
812.386
812.38573
812.38523
812.38449
812.38355
812.38339
812.38503
812.38495
812.38544
812.38559
812.38552
812.38523
812.38471
812.38397
812.38302
812.38286
812.38451
812.38435
812.38479
812.3849
812.3848
812.38449
812.38397
812.38322
812.38228
812.38214
812.38394
812.38361
812.38393
812.384
812.38387
812.38355
812.38302
812.38228
812.38137
812.3813
812.38397
812.38366
812.38384
812.38387
812.38372
812.38339
812.38286
812.38214
812.3813
812.3818
806.94055
806.94022
806.9408
806.94104
806.94105
806.94088
806.94051
806.93999
806.93943
806.93943
806.94022
806.94027
806.94081
806.94103
806.94104
806.94085
806.94046
806.93987
806.93915
806.93916
806.9408
806.94081
806.94134
806.94155
806.94154
806.94133
806.94091
806.94027
806.93944
806.93932
806.94104
806.94103
806.94155
806.94174
806.94172
806.94148
806.94103
806.94036
806.93949
806.93933
806.94105
806.94104
806.94154
806.94172
806.94167
806.94142
806.94095
806.94025
806.93935
806.93918
806.94088
806.94085
806.94133
806.94148
806.94142
806.94114
806.94065
806.93994
806.93903
806.93885
806.94051
806.94046
806.94091
806.94103
806.94095
806.94065
806.94015
806.93943
806.93851
806.93833
806.93999
806.93987
806.94027
806.94036
806.94025
806.93994
806.93943
806.9387
806.9378
806.93762
806.93943
806.93915
806.93944
806.93949
806.93935
806.93903
806.93851
806.9378
806.93691
806.9368
806.93943
806.93916
806.93932
806.93933
806.93918
806.93885
806.93833
806.93762
806.9368
806.93723
801.54481
801.54457
801.54509
801.54529
801.54529
801.54511
801.54475
801.54425
801.5437
801.54366
801.54457
801.54464
801.54513
801.54532
801.54531
801.54511
801.54473
801.54416
801.54347
801.54343
801.54509
801.54513
801.5456
801.54578
801.54576
801.54554
801.54513
801.54452
801.54372
801.54357
801.54529
801.54532
801.54578
801.54594
801.54591
801.54567
801.54523
801.54459
801.54376
801.54357
801.54529
801.54531
801.54576
801.54591
801.54585
801.54559
801.54514
801.54447
801.54361
801.54341
801.54511
801.54511
801.54554
801.54567
801.54559
801.54532
801.54485
801.54416
801.5433
801.54309
801.54475
801.54473
801.54513
801.54523
801.54514
801.54485
801.54436
801.54367
801.54279
801.54259
801.54425
801.54416
801.54452
801.54459
801.54447
801.54416
801.54367
801.54297
801.54211
801.54191
801.5437
801.54347
801.54372
801.54376
801.54361
801.5433
801.54279
801.54211
801.54126
801.54112
801.54366
801.54343
801.54357
801.54357
801.54341
801.54309
801.54259
801.54191
801.54112
801.54148
796.20054
796.20037
796.20083
796.20101
796.20099
796.2008
796.20046
796.19997
796.19944
796.19937
796.20037
796.20046
796.2009
796.20106
796.20104
796.20084
796.20047
796.19993
796.19926
796.19919
796.20083
796.2009
796.20131
796.20146
796.20143
796.20121
796.20082
796.20024
796.19948
796.19931
796.20101
796.20106
796.20146
796.2016
796.20155
796.20132
796.2009
796.20029
796.1995
796.1993
796.20099
796.20104
796.20143
796.20155
796.20148
796.20123
796.20079
796.20016
796.19936
796.19914
796.2008
796.20084
796.20121
796.20132
796.20123
796.20096
796.20051
796.19987
796.19905
796.19882
796.20046
796.20047
796.20082
796.2009
796.20079
796.20051
796.20004
796.19939
796.19857
796.19834
796.19997
796.19993
796.20024
796.20029
796.20016
796.19987
796.19939
796.19874
796.19792
796.1977
796.19944
796.19926
796.19948
796.1995
796.19936
796.19905
796.19857
796.19792
796.19712
796.19695
796.19937
796.19919
796.19931
796.1993
796.19914
796.19882
796.19834
796.1977
796.19695
796.19724
790.91059
790.91049
790.91089
790.91104
790.91101
790.91082
790.91049
790.91003
790.90952
790.90942
790.91049
790.9106
790.91098
790.91111
790.91107
790.91088
790.91052
790.91001
790.90939
790.90929
790.91089
790.91098
790.91134
790.91146
790.91141
790.9112
790.91082
790.91028
790.90958
790.90938
790.91104
790.91111
790.91146
790.91157
790.91151
790.91128
790.91088
790.91031
790.90958
790.90936
790.91101
790.91107
790.91141
790.91151
790.91143
790.91119
790.91077
790.91018
790.90943
790.9092
790.91082
790.91088
790.9112
790.91128
790.91119
790.91093
790.9105
790.9099
790.90914
790.9089
790.91049
790.91052
790.91082
790.91088
790.91077
790.9105
790.91006
790.90945
790.90869
790.90845
790.91003
790.91001
790.91028
790.91031
790.91018
790.9099
790.90945
790.90884
790.90808
790.90785
790.90952
790.90939
790.90958
790.90958
790.90943
790.90914
790.90869
790.90808
790.90733
790.90714
790.90942
790.90929
790.90938
790.90936
790.9092
790.9089
790.90845
790.90785
790.90714
790.90736
785.67793
785.67789
785.67823
785.67834
785.6783
785.67812
785.6778
785.67737
785.6769
785.67677
785.67789
785.67802
785.67833
785.67844
785.67839
785.67819
785.67786
785.67739
785.67681
785.67668
785.67823
785.67833
785.67863
785.67873
785.67867
785.67846
785.67811
785.67761
785.67696
785.67675
785.67834
785.67844
785.67873
785.67881
785.67874
785.67852
785.67815
785.67762
785.67695
785.67672
785.6783
785.67839
785.67867
785.67874
785.67865
785.67842
785.67803
785.67749
785.67681
785.67657
785.67812
785.67819
785.67846
785.67852
785.67842
785.67817
785.67778
785.67722
785.67653
785.67628
785.6778
785.67786
785.67811
785.67815
785.67803
785.67778
785.67737
785.67681
785.67611
785.67586
785.67737
785.67739
785.67761
785.67762
785.67749
785.67722
785.67681
785.67625
785.67555
785.67531
785.6769
785.67681
785.67696
785.67695
785.67681
785.67653
785.67611
785.67555
785.67486
785.67466
785.67677
785.67668
785.67675
785.67672
785.67657
785.67628
785.67586
785.67531
785.67466
785.67481
780.50558
780.50561
780.50589
780.50597
780.50591
780.50573
780.50544
780.50504
780.5046
780.50446
780.50561
780.50575
780.506
780.50608
780.50602
780.50583
780.50552
780.50509
780.50456
780.50441
780.50589
780.506
780.50624
780.50631
780.50624
780.50604
780.50572
780.50526
780.50468
780.50446
780.50597
780.50608
780.50631
780.50636
780.50628
780.50607
780.50573
780.50526
780.50465
780.50442
780.50591
780.50602
780.50624
780.50628
780.50619
780.50597
780.50562
780.50513
780.50451
780.50427
780.50573
780.50583
780.50604
780.50607
780.50597
780.50574
780.50538
780.50488
780.50425
780.504
780.50544
780.50552
780.50572
780.50573
780.50562
780.50538
780.505
780.5045
780.50387
780.50362
780.50504
780.50509
780.50526
780.50526
780.50513
780.50488
780.5045
780.50399
780.50337
780.50312
780.5046
780.50456
780.50468
780.50465
780.50451
780.50425
780.50387
780.50337
780.50275
780.50253
780.50446
780.50441
780.50446
780.50442
780.50427
780.504
780.50362
780.50312
780.50253
780.50261
775.39664
775.39673
775.39694
775.39699
775.39692
775.39675
775.39648
775.39612
775.39572
775.39557
775.39673
775.39688
775.39707
775.39711
775.39704
775.39686
775.39658
775.39619
775.39572
775.39555
775.39694
775.39707
775.39724
775.39728
775.3972
775.39701
775.39672
775.39631
775.3958
775.39558
775.39699
775.39711
775.39728
775.3973
775.39722
775.39702
775.39672
775.3963
775.39576
775.39552
775.39692
775.39704
775.3972
775.39722
775.39712
775.39692
775.3966
775.39617
775.39563
775.39538
775.39675
775.39686
775.39701
775.39702
775.39692
775.3967
775.39638
775.39594
775.39539
775.39514
775.39648
775.39658
775.39672
775.39672
775.3966
775.39638
775.39605
775.3956
775.39505
775.3948
775.39612
775.39619
775.39631
775.3963
775.39617
775.39594
775.3956
775.39515
775.3946
775.39435
775.39572
775.39572
775.3958
775.39576
775.39563
775.39539
775.39505
775.3946
775.39405
775.39383
775.39557
775.39555
775.39558
775.39552
775.39538
775.39514
775.3948
775.39435
775.39383
775.39386
770.35419
770.35434
770.35447
770.35449
770.35441
770.35425
770.35401
770.35369
770.35334
770.35317
770.35434
770.35449
770.35461
770.35462
770.35454
770.35438
770.35413
770.35379
770.35338
770.35319
770.35447
770.35461
770.35472
770.35473
770.35464
770.35447
770.35421
770.35386
770.35342
770.35319
770.35449
770.35462
770.35473
770.35473
770.35464
770.35446
770.35419
770.35382
770.35337
770.35313
770.35441
770.35454
770.35464
770.35464
770.35454
770.35435
770.35407
770.3537
770.35324
770.353
770.35425
770.35438
770.35447
770.35446
770.35435
770.35415
770.35387
770.35349
770.35302
770.35278
770.35401
770.35413
770.35421
770.35419
770.35407
770.35387
770.35358
770.3532
770.35273
770.35248
770.35369
770.35379
770.35386
770.35382
770.3537
770.35349
770.3532
770.35282
770.35234
770.3521
770.35334
770.35338
770.35342
770.35337
770.35324
770.35302
770.35273
770.35234
770.35187
770.35164
770.35317
770.35319
770.35319
770.35313
770.353
770.35278
770.35248
770.3521
770.35164
770.35162
765.38129
765.38149
765.38155
765.38154
765.38146
765.38131
765.38109
765.38082
765.38051
765.38033
765.38149
765.38165
765.3817
765.38168
765.3816
765.38144
765.38122
765.38094
765.38059
765.38039
765.38155
765.3817
765.38175
765.38173
765.38163
765.38148
765.38125
765.38096
765.38059
765.38037
765.38154
765.38168
765.38173
765.3817
765.3816
765.38144
765.38121
765.3809
765.38053
765.3803
765.38146
765.3816
765.38163
765.3816
765.3815
765.38133
765.38109
765.38079
765.38041
765.38018
765.38131
765.38144
765.38148
765.38144
765.38133
765.38116
765.38092
765.38061
765.38022
765.37999
765.38109
765.38122
765.38125
765.38121
765.38109
765.38092
765.38067
765.38036
765.37997
765.37974
765.38082
765.38094
765.38096
765.3809
765.38079
765.38061
765.38036
765.38004
765.37965
765.37942
765.38051
765.38059
765.38059
765.38053
765.38041
765.38022
765.37997
765.37965
765.37926
765.37903
765.38033
765.38039
765.38037
765.3803
765.38018
765.37999
765.37974
765.37942
765.37903
765.37896
760.48096
760.48121
760.4812
760.48115
760.48106
760.48092
760.48074
760.48052
760.48026
760.48008
760.48121
760.48136
760.48135
760.4813
760.48121
760.48107
760.48088
760.48065
760.48037
760.48016
760.4812
760.48135
760.48133
760.48128
760.48118
760.48104
760.48086
760.48062
760.48033
760.48012
760.48115
760.4813
760.48128
760.48123
760.48113
760.48098
760.48079
760.48055
760.48026
760.48004
760.48106
760.48121
760.48118
760.48113
760.48102
760.48087
760.48068
760.48044
760.48015
760.47993
760.48092
760.48107
760.48104
760.48098
760.48087
760.48072
760.48053
760.48029
760.47999
760.47977
760.48074
760.48088
760.48086
760.48079
760.48068
760.48053
760.48033
760.48009
760.47979
760.47957
760.48052
760.48065
760.48062
760.48055
760.48044
760.48029
760.48009
760.47984
760.47954
760.47932
760.48026
760.48037
760.48033
760.48026
760.48015
760.47999
760.47979
760.47954
760.47923
760.47901
760.48008
760.48016
760.48012
760.48004
760.47993
760.47977
760.47957
760.47932
760.47901
760.47889
755.65612
755.65642
755.65634
755.65626
755.65616
755.65604
755.65589
755.65572
755.65551
755.65533
755.65642
755.65657
755.65649
755.65641
755.65631
755.65619
755.65604
755.65587
755.65566
755.65544
755.65634
755.65649
755.65641
755.65633
755.65623
755.6561
755.65596
755.65578
755.65558
755.65538
755.65626
755.65641
755.65633
755.65625
755.65614
755.65602
755.65587
755.6557
755.65549
755.65529
755.65616
755.65631
755.65623
755.65614
755.65604
755.65592
755.65577
755.6556
755.65539
755.65519
755.65604
755.65619
755.6561
755.65602
755.65592
755.65579
755.65564
755.65547
755.65526
755.65506
755.65589
755.65604
755.65596
755.65587
755.65577
755.65564
755.65549
755.65532
755.65511
755.65491
755.65572
755.65587
755.65578
755.6557
755.6556
755.65547
755.65532
755.65514
755.65493
755.65473
755.65551
755.65566
755.65558
755.65549
755.65539
755.65526
755.65511
755.65493
755.65472
755.6545
755.65533
755.65544
755.65538
755.65529
755.65519
755.65506
755.65491
755.65473
755.6545
755.65434
750.90962
750.90995
750.9098
750.9097
750.90959
750.90948
750.90937
750.90925
750.9091
750.90891
750.90995
750.91009
750.90995
750.90985
750.90974
750.90963
750.90952
750.90941
750.90927
750.90906
750.9098
750.90995
750.90981
750.9097
750.9096
750.90949
750.90938
750.90928
750.90915
750.90897
750.9097
750.90985
750.9097
750.90959
750.90949
750.90938
750.90928
750.90918
750.90906
750.90888
750.90959
750.90974
750.9096
750.90949
750.90939
750.90928
750.90918
750.90908
750.90897
750.90879
750.90948
750.90963
750.90949
750.90938
750.90928
750.90918
750.90908
750.90898
750.90887
750.90869
750.90937
750.90952
750.90938
750.90928
750.90918
750.90908
750.90899
750.90889
750.90877
750.90859
750.90925
750.90941
750.90928
750.90918
750.90908
750.90898
750.90889
750.90878
750.90867
750.90848
750.9091
750.90927
750.90915
750.90906
750.90897
750.90887
750.90877
750.90867
750.90854
750.90834
750.90891
750.90906
750.90897
750.90888
750.90879
750.90869
750.90859
750.90848
750.90834
750.90814
746.24414
746.24451
746.24429
746.24416
746.24405
746.24395
746.24388
746.24381
746.24371
746.24353
746.24451
746.24464
746.24444
746.2443
746.24419
746.2441
746.24403
746.24398
746.24391
746.2437
746.24429
746.24444
746.24423
746.2441
746.24399
746.2439
746.24384
746.2438
746.24376
746.24359
746.24416
746.2443
746.2441
746.24396
746.24386
746.24378
746.24372
746.24368
746.24366
746.2435
746.24405
746.24419
746.24399
746.24386
746.24376
746.24368
746.24363
746.2436
746.24357
746.24342
746.24395
746.2441
746.2439
746.24378
746.24368
746.24361
746.24356
746.24353
746.24351
746.24336
746.24388
746.24403
746.24384
746.24372
746.24363
746.24356
746.24351
746.24348
746.24346
746.24331
746.24381
746.24398
746.2438
746.24368
746.2436
746.24353
746.24348
746.24346
746.24343
746.24327
746.24371
746.24391
746.24376
746.24366
746.24357
746.24351
746.24346
746.24343
746.2434
746.24322
746.24353
746.2437
746.24359
746.2435
746.24342
746.24336
746.24331
746.24327
746.24322
746.24299
741.66224
741.66264
741.66235
741.66219
741.66207
741.662
741.66196
741.66194
741.66191
741.66173
741.66264
741.66276
741.66249
741.66233
741.66221
741.66214
741.66211
741.66212
741.66213
741.66193
741.66235
741.66249
741.66222
741.66206
741.66195
741.66189
741.66187
741.66189
741.66194
741.66179
741.66219
741.66233
741.66206
741.66191
741.6618
741.66174
741.66173
741.66177
741.66183
741.6617
741.66207
741.66221
741.66195
741.6618
741.6617
741.66165
741.66165
741.66169
741.66176
741.66163
741.662
741.66214
741.66189
741.66174
741.66165
741.66161
741.66161
741.66166
741.66173
741.6616
741.66196
741.66211
741.66187
741.66173
741.66165
741.66161
741.66161
741.66166
741.66174
741.66161
741.66194
741.66212
741.66189
741.66177
741.66169
741.66166
741.66166
741.66171
741.66178
741.66165
741.66191
741.66213
741.66194
741.66183
741.66176
741.66173
741.66174
741.66178
741.66184
741.66168
741.66173
741.66193
741.66179
741.6617
741.66163
741.6616
741.66161
741.66165
741.66168
741.66142
737.16629
737.16671
737.16637
737.16618
737.16606
737.166
737.166
737.16604
737.16606
737.1659
737.16671
737.16682
737.16649
737.1663
737.16619
737.16614
737.16615
737.16622
737.1663
737.16611
737.16637
737.16649
737.16617
737.16598
737.16587
737.16583
737.16585
737.16594
737.16608
737.16596
737.16618
737.1663
737.16598
737.1658
737.1657
737.16567
737.1657
737.16581
737.16596
737.16585
737.16606
737.16619
737.16587
737.1657
737.1656
737.16558
737.16562
737.16574
737.1659
737.1658
737.166
737.16614
737.16583
737.16567
737.16558
737.16556
737.16561
737.16574
737.16591
737.16581
737.166
737.16615
737.16585
737.1657
737.16562
737.16561
737.16567
737.1658
737.16597
737.16587
737.16604
737.16622
737.16594
737.16581
737.16574
737.16574
737.1658
737.16592
737.16609
737.16598
737.16606
737.1663
737.16608
737.16596
737.1659
737.16591
737.16597
737.16609
737.16624
737.1661
737.1659
737.16611
737.16596
737.16585
737.1658
737.16581
737.16587
737.16598
737.1661
737.16582
732.75849
732.75893
732.75851
732.7583
732.75818
732.75814
732.75818
732.75827
732.75836
732.7582
732.75893
732.75902
732.75863
732.75842
732.7583
732.75827
732.75832
732.75845
732.75861
732.75844
732.75851
732.75863
732.75825
732.75804
732.75793
732.75791
732.75798
732.75814
732.75836
732.75826
732.7583
732.75842
732.75804
732.75784
732.75774
732.75773
732.75781
732.75799
732.75823
732.75816
732.75818
732.7583
732.75793
732.75774
732.75765
732.75765
732.75774
732.75793
732.75819
732.75812
732.75814
732.75827
732.75791
732.75773
732.75765
732.75766
732.75777
732.75796
732.75823
732.75816
732.75818
732.75832
732.75798
732.75781
732.75774
732.75777
732.75788
732.75808
732.75834
732.75828
732.75827
732.75845
732.75814
732.75799
732.75793
732.75796
732.75808
732.75828
732.75854
732.75847
732.75836
732.75861
732.75836
732.75823
732.75819
732.75823
732.75834
732.75854
732.75878
732.75868
732.7582
732.75844
732.75826
732.75816
732.75812
732.75816
732.75828
732.75847
732.75868
732.75837
728.4408
728.44125
728.44078
728.44054
728.44042
728.4404
728.44048
728.44063
728.44077
728.44064
728.44125
728.44133
728.44088
728.44065
728.44053
728.44052
728.44062
728.44081
728.44104
728.44088
728.44078
728.44088
728.44045
728.44022
728.44011
728.44011
728.44023
728.44045
728.44076
728.44069
728.44054
728.44065
728.44022
728.44
728.4399
728.43992
728.44005
728.44029
728.44063
728.44058
728.44042
728.44053
728.44011
728.4399
728.43982
728.43985
728.43999
728.44025
728.4406
728.44057
728.4404
728.44052
728.44011
728.43992
728.43985
728.43989
728.44004
728.44031
728.44067
728.44064
728.44048
728.44062
728.44023
728.44005
728.43999
728.44004
728.44021
728.44048
728.44084
728.44081
728.44063
728.44081
728.44045
728.44029
728.44025
728.44031
728.44048
728.44076
728.44111
728.44107
728.44077
728.44104
728.44076
728.44063
728.4406
728.44067
728.44084
728.44111
728.44145
728.44137
728.44064
728.44088
728.44069
728.44058
728.44057
728.44064
728.44081
728.44107
728.44137
728.44105
724.21498
724.21545
724.21492
724.21466
724.21454
724.21455
724.21466
724.21487
724.21507
724.21495
724.21545
724.21551
724.21501
724.21476
724.21464
724.21465
724.21479
724.21504
724.21535
724.21521
724.21492
724.21501
724.21452
724.21428
724.21417
724.2142
724.21436
724.21465
724.21504
724.215
724.21466
724.21476
724.21428
724.21404
724.21395
724.21399
724.21417
724.21448
724.2149
724.21489
724.21454
724.21464
724.21417
724.21395
724.21387
724.21393
724.21412
724.21445
724.21489
724.21489
724.21455
724.21465
724.2142
724.21399
724.21393
724.214
724.21421
724.21455
724.215
724.215
724.21466
724.21479
724.21436
724.21417
724.21412
724.21421
724.21442
724.21477
724.21522
724.21523
724.21487
724.21504
724.21465
724.21448
724.21445
724.21455
724.21477
724.21512
724.21557
724.21557
724.21507
724.21535
724.21504
724.2149
724.21489
724.215
724.21522
724.21557
724.21599
724.21595
724.21495
724.21521
724.215
724.21489
724.21489
724.215
724.21523
724.21557
724.21595
724.21562
720.08257
720.08305
720.08247
720.08219
720.08207
720.0821
720.08225
720.08251
720.08278
720.08267
720.08305
720.08308
720.08254
720.08227
720.08215
720.08219
720.08237
720.08268
720.08307
720.08295
720.08247
720.08254
720.082
720.08174
720.08164
720.0817
720.0819
720.08225
720.08272
720.08272
720.08219
720.08227
720.08174
720.08149
720.08141
720.08148
720.0817
720.08208
720.08259
720.08261
720.08207
720.08215
720.08164
720.08141
720.08133
720.08142
720.08166
720.08206
720.08259
720.08263
720.0821
720.08219
720.0817
720.08148
720.08142
720.08152
720.08178
720.08219
720.08273
720.08278
720.08225
720.08237
720.0819
720.0817
720.08166
720.08178
720.08205
720.08247
720.08301
720.08306
720.08251
720.08268
720.08225
720.08208
720.08206
720.08219
720.08247
720.08289
720.08343
720.08347
720.08278
720.08307
720.08272
720.08259
720.08259
720.08273
720.08301
720.08343
720.08394
720.08393
720.08267
720.08295
720.08272
720.08261
720.08263
720.08278
720.08306
720.08347
720.08393
720.0836
716.04484
716.04532
716.04469
716.0444
716.04428
716.04433
716.04453
716.04484
716.04517
716.04508
716.04532
716.04533
716.04474
716.04446
716.04435
716.04441
716.04463
716.045
716.04546
716.04537
716.04469
716.04474
716.04417
716.04389
716.0438
716.04388
716.04413
716.04454
716.04509
716.04512
716.0444
716.04446
716.04389
716.04363
716.04355
716.04365
716.04392
716.04437
716.04496
716.04502
716.04428
716.04435
716.0438
716.04355
716.04349
716.04361
716.0439
716.04437
716.04498
716.04506
716.04433
716.04441
716.04388
716.04365
716.04361
716.04374
716.04405
716.04453
716.04516
716.04524
716.04453
716.04463
716.04413
716.04392
716.0439
716.04405
716.04437
716.04486
716.04549
716.04557
716.04484
716.045
716.04454
716.04437
716.04437
716.04453
716.04486
716.04535
716.04598
716.04605
716.04517
716.04546
716.04509
716.04496
716.04498
716.04516
716.04549
716.04598
716.04658
716.0466
716.04508
716.04537
716.04512
716.04502
716.04506
716.04524
716.04557
716.04605
716.0466
716.04627
712.10281
712.10329
712.10262
712.10231
712.1022
712.10228
712.10251
712.10288
712.10326
712.1032
712.10329
712.10328
712.10266
712.10236
712.10226
712.10235
712.10261
712.10304
712.10357
712.1035
712.10262
712.10266
712.10204
712.10176
712.10167
712.10178
712.10207
712.10255
712.10318
712.10324
712.10231
712.10236
712.10176
712.10148
712.10142
712.10154
712.10186
712.10237
712.10304
712.10314
712.1022
712.10226