/*--------------------------------*- C++ -*----------------------------------*\
| =========                 |                                                 |
| \\      /  F ield         | OpenFOAM: The Open Source CFD Toolbox           |
|  \\    /   O peration     | Version:  v2106                                 |
|   \\  /    A nd           | Website:  www.openfoam.com                      |
|    \\/     M anipulation  |                                                 |
\*---------------------------------------------------------------------------*/
FoamFile
{
    version     2.0;
    format      ascii;
    arch        "LSB;label=32;scalar=64";
    class       volScalarField;
    location    "55";
    object      gradTx;
}
// * * * * * * * * * * * * * * * * * * * * * * * * * * * * * * * * * * * * * //

dimensions      [0 -1 0 1 0 0 0];

internalField   nonuniform List<scalar> 
4000
(
-0.00026302306
-0.00014913919
0.00032835745
0.00012626134
5.4575003e-05
-2.8866842e-06
-4.2982099e-05
-5.3743781e-05
-2.4418599e-05
3.3698667e-07
-4.8720405e-05
0.00013598405
0.00029026085
0.00012304529
5.0373702e-05
-1.1170347e-05
-5.9753388e-05
-8.293304e-05
-4.6598371e-05
-2.4825151e-06
-7.29409e-05
9.6547896e-05
0.0002856021
0.00011908343
4.4308156e-05
-2.0679283e-05
-7.6086279e-05
-0.00011431221
-0.0001043662
-2.7062266e-05
-7.4118139e-05
9.3228707e-05
0.00028173974
0.00011368772
3.7203813e-05
-2.9947572e-05
-8.7971068e-05
-0.00012842688
-0.00011797283
-3.1146351e-05
-7.5084935e-05
8.9369998e-05
0.00027624454
0.00010707529
2.9722206e-05
-3.8404386e-05
-9.7499897e-05
-0.00013842516
-0.00012626422
-3.3360339e-05
-7.691901e-05
8.2961862e-05
0.00026856986
9.9101764e-05
2.2022817e-05
-4.5699294e-05
-0.00010434647
-0.00014447662
-0.00013067411
-3.4462747e-05
-8.0607376e-05
7.1577395e-05
0.00025746732
8.9350184e-05
1.3970478e-05
-5.1967464e-05
-0.00010896179
-0.00014743765
-0.00013209535
-3.4701912e-05
-8.8099873e-05
4.9857684e-05
0.00024035219
7.7688148e-05
5.6474148e-06
-5.716119e-05
-0.0001114447
-0.00014736419
-0.0001302225
-3.3891907e-05
-0.00010006688
1.1008965e-05
0.00021197347
6.5237235e-05
-2.0792705e-06
-6.0979953e-05
-0.00011184935
-0.00014401376
-0.00012355124
-3.1239459e-05
-0.00010288638
-3.0089922e-05
0.00016897772
5.5790136e-05
-7.053859e-06
-6.2992322e-05
-0.0001109931
-0.00013882007
-0.00011181648
-2.6068737e-05
-0.00094776986
-0.00047008138
0.0013552478
0.00061159173
0.00025898733
-2.3118795e-05
-0.00022098881
-0.00026572843
-5.737561e-05
4.1035196e-05
-0.00024900082
0.00049113269
0.0012608282
0.0005968641
0.00023831187
-6.3863051e-05
-0.00030529168
-0.000413594
-0.00010072663
7.2720527e-05
-0.00030696048
0.00038837017
0.0012362589
0.00057616279
0.0002084592
-0.00011044072
-0.00038595589
-0.00057171551
-0.00037753779
-4.1062021e-05
-0.00031194721
0.00037214381
0.0012158938
0.00054941805
0.00017371582
-0.00015569163
-0.00044418227
-0.00064288695
-0.00045074456
-6.4147557e-05
-0.00031677889
0.00035294124
0.0011888129
0.00051706917
0.00013718492
-0.0001969279
-0.00049046501
-0.00069118927
-0.00049047979
-7.4672408e-05
-0.00032573085
0.00032161567
0.0011512977
0.00047814378
9.9600609e-05
-0.00023253573
-0.00052385348
-0.00072060531
-0.00051162691
-7.9864505e-05
-0.00034394173
0.00026561932
0.0010969843
0.00043058199
6.0340824e-05
-0.0002630977
-0.00054627913
-0.00073483446
-0.00051815795
-8.0862482e-05
-0.00038193277
0.00015664859
0.0010124071
0.00037363465
1.9929398e-05
-0.00028834984
-0.00055809865
-0.00073361341
-0.00050716492
-7.6097455e-05
-0.00044251877
-4.036776e-05
0.00086769132
0.00031110823
-1.7377535e-05
-0.00030674289
-0.00055928723
-0.00071420681
-0.00046561827
-5.8773763e-05
-0.00041083345
-0.00016351359
0.00066238921
0.00026069267
-4.0952962e-05
-0.000316028
-0.00055363665
-0.00068107374
-0.00037326859
-1.4530999e-05
-0.0012724172
-0.0004354386
0.0021567428
0.0010333272
0.00042198499
-8.45968e-05
-0.00045530363
-0.00053728611
5.9247129e-05
0.00019869323
-0.000297536
0.0009212737
0.0020399046
0.0010094695
0.00038586958
-0.00015689312
-0.00061406839
-0.00085565127
-0.00011106562
0.00022409154
-0.0003679423
0.00079224861
0.0020011262
0.0009727959
0.00033272852
-0.00023923284
-0.00075485413
-0.0011314947
-0.00057963872
3.5420969e-05
-0.00037542816
0.00076565707
0.0019650386
0.00092511788
0.0002707918
-0.00032004386
-0.00085913914
-0.0012605098
-0.00071437953
-7.3678677e-06
-0.00038384742
0.0007317173
0.0019167745
0.00086752619
0.00020583225
-0.00039329941
-0.00094119629
-0.0013460671
-0.00078493054
-2.6112111e-05
-0.00039950509
0.00067640061
0.0018499609
0.00079822162
0.00013903572
-0.00045653138
-0.0010003696
-0.0013980175
-0.00082203649
-3.5160309e-05
-0.00043204497
0.00057708126
0.0017536238
0.00071345964
6.9344745e-05
-0.00051068457
-0.0010398586
-0.0014225813
-0.00083255457
-3.6524767e-05
-0.00050534827
0.0003768501
0.0016048901
0.00061187946
-2.1947073e-06
-0.00055519371
-0.0010599276
-0.0014178004
-0.00080738443
-2.5582939e-05
-0.0006442884
-1.7127355e-05
0.0013487653
0.00049888726
-6.8163001e-05
-0.00058719876
-0.0010596416
-0.0013731873
-0.00069965739
2.2331272e-05
-0.0006188901
-0.00026203575
0.0010015762
0.00040658763
-0.00010985166
-0.00060281774
-0.0010452755
-0.0012849032
-0.00034981346
0.00020764635
-0.0015411359
-0.00037650056
0.0028619589
0.0013916282
0.000534658
-0.00019706631
-0.00076049096
-0.00093163827
3.2675318e-05
0.00031378294
-0.00033957832
0.0013007837
0.0027217112
0.0013584982
0.00048367915
-0.00029859122
-0.00098679702
-0.0014080372
-0.00023028033
0.00035086132
-0.00042294635
0.0011448427
0.002668859
0.0013059947
0.0004076302
-0.00041597496
-0.0011860074
-0.0017980007
-0.00087607246
9.5418712e-05
-0.00043307681
0.0011076838
0.0026171765
0.0012377315
0.00031911417
-0.00053143581
-0.0013350291
-0.0019834157
-0.0010702464
3.3890753e-05
-0.00044503302
0.0010592092
0.0025480922
0.0011554527
0.00022645304
-0.00063579225
-0.0014516944
-0.0021049357
-0.0011705509
7.2110659e-06
-0.00046706271
0.00098065596
0.0024526115
0.0010565543
0.00013128078
-0.00072576083
-0.001535696
-0.0021784566
-0.0012228657
-5.5042119e-06
-0.0005127163
0.00084030049
0.0023152476
0.0009356354
3.2128024e-05
-0.00080260854
-0.0015913929
-0.0022126097
-0.0012369603
-7.1798051e-06
-0.00061793341
0.00055513953
0.0021043794
0.00079086733
-6.9386112e-05
-0.00086545936
-0.0016189607
-0.0022038052
-0.0011977564
9.75582e-06
-0.00083031556
-2.6061915e-05
0.0017398691
0.0006287004
-0.00016291292
-0.00091028253
-0.0016167414
-0.0021334112
-0.0010179947
9.1867995e-05
-0.00079323718
-0.00035360826
0.0012644132
0.00049638894
-0.00022200536
-0.00093186884
-0.0015938514
-0.0019848395
-0.00029802289
0.00048973704
-0.0017858916
-0.00031399077
0.0035067311
0.0016972888
0.00060015442
-0.0003553395
-0.0011160924
-0.0013911226
-7.6720102e-05
0.00039893316
-0.00037636683
0.001653928
0.0033405826
0.0016541881
0.00053440084
-0.00048535871
-0.0014074575
-0.0020196244
-0.00041990158
0.00045329403
-0.00047394573
0.0014681841
0.0032723196
0.0015856123
0.0004358921
-0.00063673189
-0.0016630407
-0.0025198045
-0.0012328778
0.00013607639
-0.00048713246
0.0014195165
0.0032047042
0.0014969788
0.00032147027
-0.00078572155
-0.0018551342
-0.0027595315
-0.0014836714
5.6951942e-05
-0.00050267951
0.0013565076
0.0031151103
0.0013905957
0.00020193249
-0.00092011084
-0.00200507
-0.0029155322
-0.0016123981
2.2730125e-05
-0.00053096818
0.0012552542
0.0029917736
0.0012630192
7.9349127e-05
-0.0010357993
-0.0021128208
-0.0030095503
-0.0016790627
6.5754849e-06
-0.00058935899
0.0010751152
0.0028147474
0.0011072167
-4.8145231e-05
-0.0011343316
-0.0021837716
-0.0030524215
-0.0016961013
4.7413134e-06
-0.00072521164
0.00070830588
0.002544097
0.00092098992
-0.00017833742
-0.0012145009
-0.0022179629
-0.003039
-0.0016431
2.7389556e-05
-0.0010083602
-5.3566703e-05
0.0020748403
0.00071148908
-0.00029816404
-0.0012712209
-0.0022132213
-0.002943488
-0.0013951326
0.0001417124
-0.00095399929
-0.00044785187
0.0014803272
0.00054146968
-0.00037372872
-0.0012982041
-0.0021820002
-0.0027380313
-0.00028174121
0.00076965049
-0.0020075683
-0.0002427472
0.0041030262
0.0019593308
0.00062509241
-0.0005519982
-0.0015097247
-0.0018917291
-0.00024010344
0.00046272116
-0.00040458096
0.0019935489
0.0039101021
0.0019058887
0.00054486109
-0.00070950567
-0.0018636769
-0.0026672004
-0.00066137816
0.0005335367
-0.0005167042
0.00177684
0.0038255243
0.0018211228
0.00042445581
-0.00089359885
-0.0021732399
-0.0032730371
-0.0016333284
0.00015801916
-0.00053319702
0.0017160471
0.0037417587
0.0017124148
0.00028490339
-0.0010748523
-0.0024065746
-0.0035647267
-0.0019380011
6.2271986e-05
-0.00055233224
0.001638632
0.0036320504
0.0015826003
0.00013941638
-0.0012380949
-0.0025883456
-0.0037536436
-0.0020937751
2.09026e-05
-0.00058668456
0.0015154105
0.003481801
0.0014273754
-9.5172436e-06
-0.0013784206
-0.0027187482
-0.0038671214
-0.0021739894
1.5169398e-06
-0.00065733722
0.0012970314
0.0032667038
0.0012381043
-0.00016415183
-0.0014976262
-0.002804098
-0.0039180167
-0.0021934743
-3.4599718e-07
-0.0008226527
0.00085189536
0.0029389033
0.0010122697
-0.00032169082
-0.001594173
-0.0028442553
-0.0038996077
-0.002126702
2.7927909e-05
-0.0011743181
-8.4276568e-05
0.0023691775
0.00075749782
-0.00046654657
-0.0016619993
-0.0028365843
-0.0037795118
-0.0018141152
0.00017249617
-0.0011035025
-0.00054132957
0.0016622804
0.00055182299
-0.00055767914
-0.0016938722
-0.0027969678
-0.0035202486
-0.00031225081
0.0010291708
-0.0022050103
-0.00015938427
0.0046557995
0.0021844949
0.00061677584
-0.00077818927
-0.0019297969
-0.0024184945
-0.00044372022
0.0005087439
-0.00042303548
0.0023238238
0.004436183
0.0021206281
0.00052250643
-0.00096198885
-0.0023435244
-0.0033350886
-0.00094289246
0.0005935632
-0.00054953825
0.0020761143
0.004334928
0.0020197995
0.00038091716
-0.0011773817
-0.0027044674
-0.004041515
-0.0020657651
0.00016285883
-0.00056944647
0.0020029523
0.0042350584
0.0018914861
0.00021714573
-0.0013895026
-0.0029770918
-0.0043826559
-0.0024216064
5.1370871e-05
-0.00059211607
0.0019114189
0.004105786
0.0017390461
4.6750601e-05
-0.0015803192
-0.0031891874
-0.0046028705
-0.0026030505
3.2329156e-06
-0.00063229275
0.0017670936
0.0039296977
0.0015573196
-0.00012738373
-0.0017441499
-0.0033411467
-0.0047348275
-0.0026961058
-1.9208967e-05
-0.00071464913
0.0015122264
0.0036782722
0.0013361086
-0.00030789664
-0.0018830352
-0.0034401653
-0.0047932989
-0.0027178491
-2.1075574e-05
-0.00090811106
0.00099242318
0.0032961303
0.0010725995
-0.00049143862
-0.0019951277
-0.0034859369
-0.0047700688
-0.0026379003
1.2574438e-05
-0.0013257119
-0.00011079411
0.0026307049
0.00077475304
-0.0006600683
-0.0020734636
-0.0034754065
-0.004626616
-0.0022645186
0.00018550964
-0.0012408926
-0.00062962172
0.0018174164
0.00053531417
-0.00076593805
-0.0021099263
-0.0034277314
-0.0043167382
-0.0003882101
0.0012634467
-0.0023772642
-6.2483361e-05
0.0051670269
0.0023776275
0.00058171268
-0.0010256461
-0.0023661228
-0.0029599561
-0.0006786096
0.00053904594
-0.0004314269
0.0026455805
0.0049213157
0.0023034465
0.00047396136
-0.0012343972
-0.0028365053
-0.0040110174
-0.0012553326
0.00063512427
-0.00057188825
0.0023674572
0.0048033914
0.0021868978
0.00031205285
-0.0014795192
-0.0032460242
-0.0048124938
-0.0025205669
0.00015245263
-0.00059523434
0.0022819451
0.0046876972
0.0020396256
0.00012511854
-0.0017209748
-0.0035558529
-0.0052004068
-0.0029247582
2.6109334e-05
-0.00062134224
0.0021767274
0.0045395705
0.0018655074
-6.9024197e-05
-0.0019379841
-0.0037966786
-0.00545023
-0.0031304595
-2.8417266e-05
-0.00066706855
0.0020122852
0.0043388544
0.0016585486
-0.00026711774
-0.0021241314
-0.0039690831
-0.005599705
-0.0032356875
-5.375605e-05
-0.00076050966
0.0017228542
0.0040529929
0.0014070425
-0.00047218081
-0.0022817
-0.0040811109
-0.0056654488
-0.0032596836
-5.5663255e-05
-0.00098065687
0.0011323839
0.0036195067
0.0011078941
-0.00068034787
-0.0024085637
-0.0041323291
-0.0056379031
-0.0031675889
-1.7037116e-05
-0.0014612172
-0.00012968339
0.0028636035
0.00076930629
-0.00087147904
-0.0024969188
-0.0041193089
-0.0054728573
-0.0027377004
0.00018229501
-0.0013651389
-0.00070957336
0.0019500811
0.00049800144
-0.00099127712
-0.0025377877
-0.0040642305
-0.0051159199
-0.00050490942
0.0014714902
-0.0025238384
4.7901709e-05
0.0056370778
0.0025421434
0.00052531897
-0.0012871907
-0.0028099914
-0.0035066929
-0.0009378171
0.0005551127
-0.00042995218
0.002957985
0.0053662071
0.0024578948
0.00040474403
-0.0015194137
-0.0033336012
-0.0046847625
-0.0015911059
0.00065974134
-0.00058378294
0.0026504429
0.0052318759
0.0023261399
0.00022352251
-0.0017925397
-0.003788667
-0.0055752699
-0.0029894347
0.00012856611
-0.00061053265
0.0025527831
0.0051008201
0.0021607135
1.4622379e-05
-0.002061655
-0.0041334597
-0.0060070824
-0.0034389699
-1.1696897e-05
-0.00063994866
0.0024344393
0.0049346946
0.0019660016
-0.00020198607
-0.0023033655
-0.0044013191
-0.0062847287
-0.0036674449
-7.2216786e-05
-0.00069091594
0.0022509866
0.0047106985
0.001735205
-0.00042269813
-0.0025105713
-0.0045930159
-0.0064507433
-0.0037841764
-0.00010029521
-0.00079476399
0.0019290903
0.0043924533
0.0014551758
-0.00065090237
-0.0026857972
-0.0047174157
-0.0065235212
-0.0038105018
-0.00010230679
-0.0010399891
0.001272311
0.0039108399
0.0011225529
-0.00088225428
-0.0028266679
-0.0047740019
-0.0064923371
-0.0037075191
-5.9185328e-05
-0.0015801437
-0.0001394867
0.0030701333
0.00074571702
-0.0010945633
-0.0029245897
-0.0047590094
-0.006307757
-0.0032257877
0.00016444924
-0.001475515
-0.00077930658
0.002062976
0.00044454268
-0.0012274607
-0.0029697247
-0.0046973446
-0.005907623
-0.00065692101
0.0016533925
-0.0026446499
0.00017070905
0.006065388
0.0026804065
0.00045199821
-0.0015567082
-0.0032539167
-0.0040506141
-0.0012153755
0.00055821725
-0.0004191287
0.0032592788
0.0057705619
0.0025864447
0.00031934931
-0.0018107889
-0.0038270257
-0.0053474598
-0.0019434947
0.00066881533
-0.00058560342
0.0029236361
0.0056202834
0.0024401399
0.00011995124
-0.0021100401
-0.0043243777
-0.0063205083
-0.0034649247
9.2866411e-05
-0.00061567944
0.0028141741
0.0054744808
0.0022575043
-0.00010958286
-0.0024049956
-0.0047017267
-0.0067931384
-0.0039565797
-6.0314729e-05
-0.00064824461
0.0026833695
0.005291343
0.002043413
-0.00034725349
-0.0026697987
-0.0049948064
-0.0070967061
-0.0042062518
-0.00012640895
-0.00070411204
0.0024821272
0.0050455486
0.0017902995
-0.00058913716
-0.0028967202
-0.0052045778
-0.0072782343
-0.0043337886
-0.00015706349
-0.00081763172
0.0021300376
0.0046971362
0.0014836545
-0.00083897807
-0.003088523
-0.0053406948
-0.0073578201
-0.0043625448
-0.000159252
-0.0010861847
0.0014116662
0.0041708476
0.0011198708
-0.0010919883
-0.0032426086
-0.0054025963
-0.0073237482
-0.0042500364
-0.00011215373
-0.0016821956
-0.00013985668
0.0032514577
0.00070745667
-0.001324074
-0.0033496371
-0.0053862087
-0.0071218422
-0.00372139
0.00013358054
-0.0015715975
-0.00083788292
0.0021577626
0.00037854363
-0.0014691971
-0.0033989016
-0.0053188441
-0.0066825934
-0.00083876845
0.001809594
-0.0027399445
0.00030420128
0.0064508631
0.0027940322
0.00036532328
-0.0018289873
-0.0036913871
-0.0045845724
-0.0015058776
0.00054955413
-0.00039968886
0.003547177
0.0061335235
0.0026908055
0.00022143351
-0.0021031848
-0.0043099844
-0.0059912395
-0.0023063241
0.00066370468
-0.00057796066
0.0031850367
0.0059679273
0.0025307328
5.1162289e-06
-0.0024265346
-0.004846137
-0.0070398946
-0.0039401789
4.6964273e-05
-0.00061124859
0.0030642412
0.0058081254
0.0023319606
-0.0002435918
-0.0027453682
-0.0052534655
-0.0075500503
-0.0044705104
-0.0001180656
-0.00064677843
0.0029217373
0.0056090824
0.0020998277
-0.00050080102
-0.0030315348
-0.0055698276
-0.0078775117
-0.0047397
-0.00018928832
-0.00070717511
0.0027040342
0.0053431001
0.0018260434
-0.0007622992
-0.0032767345
-0.0057963743
-0.0080734598
-0.004877297
-0.00022234427
-0.00082957673
0.00232419
0.0049668989
0.0014948276
-0.0010321673
-0.0034839608
-0.0059435084
-0.0081596043
-0.004908578
-0.00022478157
-0.0011195733
0.0015492843
0.004399619
0.0011023527
-0.0013052081
-0.0036504153
-0.006010657
-0.0081234125
-0.0047879457
-0.00017424071
-0.0017673548
-0.00013113219
0.0034080881
0.00065721048
-0.0015555767
-0.0037660534
-0.0059934611
-0.0079064572
-0.0042174907
9.1306441e-05
-0.0016532043
-0.00088501697
0.0022354327
0.00030283159
-0.0017119947
-0.0038192933
-0.0059213058
-0.0074323252
-0.0010450638
0.0019407106
-0.0028102359
0.00044619136
0.0067921421
0.0028841214
0.00026822325
-0.0020995485
-0.0041166696
-0.005102145
-0.001804283
0.00053029313
-0.00037251331
0.0038191095
0.0064539491
0.0027721642
0.00011400245
-0.0023920054
-0.0047764864
-0.0066090182
-0.0026737991
0.00064576398
-0.00056162379
0.0034323355
0.0062738205
0.0025992207
-0.00011786455
-0.0027372888
-0.0053477449
-0.0077259411
-0.004408787
-7.5586039e-06
-0.00059797528
0.003300788
0.0061008886
0.0023855029
-0.00038416532
-0.0030779019
-0.0057823135
-0.0082701306
-0.0049741443
-0.00018330394
-0.0006362619
0.0031474348
0.0058871592
0.0021367827
-0.00065927336
-0.0033835836
-0.0061198946
-0.0086193308
-0.0052610685
-0.00025918219
-0.00070078915
0.0029147002
0.0056027208
0.0018440941
-0.00093871868
-0.0036455245
-0.0063618276
-0.0088285268
-0.0054079245
-0.00029445114
-0.00083123311
0.0025096946
0.0052012627
0.0014904878
-0.001226896
-0.0038669377
-0.0065192159
-0.0089209365
-0.0054417976
-0.00029720309
-0.001140667
0.0016836248
0.0045968937
0.0010719444
-0.0015182327
-0.0040448458
-0.0065915035
-0.0088833762
-0.005314446
-0.00024375754
-0.0018358153
-0.00011410155
0.0035401503
0.0005970982
-0.0017852922
-0.0041685435
-0.0065740654
-0.008653669
-0.0047074043
3.9254267e-05
-0.0017203444
-0.00092087915
0.0022965485
0.00021966282
-0.0019520129
-0.0042255748
-0.006498025
-0.008148983
-0.0012705256
0.002047495
-0.0028562598
0.00059419988
0.0070877793
0.0029514369
0.0001631418
-0.0023644981
-0.0045246682
-0.0055975033
-0.0021058267
0.00050160076
-0.0003385853
0.0040723796
0.0067305951
0.0028313639
-4.299153e-07
-0.0026732522
-0.0052212065
-0.0071943771
-0.0030404271
0.00061635966
-0.00053747328
0.0036630782
0.0065368649
0.0026465534
-0.00024637365
-0.0030381776
-0.0058236885
-0.0083718726
-0.0048647184
-6.9138004e-05
-0.00057670812
0.0035214652
0.006351785
0.002419191
-0.00052857325
-0.0033983446
-0.0062826071
-0.0089464211
-0.0054612641
-0.00025440811
-0.000617522
0.0033581947
0.0061246921
0.0021554468
-0.00081983028
-0.0037215792
-0.0066392236
-0.0093150839
-0.0057640415
-0.00033444319
-0.00068575593
0.0031119497
0.0058236416
0.0018457344
-0.001115449
-0.0039986255
-0.0068950617
-0.0095362744
-0.0059192961
-0.00037172216
-0.00082335807
0.0026845152
0.0053995997
0.0014720453
-0.0014201112
-0.0042329021
-0.0070618705
-0.0096346
-0.0059557908
-0.00037484555
-0.0011501148
0.0018129294
0.0047622411
0.0010301993
-0.0017279036
-0.0044212724
-0.0071391337
-0.0095963849
-0.0058231042
-0.00031902933
-0.0018879406
-8.9854172e-05
0.0036475557
0.00052883402
-0.0020099645
-0.0045524182
-0.007121981
-0.0093562114
-0.0051847621
-2.0942053e-05
-0.0017731817
-0.0009459623
0.002341404
0.00013087622
-0.0021859356
-0.0046130217
-0.0070429417
-0.0088253562
-0.0015099808
0.0021308249
-0.0028789382
0.00074557037
0.0073363726
0.002996535
5.2161341e-05
-0.0026204151
-0.0049108235
-0.0060653356
-0.0024059771
0.00046464754
-0.00029895679
0.0043042767
0.0069622449
0.0028690354
-0.00011971766
-0.0029434126
-0.0056393875
-0.0077414887
-0.0034009835
0.00057687349
-0.0005064673
0.0038747773
0.0067559802
0.002673461
-0.00037817123
-0.003325576
-0.0062690472
-0.0089715571
-0.0053022936
-0.00013622531
-0.00054837525
0.0037238844
0.0065598395
0.0024338562
-0.00067447258
-0.0037029559
-0.0067492908
-0.0095726287
-0.0059260268
-0.00032977969
-0.00059146699
0.0035517034
0.006320801
0.0021567517
-0.0009800272
-0.0040416756
-0.0071226483
-0.0099583666
-0.0062426868
-0.00041344968
-0.00066296125
0.0032935518
0.0060050846
0.0018320003
-0.0012899462
-0.0043320978
-0.0073908214
-0.010190219
-0.0064054213
-0.00045252126
-0.00080679871
0.0028465425
0.0055612578
0.0014406521
-0.001609169
-0.0045778285
-0.007566143
-0.010294049
-0.0064445235
-0.00045606193
-0.0011486705
0.0019353282
0.0048951813
0.00097839917
-0.0019314768
-0.0047755925
-0.0076481561
-0.010255842
-0.0063078493
-0.00039839978
-0.0019242341
-5.9679101e-05
0.0037301177
0.00045384256
-0.0022267589
-0.0049135109
-0.0076317662
-0.010007452
-0.0056435139
-8.7648446e-05
-0.0018120082
-0.00096098838
0.0023701379
3.8005992e-05
-0.0024108713
-0.0049774293
-0.007550584
-0.0094548322
-0.0017583706
0.0021916957
-0.00287935
0.00089755732
0.0075366552
0.0030198615
-6.2903959e-05
-0.0028642673
-0.0052710447
-0.0065008007
-0.0027004183
0.0004206083
-0.0002547219
0.0045121592
0.0071478007
0.0028856942
-0.00024199033
-0.0031993767
-0.0060267729
-0.0082450734
-0.0037505017
0.00052869977
-0.00046961544
0.0040649952
0.0069301956
0.0026805495
-0.0005113032
-0.0035962769
-0.0066794276
-0.0095194653
-0.0057161759
-0.00020729122
-0.00051395822
0.0039056996
0.0067241782
0.0024301965
-0.00081981714
-0.0039884276
-0.0071778549
-0.010143087
-0.006362959
-0.00040784783
-0.00055906035
0.0037256832
0.0064746979
0.0021414855
-0.0011377267
-0.0043404703
-0.00756556
-0.010543415
-0.0066914529
-0.00049461061
-0.00063334914
0.0034573003
0.0061463514
0.001803773
-0.001459983
-0.0046424522
-0.0078444157
-0.01078452
-0.0068606939
-0.00053524381
-0.00078246661
0.0029936735
0.005685647
0.0013972921
-0.0017917512
-0.0048981477
-0.0080272701
-0.010893381
-0.0069023426
-0.00053923557
-0.0011371679
0.0020489174
0.0049952693
0.0009176406
-0.0021265437
-0.0051041622
-0.0081137412
-0.010855785
-0.0067629792
-0.00048023857
-0.001945315
-2.4991005e-05
0.0037876335
0.00037334276
-0.0024331847
-0.0052481145
-0.0080985344
-0.010601375
-0.0060779385
-0.0001592394
-0.0018372236
-0.0009668403
0.0023828121
-5.7636325e-05
-0.0026242786
-0.005315052
-0.0080160266
-0.010031381
-0.0020107635
0.0022312114
-0.0028587056
0.0010473959
0.0076875631
0.0030218232
-0.00018043995
-0.0030933517
-0.0056016621
-0.006899501
-0.0029850484
0.00037065864
-0.00020699502
0.0046935181
0.0072863494
0.0028818097
-0.00036558517
-0.0034383778
-0.0063795614
-0.0087003743
-0.0040842762
0.00047323901
-0.00042795743
0.0042314059
0.0070587144
0.0026683702
-0.00064403426
-0.003847433
-0.0070509195
-0.010010646
-0.0061013763
-0.00028083246
-0.00047447082
0.0040646694
0.0068440922
0.002408845
-0.00096279169
-0.0042518266
-0.0075642924
-0.010652733
-0.006766962
-0.00048707632
-0.00052129975
0.0038779529
0.0065857497
0.0021103605
-0.001291034
-0.0046149485
-0.0079638674
-0.011065083
-0.0071051758
-0.00057637294
-0.00059790096
0.0036010751
0.0062468857
0.0017618452
-0.0016235862
-0.0049265978
-0.0082516792
-0.011313967
-0.0072799003
-0.00061832437
-0.00075131716
0.0031238715
0.0057723009
0.001342845
-0.0019658053
-0.0051906957
-0.0084410178
-0.011427323
-0.0073239867
-0.00062278855
-0.0011165004
0.0021518177
0.0050621547
0.00084889725
-0.002310973
-0.0054037482
-0.008531589
-0.011390873
-0.0071831738
-0.00056295043
-0.0019518993
1.2726446e-05
0.0038199418
0.00028840843
-0.0026270392
-0.0055529356
-0.0085179235
-0.011132568
-0.0064826607
-0.00023410803
-0.001849319
-0.0009645102
0.0023794688
-0.00015490229
-0.0028239112
-0.005622559
-0.0084348626
-0.010549547
-0.0022623741
0.002250574
-0.002818324
0.0011923586
0.0077882828
0.0030028381
-0.00029898331
-0.0033052515
-0.0058993973
-0.0072574681
-0.0032559851
0.00031596927
-0.00015689229
0.004846027
0.0073772093
0.0028578567
-0.00048899819
-0.0036579506
-0.0066943763
-0.0091031441
-0.004397873
0.00041188961
-0.00038254508
0.0043718437
0.0071409606
0.0026374703
-0.00077479976
-0.0040765153
-0.0073800654
-0.010440715
-0.0064532642
-0.00035538015
-0.00043094125
0.0041987048
0.0069190836
0.0023704194
-0.0011017646
-0.0044905544
-0.0079050701
-0.011097099
-0.0071333241
-0.0005659721
-0.00047919936
0.0040064759
0.0066535233
0.0020640613
-0.0014382511
-0.0048624442
-0.0083139686
-0.011518835
-0.0074790922
-0.00065723044
-0.00055761783
0.0037228884
0.0063063172
0.001706968
-0.0017789919
-0.005181804
-0.0086089466
-0.011773965
-0.0076582335
-0.00070024586
-0.00071433208
0.003235212
0.0058209194
0.0012781324
-0.0021295007
-0.0054526779
-0.0088036583
-0.011891219
-0.0077046012
-0.00070519099
-0.0010876038
0.0022422203
0.0050956233
0.00077306474
-0.0024828684
-0.0056714936
-0.0088979067
-0.011856383
-0.0075635116
-0.00064498507
-0.0019447828
5.1965359e-05
0.0038269648
0.00020001218
-0.0028063671
-0.0058250619
-0.008886076
-0.011596223
-0.0068526703
-0.00031067699
-0.0018488624
-0.00095505878
0.0023601722
-0.00025276325
-0.0030077777
-0.0058970027
-0.0088031848
-0.011004452
-0.0025085856
0.0022510714
-0.0027596128
0.0013298021
0.0078382856
0.0029633732
-0.00041718604
-0.0034978064
-0.0061613418
-0.0075711555
-0.0035095763
0.00025769924
-0.00010551566
0.0049675812
0.0074199641
0.0028143515
-0.00061084913
-0.003855901
-0.0069682453
-0.0094496381
-0.0046871448
0.00034603856
-0.00033442673
0.0044843421
0.0071766114
0.002588428
-0.00090217094
-0.0042812838
-0.0076638407
-0.010805845
-0.0067675819
-0.00042950902
-0.0003843967
0.004305907
0.0069488976
0.0023155573
-0.001235254
-0.0047023187
-0.0081971097
-0.0114723
-0.0074577348
-0.0006430945
-0.00043377456
0.0041093969
0.0066778172
0.0020032794
-0.0015778433
-0.0050806125
-0.0086127327
-0.011900739
-0.0078088537
-0.000735733
-0.00051350543
0.0038209221
0.0063244927
0.0016398849
-0.0019246133
-0.0054056734
-0.0089130351
-0.012160533
-0.0079913088
-0.00077954892
-0.00067250428
0.0033259196
0.0058313995
0.0012039507
-0.002281198
-0.0056816437
-0.0091119531
-0.012281034
-0.0080397554
-0.00078497089
-0.001051441
0.0023184233
0.0050956283
0.00069099293
-0.0026405386
-0.0059048938
-0.009209394
-0.012248205
-0.0078994883
-0.00072484738
-0.001924826
9.1230015e-05
0.0038087379
0.00010905713
-0.002969431
-0.0060619387
-0.0091996258
-0.011988136
-0.0071833435
-0.00038740952
-0.0018364867
-0.00093958237
0.0023250383
-0.00035027884
-0.0031741127
-0.0061357956
-0.0091175735
-0.011391794
-0.0027449743
0.0022340654
-0.0026840489
0.0014572067
0.0078373525
0.0029039707
-0.00053378999
-0.0036690915
-0.0063849436
-0.0078374361
-0.003742413
0.00019698854
-5.3938904e-05
0.0050563297
0.007414486
0.0027518783
-0.00072985597
-0.0040302854
-0.0071985861
-0.0097366112
-0.0049482468
0.00027705168
-0.00028463356
0.0045671638
0.0071656204
0.0025218792
-0.00102483
-0.0044597662
-0.0078996399
-0.011102767
-0.00704046
-0.00050184668
-0.0003358499
0.0043845975
0.0069335446
0.0022449412
-0.0013619029
-0.0048851124
-0.0084377735
-0.011775036
-0.0077362999
-0.00071706455
-0.00038602849
0.0041850723
0.0066586833
0.0019287384
-0.0017084151
-0.0052674095
-0.0088574865
-0.012207461
-0.0080905431
-0.00081049597
-0.00046656056
0.0038935576
0.0063014977
0.0015613561
-0.0020590169
-0.005596123
-0.0091612315
-0.0124703
-0.00827518
-0.00085484152
-0.00062682447
0.0033943976
0.0058038564
0.0011210951
-0.0024194257
-0.0058754676
-0.0093631417
-0.012593346
-0.0083254588
-0.00086072378
-0.0010089889
0.0023788613
0.0050623103
0.00060350949
-0.0027824749
-0.0061017783
-0.0094632325
-0.012562846
-0.0081870347
-0.00080110749
-0.0018929412
0.00012906709
0.0037654315
1.6400341e-05
-0.0031146896
-0.0062613523
-0.0094556882
-0.012304705
-0.0074704625
-0.00046282051
-0.001812878
-0.00091918572
0.0022742571
-0.00044657361
-0.0033213551
-0.006336694
-0.0093750872
-0.01170785
-0.0029673347
0.0022009778
-0.0025931607
0.0015722101
0.0077855901
0.0028252672
-0.00064760782
-0.0038174006
-0.0065679968
-0.0080536007
-0.0039513426
0.00013495066
-3.1952273e-06
0.0051106999
0.0073609524
0.0026711081
-0.00084481619
-0.0041793941
-0.0073831962
-0.009961316
-0.0051776531
0.00020626405
-0.00023416747
0.0046188254
0.0071082325
0.0024385355
-0.0011415512
-0.0046102424
-0.0080852653
-0.011328761
-0.0072684319
-0.00057108274
-0.00028628706
0.0044333422
0.0068733153
0.0021593172
-0.001480461
-0.0050371979
-0.0086248537
-0.012002587
-0.0079655566
-0.00078657395
-0.00033694016
0.0042320938
0.0065964416
0.0018412113
-0.0018286922
-0.0054210765
-0.009046004
-0.012436268
-0.0083206887
-0.0008802092
-0.00041775931
0.0039393989
0.0062376705
0.0014721762
-0.0021809053
-0.0057513685
-0.0093512827
-0.012700505
-0.008506354
-0.00092480796
-0.00057826916
0.0034392519
0.0057386378
0.0010303773
-0.0025428629
-0.0060323349
-0.0095549321
-0.012825349
-0.0085581769
-0.00093112199
-0.00096122555
0.0024221304
0.004996013
0.00051143747
-0.0029073343
-0.0062602966
-0.0096570768
-0.012797426
-0.0084225334
-0.00087241038
-0.0018500793
0.00016409122
0.0036973666
-7.7129627e-05
-0.0032407807
-0.0064214156
-0.0096518526
-0.012542937
-0.0077102354
-0.00053548704
-0.0017787659
-0.00089495888
0.0022081096
-0.00054081933
-0.0034481317
-0.0064977848
-0.0095732562
-0.011949484
-0.003171704
0.0021532772
-0.0024885117
0.001672636
0.0076834415
0.0027280086
-0.00075750815
-0.003941234
-0.006708633
-0.008217357
-0.0041334812
7.2665356e-05
4.5733636e-05
0.0051294182
0.0072598553
0.0025728135
-0.00095459177
-0.0043017382
-0.0075202433
-0.0101215
-0.0053721718
0.00013497066
-0.00018399025
0.0046381175
0.0070049944
0.0023391986
-0.0012511864
-0.0047312305
-0.0082189174
-0.011481661
-0.0074484465
-0.00063597737
-0.00023665715
0.004450971
0.0067687905
0.0020595089
-0.0015897699
-0.0051570938
-0.0087565626
-0.012152809
-0.008142485
-0.00085039347
-0.00028745367
0.0042493075
0.0064916898
0.0017415351
-0.0019375072
-0.0055401267
-0.0091764966
-0.012585018
-0.0084962761
-0.00094364536
-0.00036804623
0.0039572928
0.0061336124
0.0013731881
-0.0022891022
-0.0058699118
-0.0094813853
-0.012848991
-0.0086818031
-0.00098821727
-0.00052778982
0.0034593109
0.0056363343
0.00093263899
-0.0026503252
-0.0061507286
-0.0096854911
-0.012974847
-0.0087348436
-0.00099492313
-0.00090911975
0.0024470084
0.0048972931
0.00041560891
-0.0030139249
-0.0063789062
-0.0097890464
-0.012949674
-0.0086028322
-0.00093748476
-0.0017972188
0.00019500717
0.0036050261
-0.00017071871
-0.0033465074
-0.0065405571
-0.0097861743
-0.012700439
-0.0078993117
-0.00060405819
-0.0017349135
-0.00086795692
0.0021269799
-0.00063222069
-0.0035532431
-0.0066174738