/*--------------------------------*- C++ -*----------------------------------*\
| =========                 |                                                 |
| \\      /  F ield         | OpenFOAM: The Open Source CFD Toolbox           |
|  \\    /   O peration     | Version:  v2106                                 |
|   \\  /    A nd           | Website:  www.openfoam.com                      |
|    \\/     M anipulation  |                                                 |
\*---------------------------------------------------------------------------*/
FoamFile
{
    version     2.0;
    format      ascii;
    arch        "LSB;label=32;scalar=64";
    class       volScalarField;
    location    "55";
    object      laplacianT;
}
// * * * * * * * * * * * * * * * * * * * * * * * * * * * * * * * * * * * * * //

dimensions      [0 -2 0 1 0 0 0];

internalField   nonuniform List<scalar> 
4000
(
96266.021
96265.456
96265.101
96265.041
96265.022
96265.052
96265.132
96265.269
96265.469
96265.702
96265.456
96264.878
96264.633
96264.579
96264.562
96264.592
96264.669
96264.801
96265.013
96265.329
96265.101
96264.633
96264.398
96264.353
96264.339
96264.368
96264.439
96264.56
96264.753
96265.069
96265.041
96264.579
96264.353
96264.312
96264.3
96264.327
96264.394
96264.508
96264.69
96264.993
96265.022
96264.562
96264.339
96264.3
96264.288
96264.313
96264.378
96264.488
96264.666
96264.965
96265.052
96264.592
96264.368
96264.327
96264.313
96264.337
96264.4
96264.509
96264.686
96264.985
96265.132
96264.669
96264.439
96264.394
96264.378
96264.4
96264.463
96264.574
96264.753
96265.054
96265.269
96264.801
96264.56
96264.508
96264.488
96264.509
96264.574
96264.688
96264.874
96265.181
96265.469
96265.013
96264.753
96264.69
96264.666
96264.686
96264.753
96264.874
96265.071
96265.391
96265.702
96265.329
96265.069
96264.993
96264.965
96264.985
96265.054
96265.181
96265.391
96265.733
-5253.712
-5249.1815
-5250.6538
-5250.5892
-5250.5827
-5250.586
-5250.595
-5250.6096
-5250.6268
-5250.675
-5249.1815
-5246.9663
-5247.99
-5247.9332
-5247.9278
-5247.9307
-5247.9367
-5247.937
-5247.891
-5248.7432
-5250.6538
-5247.99
-5249.0302
-5248.9764
-5248.9715
-5248.9745
-5248.9804
-5248.9758
-5248.8609
-5249.3597
-5250.5892
-5247.9332
-5248.9764
-5248.9235
-5248.9188
-5248.9215
-5248.9274
-5248.9253
-5248.8211
-5249.3382
-5250.5827
-5247.9278
-5248.9715
-5248.9188
-5248.914
-5248.9165
-5248.9219
-5248.9191
-5248.8145
-5249.3327
-5250.586
-5247.9307
-5248.9745
-5248.9215
-5248.9165
-5248.9189
-5248.9241
-5248.9211
-5248.8163
-5249.3345
-5250.595
-5247.9367
-5248.9804
-5248.9274
-5248.9219
-5248.9241
-5248.9293
-5248.9265
-5248.822
-5249.3404
-5250.6096
-5247.937
-5248.9758
-5248.9253
-5248.9191
-5248.9211
-5248.9265
-5248.9242
-5248.8204
-5249.3393
-5250.6268
-5247.891
-5248.8609
-5248.8211
-5248.8145
-5248.8163
-5248.822
-5248.8204
-5248.7175
-5249.2376
-5250.675
-5248.7432
-5249.3597
-5249.3382
-5249.3327
-5249.3345
-5249.3404
-5249.3393
-5249.2376
-5249.7844
-4724.4881
-4718.4283
-4720.5598
-4720.4742
-4720.466
-4720.4686
-4720.4744
-4720.4761
-4720.4402
-4721.4173
-4718.4283
-4715.5218
-4717.0224
-4716.9464
-4716.9396
-4716.9415
-4716.9418
-4716.905
-4716.6128
-4718.8722
-4720.5598
-4717.0224
-4718.5419
-4718.4696
-4718.4634
-4718.4656
-4718.4673
-4718.4302
-4718.032
-4719.728
-4720.4742
-4716.9464
-4718.4696
-4718.398
-4718.3919
-4718.3939
-4718.3958
-4718.3635
-4717.9832
-4719.7054
-4720.466
-4716.9396
-4718.4634
-4718.3919
-4718.3856
-4718.3874
-4718.3887
-4718.3557
-4717.9753
-4719.6996
-4720.4686
-4716.9415
-4718.4656
-4718.3939
-4718.3874
-4718.3889
-4718.39
-4718.3568
-4717.9763
-4719.7006
-4720.4744
-4716.9418
-4718.4673
-4718.3958
-4718.3887
-4718.39
-4718.3911
-4718.3581
-4717.9777
-4719.702
-4720.4761
-4716.905
-4718.4302
-4718.3635
-4718.3557
-4718.3568
-4718.3581
-4718.3254
-4717.9451
-4719.6684
-4720.4402
-4716.6128
-4718.032
-4717.9832
-4717.9753
-4717.9763
-4717.9777
-4717.9451
-4717.5633
-4719.2817
-4721.4173
-4718.8722
-4719.728
-4719.7054
-4719.6996
-4719.7006
-4719.702
-4719.6684
-4719.2817
-4721.4942
-4286.6468
-4279.1828
-4281.9154
-4281.8093
-4281.7995
-4281.8015
-4281.8033
-4281.7827
-4281.6028
-4283.233
-4279.1828
-4275.639
-4277.5722
-4277.4775
-4277.4694
-4277.4706
-4277.4658
-4277.3905
-4276.7777
-4280.1765
-4281.9154
-4277.5722
-4279.5271
-4279.4368
-4279.4293
-4279.431
-4279.4289
-4279.3575
-4278.6009
-4281.2458
-4281.8093
-4277.4775
-4279.4368
-4279.3473
-4279.3398
-4279.3412
-4279.3394
-4279.2753
-4278.5434
-4281.2218
-4281.7995
-4277.4694
-4279.4293
-4279.3398
-4279.3323
-4279.3333
-4279.3307
-4279.2658
-4278.5343
-4281.2158
-4281.8015
-4277.4706
-4279.431
-4279.3412
-4279.3333
-4279.3341
-4279.3313
-4279.2662
-4278.5344
-4281.2159
-4281.8033
-4277.4658
-4279.4289
-4279.3394
-4279.3307
-4279.3313
-4279.3285
-4279.2635
-4278.5317
-4281.2126
-4281.7827
-4277.3905
-4279.3575
-4279.2753
-4279.2658
-4279.2662
-4279.2635
-4279.1985
-4278.4655
-4281.1404
-4281.6028
-4276.7777
-4278.6009
-4278.5434
-4278.5343
-4278.5344
-4278.5317
-4278.4655
-4277.7232
-4280.3555
-4283.233
-4280.1765
-4281.2458
-4281.2218
-4281.2158
-4281.2159
-4281.2126
-4281.1404
-4280.3555
-4284.1524
-3918.5491
-3909.8705
-3913.1597
-3913.0327
-3913.0212
-3913.0224
-3913.0209
-3912.9805
-3912.6579
-3914.8313
-3909.8705
-3905.8195
-3908.1486
-3908.0349
-3908.0255
-3908.0259
-3908.0164
-3907.9059
-3906.9785
-3911.3374
-3913.1597
-3908.1486
-3910.5026
-3910.3941
-3910.3853
-3910.3863
-3910.3809
-3910.2789
-3909.172
-3912.6021
-3913.0327
-3908.0349
-3910.3941
-3910.2863
-3910.2775
-3910.2782
-3910.2731
-3910.1808
-3909.1053
-3912.5763
-3913.0212
-3908.0255
-3910.3853
-3910.2775
-3910.2684
-3910.2687
-3910.2628
-3910.1697
-3909.0948
-3912.5697
-3913.0224
-3908.0259
-3910.3863
-3910.2782
-3910.2687
-3910.2687
-3910.2626
-3910.1692
-3909.094
-3912.569
-3913.0209
-3908.0164
-3910.3809
-3910.2731
-3910.2628
-3910.2626
-3910.2564
-3910.163
-3909.0875
-3912.5614
-3912.9805
-3907.9059
-3910.2789
-3910.1808
-3910.1697
-3910.1692
-3910.163
-3910.0694
-3908.9914
-3912.4534
-3912.6579
-3906.9785
-3909.172
-3909.1053
-3909.0948
-3909.094
-3909.0875
-3908.9914
-3907.8951
-3911.2625
-3914.8313
-3911.3374
-3912.6021
-3912.5763
-3912.5697
-3912.569
-3912.5614
-3912.4534
-3911.2625
-3916.4671
-3604.8082
-3595.1082
-3598.9071
-3598.7587
-3598.7452
-3598.7456
-3598.7408
-3598.6816
-3598.2211
-3600.8502
-3595.1082
-3590.6765
-3593.3637
-3593.2307
-3593.2197
-3593.2192
-3593.2053
-3593.0612
-3591.8316
-3596.9897
-3598.9071
-3593.3637
-3596.0793
-3595.9522
-3595.9419
-3595.9423
-3595.9337
-3595.8032
-3594.3617
-3598.4318
-3598.7587
-3593.2307
-3595.9522
-3595.826
-3595.8156
-3595.8156
-3595.8074
-3595.6891
-3594.2854
-3598.4036
-3598.7452
-3593.2197
-3595.9419
-3595.8156
-3595.8049
-3595.8044
-3595.7953
-3595.676
-3594.2732
-3598.3964
-3598.7456
-3593.2192
-3595.9423
-3595.8156
-3595.8044
-3595.8036
-3595.7942
-3595.6746
-3594.2714
-3598.3947
-3598.7408
-3593.2053
-3595.9337
-3595.8074
-3595.7953
-3595.7942
-3595.7848
-3595.6651
-3594.2615
-3598.3829
-3598.6816
-3593.0612
-3595.8032
-3595.6891
-3595.676
-3595.6746
-3595.6651
-3595.5449
-3594.1373
-3598.2412
-3598.2211
-3591.8316
-3594.3617
-3594.2854
-3594.2732
-3594.2714
-3594.2615
-3594.1373
-3592.7027
-3596.6557
-3600.8502
-3596.9897
-3598.4318
-3598.4036
-3598.3964
-3598.3947
-3598.3829
-3598.2412
-3596.6557
-3603.092
-3334.1074
-3323.5649
-3327.8251
-3327.6553
-3327.6397
-3327.6393
-3327.6313
-3327.5541
-3326.9614
-3329.9674
-3323.5649
-3318.8633
-3321.8707
-3321.7185
-3321.7057
-3321.7044
-3321.6863
-3321.5105
-3319.994
-3325.8057
-3327.8251
-3321.8707
-3324.9098
-3324.7644
-3324.7524
-3324.7521
-3324.7407
-3324.5837
-3322.8266
-3327.4066
-3327.6553
-3321.7185
-3324.7644
-3324.6199
-3324.6078
-3324.607
-3324.596
-3324.4535
-3322.7405
-3327.3759
-3327.6397
-3321.7057
-3324.7524
-3324.6078
-3324.5953
-3324.594
-3324.582
-3324.4385
-3322.7265
-3327.3678
-3327.6393
-3321.7044
-3324.7521
-3324.607
-3324.594
-3324.5924
-3324.58
-3324.4361
-3322.7237
-3327.3651
-3327.6313
-3321.6863
-3324.7407
-3324.596
-3324.582
-3324.58
-3324.5675
-3324.4235
-3322.7104
-3327.3495
-3327.5541
-3321.5105
-3324.5837
-3324.4535
-3324.4385
-3324.4361
-3324.4235
-3324.2786
-3322.5602
-3327.176
-3326.9614
-3319.994
-3322.8266
-3322.7405
-3322.7265
-3322.7237
-3322.7104
-3322.5602
-3320.806
-3325.2135
-3329.9674
-3325.8057
-3327.4066
-3327.3759
-3327.3678
-3327.3651
-3327.3495
-3327.176
-3325.2135
-3332.7149
-3097.9467
-3086.7266
-3091.3988
-3091.208
-3091.1902
-3091.189
-3091.178
-3091.0836
-3090.3658
-3093.6773
-3086.7266
-3081.8518
-3085.1413
-3084.9704
-3084.9557
-3084.9536
-3084.9315
-3084.7262
-3082.9405
-3089.2746
-3091.3988
-3085.1413
-3088.466
-3088.3027
-3088.2889
-3088.2879
-3088.2739
-3088.0927
-3086.0413
-3091.0158
-3091.208
-3084.9704
-3088.3027
-3088.1403
-3088.1264
-3088.1248
-3088.1114
-3087.9469
-3085.9454
-3090.9823
-3091.1902
-3084.9557
-3088.2889
-3088.1264
-3088.1121
-3088.11
-3088.0953
-3087.9297
-3085.9296
-3090.9733
-3091.189
-3084.9536
-3088.2879
-3088.1248
-3088.11
-3088.1076
-3088.0925
-3087.9264
-3085.9257
-3090.9696
-3091.178
-3084.9315
-3088.2739
-3088.1114
-3088.0953
-3088.0925
-3088.0772
-3087.911
-3085.9094
-3090.9504
-3091.0836
-3084.7262
-3088.0927
-3087.9469
-3087.9297
-3087.9264
-3087.911
-3087.7436
-3085.7353
-3090.7473
-3090.3658
-3082.9405
-3086.0413
-3085.9454
-3085.9296
-3085.9257
-3085.9094
-3085.7353
-3083.6827
-3088.4292
-3093.6773
-3089.2746
-3091.0158
-3090.9823
-3090.9733
-3090.9696
-3090.9504
-3090.7473
-3088.4292
-3096.84
-2889.8372
-2878.0912
-2883.1255
-2882.9146
-2882.8945
-2882.8925
-2882.8787
-2882.7683
-2881.9333
-2885.4858
-2878.0912
-2873.1268
-2876.6608
-2876.472
-2876.4554
-2876.4524
-2876.4269
-2876.1942
-2874.1588
-2880.8974
-2883.1255
-2876.6608
-2880.2335
-2880.053
-2880.0374
-2880.0358
-2880.0196
-2879.8164
-2877.4936
-2882.7603
-2882.9146
-2876.472
-2880.053
-2879.8736
-2879.8578
-2879.8555
-2879.8399
-2879.6555
-2877.3883
-2882.724
-2882.8945
-2876.4554
-2880.0374
-2879.8578
-2879.8417
-2879.8388
-2879.8218
-2879.6363
-2877.3706
-2882.714
-2882.8925
-2876.4524
-2880.0358
-2879.8555
-2879.8388
-2879.8356
-2879.8181
-2879.6321
-2877.3658
-2882.7093
-2882.8787
-2876.4269
-2880.0196
-2879.8399
-2879.8218
-2879.8181
-2879.8005
-2879.6141
-2877.3467
-2882.6869
-2882.7683
-2876.1942
-2879.8164
-2879.6555
-2879.6363
-2879.6321
-2879.6141
-2879.4264
-2877.1509
-2882.4566
-2881.9333
-2874.1588
-2877.4936
-2877.3883
-2877.3706
-2877.3658
-2877.3467
-2877.1509
-2874.8228
-2879.8067
-2885.4858
-2880.8974
-2882.7603
-2882.724
-2882.714
-2882.7093
-2882.6869
-2882.4566
-2879.8067
-2888.9821
-2704.7536
-2692.621
-2697.9676
-2697.7377
-2697.7154
-2697.7125
-2697.6962
-2697.571
-2696.6275
-2700.3628
-2692.621
-2687.639
-2691.3807
-2691.1749
-2691.1565
-2691.1527
-2691.1239
-2690.8664
-2688.6022
-2695.6392
-2697.9676
-2691.3807
-2695.1643
-2694.9676
-2694.9503
-2694.9481
-2694.9299
-2694.7072
-2692.1372
-2697.6057
-2697.7377
-2691.1749
-2694.9676
-2694.772
-2694.7546
-2694.7516
-2694.734
-2694.5321
-2692.023
-2697.5665
-2697.7154
-2691.1565
-2694.9503
-2694.7546
-2694.7367
-2694.7331
-2694.714
-2694.5107
-2692.0033
-2697.5555
-2697.7125
-2691.1527
-2694.9481
-2694.7516
-2694.7331
-2694.7291
-2694.7095
-2694.5057
-2691.9977
-2697.55
-2697.6962
-2691.1239
-2694.9299
-2694.734
-2694.714
-2694.7095
-2694.6897
-2694.4856
-2691.9762
-2697.5246
-2697.571
-2690.8664
-2694.7072
-2694.5321
-2694.5107
-2694.5057
-2694.4856
-2694.2797
-2691.761
-2697.2696
-2696.6275
-2688.6022
-2692.1372
-2692.023
-2692.0033
-2691.9977
-2691.9762
-2691.761
-2689.1817
-2694.314
-2700.3628
-2695.6392
-2697.6057
-2697.5665
-2697.5555
-2697.55
-2697.5246
-2697.2696
-2694.314
-2704.119
-2538.7547
-2526.3629
-2531.9725
-2531.7248
-2531.7005
-2531.6968
-2531.6782
-2531.5395
-2530.4968
-2534.3625
-2526.3629
-2521.4249
-2525.3382
-2525.1167
-2525.0966
-2525.0921
-2525.0605
-2524.7806
-2522.3095
-2529.5499
-2531.9725
-2525.3382
-2529.2966
-2529.0849
-2529.0659
-2529.0631
-2529.0433
-2528.8034
-2526.0116
-2531.6019
-2531.7248
-2525.1167
-2529.0849
-2528.8744
-2528.8552
-2528.8517
-2528.8324
-2528.6151
-2525.8888
-2531.56
-2531.7005
-2525.0966
-2529.0659
-2528.8552
-2528.8357
-2528.8314
-2528.8105
-2528.5918
-2525.8674
-2531.5481
-2531.6968
-2525.0921
-2529.0631
-2528.8517
-2528.8314
-2528.8268
-2528.8054
-2528.5861
-2525.861
-2531.5418
-2531.6782
-2525.0605
-2529.0433
-2528.8324
-2528.8105
-2528.8054
-2528.7838
-2528.5641
-2525.8374
-2531.5138
-2531.5395
-2524.7806
-2528.8034
-2528.6151
-2528.5918
-2528.5861
-2528.5641
-2528.3423
-2525.6051
-2531.2367
-2530.4968
-2522.3095
-2526.0116
-2525.8888
-2525.8674
-2525.861
-2525.8374
-2525.6051
-2522.7998
-2528.0029
-2534.3625
-2529.5499
-2531.6019
-2531.56
-2531.5481
-2531.5418
-2531.5138
-2531.2367
-2528.0029
-2538.3123
-2388.7145
-2376.1799
-2382.0038
-2381.74
-2381.7136
-2381.7093
-2381.6886
-2381.5378
-2380.4057
-2384.3547
-2376.1799
-2371.3381
-2375.3881
-2375.1523
-2375.1305
-2375.1253
-2375.0913
-2374.7917
-2372.1363
-2379.4954
-2382.0038
-2375.3881
-2379.4859
-2379.2606
-2379.24
-2379.2368
-2379.2156
-2378.961
-2375.9729
-2381.6153
-2381.74
-2375.1523
-2379.2606
-2379.0366
-2379.0158
-2379.0117
-2378.9911
-2378.7606
-2375.8425
-2381.5707
-2381.7136
-2375.1305
-2379.24
-2379.0158
-2378.9947
-2378.9899
-2378.9675
-2378.7356
-2375.8194
-2381.5579
-2381.7093
-2375.1253
-2379.2368
-2379.0117
-2378.9899
-2378.9846
-2378.9617
-2378.7292
-2375.8122
-2381.5509
-2381.6886
-2375.0913
-2379.2156
-2378.9911
-2378.9675
-2378.9617
-2378.9386
-2378.7055
-2375.7869
-2381.5207
-2381.5378
-2374.7917
-2378.961
-2378.7606
-2378.7356
-2378.7292
-2378.7055
-2378.4702
-2375.5399
-2381.2241
-2380.4057
-2372.1363
-2375.9729
-2375.8425
-2375.8194
-2375.8122
-2375.7869
-2375.5399
-2372.5345
-2377.741
-2384.3547
-2379.4954
-2381.6153
-2381.5707
-2381.5579
-2381.5509
-2381.5207
-2381.2241
-2377.741
-2388.4388
-2252.1288
-2239.5576
-2245.5481
-2245.2698
-2245.2417
-2245.2367
-2245.2142
-2245.0527
-2243.8413
-2247.8314
-2239.5576
-2234.8556
-2239.0084
-2238.76
-2238.7367
-2238.7309
-2238.6947
-2238.3782
-2235.5617
-2242.9638
-2245.5481
-2239.0084
-2243.2116
-2242.9742
-2242.9522
-2242.9485
-2242.9262
-2242.6592
-2239.5013
-2245.1344
-2245.2698
-2238.76
-2242.9742
-2242.7382
-2242.716
-2242.7114
-2242.6897
-2242.4482
-2239.3639
-2245.0875
-2245.2417
-2238.7367
-2242.9522
-2242.716
-2242.6935
-2242.6881
-2242.6645
-2242.4215
-2239.3393
-2245.0739
-2245.2367
-2238.7309
-2242.9485
-2242.7114
-2242.6881
-2242.6823
-2242.6582
-2242.4146
-2239.3315
-2245.0663
-2245.2142
-2238.6947
-2242.9262
-2242.6897
-2242.6645
-2242.6582
-2242.6338
-2242.3896
-2239.3047
-2245.0341
-2245.0527
-2238.3782
-2242.6592
-2242.4482
-2242.4215
-2242.4146
-2242.3896
-2242.1429
-2239.0453
-2244.7208
-2243.8413
-2235.5617
-2239.5013
-2239.3639
-2239.3393
-2239.3315
-2239.3047
-2239.0453
-2235.8661
-2241.018
-2247.8314
-2242.9638
-2245.1344
-2245.0875
-2245.0739
-2245.0663
-2245.0341
-2244.7208
-2241.018
-2251.9969
-2126.9743
-2114.4626
-2120.5733
-2120.2825
-2120.2528
-2120.2472
-2120.2231
-2120.0522
-2118.7719
-2122.7656
-2114.4626
-2109.9365
-2114.1595
-2113.9001
-2113.8755
-2113.8692
-2113.8313
-2113.5004
-2110.5463
-2117.9245
-2120.5733
-2114.1595
-2118.4353
-2118.1874
-2118.1642
-2118.1601
-2118.137
-2117.86
-2114.5583
-2120.1294
-2120.2825
-2113.9001
-2118.1874
-2117.9411
-2117.9176
-2117.9126
-2117.89
-2117.6397
-2114.4149
-2120.0804
-2120.2528
-2113.8755
-2118.1642
-2117.9176
-2117.8938
-2117.888
-2117.8634
-2117.6115
-2114.389
-2120.066
-2120.2472
-2113.8692
-2118.1601
-2117.9126
-2117.888
-2117.8817
-2117.8567
-2117.6041
-2114.3806
-2120.0578
-2120.2231
-2113.8313
-2118.137
-2117.89
-2117.8634
-2117.8567
-2117.8312
-2117.5781
-2114.3526
-2120.0241
-2120.0522
-2113.5004
-2117.86
-2117.6397
-2117.6115
-2117.6041
-2117.5781
-2117.3222
-2114.0831
-2119.6968
-2118.7719
-2110.5463
-2114.5583
-2114.4149
-2114.389
-2114.3806
-2114.3526
-2114.0831
-2110.7566
-2115.8045
-2122.7656
-2117.9245
-2120.1294
-2120.0804
-2120.066
-2120.0578
-2120.0241
-2119.6968
-2115.8045
-2126.9654
-2011.603
-1999.2377
-2005.4237
-2005.1223
-2005.0912
-2005.0851
-2005.0597
-2004.881
-2003.5421
-2007.5061
-1999.2377
-1994.9166
-1999.1787
-1998.9102
-1998.8844
-1998.8776
-1998.8383
-1998.4958
-1995.4277
-2002.723
-2005.4237
-1999.1787
-2003.4956
-2003.239
-2003.2147
-2003.2102
-2003.1865
-2002.9018
-1999.4826
-2004.9461
-2005.1223
-1998.9102
-2003.239
-2002.9841
-2002.9595
-2002.954
-2002.9308
-2002.6738
-1999.3342
-2004.8953
-2005.0912
-1998.8844
-2003.2147
-2002.9595
-2002.9345
-2002.9283
-2002.903
-2002.6444
-1999.3071
-2004.8802
-2005.0851
-1998.8776
-2003.2102
-2002.954
-2002.9283
-2002.9217
-2002.8959
-2002.6365
-1999.2982
-2004.8716
-2005.0597
-1998.8383
-2003.1865
-2002.9308
-2002.903
-2002.8959
-2002.8697
-2002.6097
-1999.2693
-2004.8367
-2004.881
-1998.4958
-2002.9018
-2002.6738
-2002.6444
-2002.6365
-2002.6097
-2002.3468
-1998.9919
-2004.498
-2003.5421
-1995.4277
-1999.4826
-1999.3342
-1999.3071
-1999.2982
-1999.2693
-1998.9919
-1995.5445
-2000.4468
-2007.5061
-2002.723
-2004.9461
-2004.8953
-2004.8802
-2004.8716
-2004.8367
-2004.498
-2000.4468
-2011.6987
-1904.6638
-1892.523
-1898.7408
-1898.4311
-1898.3988
-1898.3923
-1898.3657
-1898.1806
-1896.7937
-1900.6985
-1892.523
-1888.4297
-1892.7012
-1892.4255
-1892.3987
-1892.3916
-1892.3512
-1891.9998
-1888.841
-1896.0018
-1898.7408
-1892.7012
-1897.0292
-1896.7657
-1896.7405
-1896.7357
-1896.7116
-1896.4215
-1892.9108
-1898.2278
-1898.4311
-1892.4255
-1896.7657
-1896.5039
-1896.4784
-1896.4727
-1896.449
-1896.1873
-1892.7583
-1898.1755
-1898.3988
-1892.3987
-1896.7405
-1896.4784
-1896.4525
-1896.446
-1896.4203
-1896.1569
-1892.7302
-1898.1599
-1898.3923
-1892.3916
-1896.7357
-1896.4727
-1896.446
-1896.4391
-1896.4128
-1896.1487
-1892.7209
-1898.151
-1898.3657
-1892.3512
-1896.7116
-1896.449
-1896.4203
-1896.4128
-1896.3861
-1896.1213
-1892.6913
-1898.1151
-1898.1806
-1891.9998
-1896.4215
-1896.1873
-1896.1569
-1896.1487
-1896.1213
-1895.8534
-1892.4083
-1897.7677
-1896.7937
-1888.841
-1892.9108
-1892.7583
-1892.7302
-1892.7209
-1892.6913
-1892.4083
-1888.8662
-1893.5881
-1900.6985
-1896.0018
-1898.2278
-1898.1755
-1898.1599
-1898.151
-1898.1151
-1897.7677
-1893.5881
-1904.8475
-1805.042
-1793.1955
-1799.4037
-1799.0877
-1799.0545
-1799.0476
-1799.0202
-1798.8301
-1797.4057
-1801.2254
-1793.1955
-1789.3473
-1793.6002
-1793.3191
-1793.2916
-1793.2841
-1793.2431
-1792.8853
-1789.6591
-1796.6405
-1799.4037
-1793.6002
-1797.9106
-1797.6421
-1797.6161
-1797.6112
-1797.587
-1797.2935
-1793.7168
-1798.8548
-1799.0877
-1793.3191
-1797.6421
-1797.3754
-1797.3491
-1797.3431
-1797.3192
-1797.0548
-1793.5613
-1798.8014
-1799.0545
-1793.2916
-1797.6161
-1797.3491
-1797.3225
-1797.3157
-1797.2897
-1797.0236
-1793.5324
-1798.7854
-1799.0476
-1793.2841
-1797.6112
-1797.3431
-1797.3157
-1797.3086
-1797.282
-1797.0151
-1793.5228
-1798.7762
-1799.0202
-1793.2431
-1797.587
-1797.3192
-1797.2897
-1797.282
-1797.255
-1796.9874
-1793.4929
-1798.7396
-1798.8301
-1792.8853
-1797.2935
-1797.0548
-1797.0236
-1797.0151
-1796.9874
-1796.7166
-1793.2063
-1798.3861
-1797.4057
-1789.6591
-1793.7168
-1793.5613
-1793.5324
-1793.5228
-1793.4929
-1793.2063
-1789.5954
-1794.1087
-1801.2254
-1796.6405
-1798.8548
-1798.8014
-1798.7854
-1798.7762
-1798.7396
-1798.3861
-1794.1087
-1805.2991
-1711.8135
-1700.3233
-1706.4822
-1706.1622
-1706.1283
-1706.1211
-1706.093
-1705.8994
-1704.4478
-1708.1601
-1700.3233
-1696.7325
-1700.9401
-1700.6557
-1700.6276
-1700.6199
-1700.5785
-1700.217
-1696.9461
-1703.7095
-1706.4822
-1700.9401
-1705.2061
-1704.9345
-1704.9079
-1704.9028
-1704.8786
-1704.5839
-1700.9662
-1705.8984
-1706.1622
-1700.6557
-1704.9345
-1704.6645
-1704.6378
-1704.6315
-1704.6076
-1704.3424
-1700.8088
-1705.8441
-1706.1283
-1700.6276
-1704.9079
-1704.6378
-1704.6106
-1704.6036
-1704.5775
-1704.3105
-1700.7793
-1705.8278
-1706.1211
-1700.6199
-1704.9028
-1704.6315
-1704.6036
-1704.5963
-1704.5696
-1704.3019
-1700.7695
-1705.8184
-1706.093
-1700.5785
-1704.8786
-1704.6076
-1704.5775
-1704.5696
-1704.5426
-1704.2741
-1700.7394
-1705.7815
-1705.8994
-1700.217
-1704.5839
-1704.3424
-1704.3105
-1704.3019
-1704.2741
-1704.0023
-1700.4514
-1705.4245
-1704.4478
-1696.9461
-1700.9662
-1700.8088
-1700.7793
-1700.7695
-1700.7394
-1700.4514
-1696.7969
-1701.0791
-1708.1601
-1703.7095
-1705.8984
-1705.8441
-1705.8278
-1705.8184
-1705.7815
-1705.4245
-1701.0791
-1712.1312
-1624.2087
-1613.1293
-1619.2013
-1618.8795
-1618.8451
-1618.8376
-1618.8092
-1618.6134
-1617.1449
-1620.7304
-1613.1293
-1609.8036
-1613.941
-1613.6553
-1613.6267
-1613.6189
-1613.5774
-1613.2147
-1609.9214
-1616.434
-1619.2013
-1613.941
-1618.1373
-1617.8643
-1617.8374
-1617.8321
-1617.8082
-1617.5143
-1613.8799
-1618.5844
-1618.8795
-1613.6553
-1617.8643
-1617.5931
-1617.566
-1617.5596
-1617.5359
-1617.2716
-1613.7217
-1618.5298
-1618.8451
-1613.6267
-1617.8374
-1617.566
-1617.5385
-1617.5314
-1617.5054
-1617.2394
-1613.6918
-1618.5132
-1618.8376
-1613.6189
-1617.8321
-1617.5596
-1617.5314
-1617.5239
-1617.4974
-1617.2306
-1613.6819
-1618.5037
-1618.8092
-1613.5774
-1617.8082
-1617.5359
-1617.5054
-1617.4974
-1617.4705
-1617.2029
-1613.6518
-1618.4667
-1618.6134
-1613.2147
-1617.5143
-1617.2716
-1617.2394
-1617.2306
-1617.2029
-1616.9319
-1613.3643
-1618.1087
-1617.1449
-1609.9214
-1613.8799
-1613.7217
-1613.6918
-1613.6819
-1613.6518
-1613.3643
-1609.6909
-1613.7249
-1620.7304
-1616.434
-1618.5844
-1618.5298
-1618.5132
-1618.5037
-1618.4667
-1618.1087
-1613.7249
-1624.5758
-1541.5842
-1530.963
-1536.9126
-1536.5912
-1536.5566
-1536.549
-1536.5204
-1536.3239
-1534.8483
-1538.2906
-1530.963
-1527.9061
-1531.9502
-1531.665
-1531.6363
-1531.6283
-1531.5871
-1531.2256
-1527.9317
-1534.1658
-1536.9126
-1531.9502
-1536.0529
-1535.7805
-1535.7534
-1535.7481
-1535.7245
-1535.4334
-1531.8059
-1536.2655
-1536.5912
-1531.665
-1535.7805
-1535.51
-1535.4827
-1535.4762
-1535.4527
-1535.1911
-1531.6479
-1536.2109
-1536.5566
-1531.6363
-1535.7534
-1535.4827
-1535.455
-1535.4478
-1535.4221
-1535.1588
-1531.6179
-1536.1943
-1536.549
-1531.6283
-1535.7481
-1535.4762
-1535.4478
-1535.4403
-1535.4141
-1535.1499
-1531.6079
-1536.1847
-1536.5204
-1531.5871
-1535.7245
-1535.4527
-1535.4221
-1535.4141
-1535.3875
-1535.1226
-1531.5781
-1536.148
-1536.3239
-1531.2256
-1535.4334
-1535.1911
-1535.1588
-1535.1499
-1535.1226
-1534.8542
-1531.293
-1535.7912
-1534.8483
-1527.9317
-1531.8059
-1531.6479
-1531.6179
-1531.6079
-1531.5781
-1531.293
-1527.6245
-1531.398
-1538.2906
-1534.1658
-1536.2655
-1536.2109
-1536.1943
-1536.1847
-1536.148
-1535.7912
-1531.398
-1541.9909
-1463.4004
-1453.2785
-1459.0722
-1458.7536
-1458.719
-1458.7113
-1458.6827
-1458.4867
-1457.0138
-1460.2993
-1453.2785
-1450.4905
-1454.4195
-1454.1368
-1454.1081
-1454.1002
-1454.0594
-1453.7015
-1450.4279
-1456.3611
-1459.0722
-1454.4195
-1458.4066
-1458.1367
-1458.1096
-1458.1043
-1458.0812
-1457.7946
-1454.1967
-1458.3987
-1458.7536
-1454.1368
-1458.1367
-1457.8686
-1457.8413
-1457.8348
-1457.8118
-1457.5545
-1454.0401
-1458.3444
-1458.719
-1454.1081
-1458.1096
-1457.8413
-1457.8137
-1457.8065
-1457.7813
-1457.5222
-1454.0101
-1458.3278
-1458.7113
-1454.1002
-1458.1043
-1457.8348
-1457.8065
-1457.799
-1457.7733
-1457.5134
-1454.0002
-1458.3183
-1458.6827
-1454.0594
-1458.0812
-1457.8118
-1457.7813
-1457.7733
-1457.7472
-1457.4866
-1453.9709
-1458.282
-1458.4867
-1453.7015
-1457.7946
-1457.5545
-1457.5222
-1457.5134
-1457.4866
-1457.2225
-1453.6899
-1457.9289
-1457.0138
-1450.4279
-1454.1967
-1454.0401
-1454.0101
-1454.0002
-1453.9709
-1453.6899
-1450.0494
-1453.5541
-1460.2993
-1456.3611
-1458.3987
-1458.3444
-1458.3278
-1458.3183
-1458.282
-1457.9289
-1453.5541
-1463.8384
-1389.204
-1379.6158
-1385.2227
-1384.9089
-1384.8746
-1384.8669
-1384.8386
-1384.6444
-1383.1835
-1386.3008
-1379.6158
-1377.0937
-1380.8877
-1380.6095
-1380.581
-1380.5731
-1380.5331
-1380.1811
-1376.948
-1382.5621
-1385.2227
-1380.8877
-1384.739
-1384.4733
-1384.4464
-1384.441
-1384.4187
-1384.1383
-1380.5917
-1384.527
-1384.9089
-1380.6095
-1384.4733
-1384.2094
-1384.1823
-1384.1758
-1384.1535
-1383.902
-1380.4376
-1384.4735
-1384.8746
-1380.581
-1384.4464
-1384.1823
-1384.1549
-1384.1478
-1384.1232
-1383.87
-1380.4078
-1384.4571
-1384.8669
-1380.5731
-1384.441
-1384.1758
-1384.1478
-1384.1403
-1384.1153
-1383.8613
-1380.398
-1384.4476
-1384.8386
-1380.5331
-1384.4187
-1384.1535
-1384.1232
-1384.1153
-1384.0899
-1383.8351
-1380.3693
-1384.4121
-1384.6444
-1380.1811
-1384.1383
-1383.902
-1383.87
-1383.8613
-1383.8351
-1383.5769
-1380.0943
-1384.0648
-1383.1835
-1376.948
-1380.5917
-1380.4376
-1380.4078
-1380.398
-1380.3693
-1380.0943
-1376.5038
-1379.7355
-1386.3008
-1382.5621
-1384.527
-1384.4735
-1384.4571
-1384.4476
-1384.4121
-1384.0648
-1379.7355
-1389.6661
-1318.6131
-1309.5873
-1314.9786
-1314.6718
-1314.6379
-1314.6302
-1314.6024
-1314.4113
-1312.9714
-1315.9116
-1309.5873
-1307.3253
-1310.9661
-1310.6941
-1310.6661
-1310.6582
-1310.6193
-1310.2752
-1307.1019
-1312.383
-1314.9786
-1310.9661
-1314.6626
-1314.403
-1314.3765
-1314.3712
-1314.3497
-1314.0772
-1310.6025
-1314.2656
-1314.6718
-1310.6941
-1314.403
-1314.1451
-1314.1184
-1314.112
-1314.0904
-1313.8462
-1310.4519
-1314.2133
-1314.6379
-1310.6661
-1314.3765
-1314.1184
-1314.0914
-1314.0844
-1314.0606
-1313.8147
-1310.4226
-1314.1971
-1314.6302
-1310.6582
-1314.3712
-1314.112
-1314.0844
-1314.077
-1314.0528
-1313.8061
-1310.4129
-1314.1879
-1314.6024
-1310.6193
-1314.3497
-1314.0904
-1314.0606
-1314.0528
-1314.0282
-1313.7808
-1310.3851
-1314.1532
-1314.4113
-1310.2752
-1314.0772
-1313.8462
-1313.8147
-1313.8061
-1313.7808
-1313.5299
-1310.1175
-1313.8139
-1312.9714
-1307.1019
-1310.6025
-1310.4519
-1310.4226
-1310.4129
-1310.3851
-1310.1175
-1306.5981
-1309.556
-1315.9116
-1312.383
-1314.2656
-1314.2133
-1314.1971
-1314.1879
-1314.1532
-1313.8139
-1309.556
-1319.0933
-1251.3056
-1242.8655
-1248.0146
-1247.7169
-1247.6838
-1247.6761
-1247.6489
-1247.4622
-1246.0519
-1248.8082
-1242.8655
-1240.8553
-1244.3262
-1244.0624
-1244.0349
-1244.0272
-1243.9896
-1243.6555
-1240.5602
-1245.4984
-1248.0146
-1244.3262
-1247.8511
-1247.5992
-1247.5732
-1247.568
-1247.5475
-1247.2843
-1243.9012
-1247.2898
-1247.7169
-1244.0624
-1247.5992
-1247.349
-1247.3229
-1247.3166
-1247.2959
-1247.0603
-1243.7552
-1247.239
-1247.6838
-1244.0349
-1247.5732
-1247.3229
-1247.2965
-1247.2895
-1247.2667
-1247.0295
-1243.7265
-1247.2232
-1247.6761
-1244.0272
-1247.568
-1247.3166
-1247.2895
-1247.2824
-1247.2591
-1247.0211
-1243.717
-1247.2142
-1247.6489
-1243.9896
-1247.5475
-1247.2959
-1247.2667
-1247.2591
-1247.2355
-1246.9968
-1243.6903
-1247.1807
-1247.4622
-1243.6555
-1247.2843
-1247.0603
-1247.0295
-1247.0211
-1246.9968
-1246.7546
-1243.4317
-1246.8513
-1246.0519
-1240.5602
-1243.9012
-1243.7552
-1243.7265
-1243.717
-1243.6903
-1243.4317
-1240.0032
-1242.6896
-1248.8082
-1245.4984
-1247.2898
-1247.239
-1247.2232
-1247.2142
-1247.1807
-1246.8513
-1242.6896
-1251.799
-1187.01
-1179.1734
-1184.0563
-1183.7696
-1183.7375
-1183.73
-1183.7036
-1183.5223
-1182.1498
-1184.7172
-1179.1734
-1177.4047
-1180.6908
-1180.4368
-1180.4101
-1180.4026
-1180.3665
-1180.0443
-1177.0445
-1181.6331
-1184.0563
-1180.6908
-1184.0287
-1183.7862
-1183.7609
-1183.7559
-1183.7364
-1183.484
-1180.2109
-1183.3254
-1183.7696
-1180.4368
-1183.7862
-1183.5454
-1183.52
-1183.5138
-1183.4941
-1183.2683
-1180.0704
-1183.2765
-1183.7375
-1180.4101
-1183.7609
-1183.52
-1183.4943
-1183.4876
-1183.4658
-1183.2385
-1180.0426
-1183.2612
-1183.73
-1180.4026
-1183.7559
-1183.5138
-1183.4876
-1183.4806
-1183.4584
-1183.2304
-1180.0334
-1183.2525
-1183.7036
-1180.3665
-1183.7364
-1183.4941
-1183.4658
-1183.4584
-1183.4359
-1183.2071
-1180.0078
-1183.2203
-1183.5223
-1180.0443
-1183.484
-1183.2683
-1183.2385
-1183.2304
-1183.2071
-1182.975
-1179.7596
-1182.9027
-1182.1498
-1177.0445
-1180.2109
-1180.0704
-1180.0426
-1180.0334
-1180.0078
-1179.7596
-1176.4409
-1178.8608
-1184.7172
-1181.6331
-1183.3254
-1183.2765
-1183.2612
-1183.2525
-1183.2203
-1182.9027
-1178.8608
-1187.5127
-1125.4972
-1118.277
-1122.872
-1122.5982
-1122.5672
-1122.5599
-1122.5346
-1122.3598
-1121.0327
-1123.4083
-1118.277
-1116.7376
-1119.8258
-1119.5832
-1119.5574
-1119.5502
-1119.5158
-1119.2073
-1116.3191
-1120.5549
-1122.872
-1119.8258
-1122.9629
-1122.7314
-1122.707
-1122.7021
-1122.6838
-1122.4434
-1119.2976
-1122.1409
-1122.5982
-1119.5832
-1122.7314
-1122.5014
-1122.4769
-1122.471
-1122.4524
-1122.2375
-1119.1635
-1122.0943
-1122.5672
-1119.5574
-1122.707
-1122.4769
-1122.4522
-1122.4457
-1122.4251
-1122.2088
-1119.1368
-1122.0796
-1122.5599
-1119.5502
-1122.7021
-1122.471
-1122.4457
-1122.439
-1122.418
-1122.201
-1119.128
-1122.0713
-1122.5346
-1119.5158
-1122.6838
-1122.4524
-1122.4251
-1122.418
-1122.3967
-1122.179
-1119.1037
-1122.0407
-1122.3598
-1119.2073
-1122.4434
-1122.2375
-1122.2088
-1122.201
-1122.179
-1121.9581
-1118.8672
-1121.7365
-1121.0327
-1116.3191
-1119.2976
-1119.1635
-1119.1368
-1119.128
-1119.1037
-1118.8672
-1115.6757
-1117.8365
-1123.4083
-1120.5549
-1122.1409
-1122.0943
-1122.0796
-1122.0713
-1122.0407
-1121.7365
-1117.8365
-1126.006
-1066.5737
-1059.9785
-1064.266
-1064.007
-1063.9774
-1063.9704
-1063.9461
-1063.7789
-1062.5046
-1064.6867
-1059.9785
-1058.6546
-1061.5332
-1061.3036
-1061.2789
-1061.2721
-1061.2396
-1060.9465
-1058.1851
-1062.0676
-1064.266
-1061.5332
-1064.4576
-1064.2384
-1064.2151
-1064.2104
-1064.1934
-1063.9662
-1060.9636
-1063.541
-1064.007
-1061.3036
-1064.2384
-1064.0208
-1063.9974
-1063.9917
-1063.9743
-1063.7715
-1060.837
-1063.4971
-1063.9774
-1061.2789
-1064.2151
-1063.9974
-1063.9737
-1063.9675
-1063.9483
-1063.744
-1060.8114
-1063.4831
-1063.9704
-1061.2721
-1064.2104
-1063.9917
-1063.9675
-1063.9612
-1063.9415
-1063.7366
-1060.803
-1063.4751
-1063.9461
-1061.2396
-1064.1934
-1063.9743
-1063.9483
-1063.9415
-1063.9215
-1063.716
-1060.7803
-1063.4463
-1063.7789
-1060.9465
-1063.9662
-1063.7715
-1063.744
-1063.7366
-1063.716
-1063.5073
-1060.5565
-1063.1572
-1062.5046