/*--------------------------------*- C++ -*----------------------------------*\
| =========                 |                                                 |
| \\      /  F ield         | OpenFOAM: The Open Source CFD Toolbox           |
|  \\    /   O peration     | Version:  v2106                                 |
|   \\  /    A nd           | Website:  www.openfoam.com                      |
|    \\/     M anipulation  |                                                 |
\*---------------------------------------------------------------------------*/
FoamFile
{
    version     2.0;
    format      ascii;
    arch        "LSB;label=32;scalar=64";
    class       volScalarField;
    location    "55";
    object      laplacianT;
}
// * * * * * * * * * * * * * * * * * * * * * * * * * * * * * * * * * * * * * //

dimensions      [0 -2 0 1 0 0 0];

internalField   nonuniform List<scalar> 
4000
(
41719.68
41719.904
41719.779
41719.834
41719.851
41719.855
41719.85
41719.839
41719.831
41719.837
41719.904
41719.872
41719.845
41719.893
41719.909
41719.912
41719.905
41719.892
41719.884
41719.894
41719.779
41719.845
41719.803
41719.849
41719.865
41719.866
41719.857
41719.839
41719.824
41719.846
41719.834
41719.893
41719.849
41719.895
41719.909
41719.909
41719.898
41719.877
41719.858
41719.871
41719.851
41719.909
41719.865
41719.909
41719.922
41719.921
41719.907
41719.885
41719.864
41719.876
41719.855
41719.912
41719.866
41719.909
41719.921
41719.918
41719.904
41719.88
41719.858
41719.87
41719.85
41719.905
41719.857
41719.898
41719.907
41719.904
41719.888
41719.864
41719.841
41719.853
41719.839
41719.892
41719.839
41719.877
41719.885
41719.88
41719.864
41719.839
41719.817
41719.829
41719.831
41719.884
41719.824
41719.858
41719.864
41719.858
41719.841
41719.817
41719.795
41719.81
41719.837
41719.894
41719.846
41719.871
41719.876
41719.87
41719.853
41719.829
41719.81
41719.829
-575.56717
-574.49054
-575.12906
-575.0683
-575.06652
-575.06661
-575.06607
-575.06411
-575.05694
-575.06075
-574.49054
-574.3497
-574.70732
-574.66076
-574.65968
-574.6594
-574.65676
-574.64469
-574.59686
-574.70324
-575.12906
-574.70732
-575.08953
-575.04523
-575.04435
-575.04443
-575.04321
-575.0338
-574.97031
-574.95451
-575.0683
-574.66076
-575.04523
-575.00115
-575.00021
-575.00014
-574.99894
-574.99154
-574.93683
-574.93854
-575.06652
-574.65968
-575.04435
-575.00021
-574.9992
-574.99903
-574.99753
-574.98944
-574.93389
-574.93621
-575.06661
-574.6594
-575.04443
-575.00014
-574.99903
-574.99882
-574.99728
-574.98912
-574.93336
-574.93552
-575.06607
-574.65676
-575.04321
-574.99894
-574.99753
-574.99728
-574.9957
-574.98749
-574.93164
-574.93362
-575.06411
-574.64469
-575.0338
-574.99154
-574.98944
-574.98912
-574.98749
-574.97918
-574.92305
-574.92441
-575.05694
-574.59686
-574.97031
-574.93683
-574.93389
-574.93336
-574.93164
-574.92305
-574.86595
-574.86551
-575.06075
-574.70324
-574.95451
-574.93854
-574.93621
-574.93552
-574.93362
-574.92441
-574.86551
-574.87717
-571.923
-570.55567
-571.423
-571.34141
-571.33804
-571.33775
-571.33552
-571.32593
-571.28805
-571.46018
-570.55567
-570.41527
-570.91273
-570.84892
-570.84664
-570.84611
-570.84127
-570.81219
-570.65759
-570.95309
-571.423
-570.91273
-571.43982
-571.37906
-571.37706
-571.37707
-571.37508
-571.35443
-571.18136
-571.29034
-571.34141
-570.84892
-571.37906
-571.31862
-571.31654
-571.31628
-571.31409
-571.29647
-571.13696
-571.27064
-571.33804
-570.84664
-571.37706
-571.31654
-571.3144
-571.314
-571.31137
-571.29277
-571.13225
-571.26739
-571.33775
-570.84611
-571.37707
-571.31628
-571.314
-571.31357
-571.31089
-571.29216
-571.13129
-571.26626
-571.33552
-570.84127
-571.37508
-571.31409
-571.31137
-571.31089
-571.30814
-571.2893
-571.12818
-571.26262
-571.32593
-570.81219
-571.35443
-571.29647
-571.29277
-571.29216
-571.2893
-571.27016
-571.10804
-571.23996
-571.28805
-570.65759
-571.18136
-571.13696
-571.13225
-571.13129
-571.12818
-571.10804
-570.94227
-571.06455
-571.46018
-570.95309
-571.29034
-571.27064
-571.26739
-571.26626
-571.26262
-571.23996
-571.06455
-571.35902
-568.3594
-566.68002
-567.76258
-567.66192
-567.65706
-567.6565
-567.65286
-567.63339
-567.53408
-567.80781
-566.68002
-566.49814
-567.12978
-567.05008
-567.04665
-567.046
-567.04002
-566.99678
-566.71477
-567.17166
-567.76258
-567.12978
-567.79572
-567.71978
-567.71669
-567.71665
-567.71439
-567.68418
-567.37776
-567.58648
-567.66192
-567.05008
-567.71978
-567.64427
-567.64109
-567.64068
-567.63806
-567.61201
-567.32361
-567.56316
-567.65706
-567.04665
-567.71669
-567.64109
-567.63784
-567.63727
-567.63406
-567.60678
-567.31728
-567.55903
-567.6565
-567.046
-567.71665
-567.64068
-567.63727
-567.63666
-567.63339
-567.60593
-567.31597
-567.55755
-567.65286
-567.04002
-567.71439
-567.63806
-567.63406
-567.63339
-567.63003
-567.60242
-567.31202
-567.55259
-567.63339
-566.99678
-567.68418
-567.61201
-567.60678
-567.60593
-567.60242
-567.57423
-567.28176
-567.51585
-567.53408
-566.71477
-567.37776
-567.32361
-567.31728
-567.31597
-567.31202
-567.28176
-566.97994
-567.1774
-567.80781
-567.17166
-567.58648
-567.56316
-567.55903
-567.55755
-567.55259
-567.51585
-567.1774
-567.79778
-564.69863
-562.72434
-564.01212
-563.8933
-563.88701
-563.88624
-563.88174
-563.85497
-563.69778
-564.06226
-562.72434
-562.50439
-563.26415
-563.16929
-563.16472
-563.16389
-563.15693
-563.10186
-562.69609
-563.30616
-564.01212
-563.26415
-564.06264
-563.97224
-563.96807
-563.96794
-563.96556
-563.92797
-563.49101
-563.79424
-563.8933
-563.16929
-563.97224
-563.88236
-563.8781
-563.87751
-563.8746
-563.84234
-563.42762
-563.76746
-563.88701
-563.16472
-563.96807
-563.8781
-563.87377
-563.87299
-563.86935
-563.83563
-563.41973
-563.76245
-563.88624
-563.16389
-563.96794
-563.87751
-563.87299
-563.87217
-563.86845
-563.83451
-563.41807
-563.76065
-563.88174
-563.15693
-563.96556
-563.8746
-563.86935
-563.86845
-563.86464
-563.83053
-563.41354
-563.75479
-563.85497
-563.10186
-563.92797
-563.84234
-563.83563
-563.83451
-563.83053
-563.7957
-563.37581
-563.7067
-563.69778
-562.69609
-563.49101
-563.42762
-563.41973
-563.41807
-563.41354
-563.37581
-562.94102
-563.19922
-564.06226
-563.30616
-563.79424
-563.76746
-563.76245
-563.76065
-563.75479
-563.7067
-563.19922
-564.14275
-560.89936
-558.65293
-560.13424
-559.99811
-559.99041
-559.98938
-559.98395
-559.95031
-559.73755
-560.1861
-558.65293
-558.4017
-559.28217
-559.17287
-559.16719
-559.16614
-559.15814
-559.09186
-558.5664
-559.31883
-560.13424
-559.28217
-560.20558
-560.10139
-560.09618
-560.09592
-560.09332
-560.04891
-559.48564
-559.87572
-559.99811
-559.17287
-560.10139
-559.99782
-559.99252
-559.9917
-559.98841
-559.95049
-559.41343
-559.84563
-559.99041
-559.16719
-560.09618
-559.99252
-559.98713
-559.9861
-559.98194
-559.94235
-559.40404
-559.83976
-559.98938
-559.16614
-560.09592
-559.9917
-559.9861
-559.98504
-559.98078
-559.94093
-559.40199
-559.8376
-559.98395
-559.15814
-560.09332
-559.98841
-559.98194
-559.98078
-559.97643
-559.93638
-559.39681
-559.83085
-559.95031
-559.09186
-560.04891
-559.95049
-559.94235
-559.94093
-559.93638
-559.8955
-559.35236
-559.77272
-559.73755
-558.5664
-559.48564
-559.41343
-559.40404
-559.40199
-559.39681
-559.35236
-558.78953
-559.0993
-560.1861
-559.31883
-559.87572
-559.84563
-559.83976
-559.8376
-559.83085
-559.77272
-559.0993
-560.35258
-556.92646
-554.43168
-556.0937
-555.94121
-555.93216
-555.93086
-555.9245
-555.88427
-555.61807
-556.14395
-554.43168
-554.1557
-555.14877
-555.0258
-555.01906
-555.01778
-555.00877
-554.93186
-554.29159
-555.17457
-556.0937
-555.14877
-556.1887
-556.07147
-556.06526
-556.06485
-556.06203
-556.01125
-555.32692
-555.79545
-555.94121
-555.0258
-556.07147
-555.95495
-555.94863
-555.94759
-555.94392
-555.90073
-555.24638
-555.76224
-555.93216
-555.01906
-556.06526
-555.94863
-555.94222
-555.94096
-555.93628
-555.89122
-555.23555
-555.75555
-555.93086
-555.01778
-556.06485
-555.94759
-555.94096
-555.93965
-555.93486
-555.88951
-555.23312
-555.75303
-555.9245
-555.00877
-556.06203
-555.94392
-555.93628
-555.93486
-555.92997
-555.88439
-555.22728
-555.74539
-555.88427
-554.93186
-556.01125
-555.90073
-555.89122
-555.88951
-555.88439
-555.83786
-555.17656
-555.67795
-555.61807
-554.29159
-555.32692
-555.24638
-555.23555
-555.23312
-555.22728
-555.17656
-554.49116
-554.84439
-556.14395
-555.17457
-555.79545
-555.76224
-555.75555
-555.75303
-555.74539
-555.67795
-554.84439
-556.39039
-552.74759
-550.0291
-551.85806
-551.69026
-551.67993
-551.67836
-551.67112
-551.62462
-551.30735
-551.90366
-550.0291
-549.73463
-550.8316
-550.69584
-550.68807
-550.68658
-550.67662
-550.58971
-549.84023
-550.84161
-551.85806
-550.8316
-551.97908
-551.84964
-551.84247
-551.84192
-551.8389
-551.78219
-550.98287
-551.52133
-551.69026
-550.69584
-551.84964
-551.72099
-551.7137
-551.71245
-551.70841
-551.66035
-550.89454
-551.48521
-551.67993
-550.68807
-551.84247
-551.7137
-551.70633
-551.70482
-551.69964
-551.64953
-550.88234
-551.47774
-551.67836
-550.68658
-551.84192
-551.71245
-551.70482
-551.70328
-551.69798
-551.64754
-550.87954
-551.47486
-551.67112
-550.67662
-551.8389
-551.70841
-551.69964
-551.69798
-551.69257
-551.64188
-550.87307
-551.46637
-551.62462
-550.58971
-551.78219
-551.66035
-551.64953
-551.64754
-551.64188
-551.59011
-550.81652
-551.39025
-551.30735
-549.84023
-550.98287
-550.89454
-550.88234
-550.87954
-550.87307
-550.81652
-550.01469
-550.40372
-551.90366
-550.84161
-551.52133
-551.48521
-551.47774
-551.47486
-551.46637
-551.39025
-550.40372
-552.22365
-548.33456
-545.41763
-547.39895
-547.21697
-547.20543
-547.20361
-547.19553
-547.14312
-546.77746
-547.43713
-545.41763
-545.11058
-546.30231
-546.15469
-546.14596
-546.14426
-546.13342
-546.03721
-545.18473
-546.29213
-547.39895
-546.30231
-547.54787
-547.40711
-547.39903
-547.39834
-547.39514
-547.33299
-546.4254
-547.02527
-547.21697
-546.15469
-547.40711
-547.26722
-547.25902
-547.25755
-547.25318
-547.20065
-546.32987
-546.98646
-547.20543
-546.14596
-547.39903
-547.25902
-547.25072
-547.24898
-547.24335
-547.18861
-546.31638
-546.97826
-547.20361
-546.14426
-547.39834
-547.25755
-547.24898
-547.24721
-547.24144
-547.18633
-546.31322
-546.97504
-547.19553
-546.13342
-547.39514
-547.25318
-547.24335
-547.24144
-547.23555
-547.18017
-546.30617
-546.96575
-547.14312
-546.03721
-547.33299
-547.20065
-547.18861
-547.18633
-547.18017
-547.1236
-546.24426
-546.88158
-546.77746
-545.18473
-546.4254
-546.32987
-546.31638
-546.31322
-546.30617
-546.24426
-545.33276
-545.75023
-547.43713
-546.29213
-547.02527
-546.98646
-546.97826
-546.97504
-546.96575
-546.88158
-545.75023
-547.82406
-543.6633
-540.57366
-542.69205
-542.49713
-542.48445
-542.48239
-542.47352
-542.41561
-542.00451
-542.72033
-540.57366
-540.2596
-541.53652
-541.37805
-541.36842
-541.36652
-541.35488
-541.25011
-540.30146
-541.50231
-542.69205
-541.53652
-542.87025
-542.71914
-542.71021
-542.70938
-542.70602
-542.63894
-541.63042
-542.28321
-542.49713
-541.37805
-542.71914
-542.56898
-542.55992
-542.55823
-542.55356
-542.49701
-541.52832
-542.24197
-542.48445
-541.36842
-542.71021
-542.55992
-542.55076
-542.54879
-542.54274
-542.48381
-541.51362
-542.23308
-542.48239
-541.36652
-542.70938
-542.55823
-542.54879
-542.5468
-542.5406
-542.48127
-541.51013
-542.22955
-542.47352
-541.35488
-542.70602
-542.55356
-542.54274
-542.5406
-542.53426
-542.47465
-541.50254
-542.21952
-542.41561
-541.25011
-542.63894
-542.49701
-542.48381
-542.48127
-542.47465
-542.41374
-541.43576
-542.12797
-542.00451
-540.30146
-541.63042
-541.52832
-541.51362
-541.51013
-541.50254
-541.43576
-540.42197
-540.8608
-542.72033
-541.50231
-542.28321
-542.24197
-542.23308
-542.22955
-542.21952
-542.12797
-540.8608
-543.16752
-538.71383
-535.47746
-537.71703
-537.51047
-537.49675
-537.49445
-537.48487
-537.42189
-536.96855
-537.73326
-535.47746
-535.16154
-536.51375
-536.34552
-536.33505
-536.33295
-536.3206
-536.20806
-535.17057
-536.45228
-537.71703
-536.51375
-537.9254
-537.76496
-537.75524
-537.75427
-537.75078
-537.67931
-536.57772
-537.27509
-537.51047
-536.34552
-537.76496
-537.60555
-537.59569
-537.59381
-537.58885
-537.52873
-536.46972
-537.23167
-537.49675
-536.33505
-537.75524
-537.59569
-537.58574
-537.58356
-537.57712
-537.51448
-536.45392
-537.22215
-537.49445
-536.33295
-537.75427
-537.59381
-537.58356
-537.58135
-537.57476
-537.51169
-536.45012
-537.21833
-537.48487
-536.3206
-537.75078
-537.58885
-537.57712
-537.57476
-537.56802
-537.50465
-536.44204
-537.20763
-537.42189
-536.20806
-537.67931
-537.52873
-537.51448
-537.51169
-537.50465
-537.43988
-536.37091
-537.10941
-536.96855
-535.17057
-536.57772
-536.46972
-536.45392
-536.45012
-536.44204
-536.37091
-535.26273
-535.71618
-537.73326
-536.45228
-537.27509
-537.23167
-537.22215
-537.21833
-537.20763
-537.10941
-535.71618
-538.23396
-533.4701
-530.11305
-532.45743
-532.24061
-532.22595
-532.22343
-532.21319
-532.1456
-531.65345
-532.45976
-530.11305
-529.79999
-531.21733
-531.04046
-531.02923
-531.02696
-531.01398
-530.8945
-529.77595
-531.12598
-532.45743
-531.21733
-532.69635
-532.52768
-532.51723
-532.51614
-532.51253
-532.43721
-531.25089
-531.98469
-532.24061
-531.04046
-532.52768
-532.36009
-532.3495
-532.34743
-532.34223
-532.279
-531.13772
-531.93937
-532.22595
-531.02923
-532.51723
-532.3495
-532.33882
-532.33644
-532.32966
-532.26379
-531.12091
-531.92929
-532.22343
-531.02696
-532.51614
-532.34743
-532.33644
-532.33404
-532.32709
-532.26076
-531.11681
-531.92519
-532.21319
-531.01398
-532.51253
-532.34223
-532.32966
-532.32709
-532.32001
-532.25335
-531.10831
-531.91389
-532.1456
-530.8945
-532.43721
-532.279
-532.26379
-532.26076
-532.25335
-532.18522
-531.03337
-531.80974
-531.65345
-529.77595
-531.25089
-531.13772
-531.12091
-531.11681
-531.10831
-531.03337
-529.8392
-530.30089
-532.45976
-531.12598
-531.98469
-531.93937
-531.92929
-531.92519
-531.91389
-531.80974
-530.30089
-533.00725
-527.91986
-524.46808
-526.90056
-526.67491
-526.6594
-526.65668
-526.64585
-526.57415
-526.04682
-526.88748
-524.46808
-524.16214
-525.63426
-525.44994
-525.43803
-525.43559
-525.42207
-525.29651
-524.10512
-525.51103
-526.90056
-525.63426
-527.16993
-526.99414
-526.98305
-526.98182
-526.97814
-526.89953
-525.63723
-526.39953
-526.67491
-525.44994
-526.99414
-526.81949
-526.80825
-526.806
-526.8006
-526.73473
-525.51961
-526.3526
-526.6594
-525.43803
-526.98305
-526.80825
-526.79692
-526.79435
-526.78728
-526.71865
-525.50191
-526.34202
-526.65668
-525.43559
-526.98182
-526.806
-526.79435
-526.79176
-526.78452
-526.71542
-525.49755
-526.33767
-526.64585
-525.42207
-526.97814
-526.8006
-526.78728
-526.78452
-526.77713
-526.70769
-525.48867
-526.32585
-526.57415
-525.29651
-526.89953
-526.73473
-526.71865
-526.71542
-526.70769
-526.63669
-525.41048
-526.21652
-526.04682
-524.10512
-525.63723
-525.51961
-525.50191
-525.49755
-525.48867
-525.41048
-524.13913
-524.60309
-526.88748
-525.51103
-526.39953
-526.3526
-526.34202
-526.33767
-526.32585
-526.21652
-524.60309
-527.47509
-522.05457
-518.53373
-521.03734
-520.80435
-520.7881
-520.78518
-520.77385
-520.69853
-520.13983
-521.00767
-518.53373
-518.23868
-519.75513
-519.56456
-519.55205
-519.54946
-519.5355
-519.40475
-518.14906
-519.59864
-521.03734
-519.75513
-521.33657
-521.15482
-521.14316
-521.14182
-521.13808
-521.05674
-519.72757
-520.51075
-520.80435
-519.56456
-521.15482
-520.97427
-520.96246
-520.96004
-520.95447
-520.88644
-519.60626
-520.46251
-520.7881
-519.55205
-521.14316
-520.96246
-520.95055
-520.94781
-520.94049
-520.86962
-519.58779
-520.45149
-520.78518
-519.54946
-521.14182
-520.96004
-520.94781
-520.94505
-520.93756
-520.86619
-519.58319
-520.44692
-520.77385
-519.5355
-521.13808
-520.95447
-520.94049
-520.93756
-520.92991
-520.85819
-519.57399
-520.43467
-520.69853
-519.40475
-521.05674
-520.88644
-520.86962
-520.86619
-520.85819
-520.78484
-519.49311
-520.32094
-520.13983
-518.14906
-519.72757
-519.60626
-519.58779
-519.58319
-519.57399
-519.49311
-518.15376
-518.61446
-521.00767
-519.59864
-520.51075
-520.46251
-520.45149
-520.44692
-520.43467
-520.32094
-518.61446
-521.62887
-515.86918
-512.30455
-514.86218
-514.62337
-514.60648
-514.6034
-514.59164
-514.51322
-513.92711
-514.81509
-512.30455
-512.02367
-513.57392
-513.37837
-513.36534
-513.36262
-513.34831
-513.21327
-511.9021
-513.38344
-514.86218
-513.57392
-515.19022
-515.00371
-514.99155
-514.9901
-514.98633
-514.90285
-513.51616
-514.31295
-514.62337
-513.37837
-515.00371
-514.81844
-514.80613
-514.80357
-514.79786
-514.72816
-513.39197
-514.2637
-514.60648
-513.36534
-514.99155
-514.80613
-514.79372
-514.79083
-514.78332
-514.71069
-513.37283
-514.25232
-514.6034
-513.36262
-514.9901
-514.80357
-514.79083
-514.78793
-514.78023
-514.70709
-513.36802
-514.24756
-514.59164
-513.34831
-514.98633
-514.79786
-514.78332
-514.78023
-514.77237
-514.69887
-513.35857
-514.23495
-514.51322
-513.21327
-514.90285
-514.72816
-514.71069
-514.70709
-514.69887
-514.6237
-513.27557
-514.11761
-513.92711
-511.9021
-513.51616
-513.39197
-513.37283
-513.36802
-513.35857
-513.27557
-511.87765
-512.33007
-514.81509
-513.38344
-514.31295
-514.2637
-514.25232
-514.24756
-514.23495
-514.11761
-512.33007
-515.4635
-509.36205
-505.7783
-508.37285
-508.12976
-508.11235
-508.10912
-508.097
-508.01603
-507.40657
-508.30782
-505.7783
-505.51439
-507.08795
-506.88868
-506.87522
-506.87239
-506.85782
-506.71941
-505.36181
-506.86334
-508.37285
-507.08795
-508.72818
-508.53813
-508.52555
-508.524
-508.52022
-508.43518
-507.00057
-507.80405
-508.12976
-506.88868
-508.53813
-508.34935
-508.33662
-508.33392
-508.32812
-508.25723
-506.87427
-507.75411
-508.11235
-506.87522
-508.52555
-508.33662
-508.3238
-508.32077
-508.31311
-508.23923
-506.85461
-507.74243
-508.10912
-506.87239
-508.524
-508.33392
-508.32077
-508.31773
-508.30988
-508.23548
-506.84962
-507.73751
-508.097
-506.85782
-508.52022
-508.32812
-508.31311
-508.30988
-508.30187
-508.2271
-506.83997
-507.72462
-508.01603
-506.71941
-508.43518
-508.25723
-508.23923
-508.23548
-508.2271
-508.15062
-506.75542
-507.60449
-507.40657
-505.36181
-507.00057
-506.87427
-506.85461
-506.84962
-506.83997
-506.75542
-505.30861
-505.7482
-508.30782
-506.86334
-507.80405
-507.75411
-507.74243
-507.73751
-507.72462
-507.60449
-505.7482
-508.97726
-502.53474
-498.95584
-501.57029
-501.32448
-501.30666
-501.3033
-501.2909
-501.20792
-500.57927
-501.48714
-498.95584
-498.71118
-500.29764
-500.09594
-500.08213
-500.07921
-500.06448
-499.92363
-498.52879
-500.03938
-501.57029
-500.29764
-501.95098
-501.75861
-501.7457
-501.74405
-501.74029
-501.65426
-500.18145
-500.98513
-501.32448
-500.09594
-501.75861
-501.56752
-501.55446
-501.55165
-501.54578
-501.47419
-500.05386
-500.93482
-501.30666
-500.08213
-501.7457
-501.55446
-501.54131
-501.53816
-501.5304
-501.45578
-500.03379
-500.92292
-501.3033
-500.07921
-501.74405
-501.55165
-501.53816
-501.53502
-501.52706
-501.45191
-500.02865
-500.91787
-501.2909
-500.06448
-501.74029
-501.54578
-501.5304
-501.52706
-501.51895
-501.44342
-500.01888
-500.9048
-501.20792
-499.92363
-501.65426
-501.47419
-501.45578
-501.45191
-501.44342
-501.36614
-499.93335
-500.78268
-500.57927
-498.52879
-500.18145
-500.05386
-500.03379
-500.02865
-500.01888
-499.93335
-498.44747
-498.87021
-501.48714
-500.03938
-500.98513
-500.93482
-500.92292
-500.91787
-500.9048
-500.78268
-498.87021
-502.17167
-495.39186
-491.84096
-494.45846
-494.21149
-494.19338
-494.18991
-494.17732
-494.09288
-493.44926
-494.35734
-491.84096
-491.61732
-493.20642
-493.00357
-492.98951
-492.98651
-492.97171
-492.82935
-491.40658
-492.91555
-494.45846
-493.20642
-494.86217
-494.66871
-494.65555
-494.65382
-494.65011
-494.56365
-493.06246
-493.8603
-494.21149
-493.00357
-494.66871
-494.47655
-494.46324
-494.46033
-494.45444
-494.38261
-492.93439
-493.80992
-494.19338
-492.98951
-494.65555
-494.46324
-494.44984
-494.4466
-494.43879
-494.36391
-492.91404
-493.79789
-494.18991
-492.98651
-494.65382
-494.46033
-494.4466
-494.44336
-494.43536
-494.35993
-492.90879
-493.79274
-494.17732
-492.97171
-494.65011
-494.45444
-494.43879
-494.43536
-494.42719
-494.35139
-492.89895
-493.77956
-494.09288
-492.82935
-494.56365
-494.38261
-494.36391
-494.35993
-494.35139
-494.27382
-492.813
-493.65626
-493.44926
-491.40658
-493.06246
-492.93439
-492.91404
-492.90879
-492.89895
-492.813
-491.29797
-491.70036
-494.35734
-492.91555
-493.8603
-493.80992
-493.79789
-493.79274
-493.77956
-493.65626
-491.70036
-495.05128
-487.94089
-484.44017
-487.04417
-486.79762
-486.77933
-486.77578
-486.76308
-486.67773
-486.02339
-486.92554
-484.44017
-484.23885
-485.82052
-485.61782
-485.60359
-485.60053
-485.58577
-485.44281
-484.00143
-485.49865
-487.04417
-485.82052
-487.46821
-487.27488
-487.26155
-487.25976
-487.25611
-487.16979
-485.65006
-486.43646
-486.79762
-485.61782
-487.27488
-487.08286
-487.06939
-487.0664
-487.06053
-486.98892
-485.52232
-486.38635
-486.77933
-485.60359
-487.26155
-487.06939
-487.05583
-487.05251
-487.0447
-486.97005
-485.50182
-486.37425
-486.77578
-485.60053
-487.25976
-487.0664
-487.05251
-487.04921
-487.0412
-486.966
-485.49649
-486.36903
-486.76308
-485.58577
-487.25611
-487.06053
-487.0447
-487.0412
-487.03303
-486.95746
-485.48664
-486.35583
-486.67773
-485.44281
-487.16979
-486.98892
-486.97005
-486.966
-486.95746
-486.88011
-485.40084
-486.23216
-486.02339
-484.00143
-485.65006
-485.52232
-485.50182
-485.49649
-485.48664
-485.40084
-483.86658
-484.24566
-486.92554
-485.49865
-486.43646
-486.38635
-486.37425
-486.36903
-486.35583
-486.23216
-484.24566
-487.62353
-480.19201
-476.7626
-479.33694
-479.09235
-479.07399
-479.07039
-479.05766
-478.97195
-478.31115
-479.20155
-476.7626
-476.58441
-478.14886
-477.94756
-477.93326
-477.93016
-477.91552
-477.77289
-476.32221
-477.79813
-479.33694
-478.14886
-479.77827
-479.58629
-479.57288
-479.57102
-479.56747
-479.48183
-477.95336
-478.72321
-479.09235
-477.94756
-479.58629
-479.39561
-479.38206
-479.37901
-479.37319
-479.30227
-477.82674
-478.67367
-479.07399
-477.93326
-479.57288
-479.38206
-479.36843
-479.36506
-479.35729
-479.28334
-477.80622
-478.66158
-479.07039
-477.93016
-479.57102
-479.37901
-479.36506
-479.3617
-479.35374
-479.27925
-477.80084
-478.65633
-479.05766
-477.91552
-479.56747
-479.37319
-479.35729
-479.35374
-479.34562
-479.27076
-477.79105
-478.64319
-478.97195
-477.77289
-479.48183
-479.30227
-479.28334
-479.27925
-479.27076
-479.19411
-477.70593
-478.51994
-478.31115
-476.32221
-477.95336
-477.82674
-477.80622
-477.80084
-477.79105
-477.70593
-476.16236
-476.51568
-479.20155
-477.79813
-478.72321
-478.67367
-478.66158
-478.65633
-478.64319
-478.51994
-476.51568
-479.89854
-472.1579
-468.81979
-471.34877
-471.10767
-471.08936
-471.08573
-471.07304
-470.98752
-470.3245
-471.19766
-468.81979
-468.66507
-470.2028
-470.00417
-469.98988
-469.98677
-469.97234
-469.83093
-468.38017
-469.82584
-471.34877
-470.2028
-471.80404
-471.6146
-471.60119
-471.5993
-471.59585
-471.51143
-469.98391
-470.73261
-471.10767
-470.00417
-471.6146
-471.42646
-471.41291
-471.40983
-471.40409
-471.33429
-469.85921
-470.68395
-471.08936
-469.98988
-471.60119
-471.41291
-471.39929
-471.39589
-471.38823
-471.31544
-469.8388
-470.67195
-471.08573
-469.98677
-471.5993
-471.40983
-471.39589
-471.39251
-471.38465
-471.31132
-469.83341
-470.6667
-471.07304
-469.97234
-471.59585
-471.40409
-471.38823
-471.38465
-471.37663
-471.30293
-469.82373
-470.6537
-470.98752
-469.83093
-471.51143
-471.33429
-471.31544
-471.31132
-471.30293
-471.22747
-469.73983
-470.53164
-470.3245
-468.38017
-469.98391
-469.85921
-469.8388
-469.83341
-469.82373
-469.73983
-468.19674
-468.52241
-471.19766
-469.82584
-470.73261
-470.68395
-470.67195
-470.6667
-470.6537
-470.53164
-468.52241
-471.88894
-463.85357
-460.62549
-463.094
-462.85788
-462.83974
-462.83609
-462.82353
-462.73874
-462.07767
-462.92847
-460.62549
-460.49416
-461.99605
-461.80131
-461.78713
-461.78402
-461.76989
-461.63057
-460.18884
-461.59593
-463.094
-461.99605
-463.5596
-463.37387
-463.36055
-463.35862
-463.3553
-463.27261
-461.75558
-462.47902
-462.85788
-461.80131
-463.37387
-463.18942
-463.17597
-463.17287
-463.16725
-463.099
-461.63357
-462.43155
-462.83974
-461.78713
-463.36055
-463.17597
-463.16245
-463.15903
-463.15151
-463.08032
-461.6134
-462.41971
-462.83609
-461.78402
-463.35862
-463.17287
-463.15903
-463.15564
-463.14793
-463.07621
-461.60803
-462.4145
-462.82353
-461.76989
-463.3553
-463.16725
-463.15151
-463.14793
-463.14006
-463.06798
-461.59853
-462.40172
-462.73874
-461.63057
-463.27261
-463.099
-463.08032
-463.07621
-463.06798
-462.99415
-461.51635
-462.2816
-462.07767
-460.18884
-461.75558
-461.63357
-461.6134
-461.60803
-461.59853
-461.51635
-459.98339
-460.28002
-462.92847
-461.59593
-462.47902
-462.43155
-462.41971
-462.4145
-462.40172
-462.2816
-460.28002
-463.60969
-455.29615
-452.19554
-454.58908
-454.3594
-454.34153
-454.3379
-454.32555
-454.24201
-453.58703
-454.41068
-452.19554
-452.08708
-453.54442
-453.35477
-453.34077
-453.33768
-453.32395
-453.18757
-451.76375
-453.12465
-454.58908
-453.54442
-455.06118
-454.88031
-454.86715
-454.8652
-454.86203
-454.78155
-453.28435
-453.97893
-454.3594
-453.35477
-454.88031
-454.70068
-454.6874
-454.6843
-454.67883
-454.61254
-453.16578
-453.93294
-454.34153
-453.34077
-454.86715
-454.6874
-454.67406
-454.67066
-454.66332
-454.59416
-453.14597
-453.92133
-454.3379
-453.33768
-454.8652
-454.6843
-454.67066
-454.66728
-454.65975
-454.59007
-453.14065
-453.91619
-454.32555
-453.32395
-454.86203
-454.67883
-454.66332
-454.65975
-454.65208
-454.58205
-453.13138
-453.90371
-454.24201
-453.18757
-454.78155
-454.61254
-454.59416
-454.59007
-454.58205
-454.5103
-453.05143
-453.78627
-453.58703
-451.76375
-453.28435
-453.16578
-453.14597
-453.14065
-453.13138
-453.05143
-451.53804
-451.80473
-454.41068
-453.12465
-453.97893
-453.93294
-453.92133
-453.91619
-453.90371
-453.78627
-451.80473
-455.07787
-446.50472
-443.54764
-445.85245
-445.63061
-445.61312
-445.60952
-445.59746
-445.51568
-444.8708
-445.66293
-443.54764
-443.46114
-444.86567
-444.68226
-444.66854
-444.6655
-444.65223
-444.51961
-443.12238
-444.43012
-445.85245
-444.86567
-446.32702
-446.15209
-446.13918
-446.13723
-446.13422
-446.05643
-444.58812
-445.25073
-445.63061
-444.68226
-446.15209
-445.97838
-445.96536
-445.96228
-445.957
-445.89303
-444.47371
-445.2065
-445.61312
-444.66854
-446.13918
-445.96536
-445.95227
-445.9489
-445.9418
-445.87506
-444.45439
-445.19521
-445.60952
-444.6655
-446.13723
-445.96228
-445.9489
-445.94557
-445.93828
-445.87103
-444.44915
-445.19017
-445.59746
-444.65223
-446.13422
-445.957
-445.9418
-445.93828
-445.93085
-445.86326
-444.44017
-445.17806
-445.51568
-444.51961
-446.05643
-445.89303
-445.87506
-445.87103
-445.86326
-445.79402
-444.3629
-445.06399
-444.8708
-443.12238
-444.58812
-444.47371
-444.45439
-444.44915
-444.44017
-444.3629
-442.87826
-443.11461
-445.66293
-444.43012
-445.25073
-445.2065
-445.19521
-445.19017
-445.17806
-445.06399
-443.11461
-446.31251
-437.50009
-434.7012
-436.90428
-436.69162
-436.67462
-436.67108
-436.65938
-436.57985
-435.94898
-436.70562
-434.7012
-434.63539
-435.97934
-435.80328
-435.78991
-435.78692
-435.77421
-435.64613
-434.28386
-435.53219
-436.90428
-435.97934
-437.37715
-437.20922
-437.19664
-437.19469
-437.19186
-437.11721
-435.68652
-436.31457
-436.69162
-435.80328
-437.20922
-437.04247
-437.02978
-437.02674
-437.02168
-436.96041
-435.57697
-436.27239
-436.67462
-435.78991
-437.19664
-437.02978
-437.01703
-437.01372
-437.00689
-436.94296
-435.55825
-436.26147
-436.67108
-435.78692
-437.19469
-437.02674
-437.01372
-437.01044
-437.00343
-436.93901
-435.55314
-436.25656
-436.65938
-435.77421
-437.19186
-437.02168
-437.00689
-437.00343
-436.99628
-436.93154
-435.5445
-436.24491
-436.57985
-435.64613
-437.11721
-436.96041
-436.94296
-436.93901
-436.93154
-436.86519
-435.47037
-436.13488
-435.94898
-434.28386
-435.68652
-435.57697
-435.55825
-435.55314
-435.5445
-435.47037
-434.02332
-434.2294
-436.70562
-435.53219
-436.31457
-436.27239
-436.26147
-436.25656
-436.24491
-436.13488
-434.2294
-437.33438
-428.30464
-425.67713
-427.76632
-427.56412
-427.54772
-427.54425
-427.53298
-427.45618
-426.84309
-427.56066
-425.67713
-425.6304
-426.90653
-426.73885
-426.72592
-426.72302
-426.71093
-426.58813
-425.26886
-426.45225
-427.76632
-426.90653
-428.23322
-428.07329
-428.0611
-428.05917
-428.05654
-427.98543
-426.60076
-427.19215
-427.56412
-426.73885
-428.07329
-427.91449
-427.9022
-427.89923
-427.89441
-427.83618
-426.49674
-427.15227
-427.54772
-426.72592
-428.0611
-427.9022
-427.88987
-427.88664
-427.88012
-427.81935
-426.47873
-427.1418
-427.54425
-426.72302
-428.05917
-427.89923
-427.88664
-427.88344
-427.87675
-427.81551
-426.47378
-427.13705
-427.53298
-426.71093
-428.05654
-427.89441
-427.88012
-427.87675
-427.86993
-427.80838
-426.46553
-427.12591
-427.45618
-426.58813
-427.98543
-427.83618
-427.81935
-427.81551
-427.80838
-427.74529
-426.39494
-427.02057
-426.84309
-425.26886
-426.60076
-426.49674
-426.47873
-426.47378
-426.46553
-426.39494
-424.994
-425.1703
-427.56066
-426.45225
-427.19215
-427.15227
-427.1418
-427.13705
-427.12591
-427.02057
-425.1703
-428.16578
-418.94209
-416.49765
-418.4617
-418.27117
-418.25545
-418.2521
-418.24133
-418.1677
-417.57599
-418.25134
-416.49765
-416.4681
-417.66971
-417.51142
-417.499
-417.4962
-417.4848
-417.36799
-416.09939
-417.213
-418.4617
-417.66971
-418.91829
-418.7673
-418.75559
-418.75369
-418.75126
-418.68409
-417.35342
-417.90652
-418.27117
-417.51142
-418.7673
-418.61739
-418.60559
-418.60269
-418.59815
-418.54327
-417.25554
-417.86918
-418.25545
-417.499
-418.75559
-418.60559
-418.59374
-418.59061
-418.58444
-418.52716
-417.23836
-417.85922
-418.2521
-417.4962
-418.75369
-418.60269
-418.59061
-418.58751
-418.58118
-418.52345
-417.23359
-417.85467
-418.24133
-417.4848
-418.75126
-418.59815
-418.58444
-418.58118
-418.57473
-418.51671
-417.22579
-417.84411
-418.1677
-417.36799
-418.68409
-418.54327
-418.52716
-418.52345
-418.51671
-418.45722