/*--------------------------------*- C++ -*----------------------------------*\
| =========                 |                                                 |
| \\      /  F ield         | OpenFOAM: The Open Source CFD Toolbox           |
|  \\    /   O peration     | Version:  v2106                                 |
|   \\  /    A nd           | Website:  www.openfoam.com                      |
|    \\/     M anipulation  |                                                 |
\*---------------------------------------------------------------------------*/
FoamFile
{
    version     2.0;
    format      ascii;
    arch        "LSB;label=32;scalar=64";
    class       volScalarField;
    location    "55";
    object      T;
}
// * * * * * * * * * * * * * * * * * * * * * * * * * * * * * * * * * * * * * //

dimensions      [0 0 0 1 0 0 0];

internalField   nonuniform List<scalar> 
4000
(
275.1868
275.18679
275.18679
275.18679
275.1868
275.1868
275.1868
275.18679
275.18679
275.18679
275.18679
275.18679
275.18679
275.18679
275.18679
275.18679
275.18679
275.18679
275.18679
275.18679
275.18679
275.18679
275.18679
275.1868
275.1868
275.1868
275.1868
275.1868
275.18679
275.18679
275.18679
275.18679
275.1868
275.1868
275.1868
275.1868
275.1868
275.1868
275.1868
275.18679
275.1868
275.18679
275.1868
275.1868
275.1868
275.1868
275.1868
275.1868
275.1868
275.18679
275.1868
275.18679
275.1868
275.1868
275.1868
275.1868
275.1868
275.1868
275.1868
275.18679
275.1868
275.18679
275.1868
275.1868
275.1868
275.1868
275.1868
275.1868
275.18679
275.18679
275.18679
275.18679
275.1868
275.1868
275.1868
275.1868
275.1868
275.18679
275.18679
275.18679
275.18679
275.18679
275.18679
275.1868
275.1868
275.1868
275.18679
275.18679
275.18679
275.18679
275.18679
275.18679
275.18679
275.18679
275.18679
275.18679
275.18679
275.18679
275.18679
275.18679
283.73237
283.73234
283.73236
283.73237
283.73237
283.73237
283.73237
283.73237
283.73237
283.73237
283.73234
283.73234
283.73235
283.73236
283.73236
283.73237
283.73236
283.73236
283.73235
283.73236
283.73236
283.73235
283.73237
283.73238
283.73238
283.73238
283.73238
283.73237
283.73237
283.73237
283.73237
283.73236
283.73238
283.73238
283.73239
283.73239
283.73238
283.73238
283.73237
283.73237
283.73237
283.73236
283.73238
283.73239
283.73239
283.73239
283.73239
283.73238
283.73237
283.73237
283.73237
283.73237
283.73238
283.73239
283.73239
283.73239
283.73239
283.73238
283.73237
283.73237
283.73237
283.73236
283.73238
283.73238
283.73239
283.73239
283.73238
283.73238
283.73237
283.73236
283.73237
283.73236
283.73237
283.73238
283.73238
283.73238
283.73238
283.73237
283.73236
283.73236
283.73237
283.73235
283.73237
283.73237
283.73237
283.73237
283.73237
283.73236
283.73235
283.73235
283.73237
283.73236
283.73237
283.73237
283.73237
283.73237
283.73236
283.73236
283.73235
283.73235
292.22045
292.22041
292.22044
292.22045
292.22046
292.22046
292.22046
292.22045
292.22045
292.22045
292.22041
292.2204
292.22043
292.22044
292.22045
292.22045
292.22044
292.22044
292.22043
292.22043
292.22044
292.22043
292.22045
292.22047
292.22047
292.22047
292.22047
292.22046
292.22045
292.22045
292.22045
292.22044
292.22047
292.22048
292.22049
292.22048
292.22048
292.22047
292.22045
292.22045
292.22046
292.22045
292.22047
292.22049
292.22049
292.22049
292.22048
292.22047
292.22046
292.22045
292.22046
292.22045
292.22047
292.22048
292.22049
292.22049
292.22048
292.22047
292.22045
292.22045
292.22046
292.22044
292.22047
292.22048
292.22048
292.22048
292.22047
292.22046
292.22044
292.22044
292.22045
292.22044
292.22046
292.22047
292.22047
292.22047
292.22046
292.22045
292.22043
292.22043
292.22045
292.22043
292.22045
292.22045
292.22046
292.22045
292.22044
292.22043
292.22042
292.22042
292.22045
292.22043
292.22045
292.22045
292.22045
292.22045
292.22044
292.22043
292.22042
292.22042
300.65141
300.65136
300.6514
300.65142
300.65143
300.65143
300.65142
300.65141
300.6514
300.65141
300.65136
300.65135
300.65139
300.6514
300.65141
300.65141
300.65141
300.65139
300.65138
300.65139
300.6514
300.65139
300.65142
300.65144
300.65145
300.65145
300.65144
300.65142
300.6514
300.65141
300.65142
300.6514
300.65144
300.65146
300.65146
300.65146
300.65145
300.65144
300.65141
300.65141
300.65143
300.65141
300.65145
300.65146
300.65147
300.65147
300.65146
300.65144
300.65142
300.65142
300.65143
300.65141
300.65145
300.65146
300.65147
300.65147
300.65145
300.65143
300.65141
300.65141
300.65142
300.65141
300.65144
300.65145
300.65146
300.65145
300.65144
300.65142
300.6514
300.6514
300.65141
300.65139
300.65142
300.65144
300.65144
300.65143
300.65142
300.6514
300.65138
300.65138
300.6514
300.65138
300.6514
300.65141
300.65142
300.65141
300.6514
300.65138
300.65135
300.65136
300.65141
300.65139
300.65141
300.65141
300.65142
300.65141
300.6514
300.65138
300.65136
300.65137
309.02562
309.02557
309.02562
309.02564
309.02565
309.02565
309.02564
309.02563
309.02561
309.02563
309.02557
309.02556
309.0256
309.02562
309.02563
309.02563
309.02562
309.02561
309.02558
309.0256
309.02562
309.0256
309.02564
309.02567
309.02568
309.02568
309.02566
309.02564
309.02561
309.02562
309.02564
309.02562
309.02567
309.02569
309.0257
309.02569
309.02568
309.02566
309.02563
309.02563
309.02565
309.02563
309.02568
309.0257
309.0257
309.0257
309.02569
309.02566
309.02563
309.02563
309.02565
309.02563
309.02568
309.02569
309.0257
309.0257
309.02568
309.02565
309.02562
309.02562
309.02564
309.02562
309.02566
309.02568
309.02569
309.02568
309.02566
309.02564
309.0256
309.0256
309.02563
309.02561
309.02564
309.02566
309.02566
309.02565
309.02564
309.02561
309.02558
309.02558
309.02561
309.02558
309.02561
309.02563
309.02563
309.02562
309.0256
309.02558
309.02554
309.02555
309.02563
309.0256
309.02562
309.02563
309.02563
309.02562
309.0256
309.02558
309.02555
309.02557
317.34348
317.34341
317.34347
317.3435
317.34351
317.34351
317.3435
317.34348
317.34346
317.34347
317.34341
317.3434
317.34345
317.34348
317.34349
317.34349
317.34348
317.34345
317.34343
317.34344
317.34347
317.34345
317.34351
317.34353
317.34354
317.34354
317.34352
317.3435
317.34346
317.34346
317.3435
317.34348
317.34353
317.34356
317.34357
317.34356
317.34354
317.34351
317.34347
317.34347
317.34351
317.34349
317.34354
317.34357
317.34357
317.34357
317.34355
317.34352
317.34347
317.34347
317.34351
317.34349
317.34354
317.34356
317.34357
317.34356
317.34354
317.34351
317.34346
317.34346
317.3435
317.34348
317.34352
317.34354
317.34355
317.34354
317.34352
317.34348
317.34344
317.34344
317.34348
317.34345
317.3435
317.34351
317.34352
317.34351
317.34348
317.34345
317.34341
317.34341
317.34346
317.34343
317.34346
317.34347
317.34347
317.34346
317.34344
317.34341
317.34337
317.34337
317.34347
317.34344
317.34346
317.34347
317.34347
317.34346
317.34344
317.34341
317.34337
317.3434
325.60536
325.60529
325.60536
325.60539
325.6054
325.6054
325.60538
325.60536
325.60534
325.60535
325.60529
325.60528
325.60534
325.60537
325.60538
325.60538
325.60536
325.60533
325.6053
325.60531
325.60536
325.60534
325.6054
325.60543
325.60544
325.60543
325.60541
325.60538
325.60533
325.60534
325.60539
325.60537
325.60543
325.60545
325.60546
325.60546
325.60544
325.6054
325.60535
325.60535
325.6054
325.60538
325.60544
325.60546
325.60547
325.60546
325.60544
325.6054
325.60535
325.60535
325.6054
325.60538
325.60543
325.60546
325.60546
325.60546
325.60543
325.60539
325.60533
325.60533
325.60538
325.60536
325.60541
325.60544
325.60544
325.60543
325.6054
325.60536
325.60531
325.60531
325.60536
325.60533
325.60538
325.6054
325.6054
325.60539
325.60536
325.60532
325.60527
325.60527
325.60534
325.6053
325.60533
325.60535
325.60535
325.60533
325.60531
325.60527
325.60521
325.60522
325.60535
325.60531
325.60534
325.60535
325.60535
325.60533
325.60531
325.60527
325.60522
325.60526
333.81168
333.81161
333.81168
333.81171
333.81173
333.81173
333.81171
333.81168
333.81165
333.81166
333.81161
333.8116
333.81166
333.8117
333.81171
333.81171
333.81169
333.81165
333.8116
333.81162
333.81168
333.81166
333.81173
333.81176
333.81177
333.81177
333.81174
333.8117
333.81165
333.81165
333.81171
333.8117
333.81176
333.81179
333.8118
333.81179
333.81177
333.81172
333.81166
333.81166
333.81173
333.81171
333.81177
333.8118
333.81181
333.8118
333.81177
333.81172
333.81166
333.81166
333.81173
333.81171
333.81177
333.81179
333.8118
333.81179
333.81176
333.81171
333.81164
333.81164
333.81171
333.81169
333.81174
333.81177
333.81177
333.81176
333.81172
333.81168
333.81161
333.81161
333.81168
333.81165
333.8117
333.81172
333.81172
333.81171
333.81168
333.81163
333.81156
333.81156
333.81165
333.8116
333.81165
333.81166
333.81166
333.81164
333.81161
333.81156
333.8115
333.81151
333.81166
333.81162
333.81165
333.81166
333.81166
333.81164
333.81161
333.81156
333.81151
333.81155
341.96287
341.9628
341.96287
341.96291
341.96293
341.96292
341.9629
341.96286
341.96283
341.96285
341.9628
341.96278
341.96286
341.96289
341.96291
341.9629
341.96288
341.96283
341.96278
341.9628
341.96287
341.96286
341.96293
341.96296
341.96297
341.96297
341.96294
341.96289
341.96283
341.96283
341.96291
341.96289
341.96296
341.96299
341.963
341.96299
341.96296
341.96291
341.96284
341.96284
341.96293
341.96291
341.96297
341.963
341.96301
341.963
341.96297
341.96291
341.96284
341.96284
341.96292
341.9629
341.96297
341.96299
341.963
341.96299
341.96295
341.96289
341.96282
341.96282
341.9629
341.96288
341.96294
341.96296
341.96297
341.96295
341.96291
341.96286
341.96278
341.96278
341.96286
341.96283
341.96289
341.96291
341.96291
341.96289
341.96286
341.9628
341.96273
341.96272
341.96283
341.96278
341.96283
341.96284
341.96284
341.96282
341.96278
341.96273
341.96266
341.96266
341.96285
341.9628
341.96283
341.96284
341.96284
341.96282
341.96278
341.96272
341.96266
341.96271
350.05938
350.0593
350.05939
350.05942
350.05944
350.05943
350.05941
350.05937
350.05933
350.05934
350.0593
350.05929
350.05937
350.05941
350.05942
350.05941
350.05938
350.05934
350.05928
350.0593
350.05939
350.05937
350.05944
350.05948
350.05949
350.05948
350.05945
350.0594
350.05932
350.05933
350.05942
350.05941
350.05948
350.05952
350.05953
350.05951
350.05948
350.05942
350.05934
350.05934
350.05944
350.05942
350.05949
350.05953
350.05953
350.05952
350.05948
350.05942
350.05934
350.05934
350.05943
350.05941
350.05948
350.05951
350.05952
350.0595
350.05946
350.0594
350.05932
350.05931
350.05941
350.05938
350.05945
350.05948
350.05948
350.05946
350.05942
350.05935
350.05927
350.05927
350.05937
350.05934
350.0594
350.05942
350.05942
350.0594
350.05935
350.05929
350.05921
350.0592
350.05933
350.05928
350.05932
350.05934
350.05934
350.05932
350.05927
350.05921
350.05913
350.05913
350.05934
350.0593
350.05933
350.05934
350.05934
350.05931
350.05927
350.0592
350.05913
350.05919
358.10168
358.1016
358.10169
358.10173
358.10175
358.10174
358.10171
358.10166
358.10162
358.10163
358.1016
358.10159
358.10167
358.10171
358.10173
358.10172
358.10168
358.10163
358.10157
358.10159
358.10169
358.10167
358.10175
358.10179
358.1018
358.10179
358.10176
358.1017
358.10162
358.10162
358.10173
358.10171
358.10179
358.10183
358.10184
358.10182
358.10178
358.10172
358.10163
358.10163
358.10175
358.10173
358.1018
358.10184
358.10185
358.10183
358.10179
358.10172
358.10163
358.10162
358.10174
358.10172
358.10179
358.10182
358.10183
358.10181
358.10176
358.10169
358.1016
358.1016
358.10171
358.10168
358.10176
358.10178
358.10179
358.10176
358.10172
358.10164
358.10155
358.10155
358.10166
358.10163
358.1017
358.10172
358.10172
358.10169
358.10164
358.10157
358.10148
358.10148
358.10162
358.10157
358.10162
358.10163
358.10163
358.1016
358.10155
358.10148
358.1014
358.1014
358.10163
358.10159
358.10162
358.10163
358.10162
358.1016
358.10155
358.10148
358.1014
358.10146
366.09028
366.09019
366.09029
366.09033
366.09035
366.09034
366.0903
366.09025
366.0902
366.09022
366.09019
366.09018
366.09027
366.09031
366.09033
366.09031
366.09028
366.09022
366.09015
366.09017
366.09029
366.09027
366.09036
366.0904
366.09041
366.09039
366.09035
366.09029
366.0902
366.0902
366.09033
366.09031
366.0904
366.09043
366.09044
366.09043
366.09038
366.09031
366.09022
366.09021
366.09035
366.09033
366.09041
366.09044
366.09045
366.09043
366.09038
366.09031
366.09021
366.0902
366.09034
366.09031
366.09039
366.09043
366.09043
366.09041
366.09036
366.09028
366.09018
366.09017
366.0903
366.09028
366.09035
366.09038
366.09038
366.09036
366.09031
366.09023
366.09013
366.09012
366.09025
366.09022
366.09029
366.09031
366.09031
366.09028
366.09023
366.09015
366.09005
366.09004
366.0902
366.09015
366.0902
366.09022
366.09021
366.09018
366.09013
366.09005
366.08995
366.08996
366.09022
366.09017
366.0902
366.09021
366.0902
366.09017
366.09012
366.09004
366.08996
366.09002
374.0257
374.02561
374.02571
374.02575
374.02577
374.02575
374.02572
374.02566
374.02561
374.02562
374.02561
374.0256
374.02569
374.02573
374.02575
374.02573
374.02569
374.02563
374.02555
374.02557
374.02571
374.02569
374.02578
374.02582
374.02583
374.02582
374.02577
374.0257
374.02561
374.0256
374.02575
374.02573
374.02582
374.02586
374.02587
374.02585
374.0258
374.02572
374.02562
374.02562
374.02577
374.02575
374.02583
374.02587
374.02588
374.02585
374.0258
374.02572
374.02562
374.02561
374.02575
374.02573
374.02582
374.02585
374.02585
374.02583
374.02577
374.02569
374.02558
374.02557
374.02572
374.02569
374.02577
374.0258
374.0258
374.02577
374.02572
374.02563
374.02552
374.02551
374.02566
374.02563
374.0257
374.02572
374.02572
374.02569
374.02563
374.02555
374.02544
374.02543
374.02561
374.02555
374.02561
374.02562
374.02562
374.02558
374.02552
374.02544
374.02534
374.02534
374.02562
374.02557
374.0256
374.02562
374.02561
374.02557
374.02551
374.02543
374.02534
374.0254
381.90849
381.9084
381.90851
381.90855
381.90857
381.90855
381.90851
381.90845
381.90839
381.90841
381.9084
381.9084
381.90849
381.90853
381.90855
381.90853
381.90849
381.90842
381.90833
381.90835
381.90851
381.90849
381.90858
381.90863
381.90864
381.90862
381.90857
381.90849
381.90839
381.90839
381.90855
381.90853
381.90863
381.90867
381.90867
381.90865
381.9086
381.90852
381.90841
381.9084
381.90857
381.90855
381.90864
381.90867
381.90868
381.90865
381.9086
381.90851
381.9084
381.90839
381.90855
381.90853
381.90862
381.90865
381.90865
381.90863
381.90857
381.90848
381.90836
381.90835
381.90851
381.90849
381.90857
381.9086
381.9086
381.90857
381.90851
381.90842
381.9083
381.90829
381.90845
381.90842
381.90849
381.90852
381.90851
381.90848
381.90842
381.90833
381.90821
381.9082
381.90839
381.90833
381.90839
381.90841
381.9084
381.90836
381.9083
381.90821
381.9081
381.9081
381.90841
381.90835
381.90839
381.9084
381.90839
381.90835
381.90829
381.9082
381.9081
381.90816
389.73925
389.73917
389.73927
389.73932
389.73933
389.73932
389.73927
389.73921
389.73914
389.73916
389.73917
389.73916
389.73926
389.7393
389.73932
389.7393
389.73925
389.73918
389.73909
389.7391
389.73927
389.73926
389.73935
389.7394
389.73941
389.73939
389.73933
389.73925
389.73914
389.73914
389.73932
389.7393
389.7394
389.73944
389.73944
389.73942
389.73937
389.73928
389.73916
389.73915
389.73933
389.73932
389.73941
389.73944
389.73945
389.73942
389.73936
389.73927
389.73915
389.73914
389.73932
389.7393
389.73939
389.73942
389.73942
389.73939
389.73933
389.73923
389.73911
389.7391
389.73927
389.73925
389.73933
389.73937
389.73936
389.73933
389.73926
389.73917
389.73905
389.73903
389.73921
389.73918
389.73925
389.73928
389.73927
389.73923
389.73917
389.73907
389.73895
389.73894
389.73914
389.73909
389.73914
389.73916
389.73915
389.73911
389.73905
389.73895
389.73883
389.73883
389.73916
389.7391
389.73914
389.73915
389.73914
389.7391
389.73903
389.73894
389.73883
389.7389
397.5186
397.51852
397.51862
397.51867
397.51868
397.51867
397.51862
397.51855
397.51848
397.5185
397.51852
397.51851
397.51861
397.51866
397.51867
397.51865
397.5186
397.51852
397.51843
397.51844
397.51862
397.51861
397.51871
397.51875
397.51876
397.51874
397.51868
397.5186
397.51848
397.51848
397.51867
397.51866
397.51875
397.51879
397.5188
397.51877
397.51872
397.51862
397.5185
397.51849
397.51868
397.51867
397.51876
397.5188
397.5188
397.51877
397.51871
397.51861
397.51849
397.51847
397.51867
397.51865
397.51874
397.51877
397.51877
397.51874
397.51868
397.51858
397.51845
397.51843
397.51862
397.5186
397.51868
397.51872
397.51871
397.51868
397.51861
397.51851
397.51838
397.51836
397.51855
397.51852
397.5186
397.51862
397.51861
397.51858
397.51851
397.51841
397.51828
397.51826
397.51848
397.51843
397.51848
397.5185
397.51849
397.51845
397.51838
397.51828
397.51816
397.51815
397.5185
397.51844
397.51848
397.51849
397.51847
397.51843
397.51836
397.51826
397.51815
397.51822
405.24719
405.2471
405.24721
405.24726
405.24727
405.24725
405.2472
405.24713
405.24706
405.24707
405.2471
405.2471
405.2472
405.24724
405.24726
405.24724
405.24718
405.2471
405.247
405.24701
405.24721
405.2472
405.2473
405.24734
405.24735
405.24733
405.24727
405.24718
405.24706
405.24705
405.24726
405.24724
405.24734
405.24738
405.24739
405.24736
405.2473
405.2472
405.24708
405.24706
405.24727
405.24726
405.24735
405.24739
405.24739
405.24736
405.24729
405.24719
405.24706
405.24704
405.24725
405.24724
405.24733
405.24736
405.24736
405.24733
405.24726
405.24715
405.24702
405.247
405.2472
405.24718
405.24727
405.2473
405.24729
405.24726
405.24719
405.24708
405.24695
405.24693
405.24713
405.2471
405.24718
405.2472
405.24719
405.24715
405.24708
405.24698
405.24684
405.24682
405.24706
405.247
405.24706
405.24708
405.24706
405.24702
405.24695
405.24684
405.24672
405.24671
405.24707
405.24701
405.24705
405.24706
405.24704
405.247
405.24693
405.24682
405.24671
405.24677
412.92569
412.9256
412.92571
412.92576
412.92577
412.92575
412.9257
412.92563
412.92555
412.92556
412.9256
412.9256
412.9257
412.92575
412.92576
412.92574
412.92568
412.9256
412.92549
412.9255
412.92571
412.9257
412.9258
412.92585
412.92585
412.92583
412.92577
412.92568
412.92555
412.92554
412.92576
412.92575
412.92585
412.92589
412.92589
412.92586
412.9258
412.9257
412.92557
412.92555
412.92577
412.92576
412.92585
412.92589
412.92589
412.92586
412.92579
412.92569
412.92555
412.92553
412.92575
412.92574
412.92583
412.92586
412.92586
412.92582
412.92575
412.92565
412.92551
412.92549
412.9257
412.92568
412.92577
412.9258
412.92579
412.92575
412.92568
412.92557
412.92543
412.92541
412.92563
412.9256
412.92568
412.9257
412.92569
412.92565
412.92557
412.92546
412.92533
412.9253
412.92555
412.92549
412.92555
412.92557
412.92555
412.92551
412.92543
412.92533
412.92519
412.92518
412.92556
412.9255
412.92554
412.92555
412.92553
412.92549
412.92541
412.9253
412.92518
412.92525
420.55481
420.55473
420.55484
420.55489
420.5549
420.55488
420.55483
420.55475
420.55467
420.55468
420.55473
420.55473
420.55483
420.55488
420.55489
420.55486
420.55481
420.55472
420.55461
420.55462
420.55484
420.55483
420.55493
420.55498
420.55498
420.55496
420.55489
420.5548
420.55467
420.55466
420.55489
420.55488
420.55498
420.55502
420.55502
420.55499
420.55492
420.55482
420.55469
420.55467
420.5549
420.55489
420.55498
420.55502
420.55502
420.55499
420.55492
420.55481
420.55467
420.55465
420.55488
420.55486
420.55496
420.55499
420.55499
420.55495
420.55488
420.55477
420.55463
420.5546
420.55483
420.55481
420.55489
420.55492
420.55492
420.55488
420.5548
420.55469
420.55455
420.55452
420.55475
420.55472
420.5548
420.55482
420.55481
420.55477
420.55469
420.55458
420.55444
420.55441
420.55467
420.55461
420.55467
420.55469
420.55467
420.55463
420.55455
420.55444
420.5543
420.55429
420.55468
420.55462
420.55466
420.55467
420.55465
420.5546
420.55452
420.55441
420.55429
420.55435
428.13531
428.13523
428.13534
428.13538
428.13539
428.13537
428.13532
428.13524
428.13516
428.13516
428.13523
428.13523
428.13533
428.13537
428.13538
428.13536
428.1353
428.13521
428.1351
428.13511
428.13534
428.13533
428.13543
428.13547
428.13548
428.13545
428.13539
428.13529
428.13516
428.13514
428.13538
428.13537
428.13547
428.13551
428.13552
428.13548
428.13541
428.13531
428.13517
428.13515
428.13539
428.13538
428.13548
428.13552
428.13551
428.13548
428.13541
428.1353
428.13516
428.13513
428.13537
428.13536
428.13545
428.13548
428.13548
428.13544
428.13536
428.13525
428.13511
428.13508
428.13532
428.1353
428.13539
428.13541
428.13541
428.13536
428.13529
428.13517
428.13503
428.135
428.13524
428.13521
428.13529
428.13531
428.1353
428.13525
428.13517
428.13506
428.13492
428.13489
428.13516
428.1351
428.13516
428.13517
428.13516
428.13511
428.13503
428.13492
428.13478
428.13476
428.13516
428.13511
428.13514
428.13515
428.13513
428.13508
428.135
428.13489
428.13476
428.13483
435.66793
435.66786
435.66797
435.66801
435.66802
435.668
435.66794
435.66786
435.66778
435.66778
435.66786
435.66786
435.66796
435.66801
435.66801
435.66799
435.66793
435.66784
435.66773
435.66773
435.66797
435.66796
435.66806
435.6681
435.66811
435.66808
435.66801
435.66791
435.66778
435.66776
435.66801
435.66801
435.6681
435.66814
435.66814
435.66811
435.66804
435.66794
435.6678
435.66777
435.66802
435.66801
435.66811
435.66814
435.66814
435.66811
435.66803
435.66792
435.66778
435.66775
435.668
435.66799
435.66808
435.66811
435.66811
435.66806
435.66799
435.66788
435.66773
435.6677
435.66794
435.66793
435.66801
435.66804
435.66803
435.66799
435.66791
435.66779
435.66765
435.66762
435.66786
435.66784
435.66791
435.66794
435.66792
435.66788
435.66779
435.66768
435.66754
435.66751
435.66778
435.66773
435.66778
435.6678
435.66778
435.66773
435.66765
435.66754
435.6674
435.66738
435.66778
435.66773
435.66776
435.66777
435.66775
435.6677
435.66762
435.66751
435.66738
435.66744
443.1535
443.15343
443.15353
443.15358
443.15359
443.15356
443.1535
443.15342
443.15334
443.15334
443.15343
443.15343
443.15353
443.15357
443.15358
443.15355
443.15349
443.1534
443.15329
443.15329
443.15353
443.15353
443.15363
443.15367
443.15367
443.15364
443.15357
443.15347
443.15334
443.15332
443.15358
443.15357
443.15367
443.1537
443.15371
443.15367
443.1536
443.15349
443.15336
443.15333
443.15359
443.15358
443.15367
443.15371
443.1537
443.15366
443.15359
443.15348
443.15334
443.15331
443.15356
443.15355
443.15364
443.15367
443.15366
443.15362
443.15355
443.15343
443.15329
443.15326
443.1535
443.15349
443.15357
443.1536
443.15359
443.15355
443.15347
443.15335
443.1532
443.15317
443.15342
443.1534
443.15347
443.15349
443.15348
443.15343
443.15335
443.15323
443.15309
443.15306
443.15334
443.15329
443.15334
443.15336
443.15334
443.15329
443.1532
443.15309
443.15295
443.15293
443.15334
443.15329
443.15332
443.15333
443.15331
443.15326
443.15317
443.15306
443.15293
443.15299
450.59282
450.59275
450.59285
450.5929
450.5929
450.59288
450.59282
450.59274
450.59265
450.59265
450.59275
450.59275
450.59285
450.59289
450.5929
450.59287
450.59281
450.59272
450.5926
450.5926
450.59285
450.59285
450.59295
450.59298
450.59299
450.59296
450.59289
450.59279
450.59266
450.59264
450.5929
450.59289
450.59298
450.59302
450.59302
450.59299
450.59292
450.59281
450.59267
450.59264
450.5929
450.5929
450.59299
450.59302
450.59302
450.59298
450.5929
450.59279
450.59265
450.59262
450.59288
450.59287
450.59296
450.59299
450.59298
450.59294
450.59286
450.59275
450.5926
450.59257
450.59282
450.59281
450.59289
450.59292
450.5929
450.59286
450.59278
450.59266
450.59252
450.59249
450.59274
450.59272
450.59279
450.59281
450.59279
450.59275
450.59266
450.59255
450.5924
450.59237
450.59265
450.5926
450.59266
450.59267
450.59265
450.5926
450.59252
450.5924
450.59226
450.59224
450.59265
450.5926
450.59264
450.59264
450.59262
450.59257
450.59249
450.59237
450.59224
450.5923
457.98674
457.98668
457.98678
457.98682
457.98683
457.9868
457.98674
457.98666
457.98658
457.98657
457.98668
457.98668
457.98678
457.98682
457.98682
457.98679
457.98673
457.98664
457.98653
457.98653
457.98678
457.98678
457.98687
457.98691
457.98691
457.98688
457.98681
457.98671
457.98658
457.98656
457.98682
457.98682
457.98691
457.98694
457.98694
457.98691
457.98683
457.98673
457.98659
457.98656
457.98683
457.98682
457.98691
457.98694
457.98694
457.9869
457.98682
457.98671
457.98657
457.98654
457.9868
457.98679
457.98688
457.98691
457.9869
457.98685
457.98678
457.98666
457.98652
457.98649
457.98674
457.98673
457.98681
457.98683
457.98682
457.98678
457.9867
457.98658
457.98644
457.98641
457.98666
457.98664
457.98671
457.98673
457.98671
457.98666
457.98658
457.98647
457.98633
457.98629
457.98658
457.98653
457.98658
457.98659
457.98657
457.98652
457.98644
457.98633
457.98619
457.98616
457.98657
457.98653
457.98656
457.98656
457.98654
457.98649
457.98641
457.98629
457.98616
457.98622
465.33614
465.33608
465.33618
465.33622
465.33623
465.3362
465.33614
465.33606
465.33598
465.33597
465.33608
465.33609
465.33618
465.33622
465.33622
465.33619
465.33613
465.33604
465.33593
465.33593
465.33618
465.33618
465.33627
465.3363
465.33631
465.33627
465.33621
465.33611
465.33598
465.33596
465.33622
465.33622
465.3363
465.33634
465.33634
465.3363
465.33623
465.33613
465.33599
465.33596
465.33623
465.33622
465.33631
465.33634
465.33633
465.33629
465.33622
465.33611
465.33597
465.33594
465.3362
465.33619
465.33627
465.3363
465.33629
465.33625
465.33617
465.33606
465.33592
465.33588
465.33614
465.33613
465.33621
465.33623
465.33622
465.33617
465.33609
465.33598
465.33584
465.3358
465.33606
465.33604
465.33611
465.33613
465.33611
465.33606
465.33598
465.33587
465.33573
465.33569
465.33598
465.33593
465.33598
465.33599
465.33597
465.33592
465.33584
465.33573
465.33559
465.33556
465.33597
465.33593
465.33596
465.33596
465.33594
465.33588
465.3358
465.33569
465.33556
465.33562
472.64191
472.64186
472.64195
472.64199
472.64199
472.64196
472.64191
472.64183
472.64174
472.64174
472.64186
472.64187
472.64195
472.64199
472.64199
472.64196
472.6419
472.64181
472.6417
472.6417
472.64195
472.64195
472.64203
472.64207
472.64207
472.64204
472.64197
472.64187
472.64175
472.64172
472.64199
472.64199
472.64207
472.6421
472.6421
472.64206
472.64199
472.64189
472.64176
472.64173
472.64199
472.64199
472.64207
472.6421
472.64209
472.64205
472.64198
472.64187
472.64174
472.6417
472.64196
472.64196
472.64204
472.64206
472.64205
472.64201
472.64193
472.64182
472.64169
472.64165
472.64191
472.6419
472.64197
472.64199
472.64198
472.64193
472.64186
472.64175
472.64161
472.64157
472.64183
472.64181
472.64187
472.64189
472.64187
472.64182
472.64175
472.64163
472.6415
472.64146
472.64174
472.6417
472.64175
472.64176
472.64174
472.64169
472.64161
472.6415
472.64136
472.64134
472.64174
472.6417
472.64172
472.64173
472.6417
472.64165
472.64157
472.64146
472.64134
472.64139
479.90496
479.90491
479.905
479.90503
479.90503
479.90501
479.90495
479.90487
479.90479
479.90478
479.90491
479.90492
479.905
479.90503
479.90503
479.905
479.90494
479.90486
479.90475
479.90474
479.905
479.905
479.90508
479.90511
479.90511
479.90507
479.90501
479.90492
479.9048
479.90477
479.90503
479.90503
479.90511
479.90514
479.90513
479.9051
479.90503
479.90493
479.9048
479.90477
479.90503
479.90503
479.90511
479.90513
479.90513
479.90509
479.90502
479.90491
479.90478
479.90475
479.90501
479.905
479.90507
479.9051
479.90509
479.90505
479.90497
479.90487
479.90473
479.9047
479.90495
479.90494
479.90501
479.90503
479.90502
479.90497
479.9049
479.90479
479.90465
479.90462
479.90487
479.90486
479.90492
479.90493
479.90491
479.90487
479.90479
479.90468
479.90455
479.90451
479.90479
479.90475
479.9048
479.9048
479.90478
479.90473
479.90465
479.90455
479.90442
479.90439
479.90478
479.90474
479.90477
479.90477
479.90475
479.9047
479.90462
479.90451
479.90439
479.90444
487.12621
487.12617
487.12625
487.12628
487.12628
487.12625
487.1262
487.12613
487.12604
487.12604
487.12617
487.12618
487.12625
487.12628
487.12628
487.12625
487.12619
487.12611
487.12601
487.126
487.12625
487.12625
487.12633
487.12635
487.12635
487.12632
487.12626
487.12617
487.12605
487.12602
487.12628
487.12628
487.12635
487.12638
487.12637
487.12634
487.12627
487.12618
487.12606
487.12602
487.12628
487.12628
487.12635
487.12637
487.12637
487.12633
487.12626
487.12616
487.12603
487.126
487.12625
487.12625
487.12632
487.12634
487.12633
487.12629
487.12622
487.12612
487.12599
487.12595
487.1262
487.12619
487.12626
487.12627
487.12626
487.12622
487.12614
487.12604
487.12591
487.12588
487.12613
487.12611
487.12617
487.12618
487.12616
487.12612
487.12604
487.12594
487.12581
487.12577
487.12604
487.12601
487.12605
487.12606
487.12603
487.12599
487.12591
487.12581
487.12568
487.12566
487.12604
487.126
487.12602
487.12602
487.126
487.12595
487.12588
487.12577
487.12566
487.1257
494.30661
494.30657
494.30665
494.30668
494.30667
494.30665
494.3066
494.30652
494.30645
494.30644
494.30657
494.30658
494.30665
494.30668
494.30668
494.30665
494.30659
494.30651
494.30641
494.3064
494.30665
494.30665
494.30672
494.30674
494.30674
494.30671
494.30665
494.30656
494.30645
494.30642
494.30668
494.30668
494.30674
494.30677
494.30676
494.30673
494.30666
494.30657
494.30645
494.30642
494.30667
494.30668
494.30674
494.30676
494.30675
494.30672
494.30665
494.30655
494.30643
494.3064
494.30665
494.30665
494.30671
494.30673
494.30672
494.30668
494.30661
494.30651
494.30639
494.30635
494.3066
494.30659
494.30665
494.30666
494.30665
494.30661
494.30654
494.30644
494.30632
494.30628
494.30652
494.30651
494.30656
494.30657
494.30655
494.30651
494.30644
494.30634
494.30622
494.30618
494.30645
494.30641
494.30645
494.30645
494.30643
494.30639
494.30632
494.30622
494.3061
494.30607
494.30644
494.3064
494.30642
494.30642
494.3064
494.30635
494.30628
494.30618
494.30607
494.30611
501.44711
501.44707
501.44714
501.44717
501.44717
501.44714
501.44709
501.44702
501.44695
501.44694
501.44707
501.44708
501.44715
501.44717
501.44717
501.44714
501.44709
501.44701
501.44692
501.44691
501.44714
501.44715
501.44721
501.44723
501.44723
501.4472
501.44714
501.44706
501.44695
501.44693
501.44717
501.44717
501.44723
501.44725
501.44725
501.44721
501.44715
501.44707
501.44695
501.44692
501.44717
501.44717
501.44723
501.44725
501.44724
501.4472
501.44714
501.44705