/*--------------------------------*- C++ -*----------------------------------*\
| =========                 |                                                 |
| \\      /  F ield         | OpenFOAM: The Open Source CFD Toolbox           |
|  \\    /   O peration     | Version:  v2106                                 |
|   \\  /    A nd           | Website:  www.openfoam.com                      |
|    \\/     M anipulation  |                                                 |
\*---------------------------------------------------------------------------*/
FoamFile
{
    version     2.0;
    format      ascii;
    arch        "LSB;label=32;scalar=64";
    class       volVectorField;
    location    "42.5";
    object      flux;
}
// * * * * * * * * * * * * * * * * * * * * * * * * * * * * * * * * * * * * * //

dimensions      [0 1 -1 1 0 0 0];

internalField   nonuniform List<vector> 
4000
(
(-1.0378534e-06 -1.0378534e-06 0.7552852)
(-5.9111011e-07 -1.9346591e-07 0.75527834)
(1.2917643e-06 -2.8891521e-07 0.75528277)
(4.963142e-07 -2.9353283e-07 0.75528448)
(2.1452817e-07 -2.9733499e-07 0.75528537)
(-1.1386479e-08 -3.0455326e-07 0.75528559)
(-1.6893353e-07 -3.1907185e-07 0.75528529)
(-2.1095065e-07 -3.4856578e-07 0.75528468)
(-9.5185583e-08 -3.9565416e-07 0.75528417)
(1.684226e-09 -4.0658663e-07 0.75528434)
(-1.9346591e-07 -5.9111011e-07 0.75527834)
(5.3229711e-07 5.3229712e-07 0.75527677)
(1.1416639e-06 3.7692668e-07 0.75528069)
(4.8368453e-07 3.6389846e-07 0.75528236)
(1.9799752e-07 3.4872002e-07 0.75528322)
(-4.3991762e-08 3.235023e-07 0.75528339)
(-2.3495232e-07 2.7869707e-07 0.75528297)
(-3.2582412e-07 1.9321046e-07 0.75528211)
(-1.8221686e-07 4.0315456e-08 0.75528123)
(-9.2482441e-09 -1.2125441e-07 0.75528149)
(-2.8891521e-07 1.2917643e-06 0.75528277)
(3.7692668e-07 1.1416639e-06 0.75528069)
(1.1233656e-06 1.1233656e-06 0.75528454)
(4.6810754e-07 1.1081812e-06 0.75528618)
(1.7413201e-07 1.0865598e-06 0.75528699)
(-8.1409436e-08 1.0563586e-06 0.75528708)
(-2.9922538e-07 1.0126696e-06 0.75528654)
(-4.4933227e-07 9.4532324e-07 0.75528547)
(-4.0965046e-07 8.3364048e-07 0.75528414)
(-1.0602902e-07 6.6438571e-07 0.75528366)
(-2.9353283e-07 4.963142e-07 0.75528448)
(3.6389845e-07 4.8368452e-07 0.75528236)
(1.1081812e-06 4.6810754e-07 0.75528618)
(4.4687871e-07 4.468787e-07 0.75528778)
(1.4617498e-07 4.2085737e-07 0.75528852)
(-1.1788193e-07 3.8947849e-07 0.75528853)
(-3.4598772e-07 3.5110394e-07 0.75528788)
(-5.0485329e-07 3.052176e-07 0.75528667)
(-4.6315438e-07 2.5623949e-07 0.75528518)
(-1.2208475e-07 2.1909083e-07 0.75528456)
(-2.97335e-07 2.1452817e-07 0.75528537)
(3.4872001e-07 1.9799753e-07 0.75528322)
(1.0865598e-06 1.7413201e-07 0.75528699)
(4.2085738e-07 1.4617497e-07 0.75528852)
(1.167318e-07 1.167318e-07 0.75528919)
(-1.5116287e-07 8.6432003e-08 0.75528911)
(-3.8348627e-07 5.4744626e-08 0.75528837)
(-5.4419672e-07 2.1994064e-08 0.75528706)
(-4.9577723e-07 -8.4069805e-09 0.75528546)
(-1.3079479e-07 -2.7976712e-08 0.75528478)
(-3.0455326e-07 -1.1386482e-08 0.75528559)
(3.2350229e-07 -4.3991763e-08 0.75528339)
(1.0563586e-06 -8.1409435e-08 0.75528708)
(3.8947849e-07 -1.1788193e-07 0.75528853)
(8.6432009e-08 -1.5116287e-07 0.75528911)
(-1.798691e-07 -1.798691e-07 0.75528896)
(-4.1042566e-07 -2.0453189e-07 0.75528814)
(-5.680049e-07 -2.2496252e-07 0.75528676)
(-5.1312515e-07 -2.3997952e-07 0.75528511)
(-1.3513124e-07 -2.4788988e-07 0.7552844)
(-3.1907185e-07 -1.6893354e-07 0.75528529)
(2.7869706e-07 -2.3495233e-07 0.75528297)
(1.0126696e-06 -2.9922538e-07 0.75528654)
(3.5110395e-07 -3.4598771e-07 0.75528788)
(5.4744633e-08 -3.8348627e-07 0.75528837)
(-2.0453189e-07 -4.1042566e-07 0.75528814)
(-4.2857969e-07 -4.2857969e-07 0.75528727)
(-5.7964434e-07 -4.3833492e-07 0.75528585)
(-5.1870459e-07 -4.3990474e-07 0.75528418)
(-1.3606837e-07 -4.365144e-07 0.75528345)
(-3.4856578e-07 -2.1095066e-07 0.75528468)
(1.9321046e-07 -3.2582412e-07 0.75528211)
(9.4532324e-07 -4.4933226e-07 0.75528547)
(3.052176e-07 -5.0485328e-07 0.75528667)
(2.1994059e-08 -5.4419672e-07 0.75528706)
(-2.2496252e-07 -5.6800489e-07 0.75528676)
(-4.3833491e-07 -5.7964434e-07 0.75528585)
(-5.7932995e-07 -5.7932995e-07 0.75528442)
(-5.1130464e-07 -5.6610277e-07 0.75528276)
(-1.3287101e-07 -5.4561541e-07 0.75528207)
(-3.9565416e-07 -9.5185577e-08 0.75528417)
(4.0315457e-08 -1.8221685e-07 0.75528123)
(8.3364048e-07 -4.0965046e-07 0.75528414)
(2.5623949e-07 -4.6315438e-07 0.75528518)
(-8.4069779e-09 -4.9577723e-07 0.75528546)
(-2.3997952e-07 -5.1312516e-07 0.75528511)
(-4.3990475e-07 -5.1870459e-07 0.75528418)
(-5.6610277e-07 -5.1130463e-07 0.75528276)
(-4.8499005e-07 -4.8499005e-07 0.75528117)
(-1.2241013e-07 -4.3871326e-07 0.75528057)
(-4.0658663e-07 1.68423e-09 0.75528434)
(-1.2125441e-07 -9.2482417e-09 0.75528149)
(6.6438571e-07 -1.0602902e-07 0.75528366)
(2.1909082e-07 -1.2208476e-07 0.75528456)
(-2.7976713e-08 -1.307948e-07 0.75528478)
(-2.4788987e-07 -1.3513125e-07 0.7552844)
(-4.3651439e-07 -1.3606837e-07 0.75528345)
(-5.4561541e-07 -1.3287101e-07 0.75528207)
(-4.3871326e-07 -1.2241013e-07 0.75528057)
(-1.0201982e-07 -1.0201982e-07 0.75528021)
(-3.7652265e-06 -3.7652265e-06 1.1232985)
(-1.878826e-06 -9.9346886e-07 1.1232924)
(5.3665446e-06 -1.2234102e-06 1.1232973)
(2.4203711e-06 -1.2431196e-06 1.1232997)
(1.02483e-06 -1.2622512e-06 1.123301)
(-9.1752645e-08 -1.2977179e-06 1.1233012)
(-8.7447529e-07 -1.3698807e-06 1.1233006)
(-1.0499972e-06 -1.5204368e-06 1.1232996)
(-2.2219206e-07 -1.7604423e-06 1.1232987)
(1.6471499e-07 -1.6337807e-06 1.1232999)
(-9.9346886e-07 -1.878826e-06 1.1232924)
(1.9338982e-06 1.9338982e-06 1.1232909)
(4.9920685e-06 1.5263443e-06 1.1232955)
(2.3621096e-06 1.462168e-06 1.1232979)
(9.4293256e-07 1.3861224e-06 1.1232991)
(-2.5319696e-07 1.2620256e-06 1.1232992)
(-1.2085536e-06 1.0401741e-06 1.1232985)
(-1.6358397e-06 6.0840267e-07 1.123297)
(-3.9220793e-07 -1.7220364e-07 1.1232954)
(2.9137665e-07 -6.5870012e-07 1.1232968)
(-1.2234102e-06 5.3665446e-06 1.1232973)
(1.5263443e-06 4.9920685e-06 1.1232955)
(4.8948144e-06 4.8948144e-06 1.1233001)
(2.2801492e-06 4.8141891e-06 1.1233024)
(8.2468752e-07 4.706922e-06 1.1233035)
(-4.3770101e-07 4.5583089e-06 1.1233035)
(-1.5280982e-06 4.3431603e-06 1.1233026)
(-2.262375e-06 4.0081391e-06 1.1233008)
(-1.4892949e-06 3.4347869e-06 1.1232986)
(-1.59616e-07 2.6212053e-06 1.1232989)
(-1.2431196e-06 2.4203711e-06 1.1232997)
(1.462168e-06 2.3621096e-06 1.1232979)
(4.8141891e-06 2.2801492e-06 1.1233024)
(2.1742172e-06 2.1742172e-06 1.1233046)
(6.8705239e-07 2.046067e-06 1.1233056)
(-6.1695865e-07 1.8918591e-06 1.1233056)
(-1.7587234e-06 1.7034468e-06 1.1233045)
(-2.5442131e-06 1.477887e-06 1.1233025)
(-1.7791418e-06 1.2302774e-06 1.1233)
(-2.5101112e-07 1.0306683e-06 1.1233001)
(-1.2622512e-06 1.02483e-06 1.123301)
(1.3861224e-06 9.4293256e-07 1.1232991)
(4.706922e-06 8.2468752e-07 1.1233035)
(2.046067e-06 6.8705239e-07 1.1233056)
(5.4232941e-07 5.4232941e-07 1.1233065)
(-7.8032121e-07 3.9343576e-07 1.1233063)
(-1.9420703e-06 2.3791166e-07 1.1233051)
(-2.7355443e-06 7.7837703e-08 1.123303)
(-1.9365136e-06 -6.992236e-08 1.1233003)
(-2.9268877e-07 -1.6327648e-07 1.1233003)
(-1.2977179e-06 -9.1752645e-08 1.1233012)
(1.2620256e-06 -2.5319697e-07 1.1232992)
(4.5583089e-06 -4.3770102e-07 1.1233035)
(1.8918591e-06 -6.1695864e-07 1.1233056)
(3.9343576e-07 -7.8032121e-07 1.1233063)
(-9.2137639e-07 -9.2137639e-07 1.123306)
(-2.0743214e-06 -1.0424279e-06 1.1233047)
(-2.8520471e-06 -1.1424256e-06 1.1233025)
(-2.020256e-06 -1.2152366e-06 1.1232997)
(-3.1324719e-07 -1.2519738e-06 1.1232997)
(-1.3698807e-06 -8.744753e-07 1.1233006)
(1.0401741e-06 -1.2085536e-06 1.1232985)
(4.3431603e-06 -1.5280982e-06 1.1233026)
(1.7034468e-06 -1.7587234e-06 1.1233045)
(2.3791166e-07 -1.9420703e-06 1.1233051)
(-1.0424279e-06 -2.0743214e-06 1.1233047)
(-2.1631195e-06 -2.1631195e-06 1.1233033)
(-2.908353e-06 -2.2098661e-06 1.123301)
(-2.0460618e-06 -2.2144619e-06 1.1232982)
(-3.1718027e-07 -2.1919684e-06 1.1232982)
(-1.5204368e-06 -1.0499972e-06 1.1232996)
(6.0840267e-07 -1.6358397e-06 1.123297)
(4.0081391e-06 -2.262375e-06 1.1233008)
(1.477887e-06 -2.5442131e-06 1.1233025)
(7.7837704e-08 -2.7355443e-06 1.123303)
(-1.1424256e-06 -2.8520471e-06 1.1233025)
(-2.2098661e-06 -2.908353e-06 1.123301)
(-2.9033895e-06 -2.9033895e-06 1.1232987)
(-2.0023583e-06 -2.826286e-06 1.1232959)
(-2.9825153e-07 -2.6947389e-06 1.123296)
(-1.7604423e-06 -2.2219206e-07 1.1232987)
(-1.7220363e-07 -3.9220793e-07 1.1232954)
(3.4347869e-06 -1.4892949e-06 1.1232986)
(1.2302774e-06 -1.7791418e-06 1.1233)
(-6.9922355e-08 -1.9365136e-06 1.1233003)
(-1.2152366e-06 -2.020256e-06 1.1232997)
(-2.2144619e-06 -2.0460619e-06 1.1232982)
(-2.826286e-06 -2.0023583e-06 1.1232959)
(-1.8374113e-06 -1.8374113e-06 1.1232933)
(-2.2948222e-07 -1.4708236e-06 1.1232936)
(-1.6337807e-06 1.64715e-07 1.1232999)
(-6.5870011e-07 2.9137666e-07 1.1232968)
(2.6212053e-06 -1.59616e-07 1.1232989)
(1.0306683e-06 -2.5101111e-07 1.1233001)
(-1.6327647e-07 -2.9268876e-07 1.1233003)
(-1.2519738e-06 -3.1324719e-07 1.1232997)
(-2.1919684e-06 -3.1718027e-07 1.1232982)
(-2.6947389e-06 -2.9825153e-07 1.123296)
(-1.4708236e-06 -2.2948222e-07 1.1232936)
(-5.3859722e-08 -5.3859721e-08 1.123295)
(-5.0880906e-06 -5.0880906e-06 1.122756)
(-1.7584663e-06 -1.1957543e-06 1.1227524)
(8.5970314e-06 -1.4769787e-06 1.1227564)
(4.1167948e-06 -1.5067772e-06 1.1227585)
(1.6807862e-06 -1.5403396e-06 1.1227595)
(-3.3784268e-07 -1.6027828e-06 1.1227596)
(-1.81433e-06 -1.7325761e-06 1.1227588)
(-2.1381976e-06 -2.0250188e-06 1.1227574)
(2.4690554e-07 -2.5792962e-06 1.1227561)
(7.9731298e-07 -2.4764074e-06 1.1227578)
(-1.1957543e-06 -1.7584663e-06 1.1227524)
(3.6582009e-06 3.6582009e-06 1.1227518)
(8.1304971e-06 3.1430055e-06 1.1227556)
(4.0217536e-06 3.0370827e-06 1.1227577)
(1.5367778e-06 2.9017687e-06 1.1227587)
(-6.2619752e-07 2.6811811e-06 1.1227587)
(-2.447684e-06 2.2850973e-06 1.1227578)
(-3.4082778e-06 1.4864652e-06 1.122756)
(-4.3017734e-07 -8.5146437e-08 1.1227538)
(9.0020178e-07 -1.0599375e-06 1.1227555)
(-1.4769787e-06 8.5970314e-06 1.1227564)
(3.1430055e-06 8.1304971e-06 1.1227556)
(7.9759132e-06 7.9759132e-06 1.1227594)
(3.875558e-06 7.8320565e-06 1.1227614)
(1.3248845e-06 7.6396028e-06 1.1227624)
(-9.545141e-07 7.3731712e-06 1.1227623)
(-3.0090459e-06 6.9890391e-06 1.1227611)
(-4.5084415e-06 6.3960185e-06 1.122759)
(-2.2994973e-06 5.3745805e-06 1.1227562)
(1.4745223e-07 3.9896397e-06 1.122757)
(-1.5067772e-06 4.1167948e-06 1.1227585)
(3.0370827e-06 4.0217536e-06 1.1227577)
(7.8320565e-06 3.875558e-06 1.1227614)
(3.6854432e-06 3.6854432e-06 1.1227634)
(1.0778924e-06 3.4557759e-06 1.1227642)
(-1.2767613e-06 3.1793978e-06 1.122764)
(-3.4248366e-06 2.8413979e-06 1.1227627)
(-5.0227363e-06 2.4363941e-06 1.1227604)
(-2.836556e-06 1.9859632e-06 1.1227573)
(-2.3092057e-08 1.6180724e-06 1.1227579)
(-1.5403396e-06 1.6807862e-06 1.1227595)
(2.9017687e-06 1.5367778e-06 1.1227587)
(7.6396028e-06 1.3248845e-06 1.1227624)
(3.4557759e-06 1.0778924e-06 1.1227642)
(8.1883913e-07 8.1883915e-07 1.122765)
(-1.5688921e-06 5.5246675e-07 1.1227646)
(-3.7520496e-06 2.7456568e-07 1.1227632)
(-5.3638762e-06 -1.0683097e-08 1.1227607)
(-3.1178189e-06 -2.7368778e-07 1.1227575)
(-9.7808359e-08 -4.3985716e-07 1.122758)
(-1.6027828e-06 -3.3784268e-07 1.1227596)
(2.6811811e-06 -6.2619751e-07 1.1227587)
(7.3731712e-06 -9.545141e-07 1.1227623)
(3.1793978e-06 -1.2767613e-06 1.122764)
(5.5246674e-07 -1.5688921e-06 1.1227646)
(-1.8210347e-06 -1.8210347e-06 1.1227641)
(-3.9879864e-06 -2.0369496e-06 1.1227626)
(-5.5709897e-06 -2.2143745e-06 1.12276)
(-3.2657301e-06 -2.3419108e-06 1.1227567)
(-1.3387165e-07 -2.4041137e-06 1.1227572)
(-1.7325761e-06 -1.81433e-06 1.1227588)
(2.2850973e-06 -2.447684e-06 1.1227578)
(6.9890391e-06 -3.0090459e-06 1.1227611)
(2.8413979e-06 -3.4248366e-06 1.1227627)
(2.7456569e-07 -3.7520496e-06 1.1227632)
(-2.0369496e-06 -3.9879864e-06 1.1227626)
(-4.1453894e-06 -4.1453894e-06 1.122761)
(-5.6688374e-06 -4.2252896e-06 1.1227584)
(-3.3075582e-06 -4.2239505e-06 1.122755)
(-1.3927698e-07 -4.1664557e-06 1.1227555)
(-2.0250188e-06 -2.1381976e-06 1.1227574)
(1.4864652e-06 -3.4082778e-06 1.122756)
(6.3960185e-06 -4.5084415e-06 1.122759)
(2.4363941e-06 -5.0227363e-06 1.1227604)
(-1.0683092e-08 -5.3638762e-06 1.1227607)
(-2.2143745e-06 -5.5709897e-06 1.12276)
(-4.2252897e-06 -5.6688374e-06 1.1227584)
(-5.6495509e-06 -5.6495509e-06 1.1227558)
(-3.2068961e-06 -5.4712072e-06 1.1227525)
(-9.5541746e-08 -5.1184562e-06 1.122753)
(-2.5792962e-06 2.4690552e-07 1.1227561)
(-8.5146433e-08 -4.3017734e-07 1.1227538)
(5.3745805e-06 -2.2994972e-06 1.1227562)
(1.9859632e-06 -2.836556e-06 1.1227573)
(-2.7368777e-07 -3.1178189e-06 1.1227575)
(-2.3419108e-06 -3.2657301e-06 1.1227567)
(-4.2239505e-06 -3.3075582e-06 1.122755)
(-5.4712072e-06 -3.2068961e-06 1.1227525)
(-2.7764635e-06 -2.7764635e-06 1.1227493)
(9.5890361e-08 -1.378654e-06 1.1227502)
(-2.4764074e-06 7.9731297e-07 1.1227578)
(-1.0599375e-06 9.0020178e-07 1.1227555)
(3.9896397e-06 1.4745222e-07 1.122757)
(1.6180724e-06 -2.3092061e-08 1.1227579)
(-4.3985715e-07 -9.7808359e-08 1.122758)
(-2.4041137e-06 -1.3387165e-07 1.1227572)
(-4.1664557e-06 -1.3927699e-07 1.1227555)
(-5.1184562e-06 -9.5541746e-08 1.122753)
(-1.378654e-06 9.5890361e-08 1.1227502)
(8.3633128e-07 8.3633128e-07 1.1227533)
(-6.2010024e-06 -6.2010024e-06 1.1219173)
(-1.534634e-06 -1.3728483e-06 1.1219141)
(1.1483747e-05 -1.7081139e-06 1.1219178)
(5.5810125e-06 -1.7487344e-06 1.1219197)
(2.1432744e-06 -1.7967168e-06 1.1219205)
(-7.921133e-07 -1.8851445e-06 1.1219204)
(-3.0516038e-06 -2.068423e-06 1.1219194)
(-3.734926e-06 -2.4909162e-06 1.1219177)
(1.4488956e-07 -3.3438241e-06 1.121916)
(1.2663097e-06 -3.1931168e-06 1.1219172)
(-1.3728483e-06 -1.534634e-06 1.1219141)
(5.2046978e-06 5.2046978e-06 1.1219136)
(1.0919917e-05 4.5777598e-06 1.1219171)
(5.4481082e-06 4.4286864e-06 1.121919)
(1.9386594e-06 4.2341315e-06 1.1219198)
(-1.1996726e-06 3.9188349e-06 1.1219196)
(-3.9602614e-06 3.3554682e-06 1.1219184)
(-5.6480274e-06 2.2107045e-06 1.1219164)
(-9.0841121e-07 -1.2304536e-07 1.1219137)
(1.417017e-06 -1.4356636e-06 1.1219151)
(-1.7081139e-06 1.1483747e-05 1.1219178)
(4.5777598e-06 1.0919917e-05 1.1219171)
(1.0707735e-05 1.0707735e-05 1.1219206)
(5.2373842e-06 1.0500302e-05 1.1219224)
(1.6334229e-06 1.0223002e-05 1.1219231)
(-1.6707767e-06 9.8397609e-06 1.1219228)
(-4.7597344e-06 9.2884689e-06 1.1219215)
(-7.2134398e-06 8.4422531e-06 1.1219191)
(-3.5014786e-06 6.979104e-06 1.1219158)
(3.9123081e-07 5.0701553e-06 1.1219164)
(-1.7487344e-06 5.5810125e-06 1.1219197)
(4.4286864e-06 5.4481082e-06 1.121919)
(1.0500302e-05 5.2373842e-06 1.1219224)
(4.9633749e-06 4.9633749e-06 1.1219241)
(1.2781182e-06 4.6331005e-06 1.1219247)
(-2.1342057e-06 4.2361252e-06 1.1219243)
(-5.3577692e-06 3.7507961e-06 1.1219228)
(-7.9573923e-06 3.1698377e-06 1.1219202)
(-4.2805088e-06 2.5191515e-06 1.1219167)
(1.4438454e-07 1.9883193e-06 1.1219171)
(-1.7967168e-06 2.1432744e-06 1.1219205)
(4.2341316e-06 1.9386594e-06 1.1219198)
(1.0223002e-05 1.6334229e-06 1.1219231)
(4.6331005e-06 1.2781182e-06 1.1219247)
(9.0617314e-07 9.0617314e-07 1.1219253)
(-2.5530811e-06 5.2416143e-07 1.1219247)
(-5.8260219e-06 1.2619362e-07 1.1219231)
(-8.4450844e-06 -2.8121742e-07 1.1219204)
(-4.6829969e-06 -6.565301e-07 1.1219167)
(3.7342714e-08 -8.9360997e-07 1.121917)
(-1.8851445e-06 -7.921133e-07 1.1219204)
(3.9188349e-06 -1.1996726e-06 1.1219196)
(9.8397609e-06 -1.6707767e-06 1.1219228)
(4.2361252e-06 -2.1342057e-06 1.1219243)
(5.2416143e-07 -2.5530811e-06 1.1219247)
(-2.9141852e-06 -2.9141852e-06 1.1219241)
(-6.1631481e-06 -3.2225947e-06 1.1219224)
(-8.740116e-06 -3.4747831e-06 1.1219195)
(-4.8929013e-06 -3.65458e-06 1.1219158)
(-1.3668701e-08 -3.7411199e-06 1.121916)
(-2.068423e-06 -3.0516038e-06 1.1219194)
(3.3554682e-06 -3.9602614e-06 1.1219184)
(9.2884689e-06 -4.7597344e-06 1.1219215)
(3.7507961e-06 -5.3577692e-06 1.1219228)
(1.2619362e-07 -5.8260219e-06 1.1219231)
(-3.2225947e-06 -6.1631481e-06 1.1219224)
(-6.3866198e-06 -6.3866198e-06 1.1219206)
(-8.8770697e-06 -6.4971143e-06 1.1219177)
(-4.9493337e-06 -6.4879632e-06 1.1219139)
(-2.0350574e-08 -6.3958294e-06 1.1219142)
(-2.4909162e-06 -3.734926e-06 1.1219177)
(2.2107045e-06 -5.6480274e-06 1.1219164)
(8.4422531e-06 -7.2134398e-06 1.1219191)
(3.1698377e-06 -7.9573923e-06 1.1219202)
(-2.8121742e-07 -8.4450844e-06 1.1219204)
(-3.4747831e-06 -8.740116e-06 1.1219195)
(-6.4971143e-06 -8.8770697e-06 1.1219177)
(-8.8414594e-06 -8.8414594e-06 1.1219148)
(-4.7916164e-06 -8.5583485e-06 1.1219111)
(4.7753808e-08 -7.9610103e-06 1.1219114)
(-3.3438241e-06 1.4488955e-07 1.121916)
(-1.2304536e-07 -9.0841121e-07 1.1219137)
(6.979104e-06 -3.5014786e-06 1.1219158)
(2.5191515e-06 -4.2805088e-06 1.1219167)
(-6.5653009e-07 -4.6829969e-06 1.1219167)
(-3.65458e-06 -4.8929013e-06 1.1219158)
(-6.4879632e-06 -4.9493337e-06 1.1219139)
(-8.5583486e-06 -4.7916164e-06 1.1219111)
(-4.0688846e-06 -4.0688846e-06 1.1219075)
(3.7787494e-07 -1.17392e-06 1.1219082)
(-3.1931168e-06 1.2663097e-06 1.1219172)
(-1.4356636e-06 1.417017e-06 1.1219151)
(5.0701553e-06 3.9123081e-07 1.1219164)
(1.9883193e-06 1.4438454e-07 1.1219171)
(-8.9360996e-07 3.7342716e-08 1.121917)
(-3.7411199e-06 -1.3668706e-08 1.121916)
(-6.3958294e-06 -2.035058e-08 1.1219142)
(-7.9610103e-06 4.7753801e-08 1.1219114)
(-1.17392e-06 3.7787494e-07 1.1219082)
(1.9777303e-06 1.9777303e-06 1.1219116)
(-7.2290266e-06 -7.2290266e-06 1.1207889)
(-1.290001e-06 -1.5295247e-06 1.1207859)
(1.416333e-05 -1.9245831e-06 1.1207894)
(6.8513748e-06 -1.9778414e-06 1.1207911)
(2.4209515e-06 -2.0406491e-06 1.1207918)
(-1.4375999e-06 -2.1549329e-06 1.1207915)
(-4.5090663e-06 -2.3908463e-06 1.1207903)
(-5.6165592e-06 -2.9398547e-06 1.1207884)
(-2.9565069e-07 -4.0843687e-06 1.1207864)
(1.619207e-06 -3.8628478e-06 1.1207873)
(-1.5295247e-06 -1.290001e-06 1.1207859)
(6.666663e-06 6.666663e-06 1.1207855)
(1.3490855e-05 5.9148327e-06 1.1207888)
(6.6772757e-06 5.7182147e-06 1.1207905)
(2.1553143e-06 5.463656e-06 1.1207911)
(-1.9628956e-06 5.0546208e-06 1.1207907)
(-5.6864491e-06 4.3269334e-06 1.1207894)
(-8.1568428e-06 2.8449642e-06 1.1207871)
(-1.6801401e-06 -2.340554e-07 1.1207842)
(1.8407279e-06 -1.8248186e-06 1.1207853)
(-1.9245831e-06 1.416333e-05 1.1207894)
(5.9148327e-06 1.3490855e-05 1.1207888)
(1.3214881e-05 1.3214881e-05 1.120792)
(6.400198e-06 1.2941668e-05 1.1207936)
(1.7573576e-06 1.2579691e-05 1.1207942)
(-2.5743226e-06 1.2081443e-05 1.1207937)
(-6.7187231e-06 1.1366404e-05 1.1207922)
(-1.0177548e-05 1.0273328e-05 1.1207896)
(-4.9654336e-06 8.3776405e-06 1.1207861)
(5.5869807e-07 5.9753613e-06 1.1207865)
(-1.9778414e-06 6.8513748e-06 1.1207911)
(5.7182147e-06 6.6772757e-06 1.1207905)
(1.2941668e-05 6.400198e-06 1.1207936)
(6.0420849e-06 6.0420849e-06 1.1207952)
(1.2950889e-06 5.6122798e-06 1.1207956)
(-3.1761824e-06 5.0968853e-06 1.120795)
(-7.4945638e-06 4.4675178e-06 1.1207934)
(-1.1145606e-05 3.715381e-06 1.1207906)
(-5.9781063e-06 2.8693596e-06 1.1207868)
(2.3920848e-07 2.1828475e-06 1.120787)
(-2.0406491e-06 2.4209515e-06 1.1207918)
(5.463656e-06 2.1553143e-06 1.1207911)
(1.2579691e-05 1.7573576e-06 1.1207942)
(5.6122798e-06 1.2950889e-06 1.1207956)
(8.1215804e-07 8.1215804e-07 1.120796)
(-3.7190846e-06 3.1694509e-07 1.1207953)
(-8.1002275e-06 -1.9807857e-07 1.1207935)
(-1.1775707e-05 -7.2395466e-07 1.1207906)
(-6.497967e-06 -1.2079084e-06 1.1207867)
(1.0102336e-07 -1.5130316e-06 1.1207868)
(-2.1549329e-06 -1.4375999e-06 1.1207915)
(5.0546208e-06 -1.9628956e-06 1.1207907)
(1.2081443e-05 -2.5743226e-06 1.1207937)
(5.0968854e-06 -3.1761824e-06 1.120795)
(3.1694509e-07 -3.7190846e-06 1.1207953)
(-4.186419e-06 -4.186419e-06 1.1207945)
(-8.5354636e-06 -4.5844169e-06 1.1207926)
(-1.2155436e-05 -4.9081917e-06 1.1207896)
(-6.7671831e-06 -5.1372049e-06 1.1207856)
(3.5793036e-08 -5.2461007e-06 1.1207856)
(-2.3908463e-06 -4.5090663e-06 1.1207903)
(4.3269334e-06 -5.6864491e-06 1.1207894)
(1.1366404e-05 -6.7187231e-06 1.1207922)
(4.4675178e-06 -7.4945638e-06 1.1207934)
(-1.9807857e-07 -8.1002275e-06 1.1207935)
(-4.5844169e-06 -8.5354636e-06 1.1207926)
(-8.8220002e-06 -8.8220002e-06 1.1207906)
(-1.2328495e-05 -8.9599703e-06 1.1207876)
(-6.835876e-06 -8.9405788e-06 1.1207836)
(2.8426174e-08 -8.8142057e-06 1.1207836)
(-2.9398547e-06 -5.6165592e-06 1.1207884)
(2.8449642e-06 -8.1568428e-06 1.1207871)
(1.0273328e-05 -1.0177548e-05 1.1207896)
(3.715381e-06 -1.1145606e-05 1.1207906)
(-7.2395466e-07 -1.1775707e-05 1.1207906)
(-4.9081917e-06 -1.2155436e-05 1.1207896)
(-8.9599703e-06 -1.2328495e-05 1.1207876)
(-1.2274015e-05 -1.2274015e-05 1.1207845)
(-6.6214185e-06 -1.188761e-05 1.1207806)
(1.2004176e-07 -1.1056531e-05 1.1207807)
(-4.0843687e-06 -2.9565069e-07 1.1207864)
(-2.3405541e-07 -1.6801401e-06 1.1207842)
(8.3776405e-06 -4.9654336e-06 1.1207861)
(2.8693596e-06 -5.9781063e-06 1.1207868)
(-1.2079084e-06 -6.497967e-06 1.1207867)
(-5.1372049e-06 -6.7671831e-06 1.1207856)
(-8.9405788e-06 -6.835876e-06 1.1207836)
(-1.188761e-05 -6.6214185e-06 1.1207806)
(-5.6183925e-06 -5.6183925e-06 1.1207768)
(5.8247862e-07 -1.1133499e-06 1.1207773)
(-3.8628478e-06 1.619207e-06 1.1207873)
(-1.8248187e-06 1.8407279e-06 1.1207853)
(5.9753613e-06 5.5869807e-07 1.1207865)
(2.1828475e-06 2.3920848e-07 1.120787)
(-1.5130316e-06 1.0102336e-07 1.1207868)
(-5.2461007e-06 3.5793038e-08 1.1207856)
(-8.8142057e-06 2.8426171e-08 1.1207836)
(-1.1056531e-05 1.2004175e-07 1.1207807)
(-1.1133499e-06 5.8247862e-07 1.1207773)
(3.1234037e-06 3.1234037e-06 1.1207806)
(-8.1740066e-06 -8.1740066e-06 1.1193818)
(-1.003934e-06 -1.6520704e-06 1.1193791)
(1.6679049e-05 -2.1090227e-06 1.1193824)
(7.9601426e-06 -2.1761027e-06 1.119384)
(2.5369441e-06 -2.2539115e-06 1.1193845)
(-2.247652e-06 -2.3935743e-06 1.1193841)
(-6.1400989e-06 -2.6808307e-06 1.1193828)
(-7.6902178e-06 -3.3531279e-06 1.1193807)
(-9.6373987e-07 -4.783693e-06 1.1193785)
(1.8885373e-06 -4.494086e-06 1.1193792)
(-1.6520704e-06 -1.003934e-06 1.1193791)
(8.0935404e-06 8.0935404e-06 1.1193788)
(1.5893e-05 7.2105092e-06 1.1193819)
(7.7428093e-06 6.9632165e-06 1.1193835)
(2.2107368e-06 6.6484238e-06 1.1193839)
(-2.8880307e-06 6.1474752e-06 1.1193834)
(-7.5794292e-06 5.2597387e-06 1.119382)
(-1.0844511e-05 3.4499648e-06 1.1193795)
(-2.6751769e-06 -3.5754352e-07 1.1193765)
(2.1781442e-06 -2.2139928e-06 1.1193774)
(-2.1090227e-06 1.6679049e-05 1.1193824)
(7.2105093e-06 1.5893e-05 1.1193819)
(1.5548725e-05 1.5548725e-05 1.119385)
(7.398057e-06 1.5208008e-05 1.1193865)
(1.7212028e-06 1.4761907e-05 1.1193869)
(-3.6363371e-06 1.4151073e-05 1.1193863)
(-8.8376096e-06 1.3276756e-05 1.1193846)
(-1.3307501e-05 1.1944515e-05 1.1193819)
(-6.6276976e-06 9.6284176e-06 1.1193783)
(6.509043e-07 6.7539678e-06 1.1193784)
(-2.1761027e-06 7.9601426e-06 1.119384)
(6.9632165e-06 7.7428093e-06 1.1193835)
(1.5208008e-05 7.398057e-06 1.1193865)
(6.9559918e-06 6.9559918e-06 1.1193878)
(1.1538022e-06 6.4281622e-06 1.1193881)
(-4.373182e-06 5.797079e-06 1.1193874)
(-9.7859874e-06 5.0276613e-06 1.1193856)
(-1.4492849e-05 4.1097781e-06 1.1193827)
(-7.8657235e-06 3.0744196e-06 1.1193788)
(2.618444e-07 2.2386712e-06 1.1193788)
(-2.2539115e-06 2.5369441e-06 1.1193845)
(6.6484238e-06 2.2107368e-06 1.1193839)
(1.4761907e-05 1.7212028e-06 1.1193869)
(6.4281622e-06 1.1538022e-06 1.1193881)
(5.6229004e-07 5.6229003e-07 1.1193884)
(-5.036838e-06 -4.3203187e-08 1.1193875)
(-1.0524911e-05 -6.718376e-07 1.1193856)
(-1.5260742e-05 -1.3122232e-06 1.1193826)
(-8.4988043e-06 -1.9009892e-06 1.1193785)
(9.3738754e-08 -2.2713169e-06 1.1193784)
(-2.3935743e-06 -2.247652e-06 1.1193841)
(6.1474752e-06 -2.8880307e-06 1.1193834)
(1.4151073e-05 -3.6363371e-06 1.1193863)
(5.797079e-06 -4.373182e-06 1.1193874)
(-4.3203181e-08 -5.036838e-06 1.1193875)
(-5.6073096e-06 -5.6073096e-06 1.1193866)
(-1.1055007e-05 -6.0918946e-06 1.1193846)
(-1.5722001e-05 -6.4843256e-06 1.1193814)
(-8.8248171e-06 -6.759967e-06 1.1193773)
(1.4959296e-08 -6.8894484e-06 1.1193772)
(-2.6808307e-06 -6.1400989e-06 1.1193828)
(5.2597387e-06 -7.5794292e-06 1.119382)
(1.3276756e-05 -8.8376096e-06 1.1193846)
(5.0276613e-06 -9.7859874e-06 1.1193856)
(-6.718376e-07 -1.0524911e-05 1.1193856)
(-6.0918946e-06 -1.1055007e-05 1.1193846)
(-1.1401927e-05 -1.1401927e-05 1.1193825)
(-1.5928815e-05 -1.1565072e-05 1.1193793)
(-8.9039271e-06 -1.1533711e-05 1.1193752)
(7.4177906e-09 -1.137247e-05 1.119375)
(-3.3531279e-06 -7.6902178e-06 1.1193807)
(3.4499648e-06 -1.0844511e-05 1.1193795)
(1.1944515e-05 -1.3307501e-05 1.1193819)
(4.1097781e-06 -1.4492849e-05 1.1193827)
(-1.3122232e-06 -1.5260742e-05 1.1193826)
(-6.4843256e-06 -1.5722001e-05 1.1193814)
(-1.1565072e-05 -1.5928815e-05 1.1193793)
(-1.5853786e-05 -1.5853786e-05 1.1193761)
(-8.6322149e-06 -1.5365102e-05 1.1193721)
(1.224538e-07 -1.4310094e-05 1.119372)
(-4.783693e-06 -9.6373987e-07 1.1193785)
(-3.5754352e-07 -2.6751769e-06 1.1193765)
(9.6284176e-06 -6.6276976e-06 1.1193783)
(3.0744196e-06 -7.8657235e-06 1.1193788)
(-1.9009892e-06 -8.4988043e-06 1.1193785)
(-6.7599669e-06 -8.8248171e-06 1.1193773)
(-1.1533711e-05 -8.9039271e-06 1.1193752)
(-1.5365102e-05 -8.6322149e-06 1.1193721)
(-7.3602357e-06 -7.3602357e-06 1.1193682)
(7.1075604e-07 -1.2456312e-06 1.1193684)
(-4.494086e-06 1.8885373e-06 1.1193792)
(-2.2139928e-06 2.1781442e-06 1.1193774)
(6.7539678e-06 6.509043e-07 1.1193784)
(2.2386712e-06 2.6184441e-07 1.1193788)
(-2.2713169e-06 9.3738755e-08 1.1193784)
(-6.8894484e-06 1.4959289e-08 1.1193772)
(-1.137247e-05 7.4177881e-09 1.119375)
(-1.4310094e-05 1.224538e-07 1.119372)
(-1.2456312e-06 7.1075604e-07 1.1193684)
(4.1988571e-06 4.1988571e-06 1.1193715)
(-9.0295485e-06 -9.0295485e-06 1.117709)
(-6.6252144e-07 -1.7351741e-06 1.1177066)
(1.9046775e-05 -2.2540862e-06 1.1177098)
(8.9312182e-06 -2.3356104e-06 1.1177112)
(2.5179326e-06 -2.4283829e-06 1.1177116)
(-3.1888736e-06 -2.592748e-06 1.117711)
(-7.899883e-06 -2.9296711e-06 1.1177096)
(-9.8973649e-06 -3.7213295e-06 1.1177074)
(-1.8069029e-06 -5.4308005e-06 1.1177051)
(2.0874272e-06 -5.0825231e-06 1.1177056)
(-1.7351741e-06 -6.6252143e-07 1.1177066)
(9.5006703e-06 9.5006703e-06 1.1177064)
(1.814612e-05 8.484699e-06 1.1177094)
(8.669773e-06 8.1850987e-06 1.1177108)
(2.1322262e-06 7.8105182e-06 1.1177111)
(-3.9408058e-06 7.2200962e-06 1.1177105)
(-9.5927552e-06 6.1775823e-06 1.1177089)
(-1.3649059e-05 4.0511002e-06 1.1177064)
(-3.8486931e-06 -4.6387444e-07 1.1177032)
(2.4357046e-06 -2.5853417e-06 1.1177039)
(-2.2540862e-06 1.9046775e-05 1.1177098)
(8.484699e-06 1.814612e-05 1.1177094)
(1.7731203e-05 1.7731203e-05 1.1177123)
(8.2570373e-06 1.7322341e-05 1.1177136)
(1.55293e-06 1.6793352e-05 1.1177139)
(-4.8218096e-06 1.6072981e-05 1.1177132)
(-1.1068879e-05 1.5044622e-05 1.1177114)
(-1.6538822e-05 1.3481875e-05 1.1177086)
(-8.4433449e-06 1.0759913e-05 1.1177049)
(6.7311564e-07 7.4322592e-06 1.1177049)
(-2.3356104e-06 8.9312182e-06 1.1177112)
(8.1850987e-06 8.669773e-06 1.1177108)
(1.7322341e-05 8.2570373e-06 1.1177136)
(7.7319225e-06 7.7319225e-06 1.1177148)
(8.8286668e-07 7.1081875e-06 1.117715)
(-5.689536e-06 6.3647254e-06 1.1177142)
(-1.2183862e-05 5.4598422e-06 1.1177123)
(-1.7933768e-05 4.3821509e-06 1.1177093)
(-9.8983081e-06 3.16419e-06 1.1177054)
(2.1726913e-07 2.1851724e-06 1.1177052)
(-2.4283829e-06 2.5179326e-06 1.1177116)
(7.8105182e-06 2.1322262e-06 1.1177111)
(1.6793352e-05 1.55293e-06 1.1177139)
(7.1081875e-06 8.8286668e-07 1.117715)
(1.8573296e-07 1.8573296e-07 1.1177151)
(-6.4701549e-06 -5.266567e-07 1.1177142)
(-1.3051454e-05 -1.2650985e-06 1.1177122)
(-1.8834475e-05 -2.0158663e-06 1.1177091)
(-1.0640323e-05 -2.7055645e-06 1.117705)
(2.0437234e-08 -3.1384794e-06 1.1177047)
(-2.592748e-06 -3.1888735e-06 1.117711)
(7.2200962e-06 -3.9408058e-06 1.1177105)
(1.6072981e-05 -4.8218096e-06 1.1177132)
(6.3647255e-06 -5.689536e-06 1.1177142)
(-5.266567e-07 -6.4701549e-06 1.1177142)
(-7.1403674e-06 -7.1403674e-06 1.1177131)
(-1.3673071e-05 -7.7085191e-06 1.117711)
(-1.9374234e-05 -8.1670401e-06 1.1177078)
(-1.1020921e-05 -8.4874467e-06 1.1177037)
(-7.1340786e-08 -8.6365505e-06 1.1177034)
(-2.9296711e-06 -7.899883e-06 1.1177096)
(6.1775823e-06 -9.5927552e-06 1.1177089)
(1.5044622e-05 -1.1068879e-05 1.1177114)
(5.4598422e-06 -1.2183862e-05 1.1177123)
(-1.2650985e-06 -1.3051454e-05 1.1177122)
(-7.7085191e-06 -1.3673071e-05 1.117711)
(-1.4078127e-05 -1.4078127e-05 1.1177089)
(-1.9613402e-05 -1.4265345e-05 1.1177056)
(-1.1109834e-05 -1.422221e-05 1.1177015)
(-7.8965312e-08 -1.402711e-05 1.1177011)
(-3.7213295e-06 -9.8973649e-06 1.1177074)
(4.0511002e-06 -1.3649059e-05 1.1177064)
(1.3481875e-05 -1.6538822e-05 1.1177086)
(4.3821509e-06 -1.7933768e-05 1.1177093)
(-2.0158664e-06 -1.8834475e-05 1.1177091)
(-8.1670401e-06 -1.9374234e-05 1.1177078)
(-1.4265345e-05 -1.9613402e-05 1.1177056)
(-1.9518318e-05 -1.9518318e-05 1.1177024)
(-1.0782686e-05 -1.8931255e-05 1.1176983)
(5.8725799e-08 -1.766285e-05 1.117698)
(-5.4308005e-06 -1.8069029e-06 1.1177051)
(-4.6387445e-07 -3.8486931e-06 1.1177032)
(1.0759913e-05 -8.4433449e-06 1.1177049)
(3.16419e-06 -9.8983081e-06 1.1177054)
(-2.7055645e-06 -1.0640323e-05 1.117705)
(-8.4874467e-06 -1.1020921e-05 1.1177037)
(-1.422221e-05 -1.1109834e-05 1.1177015)
(-1.8931255e-05 -1.0782686e-05 1.1176983)
(-9.2543666e-06 -9.2543666e-06 1.1176943)
(7.6663777e-07 -1.5685637e-06 1.1176944)
(-5.0825231e-06 2.0874272e-06 1.1177056)
(-2.5853417e-06 2.4357046e-06 1.1177039)
(7.4322592e-06 6.7311564e-07 1.1177049)
(2.1851724e-06 2.1726913e-07 1.1177052)
(-3.1384794e-06 2.0437233e-08 1.1177047)
(-8.6365505e-06 -7.1340782e-08 1.1177034)
(-1.402711e-05 -7.8965311e-08 1.1177011)
(-1.766285e-05 5.8725798e-08 1.117698)
(-1.5685637e-06 7.6663777e-07 1.1176944)
(5.1825949e-06 5.1825949e-06 1.1176972)
(-9.7900115e-06 -9.7900115e-06 1.1157848)
(-2.5961263e-07 -1.777048e-06 1.1157826)
(2.1270702e-05 -2.3568978e-06 1.1157856)
(9.7814564e-06 -2.4531337e-06 1.1157869)
(2.3881345e-06 -2.5606507e-06 1.1157872)
(-4.2292937e-06 -2.7488728e-06 1.1157866)
(-9.7480899e-06 -3.1334847e-06 1.1157851)
(-1.2192214e-05 -4.0398592e-06 1.1157828)
(-2.7908303e-06 -6.019214e-06 1.1157804)