/*--------------------------------*- C++ -*----------------------------------*\
| =========                 |                                                 |
| \\      /  F ield         | OpenFOAM: The Open Source CFD Toolbox           |
|  \\    /   O peration     | Version:  v2106                                 |
|   \\  /    A nd           | Website:  www.openfoam.com                      |
|    \\/     M anipulation  |                                                 |
\*---------------------------------------------------------------------------*/
FoamFile
{
    version     2.0;
    format      ascii;
    arch        "LSB;label=32;scalar=64";
    class       volScalarField;
    location    "42.5";
    object      gradTz;
}
// * * * * * * * * * * * * * * * * * * * * * * * * * * * * * * * * * * * * * //

dimensions      [0 -1 0 1 0 0 0];

internalField   nonuniform List<scalar> 
4000
(
592.26577
592.2604
592.26387
592.26521
592.2659
592.26608
592.26584
592.26536
592.26496
592.26509
592.2604
592.25917
592.26223
592.26355
592.26422
592.26435
592.26402
592.26335
592.26266
592.26286
592.26387
592.26223
592.26525
592.26654
592.26717
592.26724
592.26681
592.26598
592.26493
592.26456
592.26521
592.26355
592.26654
592.26779
592.26837
592.26837
592.26786
592.26692
592.26575
592.26527
592.2659
592.26422
592.26717
592.26837
592.26889
592.26883
592.26825
592.26722
592.26597
592.26544
592.26608
592.26435
592.26724
592.26837
592.26883
592.26871
592.26807
592.26699
592.2657
592.26514
592.26584
592.26402
592.26681
592.26786
592.26825
592.26807
592.26739
592.26628
592.26497
592.2644
592.26536
592.26335
592.26598
592.26692
592.26722
592.26699
592.26628
592.26516
592.26386
592.26332
592.26496
592.26266
592.26493
592.26575
592.26597
592.2657
592.26497
592.26386
592.26261
592.26215
592.26509
592.26286
592.26456
592.26527
592.26544
592.26514
592.2644
592.26332
592.26215
592.26186
874.82489
874.82021
874.824
874.82585
874.82679
874.82698
874.82654
874.82571
874.82505
874.82597
874.82021
874.81905
874.82262
874.82444
874.82535
874.82548
874.8249
874.82377
874.82252
874.82358
874.824
874.82262
874.82613
874.82791
874.82876
874.8288
874.82809
874.82671
874.82495
874.82525
874.82585
874.82444
874.82791
874.82963
874.83041
874.83035
874.82952
874.82798
874.82603
874.82614
874.82679
874.82535
874.82876
874.83041
874.83111
874.83095
874.83001
874.82835
874.82629
874.82633
874.82698
874.82548
874.8288
874.83035
874.83095
874.83071
874.82969
874.82795
874.82582
874.82583
874.82654
874.8249
874.82809
874.82952
874.83001
874.82969
874.8286
874.82682
874.82467
874.82466
874.82571
874.82377
874.82671
874.82798
874.82835
874.82795
874.82682
874.82502
874.8229
874.82295
874.82505
874.82252
874.82495
874.82603
874.82629
874.82582
874.82467
874.8229
874.82088
874.82113
874.82597
874.82358
874.82525
874.82614
874.82633
874.82583
874.82466
874.82295
874.82113
874.82222
868.50635
868.5036
868.50663
868.50824
868.50903
868.50909
868.5085
868.50743
868.50644
868.50771
868.5036
868.50317
868.50609
868.50768
868.50844
868.50843
868.50771
868.50633
868.50465
868.50594
868.50663
868.50609
868.50896
868.51051
868.51121
868.51112
868.51026
868.50865
868.50648
868.50712
868.50824
868.50768
868.51051
868.512
868.51263
868.51244
868.51147
868.5097
868.50733
868.50779
868.50903
868.50844
868.51121
868.51263
868.51317
868.5129
868.51182
868.50994
868.50746
868.50785
868.50909
868.50843
868.51112
868.51244
868.5129
868.51254
868.51138
868.50942
868.50688
868.50723
868.5085
868.50771
868.51026
868.51147
868.51182
868.51138
868.51015
868.50816
868.5056
868.50595
868.50743
868.50633
868.50865
868.5097
868.50994
868.50942
868.50816
868.50615
868.50362
868.50403
868.50644
868.50465
868.50648
868.50733
868.50746
868.50688
868.5056
868.50362
868.50122
868.50193
868.50771
868.50594
868.50712
868.50779
868.50785
868.50723
868.50595
868.50403
868.50193
868.50427
862.08704
862.08467
862.08742
862.08883
862.08947
862.08938
862.08863
862.08734
862.086
862.08693
862.08467
862.08431
862.08693
862.08832
862.08892
862.08877
862.0879
862.08633
862.08431
862.08538
862.08742
862.08693
862.0895
862.09085
862.09139
862.09117
862.09017
862.08836
862.08588
862.08635
862.08883
862.08832
862.09085
862.09214
862.09261
862.09229
862.09117
862.08922
862.08655
862.08685
862.08947
862.08892
862.09139
862.09261
862.093
862.0926
862.09138
862.08932
862.08654
862.08677
862.08938
862.08877
862.09117
862.09229
862.0926
862.09211
862.09081
862.08868
862.08584
862.08604
862.08863
862.0879
862.09017
862.09117
862.09138
862.09081
862.08945
862.08728
862.08443
862.08462
862.08734
862.08633
862.08836
862.08922
862.08932
862.08868
862.08728
862.0851
862.08228
862.08253
862.086
862.08431
862.08588
862.08655
862.08654
862.08584
862.08443
862.08228
862.07959
862.08014
862.08693
862.08538
862.08635
862.08685
862.08677
862.08604
862.08462
862.08253
862.08014
862.08275
855.57359
855.57144
855.57401
855.57526
855.57576
855.57554
855.57466
855.57323
855.5717
855.57239
855.57144
855.57114
855.57358
855.5748
855.57526
855.57499
855.574
855.57229
855.57011
855.57096
855.57401
855.57358
855.57596
855.57714
855.57755
855.57719
855.57607
855.57415
855.57152
855.57181
855.57526
855.5748
855.57714
855.57827
855.5786
855.57816
855.57693
855.57486
855.57205
855.57218
855.57576
855.57526
855.57755
855.5786
855.57886
855.57833
855.577
855.57483
855.57192
855.57198
855.57554
855.57499
855.57719
855.57816
855.57833
855.57773
855.57632
855.57408
855.57111
855.57115
855.57466
855.574
855.57607
855.57693
855.577
855.57632
855.57486
855.57258
855.5696
855.56963
855.57323
855.57229
855.57415
855.57486
855.57483
855.57408
855.57258
855.5703
855.56735
855.56744
855.5717
855.57011
855.57152
855.57205
855.57192
855.57111
855.5696
855.56735
855.56452
855.5649
855.57239
855.57096
855.57181
855.57218
855.57198
855.57115
855.56963
855.56744
855.5649
855.56739
848.97594
848.97401
848.97642
848.97755
848.97793
848.9776
848.97662
848.97509
848.97345
848.97395
848.97401
848.9738
848.97608
848.97718
848.97752
848.97714
848.97605
848.97425
848.97199
848.97263
848.97642
848.97608
848.9783
848.97935
848.97964
848.97918
848.97797
848.97597
848.97328
848.9734
848.97755
848.97718
848.97935
848.98035
848.98057
848.98003
848.97871
848.97657
848.9737
848.97367
848.97793
848.97752
848.97964
848.98057
848.98071
848.98009
848.97868
848.97644
848.97347
848.97338
848.9776
848.97714
848.97918
848.98003
848.98009
848.97939
848.9779
848.9756
848.97258
848.97246
848.97662
848.97605
848.97797
848.97871
848.97868
848.9779
848.97637
848.97403
848.971
848.97088
848.97509
848.97425
848.97597
848.97657
848.97644
848.9756
848.97403
848.97169
848.96869
848.96862
848.97345
848.97199
848.97328
848.9737
848.97347
848.97258
848.971
848.96869
848.96581
848.966
848.97395
848.97263
848.9734
848.97367
848.97338
848.97246
848.97088
848.96862
848.966
848.96829
842.30491
842.30321
842.30547
842.30649
842.30676
842.30635
842.3053
842.30371
842.302
842.30235
842.30321
842.30309
842.30522
842.30621
842.30645
842.30599
842.30483
842.30298
842.30068
842.30115
842.30547
842.30522
842.3073
842.30824
842.30843
842.30789
842.30662
842.30458
842.30187
842.30184
842.30649
842.30621
842.30824
842.30912
842.30924
842.30863
842.30725
842.30508
842.30221
842.30203
842.30676
842.30645
842.30843
842.30924
842.3093
842.3086
842.30714
842.30487
842.3019
842.30167
842.30635
842.30599
842.30789
842.30863
842.3086
842.30783
842.3063
842.30397
842.30096
842.3007
842.3053
842.30483
842.30662
842.30725
842.30714
842.3063
842.30472
842.30236
842.29933
842.29907
842.30371
842.30298
842.30458
842.30508
842.30487
842.30397
842.30236
842.3
842.297
842.29679
842.302
842.30068
842.30187
842.30221
842.3019
842.30096
842.29933
842.297
842.2941
842.29414
842.30235
842.30115
842.30184
842.30203
842.30167
842.3007
842.29907
842.29679
842.29414
842.29618
835.57202
835.57056
835.57268
835.57359
835.57378
835.5733
835.5722
835.57059
835.56885
835.56905
835.57056
835.57054
835.57253
835.5734
835.57356
835.57304
835.57184
835.56999
835.56768
835.56798
835.57268
835.57253
835.57445
835.57529
835.5754
835.5748
835.5735
835.57146
835.56877
835.5686
835.57359
835.5734
835.57529
835.57607
835.57612
835.57544
835.57404
835.57188
835.56903
835.56873
835.57378
835.57356
835.5754
835.57612
835.57609
835.57535
835.57386
835.57161
835.56868
835.56832
835.5733
835.57304
835.5748
835.57544
835.57535
835.57453
835.57298
835.57067
835.56769
835.56731
835.5722
835.57184
835.5735
835.57404
835.57386
835.57298
835.57139
835.56905
835.56605
835.56567
835.57059
835.56999
835.57146
835.57188
835.57161
835.57067
835.56905
835.5667
835.56373
835.56339
835.56885
835.56768
835.56877
835.56903
835.56868
835.56769
835.56605
835.56373
835.56087
835.56076
835.56905
835.56798
835.5686
835.56873
835.56832
835.56731
835.56567
835.56339
835.56076
835.56255
828.78946
828.78824
828.79019
828.791
828.79112
828.7906
828.78948
828.78786
828.78611
828.7862
828.78824
828.7883
828.79013
828.79092
828.791
828.79044
828.78923
828.78738
828.7851
828.78525
828.79019
828.79013
828.79191
828.79265
828.79269
828.79206
828.79074
828.78873
828.78609
828.78581
828.791
828.79092
828.79265
828.79334
828.79332
828.79261
828.79121
828.78908
828.7863
828.78589
828.79112
828.791
828.79269
828.79332
828.79323
828.79246
828.79098
828.78877
828.7859
828.78544
828.7906
828.79044
828.79206
828.79261
828.79246
828.79162
828.79008
828.78781
828.7849
828.78442
828.78948
828.78923
828.79074
828.79121
828.79098
828.79008
828.78849
828.78619
828.78327
828.78279
828.78786
828.78738
828.78873
828.78908
828.78877
828.78781
828.78619
828.78389
828.781
828.78055
828.78611
828.7851
828.78609
828.7863
828.7859
828.7849
828.78327
828.781
828.77819
828.77795
828.7862
828.78525
828.78581
828.78589
828.78544
828.78442
828.78279
828.78055
828.77795
828.7795
821.96989
821.96891
821.9707
821.97141
821.97147
821.97092
821.9698
821.9682
821.96647
821.96644
821.96891
821.96906
821.97073
821.97142
821.97145
821.97085
821.96965
821.96784
821.96562
821.96562
821.9707
821.97073
821.97235
821.973
821.97298
821.97232
821.97102
821.96906
821.96651
821.96612
821.97141
821.97142
821.973
821.97359
821.97352
821.9728
821.97141
821.96934
821.96666
821.96616
821.97147
821.97145
821.97298
821.97352
821.97339
821.9726
821.97114
821.969
821.96623
821.96568
821.97092
821.97085
821.97232
821.9728
821.9726
821.97175
821.97024
821.96804
821.96523
821.96466
821.9698
821.96965
821.97102
821.97141
821.97114
821.97024
821.96868
821.96646
821.96364
821.96306
821.9682
821.96784
821.96906
821.96934
821.969
821.96804
821.96646
821.96423
821.96143
821.96089
821.96647
821.96562
821.96651
821.96666
821.96623
821.96523
821.96364
821.96143
821.95871
821.95836
821.96644
821.96562
821.96612
821.96616
821.96568
821.96466
821.96306
821.96089
821.95836
821.95968
815.12643
815.12568
815.12729
815.12792
815.12792
815.12735
815.12624
815.12469
815.123
815.12286
815.12568
815.12591
815.12741
815.12801
815.12798
815.12737
815.12619
815.12445
815.1223
815.12218
815.12729
815.12741
815.12887
815.12942
815.12935
815.12869
815.12742
815.12553
815.12309
815.12261
815.12792
815.12801
815.12942
815.12993
815.12981
815.12908
815.12774
815.12575
815.12319
815.12261
815.12792
815.12798
815.12935
815.12981
815.12964
815.12885
815.12744
815.12538
815.12275
815.12212
815.12735
815.12737
815.12869
815.12908
815.12885
815.12801
815.12654
815.12444
815.12177
815.12112
815.12624
815.12619
815.12742
815.12774
815.12744
815.12654
815.12504
815.12291
815.12022
815.11958
815.12469
815.12445
815.12553
815.12575
815.12538
815.12444
815.12291
815.12078
815.11811
815.11749
815.123
815.1223
815.12309
815.12319
815.12275
815.12177
815.12022
815.11811
815.1155
815.11506
815.12286
815.12218
815.12261
815.12261
815.12212
815.12112
815.11958
815.11749
815.11506
815.11614
808.27249
808.27197
808.2734
808.27393
808.27388
808.2733
808.27223
808.27073
808.2691
808.26887
808.27197
808.27226
808.27359
808.2741
808.27402
808.27341
808.27227
808.2706
808.26856
808.26833
808.2734
808.27359
808.27488
808.27534
808.27523
808.27456
808.27334
808.27155
808.26924
808.2687
808.27393
808.2741
808.27534
808.27576
808.27561
808.27488
808.27359
808.27172
808.26929
808.26865
808.27388
808.27402
808.27523
808.27561
808.2754
808.27462
808.27327
808.27133
808.26884
808.26816
808.2733
808.27341
808.27456
808.27488
808.27462
808.2738
808.2724
808.27041
808.26789
808.26719
808.27223
808.27227
808.27334
808.27359
808.27327
808.2724
808.27096
808.26895
808.26642
808.26572
808.27073
808.2706
808.27155
808.27172
808.27133
808.27041
808.26895
808.26694
808.26442
808.26374
808.2691
808.26856
808.26924
808.26929
808.26884
808.26789
808.26642
808.26442
808.26196
808.26143
808.26887
808.26833
808.2687
808.26865
808.26816
808.26719
808.26572
808.26374
808.26143
808.26229
801.4217
801.4214
801.42264
801.42307
801.42298
801.4224
801.42137
801.41996
801.4184
801.41809
801.4214
801.42175
801.4229
801.42331
801.42319
801.42258
801.42149
801.41993
801.41801
801.41768
801.42264
801.4229
801.424
801.42438
801.42423
801.42357
801.42241
801.42074
801.41858
801.41798
801.42307
801.42331
801.42438
801.42471
801.42452
801.42382
801.4226
801.42084
801.41859
801.4179
801.42298
801.42319
801.42423
801.42452
801.42429
801.42353
801.42226
801.42045
801.41814
801.41742
801.4224
801.42258
801.42357
801.42382
801.42353
801.42274
801.42142
801.41957
801.41723
801.41649
801.42137
801.42149
801.42241
801.4226
801.42226
801.42142
801.42007
801.4182
801.41584
801.4151
801.41996
801.41993
801.42074
801.42084
801.42045
801.41957
801.4182
801.41632
801.41397
801.41325
801.4184
801.41801
801.41858
801.41859
801.41814
801.41723
801.41584
801.41397
801.41168
801.41108
801.41809
801.41768
801.41798
801.4179
801.41742
801.41649
801.4151
801.41325
801.41108
801.41173
794.5878
794.58771
794.58875
794.58908
794.58895
794.58839
794.58741
794.58609
794.58463
794.58425
794.58771
794.5881
794.58907
794.58938
794.58923
794.58864
794.58761
794.58616
794.58437
794.58396
794.58875
794.58907
794.58999
794.59027
794.59009
794.58945
794.58837
794.58682
794.58484
794.58419
794.58908
794.58938
794.59027
794.59052
794.5903
794.58962
794.58848
794.58687
794.5848
794.58409
794.58895
794.58923
794.59009
794.5903
794.59004
794.58932
794.58814
794.58647
794.58436
794.58361
794.58839
794.58864
794.58945
794.58962
794.58932
794.58856
794.58734
794.58564
794.5835
794.58274
794.58741
794.58761
794.58837
794.58848
794.58814
794.58734
794.58609
794.58437
794.58222
794.58145
794.58609
794.58616
794.58682
794.58687
794.58647
794.58564
794.58437
794.58264
794.5805
794.57974
794.58463
794.58437
794.58484
794.5848
794.58436
794.5835
794.58222
794.5805
794.57839
794.57774
794.58425
794.58396
794.58419
794.58409
794.58361
794.58274
794.58145
794.57974
794.57774
794.57819
787.78455
787.78466
787.78549
787.78573
787.78556
787.78501
787.7841
787.78289
787.78154
787.7811
787.78466
787.78508
787.78585
787.78607
787.78589
787.78532
787.78437
787.78304
787.78142
787.78093
787.78549
787.78585
787.78658
787.78678
787.78656
787.78596
787.78496
787.78355
787.78176
787.78109
787.78573
787.78607
787.78678
787.78694
787.7867
787.78605
787.78501
787.78355
787.78169
787.78096
787.78556
787.78589
787.78656
787.7867
787.78642
787.78574
787.78466
787.78315
787.78125
787.7805
787.78501
787.78532
787.78596
787.78605
787.78574
787.78503
787.78391
787.78238
787.78046
787.77969
787.7841
787.78437
787.78496
787.78501
787.78466
787.78391
787.78277
787.78122
787.77929
787.77851
787.78289
787.78304
787.78355
787.78355
787.78315
787.78238
787.78122
787.77967
787.77773
787.77697
787.78154
787.78142
787.78176
787.78169
787.78125
787.78046
787.77929
787.77773
787.77583
787.77515
787.7811
787.78093
787.78109
787.78096
787.7805
787.77969
787.77851
787.77697
787.77515
787.77541
781.02563
781.02592
781.02654
781.02669
781.02649
781.02596
781.02513
781.02403
781.0228
781.02231
781.02592
781.02638
781.02695
781.02707
781.02686
781.02631
781.02545
781.02426
781.02281
781.02227
781.02654
781.02695
781.02748
781.02759
781.02735
781.02678
781.02587
781.02462
781.02304
781.02235
781.02669
781.02707
781.02759
781.02767
781.0274
781.0268
781.02586
781.02457
781.02293
781.02219
781.02649
781.02686
781.02735
781.0274
781.02711
781.02648
781.0255
781.02418
781.02251
781.02175
781.02596
781.02631
781.02678
781.0268
781.02648
781.02582
781.02482
781.02347
781.02178
781.02101
781.02513
781.02545
781.02587
781.02586
781.0255
781.02482
781.0238
781.02243
781.02074
781.01997
781.02403
781.02426
781.02462
781.02457
781.02418
781.02347
781.02243
781.02106
781.01936
781.0186
781.0228
781.02281
781.02304
781.02293
781.02251
781.02178
781.02074
781.01936
781.01768
781.01698
781.02231
781.02227
781.02235
781.02219
781.02175
781.02101
781.01997
781.0186
781.01698
781.01706
774.32457
774.32503
774.32544
774.32549
774.32526
774.32476
774.32401
774.32304
774.32195
774.32143
774.32503
774.3255
774.32587
774.32591
774.32566
774.32515
774.32438
774.32334
774.32208
774.32149
774.32544
774.32587
774.32621
774.32623
774.32596
774.32543
774.32463
774.32355
774.32219
774.3215
774.32549
774.32591
774.32623
774.32622
774.32594
774.32538
774.32455
774.32344
774.32204
774.32132
774.32526
774.32566
774.32596
774.32594
774.32563
774.32506
774.3242
774.32307
774.32164
774.3209
774.32476
774.32515
774.32543
774.32538
774.32506
774.32446
774.32358
774.32243
774.32099
774.32024
774.32401
774.32438
774.32463
774.32455
774.3242
774.32358
774.3227
774.32153
774.32008
774.31933
774.32304
774.32334
774.32355
774.32344
774.32307
774.32243
774.32153
774.32035
774.3189
774.31815
774.32195
774.32208
774.32219
774.32204
774.32164
774.32099
774.32008
774.3189
774.31746
774.31674
774.32143
774.32149
774.3215
774.32132
774.3209
774.32024
774.31933
774.31815
774.31674
774.31666
767.69465
767.69528
767.69547
767.69542
767.69516
767.6947
767.69404
767.69321
767.69226
767.69171
767.69528
767.69575
767.69592
767.69586
767.69559
767.69512
767.69445
767.69357
767.6925
767.69188
767.69547
767.69592
767.69606
767.69598
767.6957
767.69522
767.69453
767.69362
767.6925
767.69182
767.69542
767.69586
767.69598
767.69589
767.6956
767.69509
767.69439
767.69346
767.69231
767.69161
767.69516
767.69559
767.6957
767.6956
767.69528
767.69476
767.69404
767.6931
767.69193
767.69123
767.6947
767.69512
767.69522
767.69509
767.69476
767.69423
767.69349
767.69254
767.69136
767.69065
767.69404
767.69445
767.69453
767.69439
767.69404
767.69349
767.69274
767.69178
767.6906
767.68988
767.69321
767.69357
767.69362
767.69346
767.6931
767.69254
767.69178
767.69081
767.68962
767.6889
767.69226
767.6925
767.6925
767.69231
767.69193
767.69136
767.6906
767.68962
767.68843
767.68772
767.69171
767.69188
767.69182
767.69161
767.69123
767.69065
767.68988
767.6889
767.68772
767.68749
761.14884
761.14961
761.14958
761.14944
761.14916
761.14873
761.14818
761.14749
761.1467
761.14613
761.14961
761.15008
761.15005
761.14989
761.1496
761.14917
761.14861
761.1479
761.14705
761.1464
761.14958
761.15005
761.14999
761.14983
761.14953
761.14909
761.14852
761.1478
761.14692
761.14627
761.14944
761.14989
761.14983
761.14965
761.14934
761.1489
761.14832
761.14759
761.1467
761.14604
761.14916
761.1496
761.14953
761.14934
761.14902
761.14857
761.14798
761.14725
761.14635
761.14568
761.14873
761.14917
761.14909
761.1489
761.14857
761.14811
761.14751
761.14677
761.14587
761.1452
761.14818
761.14861
761.14852
761.14832
761.14798
761.14751
761.14691
761.14616
761.14525
761.14458
761.14749
761.1479
761.1478
761.14759
761.14725
761.14677
761.14616
761.14541
761.14449
761.14381
761.1467
761.14705
761.14692
761.1467
761.14635
761.14587
761.14525
761.14449
761.14356
761.14287
761.14613
761.1464
761.14627
761.14604
761.14568
761.1452
761.14458
761.14381
761.14287
761.14249
754.69972
754.70062
754.70037
754.70013
754.69983
754.69945
754.69899
754.69846
754.69784
754.69726
754.70062
754.70107
754.70083
754.70059
754.70028
754.6999
754.69945
754.69892
754.69828
754.69762
754.70037
754.70083
754.70058
754.70033
754.70002
754.69964
754.69919
754.69866
754.69803
754.69742
754.70013
754.70059
754.70033
754.70007
754.69976
754.69938
754.69893
754.6984
754.69778
754.69717
754.69983
754.70028
754.70002
754.69976
754.69944
754.69905
754.6986
754.69808
754.69746
754.69685
754.69945
754.6999
754.69964
754.69938
754.69905
754.69867
754.69822
754.6977
754.69707
754.69646
754.69899
754.69945
754.69919
754.69893
754.6986
754.69822
754.69776
754.69724
754.69661
754.69599
754.69846
754.69892
754.69866
754.6984
754.69808
754.6977
754.69724
754.6967
754.69606
754.69544
754.69784
754.69828
754.69803
754.69778
754.69746
754.69707
754.69661
754.69606
754.6954
754.69475
754.69726
754.69762
754.69742
754.69717
754.69685
754.69646
754.69599
754.69544
754.69475
754.69425
748.35938
748.3604
748.35994
748.35961
748.35928
748.35895
748.35861
748.35823
748.35778
748.35721
748.3604
748.36084
748.36039
748.36006
748.35973
748.35941
748.35907
748.35872
748.35831
748.35765
748.35994
748.36039
748.35995
748.35961
748.35929
748.35896
748.35864
748.35832
748.35795
748.35738
748.35961
748.36006
748.35961
748.35928
748.35895
748.35864
748.35833
748.35801
748.35766
748.35711
748.35928
748.35973
748.35929
748.35895
748.35864
748.35833
748.35802
748.35772
748.35737
748.35683
748.35895
748.35941
748.35896
748.35864
748.35833
748.35802
748.35772
748.35742
748.35708
748.35653
748.35861
748.35907
748.35864
748.35833
748.35802
748.35772
748.35742
748.35712
748.35678
748.35623
748.35823
748.35872
748.35832
748.35801
748.35772
748.35742
748.35712
748.35682
748.35646
748.3559
748.35778
748.35831
748.35795
748.35766
748.35737
748.35708
748.35678
748.35646
748.35608
748.35547
748.35721
748.35765
748.35738
748.35711
748.35683
748.35653
748.35623
748.3559
748.35547
748.35486
742.13943
742.14056
742.13988
742.13946
742.13912
742.13884
742.13861
742.13839
742.13812
742.13756
742.14056
742.14096
742.14032
742.1399
742.13956
742.13929
742.13908
742.13891
742.13872
742.13808
742.13988
742.14032
742.13968
742.13926
742.13893
742.13867
742.13848
742.13836
742.13825
742.13774
742.13946
742.1399
742.13926
742.13885
742.13853
742.13828
742.13811
742.13801
742.13793
742.13745
742.13912
742.13956
742.13893
742.13853
742.13822
742.13798
742.13782
742.13774
742.13768
742.13721
742.13884
742.13929
742.13867
742.13828
742.13798
742.13776
742.13761
742.13754
742.13749
742.13702
742.13861
742.13908
742.13848
742.13811
742.13782
742.13761
742.13747
742.1374
742.13735
742.13688
742.13839
742.13891
742.13836
742.13801
742.13774
742.13754
742.1374
742.13733
742.13726
742.13677
742.13812
742.13872
742.13825
742.13793
742.13768
742.13749
742.13735
742.13726
742.13716
742.13662
742.13756
742.13808
742.13774
742.13745
742.13721
742.13702
742.13688
742.13677
742.13662
742.1359
736.05087
736.05208
736.0512
736.0507
736.05034
736.05012
736.05
736.04995
736.04986
736.04932
736.05208
736.05245
736.05162
736.05112
736.05077
736.05055
736.05047
736.05049
736.05053
736.04992
736.0512
736.05162
736.05079
736.0503
736.04996
736.04977
736.04971
736.04979
736.04994
736.0495
736.0507
736.05112
736.0503
736.04982
736.04949
736.04932
736.04929
736.0494
736.0496
736.0492
736.05034
736.05077
736.04996
736.04949
736.04919
736.04903
736.04902
736.04916
736.04939
736.049
736.05012
736.05055
736.04977
736.04932
736.04903
736.04889
736.0489
736.04906
736.0493
736.04892
736.05
736.05047
736.04971
736.04929
736.04902
736.0489
736.04893
736.04909
736.04933
736.04894
736.04995
736.05049
736.04979
736.0494
736.04916
736.04906
736.04909
736.04924
736.04947
736.04907
736.04986
736.05053
736.04994
736.0496
736.04939
736.0493
736.04933
736.04947
736.04966
736.04918
736.04932
736.04992
736.0495
736.0492
736.049
736.04892
736.04894
736.04907
736.04918
736.04838
730.10407
730.10536
730.10428
730.10369
730.10333
730.10316
730.10316
730.10328
730.10337
730.10286
730.10536
730.10568
730.10466
730.10408
730.10373
730.10357
730.10361
730.10382
730.1041
730.10352
730.10428
730.10466
730.10366
730.10309
730.10275
730.10262
730.1027
730.10298
730.10341
730.10304
730.10369
730.10408
730.10309
730.10254
730.10222
730.10212
730.10223
730.10256
730.10304
730.10272
730.10333
730.10373
730.10275
730.10222
730.10192
730.10185
730.10199
730.10236
730.10287
730.10257
730.10316
730.10357
730.10262
730.10212
730.10185
730.1018
730.10197
730.10235
730.10288
730.10259
730.10316
730.10361
730.1027
730.10223
730.10199
730.10197
730.10215
730.10254
730.10308
730.10279
730.10328
730.10382
730.10298
730.10256
730.10236
730.10235
730.10254
730.10294
730.10345
730.10314
730.10337
730.1041
730.10341
730.10304
730.10287
730.10288
730.10308
730.10345
730.10393
730.10352
730.10286
730.10352
730.10304
730.10272
730.10257
730.10259
730.10279
730.10314
730.10352
730.10266
724.30872
724.31007
724.30879
724.30813
724.30776
724.30765
724.30777
724.30806
724.30833
724.30787
724.31007
724.31034
724.30914
724.30849
724.30813
724.30804
724.30821
724.30861
724.30912
724.30858
724.30879
724.30914
724.30796
724.30733
724.30699
724.30693
724.30715
724.30763
724.30832
724.30803
724.30813
724.30849
724.30733
724.30671
724.3064
724.30638
724.30664
724.30718
724.30794
724.30771
724.30776
724.30813
724.30699
724.3064
724.30612
724.30613
724.30643
724.30701
724.30781
724.30761
724.30765
724.30804
724.30693
724.30638
724.30613
724.30617
724.30649
724.30711
724.30793
724.30774
724.30777
724.30821
724.30715
724.30664
724.30643
724.30649
724.30684
724.30747
724.30829
724.3081
724.30806
724.30861
724.30763
724.30718
724.30701
724.30711
724.30747
724.30809
724.3089
724.30869
724.30833
724.30912
724.30832
724.30794
724.30781
724.30793
724.30829
724.3089
724.30966
724.30934
724.30787
724.30858
724.30803
724.30771
724.30761
724.30774
724.3081
724.30869
724.30934
724.30842
718.67377
718.67517
718.67371
718.67298
718.6726
718.67255
718.67279
718.67325
718.67371
718.67329
718.67517
718.67539
718.67402
718.6733
718.67294
718.67292
718.67321
718.6738
718.67454
718.67406
718.67371
718.67402
718.67268
718.67197
718.67164
718.67166
718.67201
718.6727
718.67365
718.67345
718.67298
718.6733
718.67197
718.6713
718.671
718.67106
718.67146
718.67222
718.67325
718.67312
718.6726
718.67294
718.67164
718.671
718.67074
718.67083
718.67128
718.67209
718.67317
718.67307
718.67255
718.67292
718.67166
718.67106
718.67083
718.67096
718.67145
718.67228
718.67339
718.67331
718.67279
718.67321
718.67201
718.67146
718.67128
718.67145
718.67196
718.67281
718.67392
718.67384
718.67325
718.6738
718.6727
718.67222
718.67209
718.67228
718.67281
718.67366
718.67476
718.67465
718.67371
718.67454
718.67365
718.67325
718.67317
718.67339
718.67392
718.67476
718.6758
718.67557
718.67329
718.67406
718.67345
718.67312
718.67307
718.67331
718.67384
718.67465
718.67557
718.67461
713.20742
713.20885
713.20722
713.20642
713.20605
713.20607
713.20643
713.20706
713.2077
713.20733
713.20885
713.20901
713.20748
713.2067
713.20635
713.20639
713.20682
713.20759
713.20856
713.20814
713.20722
713.20748
713.20599
713.20523
713.20491
713.205
713.20549
713.20638
713.20758
713.20748
713.20642
713.2067
713.20523
713.2045
713.20422
713.20435
713.2049
713.20587
713.20717
713.20715
713.20605
713.20635
713.20491
713.20422
713.20397
713.20416
713.20476
713.20578
713.20714
713.20715
713.20607
713.20639
713.205
713.20435
713.20416
713.20438
713.20502
713.20608
713.20747
713.2075
713.20643
713.20682
713.20549
713.2049
713.20476
713.20502
713.20569
713.20677
713.20816
713.2082
713.20706
713.20759
713.20638
713.20587
713.20578
713.20608
713.20677
713.20785
713.20923
713.20924
713.2077
713.20856
713.20758
713.20717
713.20714
713.20747
713.20816
713.20923
713.21055
713.21042
713.20733
713.20814
713.20748
713.20715
713.20715
713.2075
713.2082
713.20924
713.21042
713.20942
707.91706
707.91851
707.91672
707.91586
707.9155
707.91558
707.91606
707.91686
707.91769
707.91738
707.91851
707.91861
707.91693
707.91609
707.91575
707.91587
707.91642
707.91738
707.91858
707.91822
707.91672
707.91693
707.91529
707.91448
707.91418
707.91434
707.91497
707.91606
707.91752
707.91751
707.91586
707.91609
707.91448
707.91371
707.91345
707.91366
707.91436
707.91553
707.9171
707.91718
707.9155
707.91575
707.91418
707.91345
707.91323
707.9135
707.91425
707.91549
707.91711
707.91724
707.91558
707.91587
707.91434
707.91366
707.9135
707.91382
707.91461
707.91589
707.91755
707.9177
707.91606
707.91642
707.91497
707.91436
707.91425
707.91461
707.91544
707.91674
707.91841
707.91856
707.91686
707.91738
707.91606
707.91553
707.91549
707.91589
707.91674
707.91805
707.9197
707.91982
707.91769
707.91858
707.91752
707.9171
707.91711
707.91755
707.91841
707.9197
707.92129
707.92127
707.91738
707.91822
707.91751
707.91718
707.91724
707.9177
707.91856
707.91982
707.92127
707.92025
702.80924
702.8107
702.80876
702.80786
702.80751
702.80766
702.80827
702.80923
702.81024
702.80999
702.8107
702.81074
702.80892
702.80804
702.80772
702.80791
702.80859
702.80973
702.81115
702.81086
702.80876
702.80892
702.80715
702.8063
702.80602
702.80626
702.80703
702.80831
702.81001
702.81011
702.80786
702.80804
702.8063
702.80549
702.80526
702.80556
702.8064
702.80777
702.80959
702.80979
702.80751
702.80772
702.80602
702.80526
702.80507
702.80543
702.80633
702.80778
702.80966
702.80991
702.80766
702.80791
702.80626
702.80556
702.80543
702.80584
702.80679
702.80828
702.81021
702.81047
702.80827
702.80859
702.80703
702.8064
702.80633
702.80679
702.80778
702.8093
702.81124
702.8115
702.80923
702.80973
702.80831
702.80777
702.80778
702.80828
702.8093
702.81082
702.81274
702.81298
702.81024
702.81115
702.81001
702.80959
702.80966
702.81021
702.81124
702.81274
702.8146
702.81468
702.80999
702.81086
702.81011
702.80979
702.80991
702.81047
702.8115
702.81298
702.81468
702.81366
697.88967
697.89113
697.88906
697.88812
697.88779
697.88802
697.88875
697.88988
697.89107
697.89089
697.89113
697.89111
697.88917
697.88825
697.88795
697.88822
697.88904
697.89036
697.89198
697.89178
697.88906
697.88917
697.88729
697.88641
697.88615
697.88648
697.88738
697.88885
697.89079
697.89099
697.88812
697.88825
697.88641
697.88557
697.88536
697.88575
697.88673
697.88831
697.89037
697.89069
697.88779
697.88795
697.88615
697.88536
697.88521
697.88566
697.88671
697.88836