/*--------------------------------*- C++ -*----------------------------------*\
| =========                 |                                                 |
| \\      /  F ield         | OpenFOAM: The Open Source CFD Toolbox           |
|  \\    /   O peration     | Version:  v2106                                 |
|   \\  /    A nd           | Website:  www.openfoam.com                      |
|    \\/     M anipulation  |                                                 |
\*---------------------------------------------------------------------------*/
FoamFile
{
    version     2.0;
    format      ascii;
    arch        "LSB;label=32;scalar=64";
    class       volVectorField;
    location    "42.5";
    object      gradT;
}
// * * * * * * * * * * * * * * * * * * * * * * * * * * * * * * * * * * * * * //

dimensions      [0 -1 0 1 0 0 0];

internalField   nonuniform List<vector> 
4000
(
(-0.00081384492 -0.00081384492 592.26577)
(-0.00046352595 -0.00015170857 592.2604)
(0.0010129522 -0.00022655626 592.26387)
(0.00038919062 -0.00023017722 592.26521)
(0.00016822478 -0.00023315873 592.2659)
(-8.9288412e-06 -0.00023881902 592.26608)
(-0.00013247122 -0.00025020394 592.26584)
(-0.00016541944 -0.00027333196 592.26536)
(-7.4640894e-05 -0.00031025686 592.26496)
(1.3207056e-06 -0.00031882969 592.26509)
(-0.00015170857 -0.00046352595 592.2604)
(0.00041740704 0.00041740705 592.25917)
(0.00089524919 0.00029557149 592.26223)
(0.00037928691 0.00028535526 592.26355)
(0.00015526209 0.00027345291 592.26422)
(-3.4496657e-05 0.00025367814 592.26435)
(-0.00018424062 0.00021854358 592.26402)
(-0.00025549882 0.00015150826 592.26335)
(-0.00014288749 3.1613839e-05 592.26266)
(-7.2521194e-06 -9.5083072e-05 592.26286)
(-0.00022655626 0.0010129522 592.26387)
(0.00029557149 0.00089524919 592.26223)
(0.00088090036 0.00088090037 592.26525)
(0.00036707203 0.0008689933 592.26654)
(0.00013654766 0.00085203864 592.26717)
(-6.3838166e-05 0.00082835604 592.26724)
(-0.0002346411 0.0007940968 592.26681)
(-0.00035234918 0.00074128633 592.26598)
(-0.00032123222 0.00065370898 592.26493)
(-8.3143902e-05 0.00052098587 592.26456)
(-0.00023017722 0.00038919061 592.26521)
(0.00028535525 0.0003792869 592.26355)
(0.0008689933 0.00036707203 592.26654)
(0.00035042519 0.00035042518 592.26779)
(0.00011462483 0.00033002025 592.26837)
(-9.2438498e-05 0.00030541414 592.26837)
(-0.00027131033 0.00027532228 592.26786)
(-0.00039588664 0.00023933997 592.26692)
(-0.00036318795 0.00020093321 592.26575)
(-9.5734195e-05 0.00017180265 592.26527)
(-0.00023315873 0.00016822479 592.2659)
(0.0002734529 0.00015526209 592.26422)
(0.00085203865 0.00013654766 592.26717)
(0.00033002026 0.00011462482 592.26837)
(9.1536614e-05 9.1536614e-05 592.26889)
(-0.00011853614 6.7776671e-05 592.26883)
(-0.00030071526 4.2928642e-05 592.26825)
(-0.00042673825 1.7246904e-05 592.26722)
(-0.00038876954 -6.5924326e-06 592.26597)
(-0.00010256427 -2.1938268e-05 592.26544)
(-0.00023881902 -8.9288437e-06 592.26608)
(0.00025367813 -3.4496659e-05 592.26435)
(0.00082835603 -6.3838165e-05 592.26724)
(0.00030541414 -9.2438504e-05 592.26837)
(6.7776676e-05 -0.00011853614 592.26883)
(-0.00014104647 -0.00014104647 592.26871)
(-0.0003218401 -0.00016038609 592.26807)
(-0.00044540771 -0.000176407 592.26699)
(-0.00040237312 -0.00018818276 592.2657)
(-0.00010596475 -0.00019438576 592.26514)
(-0.00025020394 -0.00013247123 592.26584)
(0.00021854358 -0.00018424063 592.26402)
(0.0007940968 -0.0002346411 592.26681)
(0.00027532228 -0.00027131033 592.26786)
(4.2928647e-05 -0.00030071526 592.26825)
(-0.00016038609 -0.00032184011 592.26807)
(-0.0003360758 -0.0003360758 592.26739)
(-0.00045453492 -0.00034372548 592.26628)
(-0.0004067483 -0.00034495648 592.26497)
(-0.00010669961 -0.0003422979 592.2644)
(-0.00027333196 -0.00016541944 592.26536)
(0.00015150826 -0.00025549882 592.26335)
(0.00074128633 -0.00035234918 592.26598)
(0.00023933997 -0.00039588663 592.26692)
(1.72469e-05 -0.00042673825 592.26722)
(-0.000176407 -0.00044540771 592.26699)
(-0.00034372548 -0.00045453492 592.26628)
(-0.00045428839 -0.00045428839 592.26516)
(-0.00040094554 -0.00044391614 592.26386)
(-0.00010419237 -0.00042785074 592.26332)
(-0.00031025686 -7.464089e-05 592.26496)
(3.161384e-05 -0.00014288749 592.26266)
(0.00065370899 -0.00032123222 592.26493)
(0.00020093321 -0.00036318795 592.26575)
(-6.5924305e-06 -0.00038876955 592.26597)
(-0.00018818276 -0.00040237312 592.2657)
(-0.00034495648 -0.0004067483 592.26497)
(-0.00044391614 -0.00040094554 592.26386)
(-0.00038031065 -0.00038031065 592.26261)
(-9.5989341e-05 -0.00034402216 592.26215)
(-0.00031882969 1.3207088e-06 592.26509)
(-9.5083075e-05 -7.2521176e-06 592.26286)
(0.00052098586 -8.3143901e-05 592.26456)
(0.00017180265 -9.5734199e-05 592.26527)
(-2.1938268e-05 -0.00010256428 592.26544)
(-0.00019438576 -0.00010596476 592.26514)
(-0.00034229789 -0.00010669961 592.2644)
(-0.00042785074 -0.00010419237 592.26332)
(-0.00034402216 -9.5989343e-05 592.26215)
(-8.0000041e-05 -8.0000043e-05 592.26186)
(-0.0029323585 -0.0029323585 874.82489)
(-0.0014632299 -0.00077371361 874.82021)
(0.0041794651 -0.00095279187 874.824)
(0.0018849851 -0.00096814158 874.82585)
(0.0007981376 -0.00098304121 874.82679)
(-7.1456961e-05 -0.0010106627 874.82698)
(-0.00068104137 -0.0010668631 874.82654)
(-0.00081773786 -0.0011841162 874.82571)
(-0.00017304318 -0.0013710325 874.82505)
(0.00012828004 -0.0012723884 874.82597)
(-0.00077371362 -0.0014632298 874.82021)
(0.0015061201 0.0015061201 874.81905)
(0.0038878232 0.001188717 874.82262)
(0.001839611 0.0011387365 874.82444)
(0.0007343559 0.0010795122 874.82535)
(-0.0001971898 0.00098286555 874.82548)
(-0.00094122156 0.00081008758 874.8249)
(-0.001273992 0.00047382402 874.82377)
(-0.00030545155 -0.0001341122 874.82252)
(0.00022692415 -0.00051299568 874.82358)
(-0.00095279188 0.0041794651 874.824)
(0.001188717 0.0038878232 874.82262)
(0.0038120816 0.0038120816 874.82613)
(0.0017757802 0.0037492905 874.82791)
(0.00064226664 0.0036657508 874.82876)
(-0.00034088155 0.003550011 874.8288)
(-0.0011900829 0.0033824533 874.82809)
(-0.0017619376 0.0031215388 874.82671)
(-0.0011598629 0.0026750121 874.82495)
(-0.00012430894 0.0020413947 874.82525)
(-0.00096814158 0.001884985 874.82585)
(0.0011387365 0.001839611 874.82444)
(0.0037492905 0.0017757802 874.82791)
(0.0016932803 0.0016932803 874.82963)
(0.00053507639 0.0015934769 874.83041)
(-0.00048048739 0.0014733798 874.83035)
(-0.0013696937 0.0013266443 874.82952)
(-0.0019814331 0.0011509784 874.82798)
(-0.0013855956 0.00095814007 874.82603)
(-0.00019548746 0.00080268446 874.82614)
(-0.00098304121 0.0007981376 874.82679)
(0.0010795122 0.0007343559 874.82535)
(0.0036657508 0.00064226664 874.82876)
(0.0015934769 0.00053507639 874.83041)
(0.00042236613 0.00042236613 874.83111)
(-0.00060771414 0.00030640776 874.83095)
(-0.0015124843 0.0001852856 874.83001)
(-0.0021304419 6.0620003e-05 874.82835)
(-0.0015081568 -5.4455535e-05 874.82629)
(-0.00022794602 -0.00012715972 874.82633)
(-0.0010106627 -7.145696e-05 874.82698)
(0.00098286555 -0.00019718981 874.82548)
(0.003550011 -0.00034088155 874.8288)
(0.0014733798 -0.00048048738 874.83035)
(0.00030640776 -0.00060771414 874.83095)
(-0.00071756792 -0.00071756791 874.83071)
(-0.0016154815 -0.00081184284 874.82969)
(-0.0022211743 -0.00088972103 874.82795)
(-0.0015733754 -0.00094642627 874.82582)
(-0.00024395692 -0.00097503725 874.82583)
(-0.0010668631 -0.00068104137 874.82654)
(0.00081008759 -0.00094122156 874.8249)
(0.0033824533 -0.0011900829 874.82809)
(0.0013266443 -0.0013696937 874.82952)
(0.00018528559 -0.0015124843 874.83001)
(-0.00081184284 -0.0016154815 874.82969)
(-0.0016846375 -0.0016846375 874.8286)
(-0.0022650253 -0.0017210437 874.82682)
(-0.001593473 -0.001724623 874.82467)
(-0.00024702001 -0.0017071051 874.82466)
(-0.0011841162 -0.00081773786 874.82571)
(0.00047382402 -0.001273992 874.82377)
(0.0031215388 -0.0017619376 874.82671)
(0.0011509784 -0.0019814331 874.82798)
(6.0620003e-05 -0.0021304419 874.82835)
(-0.00088972103 -0.0022211743 874.82795)
(-0.0017210437 -0.0022650253 874.82682)
(-0.0022611598 -0.0022611598 874.82502)
(-0.0015594367 -0.0022011117 874.8229)
(-0.0002322783 -0.0020986628 874.82295)
(-0.0013710325 -0.00017304318 874.82505)
(-0.0001341122 -0.00030545155 874.82252)
(0.0026750121 -0.0011598629 874.82495)
(0.00095814007 -0.0013855956 874.82603)
(-5.4455531e-05 -0.0015081568 874.82629)
(-0.00094642626 -0.0015733754 874.82582)
(-0.001724623 -0.001593473 874.82467)
(-0.0022011117 -0.0015594367 874.8229)
(-0.001430976 -0.001430976 874.82088)
(-0.00017872076 -0.0011454775 874.82113)
(-0.0012723884 0.00012828004 874.82597)
(-0.00051299567 0.00022692415 874.82358)
(0.0020413947 -0.00012430894 874.82525)
(0.00080268446 -0.00019548746 874.82614)
(-0.00012715972 -0.00022794601 874.82633)
(-0.00097503725 -0.00024395692 874.82583)
(-0.0017071051 -0.00024702001 874.82466)
(-0.0020986628 -0.00023227831 874.82295)
(-0.0011454775 -0.00017872076 874.82113)
(-4.1945955e-05 -4.1945954e-05 874.82222)
(-0.0039358853 -0.0039358853 868.50635)
(-0.0013602592 -0.00092497417 868.5036)
(0.0066502217 -0.0011425148 868.50663)
(0.0031845408 -0.0011655654 868.50824)
(0.0013001698 -0.0011915275 868.50903)
(-0.00026133773 -0.0012398304 868.50909)
(-0.0014034724 -0.0013402318 868.5085)
(-0.0016539998 -0.0015664505 868.50743)
(0.00019099344 -0.001995211 868.50644)
(0.00061676033 -0.0019156215 868.50771)
(-0.00092497417 -0.0013602592 868.5036)
(0.0028297965 0.0028297965 868.50317)
(0.006289335 0.0024312677 868.50609)
(0.0031110219 0.0023493311 868.50768)
(0.0011887723 0.0022446591 868.50844)
(-0.00048439421 0.0020740239 868.50843)
(-0.0018934025 0.0017676339 868.50771)
(-0.0026364686 0.0011498531 868.50633)
(-0.00033276309 -6.586491e-05 868.50465)
(0.00069634985 -0.00081991322 868.50594)
(-0.0011425149 0.0066502217 868.50663)
(0.0024312677 0.006289335 868.50609)
(0.0061697564 0.0061697564 868.50896)
(0.0029979323 0.0060584761 868.51051)
(0.0010248625 0.0059096037 868.51121)
(-0.000738363 0.0057035059 868.51112)
(-0.0023276431 0.0054063611 868.51026)
(-0.0034874986 0.0049476311 868.50865)
(-0.0017787729 0.0041574993 868.50648)
(0.00011406146 0.0030861802 868.50712)
(-0.0011655654 0.0031845408 868.50824)
(0.0023493311 0.0031110219 868.50768)
(0.0060584761 0.0029979323 868.51051)
(0.0028508692 0.0028508692 868.512)
(0.00083380208 0.0026732104 868.51263)
(-0.00098763682 0.0024594185 868.51244)
(-0.0026492773 0.0021979592 868.51147)
(-0.0038853304 0.0018846691 868.5097)
(-0.0021942139 0.0015362391 868.50733)
(-1.7862828e-05 0.0012516576 868.50779)
(-0.0011915275 0.0013001698 868.50903)
(0.0022446591 0.0011887723 868.50844)
(0.0059096037 0.0010248625 868.51121)
(0.0026732104 0.00083380209 868.51263)
(0.0006334118 0.00063341181 868.51317)
(-0.0012136141 0.00042735984 868.5129)
(-0.0029023925 0.00021238988 868.51182)
(-0.0041492187 -8.2638946e-06 868.50994)
(-0.0024117844 -0.00021171079 868.50746)
(-7.5659518e-05 -0.00034025089 868.50785)
(-0.0012398304 -0.00026133773 868.50909)
(0.0020740239 -0.00048439421 868.50843)
(0.0057035059 -0.000738363 868.51112)
(0.0024594185 -0.00098763682 868.51244)
(0.00042735983 -0.0012136141 868.5129)
(-0.0014086587 -0.0014086587 868.51254)
(-0.0030849011 -0.0015756794 868.51138)
(-0.0043094311 -0.0017129262 868.50942)
(-0.0025262009 -0.0018115818 868.50688)
(-0.00010355622 -0.0018596988 868.50723)
(-0.0013402318 -0.0014034724 868.5085)
(0.0017676339 -0.0018934025 868.50771)
(0.0054063611 -0.0023276431 868.51026)
(0.0021979592 -0.0026492774 868.51147)
(0.00021238988 -0.0029023925 868.51182)
(-0.0015756794 -0.0030849011 868.51138)
(-0.00320666 -0.00320666 868.51015)
(-0.0043851211 -0.0032684668 868.50816)
(-0.002558557 -0.003267431 868.5056)
(-0.00010773752 -0.003222956 868.50595)
(-0.0015664505 -0.0016539998 868.50743)
(0.0011498531 -0.0026364686 868.50633)
(0.0049476311 -0.0034874985 868.50865)
(0.0018846691 -0.0038853304 868.5097)
(-8.2638905e-06 -0.0041492187 868.50994)
(-0.0017129262 -0.0043094311 868.50942)
(-0.0032684668 -0.0043851211 868.50816)
(-0.0043702022 -0.0043702022 868.50615)
(-0.0024806901 -0.0042322448 868.50362)
(-7.3906187e-05 -0.0039593748 868.50403)
(-0.001995211 0.00019099342 868.50644)
(-6.5864908e-05 -0.0003327631 868.50465)
(0.0041574993 -0.0017787729 868.50648)
(0.0015362391 -0.0021942139 868.50733)
(-0.00021171079 -0.0024117844 868.50746)
(-0.0018115818 -0.0025262009 868.50688)
(-0.003267431 -0.002558557 868.5056)
(-0.0042322448 -0.0024806901 868.50362)
(-0.0021477296 -0.0021477296 868.50122)
(7.417586e-05 -0.0010664559 868.50193)
(-0.0019156215 0.00061676033 868.50771)
(-0.00081991321 0.00069634985 868.50594)
(0.0030861802 0.00011406146 868.50712)
(0.0012516576 -1.7862831e-05 868.50779)
(-0.00034025088 -7.5659518e-05 868.50785)
(-0.0018596988 -0.00010355623 868.50723)
(-0.003222956 -0.00010773752 868.50595)
(-0.0039593748 -7.3906187e-05 868.50403)
(-0.0010664559 7.417586e-05 868.50193)
(0.00064694293 0.00064694293 868.50427)
(-0.0047648822 -0.0047648822 862.08704)
(-0.0011792208 -0.0010549038 862.08467)
(0.0088241702 -0.0013125236 862.08742)
(0.0042884786 -0.0013437365 862.08883)
(0.001646903 -0.0013806064 862.08947)
(-0.0006086639 -0.0014485546 862.08938)
(-0.002344868 -0.0015893868 862.08863)
(-0.0028699363 -0.0019140328 862.08734)
(0.00011133388 -0.0025694116 862.086)
(0.00097303887 -0.0024536073 862.08693)
(-0.0010549038 -0.0011792208 862.08467)
(0.0039993171 0.0039993171 862.08431)
(0.0083909212 0.0035175744 862.08693)
(0.0041863544 0.0034030254 862.08832)
(0.0014896758 0.0032535284 862.08892)
(-0.0009218346 0.0030112529 862.08877)
(-0.0030430852 0.002578359 862.0879)
(-0.0043399735 0.0016987167 862.08633)
(-0.00069802789 -9.4548695e-05 862.08431)
(0.0010888432 -0.0011031714 862.08538)
(-0.0013125236 0.0088241702 862.08742)
(0.0035175744 0.0083909212 862.08693)
(0.0082278785 0.0082278785 862.0895)
(0.0040244326 0.0080684855 862.09085)
(0.0012551304 0.0078554066 862.09139)
(-0.0012838333 0.0075609221 862.09117)
(-0.0036574041 0.0071373067 862.09017)
(-0.005542844 0.0064870704 862.08836)
(-0.0026905542 0.0053627794 862.08588)
(0.00030062377 0.0038959334 862.08635)
(-0.0013437365 0.0042884786 862.08883)
(0.0034030254 0.0041863544 862.08832)
(0.0080684855 0.0040244326 862.09085)
(0.0038138824 0.0038138824 862.09214)
(0.00098211249 0.0035600978 862.09261)
(-0.0016399344 0.0032550599 862.09229)
(-0.0041169369 0.0028821307 862.09117)
(-0.0061145007 0.0024357194 862.08922)
(-0.0032891649 0.0019357289 862.08655)
(0.00011094582 0.0015278348 862.08685)
(-0.0013806064 0.001646903 862.08947)
(0.0032535284 0.0014896758 862.08892)
(0.0078554066 0.0012551304 862.09139)
(0.0035600978 0.00098211249 862.09261)
(0.00069630799 0.00069630799 862.093)
(-0.0019618003 0.00040276828 862.0926)
(-0.0044767446 9.6967817e-05 862.09138)
(-0.0064892458 -0.00021608889 862.08932)
(-0.0035984388 -0.00050448109 862.08654)
(2.8694333e-05 -0.00068665448 862.08677)
(-0.0014485546 -0.0006086639 862.08938)
(0.0030112529 -0.0009218346 862.08877)
(0.0075609221 -0.0012838333 862.09117)
(0.0032550599 -0.0016399344 862.09229)
(0.00040276828 -0.0019618003 862.0926)
(-0.0022392746 -0.0022392746 862.09211)
(-0.0047357941 -0.0024762581 862.09081)
(-0.0067159496 -0.0026700411 862.08868)
(-0.0037597305 -0.002808198 862.08584)
(-1.05031e-05 -0.0028746958 862.08604)
(-0.0015893868 -0.002344868 862.08863)
(0.002578359 -0.0030430852 862.0879)
(0.0071373067 -0.0036574041 862.09017)
(0.0028821307 -0.004116937 862.09117)
(9.6967814e-05 -0.0044767446 862.09138)
(-0.0024762581 -0.0047357941 862.09081)
(-0.0049075111 -0.0049075111 862.08945)
(-0.0068211858 -0.0049924159 862.08728)
(-0.0038030936 -0.0049853844 862.08443)
(-1.5637486e-05 -0.0049145883 862.08462)
(-0.0019140328 -0.0028699363 862.08734)
(0.0016987167 -0.0043399735 862.08633)
(0.0064870704 -0.005542844 862.08836)
(0.0024357194 -0.0061145007 862.08922)
(-0.00021608889 -0.0064892458 862.08932)
(-0.002670041 -0.0067159496 862.08868)
(-0.0049924159 -0.0068211858 862.08728)
(-0.006793823 -0.0067938229 862.0851)
(-0.0036819029 -0.0065762795 862.08228)
(3.6694274e-05 -0.0061172816 862.08253)
(-0.0025694116 0.00011133388 862.086)
(-9.4548694e-05 -0.00069802789 862.08431)
(0.0053627794 -0.0026905542 862.08588)
(0.0019357289 -0.0032891649 862.08655)
(-0.00050448109 -0.0035984388 862.08654)
(-0.002808198 -0.0037597305 862.08584)
(-0.0049853844 -0.0038030936 862.08443)
(-0.0065762795 -0.0036819029 862.08228)
(-0.0031265522 -0.0031265522 862.07959)
(0.00029036108 -0.00090204624 862.08014)
(-0.0024536073 0.00097303887 862.08693)
(-0.0011031713 0.0010888432 862.08538)
(0.0038959334 0.00030062377 862.08635)
(0.0015278348 0.00011094582 862.08685)
(-0.00068665448 2.8694335e-05 862.08677)
(-0.0028746958 -1.0503104e-05 862.08604)
(-0.0049145883 -1.5637491e-05 862.08462)
(-0.0061172816 3.6694269e-05 862.08253)
(-0.00090204624 0.00029036108 862.08014)
(0.0015196983 0.0015196983 862.08275)
(-0.0055184027 -0.0055184027 855.57359)
(-0.00098474475 -0.0011675894 855.57144)
(0.010811823 -0.0014691639 855.57401)
(0.0052301154 -0.0015098194 855.57526)
(0.0018480752 -0.0015577648 855.57576)
(-0.0010974167 -0.0016450052 855.57554)
(-0.0034420737 -0.0018250938 855.57466)
(-0.0042874977 -0.002244189 855.57323)
(-0.00022569008 -0.0031178737 855.5717)
(0.0012360497 -0.0029487718 855.57239)
(-0.0011675894 -0.00098474475 855.57144)
(0.0050891135 0.0050891135 855.57114)
(0.010298478 0.0045151902 855.57358)
(0.0050972141 0.0043650982 855.5748)
(0.0016452965 0.0041707763 855.57526)
(-0.0014984103 0.0038585322 855.57499)
(-0.0043408494 0.0033030395 855.574)
(-0.0062266675 0.0021717528 855.57229)
(-0.0012825642 -0.00017867026 855.57011)
(0.0014051516 -0.001393007 855.57096)
(-0.0014691639 0.010811823 855.57401)
(0.0045151902 0.010298478 855.57358)
(0.010087808 0.010087808 855.57596)
(0.0048857015 0.0098792455 855.57714)
(0.0013415092 0.0096029236 855.57755)
(-0.0019651535 0.0092225773 855.57719)
(-0.0051288532 0.0086767404 855.57607)
(-0.0077692075 0.0078423224 855.57415)
(-0.0037904498 0.0063952171 855.57152)
(0.00042649186 0.0045613956 855.57181)
(-0.0015098194 0.0052301154 855.57526)
(0.0043650982 0.0050972141 855.5748)
(0.0098792455 0.0048857015 855.57714)
(0.0046123295 0.0046123295 855.57827)
(0.00098862835 0.0042842303 855.5786)
(-0.0024245934 0.0038907951 855.57816)
(-0.0057211044 0.0034103566 855.57693)
(-0.0085081908 0.0028362002 855.57486)
(-0.0045634909 0.0021903753 855.57205)
(0.00018260393 0.0016663144 855.57218)
(-0.0015577648 0.0018480752 855.57576)
(0.0041707763 0.0016452965 855.57526)
(0.0096029236 0.0013415092 855.57755)
(0.0042842303 0.00098862835 855.5786)
(0.00061997479 0.00061997479 855.57886)
(-0.0028390272 0.00024194548 855.57833)
(-0.006183448 -0.00015120669 855.577)
(-0.0089891888 -0.00055264328 855.57483)
(-0.0049603356 -0.0009220778 855.57192)
(7.7117929e-05 -0.0011549988 855.57198)
(-0.0016450052 -0.0010974167 855.57554)
(0.0038585323 -0.0014984103 855.57499)
(0.0092225773 -0.0019651535 855.57719)
(0.0038907951 -0.0024245934 855.57816)
(0.00024194548 -0.0028390272 855.57833)
(-0.0031957749 -0.0031957749 855.57773)
(-0.0065156931 -0.0034995936 855.57632)
(-0.0092790619 -0.0037467529 855.57408)
(-0.0051658465 -0.0039215744 855.57111)
(2.7323234e-05 -0.0040047019 855.57115)
(-0.0018250938 -0.0034420737 855.57466)
(0.0033030395 -0.0043408494 855.574)
(0.0086767404 -0.0051288532 855.57607)
(0.0034103566 -0.0057211044 855.57693)
(-0.00015120669 -0.0061834481 855.577)
(-0.0034995936 -0.0065156931 855.57632)
(-0.006734426 -0.006734426 855.57486)
(-0.0094111696 -0.0068397483 855.57258)
(-0.0052182846 -0.006824946 855.5696)
(2.1699613e-05 -0.0067284769 855.56963)
(-0.002244189 -0.0042874977 855.57323)
(0.0021717528 -0.0062266675 855.57229)
(0.0078423224 -0.0077692075 855.57415)
(0.0028362002 -0.0085081908 855.57486)
(-0.00055264328 -0.0089891888 855.57483)
(-0.0037467529 -0.0092790619 855.57408)
(-0.0068397483 -0.0094111696 855.57258)
(-0.0093695819 -0.0093695819 855.5703)
(-0.0050545751 -0.0090746138 855.56735)
(9.1635964e-05 -0.0084401954 855.56744)
(-0.0031178737 -0.00022569008 855.5717)
(-0.00017867027 -0.0012825642 855.57011)
(0.0063952171 -0.0037904498 855.57152)
(0.0021903753 -0.0045634909 855.57205)
(-0.0009220778 -0.0049603356 855.57192)
(-0.0039215744 -0.0051658465 855.57111)
(-0.006824946 -0.0052182846 855.5696)
(-0.0090746138 -0.0050545751 855.56735)
(-0.004288898 -0.004288898 855.56452)
(0.00044464522 -0.00084989506 855.5649)
(-0.0029487718 0.0012360497 855.57239)
(-0.001393007 0.0014051516 855.57096)
(0.0045613956 0.00042649186 855.57181)
(0.0016663145 0.00018260394 855.57218)
(-0.0011549988 7.7117929e-05 855.57198)
(-0.0040047019 2.7323236e-05 855.57115)
(-0.0067284769 2.1699611e-05 855.56963)
(-0.0084401954 9.1635962e-05 855.56744)
(-0.00084989506 0.00044464522 855.5649)
(0.0023843046 0.0023843046 855.56739)
(-0.0061994352 -0.0061994352 848.97594)
(-0.00076141663 -0.0012529846 848.97401)
(0.012649939 -0.0015995521 848.97642)
(0.0060372334 -0.0016504277 848.97755)
(0.0019241016 -0.0017094404 848.97793)
(-0.001704693 -0.0018153652 848.9776)
(-0.0046568525 -0.00203323 848.97662)
(-0.0058325138 -0.0025431223 848.97509)
(-0.00073093201 -0.00362811 848.97345)
(0.0014323287 -0.0034084625 848.97395)
(-0.0012529846 -0.00076141663 848.97401)
(0.006138408 0.006138408 848.9738)
(0.012053774 0.0054686874 848.97608)
(0.0058724009 0.0052811321 848.97718)
(0.0016766953 0.0050423828 848.97752)
(-0.0021903773 0.004662447 848.97714)
(-0.0057484881 0.0039891586 848.97605)
(-0.0082248339 0.0026165668 848.97425)
(-0.0020289423 -0.00027117278 848.97199)
(0.0016519763 -0.001679165 848.97263)
(-0.0015995521 0.012649939 848.97642)
(0.0054686874 0.012053774 848.97608)
(0.011792663 0.011792663 848.9783)
(0.0056109288 0.011534251 848.97935)
(0.0013054165 0.011195914 848.97964)
(-0.0027579171 0.010732637 848.97918)
(-0.0067027327 0.010069527 848.97797)
(-0.010092845 0.0090591121 848.97597)
(-0.0050266638 0.0073025085 848.97328)
(0.00049366722 0.0051224313 848.9734)
(-0.0016504277 0.0060372334 848.97755)
(0.0052811321 0.0058724009 848.97718)
(0.011534251 0.0056109288 848.97935)
(0.0052756517 0.0052756517 848.98035)
(0.00087508132 0.0048753284 848.98057)
(-0.0033167642 0.0043966943 848.98003)
(-0.0074220132 0.0038131429 848.97871)
(-0.010991852 0.0031169905 848.97657)
(-0.0059656231 0.0023317408 848.9737)
(0.0001985914 0.0016978818 848.97367)
(-0.0017094404 0.0019241016 848.97793)
(0.0050423828 0.0016766953 848.97752)
(0.011195914 0.0013054165 848.97964)
(0.0048753284 0.00087508131 848.98057)
(0.00042645914 0.00042645913 848.98071)
(-0.0038201026 -3.276671e-05 848.98009)
(-0.0079824366 -0.00050954362 848.97868)
(-0.011574247 -0.00099523311 848.97644)
(-0.0064457724 -0.0014417727 848.97347)
(7.1094551e-05 -0.0017226414 848.97338)
(-0.0018153652 -0.001704693 848.9776)
(0.004662447 -0.0021903773 848.97714)
(0.010732637 -0.0027579171 848.97918)
(0.0043966943 -0.0033167642 848.98003)
(-3.2766705e-05 -0.0038201026 848.98009)
(-0.004252767 -0.004252767 848.97939)
(-0.0083844796 -0.0046202923 848.9779)
(-0.011924081 -0.0049179252 848.9756)
(-0.0066930314 -0.0051269812 848.97258)
(1.1345622e-05 -0.0052251842 848.97246)
(-0.00203323 -0.0046568525 848.97662)
(0.0039891586 -0.0057484881 848.97605)
(0.010069527 -0.0067027327 848.97797)
(0.0038131429 -0.0074220131 848.97871)
(-0.00050954362 -0.0079824366 848.97868)
(-0.0046202923 -0.0083844796 848.9779)
(-0.0086475948 -0.0086475948 848.97637)
(-0.012080936 -0.0087713302 848.97403)
(-0.0067530314 -0.0087475463 848.971)
(5.6258966e-06 -0.0086252553 848.97088)
(-0.0025431223 -0.0058325138 848.97509)
(0.0026165668 -0.0082248339 848.97425)
(0.0090591121 -0.010092845 848.97597)
(0.0031169905 -0.010991852 848.97657)
(-0.00099523311 -0.011574247 848.97644)
(-0.0049179252 -0.011924081 848.9756)
(-0.0087713302 -0.012080936 848.97403)
(-0.012024033 -0.012024033 848.97169)
(-0.0065469564 -0.0116534 848.96869)
(9.2873002e-05 -0.010853247 848.96862)
(-0.00362811 -0.00073093201 848.97345)
(-0.00027117278 -0.0020289423 848.97199)
(0.0073025085 -0.0050266638 848.97328)
(0.0023317408 -0.0059656231 848.9737)
(-0.0014417727 -0.0064457725 848.97347)
(-0.0051269812 -0.0066930314 848.97258)
(-0.0087475464 -0.0067530314 848.971)
(-0.0116534 -0.0065469565 848.96869)
(-0.005582246 -0.005582246 848.96581)
(0.00053906087 -0.00094472788 848.966)
(-0.0034084625 0.0014323287 848.97395)
(-0.001679165 0.0016519763 848.97263)
(0.0051224313 0.00049366722 848.9734)
(0.0016978818 0.0001985914 848.97367)
(-0.0017226414 7.1094552e-05 848.97338)
(-0.0052251842 1.1345617e-05 848.97246)
(-0.0086252553 5.6258947e-06 848.97088)
(-0.010853247 9.2873001e-05 848.96862)
(-0.00094472788 0.00053906087 848.966)
(0.0031845517 0.0031845517 848.96829)
(-0.0068046629 -0.0068046629 842.30491)
(-0.00049927588 -0.0013076265 842.30321)
(0.014353639 -0.0016986781 842.30547)
(0.0067305608 -0.0017601146 842.30649)
(0.0018975125 -0.0018300279 842.30676)
(-0.0024031332 -0.0019538933 842.30635)
(-0.0059533472 -0.0022077984 842.3053)
(-0.0074586488 -0.0028043919 842.30371)
(-0.0013616812 -0.0040926486 842.302)
(0.0015730841 -0.0038301868 842.30235)
(-0.0013076265 -0.00049927587 842.30321)
(0.0071597013 0.0071597013 842.30309)
(0.013674907 0.0063940649 842.30522)
(0.0065335361 0.0061682858 842.30621)
(0.0016068444 0.005886002 842.30645)
(-0.002969789 0.0054410603 842.30599)
(-0.0072290951 0.0046554227 842.30483)
(-0.010285924 0.0030529071 842.30298)
(-0.0029003734 -0.00034957558 842.30068)
(0.0018355459 -0.0019483123 842.30115)
(-0.0016986781 0.014353639 842.30547)
(0.0063940649 0.013674907 842.30522)
(0.013362224 0.013362224 842.3073)
(0.0062224979 0.013054105 842.30824)
(0.001170287 0.012655459 842.30843)
(-0.0036337125 0.012112588 842.30789)
(-0.0083415004 0.011337618 842.30662)
(-0.012463647 0.010159933 842.30458)
(-0.0063629006 0.0081086648 842.30187)
(0.00050725961 0.0056009468 842.30184)
(-0.0017601146 0.0067305608 842.30649)
(0.0061682858 0.0065335361 842.30621)
(0.013054105 0.0062224979 842.30824)
(0.0058267713 0.0058267713 842.30912)
(0.00066532769 0.005356725 842.30924)
(-0.0042876303 0.0047964526 842.30863)
(-0.0091817499 0.0041145334 842.30725)
(-0.013514877 0.0033023863 842.30508)
(-0.0074593598 0.0023845319 842.30221)
(0.0001637339 0.0016467447 842.30203)
(-0.0018300279 0.0018975125 842.30676)
(0.005886002 0.0016068444 842.30645)
(0.012655459 0.001170287 842.30843)
(0.005356725 0.00066532769 842.30924)
(0.00013996822 0.00013996822 842.3093)
(-0.004875904 -0.00039688811 842.3086)
(-0.0098355668 -0.00095337734 842.30714)
(-0.014193649 -0.0015191556 842.30487)
(-0.0080185421 -0.002038912 842.3019)
(1.5401489e-05 -0.0023651564 842.30167)
(-0.0019538933 -0.0024031332 842.30635)
(0.0054410603 -0.002969789 842.30599)
(0.012112588 -0.0036337125 842.30789)
(0.0047964526 -0.0042876303 842.30863)
(-0.00039688811 -0.004875904 842.3086)
(-0.0053809758 -0.0053809758 842.30783)
(-0.010304017 -0.0058091349 842.3063)
(-0.014600412 -0.0061546766 842.30397)
(-0.0083053606 -0.0063961356 842.30096)
(-5.3762381e-05 -0.0065085002 842.3007)
(-0.0022077984 -0.0059533472 842.3053)
(0.0046554227 -0.0072290951 842.30483)
(0.011337618 -0.0083415004 842.30662)
(0.0041145334 -0.0091817499 842.30725)
(-0.00095337735 -0.0098355668 842.30714)
(-0.0058091349 -0.010304017 842.3063)
(-0.010609268 -0.010609268 842.30472)
(-0.014780649 -0.010750356 842.30236)
(-0.0083723657 -0.010717851 842.29933)
(-5.9508224e-05 -0.010570824 842.29907)
(-0.0028043919 -0.0074586489 842.30371)
(0.0030529071 -0.010285924 842.30298)
(0.010159933 -0.012463647 842.30458)
(0.0033023863 -0.013514877 842.30508)
(-0.0015191556 -0.014193649 842.30487)
(-0.0061546766 -0.014600412 842.30397)
(-0.010750356 -0.014780649 842.30236)
(-0.014708995 -0.014708995 842.3)
(-0.0081258281 -0.014266587 842.297)
(4.425574e-05 -0.013310717 842.29679)
(-0.0040926486 -0.0013616812 842.302)
(-0.00034957559 -0.0029003734 842.30068)
(0.0081086648 -0.0063629006 842.30187)
(0.0023845319 -0.0074593598 842.30221)
(-0.002038912 -0.0080185421 842.3019)
(-0.0063961356 -0.0083053606 842.30096)
(-0.010717851 -0.0083723657 842.29933)
(-0.014266587 -0.0081258281 842.297)
(-0.006974088 -0.006974088 842.2941)
(0.000577738 -0.0011820691 842.29414)
(-0.0038301868 0.0015730841 842.30235)
(-0.0019483123 0.0018355459 842.30115)
(0.0056009468 0.00050725961 842.30184)
(0.0016467447 0.0001637339 842.30203)
(-0.0023651564 1.5401488e-05 842.30167)
(-0.0065085002 -5.3762378e-05 842.3007)
(-0.010570824 -5.9508223e-05 842.29907)
(-0.013310717 4.4255739e-05 842.29679)
(-0.0011820691 0.000577738 842.29414)
(0.0039056017 0.0039056017 842.29618)
(-0.0073313958 -0.0073313958 835.57202)
(-0.00019441481 -0.0013307691 835.57056)
(0.015928882 -0.001764998 835.57268)
(0.0073249886 -0.0018370656 835.57359)
(0.0017883899 -0.0019175812 835.57378)
(-0.0031671692 -0.0020585341 835.5733)
(-0.0073000018 -0.0023465565 835.5722)
(-0.009130321 -0.0030253087 835.57059)
(-0.002089955 -0.0045075784 835.56885)
(0.0016647583 -0.0042109047 835.56905)
(-0.0013307691 -0.00019441481 835.57056)
(0.008155182 0.008155182 835.57054)
(0.015169437 0.0072954514 835.57253)
(0.0070961138 0.0070315063 835.5734)
(0.0014561871 0.0067070354 835.57356)
(-0.0038106322 0.0062001517 835.57304)
(-0.0087501637 0.0053081409 835.57184)
(-0.012371854 0.003488131 835.56999)
(-0.003868349 -0.00040361373 835.56768)
(0.0019614319 -0.0021910017 835.56798)
(-0.001764998 0.015928882 835.57268)
(0.0072954514 0.015169437 835.57253)
(0.014805206 0.014805206 835.57445)
(0.0067365726 0.014448246 835.57529)
(0.00095703528 0.013991495 835.5754)
(-0.0045660637 0.013372788 835.5748)
(-0.010012023 0.012491832 835.5735)
(-0.014842076 0.011156182 835.57146)
(-0.0077690877 0.0088264722 835.56877)
(0.00047316629 0.0060102321 835.5686)
(-0.0018370656 0.0073249886 835.57359)
(0.0070315063 0.0070961138 835.5734)
(0.014448246 0.0067365726 835.57529)
(0.006282403 0.006282403 835.57607)
(0.00038072944 0.0057455733 835.57612)
(-0.0053102956 0.0051076004 835.57544)
(-0.01096677 0.0043324167 835.57404)
(-0.016037213 0.0034105877 835.57188)
(-0.0090142988 0.0023673691 835.56903)