/*--------------------------------*- C++ -*----------------------------------*\
| =========                 |                                                 |
| \\      /  F ield         | OpenFOAM: The Open Source CFD Toolbox           |
|  \\    /   O peration     | Version:  v2106                                 |
|   \\  /    A nd           | Website:  www.openfoam.com                      |
|    \\/     M anipulation  |                                                 |
\*---------------------------------------------------------------------------*/
FoamFile
{
    version     2.0;
    format      ascii;
    arch        "LSB;label=32;scalar=64";
    class       volScalarField;
    location    "42.5";
    object      gradTy;
}
// * * * * * * * * * * * * * * * * * * * * * * * * * * * * * * * * * * * * * //

dimensions      [0 -1 0 1 0 0 0];

internalField   nonuniform List<scalar> 
4000
(
-0.00081384492
-0.00015170857
-0.00022655626
-0.00023017722
-0.00023315873
-0.00023881902
-0.00025020394
-0.00027333196
-0.00031025686
-0.00031882969
-0.00046352595
0.00041740705
0.00029557149
0.00028535526
0.00027345291
0.00025367814
0.00021854358
0.00015150826
3.1613839e-05
-9.5083072e-05
0.0010129522
0.00089524919
0.00088090037
0.0008689933
0.00085203864
0.00082835604
0.0007940968
0.00074128633
0.00065370898
0.00052098587
0.00038919061
0.0003792869
0.00036707203
0.00035042518
0.00033002025
0.00030541414
0.00027532228
0.00023933997
0.00020093321
0.00017180265
0.00016822479
0.00015526209
0.00013654766
0.00011462482
9.1536614e-05
6.7776671e-05
4.2928642e-05
1.7246904e-05
-6.5924326e-06
-2.1938268e-05
-8.9288437e-06
-3.4496659e-05
-6.3838165e-05
-9.2438504e-05
-0.00011853614
-0.00014104647
-0.00016038609
-0.000176407
-0.00018818276
-0.00019438576
-0.00013247123
-0.00018424063
-0.0002346411
-0.00027131033
-0.00030071526
-0.00032184011
-0.0003360758
-0.00034372548
-0.00034495648
-0.0003422979
-0.00016541944
-0.00025549882
-0.00035234918
-0.00039588663
-0.00042673825
-0.00044540771
-0.00045453492
-0.00045428839
-0.00044391614
-0.00042785074
-7.464089e-05
-0.00014288749
-0.00032123222
-0.00036318795
-0.00038876955
-0.00040237312
-0.0004067483
-0.00040094554
-0.00038031065
-0.00034402216
1.3207088e-06
-7.2521176e-06
-8.3143901e-05
-9.5734199e-05
-0.00010256428
-0.00010596476
-0.00010669961
-0.00010419237
-9.5989343e-05
-8.0000043e-05
-0.0029323585
-0.00077371361
-0.00095279187
-0.00096814158
-0.00098304121
-0.0010106627
-0.0010668631
-0.0011841162
-0.0013710325
-0.0012723884
-0.0014632298
0.0015061201
0.001188717
0.0011387365
0.0010795122
0.00098286555
0.00081008758
0.00047382402
-0.0001341122
-0.00051299568
0.0041794651
0.0038878232
0.0038120816
0.0037492905
0.0036657508
0.003550011
0.0033824533
0.0031215388
0.0026750121
0.0020413947
0.001884985
0.001839611
0.0017757802
0.0016932803
0.0015934769
0.0014733798
0.0013266443
0.0011509784
0.00095814007
0.00080268446
0.0007981376
0.0007343559
0.00064226664
0.00053507639
0.00042236613
0.00030640776
0.0001852856
6.0620003e-05
-5.4455535e-05
-0.00012715972
-7.145696e-05
-0.00019718981
-0.00034088155
-0.00048048738
-0.00060771414
-0.00071756791
-0.00081184284
-0.00088972103
-0.00094642627
-0.00097503725
-0.00068104137
-0.00094122156
-0.0011900829
-0.0013696937
-0.0015124843
-0.0016154815
-0.0016846375
-0.0017210437
-0.001724623
-0.0017071051
-0.00081773786
-0.001273992
-0.0017619376
-0.0019814331
-0.0021304419
-0.0022211743
-0.0022650253
-0.0022611598
-0.0022011117
-0.0020986628
-0.00017304318
-0.00030545155
-0.0011598629
-0.0013855956
-0.0015081568
-0.0015733754
-0.001593473
-0.0015594367
-0.001430976
-0.0011454775
0.00012828004
0.00022692415
-0.00012430894
-0.00019548746
-0.00022794601
-0.00024395692
-0.00024702001
-0.00023227831
-0.00017872076
-4.1945954e-05
-0.0039358853
-0.00092497417
-0.0011425148
-0.0011655654
-0.0011915275
-0.0012398304
-0.0013402318
-0.0015664505
-0.001995211
-0.0019156215
-0.0013602592
0.0028297965
0.0024312677
0.0023493311
0.0022446591
0.0020740239
0.0017676339
0.0011498531
-6.586491e-05
-0.00081991322
0.0066502217
0.006289335
0.0061697564
0.0060584761
0.0059096037
0.0057035059
0.0054063611
0.0049476311
0.0041574993
0.0030861802
0.0031845408
0.0031110219
0.0029979323
0.0028508692
0.0026732104
0.0024594185
0.0021979592
0.0018846691
0.0015362391
0.0012516576
0.0013001698
0.0011887723
0.0010248625
0.00083380209
0.00063341181
0.00042735984
0.00021238988
-8.2638946e-06
-0.00021171079
-0.00034025089
-0.00026133773
-0.00048439421
-0.000738363
-0.00098763682
-0.0012136141
-0.0014086587
-0.0015756794
-0.0017129262
-0.0018115818
-0.0018596988
-0.0014034724
-0.0018934025
-0.0023276431
-0.0026492774
-0.0029023925
-0.0030849011
-0.00320666
-0.0032684668
-0.003267431
-0.003222956
-0.0016539998
-0.0026364686
-0.0034874985
-0.0038853304
-0.0041492187
-0.0043094311
-0.0043851211
-0.0043702022
-0.0042322448
-0.0039593748
0.00019099342
-0.0003327631
-0.0017787729
-0.0021942139
-0.0024117844
-0.0025262009
-0.002558557
-0.0024806901
-0.0021477296
-0.0010664559
0.00061676033
0.00069634985
0.00011406146
-1.7862831e-05
-7.5659518e-05
-0.00010355623
-0.00010773752
-7.3906187e-05
7.417586e-05
0.00064694293
-0.0047648822
-0.0010549038
-0.0013125236
-0.0013437365
-0.0013806064
-0.0014485546
-0.0015893868
-0.0019140328
-0.0025694116
-0.0024536073
-0.0011792208
0.0039993171
0.0035175744
0.0034030254
0.0032535284
0.0030112529
0.002578359
0.0016987167
-9.4548695e-05
-0.0011031714
0.0088241702
0.0083909212
0.0082278785
0.0080684855
0.0078554066
0.0075609221
0.0071373067
0.0064870704
0.0053627794
0.0038959334
0.0042884786
0.0041863544
0.0040244326
0.0038138824
0.0035600978
0.0032550599
0.0028821307
0.0024357194
0.0019357289
0.0015278348
0.001646903
0.0014896758
0.0012551304
0.00098211249
0.00069630799
0.00040276828
9.6967817e-05
-0.00021608889
-0.00050448109
-0.00068665448
-0.0006086639
-0.0009218346
-0.0012838333
-0.0016399344
-0.0019618003
-0.0022392746
-0.0024762581
-0.0026700411
-0.002808198
-0.0028746958
-0.002344868
-0.0030430852
-0.0036574041
-0.004116937
-0.0044767446
-0.0047357941
-0.0049075111
-0.0049924159
-0.0049853844
-0.0049145883
-0.0028699363
-0.0043399735
-0.005542844
-0.0061145007
-0.0064892458
-0.0067159496
-0.0068211858
-0.0067938229
-0.0065762795
-0.0061172816
0.00011133388
-0.00069802789
-0.0026905542
-0.0032891649
-0.0035984388
-0.0037597305
-0.0038030936
-0.0036819029
-0.0031265522
-0.00090204624
0.00097303887
0.0010888432
0.00030062377
0.00011094582
2.8694335e-05
-1.0503104e-05
-1.5637491e-05
3.6694269e-05
0.00029036108
0.0015196983
-0.0055184027
-0.0011675894
-0.0014691639
-0.0015098194
-0.0015577648
-0.0016450052
-0.0018250938
-0.002244189
-0.0031178737
-0.0029487718
-0.00098474475
0.0050891135
0.0045151902
0.0043650982
0.0041707763
0.0038585322
0.0033030395
0.0021717528
-0.00017867026
-0.001393007
0.010811823
0.010298478
0.010087808
0.0098792455
0.0096029236
0.0092225773
0.0086767404
0.0078423224
0.0063952171
0.0045613956
0.0052301154
0.0050972141
0.0048857015
0.0046123295
0.0042842303
0.0038907951
0.0034103566
0.0028362002
0.0021903753
0.0016663144
0.0018480752
0.0016452965
0.0013415092
0.00098862835
0.00061997479
0.00024194548
-0.00015120669
-0.00055264328
-0.0009220778
-0.0011549988
-0.0010974167
-0.0014984103
-0.0019651535
-0.0024245934
-0.0028390272
-0.0031957749
-0.0034995936
-0.0037467529
-0.0039215744
-0.0040047019
-0.0034420737
-0.0043408494
-0.0051288532
-0.0057211044
-0.0061834481
-0.0065156931
-0.006734426
-0.0068397483
-0.006824946
-0.0067284769
-0.0042874977
-0.0062266675
-0.0077692075
-0.0085081908
-0.0089891888
-0.0092790619
-0.0094111696
-0.0093695819
-0.0090746138
-0.0084401954
-0.00022569008
-0.0012825642
-0.0037904498
-0.0045634909
-0.0049603356
-0.0051658465
-0.0052182846
-0.0050545751
-0.004288898
-0.00084989506
0.0012360497
0.0014051516
0.00042649186
0.00018260394
7.7117929e-05
2.7323236e-05
2.1699611e-05
9.1635962e-05
0.00044464522
0.0023843046
-0.0061994352
-0.0012529846
-0.0015995521
-0.0016504277
-0.0017094404
-0.0018153652
-0.00203323
-0.0025431223
-0.00362811
-0.0034084625
-0.00076141663
0.006138408
0.0054686874
0.0052811321
0.0050423828
0.004662447
0.0039891586
0.0026165668
-0.00027117278
-0.001679165
0.012649939
0.012053774
0.011792663
0.011534251
0.011195914
0.010732637
0.010069527
0.0090591121
0.0073025085
0.0051224313
0.0060372334
0.0058724009
0.0056109288
0.0052756517
0.0048753284
0.0043966943
0.0038131429
0.0031169905
0.0023317408
0.0016978818
0.0019241016
0.0016766953
0.0013054165
0.00087508131
0.00042645913
-3.276671e-05
-0.00050954362
-0.00099523311
-0.0014417727
-0.0017226414
-0.001704693
-0.0021903773
-0.0027579171
-0.0033167642
-0.0038201026
-0.004252767
-0.0046202923
-0.0049179252
-0.0051269812
-0.0052251842
-0.0046568525
-0.0057484881
-0.0067027327
-0.0074220131
-0.0079824366
-0.0083844796
-0.0086475948
-0.0087713302
-0.0087475463
-0.0086252553
-0.0058325138
-0.0082248339
-0.010092845
-0.010991852
-0.011574247
-0.011924081
-0.012080936
-0.012024033
-0.0116534
-0.010853247
-0.00073093201
-0.0020289423
-0.0050266638
-0.0059656231
-0.0064457725
-0.0066930314
-0.0067530314
-0.0065469565
-0.005582246
-0.00094472788
0.0014323287
0.0016519763
0.00049366722
0.0001985914
7.1094552e-05
1.1345617e-05
5.6258947e-06
9.2873001e-05
0.00053906087
0.0031845517
-0.0068046629
-0.0013076265
-0.0016986781
-0.0017601146
-0.0018300279
-0.0019538933
-0.0022077984
-0.0028043919
-0.0040926486
-0.0038301868
-0.00049927587
0.0071597013
0.0063940649
0.0061682858
0.005886002
0.0054410603
0.0046554227
0.0030529071
-0.00034957558
-0.0019483123
0.014353639
0.013674907
0.013362224
0.013054105
0.012655459
0.012112588
0.011337618
0.010159933
0.0081086648
0.0056009468
0.0067305608
0.0065335361
0.0062224979
0.0058267713
0.005356725
0.0047964526
0.0041145334
0.0033023863
0.0023845319
0.0016467447
0.0018975125
0.0016068444
0.001170287
0.00066532769
0.00013996822
-0.00039688811
-0.00095337734
-0.0015191556
-0.002038912
-0.0023651564
-0.0024031332
-0.002969789
-0.0036337125
-0.0042876303
-0.004875904
-0.0053809758
-0.0058091349
-0.0061546766
-0.0063961356
-0.0065085002
-0.0059533472
-0.0072290951
-0.0083415004
-0.0091817499
-0.0098355668
-0.010304017
-0.010609268
-0.010750356
-0.010717851
-0.010570824
-0.0074586489
-0.010285924
-0.012463647
-0.013514877
-0.014193649
-0.014600412
-0.014780649
-0.014708995
-0.014266587
-0.013310717
-0.0013616812
-0.0029003734
-0.0063629006
-0.0074593598
-0.0080185421
-0.0083053606
-0.0083723657
-0.0081258281
-0.006974088
-0.0011820691
0.0015730841
0.0018355459
0.00050725961
0.0001637339
1.5401488e-05
-5.3762378e-05
-5.9508223e-05
4.4255739e-05
0.000577738
0.0039056017
-0.0073313958
-0.0013307691
-0.001764998
-0.0018370656
-0.0019175812
-0.0020585341
-0.0023465565
-0.0030253087
-0.0045075784
-0.0042109047
-0.00019441481
0.008155182
0.0072954514
0.0070315063
0.0067070354
0.0062001517
0.0053081409
0.003488131
-0.00040361373
-0.0021910017
0.015928882
0.015169437
0.014805206
0.014448246
0.013991495
0.013372788
0.012491832
0.011156182
0.0088264722
0.0060102321
0.0073249886
0.0070961138
0.0067365726
0.006282403
0.0057455733
0.0051076004
0.0043324167
0.0034105877
0.0023673691
0.0015315422
0.0017883899
0.0014561871
0.00095703529
0.00038072945
-0.0002177673
-0.00082840461
-0.0014604898
-0.0021020882
-0.0026911202
-0.003060236
-0.0031671692
-0.0038106322
-0.0045660637
-0.0053102956
-0.0059792203
-0.0065530181
-0.0070387286
-0.0074297905
-0.0077021477
-0.0078281171
-0.0073000018
-0.0087501637
-0.010012023
-0.01096677
-0.011709035
-0.012240453
-0.012585808
-0.012743754
-0.012703707
-0.012534007
-0.009130321
-0.012371854
-0.014842076
-0.016037213
-0.016807123
-0.017267844
-0.017470542
-0.017385743
-0.016877093
-0.015776622
-0.002089955
-0.003868349
-0.0077690877
-0.0090142988
-0.0096481332
-0.0099724467
-0.01004646
-0.0097627
-0.0084373393
-0.0015469389
0.0016647583
0.0019614319
0.00047316629
8.3938547e-05
-8.4051628e-05
-0.0001621387
-0.00016803121
-4.9005682e-05
0.00056561568
0.0045445946
-0.0077783705
-0.001323205
-0.0017987785
-0.00188137
-0.0019720837
-0.0021291662
-0.0024492022
-0.0032051214
-0.0048709453
-0.004548514
0.00015255306
0.0091219412
0.0081712143
0.0078697343
0.0075048089
0.006939416
0.0059475429
0.0039235667
-0.0004291118
-0.0024017126
0.0173767
0.016539452
0.016124493
0.01572013
0.01520793
0.014517567
0.01353699
0.012053353
0.0094628132
0.0063585226
0.0078310079
0.0075710501
0.0071646025
0.0066544869
0.0060542376
0.0053428887
0.0044799342
0.0034551347
0.0022942827
0.0013666057
0.0016134586
0.0012417642
0.00068314032
3.9201259e-05
-0.00062845793
-0.0013087209
-0.0020120367
-0.0027249943
-0.0033792028
-0.003788624
-0.0039745811
-0.0046902589
-0.005531847
-0.0063611984
-0.0071061504
-0.0077447772
-0.0082848655
-0.0087190884
-0.0090209529
-0.0091601015
-0.0086697978
-0.010283731
-0.011685647
-0.012747945
-0.013573401
-0.014164218
-0.014547712
-0.01472229
-0.014676329
-0.014486511
-0.010818232
-0.014450846
-0.017194886
-0.018525023
-0.019380538
-0.019892189
-0.020116625
-0.020020806
-0.019452342
-0.018219313
-0.0028939344
-0.0049090232
-0.0092192138
-0.010603854
-0.011307743
-0.011667483
-0.011748756
-0.011431705
-0.0099472629
-0.0020220919
0.0017120812
0.0020345126
0.00039701401
-3.5014483e-05
-0.00022143733
-0.00030796191
-0.00031420307
-0.00018141683
0.0005078163
0.0051020305
-0.0081455778
-0.0012867055
-0.0018013648
-0.0018942383
-0.0019946564
-0.0021668117
-0.0025165813
-0.0033442381
-0.0051820097
-0.0048418431
0.00053793562
0.010054255
0.0090166413
0.0086787046
0.0082753901
0.0076552732
0.0065705811
0.0043572642
-0.00042529899
-0.0025778047
0.018695284
0.017783985
0.017319734
0.016869881
0.016305291
0.015547867
0.014474538
0.012853609
0.010021213
0.0066508677
0.0082558879
0.0079659506
0.0075146367
0.0069515079
0.0062916045
0.0055115934
0.0045667776
0.0034461752
0.002175961
0.0011630341
0.0013863302
0.00097747004
0.0003628989
-0.00034454395
-0.0010770156
-0.0018224215
-0.0025923083
-0.0033718985
-0.004086946
-0.0045339684
-0.0048064245
-0.0055893119
-0.0065112335
-0.0074200651
-0.0082360603
-0.0089353578
-0.0095264811
-0.010001418
-0.010331371
-0.010483282
-0.010039499
-0.011805638
-0.013337508
-0.014499896
-0.015402926
-0.016049373
-0.016468986
-0.016660042
-0.01660997
-0.016402795
-0.012497193
-0.016495336
-0.019493073
-0.02094866
-0.02188389
-0.022443298
-0.02268878
-0.022584283
-0.021962875
-0.020609978
-0.0037548454
-0.0060012529
-0.010689914
-0.012203995
-0.012973055
-0.013366064
-0.01345492
-0.013108817
-0.011480615
-0.0025901196
0.0017191317
0.0020592983
0.00028412784
-0.00018759852
-0.0003911567
-0.0004856134
-0.00049243062
-0.00034749649
0.00040950036
0.0055795007
-0.0084340124
-0.001223691
-0.0017747985
-0.0018775957
-0.0019871452
-0.0021732242
-0.0025502813
-0.0034438362
-0.0054408804
-0.0050904598
0.00095599808
0.010944819
0.0098253172
0.0094523877
0.0090130479
0.0083423241
0.0071723651
0.0047853743
-0.00039349386
-0.0027186298
0.019881226
0.018900369
0.018388795
0.017895778
0.017282232
0.016462736
0.015304018
0.013557202
0.01050321
0.0068902716
0.0086046089
0.0082860889
0.0077923395
0.0071795258
0.0064641144
0.0056205395
0.0046001951
0.0033914341
0.0020206799
0.00092953716
0.001118062
0.00067461917
7.9983823e-06
-0.00075842355
-0.001550988
-0.0023567151
-0.0031881901
-0.0040293752
-0.004800639
-0.0052823829
-0.0056465449
-0.0064912491
-0.0074872277
-0.0084694629
-0.0093511471
-0.010106665
-0.010745254
-0.011258288
-0.011614795
-0.011778994
-0.011388887
-0.013294805
-0.014945836
-0.016200338
-0.017174942
-0.017872998
-0.018326565
-0.018533895
-0.018481534
-0.018259821
-0.014144952
-0.01848085
-0.021710811
-0.023281659
-0.024290326
-0.024894107
-0.025159867
-0.025049077
-0.024381787
-0.022922148
-0.0046556573
-0.0071255928
-0.012159661
-0.013792524
-0.014621558
-0.015045531
-0.015142264
-0.014771458
-0.013015335
-0.0032338986
0.0016897437
0.0020401643
0.0001396531
-0.00036846139
-0.00058777537
-0.00068962398
-0.00069724087
-0.00054181534
0.00027585179
0.0059791423
-0.0086454779
-0.0011370219
-0.0017215925
-0.001833849
-0.0019518846
-0.002150653
-0.0025523995
-0.0035056413
-0.0056483087
-0.0052945118
0.0013996673
0.011785495
0.01058992
0.010183813
0.0097110849
0.0089941791
0.0077469762
0.0052029292
-0.00033636864
-0.0028249191
0.020930332
0.019885092
0.01932865
0.018795172
0.018136448
0.01726024
0.016023968
0.014163331
0.010909177
0.0070784333
0.0088805818
0.0085351435
0.008001747
0.0073429425
0.0065765282
0.005674858
0.0045857309
0.0032969227
0.0018349812
0.00067307228
0.00081772954
0.00034252351
-0.00037190402
-0.001192408
-0.0020399885
-0.0029008765
-0.0037886242
-0.0046860381
-0.0055085934
-0.0060219911
-0.0064810536
-0.0073818259
-0.0084451623
-0.0094943066
-0.01043596
-0.011242942
-0.011925171
-0.01247347
-0.01285483
-0.013030746
-0.012700166
-0.014732648
-0.016491416
-0.017829557
-0.018869351
-0.019614719
-0.020099879
-0.020323146
-0.020270248
-0.020036798
-0.015741519
-0.020385383
-0.023824864
-0.025500174
-0.026575613
-0.027220143
-0.027505272
-0.027390512
-0.026684445
-0.02513146
-0.0055805015
-0.0082638073
-0.01360835
-0.015348705
-0.0162322
-0.016684658
-0.016789476
-0.01639831
-0.014530425
-0.0039366664
0.0016276675
0.0019814643
-3.1366152e-05
-0.00057236478
-0.00080597211
-0.00091462992
-0.00092324997
-0.00075899626
0.00011207292
0.0063035092
-0.0087824407
-0.0010298541
-0.0016445839
-0.001765736
-0.0018915457
-0.0021016921
-0.0025253947
-0.0035317839
-0.0058055545
-0.0054546121
0.0018610234
0.012567809
0.011302725
0.010865583
0.010362357
0.0096039754
0.0082879741
0.0056043299
-0.00025748756
-0.0028983681
0.021838179
0.020734356
0.020135953
0.019565068
0.018865266
0.017938051
0.016632486
0.014670694
0.011238846
0.0072162445
0.0090861898
0.0087157471
0.0081458222
0.0074450601
0.006632483
0.0056785341
0.0045277589
0.0031674517
0.0016241638
0.00039931666
0.00049291256
-1.1021518e-05
-0.00076869549
-0.0016380387
-0.0025352214
-0.0034457839
-0.004384163
-0.0053321155
-0.0062007403
-0.0067425391
-0.0072978811
-0.0082486546
-0.0093722643
-0.010481435
-0.011476988
-0.012330376
-0.01305215
-0.013632647
-0.014036964
-0.014223919
-0.013957532
-0.016102669
-0.017957177
-0.019370026
-0.02046826
-0.021256358
-0.02177053
-0.022009224
-0.02195741
-0.021714953
-0.017268779
-0.022189019
-0.025814241
-0.027582659
-0.028717836
-0.029399237
-0.02970265
-0.029586116
-0.028848322
-0.027215532
-0.0065143992
-0.0093986414
-0.015017097
-0.016853091
-0.017785232
-0.018263515
-0.018376504
-0.017969243
-0.01600592
-0.0046820413
0.0015366309
0.0018875733
-0.00022395611
-0.00079416087
-0.0010405209
-0.0011553601
-0.0011651572
-0.000993722
-7.6630749e-05
0.0065555302
-0.0088479155
-0.0009055333
-0.001546828
-0.001676219
-0.0018090292
-0.0020291742
-0.0024719828
-0.0035246984
-0.0059142908
-0.0055717556
0.0023316585
0.01328329
0.011955957
0.01149023
0.010959626
0.010164724
0.0087887384
0.0059836778
-0.00016099127
-0.0029413471
0.022600505
0.021444476
0.020807445
0.020202531
0.01946604
0.018493833
0.01712762
0.015077857
0.011491666
0.0073041335
0.009223191
0.0088298893
0.0082268603
0.007488485
0.006634892
0.0056347999
0.0044298645
0.0030069997
0.0013926384
0.00011301233
0.00015007463
-0.00037935816
-0.0011754309
-0.0020880553
-0.003029116
-0.0039835632
-0.0049666265
-0.0059591226
-0.0068683167
-0.0074350913
-0.0080864313
-0.0090808617
-0.010257319
-0.011419283
-0.012462346
-0.013356793
-0.014113754
-0.014723142
-0.015148324
-0.015345516
-0.015146864
-0.017390151
-0.019327911
-0.020806127
-0.021955711
-0.022781686
-0.02332206
-0.023575471
-0.023526201
-0.023277366
-0.018710253
-0.023873715
-0.027659983
-0.029509669
-0.030697209
-0.031411359
-0.031731779
-0.0316155
-0.0308529
-0.029153877
-0.0074431379
-0.010513724
-0.016368163
-0.018287448
-0.01926215
-0.019763416
-0.019884524
-0.019465311
-0.017422901
-0.0054540523
0.0014203594
0.0017628945
-0.00043321116
-0.0010287938
-0.0012862952
-0.0014066435
-0.0014177565
-0.0012407536
-0.00028507459
0.0067384789
-0.0088453718
-0.00076751099
-0.0014315163
-0.0015684025
-0.0017073845
-0.0019360897
-0.0023950566
-0.0034870441
-0.0059765286
-0.0056472543
0.002802951
0.013923734
0.012542038
0.012050459
0.011495806
0.010669559
0.0092427129
0.0063350135
-5.1366933e-05
-0.002956689
0.023213495
0.022012157
0.021340219
0.020704952
0.019936427
0.018925516
0.017507625
0.015383512
0.011667052
0.0073423068
0.0092930136
0.0088792113
0.0082467815
0.0074754189
0.0065862324
0.0055464151
0.0042951184
0.0028189775
0.0011441846
-0.00018178293
-0.00020515221
-0.00075668296
-0.0015860521
-0.0025361192
-0.0035150559
-0.0045073243
-0.0055288482
-0.0065596176
-0.0075036308
-0.0080918016
-0.0088373259
-0.0098688341
-0.011090419
-0.012297637
-0.013381533
-0.014311429
-0.015098974
-0.015733715
-0.016177472
-0.016383981
-0.01625552
-0.018581952
-0.020590066
-0.022123957
-0.023317504
-0.02417625
-0.02473979
-0.025007003
-0.024961551
-0.02470884
-0.020050959
-0.025423167
-0.029345038
-0.031263739
-0.032495972
-0.033238522
-0.03357447
-0.033460283
-0.032679614
-0.030927863
-0.0083532241
-0.011593539
-0.017644927
-0.019634744
-0.020645687
-0.021166928
-0.021295953
-0.020868766
-0.018763533
-0.0062371874
0.0012825735
0.0016118478
-0.00065430789
-0.0012713157
-0.0015382862
-0.0016634296
-0.0016759589
-0.0014949559
-0.00050812478
0.0068559415
-0.0087786532
-0.00061927685
-0.0013019096
-0.0014454676
-0.0015897435
-0.0018255213
-0.0022976217
-0.0034216422
-0.0059945558
-0.0056826848
0.00326628
0.014481395
0.013053786
0.012539346
0.011964158
0.011111922
0.0096435887
0.0066524962
6.6726551e-05
-0.0029475302
0.023673976
0.02243469
0.021731927
0.021070252
0.020274575
0.01923148
0.017771151
0.015586652
0.01176456
0.0073309235
0.0092969698
0.008865219
0.0082073421
0.0074078673
0.0064887495
0.0054158684
0.0041262716
0.0026064185
0.00088213519
-0.00048151358
-0.00056775922
-0.0011378397
-0.001995183
-0.0029766121
-0.0039871819
-0.0050109706
-0.0060644906
-0.0071270238
-0.0080998901
-0.008705745
-0.0095422195
-0.010604037
-0.011862789
-0.013107461
-0.014225267
-0.01518477
-0.015998072
-0.016654416
-0.017114272
-0.017329062
-0.017272188
-0.019666369
-0.021731614
-0.023311197
-0.024541064
-0.025427251
-0.02601071
-0.026290601
-0.026250046
-0.025995818
-0.021277325
-0.026822726
-0.030854187
-0.032829317
-0.034098323
-0.034864716
-0.035214524
-0.035104053
-0.03431182
-0.032520688
-0.0092318785
-0.012623442
-0.018831905
-0.020879171
-0.021919837
-0.022457892
-0.022594482
-0.022163109
-0.020011118
-0.007016457
0.0011269769
0.0014388478
-0.00088252762
-0.0015169098
-0.0017916268
-0.0019208131
-0.0019348198
-0.0017513273
-0.00074073151
0.00691178
-0.0086519068
-0.0004643017
-0.0011612829
-0.0013106169
-0.0014592661
-0.00170059
-0.0021827419
-0.0033314217
-0.0059708845
-0.0056798446
0.0037131989
0.014949135
0.013484551
0.012950479
0.012358426
0.011485707
0.0099854447
0.0069305431
0.0001885959
-0.0029171848
0.023979564
0.022710091
0.021980908
0.02129701
0.02047926
0.019410689
0.017917371
0.015686703
0.011784012
0.0072702191
0.0092364116
0.0087894368
0.0081102866
0.0072877891
0.0063446042
0.0052455204
0.0039258953
0.0023721146
0.00060951002
-0.00078299441
-0.00093321039
-0.0015181702
-0.0023979823
-0.0034044911
-0.0044402511
-0.0054890605
-0.0065679117
-0.0076555009
-0.0086510764
-0.0092707945
-0.010193669
-0.011278883
-0.012566651
-0.013840771
-0.014985359
-0.015968432
-0.01680247
-0.017476477
-0.017949786
-0.018171709
-0.01818679
-0.020633037
-0.022741953
-0.024357023
-0.025615359
-0.026523463
-0.027123405
-0.027414647
-0.027379864
-0.027126316
-0.022377149
-0.028059363
-0.032173998
-0.034192722
-0.035490383
-0.036275887
-0.036637699
-0.036532347
-0.035734783
-0.033917376
-0.010067055
-0.01358969
-0.019914783
-0.022006174
-0.023069892
-0.023621467
-0.023765124
-0.023333137
-0.021150153
-0.0077774659
0.00095723723
0.0012482771
-0.0011132833
-0.0017609181
-0.0020416195
-0.0021740635
-0.0021895685
-0.0020050314
-0.00097796359
0.006910093
-0.0084695199
-0.00030598902
-0.0010128776
-0.0011670275
-0.0013190938
-0.0015644089
-0.0020534936
-0.0032193733
-0.0059082052
-0.0056407134
0.0041355768
0.01532054
0.01382834
0.013278068
0.012672954
0.011785365
0.010262857
0.0071639398
0.00030962385
-0.0028690453
0.024128764
0.022837206
0.022086292
0.02138456
0.020549978
0.019462782
0.017946072
0.015683613
0.011725587
0.007160597
0.0091128415
0.0086535172
0.0079574555
0.0071172027
0.0061559769
0.0050377062
0.0036964814
0.0021187142
0.0003291126
-0.0010833144
-0.0012973344
-0.0018934065
-0.0027900376
-0.0038151846
-0.0048695341
-0.0059367091
-0.0070340692
-0.0081398517
-0.0091518548
-0.0097815316
-0.010785041
-0.011886641
-0.013195138
-0.014490547
-0.015654634
-0.016655082
-0.017504674
-0.018192238
-0.018676199
-0.018904009
-0.018990421
-0.021472868
-0.023611847
-0.025252037
-0.026530839
-0.02745518
-0.028067995
-0.028369071
-0.028340728
-0.02808989
-0.02333957
-0.029121637
-0.033292803
-0.035342122
-0.036660172
-0.037459908
-0.037831697
-0.037732642
-0.036935671
-0.035104778
-0.010847474
-0.014479484
-0.020880459
-0.023002499
-0.024082487
-0.024644179
-0.024794258
-0.024364998
-0.022166394
-0.0085064897
0.00077696517
0.0010444569
-0.0013421476
-0.0019988695
-0.0022837656
-0.002418654
-0.0024356386
-0.0022514282
-0.0012150431
0.0068551749
-0.0082360619
-0.0001476332
-0.00085986112
-0.0010178109
-0.0011723096
-0.0014200424
-0.0019129252
-0.0030885087
-0.0058093452
-0.0055674192
0.0045257159
0.015590017
0.014079901
0.01351704
0.012902771
0.012005998
0.010470987
0.0073479276
0.00042535968
-0.0028065002
0.024121041
0.022815775
0.022048064
0.021333058
0.020487006
0.019388135
0.017857712
0.015577907
0.011589882
0.0070026943
0.0089279924
0.0084593197
0.0077508628
0.006898262
0.0059251424
0.0047948083
0.0034405139
0.0018487939
4.360096e-05
-0.0013797658
-0.0016562465
-0.0022595937
-0.0031672881
-0.004204517
-0.0052707419
-0.0063495154
-0.0074584495
-0.008575453
-0.0095975057
-0.010233179
-0.011310445
-0.012421368
-0.013742229
-0.015050662
-0.016226857
-0.01723837
-0.018098206
-0.018795085
-0.019286767
-0.019519123
-0.019675302
-0.022178001
-0.024333372
-0.025988228
-0.027279386
-0.028214166
-0.028836102
-0.029145316
-0.029123875
-0.028877597
-0.024155056
-0.029999686
-0.034200684
-0.036267515
-0.037597596
-0.038406571
-0.038786157
-0.038694345
-0.037903559
-0.036071582
-0.011562655
-0.015281021
-0.021717083
-0.023856234
-0.024945642
-0.02551396
-0.025669681
-0.02524624
-0.023046917
-0.0091905498
0.00058969171
0.00083161773
-0.0015648815
-0.0022265077
-0.0025137927
-0.00265029
-0.002668697
-0.0024861045
-0.0014473786
0.006751474
-0.0079562311
7.6165994e-06
-0.00070529062
-0.00086597732
-0.0010219022
-0.0012704718
-0.0017640215
-0.0029418241
-0.0056772314
-0.005462207
0.0048764495
0.01575286
0.014234791
0.0136631
0.013043659
0.012143422
0.01060565
0.0074782754
0.00053159474
-0.0027328654
0.023956864
0.022646473
0.021867103
0.02114352
0.020291447
0.019187901
0.017653467
0.015370739
0.011377963
0.0067974306
0.0086838848
0.0082089673
0.007492752
0.0066333116
0.0056545235
0.0045193102
0.0031605223
0.0015649106
-0.00024445891
-0.00166979
-0.0020062897
-0.0026130315
-0.0035259673
-0.004568651
-0.0056399687
-0.0067235069
-0.0078370136
-0.0089582021
-0.0099838726
-0.010621549
-0.01176468
-0.012877859
-0.01420269
-0.01551584
-0.016696691
-0.017712884
-0.018577565
-0.01927941
-0.01977577
-0.020011254
-0.02023474
-0.022741769
-0.024899887
-0.02655893
-0.027854286
-0.028793626
-0.029420812
-0.029736306
-0.029722026
-0.029481975
-0.024815396
-0.030685211
-0.034889451
-0.036960715
-0.038294432
-0.039107574
-0.039492637
-0.039408787
-0.038629419
-0.036808307
-0.01220296
-0.015983535
-0.022414101
-0.024556843
-0.025648802
-0.026220191
-0.026380646
-0.02596586
-0.023780166
-0.0098174848
0.000398846
0.00061387033
-0.0017774608
-0.002439818
-0.0027276815
-0.0028649357
-0.0028846709
-0.0027049021
-0.0016705966
0.0066035518
-0.0076348059
0.0001567881
-0.00055208211
-0.00071440471
-0.00087073587
-0.0011185637
-0.0016096727
-0.0027822679
-0.0055148554
-0.005327411
0.0051812254
0.015805311
0.01428944
0.013712791
0.013092207
0.012194224
0.010663367
0.0075513375
0.00062442659
-0.0026513254
0.023637735
0.022330946
0.021545216
0.020817853
0.019965254
0.018864038
0.017335255
0.015063913
0.011091389
0.006546045
0.0083828697
0.007904889
0.0071856372
0.0063249277
0.0053467328
0.0042138374
0.0028591224
0.0012696439
-0.00053255068
-0.0019509344
-0.0023439895
-0.002950228
-0.0038625568
-0.0049040423
-0.0059736472
-0.0070550946
-0.0081661521
-0.0092844724
-0.010307317
-0.010942998
-0.012143197
-0.013251603
-0.014572037
-0.015881602
-0.017059648
-0.018074107
-0.018938177
-0.019640565
-0.020138473
-0.020375597
-0.020663106
-0.023158662
-0.025305992
-0.026958787
-0.028250185
-0.029188165
-0.029816644
-0.030136414
-0.030129357
-0.029897015
-0.025313691
-0.031171465
-0.035352631
-0.037415331
-0.038744304
-0.039556496
-0.0399446
-0.039869208
-0.039106112
-0.037307308
-0.012759623
-0.016577338
-0.022962286
-0.025095206
-0.026182864
-0.026753731
-0.026917896
-0.026514332
-0.024355996
-0.010376015
0.00020773425
0.0003951787
-0.0019761004
-0.0026350507
-0.0029216896
-0.003058838
-0.0030797723
-0.0029039434
-0.0018805697
0.0064160435
-0.0072765983
0.00029711352
-0.00040298256
-0.00056581126
-0.00072152207
-0.00096704244
-0.0014526457
-0.0026127107
-0.0053252417
-0.0051654267
0.0054341765
0.0157446
0.014241183
0.013663538
0.013045858
0.012155805
0.010641418
0.0075641021
0.000700315
-0.0025648803
0.023166209
0.021871822
0.021085146
0.020358863
0.019511245
0.018419325
0.016905753
0.014659904
0.010732242
0.0062501257
0.0080276624
0.0075498532
0.006832337
0.0059759516
0.0050046052
0.0038811907
0.0025390509
0.00096563098
-0.00081817053
-0.0022208134
-0.0026660125
-0.0032678593
-0.0041737455
-0.0052073981
-0.0062685064
-0.0073410312
-0.0084426434
-0.0095510714
-0.010564677
-0.011194384
-0.012442054
-0.013538739
-0.014846494
-0.016144231
-0.017312048
-0.018318368
-0.019176359
-0.019874822
-0.020371084
-0.020608305
-0.020955791
-0.023424294
-0.025547494
-0.027183714
-0.028463054
-0.029393754
-0.030019507
-0.030341423
-0.030341464
-0.030118123
-0.025644335
-0.031453229
-0.035585438
-0.03762674
-0.038942659
-0.039748773
-0.040137384
-0.040070729