/*--------------------------------*- C++ -*----------------------------------*\
| =========                 |                                                 |
| \\      /  F ield         | OpenFOAM: The Open Source CFD Toolbox           |
|  \\    /   O peration     | Version:  v2106                                 |
|   \\  /    A nd           | Website:  www.openfoam.com                      |
|    \\/     M anipulation  |                                                 |
\*---------------------------------------------------------------------------*/
FoamFile
{
    version     2.0;
    format      ascii;
    arch        "LSB;label=32;scalar=64";
    class       volScalarField;
    location    "42.5";
    object      T;
}
// * * * * * * * * * * * * * * * * * * * * * * * * * * * * * * * * * * * * * //

dimensions      [0 0 0 1 0 0 0];

internalField   nonuniform List<scalar> 
4000
(
275.2471
275.24707
275.24709
275.24709
275.2471
275.2471
275.2471
275.24709
275.24709
275.24709
275.24707
275.24707
275.24708
275.24709
275.24709
275.24709
275.24709
275.24709
275.24708
275.24708
275.24709
275.24708
275.24709
275.2471
275.2471
275.2471
275.2471
275.2471
275.24709
275.24709
275.24709
275.24709
275.2471
275.2471
275.24711
275.24711
275.2471
275.2471
275.2471
275.24709
275.2471
275.24709
275.2471
275.24711
275.24711
275.24711
275.24711
275.2471
275.2471
275.24709
275.2471
275.24709
275.2471
275.24711
275.24711
275.24711
275.2471
275.2471
275.2471
275.24709
275.2471
275.24709
275.2471
275.2471
275.24711
275.2471
275.2471
275.2471
275.24709
275.24709
275.24709
275.24709
275.2471
275.2471
275.2471
275.2471
275.2471
275.24709
275.24709
275.24709
275.24709
275.24708
275.24709
275.2471
275.2471
275.2471
275.24709
275.24709
275.24708
275.24708
275.24709
275.24708
275.24709
275.24709
275.24709
275.24709
275.24709
275.24709
275.24708
275.24708
284.02668
284.02659
284.02665
284.02668
284.02669
284.02669
284.02669
284.02668
284.02667
284.02668
284.02659
284.02657
284.02662
284.02665
284.02666
284.02666
284.02666
284.02664
284.02663
284.02664
284.02665
284.02662
284.02668
284.0267
284.02671
284.02671
284.02671
284.02669
284.02667
284.02667
284.02668
284.02665
284.0267
284.02672
284.02673
284.02673
284.02672
284.02671
284.02669
284.02668
284.02669
284.02666
284.02671
284.02673
284.02674
284.02674
284.02673
284.02671
284.02669
284.02668
284.02669
284.02666
284.02671
284.02673
284.02674
284.02674
284.02673
284.02671
284.02668
284.02668
284.02669
284.02666
284.02671
284.02672
284.02673
284.02673
284.02672
284.02669
284.02667
284.02666
284.02668
284.02664
284.02669
284.02671
284.02671
284.02671
284.02669
284.02667
284.02665
284.02664
284.02667
284.02663
284.02667
284.02669
284.02669
284.02668
284.02667
284.02665
284.02663
284.02662
284.02668
284.02664
284.02667
284.02668
284.02668
284.02668
284.02666
284.02664
284.02662
284.02662
292.74359
292.74348
292.74357
292.74361
292.74363
292.74364
292.74363
292.74361
292.74359
292.74361
292.74348
292.74345
292.74353
292.74357
292.7436
292.7436
292.74359
292.74356
292.74353
292.74355
292.74357
292.74353
292.74362
292.74366
292.74368
292.74368
292.74366
292.74363
292.74359
292.7436
292.74361
292.74357
292.74366
292.7437
292.74371
292.74371
292.74369
292.74366
292.74362
292.74362
292.74363
292.7436
292.74368
292.74371
292.74373
292.74373
292.74371
292.74367
292.74362
292.74362
292.74364
292.7436
292.74368
292.74371
292.74373
292.74372
292.7437
292.74366
292.74361
292.74361
292.74363
292.74359
292.74366
292.74369
292.74371
292.7437
292.74367
292.74363
292.74359
292.74358
292.74361
292.74356
292.74363
292.74366
292.74367
292.74366
292.74363
292.74359
292.74355
292.74354
292.74359
292.74353
292.74359
292.74362
292.74362
292.74361
292.74359
292.74355
292.7435
292.7435
292.74361
292.74355
292.7436
292.74362
292.74362
292.74361
292.74358
292.74354
292.7435
292.74352
301.39681
301.39667
301.39679
301.39684
301.39687
301.39688
301.39686
301.39683
301.3968
301.39683
301.39667
301.39663
301.39675
301.3968
301.39683
301.39683
301.39681
301.39677
301.39672
301.39676
301.39679
301.39675
301.39686
301.39691
301.39694
301.39694
301.39691
301.39686
301.3968
301.39681
301.39684
301.3968
301.39691
301.39696
301.39699
301.39698
301.39695
301.3969
301.39683
301.39684
301.39687
301.39683
301.39694
301.39699
301.39701
301.397
301.39697
301.39691
301.39684
301.39684
301.39688
301.39683
301.39694
301.39698
301.397
301.39699
301.39696
301.3969
301.39682
301.39682
301.39686
301.39681
301.39691
301.39695
301.39697
301.39696
301.39692
301.39686
301.39678
301.39678
301.39683
301.39677
301.39686
301.3969
301.39691
301.3969
301.39686
301.3968
301.39672
301.39672
301.3968
301.39672
301.3968
301.39683
301.39684
301.39682
301.39678
301.39672
301.39665
301.39666
301.39683
301.39676
301.39681
301.39684
301.39684
301.39682
301.39678
301.39672
301.39666
301.39671
309.98534
309.98517
309.98532
309.98539
309.98542
309.98542
309.9854
309.98535
309.98531
309.98535
309.98517
309.98514
309.98527
309.98534
309.98537
309.98537
309.98534
309.98529
309.98522
309.98526
309.98532
309.98527
309.98541
309.98547
309.9855
309.9855
309.98546
309.9854
309.98531
309.98532
309.98539
309.98534
309.98547
309.98554
309.98557
309.98556
309.98552
309.98544
309.98535
309.98535
309.98542
309.98537
309.9855
309.98557
309.98559
309.98558
309.98553
309.98545
309.98535
309.98536
309.98542
309.98537
309.9855
309.98556
309.98558
309.98556
309.98551
309.98543
309.98533
309.98533
309.9854
309.98534
309.98546
309.98552
309.98553
309.98551
309.98546
309.98538
309.98527
309.98528
309.98535
309.98529
309.9854
309.98544
309.98545
309.98543
309.98538
309.9853
309.98519
309.9852
309.98531
309.98522
309.98531
309.98535
309.98535
309.98533
309.98527
309.98519
309.98509
309.98511
309.98535
309.98526
309.98532
309.98535
309.98536
309.98533
309.98528
309.9852
309.98511
309.98518
318.50828
318.50809
318.50827
318.50835
318.50839
318.50839
318.50835
318.50829
318.50824
318.50828
318.50809
318.50806
318.50822
318.5083
318.50834
318.50833
318.50829
318.50822
318.50813
318.50818
318.50827
318.50822
318.50837
318.50845
318.50849
318.50848
318.50843
318.50835
318.50823
318.50825
318.50835
318.5083
318.50845
318.50853
318.50856
318.50855
318.50849
318.5084
318.50827
318.50828
318.50839
318.50834
318.50849
318.50856
318.50858
318.50857
318.50851
318.50841
318.50828
318.50828
318.50839
318.50833
318.50848
318.50855
318.50857
318.50855
318.50848
318.50838
318.50824
318.50824
318.50835
318.50829
318.50843
318.50849
318.50851
318.50848
318.50842
318.50831
318.50817
318.50817
318.50829
318.50822
318.50835
318.5084
318.50841
318.50838
318.50831
318.5082
318.50807
318.50807
318.50824
318.50813
318.50823
318.50827
318.50828
318.50824
318.50817
318.50807
318.50794
318.50796
318.50828
318.50818
318.50825
318.50828
318.50828
318.50824
318.50817
318.50807
318.50796
318.50805
326.96485
326.96465
326.96484
326.96494
326.96498
326.96498
326.96493
326.96486
326.96478
326.96483
326.96465
326.96461
326.96479
326.96488
326.96492
326.96492
326.96486
326.96477
326.96466
326.96471
326.96484
326.96479
326.96497
326.96506
326.9651
326.96508
326.96502
326.96492
326.96477
326.96479
326.96494
326.96488
326.96506
326.96515
326.96518
326.96516
326.96509
326.96498
326.96482
326.96483
326.96498
326.96492
326.9651
326.96518
326.9652
326.96518
326.96511
326.96498
326.96482
326.96482
326.96498
326.96492
326.96508
326.96516
326.96518
326.96515
326.96507
326.96495
326.96478
326.96478
326.96493
326.96486
326.96502
326.96509
326.96511
326.96507
326.96499
326.96486
326.96469
326.96469
326.96486
326.96477
326.96492
326.96498
326.96498
326.96495
326.96486
326.96473
326.96457
326.96457
326.96478
326.96466
326.96477
326.96482
326.96482
326.96478
326.96469
326.96457
326.96441
326.96443
326.96483
326.96471
326.96479
326.96483
326.96482
326.96478
326.96469
326.96457
326.96443
326.96454
335.35438
335.35416
335.35438
335.35448
335.35452
335.35451
335.35446
335.35437
335.35428
335.35433
335.35416
335.35412
335.35432
335.35442
335.35446
335.35445
335.35439
335.35428
335.35414
335.3542
335.35438
335.35432
335.35452
335.35462
335.35466
335.35464
335.35456
335.35444
335.35427
335.35428
335.35448
335.35442
335.35462
335.35471
335.35474
335.35472
335.35464
335.3545
335.35432
335.35432
335.35452
335.35446
335.35466
335.35474
335.35477
335.35474
335.35465
335.35451
335.35431
335.35431
335.35451
335.35445
335.35464
335.35472
335.35474
335.3547
335.35461
335.35446
335.35426
335.35426
335.35446
335.35439
335.35456
335.35464
335.35465
335.35461
335.35451
335.35436
335.35416
335.35416
335.35437
335.35428
335.35444
335.3545
335.35451
335.35446
335.35436
335.3542
335.35401
335.35401
335.35428
335.35414
335.35427
335.35432
335.35431
335.35426
335.35416
335.35401
335.35382
335.35384
335.35433
335.3542
335.35428
335.35432
335.35431
335.35426
335.35416
335.35401
335.35384
335.35398
343.6763
343.67606
343.6763
343.67641
343.67645
343.67644
343.67638
343.67627
343.67616
343.67621
343.67606
343.67602
343.67624
343.67635
343.6764
343.67638
343.6763
343.67617
343.67601
343.67607
343.6763
343.67624
343.67646
343.67657
343.6766
343.67658
343.67649
343.67635
343.67615
343.67616
343.67641
343.67635
343.67657
343.67667
343.6767
343.67667
343.67657
343.67641
343.6762
343.6762
343.67645
343.6764
343.6766
343.6767
343.67673
343.67669
343.67658
343.67642
343.6762
343.67619
343.67644
343.67638
343.67658
343.67667
343.67669
343.67664
343.67653
343.67636
343.67613
343.67613
343.67638
343.6763
343.67649
343.67657
343.67658
343.67653
343.67642
343.67624
343.67602
343.67601
343.67627
343.67617
343.67635
343.67641
343.67642
343.67636
343.67624
343.67606
343.67584
343.67584
343.67616
343.67601
343.67615
343.6762
343.6762
343.67613
343.67602
343.67584
343.67563
343.67564
343.67621
343.67607
343.67616
343.6762
343.67619
343.67613
343.67601
343.67584
343.67564
343.67579
351.93017
351.92992
351.93018
351.9303
351.93034
351.93033
351.93025
351.93012
351.93
351.93005
351.92992
351.92989
351.93012
351.93024
351.93028
351.93026
351.93017
351.93002
351.92984
351.9299
351.93018
351.93012
351.93036
351.93047
351.93051
351.93048
351.93038
351.93021
351.92999
351.93
351.9303
351.93024
351.93047
351.93058
351.93061
351.93057
351.93046
351.93028
351.93004
351.93004
351.93034
351.93028
351.93051
351.93061
351.93064
351.93059
351.93047
351.93028
351.93003
351.93002
351.93033
351.93026
351.93048
351.93057
351.93059
351.93053
351.93041
351.93021
351.92996
351.92995
351.93025
351.93017
351.93038
351.93046
351.93047
351.93041
351.93028
351.93008
351.92983
351.92981
351.93012
351.93002
351.93021
351.93028
351.93028
351.93021
351.93008
351.92988
351.92963
351.92962
351.93
351.92984
351.92999
351.93004
351.93003
351.92996
351.92983
351.92963
351.92939
351.9294
351.93005
351.9299
351.93
351.93004
351.93002
351.92995
351.92981
351.92962
351.9294
351.92957
360.11569
360.11544
360.11571
360.11584
360.11588
360.11586
360.11577
360.11563
360.11549
360.11554
360.11544
360.1154
360.11566
360.11578
360.11582
360.11579
360.11569
360.11553
360.11533
360.11539
360.11571
360.11566
360.11591
360.11603
360.11606
360.11603
360.11591
360.11573
360.11548
360.11548
360.11584
360.11578
360.11603
360.11614
360.11617
360.11612
360.116
360.1158
360.11554
360.11552
360.11588
360.11582
360.11606
360.11617
360.11619
360.11614
360.11601
360.1158
360.11552
360.1155
360.11586
360.11579
360.11603
360.11612
360.11614
360.11608
360.11594
360.11572
360.11544
360.11542
360.11577
360.11569
360.11591
360.116
360.11601
360.11594
360.11579
360.11557
360.11529
360.11527
360.11563
360.11553
360.11573
360.1158
360.1158
360.11572
360.11557
360.11535
360.11507
360.11505
360.11549
360.11533
360.11548
360.11554
360.11552
360.11544
360.11529
360.11507
360.1148
360.11481
360.11554
360.11539
360.11548
360.11552
360.1155
360.11542
360.11527
360.11505
360.11481
360.11499
368.2327
368.23244
368.23272
368.23286
368.2329
368.23287
368.23277
368.23262
368.23246
368.23251
368.23244
368.2324
368.23267
368.2328
368.23284
368.23281
368.2327
368.23251
368.23229
368.23235
368.23272
368.23267
368.23294
368.23306
368.2331
368.23305
368.23293
368.23272
368.23245
368.23245
368.23286
368.2328
368.23306
368.23318
368.23321
368.23315
368.23302
368.2328
368.23251
368.23249
368.2329
368.23284
368.2331
368.23321
368.23323
368.23317
368.23302
368.23279
368.23249
368.23246
368.23287
368.23281
368.23305
368.23315
368.23317
368.23309
368.23294
368.2327
368.2324
368.23237
368.23277
368.2327
368.23293
368.23302
368.23302
368.23294
368.23278
368.23254
368.23223
368.2322
368.23262
368.23251
368.23272
368.2328
368.23279
368.2327
368.23254
368.2323
368.23199
368.23197
368.23246
368.23229
368.23245
368.23251
368.23249
368.2324
368.23223
368.23199
368.2317
368.2317
368.23251
368.23235
368.23245
368.23249
368.23246
368.23237
368.2322
368.23197
368.2317
368.23189
376.28114
376.28088
376.28118
376.28132
376.28136
376.28133
376.28122
376.28105
376.28087
376.28092
376.28088
376.28085
376.28113
376.28126
376.2813
376.28126
376.28114
376.28094
376.2807
376.28075
376.28118
376.28113
376.28141
376.28153
376.28157
376.28152
376.28138
376.28116
376.28087
376.28086
376.28132
376.28126
376.28153
376.28165
376.28168
376.28162
376.28147
376.28123
376.28092
376.2809
376.28136
376.2813
376.28157
376.28168
376.2817
376.28163
376.28147
376.28122
376.2809
376.28087
376.28133
376.28126
376.28152
376.28162
376.28163
376.28155
376.28138
376.28113
376.2808
376.28076
376.28122
376.28114
376.28138
376.28147
376.28147
376.28138
376.28121
376.28095
376.28062
376.28058
376.28105
376.28094
376.28116
376.28123
376.28122
376.28113
376.28095
376.28069
376.28036
376.28033
376.28087
376.2807
376.28087
376.28092
376.2809
376.2808
376.28062
376.28036
376.28004
376.28004
376.28092
376.28075
376.28086
376.2809
376.28087
376.28076
376.28058
376.28033
376.28004
376.28023
384.26113
384.26087
384.26118
384.26132
384.26136
384.26132
384.2612
384.26102
384.26083
384.26087
384.26087
384.26084
384.26113
384.26127
384.26131
384.26126
384.26113
384.26091
384.26065
384.2607
384.26118
384.26113
384.26142
384.26155
384.26158
384.26152
384.26138
384.26114
384.26082
384.26081
384.26132
384.26127
384.26155
384.26167
384.2617
384.26163
384.26147
384.26121
384.26088
384.26085
384.26136
384.26131
384.26158
384.2617
384.26171
384.26164
384.26146
384.2612
384.26085
384.26081
384.26132
384.26126
384.26152
384.26163
384.26164
384.26155
384.26137
384.26109
384.26074
384.2607
384.2612
384.26113
384.26138
384.26147
384.26146
384.26137
384.26118
384.2609
384.26055
384.26051
384.26102
384.26091
384.26114
384.26121
384.2612
384.26109
384.2609
384.26062
384.26027
384.26023
384.26083
384.26065
384.26082
384.26088
384.26085
384.26074
384.26055
384.26027
384.25993
384.25992
384.26087
384.2607
384.26081
384.26085
384.26081
384.2607
384.26051
384.26023
384.25992
384.26012
392.1729
392.17263
392.17295
392.1731
392.17314
392.17309
392.17296
392.17277
392.17256
392.1726
392.17263
392.17261
392.17291
392.17305
392.17309
392.17304
392.17289
392.17266
392.17238
392.17243
392.17295
392.17291
392.17321
392.17334
392.17337
392.17331
392.17315
392.1729
392.17256
392.17254
392.1731
392.17305
392.17334
392.17346
392.17349
392.17341
392.17324
392.17297
392.17262
392.17258
392.17314
392.17309
392.17337
392.17349
392.1735
392.17342
392.17323
392.17295
392.17258
392.17254
392.17309
392.17304
392.17331
392.17341
392.17342
392.17332
392.17313
392.17284
392.17247
392.17242
392.17296
392.17289
392.17315
392.17324
392.17323
392.17313
392.17293
392.17264
392.17226
392.17221
392.17277
392.17266
392.1729
392.17297
392.17295
392.17284
392.17264
392.17234
392.17197
392.17192
392.17256
392.17238
392.17256
392.17262
392.17258
392.17247
392.17226
392.17197
392.17161
392.17159
392.1726
392.17243
392.17254
392.17258
392.17254
392.17242
392.17221
392.17192
392.17159
392.1718
400.01682
400.01656
400.01689
400.01703
400.01707
400.01702
400.01688
400.01668
400.01646
400.01649
400.01656
400.01654
400.01685
400.01699
400.01703
400.01697
400.01681
400.01657
400.01628
400.01632
400.01689
400.01685
400.01715
400.01728
400.01731
400.01724
400.01708
400.01681
400.01646
400.01643
400.01703
400.01699
400.01728
400.01741
400.01743
400.01735
400.01717
400.01688
400.01651
400.01647
400.01707
400.01703
400.01731
400.01743
400.01744
400.01735
400.01716
400.01686
400.01648
400.01642
400.01702
400.01697
400.01724
400.01735
400.01735
400.01725
400.01705
400.01674
400.01635
400.01629
400.01688
400.01681
400.01708
400.01717
400.01716
400.01705
400.01684
400.01653
400.01613
400.01608
400.01668
400.01657
400.01681
400.01688
400.01686
400.01674
400.01653
400.01622
400.01583
400.01577
400.01646
400.01628
400.01646
400.01651
400.01648
400.01635
400.01613
400.01583
400.01545
400.01542
400.01649
400.01632
400.01643
400.01647
400.01642
400.01629
400.01608
400.01577
400.01542
400.01563
407.79341
407.79315
407.79349
407.79363
407.79367
407.79361
407.79347
407.79325
407.79302
407.79305
407.79315
407.79314
407.79345
407.79359
407.79363
407.79356
407.7934
407.79315
407.79284
407.79288
407.79349
407.79345
407.79376
407.79389
407.79392
407.79384
407.79367
407.79339
407.79302
407.79299
407.79363
407.79359
407.79389
407.79402
407.79404
407.79395
407.79376
407.79346
407.79308
407.79302
407.79367
407.79363
407.79392
407.79404
407.79404
407.79395
407.79374
407.79344
407.79303
407.79297
407.79361
407.79356
407.79384
407.79395
407.79395
407.79384
407.79363
407.79331
407.7929
407.79284
407.79347
407.7934
407.79367
407.79376
407.79374
407.79363
407.79341
407.79309
407.79268
407.79261
407.79325
407.79315
407.79339
407.79346
407.79344
407.79331
407.79309
407.79276
407.79235
407.79229
407.79302
407.79284
407.79302
407.79308
407.79303
407.7929
407.79268
407.79235
407.79196
407.79193
407.79305
407.79288
407.79299
407.79302
407.79297
407.79284
407.79261
407.79229
407.79193
407.79214
415.50331
415.50306
415.5034
415.50354
415.50358
415.50352
415.50336
415.50314
415.5029
415.50292
415.50306
415.50305
415.50337
415.50351
415.50354
415.50347
415.5033
415.50304
415.50272
415.50275
415.5034
415.50337
415.50367
415.50381
415.50383
415.50375
415.50357
415.50328
415.5029
415.50286
415.50354
415.50351
415.50381
415.50393
415.50395
415.50386
415.50366
415.50335
415.50295
415.50289
415.50358
415.50354
415.50383
415.50395
415.50395
415.50385
415.50364
415.50332
415.50291
415.50284
415.50352
415.50347
415.50375
415.50386
415.50385
415.50374
415.50352
415.50319
415.50277
415.5027
415.50336
415.5033
415.50357
415.50366
415.50364
415.50352
415.50329
415.50296
415.50253
415.50246
415.50314
415.50304
415.50328
415.50335
415.50332
415.50319
415.50296
415.50262
415.5022
415.50214
415.5029
415.50272
415.5029
415.50295
415.50291
415.50277
415.50253
415.5022
415.5018
415.50176
415.50292
415.50275
415.50286
415.50289
415.50284
415.5027
415.50246
415.50214
415.50176
415.50197
423.1473
423.14706
423.14739
423.14754
423.14757
423.14751
423.14735
423.14711
423.14686
423.14688
423.14706
423.14705
423.14737
423.14751
423.14754
423.14746
423.14729
423.14702
423.14669
423.14671
423.14739
423.14737
423.14768
423.14781
423.14783
423.14775
423.14756
423.14726
423.14687
423.14683
423.14754
423.14751
423.14781
423.14794
423.14795
423.14785
423.14765
423.14733
423.14692
423.14685
423.14757
423.14754
423.14783
423.14795
423.14795
423.14784
423.14763
423.1473
423.14687
423.1468
423.14751
423.14746
423.14775
423.14785
423.14784
423.14772
423.1475
423.14716
423.14673
423.14665
423.14735
423.14729
423.14756
423.14765
423.14763
423.1475
423.14726
423.14692
423.14649
423.14641
423.14711
423.14702
423.14726
423.14733
423.1473
423.14716
423.14692
423.14658
423.14615
423.14607
423.14686
423.14669
423.14687
423.14692
423.14687
423.14673
423.14649
423.14615
423.14573
423.14569
423.14688
423.14671
423.14683
423.14685
423.1468
423.14665
423.14641
423.14607
423.14569
423.14589
430.72629
430.72605
430.72639
430.72653
430.72656
430.72649
430.72633
430.72609
430.72583
430.72584
430.72605
430.72605
430.72637
430.7265
430.72653
430.72645
430.72627
430.726
430.72566
430.72568
430.72639
430.72637
430.72667
430.7268
430.72682
430.72673
430.72654
430.72624
430.72584
430.72579
430.72653
430.7265
430.7268
430.72693
430.72694
430.72684
430.72663
430.7263
430.72589
430.72581
430.72656
430.72653
430.72682
430.72694
430.72694
430.72682
430.7266
430.72627
430.72584
430.72575
430.72649
430.72645
430.72673
430.72684
430.72682
430.7267
430.72647
430.72613
430.72569
430.7256
430.72633
430.72627
430.72654
430.72663
430.7266
430.72647
430.72623
430.72588
430.72544
430.72535
430.72609
430.726
430.72624
430.7263
430.72627
430.72613
430.72588
430.72553
430.72509
430.72501
430.72583
430.72566
430.72584
430.72589
430.72584
430.72569
430.72544
430.72509
430.72467
430.72462
430.72584
430.72568
430.72579
430.72581
430.72575
430.7256
430.72535
430.72501
430.72462
430.72482
438.2413
438.24107
438.2414
438.24154
438.24157
438.2415
438.24133
438.24108
438.24082
438.24083
438.24107
438.24107
438.24139
438.24152
438.24154
438.24146
438.24128
438.241
438.24066
438.24067
438.2414
438.24139
438.24169
438.24182
438.24183
438.24174
438.24154
438.24123
438.24083
438.24077
438.24154
438.24152
438.24182
438.24194
438.24194
438.24184
438.24163
438.2413
438.24088
438.2408
438.24157
438.24154
438.24183
438.24194
438.24194
438.24182
438.2416
438.24126
438.24082
438.24074
438.2415
438.24146
438.24174
438.24184
438.24182
438.2417
438.24146
438.24111
438.24067
438.24058
438.24133
438.24128
438.24154
438.24163
438.2416
438.24146
438.24122
438.24087
438.24042
438.24033
438.24108
438.241
438.24123
438.2413
438.24126
438.24111
438.24087
438.24051
438.24007
438.23998
438.24082
438.24066
438.24083
438.24088
438.24082
438.24067
438.24042
438.24007
438.23964
438.23958
438.24083
438.24067
438.24077
438.2408
438.24074
438.24058
438.24033
438.23998
438.23958
438.23977
445.69348
445.69326
445.69359
445.69372
445.69375
445.69367
445.6935
445.69325
445.69299
445.69299
445.69326
445.69327
445.69357
445.69371
445.69373
445.69364
445.69345
445.69317
445.69283
445.69283
445.69359
445.69357
445.69387
445.694
445.69401
445.69391
445.69371
445.6934
445.693
445.69293
445.69372
445.69371
445.694
445.69411
445.69412
445.69401
445.69379
445.69347
445.69304
445.69296
445.69375
445.69373
445.69401
445.69412
445.69411
445.69399
445.69376
445.69342
445.69298
445.69289
445.69367
445.69364
445.69391
445.69401
445.69399
445.69386
445.69362
445.69327
445.69283
445.69273
445.6935
445.69345
445.69371
445.69379
445.69376
445.69362
445.69338
445.69302
445.69258
445.69248
445.69325
445.69317
445.6934
445.69347
445.69342
445.69327
445.69302
445.69267
445.69222
445.69213
445.69299
445.69283
445.693
445.69304
445.69298
445.69283
445.69258
445.69222
445.69179
445.69173
445.69299
445.69283
445.69293
445.69296
445.69289
445.69273
445.69248
445.69213
445.69173
445.69191
453.08409
453.08388
453.0842
453.08433
453.08435
453.08427
453.0841
453.08385
453.08358
453.08358
453.08388
453.08389
453.08419
453.08432
453.08434
453.08425
453.08406
453.08378
453.08343
453.08343
453.0842
453.08419
453.08448
453.0846
453.08461
453.08451
453.08431
453.084
453.0836
453.08353
453.08433
453.08432
453.0846
453.08471
453.08471
453.08461
453.08439
453.08406
453.08364
453.08355
453.08435
453.08434
453.08461
453.08471
453.0847
453.08458
453.08435
453.08401
453.08358
453.08348
453.08427
453.08425
453.08451
453.08461
453.08458
453.08445
453.08421
453.08387
453.08342
453.08332
453.0841
453.08406
453.08431
453.08439
453.08435
453.08421
453.08397
453.08361
453.08317
453.08307
453.08385
453.08378
453.084
453.08406
453.08401
453.08387
453.08361
453.08326
453.08281
453.08272
453.08358
453.08343
453.0836
453.08364
453.08358
453.08342
453.08317
453.08281
453.08238
453.08231
453.08358
453.08343
453.08353
453.08355
453.08348
453.08332
453.08307
453.08272
453.08231
453.08249
460.4145
460.4143
460.41461
460.41474
460.41475
460.41467
460.4145
460.41425
460.41398
460.41397
460.4143
460.41432
460.41461
460.41473
460.41474
460.41465
460.41446
460.41418
460.41384
460.41383
460.41461
460.41461
460.41489
460.415
460.41501
460.41491
460.41471
460.4144
460.414
460.41392
460.41474
460.41473
460.415
460.41511
460.41511
460.415
460.41478
460.41445
460.41403
460.41394
460.41475
460.41474
460.41501
460.41511
460.41509
460.41497
460.41474
460.4144
460.41397
460.41387
460.41467
460.41465
460.41491
460.415
460.41497
460.41484
460.4146
460.41426
460.41381
460.41371
460.4145
460.41446
460.41471
460.41478
460.41474
460.4146
460.41436
460.41401
460.41356
460.41346
460.41425
460.41418
460.4144
460.41445
460.4144
460.41426
460.41401
460.41365
460.41321
460.41311
460.41398
460.41384
460.414
460.41403
460.41397
460.41381
460.41356
460.41321
460.41278
460.41271
460.41397
460.41383
460.41392
460.41394
460.41387
460.41371
460.41346
460.41311
460.41271
460.41288
467.68617
467.68599
467.68629
467.68641
467.68642
467.68634
467.68616
467.68592
467.68565
467.68564
467.68599
467.68601
467.68629
467.6864
467.68641
467.68632
467.68613
467.68585
467.68551
467.6855
467.68629
467.68629
467.68655
467.68666
467.68667
467.68657
467.68636
467.68606
467.68567
467.68559
467.68641
467.6864
467.68666
467.68677
467.68676
467.68665
467.68643
467.68611
467.6857
467.6856
467.68642
467.68641
467.68667
467.68676
467.68674
467.68662
467.68639
467.68606
467.68563
467.68553
467.68634
467.68632
467.68657
467.68665
467.68662
467.68649
467.68625
467.68591
467.68548
467.68537
467.68616
467.68613
467.68636
467.68643
467.68639
467.68625
467.68601
467.68566
467.68523
467.68512
467.68592
467.68585
467.68606
467.68611
467.68606
467.68591
467.68566
467.68532
467.68488
467.68478
467.68565
467.68551
467.68567
467.6857
467.68563
467.68548
467.68523
467.68488
467.68446
467.68438
467.68564
467.6855
467.68559
467.6856
467.68553
467.68537
467.68512
467.68478
467.68438
467.68455
474.90067
474.9005
474.90079
474.9009
474.90091
474.90082
474.90065
474.90041
474.90015
474.90013
474.9005
474.90052
474.90079
474.9009
474.9009
474.90081
474.90063
474.90035
474.90002
474.9
474.90079
474.90079
474.90105
474.90115
474.90115
474.90105
474.90085
474.90055
474.90016
474.90009
474.9009
474.9009
474.90115
474.90124
474.90123
474.90112
474.90091
474.9006
474.90019
474.90009
474.90091
474.9009
474.90115
474.90123
474.90121
474.90109
474.90087
474.90054
474.90013
474.90002
474.90082
474.90081
474.90105
474.90112
474.90109
474.90096
474.90073
474.9004
474.89997
474.89987
474.90065
474.90063
474.90085
474.90091
474.90087
474.90073
474.90049
474.90015
474.89973
474.89962
474.90041
474.90035
474.90055
474.9006
474.90054
474.9004
474.90015
474.89981
474.89939
474.89928
474.90015
474.90002
474.90016
474.90019
474.90013
474.89997
474.89973
474.89939
474.89898
474.8989
474.90013
474.9
474.90009
474.90009
474.90002
474.89987
474.89962
474.89928
474.8989
474.89905
482.05964
482.05949
482.05976
482.05987
482.05987
482.05979
482.05962
482.05938
482.05912
482.0591
482.05949
482.05952
482.05977
482.05987
482.05987
482.05978
482.0596
482.05933
482.059
482.05898
482.05976
482.05977
482.06001
482.0601
482.0601
482.06
482.0598
482.05951
482.05914
482.05906
482.05987
482.05987
482.0601
482.06019
482.06018
482.06007
482.05986
482.05956
482.05916
482.05906
482.05987
482.05987
482.0601
482.06018
482.06016
482.06004
482.05982
482.0595
482.0591
482.05899
482.05979
482.05978
482.06
482.06007
482.06004
482.05991
482.05968
482.05936
482.05895
482.05884
482.05962
482.0596
482.0598
482.05986
482.05982
482.05968
482.05945
482.05912
482.05871
482.0586
482.05938
482.05933
482.05951
482.05956
482.0595
482.05936
482.05912
482.05879
482.05838
482.05827
482.05912
482.059
482.05914
482.05916
482.0591
482.05895
482.05871
482.05838
482.05798
482.0579
482.0591
482.05898
482.05906
482.05906
482.05899
482.05884
482.0586
482.05827
482.0579
482.05804
489.16482
489.16468
489.16493
489.16503
489.16503
489.16495
489.16478
489.16455
489.1643
489.16428
489.16468
489.1647
489.16494
489.16503
489.16503
489.16494
489.16476
489.16451
489.16419
489.16416
489.16493
489.16494
489.16517
489.16525
489.16525
489.16515
489.16496
489.16468
489.16432
489.16423
489.16503
489.16503
489.16525
489.16533
489.16532
489.16521
489.16501
489.16471
489.16433
489.16424
489.16503
489.16503
489.16525
489.16532
489.16529
489.16518
489.16497
489.16466
489.16427
489.16417
489.16495
489.16494
489.16515
489.16521
489.16518
489.16505
489.16483
489.16452
489.16412
489.16402
489.16478
489.16476
489.16496
489.16501
489.16497
489.16483
489.16461
489.16429
489.16389
489.16378
489.16455
489.16451
489.16468
489.16471
489.16466
489.16452
489.16429
489.16397
489.16357
489.16347
489.1643
489.16419
489.16432
489.16433
489.16427
489.16412
489.16389
489.16357
489.16319
489.16311
489.16428
489.16416
489.16423
489.16424
489.16417
489.16402
489.16378
489.16347
489.16311
489.16324
496.21799
496.21786
496.21809
496.21818
496.21818
496.2181
496.21794
496.21772
496.21748
496.21745
496.21786
496.21789
496.2181
496.21819
496.21818
496.2181
496.21793
496.21768
496.21737
496.21734
496.21809
496.2181
496.21831
496.21839
496.21838
496.21829
496.2181
496.21784
496.21749
496.21741
496.21818
496.21819
496.21839
496.21847
496.21845
496.21834
496.21815
496.21787
496.2175
496.21741
496.21818
496.21818
496.21838
496.21845
496.21842
496.21831
496.2181
496.21781
496.21744
496.21734
496.2181
496.2181
496.21829
496.21834
496.21831
496.21818
496.21798
496.21768
496.2173
496.21719
496.21794
496.21793
496.2181
496.21815
496.2181
496.21798
496.21776
496.21746
496.21708
496.21697
496.21772
496.21768
496.21784
496.21787
496.21781
496.21768
496.21746
496.21715
496.21677
496.21667
496.21748
496.21737
496.21749
496.2175
496.21744
496.2173
496.21708
496.21677
496.2164
496.21632
496.21745
496.21734
496.21741
496.21741
496.21734
496.21719
496.21697
496.21667
496.21632
496.21644
503.221
503.22089
503.22111
503.22118
503.22118
503.2211
503.22095
503.22074
503.22051
503.22048
503.22089
503.22092
503.22112
503.22119
503.22118
503.2211
503.22094
503.2207
503.22041
503.22038
503.22111
503.22112
503.22131
503.22138
503.22137
503.22127
503.2211
503.22084
503.22052
503.22044
503.22118
503.22119
503.22138
503.22144
503.22142
503.22132
503.22114
503.22087
503.22053
503.22043
503.22118
503.22118
503.22137
503.22142
503.2214
503.22129
503.22109
503.22082