/*--------------------------------*- C++ -*----------------------------------*\
| =========                 |                                                 |
| \\      /  F ield         | OpenFOAM: The Open Source CFD Toolbox           |
|  \\    /   O peration     | Version:  v2106                                 |
|   \\  /    A nd           | Website:  www.openfoam.com                      |
|    \\/     M anipulation  |                                                 |
\*---------------------------------------------------------------------------*/
FoamFile
{
    version     2.0;
    format      ascii;
    arch        "LSB;label=32;scalar=64";
    class       volVectorField;
    location    "25";
    object      flux;
}
// * * * * * * * * * * * * * * * * * * * * * * * * * * * * * * * * * * * * * //

dimensions      [0 1 -1 1 0 0 0];

internalField   nonuniform List<vector> 
4000
(
(1.9825312e-07 1.9825312e-07 0.44049558)
(2.8184227e-08 -5.9530885e-09 0.4404974)
(-3.300555e-07 2.7533404e-08 0.4404955)
(-8.2468762e-08 3.1768497e-08 0.44049497)
(-1.8458184e-08 3.2806664e-08 0.44049478)
(2.6420315e-08 3.3926058e-08 0.4404948)
(5.8763324e-08 3.6279514e-08 0.440495)
(6.7098908e-08 4.1906203e-08 0.44049531)
(3.6524324e-08 5.2282703e-08 0.44049557)
(3.2793088e-09 5.4673131e-08 0.44049559)
(-5.9530883e-09 2.8184225e-08 0.4404974)
(-2.2789536e-07 -2.2789536e-07 0.44049742)
(-2.7347312e-07 -1.70022e-07 0.44049579)
(-7.4558871e-08 -1.6111619e-07 0.4404953)
(-1.5221842e-08 -1.5766488e-07 0.44049512)
(3.1629589e-08 -1.5380678e-07 0.44049517)
(7.073354e-08 -1.4649633e-07 0.44049539)
(9.1103692e-08 -1.2922284e-07 0.44049577)
(5.5674717e-08 -9.093971e-08 0.44049617)
(5.6697372e-09 -4.2618933e-08 0.44049614)
(2.7533404e-08 -3.300555e-07 0.4404955)
(-1.70022e-07 -2.7347312e-07 0.44049579)
(-2.6327633e-07 -2.6327633e-07 0.44049423)
(-7.0111637e-08 -2.5861412e-07 0.44049376)
(-1.1148779e-08 -2.5481877e-07 0.4404936)
(3.7588862e-08 -2.5069282e-07 0.44049366)
(8.3347261e-08 -2.4458208e-07 0.44049392)
(1.2265553e-07 -2.3277506e-07 0.44049437)
(1.2312823e-07 -2.0647747e-07 0.44049497)
(3.549316e-08 -1.5892114e-07 0.44049528)
(3.1768498e-08 -8.2468758e-08 0.44049497)
(-1.6111619e-07 -7.4558872e-08 0.4404953)
(-2.5861412e-07 -7.0111636e-08 0.44049376)
(-6.6101316e-08 -6.6101315e-08 0.44049331)
(-7.3005435e-09 -6.2434147e-08 0.44049317)
(4.1866281e-08 -5.8796199e-08 0.44049324)
(8.8651303e-08 -5.4727366e-08 0.44049352)
(1.292083e-07 -4.9951515e-08 0.440494)
(1.2952864e-07 -4.4761705e-08 0.44049463)
(3.7373959e-08 -4.1218643e-08 0.44049497)
(3.2806662e-08 -1.8458182e-08 0.44049478)
(-1.5766488e-07 -1.522184e-08 0.44049512)
(-2.5481877e-07 -1.1148777e-08 0.4404936)
(-6.2434147e-08 -7.3005428e-09 0.44049317)
(-3.8436627e-09 -3.8436627e-09 0.44049304)
(4.5295642e-08 -6.8981255e-10 0.44049313)
(9.2191945e-08 2.3464901e-09 0.44049342)
(1.3262119e-07 5.2891998e-09 0.44049391)
(1.318611e-07 7.7787294e-09 0.44049456)
(3.7855202e-08 8.9200115e-09 0.44049491)
(3.3926059e-08 2.6420313e-08 0.4404948)
(-1.5380678e-07 3.1629593e-08 0.44049517)
(-2.5069283e-07 3.7588859e-08 0.44049366)
(-5.8796202e-08 4.1866279e-08 0.44049324)
(-6.8981314e-10 4.5295644e-08 0.44049313)
(4.8056434e-08 4.8056432e-08 0.44049323)
(9.4630315e-08 5.0295464e-08 0.44049353)
(1.3464054e-07 5.2042896e-08 0.44049403)
(1.3315945e-07 5.3190066e-08 0.44049469)
(3.8134814e-08 5.3639517e-08 0.44049505)
(3.6279515e-08 5.8763325e-08 0.440495)
(-1.4649633e-07 7.0733535e-08 0.44049539)
(-2.4458208e-07 8.3347259e-08 0.44049392)
(-5.4727362e-08 8.8651304e-08 0.44049352)
(2.3464901e-09 9.2191949e-08 0.44049342)
(5.0295463e-08 9.4630313e-08 0.44049353)
(9.6178409e-08 9.6178408e-08 0.44049385)
(1.3551579e-07 9.6845841e-08 0.44049435)
(1.3345773e-07 9.6591558e-08 0.44049501)
(3.8154836e-08 9.588681e-08 0.44049536)
(4.1906199e-08 6.7098908e-08 0.44049531)
(-1.2922285e-07 9.110369e-08 0.44049577)
(-2.3277506e-07 1.2265553e-07 0.44049437)
(-4.9951512e-08 1.292083e-07 0.440494)
(5.2891961e-09 1.3262118e-07 0.44049391)
(5.2042893e-08 1.3464054e-07 0.44049403)
(9.6845843e-08 1.3551579e-07 0.44049435)
(1.3505369e-07 1.3505369e-07 0.44049486)
(1.3220042e-07 1.3280689e-07 0.44049551)
(3.7664982e-08 1.2946304e-07 0.44049586)
(5.2282703e-08 3.6524321e-08 0.44049557)
(-9.0939709e-08 5.5674721e-08 0.44049617)
(-2.0647747e-07 1.2312824e-07 0.44049497)
(-4.4761708e-08 1.2952864e-07 0.44049463)
(7.7787303e-09 1.318611e-07 0.44049456)
(5.3190066e-08 1.3315945e-07 0.44049469)
(9.659156e-08 1.3345773e-07 0.44049501)
(1.3280689e-07 1.3220042e-07 0.44049551)
(1.2786708e-07 1.2786708e-07 0.44049615)
(3.5925605e-08 1.1945811e-07 0.44049647)
(5.4673132e-08 3.2793083e-09 0.44049559)
(-4.2618931e-08 5.6697371e-09 0.44049614)
(-1.5892114e-07 3.5493161e-08 0.44049528)
(-4.1218642e-08 3.7373959e-08 0.44049497)
(8.9200109e-09 3.7855204e-08 0.44049491)
(5.3639516e-08 3.8134813e-08 0.44049505)
(9.5886815e-08 3.8154837e-08 0.44049536)
(1.2946304e-07 3.7664983e-08 0.44049586)
(1.1945811e-07 3.5925607e-08 0.44049647)
(3.2059005e-08 3.2059007e-08 0.44049673)
(1.2763688e-06 1.2763688e-06 0.93651476)
(-2.1706658e-07 4.2787052e-08 0.93651676)
(-2.7856784e-06 2.1652012e-07 0.93651346)
(-8.8202876e-07 2.5003425e-07 0.93651236)
(-1.94523e-07 2.6076403e-07 0.93651198)
(2.7255189e-07 2.7209193e-07 0.93651207)
(6.0465682e-07 2.960044e-07 0.93651254)
(6.8928973e-07 3.5492958e-07 0.93651328)
(3.2854964e-07 4.6463345e-07 0.93651396)
(3.2079509e-09 4.0761117e-07 0.93651367)
(4.2787053e-08 -2.1706659e-07 0.93651676)
(-1.80684e-06 -1.80684e-06 0.93651638)
(-2.4748077e-06 -1.4733601e-06 0.93651343)
(-8.156629e-07 -1.3934604e-06 0.9365124)
(-1.6143647e-07 -1.3575336e-06 0.93651205)
(3.2541245e-07 -1.3187773e-06 0.93651217)
(7.2891331e-07 -1.2452463e-06 0.9365127)
(9.4223331e-07 -1.0670952e-06 0.93651362)
(4.0757203e-07 -6.6573707e-07 0.93651475)
(-5.3814335e-08 -3.5088928e-07 0.93651447)
(2.1652012e-07 -2.7856784e-06 0.93651346)
(-1.4733601e-06 -2.4748077e-06 0.93651343)
(-2.372299e-06 -2.3722989e-06 0.93651059)
(-7.662023e-07 -2.3201414e-06 0.93650961)
(-1.1983992e-07 -2.2810495e-06 0.9365093)
(3.8483917e-07 -2.2398915e-06 0.93650945)
(8.5633886e-07 -2.1791041e-06 0.93651005)
(1.2687989e-06 -2.0590263e-06 0.93651111)
(1.0447555e-06 -1.7790935e-06 0.93651265)
(2.1310645e-07 -1.3345102e-06 0.93651301)
(2.5003425e-07 -8.8202876e-07 0.93651236)
(-1.3934604e-06 -8.156629e-07 0.9365124)
(-2.3201414e-06 -7.6620229e-07 0.93650961)
(-7.2441345e-07 -7.2441344e-07 0.93650868)
(-8.118658e-08 -6.874737e-07 0.93650839)
(4.2735788e-07 -6.5122712e-07 0.93650858)
(9.0977858e-07 -6.1084823e-07 0.93650921)
(1.3422439e-06 -5.6265846e-07 0.93651033)
(1.1320882e-06 -5.0275504e-07 0.93651194)
(2.4257457e-07 -4.497545e-07 0.93651239)
(2.6076403e-07 -1.94523e-07 0.93651198)
(-1.3575336e-06 -1.6143647e-07 0.93651205)
(-2.2810495e-06 -1.1983992e-07 0.9365093)
(-6.8747371e-07 -8.1186582e-08 0.93650839)
(-4.6653601e-08 -4.66536e-08 0.93650814)
(4.6146464e-07 -1.5211045e-08 0.93650835)
(9.4490752e-07 1.4979447e-08 0.93650902)
(1.3768921e-06 4.4187657e-08 0.93651016)
(1.1576595e-06 6.972052e-08 0.9365118)
(2.4844015e-07 8.2636812e-08 0.93651227)
(2.7209193e-07 2.7255189e-07 0.93651207)
(-1.3187773e-06 3.2541245e-07 0.93651217)
(-2.2398916e-06 3.8483916e-07 0.93650945)
(-6.5122712e-07 4.2735789e-07 0.93650858)
(-1.5211043e-08 4.6146464e-07 0.93650835)
(4.8899093e-07 4.8899093e-07 0.93650859)
(9.6917728e-07 5.1135455e-07 0.93650928)
(1.396985e-06 5.2879746e-07 0.93651044)
(1.1705374e-06 5.4028095e-07 0.9365121)
(2.5118543e-07 5.4473821e-07 0.93651257)
(2.960044e-07 6.0465682e-07 0.93651254)
(-1.2452463e-06 7.2891331e-07 0.9365127)
(-2.1791041e-06 8.5633885e-07 0.93651005)
(-6.1084823e-07 9.0977858e-07 0.93650921)
(1.4979443e-08 9.4490751e-07 0.93650902)
(5.1135456e-07 9.6917728e-07 0.93650928)
(9.8471405e-07 9.8471405e-07 0.93650998)
(1.4058185e-06 9.9148986e-07 0.93651115)
(1.1736002e-06 9.8890467e-07 0.93651282)
(2.5141166e-07 9.8165808e-07 0.93651329)
(3.5492958e-07 6.8928973e-07 0.93651328)
(-1.0670952e-06 9.4223331e-07 0.93651362)
(-2.0590263e-06 1.2687989e-06 0.93651111)
(-5.6265846e-07 1.3422439e-06 0.93651033)
(4.4187659e-08 1.3768921e-06 0.93651016)
(5.2879747e-07 1.396985e-06 0.93651044)
(9.9148986e-07 1.4058185e-06 0.93651115)
(1.4011756e-06 1.4011756e-06 0.93651233)
(1.1607056e-06 1.3774332e-06 0.93651399)
(2.4635436e-07 1.3396329e-06 0.93651444)
(4.6463345e-07 3.2854964e-07 0.93651396)
(-6.6573707e-07 4.0757203e-07 0.93651475)
(-1.7790935e-06 1.0447555e-06 0.93651265)
(-5.0275505e-07 1.1320882e-06 0.93651194)
(6.9720521e-08 1.1576595e-06 0.9365118)
(5.4028095e-07 1.1705374e-06 0.9365121)
(9.8890467e-07 1.1736002e-06 0.93651282)
(1.3774332e-06 1.1607056e-06 0.93651399)
(1.1120575e-06 1.1120575e-06 0.9365156)
(2.2621148e-07 9.9854096e-07 0.93651597)
(4.0761117e-07 3.2079478e-09 0.93651367)
(-3.5088928e-07 -5.3814337e-08 0.93651447)
(-1.3345102e-06 2.1310645e-07 0.93651301)
(-4.497545e-07 2.4257457e-07 0.93651239)
(8.263681e-08 2.4844015e-07 0.93651227)
(5.4473821e-07 2.5118543e-07 0.93651257)
(9.8165808e-07 2.5141165e-07 0.93651329)
(1.3396329e-06 2.4635436e-07 0.93651444)
(9.9854095e-07 2.2621148e-07 0.93651597)
(1.7067665e-07 1.7067666e-07 0.93651592)
(1.4836728e-06 1.4836728e-06 0.93150832)
(-1.303675e-06 -2.8205438e-07 0.9315087)
(-4.6853938e-06 -2.090875e-08 0.93150601)
(-1.5518473e-06 3.3486391e-08 0.9315051)
(-3.0073443e-07 5.2167259e-08 0.93150483)
(5.9149688e-07 7.1837811e-08 0.93150499)
(1.269814e-06 1.1627159e-07 0.93150556)
(1.485594e-06 2.4501292e-07 0.93150649)
(4.0791829e-07 5.5893598e-07 0.93150752)
(-2.029706e-07 5.757069e-07 0.93150715)
(-2.8205439e-07 -1.303675e-06 0.9315087)
(-3.5605477e-06 -3.5605477e-06 0.93150763)
(-4.2120827e-06 -3.0459539e-06 0.93150523)
(-1.4422333e-06 -2.9106426e-06 0.93150438)
(-2.432073e-07 -2.8469082e-06 0.93150413)
(6.8765338e-07 -2.7799832e-06 0.93150432)
(1.5295767e-06 -2.6507229e-06 0.93150494)
(2.1495906e-06 -2.3053302e-06 0.93150605)
(9.0395934e-07 -1.4043963e-06 0.93150771)
(-1.8619968e-07 -6.9434099e-07 0.93150754)
(-2.0908751e-08 -4.6853938e-06 0.93150601)
(-3.0459539e-06 -4.2120827e-06 0.93150523)
(-4.0354889e-06 -4.0354889e-06 0.93150293)
(-1.3528017e-06 -3.9402998e-06 0.93150213)
(-1.70075e-07 -3.869729e-06 0.93150191)
(7.8768206e-07 -3.7981621e-06 0.93150212)
(1.7444669e-06 -3.6960229e-06 0.93150278)
(2.7319204e-06 -3.4923766e-06 0.93150401)
(2.0189073e-06 -2.9820765e-06 0.93150604)
(2.7039949e-07 -2.2127633e-06 0.93150642)
(3.3486388e-08 -1.5518473e-06 0.9315051)
(-2.9106426e-06 -1.4422333e-06 0.93150438)
(-3.9402998e-06 -1.3528017e-06 0.93150213)
(-1.2764734e-06 -1.2764734e-06 0.93150137)
(-1.010696e-07 -1.2098089e-06 0.93150117)
(8.6135957e-07 -1.1456728e-06 0.93150141)
(1.8353623e-06 -1.0758593e-06 0.9315021)
(2.8635371e-06 -9.9342839e-07 0.93150336)
(2.1835729e-06 -8.8294957e-07 0.93150545)
(3.2667587e-07 -7.8187847e-07 0.93150591)
(5.2167257e-08 -3.0073443e-07 0.93150483)
(-2.8469082e-06 -2.432073e-07 0.93150413)
(-3.869729e-06 -1.70075e-07 0.93150191)
(-1.2098089e-06 -1.010696e-07 0.93150117)
(-3.9274322e-08 -3.9274319e-08 0.931501)
(9.2163163e-07 1.6782558e-08 0.93150126)
(1.8967113e-06 7.0226786e-08 0.93150197)
(2.9248302e-06 1.2162642e-07 0.93150326)
(2.2304573e-06 1.6784111e-07 0.93150537)
(3.3778023e-07 1.9223336e-07 0.93150584)
(7.183781e-08 5.9149688e-07 0.93150499)
(-2.7799832e-06 6.8765338e-07 0.93150432)
(-3.7981621e-06 7.8768206e-07 0.93150212)
(-1.1456728e-06 8.6135957e-07 0.93150141)
(1.6782558e-08 9.2163163e-07 0.93150126)
(9.7086067e-07 9.7086067e-07 0.93150155)
(1.9402062e-06 1.0113094e-06 0.93150227)
(2.9611514e-06 1.0433004e-06 0.93150357)
(2.2541798e-06 1.0650482e-06 0.9315057)
(3.4293737e-07 1.0744364e-06 0.93150618)
(1.1627159e-07 1.269814e-06 0.93150556)
(-2.6507229e-06 1.5295767e-06 0.93150494)
(-3.6960229e-06 1.7444669e-06 0.93150278)
(-1.0758593e-06 1.8353623e-06 0.9315021)
(7.0226785e-08 1.8967113e-06 0.93150197)
(1.0113094e-06 1.9402062e-06 0.93150227)
(1.969151e-06 1.969151e-06 0.93150302)
(2.9785689e-06 1.9829916e-06 0.93150433)
(2.2615932e-06 1.9793309e-06 0.93150646)
(3.4403903e-07 1.9661668e-06 0.93150695)
(2.4501292e-07 1.485594e-06 0.93150649)
(-2.3053302e-06 2.1495906e-06 0.93150605)
(-3.4923766e-06 2.7319204e-06 0.93150401)
(-9.9342839e-07 2.8635371e-06 0.93150336)
(1.2162642e-07 2.9248302e-06 0.93150326)
(1.0433004e-06 2.9611514e-06 0.93150357)
(1.9829916e-06 2.9785689e-06 0.93150433)
(2.9713313e-06 2.9713312e-06 0.93150564)
(2.2373551e-06 2.9201646e-06 0.93150778)
(3.3416133e-07 2.8146445e-06 0.93150826)
(5.5893598e-07 4.0791828e-07 0.93150752)
(-1.4043963e-06 9.0395934e-07 0.93150771)
(-2.9820765e-06 2.0189073e-06 0.93150604)
(-8.8294957e-07 2.1835729e-06 0.93150545)
(1.6784111e-07 2.2304573e-06 0.93150537)
(1.0650482e-06 2.2541798e-06 0.9315057)
(1.9793309e-06 2.2615932e-06 0.93150646)
(2.9201646e-06 2.2373551e-06 0.93150778)
(2.1049064e-06 2.1049064e-06 0.93150988)
(2.7369226e-07 1.5693652e-06 0.93151024)
(5.757069e-07 -2.0297061e-07 0.93150715)
(-6.9434099e-07 -1.8619969e-07 0.93150754)
(-2.2127633e-06 2.7039949e-07 0.93150642)
(-7.8187847e-07 3.2667586e-07 0.93150591)
(1.9223336e-07 3.3778023e-07 0.93150584)
(1.0744364e-06 3.4293737e-07 0.93150618)
(1.9661668e-06 3.4403903e-07 0.93150695)
(2.8146445e-06 3.3416133e-07 0.93150826)
(1.5693652e-06 2.7369226e-07 0.93151024)
(-2.2866159e-08 -2.2866159e-08 0.93150961)
(1.5194984e-06 1.5194984e-06 0.92402182)
(-2.5243871e-06 -6.6647632e-07 0.92402182)
(-6.3605485e-06 -3.044616e-07 0.92401935)
(-2.0552873e-06 -2.2881987e-07 0.92401864)
(-2.9530258e-07 -2.0368535e-07 0.92401851)
(1.0110338e-06 -1.791117e-07 0.92401876)
(2.1016306e-06 -1.2187905e-07 0.92401942)
(2.6634478e-06 6.356763e-08 0.92402051)
(1.0190476e-06 5.8171853e-07 0.92402194)
(-2.3382273e-07 6.6289301e-07 0.92402203)
(-6.6647632e-07 -2.5243871e-06 0.92402182)
(-5.2603273e-06 -5.2603273e-06 0.92402062)
(-5.7040641e-06 -4.5413859e-06 0.92401847)
(-1.904123e-06 -4.3511261e-06 0.92401783)
(-2.2074032e-07 -4.2645466e-06 0.92401771)
(1.1337433e-06 -4.1797664e-06 0.92401798)
(2.4656495e-06 -4.0160182e-06 0.92401867)
(3.7188442e-06 -3.5385206e-06 0.92401991)
(1.9180359e-06 -2.1494424e-06 0.92402195)
(-1.5264825e-07 -1.0826638e-06 0.92402224)
(-3.044616e-07 -6.3605485e-06 0.92401935)
(-4.5413859e-06 -5.7040641e-06 0.92401847)
(-5.4513477e-06 -5.4513477e-06 0.92401644)
(-1.7784481e-06 -5.3160737e-06 0.92401585)
(-1.2394284e-07 -5.2196167e-06 0.92401575)
(1.2595622e-06 -5.1271198e-06 0.92401603)
(2.7428762e-06 -5.0000185e-06 0.92401674)
(4.5300232e-06 -4.7379591e-06 0.92401806)
(3.4749042e-06 -4.0174405e-06 0.92402045)
(4.7736281e-07 -2.9558974e-06 0.92402124)
(-2.2881987e-07 -2.0552873e-06 0.92401864)
(-4.3511261e-06 -1.904123e-06 0.92401783)
(-5.3160737e-06 -1.7784481e-06 0.92401585)
(-1.672392e-06 -1.672392e-06 0.92401528)
(-3.1786336e-08 -1.5819261e-06 0.92401521)
(1.3533415e-06 -1.4976765e-06 0.92401551)
(2.8548102e-06 -1.4093478e-06 0.92401623)
(4.7014222e-06 -1.3073311e-06 0.92401756)
(3.7000981e-06 -1.1593812e-06 0.92402)
(5.5504735e-07 -1.0213506e-06 0.92402084)
(-2.0368535e-07 -2.9530258e-07 0.92401851)
(-4.2645466e-06 -2.2074032e-07 0.92401771)
(-5.2196167e-06 -1.2394285e-07 0.92401575)
(-1.5819261e-06 -3.1786332e-08 0.92401521)
(5.0772631e-08 5.0772637e-08 0.92401515)
(1.4321404e-06 1.2516677e-07 0.92401547)
(2.9332217e-06 1.952847e-07 0.9240162)
(4.7799898e-06 2.6194959e-07 0.92401754)
(3.7608847e-06 3.2328014e-07 0.92401999)
(5.6938321e-07 3.5581346e-07 0.92402084)
(-1.791117e-07 1.0110338e-06 0.92401876)
(-4.1797664e-06 1.1337433e-06 0.92401798)
(-5.1271198e-06 1.2595622e-06 0.92401603)
(-1.4976765e-06 1.3533415e-06 0.92401551)
(1.2516676e-07 1.4321404e-06 0.92401547)
(1.4978536e-06 1.4978536e-06 0.9240158)
(2.9915931e-06 1.5530693e-06 0.92401654)
(4.8294176e-06 1.598212e-06 0.9240179)
(3.793962e-06 1.6311862e-06 0.92402036)
(5.7673624e-07 1.6483068e-06 0.92402121)
(-1.2187905e-07 2.1016305e-06 0.92401942)
(-4.0160182e-06 2.4656495e-06 0.92401867)
(-5.0000185e-06 2.7428762e-06 0.92401674)
(-1.4093478e-06 2.8548102e-06 0.92401623)
(1.952847e-07 2.9332217e-06 0.9240162)
(1.5530693e-06 2.991593e-06 0.92401654)
(3.03358e-06 3.03358e-06 0.92401729)
(4.8581067e-06 3.0584973e-06 0.92401867)
(3.8109795e-06 3.0627845e-06 0.92402114)
(5.8079691e-07 3.0565122e-06 0.92402201)
(6.3567633e-08 2.6634478e-06 0.92402051)
(-3.5385206e-06 3.7188442e-06 0.92401991)
(-4.7379591e-06 4.5300232e-06 0.92401806)
(-1.3073311e-06 4.7014222e-06 0.92401756)
(2.6194959e-07 4.7799898e-06 0.92401754)
(1.598212e-06 4.8294176e-06 0.9240179)
(3.0584973e-06 4.8581067e-06 0.92401867)
(4.8586222e-06 4.8586222e-06 0.92402005)
(3.7919769e-06 4.7987034e-06 0.92402254)
(5.7255468e-07 4.6380679e-06 0.92402343)
(5.8171853e-07 1.0190476e-06 0.92402194)
(-2.1494424e-06 1.9180359e-06 0.92402195)
(-4.0174406e-06 3.4749042e-06 0.92402045)
(-1.1593812e-06 3.7000981e-06 0.92402)
(3.2328014e-07 3.7608847e-06 0.92401999)
(1.6311862e-06 3.793962e-06 0.92402036)
(3.0627845e-06 3.8109795e-06 0.92402114)
(4.7987034e-06 3.7919769e-06 0.92402254)
(3.5904252e-06 3.5904252e-06 0.92402502)
(4.7370658e-07 2.3538694e-06 0.92402582)
(6.6289301e-07 -2.3382273e-07 0.92402203)
(-1.0826638e-06 -1.5264825e-07 0.92402224)
(-2.9558974e-06 4.7736281e-07 0.92402124)
(-1.0213506e-06 5.5504735e-07 0.92402084)
(3.5581347e-07 5.6938321e-07 0.92402084)
(1.6483068e-06 5.7673624e-07 0.92402121)
(3.0565122e-06 5.8079691e-07 0.92402201)
(4.6380679e-06 5.7255468e-07 0.92402343)
(2.3538694e-06 4.7370658e-07 0.92402582)
(-2.5181586e-07 -2.5181586e-07 0.92402527)
(1.4772389e-06 1.4772389e-06 0.91432615)
(-3.7727117e-06 -1.0804279e-06 0.91432596)
(-7.8446481e-06 -6.0369679e-07 0.91432369)
(-2.386764e-06 -5.0522649e-07 0.91432319)
(-1.7569734e-07 -4.7489724e-07 0.91432319)
(1.5064099e-06 -4.4866861e-07 0.91432353)
(3.0136732e-06 -3.853044e-07 0.91432422)
(4.0093707e-06 -1.5393771e-07 0.91432537)
(1.9356406e-06 5.6356502e-07 0.91432696)
(-1.4098727e-07 7.161527e-07 0.91432734)
(-1.0804279e-06 -3.7727117e-06 0.91432596)
(-6.8941152e-06 -6.8941152e-06 0.91432471)
(-6.9818464e-06 -5.9442226e-06 0.9143228)
(-2.1935647e-06 -5.6967595e-06 0.91432237)
(-9.0860523e-08 -5.5921214e-06 0.91432238)
(1.6407991e-06 -5.5001086e-06 0.91432272)
(3.4557695e-06 -5.3222458e-06 0.91432342)
(5.4326747e-06 -4.7453346e-06 0.91432469)
(3.2407765e-06 -2.8919917e-06 0.91432687)
(1.1600419e-08 -1.4754013e-06 0.91432748)
(-6.0369678e-07 -7.8446481e-06 0.91432369)
(-5.9442226e-06 -6.9818464e-06 0.9143228)
(-6.6472928e-06 -6.6472928e-06 0.91432101)
(-2.0346629e-06 -6.4740468e-06 0.91432062)
(2.0953512e-08 -6.3580655e-06 0.91432065)
(1.7762855e-06 -6.2556227e-06 0.91432099)
(3.7684469e-06 -6.1218791e-06 0.9143217)
(6.4396241e-06 -5.8293528e-06 0.91432301)
(5.2055736e-06 -4.9273871e-06 0.9143255)
(8.0340608e-07 -3.6015993e-06 0.91432658)
(-5.0522649e-07 -2.386764e-06 0.91432319)
(-5.6967595e-06 -2.1935647e-06 0.91432237)
(-6.4740468e-06 -2.0346629e-06 0.91432062)
(-1.9043373e-06 -1.9043373e-06 0.91432027)
(1.2756357e-07 -1.7973741e-06 0.91432031)
(1.8769856e-06 -1.7026091e-06 0.91432066)
(3.8820394e-06 -1.608937e-06 0.91432136)
(6.6271669e-06 -1.5049726e-06 0.91432266)
(5.4685308e-06 -1.3378095e-06 0.91432516)
(8.9545922e-07 -1.1778918e-06 0.91432628)
(-4.7489724e-07 -1.7569734e-07 0.91432319)
(-5.5921214e-06 -9.0860525e-08 0.91432238)
(-6.3580655e-06 2.095351e-08 0.91432065)
(-1.7973741e-06 1.2756357e-07 0.91432031)
(2.2268172e-07 2.2268172e-07 0.91432037)
(1.9647226e-06 3.0741443e-07 0.91432072)
(3.9660835e-06 3.8590682e-07 0.91432142)
(6.7107516e-06 4.5911108e-07 0.91432272)
(5.5326545e-06 5.2784638e-07 0.91432523)
(9.1001788e-07 5.6329493e-07 0.91432634)
(-4.4866861e-07 1.5064099e-06 0.91432353)
(-5.5001086e-06 1.6407991e-06 0.91432272)
(-6.2556227e-06 1.7762855e-06 0.91432099)
(-1.7026091e-06 1.8769856e-06 0.91432066)
(3.0741443e-07 1.9647226e-06 0.91432072)
(2.0402107e-06 2.0402107e-06 0.91432108)
(4.0337361e-06 2.1059128e-06 0.91432179)
(6.7691064e-06 2.1624033e-06 0.91432309)
(5.5727147e-06 2.2076357e-06 0.9143256)
(9.1909159e-07 2.2355159e-06 0.91432672)
(-3.8530441e-07 3.0136732e-06 0.91432422)
(-5.3222458e-06 3.4557695e-06 0.91432342)
(-6.1218791e-06 3.768447e-06 0.9143217)
(-1.608937e-06 3.8820394e-06 0.91432136)
(3.8590682e-07 3.9660835e-06 0.91432142)
(2.1059128e-06 4.0337361e-06 0.91432179)
(4.0882761e-06 4.0882761e-06 0.91432251)
(6.8124745e-06 4.1295677e-06 0.91432382)
(5.6057672e-06 4.1540539e-06 0.91432635)
(9.2860469e-07 4.1724512e-06 0.91432749)
(-1.5393771e-07 4.0093707e-06 0.91432537)
(-4.7453346e-06 5.4326747e-06 0.91432469)
(-5.8293528e-06 6.4396241e-06 0.91432301)
(-1.5049726e-06 6.6271669e-06 0.91432266)
(4.5911108e-07 6.7107516e-06 0.91432272)
(2.1624033e-06 6.7691064e-06 0.91432309)
(4.1295677e-06 6.8124745e-06 0.91432382)
(6.8348842e-06 6.8348842e-06 0.91432516)
(5.6155982e-06 6.7971331e-06 0.91432773)
(9.3135648e-07 6.6285268e-06 0.91432891)
(5.6356502e-07 1.9356406e-06 0.91432696)
(-2.8919917e-06 3.2407765e-06 0.91432687)
(-4.9273871e-06 5.2055736e-06 0.9143255)
(-1.3378095e-06 5.4685308e-06 0.91432516)
(5.2784638e-07 5.5326545e-06 0.91432523)
(2.2076357e-06 5.5727147e-06 0.9143256)
(4.1540539e-06 5.6057671e-06 0.91432635)
(6.7971332e-06 5.6155982e-06 0.91432773)
(5.3994096e-06 5.3994096e-06 0.91433033)
(8.1620038e-07 3.4195093e-06 0.9143315)
(7.161527e-07 -1.4098727e-07 0.91432734)
(-1.4754013e-06 1.160042e-08 0.91432748)
(-3.6015993e-06 8.0340608e-07 0.91432658)
(-1.1778918e-06 8.9545922e-07 0.91432628)
(5.6329493e-07 9.1001787e-07 0.91432634)
(2.2355159e-06 9.1909159e-07 0.91432672)
(4.1724512e-06 9.2860469e-07 0.91432749)
(6.6285268e-06 9.3135648e-07 0.91432891)
(3.4195093e-06 8.1620038e-07 0.9143315)
(-3.8857709e-07 -3.8857709e-07 0.91433123)
(1.3907748e-06 1.3907748e-06 0.9026668)
(-4.9773978e-06 -1.4983619e-06 0.90266652)
(-9.1148308e-06 -8.9817529e-07 0.90266449)
(-2.5463869e-06 -7.7615791e-07 0.9026642)
(4.5297743e-08 -7.4206169e-07 0.90266433)
(2.0442383e-06 -7.1742262e-07 0.90266473)
(3.9378115e-06 -6.5441486e-07 0.90266542)
(5.3950813e-06 -3.881111e-07 0.90266653)
(2.9969105e-06 5.191346e-07 0.90266814)
(2.3874913e-08 7.5385462e-07 0.90266869)
(-1.4983619e-06 -4.9773978e-06 0.90266652)
(-8.4108225e-06 -8.4108225e-06 0.90266529)
(-8.0315254e-06 -7.2134232e-06 0.90266365)
(-2.3122166e-06 -6.9085139e-06 0.90266343)
(1.3340066e-07 -6.7912333e-06 0.90266357)
(2.1757085e-06 -6.7029059e-06 0.90266395)
(4.4317787e-06 -6.5313399e-06 0.90266463)
(7.1554052e-06 -5.8889903e-06 0.90266583)
(4.7098595e-06 -3.6072852e-06 0.90266799)
(2.5859496e-07 -1.8430428e-06 0.90266879)
(-8.9817529e-07 -9.1148308e-06 0.90266449)
(-7.2134232e-06 -8.0315255e-06 0.90266365)
(-7.6125228e-06 -7.6125228e-06 0.90266212)
(-2.1241971e-06 -7.4046274e-06 0.90266195)
(2.509057e-07 -7.2763183e-06 0.9026621)
(2.3041316e-06 -7.1756789e-06 0.90266247)
(4.7517269e-06 -7.0544001e-06 0.90266313)
(8.3191349e-06 -6.7609843e-06 0.90266434)
(7.0428577e-06 -5.7128703e-06 0.90266677)
(1.2000363e-06 -4.1523108e-06 0.902668)
(-7.7615791e-07 -2.5463869e-06 0.9026642)
(-6.9085139e-06 -2.3122166e-06 0.90266343)
(-7.4046274e-06 -2.1241971e-06 0.90266195)
(-1.976012e-06 -1.976012e-06 0.90266179)
(3.6234916e-07 -1.8608172e-06 0.90266195)
(2.3976268e-06 -1.7661151e-06 0.90266232)
(4.8464733e-06 -1.6812739e-06 0.90266295)
(8.4969351e-06 -1.5942145e-06 0.90266413)
(7.318534e-06 -1.428476e-06 0.90266655)
(1.2989683e-06 -1.2629603e-06 0.90266779)
(-7.4206169e-07 4.5297753e-08 0.90266433)
(-6.7912333e-06 1.3340066e-07 0.90266357)
(-7.2763183e-06 2.509057e-07 0.9026621)
(-1.8608172e-06 3.6234916e-07 0.90266195)
(4.608026e-07 4.6080259e-07 0.90266211)
(2.4836749e-06 5.4687465e-07 0.90266247)
(4.9236276e-06 6.2450001e-07 0.9026631)
(8.5719328e-06 6.9458216e-07 0.90266426)
(7.374112e-06 7.6187471e-07 0.90266666)
(1.3103801e-06 7.9417327e-07 0.90266789)
(-7.1742263e-07 2.0442383e-06 0.90266473)
(-6.7029059e-06 2.1757085e-06 0.90266395)
(-7.1756789e-06 2.3041316e-06 0.90266247)
(-1.7661151e-06 2.3976268e-06 0.90266232)
(5.4687465e-07 2.4836749e-06 0.90266247)
(2.5613243e-06 2.5613243e-06 0.90266283)
(4.9941809e-06 2.6325503e-06 0.90266346)
(8.6343098e-06 2.6981046e-06 0.90266462)
(7.4181252e-06 2.7561865e-06 0.90266702)
(1.3205007e-06 2.797263e-06 0.90266825)
(-6.5441486e-07 3.9378115e-06 0.90266542)
(-6.5313399e-06 4.4317787e-06 0.90266463)
(-7.0544001e-06 4.7517269e-06 0.90266313)
(-1.6812739e-06 4.8464733e-06 0.90266295)
(6.2450001e-07 4.9236276e-06 0.9026631)
(2.6325503e-06 4.9941808e-06 0.90266346)
(5.0604079e-06 5.0604079e-06 0.90266409)
(8.695569e-06 5.1233515e-06 0.90266526)
(7.4732704e-06 5.1802393e-06 0.90266769)
(1.3377645e-06 5.239871e-06 0.90266895)
(-3.8811111e-07 5.3950813e-06 0.90266653)
(-5.8889903e-06 7.1554052e-06 0.90266583)
(-6.7609843e-06 8.3191349e-06 0.90266434)
(-1.5942145e-06 8.4969351e-06 0.90266413)
(6.9458216e-07 8.5719328e-06 0.90266426)
(2.6981046e-06 8.6343098e-06 0.90266462)
(5.1233515e-06 8.695569e-06 0.90266526)
(8.7541412e-06 8.7541412e-06 0.90266647)
(7.5346447e-06 8.7693906e-06 0.90266895)
(1.3602551e-06 8.6395827e-06 0.90267028)
(5.191346e-07 2.9969105e-06 0.90266814)
(-3.6072852e-06 4.7098595e-06 0.90266799)
(-5.7128703e-06 7.0428577e-06 0.90266677)
(-1.428476e-06 7.318534e-06 0.90266655)
(7.6187472e-07 7.374112e-06 0.90266666)
(2.7561865e-06 7.4181252e-06 0.90266702)
(5.1802393e-06 7.4732704e-06 0.90266769)
(8.7693906e-06 7.5346447e-06 0.90266895)
(7.3587119e-06 7.3587119e-06 0.90267151)
(1.2512258e-06 4.6743694e-06 0.90267289)
(7.5385462e-07 2.3874914e-08 0.90266869)
(-1.8430428e-06 2.5859496e-07 0.90266879)
(-4.1523108e-06 1.2000363e-06 0.902668)
(-1.2629603e-06 1.2989683e-06 0.90266779)
(7.9417327e-07 1.3103801e-06 0.90266789)
(2.797263e-06 1.3205007e-06 0.90266825)
(5.239871e-06 1.3377645e-06 0.90266895)
(8.6395827e-06 1.3602551e-06 0.90267028)
(4.6743694e-06 1.2512258e-06 0.90267289)
(-4.2930664e-07 -4.2930664e-07 0.90267286)
(1.2874216e-06 1.2874216e-06 0.88926983)
(-6.0741478e-06 -1.8942694e-06 0.88926953)
(-1.014702e-05 -1.1661837e-06 0.88926779)
(-2.5400091e-06 -1.0209147e-06 0.8892677)
(3.4753083e-07 -9.8470985e-07 0.88926795)
(2.5876681e-06 -9.6488927e-07 0.88926836)
(4.8133117e-06 -9.0862331e-07 0.88926901)
(6.7261231e-06 -6.1892501e-07 0.88927002)
(4.0899368e-06 4.6392476e-07 0.88927155)
(2.2350141e-07 7.8702539e-07 0.88927216)
(-1.8942694e-06 -6.0741478e-06 0.88926953)
(-9.754555e-06 -9.754555e-06 0.8892684)
(-8.8369892e-06 -8.3022907e-06 0.88926704)
(-2.2677984e-06 -7.9422712e-06 0.88926703)
(4.3156894e-07 -7.8184962e-06 0.88926728)
(2.7017979e-06 -7.7448009e-06 0.88926768)
(5.3322579e-06 -7.5996051e-06 0.88926829)
(8.7849447e-06 -6.926706e-06 0.88926936)
(6.198863e-06 -4.2621744e-06 0.88927139)
(5.4660208e-07 -2.1620372e-06 0.88927226)
(-1.1661837e-06 -1.014702e-05 0.88926779)
(-8.3022907e-06 -8.8369892e-06 0.88926704)
(-8.3347374e-06 -8.3347374e-06 0.88926581)
(-2.0562146e-06 -8.0971869e-06 0.88926584)
(5.4500102e-07 -7.9644717e-06 0.88926609)
(2.8065591e-06 -7.8775855e-06 0.88926646)
(5.6314064e-06 -7.787656e-06 0.88926704)
(1.0063552e-05 -7.5228348e-06 0.88926808)
(8.8546054e-06 -6.366987e-06 0.88927032)
(1.6235926e-06 -4.6040578e-06 0.88927158)
(-1.0209147e-06 -2.5400091e-06 0.8892677)
(-7.9422712e-06 -2.2677984e-06 0.88926703)
(-8.0971869e-06 -2.0562146e-06 0.88926584)
(-1.8975327e-06 -1.8975327e-06 0.88926588)
(6.5117042e-07 -1.782989e-06 0.88926612)
(2.8786136e-06 -1.699289e-06 0.88926648)
(5.6870086e-06 -1.6375515e-06 0.88926702)
(1.0205614e-05 -1.5861601e-06 0.889268)
(9.1176412e-06 -1.4429099e-06 0.88927021)
(1.7218886e-06 -1.2881571e-06 0.88927146)
(-9.8470984e-07 3.4753083e-07 0.88926795)
(-7.8184962e-06 4.3156895e-07 0.88926728)
(-7.9644717e-06 5.4500102e-07 0.88926609)
(-1.782989e-06 6.5117042e-07 0.88926612)
(7.4324475e-07 7.4324475e-07 0.88926637)
(2.9519966e-06 8.2122155e-07 0.88926671)
(5.7445352e-06 8.8839198e-07 0.88926722)
(1.0258194e-05 9.4541167e-07 0.88926818)
(9.1526085e-06 1.0020437e-06 0.88927036)
(1.7267612e-06 1.0249163e-06 0.88927158)
(-9.6488927e-07 2.5876681e-06 0.88926836)
(-7.7448009e-06 2.7017979e-06 0.88926768)
(-7.8775855e-06 2.8065591e-06 0.88926646)
(-1.699289e-06 2.8786136e-06 0.88926648)
(8.2122155e-07 2.9519966e-06 0.88926671)
(3.0237609e-06 3.0237609e-06 0.88926704)
(5.8111987e-06 3.0950992e-06 0.88926755)
(1.0319266e-05 3.1669477e-06 0.8892685)
(9.1971459e-06 3.2378652e-06 0.88927067)
(1.7371371e-06 3.2939206e-06 0.8892719)
(-9.0862331e-07 4.8133117e-06 0.88926901)
(-7.5996051e-06 5.3322579e-06 0.88926829)
(-7.787656e-06 5.6314064e-06 0.88926704)
(-1.6375515e-06 5.6870086e-06 0.88926702)
(8.8839198e-07 5.7445352e-06 0.88926722)
(3.0950992e-06 5.8111987e-06 0.88926755)
(5.8877221e-06 5.8877221e-06 0.88926805)
(1.040096e-05 5.9768589e-06 0.88926902)
(9.2795814e-06 6.0771545e-06 0.88927122)
(1.7641315e-06 6.1926769e-06 0.88927248)
(-6.1892501e-07 6.7261231e-06 0.88927002)
(-6.926706e-06 8.7849447e-06 0.88926936)
(-7.5228348e-06 1.0063552e-05 0.88926808)
(-1.5861601e-06 1.0205614e-05 0.889268)
(9.4541165e-07 1.0258194e-05 0.88926818)
(3.1669477e-06 1.0319266e-05 0.8892685)
(5.9768589e-06 1.040096e-05 0.88926902)
(1.0508698e-05 1.0508698e-05 0.88927002)
(9.4129639e-06 1.060526e-05 0.88927229)
(1.814152e-06 1.0557077e-05 0.88927364)
(4.6392476e-07 4.0899368e-06 0.88927155)
(-4.2621744e-06 6.198863e-06 0.88927139)
(-6.3669869e-06 8.8546054e-06 0.88927032)
(-1.4429099e-06 9.1176412e-06 0.88927021)
(1.0020437e-06 9.1526085e-06 0.88927036)
(3.2378652e-06 9.1971459e-06 0.88927067)
(6.0771545e-06 9.2795814e-06 0.88927122)
(1.060526e-05 9.4129639e-06 0.88927229)
(9.3279606e-06 9.3279606e-06 0.88927469)
(1.7320098e-06 6.0040834e-06 0.88927614)
(7.8702539e-07 2.2350141e-07 0.88927216)
(-2.1620372e-06 5.4660208e-07 0.88927226)
(-4.6040578e-06 1.6235926e-06 0.88927158)
(-1.2881571e-06 1.7218886e-06 0.88927146)
(1.0249163e-06 1.7267612e-06 0.88927158)
(3.2939206e-06 1.7371371e-06 0.8892719)
(6.1926769e-06 1.7641315e-06 0.88927248)
(1.0557077e-05 1.814152e-06 0.88927364)
(6.0040834e-06 1.7320098e-06 0.88927614)
(-4.0176643e-07 -4.0176643e-07 0.88927628)
(1.1881026e-06 1.1881026e-06 0.87434502)