/*--------------------------------*- C++ -*----------------------------------*\
| =========                 |                                                 |
| \\      /  F ield         | OpenFOAM: The Open Source CFD Toolbox           |
|  \\    /   O peration     | Version:  v2106                                 |
|   \\  /    A nd           | Website:  www.openfoam.com                      |
|    \\/     M anipulation  |                                                 |
\*---------------------------------------------------------------------------*/
FoamFile
{
    version     2.0;
    format      ascii;
    arch        "LSB;label=32;scalar=64";
    class       volScalarField;
    location    "25";
    object      gradTz;
}
// * * * * * * * * * * * * * * * * * * * * * * * * * * * * * * * * * * * * * //

dimensions      [0 -1 0 1 0 0 0];

internalField   nonuniform List<scalar> 
4000
(
682.97159
682.97298
682.96783
682.96827
682.96901
682.96956
682.97004
682.97059
682.97121
682.97157
682.97298
682.96993
682.96672
682.96743
682.96816
682.96866
682.96911
682.9697
682.97063
682.97137
682.96783
682.96672
682.96389
682.96466
682.96538
682.96582
682.96618
682.9667
682.9678
682.96918
682.96827
682.96743
682.96466
682.96543
682.96612
682.96651
682.96677
682.96713
682.96801
682.96918
682.96901
682.96816
682.96538
682.96612
682.96677
682.96711
682.9673
682.96757
682.96833
682.96938
682.96956
682.96866
682.96582
682.96651
682.96711
682.9674
682.96754
682.96776
682.96849
682.9695
682.97004
682.96911
682.96618
682.96677
682.9673
682.96754
682.96765
682.96786
682.96858
682.9696
682.97059
682.9697
682.9667
682.96713
682.96757
682.96776
682.96786
682.96808
682.96883
682.96989
682.97121
682.97063
682.9678
682.96801
682.96833
682.96849
682.96858
682.96883
682.96964
682.97078
682.97157
682.97137
682.96918
682.96918
682.96938
682.9695
682.9696
682.96989
682.97078
682.97194
1007.1894
1007.1896
1007.185
1007.1855
1007.1864
1007.1871
1007.1878
1007.1886
1007.1897
1007.1898
1007.1896
1007.187
1007.1838
1007.1845
1007.1854
1007.1861
1007.1866
1007.1876
1007.1893
1007.1901
1007.185
1007.1838
1007.1811
1007.1818
1007.1827
1007.1833
1007.1837
1007.1845
1007.1865
1007.1881
1007.1855
1007.1845
1007.1818
1007.1826
1007.1835
1007.184
1007.1843
1007.1848
1007.1865
1007.1879
1007.1864
1007.1854
1007.1827
1007.1835
1007.1843
1007.1847
1007.1849
1007.1853
1007.1868
1007.188
1007.1871
1007.1861
1007.1833
1007.184
1007.1847
1007.185
1007.1851
1007.1855
1007.1869
1007.1881
1007.1878
1007.1866
1007.1837
1007.1843
1007.1849
1007.1851
1007.1852
1007.1855
1007.187
1007.1882
1007.1886
1007.1876
1007.1845
1007.1848
1007.1853
1007.1855
1007.1855
1007.1859
1007.1874
1007.1888
1007.1897
1007.1893
1007.1865
1007.1865
1007.1868
1007.1869
1007.187
1007.1874
1007.1891
1007.1906
1007.1898
1007.1901
1007.1881
1007.1879
1007.188
1007.1881
1007.1882
1007.1888
1007.1906
1007.1916
997.32473
997.32455
997.32174
997.32226
997.32304
997.32365
997.3242
997.32504
997.32642
997.32657
997.32455
997.32264
997.32069
997.32135
997.32211
997.32263
997.32307
997.32392
997.32611
997.32704
997.32174
997.32069
997.31902
997.31973
997.32046
997.32089
997.32116
997.32183
997.32417
997.32572
997.32226
997.32135
997.31973
997.32045
997.32113
997.32148
997.3216
997.32205
997.32416
997.32553
997.32304
997.32211
997.32046
997.32113
997.32176
997.32202
997.32205
997.32236
997.32433
997.32557
997.32365
997.32263
997.32089
997.32148
997.32202
997.32222
997.32218
997.32243
997.32435
997.32555
997.3242
997.32307
997.32116
997.3216
997.32205
997.32218
997.32211
997.32235
997.32429
997.32554
997.32504
997.32392
997.32183
997.32205
997.32236
997.32243
997.32235
997.32265
997.3247
997.32612
997.32642
997.32611
997.32417
997.32416
997.32433
997.32435
997.32429
997.3247
997.32698
997.32861
997.32657
997.32704
997.32572
997.32553
997.32557
997.32555
997.32554
997.32612
997.32861
997.32903
986.56185
986.56196
986.55968
986.56026
986.56097
986.56145
986.56185
986.56256
986.5641
986.56453
986.56196
986.56059
986.55906
986.55975
986.56042
986.56082
986.56107
986.56173
986.56397
986.56497
986.55968
986.55906
986.55775
986.55846
986.5591
986.55939
986.55948
986.55994
986.56234
986.56391
986.56026
986.55975
986.55846
986.55916
986.55975
986.55995
986.55989
986.56013
986.56233
986.56375
986.56097
986.56042
986.5591
986.55975
986.56027
986.5604
986.56024
986.56036
986.56242
986.56373
986.56145
986.56082
986.55939
986.55995
986.5604
986.56046
986.56023
986.5603
986.56231
986.56359
986.56185
986.56107
986.55948
986.55989
986.56024
986.56023
986.55998
986.56004
986.5621
986.56344
986.56256
986.56173
986.55994
986.56013
986.56036
986.5603
986.56004
986.56018
986.5624
986.56398
986.5641
986.56397
986.56234
986.56233
986.56242
986.56231
986.5621
986.5624
986.56493
986.56688
986.56453
986.56497
986.56391
986.56375
986.56373
986.56359
986.56344
986.56398
986.56688
986.56705
974.96426
974.96446
974.96247
974.96309
974.96374
974.9641
974.96432
974.96482
974.96619
974.96662
974.96446
974.96332
974.96204
974.96274
974.96336
974.96363
974.9637
974.96412
974.96615
974.96706
974.96247
974.96204
974.96093
974.96165
974.96222
974.96239
974.96229
974.96251
974.96469
974.96613
974.96309
974.96274
974.96165
974.96235
974.96286
974.96295
974.9627
974.9627
974.96468
974.96599
974.96374
974.96336
974.96222
974.96286
974.96331
974.96331
974.96297
974.96285
974.96471
974.96592
974.9641
974.96363
974.96239
974.96295
974.96331
974.96325
974.96284
974.96268
974.9645
974.96568
974.96432
974.9637
974.96229
974.9627
974.96297
974.96284
974.96241
974.96226
974.96413
974.96538
974.96482
974.96412
974.96251
974.9627
974.96285
974.96268
974.96226
974.96219
974.96424
974.96576
974.96619
974.96615
974.96469
974.96468
974.96471
974.9645
974.96413
974.96424
974.96666
974.96867
974.96662
974.96706
974.96613
974.96599
974.96592
974.96568
974.96538
974.96576
974.96867
974.96879
962.59743
962.59769
962.59594
962.59658
962.59718
962.59744
962.59751
962.5978
962.59894
962.59929
962.59769
962.59672
962.59564
962.59636
962.59692
962.59709
962.597
962.5972
962.59896
962.59974
962.59594
962.59564
962.59472
962.59545
962.59595
962.59602
962.59576
962.59575
962.59765
962.59892
962.59658
962.59636
962.59545
962.59614
962.59659
962.59657
962.59616
962.59595
962.59765
962.59879
962.59718
962.59692
962.59595
962.59659
962.59698
962.59687
962.59637
962.59604
962.59762
962.59866
962.59744
962.59709
962.59602
962.59657
962.59687
962.5967
962.59614
962.59576
962.59731
962.59833
962.59751
962.597
962.59576
962.59616
962.59637
962.59614
962.59556
962.5952
962.5968
962.59789
962.5978
962.5972
962.59575
962.59595
962.59604
962.59576
962.5952
962.59492
962.59671
962.59809
962.59894
962.59896
962.59765
962.59765
962.59762
962.59731
962.5968
962.59671
962.59891
962.60081
962.59929
962.59974
962.59892
962.59879
962.59866
962.59833
962.59789
962.59809
962.60081
962.60089
949.53025
949.53056
949.52906
949.52972
949.53027
949.53043
949.53036
949.53046
949.53138
949.53162
949.53056
949.52977
949.52888
949.52961
949.53012
949.53019
949.52996
949.52996
949.53145
949.53209
949.52906
949.52888
949.52813
949.52887
949.52932
949.52929
949.52889
949.52868
949.53028
949.53136
949.52972
949.52961
949.52887
949.52956
949.52996
949.52984
949.5293
949.52888
949.53029
949.53124
949.53027
949.53012
949.52932
949.52996
949.53028
949.53008
949.52945
949.52892
949.53022
949.53107
949.53043
949.53019
949.52929
949.52984
949.53008
949.52982
949.52913
949.52856
949.52982
949.53065
949.53036
949.52996
949.52889
949.5293
949.52945
949.52913
949.52842
949.52786
949.52918
949.53008
949.53046
949.52996
949.52868
949.52888
949.52892
949.52856
949.52786
949.52739
949.5289
949.53009
949.53138
949.53145
949.53028
949.53029
949.53022
949.52982
949.52918
949.5289
949.53081
949.53254
949.53162
949.53209
949.53136
949.53124
949.53107
949.53065
949.53008
949.53009
949.53254
949.53254
935.83381
935.83417
935.8329
935.83358
935.83407
935.83415
935.83395
935.83387
935.83458
935.83471
935.83417
935.83354
935.83284
935.83358
935.83403
935.83402
935.83366
935.83348
935.83469
935.83518
935.8329
935.83284
935.83227
935.833
935.8334
935.83328
935.83276
935.83237
935.83367
935.83454
935.83358
935.83358
935.833
935.83369
935.83403
935.83382
935.83316
935.83257
935.83369
935.83443
935.83407
935.83403
935.8334
935.83403
935.8343
935.83401
935.83326
935.83256
935.83357
935.83422
935.83415
935.83402
935.83328
935.83382
935.83401
935.83367
935.83286
935.83211
935.83309
935.83373
935.83395
935.83366
935.83276
935.83316
935.83326
935.83286
935.83203
935.8313
935.83233
935.83304
935.83387
935.83348
935.83237
935.83257
935.83256
935.83211
935.8313
935.83066
935.83188
935.83286
935.83458
935.83469
935.83367
935.83369
935.83357
935.83309
935.83233
935.83188
935.83349
935.83501
935.83471
935.83518
935.83454
935.83443
935.83422
935.83373
935.83304
935.83286
935.83501
935.83492
921.58066
921.58107
921.58004
921.58072
921.58116
921.58115
921.58084
921.5806
921.5811
921.58112
921.58107
921.58061
921.58009
921.58082
921.58122
921.58112
921.58066
921.58031
921.58126
921.58159
921.58004
921.58009
921.57968
921.5804
921.58074
921.58055
921.57992
921.57936
921.58038
921.58105
921.58072
921.58082
921.5804
921.58107
921.58136
921.58108
921.58031
921.57956
921.5804
921.58095
921.58116
921.58122
921.58074
921.58136
921.58158
921.58122
921.58037
921.57951
921.58023
921.5807
921.58115
921.58112
921.58055
921.58108
921.58122
921.5808
921.57989
921.57899
921.57969
921.58013
921.58084
921.58066
921.57992
921.58031
921.58037
921.57989
921.57897
921.57808
921.57883
921.57934
921.5806
921.58031
921.57936
921.57956
921.57951
921.57899
921.57808
921.57728
921.57821
921.57899
921.5811
921.58126
921.58038
921.5804
921.58023
921.57969
921.57883
921.57821
921.57952
921.58083
921.58112
921.58159
921.58105
921.58095
921.5807
921.58013
921.57934
921.57899
921.58083
921.58063
906.8444
906.84484
906.84404
906.84471
906.8451
906.84502
906.8446
906.84422
906.84452
906.84443
906.84484
906.84454
906.8442
906.84491
906.84525
906.84509
906.84452
906.84402
906.84471
906.8449
906.84404
906.8442
906.84394
906.84464
906.84493
906.84467
906.84394
906.84324
906.84398
906.84446
906.84471
906.84491
906.84464
906.84529
906.84552
906.84517
906.84432
906.84343
906.84399
906.84435
906.8451
906.84525
906.84493
906.84552
906.84569
906.84527
906.84433
906.84333
906.84379
906.84407
906.84502
906.84509
906.84467
906.84517
906.84527
906.84478
906.84379
906.84276
906.84319
906.84345
906.8446
906.84452
906.84394
906.84432
906.84433
906.84379
906.84278
906.84176
906.84224
906.84256
906.84422
906.84402
906.84324
906.84343
906.84333
906.84276
906.84176
906.84082
906.84147
906.84205
906.84452
906.84471
906.84398
906.84399
906.84379
906.84319
906.84224
906.84147
906.84249
906.84358
906.84443
906.8449
906.84446
906.84435
906.84407
906.84345
906.84256
906.84205
906.84358
906.84329
891.69914
891.69961
891.69903
891.69969
891.70002
891.69987
891.69936
891.69885
891.69896
891.69878
891.69961
891.69947
891.69928
891.69997
891.70026
891.70002
891.69937
891.69873
891.69919
891.69923
891.69903
891.69928
891.69917
891.69984
891.70008
891.69975
891.69895
891.69812
891.69859
891.69888
891.69969
891.69997
891.69984
891.70046
891.70064
891.70023
891.69931
891.6983
891.6986
891.69879
891.70002
891.70026
891.70008
891.70064
891.70075
891.70027
891.69927
891.69816
891.69837
891.69847
891.69987
891.70002
891.69975
891.70023
891.70027
891.69973
891.69868
891.69753
891.69772
891.6978
891.69936
891.69937
891.69895
891.69931
891.69927
891.69868
891.6976
891.69647
891.69669
891.69684
891.69885
891.69873
891.69812
891.6983
891.69816
891.69753
891.69647
891.69541
891.69579
891.69618
891.69896
891.69919
891.69859
891.6986
891.69837
891.69772
891.69669
891.69579
891.69653
891.6974
891.69878
891.69923
891.69888
891.69879
891.69847
891.6978
891.69684
891.69618
891.6974
891.69703
876.21915
876.21964
876.21928
876.2199
876.22018
876.21996
876.21937
876.21875
876.21869
876.21842
876.21964
876.21964
876.2196
876.22025
876.22048
876.22019
876.21947
876.21871
876.21894
876.21886
876.21928
876.2196
876.21963
876.22025
876.22043
876.22005
876.21919
876.21825
876.21848
876.2186
876.2199
876.22025
876.22025
876.22084
876.22096
876.2205
876.21952
876.21842
876.21849
876.2185
876.22018
876.22048
876.22043
876.22096
876.22102
876.22049
876.21944
876.21824
876.21822
876.21816
876.21996
876.22019
876.22005
876.2205
876.22049
876.21991
876.21881
876.21757
876.21753
876.21745
876.21937
876.21947
876.21919
876.21952
876.21944
876.21881
876.21768
876.21646
876.21645
876.21643
876.21875
876.21871
876.21825
876.21842
876.21824
876.21757
876.21646
876.2153
876.21544
876.21564
876.21869
876.21894
876.21848
876.21849
876.21822
876.21753
876.21645
876.21544
876.21591
876.21657
876.21842
876.21886
876.2186
876.2185
876.21816
876.21745
876.21643
876.21564
876.21657
876.21612
860.47843
860.47893
860.47877
860.47936
860.47957
860.47929
860.47864
860.47792
860.4777
860.47736
860.47893
860.47906
860.47917
860.47977
860.47994
860.47959
860.47881
860.47796
860.47798
860.47778
860.47877
860.47917
860.47931
860.47989
860.48001
860.47958
860.47867
860.47765
860.47764
860.4776
860.47936
860.47977
860.47989
860.48042
860.48049
860.47998
860.47897
860.47779
860.47765
860.4775
860.47957
860.47994
860.48001
860.48049
860.4805
860.47993
860.47884
860.47758
860.47735
860.47714
860.47929
860.47959
860.47958
860.47998
860.47993
860.47931
860.47818
860.47688
860.47663
860.4764
860.47864
860.47881
860.47867
860.47897
860.47884
860.47818
860.47703
860.47574
860.47552
860.47534
860.47792
860.47796
860.47765
860.47779
860.47758
860.47688
860.47574
860.47451
860.47442
860.47445
860.4777
860.47798
860.47764
860.47765
860.47735
860.47663
860.47552
860.47442
860.47464
860.4751
860.47736
860.47778
860.4776
860.4775
860.47714
860.4764
860.47534
860.47445
860.4751
860.47458
844.55037
844.55088
844.5509
844.55145
844.5516
844.55127
844.55056
844.54977
844.54941
844.549
844.55088
844.55113
844.55136
844.55191
844.55202
844.55162
844.5508
844.54988
844.54969
844.54939
844.5509
844.55136
844.55161
844.55213
844.5522
844.55173
844.55079
844.5497
844.54948
844.54929
844.55145
844.55191
844.55213
844.55261
844.55262
844.55208
844.55105
844.54982
844.54948
844.54919
844.5516
844.55202
844.5522
844.55262
844.55258
844.55198
844.55088
844.54958
844.54916
844.54882
844.55127
844.55162
844.55173
844.55208
844.55198
844.55134
844.5502
844.54886
844.54842
844.54806
844.55056
844.5508
844.55079
844.55105
844.55088
844.5502
844.54904
844.5477
844.54729
844.54698
844.54977
844.54988
844.5497
844.54982
844.54958
844.54886
844.5477
844.54643
844.54613
844.54601
844.54941
844.54969
844.54948
844.54948
844.54916
844.54842
844.54729
844.54613
844.54611
844.54639
844.549
844.54939
844.54929
844.54919
844.54882
844.54806
844.54698
844.54601
844.54639
844.54581
828.50745
828.50795
828.50815
828.50864
828.50872
828.50835
828.5076
828.50674
828.50626
828.5058
828.50795
828.50831
828.50865
828.50913
828.50918
828.50875
828.5079
828.50692
828.50656
828.50616
828.50815
828.50865
828.509
828.50945
828.50946
828.50896
828.508
828.50687
828.50646
828.50614
828.50864
828.50913
828.50945
828.50986
828.50982
828.50926
828.50822
828.50697
828.50645
828.50604
828.50872
828.50918
828.50946
828.50982
828.50973
828.50912
828.50801
828.50669
828.50611
828.50565
828.50835
828.50875
828.50896
828.50926
828.50912
828.50846
828.50732
828.50597
828.50536
828.50489
828.5076
828.5079
828.508
828.50822
828.50801
828.50732
828.50617
828.50482
828.50424
828.5038
828.50674
828.50692
828.50687
828.50697
828.50669
828.50597
828.50482
828.50352
828.50304
828.50277
828.50626
828.50656
828.50646
828.50645
828.50611
828.50536
828.50424
828.50304
828.50281
828.50291
828.5058
828.50616
828.50614
828.50604
828.50565
828.50489
828.5038
828.50277
828.50291
828.50229
812.42088
812.42136
812.42172
812.42215
812.42217
812.42176
812.42099
812.42008
812.41949
812.419
812.42136
812.42182
812.42226
812.42267
812.42266
812.42219
812.42133
812.42031
812.41979
812.41932
812.42172
812.42226
812.42269
812.42307
812.42302
812.42249
812.42154
812.42038
812.41981
812.41936
812.42215
812.42267
812.42307
812.42341
812.42331
812.42274
812.42171
812.42045
812.41978
812.41926
812.42217
812.42266
812.42302
812.42331
812.42318
812.42255
812.42147
812.42015
812.41943
812.41887
812.42176
812.42219
812.42249
812.42274
812.42255
812.42189
812.42078
812.41943
812.41868
812.41812
812.42099
812.42133
812.42154
812.42171
812.42147
812.42078
812.41965
812.4183
812.41758
812.41704
812.42008
812.42031
812.42038
812.42045
812.42015
812.41943
812.4183
812.417
812.41637
812.41597
812.41949
812.41979
812.41981
812.41978
812.41943
812.41868
812.41758
812.41637
812.41594
812.41588
812.419
812.41932
812.41936
812.41926
812.41887
812.41812
812.41704
812.41597
812.41588
812.41522
796.36038
796.36083
796.36134
796.3617
796.36166
796.36121
796.36043
796.3595
796.35882
796.35829
796.36083
796.36138
796.3619
796.36223
796.36216
796.36167
796.36081
796.35977
796.35911
796.35857
796.36134
796.3619
796.3624
796.3627
796.36259
796.36205
796.36111
796.35996
796.35924
796.35868
796.3617
796.36223
796.3627
796.36296
796.36282
796.36223
796.36123
796.35999
796.35919
796.35858
796.36166
796.36216
796.36259
796.36282
796.36263
796.36201
796.36096
796.35967
796.35883
796.35818
796.36121
796.36167
796.36205
796.36223
796.36201
796.36135
796.36028
796.35897
796.3581
796.35745
796.36043
796.36081
796.36111
796.36123
796.36096
796.36028
796.35919
796.35788
796.35703
796.35641
796.3595
796.35977
796.35996
796.35999
796.35967
796.35897
796.35788
796.3566
796.35583
796.35532
796.35882
796.35911
796.35924
796.35919
796.35883
796.3581
796.35703
796.35583
796.35524
796.35502
796.35829
796.35857
796.35868
796.35858
796.35818
796.35745
796.35641
796.35532
796.35502
796.35435
780.3939
780.39431
780.39495
780.39523
780.39513
780.39466
780.39388
780.39294
780.39218
780.39164
780.39431
780.39492
780.39552
780.39577
780.39564
780.39513
780.39428
780.39324
780.39247
780.39187
780.39495
780.39552
780.39607
780.39629
780.39613
780.39558
780.39467
780.39353
780.39269
780.39204
780.39523
780.39577
780.39629
780.39647
780.39628
780.3957
780.39474
780.39353
780.39262
780.39194
780.39513
780.39564
780.39613
780.39628
780.39605
780.39544
780.39444
780.3932
780.39226
780.39155
780.39466
780.39513
780.39558
780.3957
780.39544
780.39479
780.39378
780.39252
780.39156
780.39084
780.39388
780.39428
780.39467
780.39474
780.39444
780.39378
780.39275
780.39149
780.39054
780.38985
780.39294
780.39324
780.39353
780.39353
780.3932
780.39252
780.39149
780.39025
780.38937
780.38877
780.39218
780.39247
780.39269
780.39262
780.39226
780.39156
780.39054
780.38937
780.38863
780.38828
780.39164
780.39187
780.39204
780.39194
780.39155
780.39084
780.38985
780.38877
780.38828
780.3876
764.58736
764.58772
764.58849
764.58869
764.58852
764.58803
764.58727
764.58633
764.58553
764.58498
764.58772
764.5884
764.58905
764.58921
764.58902
764.58851
764.58769
764.58667
764.58579
764.58516
764.58849
764.58905
764.58965
764.58978
764.58957
764.58902
764.58816
764.58706
764.58611
764.58539
764.58869
764.58921
764.58978
764.58988
764.58964
764.58907
764.58816
764.58702
764.58602
764.58528
764.58852
764.58902
764.58957
764.58964
764.58937
764.58877
764.58785
764.58667
764.58566
764.5849
764.58803
764.58851
764.58902
764.58907
764.58877
764.58816
764.58721
764.58602
764.585
764.58423
764.58727
764.58769
764.58816
764.58816
764.58785
764.58721
764.58625
764.58507
764.58405
764.5833
764.58633
764.58667
764.58706
764.58702
764.58667
764.58602
764.58507
764.5839
764.58292
764.58225
764.58553
764.58579
764.58611
764.58602
764.58566
764.585
764.58405
764.58292
764.58206
764.58159
764.58498
764.58516
764.58539
764.58528
764.5849
764.58423
764.5833
764.58225
764.58159
764.58091
749.00449
749.0048
749.00567
749.00578
749.00555
749.00506
749.00431
749.00341
749.00256
749.00202
749.0048
749.00552
749.00622
749.00629
749.00604
749.00553
749.00475
749.00376
749.00281
749.00215
749.00567
749.00622
749.00685
749.00689
749.00662
749.00609
749.00528
749.00424
749.0032
749.00242
749.00578
749.00629
749.00689
749.0069
749.00662
749.00606
749.00523
749.00416
749.0031
749.00232
749.00555
749.00604
749.00662
749.00662
749.00631
749.00574
749.00489
749.00381
749.00274
749.00195
749.00506
749.00553
749.00609
749.00606
749.00574
749.00515
749.00429
749.0032
749.00213
749.00133
749.00431
749.00475
749.00528
749.00523
749.00489
749.00429
749.00343
749.00233
749.00126
749.00048
749.00341
749.00376
749.00424
749.00416
749.00381
749.0032
749.00233
749.00125
749.00021
748.99947
749.00256
749.00281
749.0032
749.0031
749.00274
749.00213
749.00126
749.00021
748.99925
748.99866
749.00202
749.00215
749.00242
749.00232
749.00195
749.00133
749.00048
748.99947
748.99866
748.99801
733.70656
733.70681
733.70777
733.70779
733.70751
733.70701
733.7063
733.70543
733.70457
733.70404
733.70681
733.70757
733.7083
733.70827
733.70797
733.70746
733.70674
733.7058
733.70479
733.70412
733.70777
733.7083
733.70895
733.7089
733.70858
733.70806
733.70732
733.70635
733.70526
733.70444
733.70779
733.70827
733.7089
733.70882
733.70849
733.70796
733.70722
733.70624
733.70514
733.70433
733.70751
733.70797
733.70858
733.70849
733.70816
733.70762
733.70686
733.70588
733.70479
733.70398
733.70701
733.70746
733.70806
733.70796
733.70762
733.70707
733.70631
733.70533
733.70423
733.70342
733.7063
733.70674
733.70732
733.70722
733.70686
733.70631
733.70555
733.70457
733.70347
733.70266
733.70543
733.7058
733.70635
733.70624
733.70588
733.70533
733.70457
733.70358
733.7025
733.70172
733.70457
733.70479
733.70526
733.70514
733.70479
733.70423
733.70347
733.7025
733.70146
733.70078
733.70404
733.70412
733.70444
733.70433
733.70398
733.70342
733.70266
733.70172
733.70078
733.70016
718.75223
718.75241
718.75346
718.75339
718.75304
718.75255
718.75189
718.75107
718.7502
718.7497
718.75241
718.75319
718.75395
718.75383
718.75348
718.75298
718.75232
718.75145
718.75039
718.74972
718.75346
718.75395
718.75462
718.75446
718.75411
718.75361
718.75295
718.75207
718.75093
718.75008
718.75339
718.75383
718.75446
718.7543
718.75393
718.75344
718.75279
718.75192
718.7508
718.74997
718.75304
718.75348
718.75411
718.75393
718.75357
718.75307
718.75242
718.75157
718.75046
718.74965
718.75255
718.75298
718.75361
718.75344
718.75307
718.75258
718.75193
718.75107
718.74997
718.74916
718.75189
718.75232
718.75295
718.75279
718.75242
718.75193
718.75128
718.75042
718.74932
718.7485
718.75107
718.75145
718.75207
718.75192
718.75157
718.75107
718.75042
718.74956
718.74845
718.74764
718.7502
718.75039
718.75093
718.7508
718.75046
718.74997
718.74932
718.74845
718.74736
718.7466
718.7497
718.74972
718.75008
718.74997
718.74965
718.74916
718.7485
718.74764
718.7466
718.74602
704.19735
704.19746
704.19857
704.19841
704.19802
704.19753
704.19693
704.19618
704.19532
704.19486
704.19746
704.19826
704.19903
704.19881
704.19841
704.19794
704.19734
704.19655
704.19548
704.19482
704.19857
704.19903
704.1997
704.19945
704.19905
704.19859
704.19802
704.19724
704.19608
704.19522
704.19841
704.19881
704.19945
704.19919
704.1988
704.19834
704.19779
704.19705
704.19593
704.19511
704.19802
704.19841
704.19905
704.1988
704.1984
704.19796
704.19743
704.1967
704.19561
704.19481
704.19753
704.19794
704.19859
704.19834
704.19796
704.19752
704.197
704.19628
704.1952
704.1944
704.19693
704.19734
704.19802
704.19779
704.19743
704.197
704.19647
704.19576
704.19467
704.19386
704.19618
704.19655
704.19724
704.19705
704.1967
704.19628
704.19576
704.19503
704.19392
704.1931
704.19532
704.19548
704.19608
704.19593
704.19561
704.1952
704.19467
704.19392
704.19279
704.19197
704.19486
704.19482
704.19522
704.19511
704.19481
704.1944
704.19386
704.1931
704.19197
704.19144
690.09481
690.09484
690.09601
690.09575
690.09531
690.09484
690.09431
690.09364
690.0928
690.09239
690.09484
690.09564
690.09641
690.09609
690.09566
690.09521
690.0947
690.094
690.09292
690.09229
690.09601
690.09641
690.09707
690.09673
690.0963
690.09588
690.09541
690.09475
690.09358
690.09272
690.09575
690.09609
690.09673
690.09639
690.09597
690.09556
690.09513
690.09452
690.09342
690.09261
690.09531
690.09566
690.0963
690.09597
690.09555
690.09516
690.09476
690.09419
690.09312
690.09235
690.09484
690.09521
690.09588
690.09556
690.09516
690.09479
690.0944
690.09384
690.09279
690.09202
690.09431
690.0947
690.09541
690.09513
690.09476
690.0944
690.09401
690.09345
690.09239
690.09161
690.09364
690.094
690.09475
690.09452
690.09419
690.09384
690.09345
690.09288
690.09178
690.09096
690.0928
690.09292
690.09358
690.09342
690.09312
690.09279
690.09239
690.09178
690.09063
690.08976
690.09239
690.09229
690.09272
690.09261
690.09235
690.09202
690.09161
690.09096
690.08976
690.08929
676.49434
676.49429
676.4955
676.49516
676.49468
676.49424
676.49378
676.4932
676.4924
676.49204
676.49429
676.49509
676.49585
676.49544
676.49497
676.49456
676.49414
676.49355
676.49247
676.49188
676.4955
676.49585
676.49651
676.49607
676.49561
676.49523
676.49487
676.49434
676.49319
676.49234
676.49516
676.49544
676.49607
676.49564
676.4952
676.49484
676.49454
676.49408
676.49301
676.49223
676.49468
676.49497
676.49561
676.4952
676.49477
676.49444
676.49417
676.49376
676.49274
676.49201
676.49424
676.49456
676.49523
676.49484
676.49444
676.49414
676.49389
676.4935
676.4925
676.49177
676.49378
676.49414
676.49487
676.49454
676.49417
676.49389
676.49365
676.49326
676.49224
676.4915
676.4932
676.49355
676.49434
676.49408
676.49376
676.4935
676.49326
676.49284
676.49178
676.49097
676.4924
676.49247
676.49319
676.49301
676.49274
676.4925
676.49224
676.49178
676.49063
676.48973
676.49204
676.49188
676.49234
676.49223
676.49201
676.49177
676.4915
676.49097
676.48973
676.48933
663.44243
663.44229
663.44354
663.44311
663.44259
663.44218
663.4418
663.44132
663.44057
663.44028
663.44229
663.44307
663.44383
663.44333
663.44282
663.44245
663.44213
663.44166
663.44061
663.44005
663.44354
663.44383
663.44446
663.44394
663.44345
663.44312
663.44288
663.44249
663.44137
663.44054
663.44311
663.44333
663.44394
663.44343
663.44296
663.44267
663.44249
663.4422
663.44118
663.44044
663.44259
663.44282
663.44345
663.44296
663.44252
663.44227
663.44214
663.4419
663.44095
663.44026
663.44218
663.44245
663.44312
663.44267
663.44227
663.44204
663.44194
663.44173
663.4408
663.44012
663.4418
663.44213
663.44288
663.44249
663.44214
663.44194
663.44185
663.44164
663.44069
663.43999
663.44132
663.44166
663.44249
663.4422
663.4419
663.44173
663.44164
663.4414
663.44039
663.4396
663.44057
663.44061
663.44137
663.44118
663.44095
663.4408
663.44069
663.44039
663.43925
663.43833
663.44028
663.44005
663.44054
663.44044
663.44026
663.44012
663.43999
663.4396
663.43833
663.43801
650.98211
650.98189
650.98316
650.98264
650.98209
650.98172
650.98144
650.98107
650.98038
650.98015
650.98189
650.98265
650.98338
650.98279
650.98226
650.98194
650.98173
650.98138
650.98037
650.97987
650.98316
650.98338
650.98399
650.98339
650.98288
650.98261
650.98249
650.98225
650.98117
650.98038
650.98264
650.98279
650.98339
650.98279
650.98232
650.98209
650.98206
650.98193
650.98098
650.98029
650.98209
650.98226
650.98288
650.98232
650.98188
650.9817
650.98172
650.98166
650.98078
650.98015
650.98172
650.98194
650.98261
650.98209
650.9817
650.98156
650.98161
650.98158
650.98073
650.98012
650.98144
650.98173
650.98249
650.98206
650.98172
650.98161
650.98168
650.98165
650.98078
650.98015
650.98107
650.98138
650.98225
650.98193
650.98166
650.98158
650.98165
650.98159
650.98065
650.9799
650.98038
650.98037
650.98117
650.98098
650.98078
650.98073
650.98078
650.98065
650.97955
650.97862
650.98015
650.97987
650.98038
650.98029
650.98015
650.98012
650.98015
650.9799
650.97862
650.97838
639.15289
639.15258
639.15386
639.15326
639.15269
639.15237
639.15219
639.15193
639.15132
639.15117
639.15258
639.1533
639.15402
639.15335
639.1528
639.15253
639.15244
639.15222
639.15127
639.15083
639.15386
639.15402
639.1546
639.15392
639.1534
639.15319
639.1532
639.15312
639.1521
639.15136
639.15326
639.15335
639.15392
639.15325
639.15277
639.15262
639.15273
639.15278
639.15191
639.15128
639.15269
639.1528
639.1534
639.15277
639.15233
639.15223
639.15241
639.15254
639.15175
639.1512
639.15237
639.15253
639.15319
639.15262
639.15223
639.15218
639.1524
639.15257
639.15181
639.15127
639.15219
639.15244
639.1532
639.15273
639.15241
639.1524
639.15263
639.1528
639.15202
639.15146
639.15193
639.15222
639.15312
639.15278
639.15254
639.15257
639.1528
639.15293
639.15206
639.15137
639.15132
639.15127
639.1521
639.15191
639.15175
639.15181
639.15202
639.15206
639.15102
639.15009
639.15117
639.15083
639.15136
639.15128
639.1512
639.15127
639.15146
639.15137
639.15009
639.14994
627.99058
627.99019
627.99148
627.99081
627.99022
627.98995
627.98988
627.98975
627.98922
627.98915
627.99019
627.99088
627.99156
627.99082
627.99026
627.99005
627.99008
627.99001
627.98913
627.98876
627.99148
627.99156
627.99211
627.99136
627.99084
627.9907
627.99085
627.99093
627.98999
627.98931
627.99081
627.99082
627.99136
627.99063
627.99015
627.99008
627.99034
627.99058
627.9898
627.98924
627.99022
627.99026
627.99084
627.99015
627.98972
627.98972
627.99005
627.99037
627.98969
627.98922
627.98995
627.99005
627.9907
627.99008
627.98972
627.98976
627.99014
627.99051
627.98986
627.98941
627.98988
627.99008
627.99085
627.99034
627.99005
627.99014
627.99055
627.99092
627.99024
627.98976
627.98975
627.99001
627.99093
627.99058
627.99037
627.99051
627.99092
627.99124
627.99047
627.98983
627.98922
627.98913
627.98999
627.9898
627.98969
627.98986
627.99024
627.99047
627.98949
627.98857
627.98915
627.98876
627.98931
627.98924
627.98922
627.98941
627.98976
627.98983
627.98857
627.98852
617.52724
617.52676
617.52805
617.52732
617.52672
617.52652
617.52656
617.52657
617.52614
617.52615
617.52676
617.52741
617.52807
617.52726
617.5267
617.52656
617.52672
617.52681
617.526
617.52571
617.52805
617.52807
617.52858
617.52777
617.52725
617.5272
617.52749
617.52774
617.52689
617.52628
617.52732
617.52726
617.52777
617.52698
617.52652
617.52654
617.52695
617.52738
617.52671
617.52623