/*--------------------------------*- C++ -*----------------------------------*\
| =========                 |                                                 |
| \\      /  F ield         | OpenFOAM: The Open Source CFD Toolbox           |
|  \\    /   O peration     | Version:  v2106                                 |
|   \\  /    A nd           | Website:  www.openfoam.com                      |
|    \\/     M anipulation  |                                                 |
\*---------------------------------------------------------------------------*/
FoamFile
{
    version     2.0;
    format      ascii;
    arch        "LSB;label=32;scalar=64";
    class       volVectorField;
    location    "25";
    object      gradT;
}
// * * * * * * * * * * * * * * * * * * * * * * * * * * * * * * * * * * * * * //

dimensions      [0 -1 0 1 0 0 0];

internalField   nonuniform List<vector> 
4000
(
(0.00036062519 0.00036062519 801.2676)
(5.1267499e-05 -1.082875e-05 801.27087)
(-0.00060037554 5.0083645e-05 801.26745)
(-0.00015001183 5.778734e-05 801.26648)
(-3.3575694e-05 5.967578e-05 801.26614)
(4.8058921e-05 6.1711973e-05 801.26619)
(0.0001068913 6.5992941e-05 801.26655)
(0.00012205385 7.6227967e-05 801.2671)
(6.6438253e-05 9.5102964e-05 801.26758)
(5.9651084e-06 9.9451187e-05 801.26761)
(-1.082875e-05 5.1267497e-05 801.27087)
(-0.00041454481 -0.00041454482 801.27091)
(-0.0004974514 -0.00030927239 801.26797)
(-0.00013562363 -0.00029307259 801.26708)
(-2.7688743e-05 -0.00028679461 801.26677)
(5.7534662e-05 -0.00027977668 801.26684)
(0.00012866529 -0.00026647886 801.26726)
(0.00016571888 -0.00023505815 801.26793)
(0.00010127308 -0.0001654206 801.26866)
(1.0313331e-05 -7.7524431e-05 801.2686)
(5.0083646e-05 -0.00060037554 801.26745)
(-0.00030927238 -0.00049745141 801.26797)
(-0.00047890331 -0.00047890332 801.26515)
(-0.00012753405 -0.00047042271 801.2643)
(-2.0279784e-05 -0.00046351891 801.26402)
(6.8374665e-05 -0.00045601375 801.26412)
(0.00015160983 -0.00044489822 801.26459)
(0.00022311211 -0.00042342109 801.26541)
(0.00022397197 -0.0003755854 801.26649)
(6.4562553e-05 -0.00028907976 801.26705)
(5.7787341e-05 -0.00015001182 801.26648)
(-0.00029307258 -0.00013562363 801.26708)
(-0.0004704227 -0.00012753405 801.2643)
(-0.00012023922 -0.00012023922 801.26349)
(-1.3279791e-05 -0.00011356859 801.26323)
(7.6155351e-05 -0.00010695111 801.26337)
(0.00016125796 -9.9549844e-05 801.26387)
(0.0002350317 -9.0862504e-05 801.26473)
(0.00023561441 -8.1422166e-05 801.26588)
(6.7983753e-05 -7.4977286e-05 801.2665)
(5.9675775e-05 -3.357569e-05 801.26614)
(-0.00028679461 -2.7688739e-05 801.26677)
(-0.0004635189 -2.0279781e-05 801.26402)
(-0.00011356859 -1.327979e-05 801.26323)
(-6.9916762e-06 -6.9916763e-06 801.263)
(8.2393407e-05 -1.2547787e-06 801.26316)
(0.00016769844 4.2682984e-06 801.26369)
(0.00024123979 9.6211284e-06 801.26458)
(0.00023985719 1.4149617e-05 801.26575)
(6.885914e-05 1.6225625e-05 801.26638)
(6.1711974e-05 4.8058917e-05 801.26619)
(-0.00027977668 5.753467e-05 801.26684)
(-0.00045601375 6.837466e-05 801.26412)
(-0.00010695111 7.6155347e-05 801.26337)
(-1.2547798e-06 8.239341e-05 801.26316)
(8.7415326e-05 8.7415322e-05 801.26335)
(0.00017213387 9.1488153e-05 801.2639)
(0.00024491302 9.4666754e-05 801.2648)
(0.0002422189 9.6753472e-05 801.26599)
(6.9367759e-05 9.7571028e-05 801.26663)
(6.5992944e-05 0.00010689131 801.26655)
(-0.00026647887 0.00012866529 801.26726)
(-0.00044489823 0.00015160983 801.26459)
(-9.9549837e-05 0.00016125796 801.26387)
(4.2682984e-06 0.00016769844 801.26369)
(9.148815e-05 0.00017213386 801.2639)
(0.00017494987 0.00017494987 801.26446)
(0.00024650511 0.00017616394 801.26537)
(0.00024276146 0.00017570139 801.26656)
(6.9404177e-05 0.00017441944 801.2672)
(7.6227959e-05 0.00012205385 801.2671)
(-0.00023505816 0.00016571888 801.26793)
(-0.00042342108 0.00022311212 801.26541)
(-9.0862497e-05 0.0002350317 801.26473)
(9.6211216e-06 0.00024123978 801.26458)
(9.4666749e-05 0.00024491302 801.2648)
(0.00017616394 0.00024650511 801.26537)
(0.00024566455 0.00024566455 801.26629)
(0.00024047441 0.00024157757 801.26747)
(6.8513126e-05 0.00023549507 801.2681)
(9.5102965e-05 6.6438248e-05 801.26758)
(-0.0001654206 0.00010127309 801.26866)
(-0.0003755854 0.00022397198 801.26649)
(-8.1422171e-05 0.0002356144 801.26588)
(1.4149619e-05 0.00023985719 801.26575)
(9.6753473e-05 0.0002422189 801.26599)
(0.00017570139 0.00024276147 801.26656)
(0.00024157758 0.00024047441 801.26747)
(0.00023259199 0.000232592 801.26862)
(6.5349175e-05 0.00021729597 801.26921)
(9.9451188e-05 5.9651074e-06 801.26761)
(-7.7524427e-05 1.0313331e-05 801.2686)
(-0.00028907977 6.4562553e-05 801.26705)
(-7.4977285e-05 6.7983753e-05 801.2665)
(1.6225624e-05 6.8859144e-05 801.26638)
(9.7571026e-05 6.9367757e-05 801.26663)
(0.00017441945 6.9404181e-05 801.2672)
(0.00023549508 6.8513128e-05 801.2681)
(0.00021729596 6.5349178e-05 801.26921)
(5.8315775e-05 5.8315778e-05 801.26967)
(0.0021899473 0.0021899473 1606.838)
(-0.00037243487 7.3412453e-05 1606.8411)
(-0.004779566 0.00037149737 1606.8358)
(-0.0015133531 0.00042899972 1606.834)
(-0.00033375554 0.00044740951 1606.8334)
(0.00046763469 0.00046684551 1606.8336)
(0.0010374483 0.00050787365 1606.8344)
(0.0011826583 0.00060897532 1606.8356)
(0.00056371355 0.00079720121 1606.8367)
(5.5040857e-06 0.00069936444 1606.8361)
(7.3412455e-05 -0.00037243488 1606.8411)
(-0.0031001097 -0.0031001097 1606.8404)
(-0.0042461851 -0.0025279377 1606.8357)
(-0.0013994849 -0.0023908489 1606.834)
(-0.00027698686 -0.0023292071 1606.8335)
(0.00055833091 -0.0022627104 1606.8337)
(0.001250643 -0.0021365485 1606.8345)
(0.0016166497 -0.0018308832 1606.836)
(0.00069929724 -0.0011422474 1606.8379)
(-9.2332675e-05 -0.00060204304 1606.8374)
(0.00037149737 -0.004779566 1606.8358)
(-0.0025279377 -0.0042461851 1606.8357)
(-0.0040703052 -0.0040703052 1606.8312)
(-0.0013146224 -0.0039808154 1606.8296)
(-0.00020561704 -0.003913743 1606.8291)
(0.00066029324 -0.0038431256 1606.8293)
(0.0014692755 -0.0037388285 1606.8303)
(0.0021769594 -0.0035328031 1606.832)
(0.0017925538 -0.0030525043 1606.8345)
(0.00036564033 -0.0022897043 1606.8351)
(0.00042899972 -0.001513353 1606.834)
(-0.0023908489 -0.0013994848 1606.834)
(-0.0039808154 -0.0013146224 1606.8296)
(-0.0012429227 -0.0012429227 1606.8281)
(-0.00013929703 -0.0011795428 1606.8276)
(0.00073324538 -0.0011173522 1606.8279)
(0.0015609655 -0.0010480715 1606.829)
(0.0023029739 -0.00096538917 1606.8308)
(0.0019423961 -0.00086260896 1606.8334)
(0.00041620067 -0.00077167251 1606.8341)
(0.0004474095 -0.00033375553 1606.8334)
(-0.0023292071 -0.00027698685 1606.8335)
(-0.003913743 -0.00020561705 1606.8291)
(-0.0011795428 -0.00013929704 1606.8276)
(-8.0046584e-05 -8.0046582e-05 1606.8272)
(0.00079176455 -2.6098568e-05 1606.8276)
(0.0016212385 2.5701199e-05 1606.8287)
(0.002362422 7.5815596e-05 1606.8305)
(0.0019862704 0.00011962395 1606.8332)
(0.00042626463 0.00014178525 1606.8339)
(0.00046684551 0.00046763468 1606.8336)
(-0.0022627104 0.00055833091 1606.8337)
(-0.0038431256 0.00066029324 1606.8293)
(-0.0011173522 0.00073324538 1606.8279)
(-2.6098564e-05 0.00079176455 1606.8276)
(0.00083899316 0.00083899316 1606.828)
(0.0016628797 0.00087736383 1606.8291)
(0.0023968967 0.00090729168 1606.831)
(0.0020083658 0.00092699455 1606.8337)
(0.00043097487 0.00093464211 1606.8344)
(0.00050787365 0.0010374483 1606.8344)
(-0.0021365485 0.001250643 1606.8345)
(-0.0037388285 0.0014692755 1606.8303)
(-0.0010480715 0.0015609655 1606.829)
(2.5701192e-05 0.0016212385 1606.8287)
(0.00087736383 0.0016628797 1606.8291)
(0.001689537 0.001689537 1606.8302)
(0.0024120527 0.0017011626 1606.8321)
(0.0020136208 0.0016967269 1606.8348)
(0.000431363 0.0016842933 1606.8356)
(0.00060897532 0.0011826583 1606.8356)
(-0.0018308832 0.0016166497 1606.836)
(-0.0035328031 0.0021769594 1606.832)
(-0.00096538918 0.0023029739 1606.8308)
(7.5815598e-05 0.002362422 1606.8305)
(0.00090729169 0.0023968967 1606.831)
(0.0017011626 0.0024120527 1606.8321)
(0.0024040865 0.0024040865 1606.834)
(0.0019914965 0.0023633498 1606.8367)
(0.00042268585 0.0022984934 1606.8374)
(0.00079720121 0.00056371355 1606.8367)
(-0.0011422474 0.00069929724 1606.8379)
(-0.0030525043 0.0017925538 1606.8345)
(-0.00086260897 0.0019423961 1606.8334)
(0.00011962396 0.0019862704 1606.8332)
(0.00092699455 0.0020083658 1606.8337)
(0.0016967269 0.0020136208 1606.8348)
(0.0023633498 0.0019914965 1606.8367)
(0.0019080277 0.0019080277 1606.8393)
(0.00038812539 0.0017132601 1606.8399)
(0.00069936445 5.5040804e-06 1606.8361)
(-0.00060204304 -9.2332679e-05 1606.8374)
(-0.0022897043 0.00036564033 1606.8351)
(-0.00077167251 0.00041620067 1606.8341)
(0.00014178525 0.00042626463 1606.8339)
(0.00093464211 0.00043097487 1606.8344)
(0.0016842933 0.000431363 1606.8356)
(0.0022984934 0.00042268586 1606.8374)
(0.0017132601 0.00038812539 1606.8399)
(0.00029284076 0.00029284076 1606.8398)
(0.0024163189 0.0024163189 1517.0604)
(-0.0021231729 -0.00045935545 1517.0606)
(-0.0076306631 -3.4052128e-05 1517.0568)
(-0.0025273491 5.4536163e-05 1517.0555)
(-0.00048977815 8.4959955e-05 1517.0551)
(0.00096331586 0.00011699555 1517.0554)
(0.0020680277 0.0001893607 1517.0562)
(0.0024194482 0.00039902967 1517.0576)
(0.00066433837 0.00091028677 1517.0592)
(-0.00033055925 0.00093760002 1517.0586)
(-0.00045935545 -0.0021231729 1517.0606)
(-0.0057987295 -0.0057987295 1517.059)
(-0.0068598257 -0.0049606606 1517.0555)
(-0.002348831 -0.0047402923 1517.0543)
(-0.00039608907 -0.0046364941 1517.054)
(0.001119917 -0.0045274995 1517.0543)
(0.0024910789 -0.0043169852 1517.0552)
(0.0035008373 -0.0037544759 1517.0569)
(0.0014721939 -0.0022872087 1517.0594)
(-0.000303246 -0.0011308082 1517.0591)
(-3.405213e-05 -0.0076306631 1517.0568)
(-0.0049606606 -0.0068598257 1517.0555)
(-0.0065722259 -0.0065722259 1517.0523)
(-0.0022031826 -0.006417201 1517.0511)
(-0.0002769854 -0.0063022691 1517.0508)
(0.0012828248 -0.0061857146 1517.0512)
(0.0028410514 -0.0060193695 1517.0521)
(0.0044492248 -0.0056877089 1517.054)
(0.0032880061 -0.0048566298 1517.057)
(0.00044037441 -0.0036037211 1517.0576)
(5.4536159e-05 -0.0025273491 1517.0555)
(-0.0047402923 -0.002348831 1517.0543)
(-0.006417201 -0.0022031826 1517.0511)
(-0.0020788742 -0.0020788742 1517.0501)
(-0.00016460271 -0.0019703038 1517.0498)
(0.0014028166 -0.0018658512 1517.0502)
(0.0029890846 -0.0017521523 1517.0512)
(0.004663577 -0.0016179046 1517.053)
(0.0035561818 -0.0014379777 1517.0562)
(0.00053202653 -0.0012733726 1517.0568)
(8.4959952e-05 -0.00048977815 1517.0551)
(-0.0046364941 -0.00039608907 1517.054)
(-0.0063022691 -0.00027698539 1517.0508)
(-0.0019703038 -0.00016460271 1517.0498)
(-6.3962457e-05 -6.3962452e-05 1517.0496)
(0.0015009762 2.73322e-05 1517.05)
(0.003088998 0.00011437186 1517.051)
(0.0047633994 0.00019808165 1517.0529)
(0.0036325381 0.00027334719 1517.0561)
(0.00055011118 0.00031307256 1517.0567)
(0.00011699555 0.00096331585 1517.0554)
(-0.0045274995 0.001119917 1517.0543)
(-0.0061857146 0.0012828248 1517.0512)
(-0.0018658512 0.0014028166 1517.0502)
(2.7332199e-05 0.0015009762 1517.05)
(0.0015811509 0.0015811509 1517.0504)
(0.0031598341 0.0016470259 1517.0514)
(0.0048225523 0.0016991265 1517.0534)
(0.0036711727 0.0017345447 1517.0565)
(0.00055851011 0.0017498343 1517.0572)
(0.0001893607 0.0020680277 1517.0562)
(-0.0043169852 0.0024910789 1517.0552)
(-0.0060193695 0.0028410514 1517.0521)
(-0.0017521524 0.0029890846 1517.0512)
(0.00011437186 0.003088998 1517.051)
(0.0016470259 0.0031598341 1517.0514)
(0.0032069736 0.0032069736 1517.0525)
(0.0048509182 0.003229514 1517.0545)
(0.0036832459 0.0032235515 1517.0577)
(0.00056030424 0.0032021123 1517.0584)
(0.00039902966 0.0024194482 1517.0576)
(-0.0037544759 0.0035008373 1517.0569)
(-0.0056877089 0.0044492248 1517.054)
(-0.0016179046 0.004663577 1517.053)
(0.00019808165 0.0047633994 1517.0529)
(0.0016991265 0.0048225523 1517.0534)
(0.003229514 0.0048509182 1517.0545)
(0.0048391302 0.0048391302 1517.0564)
(0.003643771 0.004755799 1517.0596)
(0.00054421727 0.004583948 1517.0603)
(0.00091028676 0.00066433836 1517.0592)
(-0.0022872087 0.0014721939 1517.0594)
(-0.0048566298 0.0032880061 1517.057)
(-0.0014379777 0.0035561818 1517.0562)
(0.00027334718 0.0036325381 1517.0561)
(0.0017345447 0.0036711727 1517.0565)
(0.0032235515 0.0036832459 1517.0577)
(0.004755799 0.003643771 1517.0596)
(0.0034280636 0.0034280636 1517.0628)
(0.00044573688 0.0025558778 1517.0633)
(0.00093760003 -0.00033055926 1517.0586)
(-0.0011308082 -0.000303246 1517.0591)
(-0.0036037211 0.00044037441 1517.0576)
(-0.0012733726 0.00053202652 1517.0568)
(0.00031307256 0.00055011118 1517.0567)
(0.0017498343 0.00055851011 1517.0572)
(0.0032021123 0.00056030424 1517.0584)
(0.004583948 0.00054421727 1517.0603)
(0.0025558778 0.00044573688 1517.0633)
(-3.7239967e-05 -3.7239967e-05 1517.0623)
(0.0023612543 0.0023612543 1435.9017)
(-0.0039228197 -0.0010356837 1435.9014)
(-0.0098841009 -0.00047312416 1435.8983)
(-0.0031938551 -0.00035557925 1435.8974)
(-0.00045889142 -0.00031652096 1435.8972)
(0.0015711164 -0.00027833423 1435.8976)
(0.003265871 -0.00018939639 1435.8985)
(0.0041389177 9.8782181e-05 1435.9)
(0.0015835691 0.00090397295 1435.9021)
(-0.00036335344 0.0010301157 1435.9022)
(-0.0010356837 -0.0039228197 1435.9014)
(-0.0081743873 -0.0081743873 1435.8997)
(-0.0088639443 -0.0070571773 1435.897)
(-0.0029589503 -0.0067615203 1435.8962)
(-0.0003430239 -0.0066269786 1435.896)
(0.0017618033 -0.0064952324 1435.8964)
(0.0038315456 -0.0062407722 1435.8974)
(0.0057789717 -0.0054987543 1435.8991)
(0.0029805693 -0.0033401679 1435.902)
(-0.00023721073 -0.0016824266 1435.9024)
(-0.00047312417 -0.0098841009 1435.8983)
(-0.0070571773 -0.0088639443 1435.897)
(-0.0084712339 -0.0084712339 1435.8944)
(-0.0027636564 -0.0082610233 1435.8936)
(-0.00019260357 -0.0081111322 1435.8935)
(0.0019573228 -0.0079673944 1435.8939)
(0.0042623491 -0.007769882 1435.8949)
(0.0070395219 -0.0073626482 1435.8967)
(0.0053998967 -0.006242982 1435.9)
(0.00074180742 -0.0045933755 1435.9012)
(-0.00035557925 -0.0031938551 1435.8974)
(-0.0067615203 -0.0029589503 1435.8962)
(-0.0082610233 -0.0027636564 1435.8936)
(-0.0025988487 -0.0025988487 1435.8929)
(-4.9395046e-05 -0.0024582673 1435.8929)
(0.0021030535 -0.0023273459 1435.8933)
(0.0044362918 -0.0021900854 1435.8943)
(0.0073058717 -0.002031554 1435.8961)
(0.005749842 -0.0018016437 1435.8995)
(0.00086252694 -0.0015871482 1435.9007)
(-0.00031652096 -0.00045889142 1435.8972)
(-0.0066269786 -0.0003430239 1435.896)
(-0.0081111322 -0.00019260357 1435.8935)
(-0.0024582673 -4.9395039e-05 1435.8929)
(7.8899201e-05 7.889921e-05 1435.8928)
(0.0022255047 0.00019450553 1435.8933)
(0.004558141 0.00030346673 1435.8943)
(0.0074279636 0.00040706197 1435.8961)
(0.0058443025 0.00050236768 1435.8995)
(0.00088480443 0.00055292346 1435.9007)
(-0.00027833423 0.0015711164 1435.8976)
(-0.0064952324 0.0017618033 1435.8964)
(-0.0079673944 0.0019573228 1435.8939)
(-0.0023273459 0.0021030535 1435.8933)
(0.00019450552 0.0022255047 1435.8933)
(0.002327621 0.002327621 1435.8937)
(0.0046488483 0.0024134244 1435.8947)
(0.0075047726 0.0024835743 1435.8966)
(0.0058957035 0.0025348146 1435.9)
(0.00089623079 0.0025614192 1435.9012)
(-0.00018939639 0.0032658709 1435.8985)
(-0.0062407722 0.0038315456 1435.8974)
(-0.007769882 0.0042623491 1435.8949)
(-0.0021900854 0.0044362918 1435.8943)
(0.00030346673 0.004558141 1435.8943)
(0.0024134244 0.0046488483 1435.8947)
(0.0047140943 0.0047140943 1435.8957)
(0.0075493538 0.0047528141 1435.8976)
(0.0059221475 0.004759475 1435.901)
(0.00090254085 0.0047497276 1435.9023)
(9.8782186e-05 0.0041389177 1435.9)
(-0.0054987543 0.0057789717 1435.8991)
(-0.0073626482 0.0070395219 1435.8967)
(-0.002031554 0.0073058717 1435.8961)
(0.00040706196 0.0074279636 1435.8961)
(0.0024835743 0.0075047726 1435.8966)
(0.0047528142 0.0075493538 1435.8976)
(0.0075501534 0.0075501534 1435.8995)
(0.0058926169 0.0074570392 1435.9029)
(0.0008897325 0.007207416 1435.9042)
(0.00090397295 0.0015835691 1435.9021)
(-0.0033401679 0.0029805693 1435.902)
(-0.006242982 0.0053998967 1435.9)
(-0.0018016437 0.005749842 1435.8995)
(0.00050236768 0.0058443025 1435.8995)
(0.0025348146 0.0058957035 1435.9)
(0.004759475 0.0059221475 1435.901)
(0.0074570392 0.0058926169 1435.9029)
(0.0055794101 0.0055794101 1435.9064)
(0.00073612538 0.0036578403 1435.9076)
(0.0010301157 -0.00036335344 1435.9022)
(-0.0016824266 -0.00023721074 1435.9024)
(-0.0045933755 0.00074180742 1435.9012)
(-0.0015871482 0.00086252693 1435.9007)
(0.00055292346 0.00088480443 1435.9007)
(0.0025614192 0.00089623079 1435.9012)
(0.0047497276 0.00090254085 1435.9023)
(0.007207416 0.0008897325 1435.9042)
(0.0036578403 0.00073612538 1435.9076)
(-0.00039131408 -0.00039131408 1435.9067)
(0.0022000467 0.0022000467 1361.7027)
(-0.005618685 -0.0016090771 1361.7021)
(-0.01168301 -0.00089908378 1361.6995)
(-0.0035546009 -0.00075243239 1361.699)
(-0.00026166557 -0.00070726317 1361.699)
(0.0022434921 -0.0006682009 1361.6995)
(0.0044882546 -0.00057383272 1361.7004)
(0.0059711431 -0.00022925894 1361.7019)
(0.0028827428 0.00083931543 1361.704)
(-0.00020997185 0.0010665637 1361.7046)
(-0.0016090771 -0.005618685 1361.7021)
(-0.010267381 -0.010267381 1361.7005)
(-0.010398043 -0.0088527133 1361.6983)
(-0.0032668699 -0.0084841684 1361.6978)
(-0.00013531834 -0.0083283316 1361.6979)
(0.0024436377 -0.0081912968 1361.6984)
(0.0051466676 -0.0079264054 1361.6993)
(0.0080908653 -0.0070672118 1361.7009)
(0.0048264769 -0.0043070328 1361.7037)
(1.7276462e-05 -0.0021973099 1361.7046)
(-0.00089908377 -0.01168301 1361.6995)
(-0.0088527133 -0.010398043 1361.6983)
(-0.0098997981 -0.0098997981 1361.6962)
(-0.0030302192 -0.0096417845 1361.6958)
(3.1206023e-05 -0.0094690542 1361.6959)
(0.0026454183 -0.009316486 1361.6964)
(0.0056123396 -0.0091173009 1361.6973)
(0.0095905156 -0.0086816402 1361.6989)
(0.0077526447 -0.0073383424 1361.7021)
(0.0011965101 -0.0053638501 1361.7036)
(-0.00075243239 -0.0035546008 1361.699)
(-0.0084841684 -0.0032668699 1361.6978)
(-0.0096417845 -0.0030302192 1361.6958)
(-0.002836126 -0.002836126 1361.6955)
(0.00018998019 -0.002676826 1361.6956)
(0.0027953911 -0.0025356926 1361.696)
(0.0057815133 -0.0023961866 1361.6969)
(0.0098698238 -0.0022413521 1361.6986)
(0.008144267 -0.0019923957 1361.7018)
(0.0013336046 -0.0017542306 1361.7033)
(-0.00070726316 -0.00026166556 1361.699)
(-0.0083283316 -0.00013531834 1361.6979)
(-0.0094690542 3.120602e-05 1361.6959)
(-0.002676826 0.00018998019 1361.6956)
(0.0003316395 0.0003316395 1361.6957)
(0.0029260577 0.00045783175 1361.6962)
(0.0059066801 0.00057473025 1361.697)
(0.0099943065 0.00068375305 1361.6987)
(0.0082397662 0.00078612008 1361.7019)
(0.0013552868 0.0008389134 1361.7034)
(-0.00066820091 0.0022434921 1361.6995)
(-0.0081912968 0.0024436377 1361.6984)
(-0.009316486 0.0026454183 1361.6964)
(-0.0025356926 0.0027953911 1361.696)
(0.00045783175 0.0029260577 1361.6962)
(0.0030384818 0.0030384818 1361.6966)
(0.0060074346 0.0031363316 1361.6975)
(0.010081214 0.0032204619 1361.6991)
(0.0082994273 0.0032878253 1361.7024)
(0.0013688002 0.0033293468 1361.7039)
(-0.00057383272 0.0044882546 1361.7004)
(-0.0079264054 0.0051466676 1361.6993)
(-0.0091173009 0.0056123396 1361.6973)
(-0.0023961866 0.0057815133 1361.6969)
(0.00057473025 0.0059066801 1361.697)
(0.0031363316 0.0060074346 1361.6975)
(0.0060886602 0.0060886602 1361.6984)
(0.0101458 0.0061501542 1361.7)
(0.0083486511 0.0061866191 1361.7033)
(0.0013829678 0.0062140174 1361.7048)
(-0.00022925894 0.0059711431 1361.7019)
(-0.0070672118 0.0080908653 1361.7009)
(-0.0086816402 0.0095905157 1361.6989)
(-0.0022413521 0.0098698238 1361.6986)
(0.00068375305 0.0099943065 1361.6987)
(0.0032204619 0.010081214 1361.6991)
(0.0061501542 0.0101458 1361.7)
(0.010179173 0.010179173 1361.7017)
(0.0083632905 0.010122946 1361.705)
(0.0013870657 0.0098718402 1361.7066)
(0.00083931543 0.0028827428 1361.704)
(-0.0043070328 0.0048264769 1361.7037)
(-0.0073383424 0.0077526447 1361.7021)
(-0.0019923957 0.0081442669 1361.7018)
(0.00078612008 0.0082397662 1361.7019)
(0.0032878252 0.0082994273 1361.7024)
(0.0061866191 0.0083486511 1361.7033)
(0.010122946 0.0083632905 1361.705)
(0.0080413186 0.0080413186 1361.7084)
(0.0012155637 0.0050926607 1361.71)
(0.0010665637 -0.00020997185 1361.7046)
(-0.0021973099 1.7276465e-05 1361.7046)
(-0.0053638501 0.0011965101 1361.7036)
(-0.0017542306 0.0013336046 1361.7033)
(0.0008389134 0.0013552868 1361.7034)
(0.0033293468 0.0013688002 1361.7039)
(0.0062140175 0.0013829678 1361.7048)
(0.0098718402 0.0013870657 1361.7066)
(0.0050926607 0.0012155637 1361.71)
(-0.00057870624 -0.00057870623 1361.7097)
(0.0019925672 0.0019925672 1293.2534)
(-0.0071311315 -0.0021467072 1293.2528)
(-0.013058851 -0.0012868189 1293.2506)
(-0.0036482182 -0.0011120044 1293.2504)
(6.4898252e-05 -0.0010631547 1293.2507)
(0.002928788 -0.0010278541 1293.2512)
(0.0056417168 -0.00093758255 1293.252)
(0.0077295511 -0.00055604808 1293.2534)
(0.0042936826 0.0007437657 1293.2554)
(3.420566e-05 0.0010800498 1293.2561)
(-0.0021467072 -0.0071311315 1293.2528)
(-0.012050211 -0.012050211 1293.2513)
(-0.011506796 -0.010334698 1293.2496)
(-0.0033127218 -0.0098978552 1293.2495)
(0.00019112366 -0.0097298271 1293.2497)
(0.0031171462 -0.0096032797 1293.2502)
(0.0063494259 -0.0093574751 1293.251)
(0.010251573 -0.0084371765 1293.2524)
(0.0067478294 -0.005168168 1293.2551)
(0.00037048974 -0.0026405327 1293.2562)
(-0.0012868189 -0.013058851 1293.2506)
(-0.010334698 -0.011506796 1293.2496)
(-0.010906495 -0.010906495 1293.248)
(-0.003043347 -0.010608644 1293.248)
(0.00035947376 -0.010424815 1293.2482)
(0.00330114 -0.010280628 1293.2487)
(0.00680782 -0.01010687 1293.2494)
(0.011918858 -0.0096864896 1293.2508)
(0.010090326 -0.0081848488 1293.2538)
(0.0017192959 -0.0059490291 1293.2553)
(-0.0011120044 -0.0036482182 1293.2504)
(-0.0098978552 -0.0033127218 1293.2495)
(-0.010608644 -0.003043347 1293.248)
(-0.002831042 -0.002831042 1293.2479)
(0.0005191394 -0.0026660019 1293.2482)
(0.0034350914 -0.0025303216 1293.2486)
(0.0069435645 -0.0024087689 1293.2493)
(0.012173595 -0.0022840378 1293.2507)
(0.01048529 -0.0020465826 1293.2536)
(0.0018610362 -0.0018094475 1293.2552)
(-0.0010631547 6.4898267e-05 1293.2507)
(-0.0097298271 0.00019112366 1293.2497)
(-0.010424815 0.00035947377 1293.2482)
(-0.0026660018 0.0005191394 1293.2482)
(0.00066019414 0.00066019413 1293.2484)
(0.003558373 0.00078350994 1293.2489)
(0.0070541039 0.00089472403 1293.2496)
(0.012281044 0.0009951308 1293.2509)
(0.010564917 0.0010915406 1293.2538)
(0.001877386 0.0011378147 1293.2553)
(-0.0010278541 0.002928788 1293.2512)
(-0.0096032797 0.0031171462 1293.2502)
(-0.010280628 0.00330114 1293.2487)
(-0.0025303216 0.0034350915 1293.2486)
(0.00078350994 0.0035583729 1293.2489)
(0.0036696214 0.0036696213 1293.2493)
(0.0071551854 0.0037716667 1293.25)
(0.012370411 0.0038655856 1293.2513)
(0.010627974 0.003948798 1293.2542)
(0.0018918856 0.0040076478 1293.2557)
(-0.00093758255 0.0056417168 1293.252)
(-0.0093574752 0.0063494259 1293.251)
(-0.01010687 0.00680782 1293.2494)
(-0.0024087689 0.0069435645 1293.2493)
(0.00089472404 0.0070541039 1293.2496)
(0.0037716667 0.0071551854 1293.25)
(0.0072500681 0.0072500681 1293.2507)
(0.012458176 0.0073402457 1293.2521)
(0.010706979 0.0074217458 1293.255)
(0.0019166192 0.0075071791 1293.2565)
(-0.00055604809 0.0077295511 1293.2534)
(-0.0084371765 0.010251573 1293.2524)
(-0.0096864896 0.011918858 1293.2508)
(-0.0022840378 0.012173595 1293.2507)
(0.0009951308 0.012281044 1293.2509)
(0.0038655856 0.012370411 1293.2513)
(0.0073402457 0.012458176 1293.2521)
(0.012542089 0.012542089 1293.2534)
(0.010794907 0.012563931 1293.2564)
(0.0019488411 0.012377953 1293.2581)
(0.0007437657 0.0042936826 1293.2554)
(-0.005168168 0.0067478294 1293.2551)
(-0.0081848488 0.010090326 1293.2538)
(-0.0020465826 0.01048529 1293.2536)
(0.0010915406 0.010564917 1293.2538)
(0.003948798 0.010627974 1293.2542)
(0.0074217458 0.010706979 1293.255)
(0.012563931 0.010794907 1293.2564)
(0.010542843 0.010542843 1293.2595)
(0.0017926338 0.0066969785 1293.2613)
(0.0010800498 3.4205661e-05 1293.2561)
(-0.0026405327 0.00037048974 1293.2562)
(-0.0059490291 0.0017192959 1293.2553)
(-0.0018094475 0.0018610362 1293.2552)
(0.0011378147 0.001877386 1293.2553)
(0.0040076478 0.0018918856 1293.2557)
(0.0075071791 0.0019166192 1293.2565)
(0.012377953 0.0019488411 1293.2581)
(0.0066969785 0.0017926338 1293.2613)
(-0.00061506853 -0.00061506853 1293.2613)
(0.0017802029 0.0017802029 1229.6521)
(-0.0083991242 -0.0026193311 1229.6515)
(-0.014030962 -0.00161256 1229.6499)
(-0.0035122405 -0.0014116871 1229.65)
(0.00048055415 -0.0013616243 1229.6503)
(0.0035781418 -0.0013342169 1229.6509)
(0.0066556871 -0.0012564141 1229.6516)
(0.0093006569 -0.0008558287 1229.6527)
(0.0056554255 0.00064149938 1229.6545)
(0.00030905014 0.0010882719 1229.6553)
(-0.0026193311 -0.0083991242 1229.6515)
(-0.013488269 -0.013488269 1229.6502)
(-0.012219496 -0.011480133 1229.649)
(-0.003135837 -0.010982311 1229.6492)
(0.00059675934 -0.01081116 1229.6496)
(0.0037359571 -0.010709255 1229.65)
(0.0073732694 -0.010508482 1229.6507)
(0.012147527 -0.0095780168 1229.6519)
(0.0085715764 -0.0058935895 1229.6542)
(0.00075582267 -0.0029895912 1229.6553)
(-0.00161256 -0.014030962 1229.6499)
(-0.011480133 -0.012219496 1229.649)
(-0.011525005 -0.011525005 1229.6479)
(-0.0028432673 -0.011196529 1229.6481)
(0.00075360986 -0.011013015 1229.6485)
(0.0038808193 -0.010892871 1229.649)
(0.0077869257 -0.010768518 1229.6496)
(0.013915549 -0.010402329 1229.6507)
(0.012243851 -0.0088040559 1229.6532)
(0.002245049 -0.0063663355 1229.6547)
(-0.0014116871 -0.0035122405 1229.65)
(-0.010982311 -0.003135837 1229.6492)
(-0.011196529 -0.0028432673 1229.6481)
(-0.0026238474 -0.0026238474 1229.6483)
(0.0009004176 -0.0024654601 1229.6487)
(0.0039804545 -0.0023497222 1229.6491)
(0.0078638116 -0.0022643533 1229.6497)
(0.014111989 -0.0021932903 1229.6507)
(0.01260757 -0.0019952077 1229.6531)
(0.0023809696 -0.0017812202 1229.6546)
(-0.0013616242 0.00048055416 1229.6503)
(-0.01081116 0.00059675935 1229.6496)
(-0.011013015 0.00075360986 1229.6485)
(-0.0024654601 0.00090041761 1229.6487)
(0.001027735 0.001027735 1229.6491)
(0.0040819261 0.0011355588 1229.6495)
(0.0079433576 0.0012284397 1229.65)
(0.014184695 0.0013072843 1229.6509)
(0.012655921 0.0013855925 1229.6533)
(0.0023877073 0.0014172198 1229.6548)
(-0.0013342169 0.0035781418 1229.6509)
(-0.010709255 0.0037359571 1229.65)
(-0.010892871 0.0038808193 1229.649)
(-0.0023497222 0.0039804545 1229.6491)
(0.0011355588 0.0040819261 1229.6495)
(0.0041811591 0.0041811591 1229.6498)
(0.0080355372 0.0042798028 1229.6503)
(0.014269142 0.0043791514 1229.6513)
(0.012717505 0.0044772115 1229.6537)
(0.0024020544 0.004554722 1229.6551)
(-0.0012564141 0.0066556871 1229.6516)
(-0.010508482 0.0073732694 1229.6507)
(-0.010768518 0.0077869257 1229.6496)
(-0.0022643533 0.0078638116 1229.6497)
(0.0012284397 0.0079433576 1229.65)
(0.0042798028 0.0080355371 1229.6503)
(0.0081413499 0.0081413499 1229.6508)
(0.014382104 0.008264603 1229.6518)
(0.012831492 0.0084032842 1229.6542)
(0.002439381 0.0085630228 1229.6557)
(-0.0008558287 0.0093006569 1229.6527)
(-0.0095780168 0.012147527 1229.6519)
(-0.010402329 0.013915549 1229.6507)
(-0.0021932903 0.014111989 1229.6507)
(0.0013072843 0.014184695 1229.6509)
(0.0043791514 0.014269142 1229.6513)
(0.008264603 0.014382104 1229.6518)
(0.014531076 0.014531076 1229.6528)
(0.013015925 0.014664591 1229.6553)
(0.0025085469 0.014597963 1229.657)
(0.00064149938 0.0056554255 1229.6545)
(-0.0058935895 0.0085715764 1229.6542)
(-0.0088040559 0.012243851 1229.6532)
(-0.0019952077 0.01260757 1229.6531)
(0.0013855925 0.012655921 1229.6533)
(0.0044772115 0.012717505 1229.6537)
(0.0084032842 0.012831492 1229.6542)
(0.014664591 0.013015925 1229.6553)
(0.012898379 0.012898379 1229.658)
(0.0023949623 0.0083022355 1229.6598)
(0.0010882719 0.00030905014 1229.6553)
(-0.0029895912 0.00075582268 1229.6553)
(-0.0063663355 0.002245049 1229.6547)
(-0.0017812202 0.0023809696 1229.6546)
(0.0014172198 0.0023877073 1229.6548)
(0.004554722 0.0024020544 1229.6551)
(0.0085630228 0.0024393809 1229.6557)
(0.014597963 0.0025085469 1229.657)
(0.0083022355 0.0023949623 1229.6598)
(-0.00055554852 -0.00055554853 1229.66)
(0.0015901423 0.0015901423 1170.2129)
(-0.0093887343 -0.0030084673 1170.2124)
(-0.014625255 -0.0018616129 1170.2112)
(-0.0031847585 -0.0016375728 1170.2116)
(0.00094744014 -0.0015887154 1170.212)
(0.0041512487 -0.0015727901 1170.2125)
(0.0074798148 -0.0015146385 1170.2131)
(0.010611674 -0.0011111546 1170.214)
(0.0068643457 0.00054998844 1170.2154)
(0.00057475272 0.0011020536 1170.2162)
(-0.0030084673 -0.0093887343 1170.2124)
(-0.014566367 -0.014566367 1170.2114)
(-0.012568913 -0.012281868 1170.2106)
(-0.0027754123 -0.011732251 1170.211)
(0.0010446141 -0.011566751 1170.2115)
(0.0042623641 -0.011501845 1170.2119)
(0.0081722682 -0.011368242 1170.2124)
(0.013708615 -0.01047263 1170.2133)
(0.010184158 -0.0064629418 1170.2152)
(0.0011268179 -0.0032323105 1170.2162)
(-0.0018616129 -0.014625255 1170.2112)
(-0.012281868 -0.012568913 1170.2106)
(-0.011791139 -0.011791139 1170.21)
(-0.0024696422 -0.011442043 1170.2104)
(0.0011778462 -0.011269659 1170.2109)
(0.0043497578 -0.011187362 1170.2112)
(0.0085090299 -0.011132855 1170.2117)
(0.015516975 -0.010854172 1170.2124)
(0.014104666 -0.0092152007 1170.2144)
(0.0027285069 -0.0066311461 1170.2158)
(-0.0016375728 -0.0031847585 1170.2116)
(-0.011732251 -0.0027754123 1170.211)
(-0.011442043 -0.0024696422 1170.2104)
(-0.0022539315 -0.0022539315 1170.2108)
(0.0012992949 -0.00211369 1170.2113)
(0.0043991679 -0.0020308295 1170.2116)
(0.0085054582 -0.0019974475 1170.212)
(0.015626269 -0.0020001448 1170.2126)
(0.014407184 -0.0018655568 1170.2145)
(0.0028495209 -0.0016938501 1170.2158)
(-0.0015887154 0.00094744013 1170.212)
(-0.011566752 0.0010446141 1170.2115)
(-0.011269659 0.0011778462 1170.2109)
(-0.00211369 0.0012992949 1170.2113)
(0.0014009482 0.0014009482 1170.2117)
(0.0044660002 0.0014818863 1170.212)
(0.0085397146 0.0015451224 1170.2123)
(0.015648865 0.0015909368 1170.2129)
(0.01441096 0.0016403469 1170.2147)