/*--------------------------------*- C++ -*----------------------------------*\
| =========                 |                                                 |
| \\      /  F ield         | OpenFOAM: The Open Source CFD Toolbox           |
|  \\    /   O peration     | Version:  v2106                                 |
|   \\  /    A nd           | Website:  www.openfoam.com                      |
|    \\/     M anipulation  |                                                 |
\*---------------------------------------------------------------------------*/
FoamFile
{
    version     2.0;
    format      ascii;
    arch        "LSB;label=32;scalar=64";
    class       volScalarField;
    location    "25";
    object      gradTy;
}
// * * * * * * * * * * * * * * * * * * * * * * * * * * * * * * * * * * * * * //

dimensions      [0 -1 0 1 0 0 0];

internalField   nonuniform List<scalar> 
4000
(
0.00036062519
-1.082875e-05
5.0083645e-05
5.778734e-05
5.967578e-05
6.1711973e-05
6.5992941e-05
7.6227967e-05
9.5102964e-05
9.9451187e-05
5.1267497e-05
-0.00041454482
-0.00030927239
-0.00029307259
-0.00028679461
-0.00027977668
-0.00026647886
-0.00023505815
-0.0001654206
-7.7524431e-05
-0.00060037554
-0.00049745141
-0.00047890332
-0.00047042271
-0.00046351891
-0.00045601375
-0.00044489822
-0.00042342109
-0.0003755854
-0.00028907976
-0.00015001182
-0.00013562363
-0.00012753405
-0.00012023922
-0.00011356859
-0.00010695111
-9.9549844e-05
-9.0862504e-05
-8.1422166e-05
-7.4977286e-05
-3.357569e-05
-2.7688739e-05
-2.0279781e-05
-1.327979e-05
-6.9916763e-06
-1.2547787e-06
4.2682984e-06
9.6211284e-06
1.4149617e-05
1.6225625e-05
4.8058917e-05
5.753467e-05
6.837466e-05
7.6155347e-05
8.239341e-05
8.7415322e-05
9.1488153e-05
9.4666754e-05
9.6753472e-05
9.7571028e-05
0.00010689131
0.00012866529
0.00015160983
0.00016125796
0.00016769844
0.00017213386
0.00017494987
0.00017616394
0.00017570139
0.00017441944
0.00012205385
0.00016571888
0.00022311212
0.0002350317
0.00024123978
0.00024491302
0.00024650511
0.00024566455
0.00024157757
0.00023549507
6.6438248e-05
0.00010127309
0.00022397198
0.0002356144
0.00023985719
0.0002422189
0.00024276147
0.00024047441
0.000232592
0.00021729597
5.9651074e-06
1.0313331e-05
6.4562553e-05
6.7983753e-05
6.8859144e-05
6.9367757e-05
6.9404181e-05
6.8513128e-05
6.5349178e-05
5.8315778e-05
0.0021899473
7.3412453e-05
0.00037149737
0.00042899972
0.00044740951
0.00046684551
0.00050787365
0.00060897532
0.00079720121
0.00069936444
-0.00037243488
-0.0031001097
-0.0025279377
-0.0023908489
-0.0023292071
-0.0022627104
-0.0021365485
-0.0018308832
-0.0011422474
-0.00060204304
-0.004779566
-0.0042461851
-0.0040703052
-0.0039808154
-0.003913743
-0.0038431256
-0.0037388285
-0.0035328031
-0.0030525043
-0.0022897043
-0.001513353
-0.0013994848
-0.0013146224
-0.0012429227
-0.0011795428
-0.0011173522
-0.0010480715
-0.00096538917
-0.00086260896
-0.00077167251
-0.00033375553
-0.00027698685
-0.00020561705
-0.00013929704
-8.0046582e-05
-2.6098568e-05
2.5701199e-05
7.5815596e-05
0.00011962395
0.00014178525
0.00046763468
0.00055833091
0.00066029324
0.00073324538
0.00079176455
0.00083899316
0.00087736383
0.00090729168
0.00092699455
0.00093464211
0.0010374483
0.001250643
0.0014692755
0.0015609655
0.0016212385
0.0016628797
0.001689537
0.0017011626
0.0016967269
0.0016842933
0.0011826583
0.0016166497
0.0021769594
0.0023029739
0.002362422
0.0023968967
0.0024120527
0.0024040865
0.0023633498
0.0022984934
0.00056371355
0.00069929724
0.0017925538
0.0019423961
0.0019862704
0.0020083658
0.0020136208
0.0019914965
0.0019080277
0.0017132601
5.5040804e-06
-9.2332679e-05
0.00036564033
0.00041620067
0.00042626463
0.00043097487
0.000431363
0.00042268586
0.00038812539
0.00029284076
0.0024163189
-0.00045935545
-3.4052128e-05
5.4536163e-05
8.4959955e-05
0.00011699555
0.0001893607
0.00039902967
0.00091028677
0.00093760002
-0.0021231729
-0.0057987295
-0.0049606606
-0.0047402923
-0.0046364941
-0.0045274995
-0.0043169852
-0.0037544759
-0.0022872087
-0.0011308082
-0.0076306631
-0.0068598257
-0.0065722259
-0.006417201
-0.0063022691
-0.0061857146
-0.0060193695
-0.0056877089
-0.0048566298
-0.0036037211
-0.0025273491
-0.002348831
-0.0022031826
-0.0020788742
-0.0019703038
-0.0018658512
-0.0017521523
-0.0016179046
-0.0014379777
-0.0012733726
-0.00048977815
-0.00039608907
-0.00027698539
-0.00016460271
-6.3962452e-05
2.73322e-05
0.00011437186
0.00019808165
0.00027334719
0.00031307256
0.00096331585
0.001119917
0.0012828248
0.0014028166
0.0015009762
0.0015811509
0.0016470259
0.0016991265
0.0017345447
0.0017498343
0.0020680277
0.0024910789
0.0028410514
0.0029890846
0.003088998
0.0031598341
0.0032069736
0.003229514
0.0032235515
0.0032021123
0.0024194482
0.0035008373
0.0044492248
0.004663577
0.0047633994
0.0048225523
0.0048509182
0.0048391302
0.004755799
0.004583948
0.00066433836
0.0014721939
0.0032880061
0.0035561818
0.0036325381
0.0036711727
0.0036832459
0.003643771
0.0034280636
0.0025558778
-0.00033055926
-0.000303246
0.00044037441
0.00053202652
0.00055011118
0.00055851011
0.00056030424
0.00054421727
0.00044573688
-3.7239967e-05
0.0023612543
-0.0010356837
-0.00047312416
-0.00035557925
-0.00031652096
-0.00027833423
-0.00018939639
9.8782181e-05
0.00090397295
0.0010301157
-0.0039228197
-0.0081743873
-0.0070571773
-0.0067615203
-0.0066269786
-0.0064952324
-0.0062407722
-0.0054987543
-0.0033401679
-0.0016824266
-0.0098841009
-0.0088639443
-0.0084712339
-0.0082610233
-0.0081111322
-0.0079673944
-0.007769882
-0.0073626482
-0.006242982
-0.0045933755
-0.0031938551
-0.0029589503
-0.0027636564
-0.0025988487
-0.0024582673
-0.0023273459
-0.0021900854
-0.002031554
-0.0018016437
-0.0015871482
-0.00045889142
-0.0003430239
-0.00019260357
-4.9395039e-05
7.889921e-05
0.00019450553
0.00030346673
0.00040706197
0.00050236768
0.00055292346
0.0015711164
0.0017618033
0.0019573228
0.0021030535
0.0022255047
0.002327621
0.0024134244
0.0024835743
0.0025348146
0.0025614192
0.0032658709
0.0038315456
0.0042623491
0.0044362918
0.004558141
0.0046488483
0.0047140943
0.0047528141
0.004759475
0.0047497276
0.0041389177
0.0057789717
0.0070395219
0.0073058717
0.0074279636
0.0075047726
0.0075493538
0.0075501534
0.0074570392
0.007207416
0.0015835691
0.0029805693
0.0053998967
0.005749842
0.0058443025
0.0058957035
0.0059221475
0.0058926169
0.0055794101
0.0036578403
-0.00036335344
-0.00023721074
0.00074180742
0.00086252693
0.00088480443
0.00089623079
0.00090254085
0.0008897325
0.00073612538
-0.00039131408
0.0022000467
-0.0016090771
-0.00089908378
-0.00075243239
-0.00070726317
-0.0006682009
-0.00057383272
-0.00022925894
0.00083931543
0.0010665637
-0.005618685
-0.010267381
-0.0088527133
-0.0084841684
-0.0083283316
-0.0081912968
-0.0079264054
-0.0070672118
-0.0043070328
-0.0021973099
-0.01168301
-0.010398043
-0.0098997981
-0.0096417845
-0.0094690542
-0.009316486
-0.0091173009
-0.0086816402
-0.0073383424
-0.0053638501
-0.0035546008
-0.0032668699
-0.0030302192
-0.002836126
-0.002676826
-0.0025356926
-0.0023961866
-0.0022413521
-0.0019923957
-0.0017542306
-0.00026166556
-0.00013531834
3.120602e-05
0.00018998019
0.0003316395
0.00045783175
0.00057473025
0.00068375305
0.00078612008
0.0008389134
0.0022434921
0.0024436377
0.0026454183
0.0027953911
0.0029260577
0.0030384818
0.0031363316
0.0032204619
0.0032878253
0.0033293468
0.0044882546
0.0051466676
0.0056123396
0.0057815133
0.0059066801
0.0060074346
0.0060886602
0.0061501542
0.0061866191
0.0062140174
0.0059711431
0.0080908653
0.0095905157
0.0098698238
0.0099943065
0.010081214
0.0101458
0.010179173
0.010122946
0.0098718402
0.0028827428
0.0048264769
0.0077526447
0.0081442669
0.0082397662
0.0082994273
0.0083486511
0.0083632905
0.0080413186
0.0050926607
-0.00020997185
1.7276465e-05
0.0011965101
0.0013336046
0.0013552868
0.0013688002
0.0013829678
0.0013870657
0.0012155637
-0.00057870623
0.0019925672
-0.0021467072
-0.0012868189
-0.0011120044
-0.0010631547
-0.0010278541
-0.00093758255
-0.00055604808
0.0007437657
0.0010800498
-0.0071311315
-0.012050211
-0.010334698
-0.0098978552
-0.0097298271
-0.0096032797
-0.0093574751
-0.0084371765
-0.005168168
-0.0026405327
-0.013058851
-0.011506796
-0.010906495
-0.010608644
-0.010424815
-0.010280628
-0.01010687
-0.0096864896
-0.0081848488
-0.0059490291
-0.0036482182
-0.0033127218
-0.003043347
-0.002831042
-0.0026660019
-0.0025303216
-0.0024087689
-0.0022840378
-0.0020465826
-0.0018094475
6.4898267e-05
0.00019112366
0.00035947377
0.0005191394
0.00066019413
0.00078350994
0.00089472403
0.0009951308
0.0010915406
0.0011378147
0.002928788
0.0031171462
0.00330114
0.0034350915
0.0035583729
0.0036696213
0.0037716667
0.0038655856
0.003948798
0.0040076478
0.0056417168
0.0063494259
0.00680782
0.0069435645
0.0070541039
0.0071551854
0.0072500681
0.0073402457
0.0074217458
0.0075071791
0.0077295511
0.010251573
0.011918858
0.012173595
0.012281044
0.012370411
0.012458176
0.012542089
0.012563931
0.012377953
0.0042936826
0.0067478294
0.010090326
0.01048529
0.010564917
0.010627974
0.010706979
0.010794907
0.010542843
0.0066969785
3.4205661e-05
0.00037048974
0.0017192959
0.0018610362
0.001877386
0.0018918856
0.0019166192
0.0019488411
0.0017926338
-0.00061506853
0.0017802029
-0.0026193311
-0.00161256
-0.0014116871
-0.0013616243
-0.0013342169
-0.0012564141
-0.0008558287
0.00064149938
0.0010882719
-0.0083991242
-0.013488269
-0.011480133
-0.010982311
-0.01081116
-0.010709255
-0.010508482
-0.0095780168
-0.0058935895
-0.0029895912
-0.014030962
-0.012219496
-0.011525005
-0.011196529
-0.011013015
-0.010892871
-0.010768518
-0.010402329
-0.0088040559
-0.0063663355
-0.0035122405
-0.003135837
-0.0028432673
-0.0026238474
-0.0024654601
-0.0023497222
-0.0022643533
-0.0021932903
-0.0019952077
-0.0017812202
0.00048055416
0.00059675935
0.00075360986
0.00090041761
0.001027735
0.0011355588
0.0012284397
0.0013072843
0.0013855925
0.0014172198
0.0035781418
0.0037359571
0.0038808193
0.0039804545
0.0040819261
0.0041811591
0.0042798028
0.0043791514
0.0044772115
0.004554722
0.0066556871
0.0073732694
0.0077869257
0.0078638116
0.0079433576
0.0080355371
0.0081413499
0.008264603
0.0084032842
0.0085630228
0.0093006569
0.012147527
0.013915549
0.014111989
0.014184695
0.014269142
0.014382104
0.014531076
0.014664591
0.014597963
0.0056554255
0.0085715764
0.012243851
0.01260757
0.012655921
0.012717505
0.012831492
0.013015925
0.012898379
0.0083022355
0.00030905014
0.00075582268
0.002245049
0.0023809696
0.0023877073
0.0024020544
0.0024393809
0.0025085469
0.0023949623
-0.00055554853
0.0015901423
-0.0030084673
-0.0018616129
-0.0016375728
-0.0015887154
-0.0015727901
-0.0015146385
-0.0011111546
0.00054998844
0.0011020536
-0.0093887343
-0.014566367
-0.012281868
-0.011732251
-0.011566751
-0.011501845
-0.011368242
-0.01047263
-0.0064629418
-0.0032323105
-0.014625255
-0.012568913
-0.011791139
-0.011442043
-0.011269659
-0.011187362
-0.011132855
-0.010854172
-0.0092152007
-0.0066311461
-0.0031847585
-0.0027754123
-0.0024696422
-0.0022539315
-0.00211369
-0.0020308295
-0.0019974475
-0.0020001448
-0.0018655568
-0.0016938501
0.00094744013
0.0010446141
0.0011778462
0.0012992949
0.0014009482
0.0014818863
0.0015451224
0.0015909368
0.0016403469
0.0016501533
0.0041512487
0.004262364
0.0043497578
0.0043991679
0.0044660002
0.0045433421
0.0046314145
0.0047317057
0.0048428887
0.0049394165
0.0074798148
0.0081722682
0.0085090299
0.0085054582
0.0085397146
0.0086145087
0.0087280782
0.0088869663
0.0090915342
0.0093374859
0.010611674
0.013708615
0.015516975
0.015626269
0.015648866
0.015721493
0.01586034
0.016084949
0.016355849
0.016451414
0.0068643457
0.010184158
0.014104666
0.014407184
0.01441096
0.014466401
0.014618671
0.01491692
0.014985136
0.0097798005
0.00057475272
0.0011268179
0.0027285069
0.0028495209
0.0028429781
0.0028560585
0.00290733
0.0030200263
0.0029710397
-0.00045019733
0.0014387809
-0.0033050354
-0.0020276352
-0.0017837848
-0.0017383977
-0.0017369554
-0.0017043994
-0.001312184
0.00048022773
0.0011276325
-0.010088917
-0.015288541
-0.012749541
-0.012158314
-0.012006616
-0.011989096
-0.011940847
-0.011118666
-0.0068681926
-0.0033654674
-0.014875579
-0.012593703
-0.011745351
-0.011385808
-0.011234437
-0.011201717
-0.011233769
-0.011070002
-0.0094394819
-0.006760149
-0.0027039369
-0.0022700806
-0.0019610123
-0.0017591661
-0.0016473638
-0.0016085084
-0.0016402554
-0.0017330754
-0.0016819338
-0.0015684509
0.0014325153
0.0015027593
0.0016017328
0.0016868503
0.0017523905
0.0017965216
0.0018203627
0.0018233699
0.0018346725
0.0018165877
0.0046186792
0.0046696765
0.0046844481
0.0046703441
0.0046915565
0.0047383163
0.00480924
0.0049059812
0.0050279615
0.0051430189
0.0080832723
0.0087204295
0.0089537022
0.008852145
0.0088291351
0.0088789933
0.0089968
0.0091920984
0.0094679315
0.0098079694
0.011621024
0.014897965
0.016693679
0.016692252
0.016652
0.016706562
0.016870722
0.017177693
0.017604163
0.017894255
0.0078568613
0.011516586
0.01561006
0.015826439
0.015774685
0.015819656
0.016011723
0.016435527
0.016728284
0.011043137
0.00080559482
0.0014529996
0.003140745
0.0032392216
0.0032164002
0.003227165
0.0032931051
0.0034538569
0.0034864995
-0.00033624088
0.0013344987
-0.0035070233
-0.0021106148
-0.0018505432
-0.0018106577
-0.0018260894
-0.0018238303
-0.0014549606
0.00043802932
0.0011678391
-0.010505649
-0.015673319
-0.012905553
-0.012283241
-0.012152609
-0.012190811
-0.012242143
-0.011525374
-0.0071115491
-0.0033928937
-0.014821381
-0.012336661
-0.011431303
-0.01107114
-0.010949466
-0.010975849
-0.01110743
-0.011080086
-0.0095000422
-0.0067714189
-0.0021068323
-0.0016568966
-0.0013538891
-0.0011750596
-0.0011005612
-0.0011148789
-0.0012221511
-0.0014176902
-0.0014656927
-0.0014231286
0.001908387
0.0019450678
0.0020008175
0.0020403587
0.0020609982
0.0020600317
0.0020364208
0.0019886473
0.0019543347
0.0019034655
0.0049616564
0.0049418974
0.0048721232
0.0047839332
0.0047505333
0.0047593559
0.004807299
0.0048961551
0.0050261946
0.0051586177
0.0084521467
0.00900884
0.0091175835
0.0089046036
0.0088147722
0.0088332192
0.0089515715
0.0091825129
0.0095320199
0.0099704168
0.012311466
0.015704255
0.017442059
0.017311643
0.017198517
0.017229557
0.017417413
0.017810005
0.01840341
0.018910809
0.0085988949
0.012533094
0.016731375
0.016841761
0.016725937
0.016756579
0.016988399
0.017544483
0.018089203
0.012040599
0.00098610365
0.0017159134
0.0034652072
0.0035349956
0.0034935833
0.0035010827
0.0035818653
0.0037933473
0.0039201311
-0.00023905534
0.0012798493
-0.0036174448
-0.0021149983
-0.001842359
-0.0018097214
-0.0018438092
-0.0018753408
-0.0015397995
0.00042535167
0.0012230204
-0.010656735
-0.015749007
-0.01278078
-0.012137779
-0.012034417
-0.012134615
-0.012295923
-0.011710067
-0.0072026037
-0.0033234309
-0.014504963
-0.011842334
-0.010893734
-0.010542063
-0.010457391
-0.01055017
-0.010790607
-0.01091551
-0.0094208756
-0.0066836056
-0.0014282687
-0.00097035332
-0.00068190591
-0.00053401011
-0.00050410739
-0.00057874404
-0.00076921098
-0.0010764023
-0.0012350988
-0.0012729623
0.0023533389
0.0023511637
0.0023565022
0.0023430568
0.0023117683
0.0022591273
0.0021817615
0.0020770775
0.0019913802
0.0019040338
0.0051707183
0.0050722892
0.0049092119
0.0047390733
0.0046441083
0.0046090665
0.0046290681
0.0047060276
0.0048411765
0.0049893047
0.0085861137
0.0090421281
0.0090106622
0.0086767881
0.0085130039
0.0084947382
0.008609965
0.0088745547
0.0092976266
0.0098355412
0.01268417
0.016135209
0.01777749
0.01750494
0.017311602
0.017314559
0.01752371
0.018002221
0.018767963
0.019506933
0.0090781255
0.013222355
0.017464761
0.01745426
0.017268201
0.017281216
0.017551478
0.018242203
0.019056191
0.012747523
0.0011083367
0.0019060055
0.0036944519
0.0037308522
0.0036692096
0.0036726212
0.0037679617
0.0040312309
0.0042606088
-0.00017454789
0.0012732755
-0.0036427166
-0.0020481826
-0.0017665718
-0.0017426161
-0.0017965532
-0.0018642273
-0.0015699684
0.00044142168
0.0012917999
-0.010567639
-0.015549826
-0.012411007
-0.011757244
-0.011686208
-0.011852678
-0.012130742
-0.011695115
-0.0071557841
-0.0031691075
-0.013969178
-0.011154961
-0.010176597
-0.0098415627
-0.0097997318
-0.0099640044
-0.010319179
-0.010606814
-0.0092257011
-0.0065150517
-0.00070002473
-0.00024167497
2.4774653e-05
0.00013519005
0.00011484191
-2.5246604e-05
-0.00030394846
-0.00072825533
-0.0010052666
-0.0011300311
0.002750958
0.0027059858
0.0026555242
0.0025835442
0.0024950876
0.0023859266
0.0022502593
0.0020843619
0.0019432286
0.0018168977
0.0052440419
0.0050616251
0.0047995072
0.0045421781
0.0043807168
0.0042973498
0.0042854098
0.0043469259
0.0044842078
0.0046460515
0.0084951857
0.008835063
0.0086527485
0.0081922529
0.0079497397
0.0078906882
0.0079993159
0.0082946502
0.0087891231
0.0094250875
0.012753745
0.016212219
0.017728703
0.017305696
0.017027385
0.016998666
0.017226183
0.017788473
0.018726864
0.019704214
0.0092980274
0.01359068
0.017824035
0.017682443
0.01742226
0.017414978
0.017721385
0.018545416
0.019637126
0.013159416
0.0011698549
0.0020202331
0.0038276393
0.0038273327
0.003744463
0.0037431121
0.0038523587
0.0041670883
0.004503925
-0.00015138481
0.0013104339
-0.0035914143
-0.0019193588
-0.0016322294
-0.0016180672
-0.0016924924
-0.001797603
-0.001550664
0.00048362017
0.0013716782
-0.010268285
-0.015112974
-0.011834203
-0.011178917
-0.011144079
-0.011379205
-0.011777464
-0.011505621
-0.0069883338
-0.0029436819
-0.013255727
-0.01031695
-0.0093216698
-0.0090103073
-0.0090156667
-0.0092544394
-0.0097270362
-0.01018298
-0.0089370935
-0.0062830999
4.9640189e-05
0.00050157759
0.00073976499
0.00080758068
0.00073296144
0.00052423356
0.0001547343
-0.00038893356
-0.00078823948
-0.001003553
0.0030895681
0.0029991736
0.0028892793
0.0027550415
0.0026059322
0.0024371031
0.0022402985
0.00201065
0.0018116842
0.0016450012
0.0051857841
0.0049164804
0.0045523987
0.0042051109
0.0039741715
0.0038394772
0.0037926069
0.0038357052
0.0039722706
0.0041456558
0.0081968499
0.0084095924
0.0080704346
0.0074810524
0.0071572674
0.0070545993
0.0071534955
0.007476052
0.0080381389
0.008768516
0.012544178
0.015966013
0.017333308
0.016755955
0.016390334
0.016327341
0.016569998
0.017211985
0.018319078
0.019535177
0.0092732302
0.013656743
0.017835169
0.017556623
0.01722055
0.017190974
0.0175305
0.018483438
0.019853693
0.013286422
0.0011721697
0.0020602278
0.0038686043
0.0038295568
0.003725062
0.0037184348
0.0038406522
0.0042053528
0.0046513847
-0.00017282788
0.0013852029
-0.0034733412
-0.0017386511
-0.0014492537
-0.0014456773
-0.0015407176
-0.0016835971
-0.0014882409
0.00054815742
0.0014594923
-0.0097906914
-0.014476472
-0.011088547
-0.010440137
-0.010444209
-0.010748624
-0.011267484
-0.0111677
-0.0067188055
-0.0026615541
-0.01240399
-0.0093678588
-0.0083676551
-0.0080858135
-0.0081412565
-0.0084555826
-0.0090453793
-0.0096707642
-0.008575908
-0.0060036353
0.00079617644
0.001235637
0.001440515
0.0014620356
0.0013307082
0.0010519895
0.00059141899
-7.0924813e-05
-0.00059319281
-0.00090012311
0.0033615868
0.0032243909
0.0030530999
0.0028546219
0.0026430537
0.0024130308
0.0021538811
0.0018596122
0.0016019768
0.0013946457
0.0050045834
0.0046477037
0.0041813084
0.0037435809
0.0034420193
0.0032544082
0.0031706441
0.0031929934
0.0033262374
0.0035089247
0.0077136769
0.0077923919
0.0072946015
0.0065772103
0.0061716871
0.0060237918
0.0061102723
0.0064561572
0.0070808301
0.0079002279
0.012085606
0.015433238
0.016634285
0.015902709
0.015449673
0.015350805
0.015605266
0.016321363
0.017589712
0.019039451
0.0090259139
0.013447514
0.01753206
0.017114643
0.016702861
0.016649676
0.017018793
0.018093747
0.019736881
0.01314892
0.0011195449
0.0020308797
0.0038243791
0.0037457282
0.0036197589
0.0036075074
0.0037415504
0.0041537726
0.004708043
-0.00023820104
0.0014904374
-0.0032988453
-0.0015164908
-0.001227835
-0.0012353305
-0.0013506494
-0.0015307695
-0.0013896414
0.00063057753
0.001551755
-0.0091672575
-0.01367765
-0.010211048
-0.0095769976
-0.0096215755
-0.0099943209
-0.01063148
-0.010707272
-0.0063659794
-0.0023369924
-0.011450304
-0.0083437881
-0.0073496515
-0.0071019786
-0.0072090125
-0.007598158
-0.0083023306
-0.0090943371
-0.0081609551
-0.0056908321
0.0015187245
0.0019404649
0.0021081974
0.002081104
0.0018921262
0.0015437628
0.00099392387
0.00021621409
-0.00042671832
-0.00082401706
0.0035628754
0.0033786536
0.0031455521
0.0028824742
0.0026082109
0.0023169858
0.0019958008
0.0016375886
0.0013218874
0.0010746001
0.0047122724
0.0042691139
0.0037023679
0.0031757958
0.0028041656
0.0025633857
0.0024417717
0.0024417211
0.0025693682
0.0027591448
0.0070713887
0.0070129007
0.0063584375
0.0055167216
0.0050308887
0.0048373243
0.0049092242
0.0052743738
0.0059556931
0.00685733
0.011411797
0.014653817
0.015677297
0.014795193
0.014256655
0.014121279
0.014384252
0.015167748
0.016587084
0.01826075
0.0085830278
0.012995122
0.016953308
0.016398627
0.015913076
0.015835639
0.0162305
0.017418595
0.019323502
0.012774084
0.0010180722
0.0019392497
0.0037040636
0.0035859983
0.0034391977
0.0034211401
0.0035657154
0.0040222314
0.0046814926
-0.00034404715
0.0016185274
-0.0030783264
-0.001263171
-0.00097800257
-0.00099676864
-0.0011316172
-0.0013476907
-0.0012619831
0.00072612822
0.0016449006
-0.0084295665
-0.012752114
-0.009236629
-0.0086234663
-0.0087091056
-0.0091478015
-0.0098985778
-0.010149234
-0.0059481162
-0.0019836095
-0.010427564
-0.0072770783
-0.0062989164
-0.0060888832
-0.0062477256
-0.0067093501
-0.0075227831
-0.0084751235
-0.0077088624
-0.0053570572
0.002199954
0.0025995575
0.0027274774
0.0026507483
0.0024045603
0.0019884389
0.0013529872
0.00046553529
-0.0002931509
-0.00077752314
0.0036921213
0.0034616994
0.0031677861
0.0028412325
0.0025054767
0.0021544332
0.001772911
0.0013528397
0.00098098495
0.00069532729
0.0043228069
0.0037964237
0.0031333347
0.0025213662
0.0020817615
0.0017888005
0.0016293449
0.0016059328
0.0017260911
0.0019208406
0.0062973356
0.0061017867
0.0052959035
0.0043360133
0.0037729998
0.0035344198
0.0035901322
0.0039704727
0.0047018632
0.005677886
0.01055821
0.013668938
0.014508671
0.013482859
0.012862533
0.012690933
0.012959279
0.013802664
0.015360487
0.017244554
0.0079741669
0.012334492
0.016139791
0.015452559
0.014896733
0.014795046
0.01521164
0.01650246
0.01865353
0.012193206
0.0008749645
0.0017937369
0.003517969
0.003361607
0.0031950542
0.0031711686
0.0033248872
0.0038218505
0.0045809317
-0.00048503273
0.0017618044
-0.0028218906
-0.00098853852
-0.00070932896
-0.0007393002
-0.00089256785
-0.0011426492
-0.0011122655
0.00083002711
0.0017354575
-0.0076075738
-0.011733088
-0.0081975505
-0.0076108501
-0.0077371509
-0.0082381701
-0.0090958198
-0.0095169172
-0.0054824601
-0.0016140274
-0.0093650696
-0.0061962271
-0.0052428315
-0.0050727864
-0.0052824778
-0.0058128212
-0.0067284137
-0.0078318038
-0.0072340694
-0.0050128823
0.0028258165
0.003199674
0.0032862161
0.0031600276
0.0028583234
0.0023777046
0.0016619214
0.00067235772
-0.00019490511
-0.00076127627
0.0037502774
0.0034754191
0.0031229574
0.0027353843
0.0023406343
0.0019324098
0.0014934961
0.0010149088
0.0005899794
0.00026833212
0.0038513952
0.0032463717
0.0024927263
0.0018004359
0.0012963243
0.00095329764
0.00075691116
0.00070985048
0.0008210412
0.0010187935
0.00541932
0.0050897736
0.004140573
0.003070791
0.0024352261
0.0021532899
0.0021917789
0.0025833469
0.0033578268
0.0043995835
0.0095605412
0.012519556
0.013173901
0.0120139
0.011317074
0.011110383
0.011381204
0.012276431
0.013958529
0.016036365
0.0072299728
0.011501557
0.015132863
0.014320479
0.013699229
0.013573902
0.014008172
0.015390139
0.017768105
0.011439661
0.00069801874
0.0016034491
0.0032769739
0.0030842406
0.0028993931
0.002869809
0.0030312279
0.0035643135
0.004416452
-0.00065464906
0.001912831
-0.0025391137
-0.00070178931
-0.0004307338
-0.0004716065
-0.00064187156
-0.00092345236
-0.00094716764
0.00093764943
0.0018201665
-0.0067290853
-0.010651016
-0.0071230891
-0.0065674949
-0.0067331973
-0.0072918357
-0.0082478598
-0.0088317686
-0.004984928
-0.0012396789
-0.0082885256
-0.0051259558
-0.0042050049
-0.0040762473
-0.0043347735
-0.0049288424
-0.0059378027
-0.0071804124
-0.0067489071
-0.0046671659
0.0033852531
0.0037305273
0.0037751448
0.0036007588
0.0032463494
0.0027056977
0.0019162659
0.00083392975
-0.00013279976
-0.00077457399
0.0037400663
0.0034233596
0.0030157256
0.0025707645
0.0021206645
0.0016590058
0.001166747
0.00063409225
0.00016018976
-0.00019437264
0.0033138079
0.0026360391
0.0017991455
0.0010330099
0.000469062
7.9092445e-05
-0.00015248748
-0.0002228415
-0.00012167458
7.7289633e-05
0.0044647127
0.0040067686
0.0029247797
0.0017551986
0.0010530118
0.00073028509
0.00075107789
0.0011501092
0.0019604761
0.0030587484
0.008453651
0.011245304
0.011716583
0.010434199
0.0096675171
0.009427642
0.0096983301
0.01063704
0.012427927
0.014680421
0.0063809479
0.010531949
0.013973038
0.013045196
0.012364534
0.012216731
0.012664665
0.01412537
0.016708046
0.010547373
0.00049521394
0.001377731
0.0029920466
0.0027655585
0.0025641971
0.0025291835
0.0026968399
0.0032613651
0.004198503
-0.00084575008
0.0020646022
-0.0022388879
-0.00041134021
-0.0001503625
-0.0002016215
-0.00038719948
-0.00069729918
-0.00077291392
0.0010446562
0.0018960577
-0.0058194474
-0.009533361
-0.0060393922
-0.0055186603
-0.0057217434
-0.0063323843
-0.0073768177
-0.0081131744
-0.0044699339
-0.0008707092
-0.0072201614
-0.0040873733
-0.0032054607
-0.0031183279
-0.0034227454
-0.0040744955
-0.0051666211
-0.0065344962
-0.0062637309
-0.0043271771
0.0038698865
0.0041844645
0.0041875353
0.0039671798
0.0035638541
0.0029686693
0.0021134564
0.00094911335
-0.00010635654
-0.00081566228
0.0036655553
0.0033102998
0.0028518314
0.0023541322
0.0018533208
0.0013429379
0.00080233403
0.0002210132
-0.000296882
-0.00068069144
0.0027258417
0.0019823252
0.0010707674
0.0002384495
-0.00037963021
-0.00081253728
-0.0010768308
-0.0011695259
-0.0010790228
-0.00088043821
0.0034598044
0.0028812327
0.0016790143
0.00042123208
-0.00034054166
-0.00070069265
-0.00069753028
-0.00029453908
0.00054444162
0.0016896418
0.007270795
0.0098837281
0.010177679
0.0087866183
0.0079578658
0.0076874022
0.0079556739
0.0089293741
0.01081267
0.013218786
0.0054565971
0.0094600545
0.012699062
0.011667374
0.010934287
0.010765669
0.011223374
0.01274985
0.015512786
0.0095496772
0.00027441528
0.0011258167
0.0026738984
0.0024168526
0.0022010279
0.0021609796
0.0023334176
0.0029244464
0.003937495
-0.0010509596
0.0022106799
-0.0019293302
-0.0001247578
0.00012448042
6.35347e-05
-0.00013545467
-0.00047070528
-0.0005951897
0.0011470784
0.0019604975
-0.0049013937
-0.0084045502
-0.004969463
-0.0044865153
-0.0047242963
-0.0053805675
-0.0065022485
-0.0073783998
-0.0039503088
-0.0005159447
-0.0061789143
-0.0030981984
-0.0022608793
-0.0022148402
-0.0025614023
-0.0032639125
-0.0044278518
-0.0059053074
-0.0057870805
-0.0039987388
0.0042737161
0.0045561549
0.0045188829
0.0042556319
0.0038080178
0.0031646716
0.0022525235
0.0010180992
-0.0001140649
-0.00088198553
0.0035317999
0.0031418973
0.0026377477
0.002092825
0.0015467874
0.00099320948
0.00041006876
-0.00021371357
-0.00076988183
-0.001178774
0.0021029168
0.0013015568
0.00032496462
-0.00056489264
-0.0012305297
-0.0017016113
-0.0019954856
-0.0021090267
-0.0020294293
-0.0018326074
0.002429352
0.0017397494
0.0004315197
-0.00090164545
-0.0017150528
-0.0021085685
-0.0021224682
-0.0017187204
-0.00085835114
0.00032398473
0.0060431018
0.0084697773
0.0085950415
0.0071105486
0.0062284531
0.005930598
0.0061945094
0.007194715
0.0091534677
0.011690726
0.0044848259
0.0083183566
0.011347281
0.010224925
0.0094471963
0.0092598647
0.0097236156
0.01130257
0.014219627
0.0084785087
4.3161549e-05
0.00085658067
0.0023327376
0.0020488084
0.0018207905
0.0017762136
0.0019520051
0.0025644376
0.0036435108
-0.0012629745
0.0023452754
-0.0016177356
0.00015127149
0.00038735808
0.00031758305
0.0001072581
-0.00024946617
-0.00041909513
0.0012413671
0.0020112137
-0.0039950024
-0.0072860083
-0.0039332323
-0.0034902177
-0.0037594493
-0.0044543697
-0.0056411885
-0.0066426026
-0.003437288
-0.00018290985
-0.0051806538
-0.0021730133
-0.0013848631
-0.0013786151
-0.0017628942
-0.0025085312
-0.0037320264
-0.0053020085
-0.0053258501
-0.0036863769
0.004592831
0.0048422983
0.004766614
0.0044642672
0.0039776979
0.0032932777
0.0023338242
0.0010421574
-0.00015360962
-0.00097039766
0.0033445518
0.0029244018
0.0023803998
0.0017944858
0.0012094102
0.00061884645
-3.5466317e-07
-0.00065973427
-0.0012478509
-0.0016772585
0.0014597847
0.00060921086
-0.00042195452
-0.0013599212
-0.0020658282
-0.0025696862
-0.0028894463
-0.0030218558
-0.0029530347
-0.0027591488
0.0013962788
0.00060674897
-0.0007919541
-0.0021867283
-0.0030430744
-0.003465309
-0.003495244
-0.0030936208
-0.0022189476
-0.0010093346
0.0047992396
0.0070354895
0.0070031401
0.0054416658
0.0045157063
0.0041941696
0.0044521179
0.005470466
0.0074874198
0.010132324
0.0034915395
0.0071370026
0.0099512323
0.0087526342
0.0079386772
0.00773511
0.0082013842
0.0098193962
0.012863242
0.0073638397
-0.00019148226
0.00057836427
0.0019781031
0.0016713464
0.0014335778
0.0013850747
0.0015628351
0.0021914833
0.0033261044
-0.0014747849
0.0024632961
-0.0013105643
0.00041094141
0.00063269926
0.00055508464
0.00033563449
-3.8648625e-05
-0.00024912602
0.0013244208
0.0020463043
-0.0031177314
-0.0061962634
-0.0029476884
-0.0025460481
-0.0028430117
-0.0035691275
-0.0048082548
-0.005918898
-0.0029405442
0.00012212689
-0.0042384235
-0.0013235282
-0.0005882082
-0.000619774
-0.0010367791
-0.0018173512
-0.0030874614
-0.0047318777
-0.004885458
-0.0033934649
0.0048251467
0.0050413615
0.0049298234
0.0045927906
0.0040731757
0.0033553375
0.0023588124
0.0010234266
-0.00022206002
-0.0010773345
0.0031100275
0.0026644303
0.0020869481
0.0014668532
0.00084949492
0.00022870188
-0.00041954843
-0.0011071379
-0.0017203997
-0.0021654406
0.00081033069
-8.0269197e-05
-0.0011549124
-0.0021309515
-0.0028692758
-0.0033999948
-0.0037414747
-0.0038903552
-0.0038318425
-0.0036418614
0.00038149969
-0.00049564108
-0.0019682708
-0.0034101676
-0.0043001817
-0.0047460073
-0.0047905421
-0.004393594
-0.0035114899
-0.00228441
0.003565232
0.0056098361
0.0054329426
0.0038118395
0.0028520703
0.0025109882
0.0027617025
0.0037900404
0.0058478649
0.0085762681
0.0025003986
0.005943544
0.0085414235
0.0072819568
0.0064406624
0.0062236541
0.0066891562
0.0083328381
0.011475384
0.0062333152