/*--------------------------------*- C++ -*----------------------------------*\
| =========                 |                                                 |
| \\      /  F ield         | OpenFOAM: The Open Source CFD Toolbox           |
|  \\    /   O peration     | Version:  v2106                                 |
|   \\  /    A nd           | Website:  www.openfoam.com                      |
|    \\/     M anipulation  |                                                 |
\*---------------------------------------------------------------------------*/
FoamFile
{
    version     2.0;
    format      ascii;
    arch        "LSB;label=32;scalar=64";
    class       volScalarField;
    location    "25";
    object      gradTz;
}
// * * * * * * * * * * * * * * * * * * * * * * * * * * * * * * * * * * * * * //

dimensions      [0 -1 0 1 0 0 0];

internalField   nonuniform List<scalar> 
4000
(
801.2676
801.27087
801.26745
801.26648
801.26614
801.26619
801.26655
801.2671
801.26758
801.26761
801.27087
801.27091
801.26797
801.26708
801.26677
801.26684
801.26726
801.26793
801.26866
801.2686
801.26745
801.26797
801.26515
801.2643
801.26402
801.26412
801.26459
801.26541
801.26649
801.26705
801.26648
801.26708
801.2643
801.26349
801.26323
801.26337
801.26387
801.26473
801.26588
801.2665
801.26614
801.26677
801.26402
801.26323
801.263
801.26316
801.26369
801.26458
801.26575
801.26638
801.26619
801.26684
801.26412
801.26337
801.26316
801.26335
801.2639
801.2648
801.26599
801.26663
801.26655
801.26726
801.26459
801.26387
801.26369
801.2639
801.26446
801.26537
801.26656
801.2672
801.2671
801.26793
801.26541
801.26473
801.26458
801.2648
801.26537
801.26629
801.26747
801.2681
801.26758
801.26866
801.26649
801.26588
801.26575
801.26599
801.26656
801.26747
801.26862
801.26921
801.26761
801.2686
801.26705
801.2665
801.26638
801.26663
801.2672
801.2681
801.26921
801.26967
1606.838
1606.8411
1606.8358
1606.834
1606.8334
1606.8336
1606.8344
1606.8356
1606.8367
1606.8361
1606.8411
1606.8404
1606.8357
1606.834
1606.8335
1606.8337
1606.8345
1606.836
1606.8379
1606.8374
1606.8358
1606.8357
1606.8312
1606.8296
1606.8291
1606.8293
1606.8303
1606.832
1606.8345
1606.8351
1606.834
1606.834
1606.8296
1606.8281
1606.8276
1606.8279
1606.829
1606.8308
1606.8334
1606.8341
1606.8334
1606.8335
1606.8291
1606.8276
1606.8272
1606.8276
1606.8287
1606.8305
1606.8332
1606.8339
1606.8336
1606.8337
1606.8293
1606.8279
1606.8276
1606.828
1606.8291
1606.831
1606.8337
1606.8344
1606.8344
1606.8345
1606.8303
1606.829
1606.8287
1606.8291
1606.8302
1606.8321
1606.8348
1606.8356
1606.8356
1606.836
1606.832
1606.8308
1606.8305
1606.831
1606.8321
1606.834
1606.8367
1606.8374
1606.8367
1606.8379
1606.8345
1606.8334
1606.8332
1606.8337
1606.8348
1606.8367
1606.8393
1606.8399
1606.8361
1606.8374
1606.8351
1606.8341
1606.8339
1606.8344
1606.8356
1606.8374
1606.8399
1606.8398
1517.0604
1517.0606
1517.0568
1517.0555
1517.0551
1517.0554
1517.0562
1517.0576
1517.0592
1517.0586
1517.0606
1517.059
1517.0555
1517.0543
1517.054
1517.0543
1517.0552
1517.0569
1517.0594
1517.0591
1517.0568
1517.0555
1517.0523
1517.0511
1517.0508
1517.0512
1517.0521
1517.054
1517.057
1517.0576
1517.0555
1517.0543
1517.0511
1517.0501
1517.0498
1517.0502
1517.0512
1517.053
1517.0562
1517.0568
1517.0551
1517.054
1517.0508
1517.0498
1517.0496
1517.05
1517.051
1517.0529
1517.0561
1517.0567
1517.0554
1517.0543
1517.0512
1517.0502
1517.05
1517.0504
1517.0514
1517.0534
1517.0565
1517.0572
1517.0562
1517.0552
1517.0521
1517.0512
1517.051
1517.0514
1517.0525
1517.0545
1517.0577
1517.0584
1517.0576
1517.0569
1517.054
1517.053
1517.0529
1517.0534
1517.0545
1517.0564
1517.0596
1517.0603
1517.0592
1517.0594
1517.057
1517.0562
1517.0561
1517.0565
1517.0577
1517.0596
1517.0628
1517.0633
1517.0586
1517.0591
1517.0576
1517.0568
1517.0567
1517.0572
1517.0584
1517.0603
1517.0633
1517.0623
1435.9017
1435.9014
1435.8983
1435.8974
1435.8972
1435.8976
1435.8985
1435.9
1435.9021
1435.9022
1435.9014
1435.8997
1435.897
1435.8962
1435.896
1435.8964
1435.8974
1435.8991
1435.902
1435.9024
1435.8983
1435.897
1435.8944
1435.8936
1435.8935
1435.8939
1435.8949
1435.8967
1435.9
1435.9012
1435.8974
1435.8962
1435.8936
1435.8929
1435.8929
1435.8933
1435.8943
1435.8961
1435.8995
1435.9007
1435.8972
1435.896
1435.8935
1435.8929
1435.8928
1435.8933
1435.8943
1435.8961
1435.8995
1435.9007
1435.8976
1435.8964
1435.8939
1435.8933
1435.8933
1435.8937
1435.8947
1435.8966
1435.9
1435.9012
1435.8985
1435.8974
1435.8949
1435.8943
1435.8943
1435.8947
1435.8957
1435.8976
1435.901
1435.9023
1435.9
1435.8991
1435.8967
1435.8961
1435.8961
1435.8966
1435.8976
1435.8995
1435.9029
1435.9042
1435.9021
1435.902
1435.9
1435.8995
1435.8995
1435.9
1435.901
1435.9029
1435.9064
1435.9076
1435.9022
1435.9024
1435.9012
1435.9007
1435.9007
1435.9012
1435.9023
1435.9042
1435.9076
1435.9067
1361.7027
1361.7021
1361.6995
1361.699
1361.699
1361.6995
1361.7004
1361.7019
1361.704
1361.7046
1361.7021
1361.7005
1361.6983
1361.6978
1361.6979
1361.6984
1361.6993
1361.7009
1361.7037
1361.7046
1361.6995
1361.6983
1361.6962
1361.6958
1361.6959
1361.6964
1361.6973
1361.6989
1361.7021
1361.7036
1361.699
1361.6978
1361.6958
1361.6955
1361.6956
1361.696
1361.6969
1361.6986
1361.7018
1361.7033
1361.699
1361.6979
1361.6959
1361.6956
1361.6957
1361.6962
1361.697
1361.6987
1361.7019
1361.7034
1361.6995
1361.6984
1361.6964
1361.696
1361.6962
1361.6966
1361.6975
1361.6991
1361.7024
1361.7039
1361.7004
1361.6993
1361.6973
1361.6969
1361.697
1361.6975
1361.6984
1361.7
1361.7033
1361.7048
1361.7019
1361.7009
1361.6989
1361.6986
1361.6987
1361.6991
1361.7
1361.7017
1361.705
1361.7066
1361.704
1361.7037
1361.7021
1361.7018
1361.7019
1361.7024
1361.7033
1361.705
1361.7084
1361.71
1361.7046
1361.7046
1361.7036
1361.7033
1361.7034
1361.7039
1361.7048
1361.7066
1361.71
1361.7097
1293.2534
1293.2528
1293.2506
1293.2504
1293.2507
1293.2512
1293.252
1293.2534
1293.2554
1293.2561
1293.2528
1293.2513
1293.2496
1293.2495
1293.2497
1293.2502
1293.251
1293.2524
1293.2551
1293.2562
1293.2506
1293.2496
1293.248
1293.248
1293.2482
1293.2487
1293.2494
1293.2508
1293.2538
1293.2553
1293.2504
1293.2495
1293.248
1293.2479
1293.2482
1293.2486
1293.2493
1293.2507
1293.2536
1293.2552
1293.2507
1293.2497
1293.2482
1293.2482
1293.2484
1293.2489
1293.2496
1293.2509
1293.2538
1293.2553
1293.2512
1293.2502
1293.2487
1293.2486
1293.2489
1293.2493
1293.25
1293.2513
1293.2542
1293.2557
1293.252
1293.251
1293.2494
1293.2493
1293.2496
1293.25
1293.2507
1293.2521
1293.255
1293.2565
1293.2534
1293.2524
1293.2508
1293.2507
1293.2509
1293.2513
1293.2521
1293.2534
1293.2564
1293.2581
1293.2554
1293.2551
1293.2538
1293.2536
1293.2538
1293.2542
1293.255
1293.2564
1293.2595
1293.2613
1293.2561
1293.2562
1293.2553
1293.2552
1293.2553
1293.2557
1293.2565
1293.2581
1293.2613
1293.2613
1229.6521
1229.6515
1229.6499
1229.65
1229.6503
1229.6509
1229.6516
1229.6527
1229.6545
1229.6553
1229.6515
1229.6502
1229.649
1229.6492
1229.6496
1229.65
1229.6507
1229.6519
1229.6542
1229.6553
1229.6499
1229.649
1229.6479
1229.6481
1229.6485
1229.649
1229.6496
1229.6507
1229.6532
1229.6547
1229.65
1229.6492
1229.6481
1229.6483
1229.6487
1229.6491
1229.6497
1229.6507
1229.6531
1229.6546
1229.6503
1229.6496
1229.6485
1229.6487
1229.6491
1229.6495
1229.65
1229.6509
1229.6533
1229.6548
1229.6509
1229.65
1229.649
1229.6491
1229.6495
1229.6498
1229.6503
1229.6513
1229.6537
1229.6551
1229.6516
1229.6507
1229.6496
1229.6497
1229.65
1229.6503
1229.6508
1229.6518
1229.6542
1229.6557
1229.6527
1229.6519
1229.6507
1229.6507
1229.6509
1229.6513
1229.6518
1229.6528
1229.6553
1229.657
1229.6545
1229.6542
1229.6532
1229.6531
1229.6533
1229.6537
1229.6542
1229.6553
1229.658
1229.6598
1229.6553
1229.6553
1229.6547
1229.6546
1229.6548
1229.6551
1229.6557
1229.657
1229.6598
1229.66
1170.2129
1170.2124
1170.2112
1170.2116
1170.212
1170.2125
1170.2131
1170.214
1170.2154
1170.2162
1170.2124
1170.2114
1170.2106
1170.211
1170.2115
1170.2119
1170.2124
1170.2133
1170.2152
1170.2162
1170.2112
1170.2106
1170.21
1170.2104
1170.2109
1170.2112
1170.2117
1170.2124
1170.2144
1170.2158
1170.2116
1170.211
1170.2104
1170.2108
1170.2113
1170.2116
1170.212
1170.2126
1170.2145
1170.2158
1170.212
1170.2115
1170.2109
1170.2113
1170.2117
1170.212
1170.2123
1170.2129
1170.2147
1170.216
1170.2125
1170.2119
1170.2112
1170.2116
1170.212
1170.2123
1170.2125
1170.2131
1170.215
1170.2162
1170.2131
1170.2124
1170.2117
1170.212
1170.2123
1170.2125
1170.2128
1170.2134
1170.2153
1170.2166
1170.214
1170.2133
1170.2124
1170.2126
1170.2129
1170.2131
1170.2134
1170.214
1170.216
1170.2175
1170.2154
1170.2152
1170.2144
1170.2145
1170.2147
1170.215
1170.2153
1170.216
1170.2182
1170.2199
1170.2162
1170.2162
1170.2158
1170.2158
1170.216
1170.2162
1170.2166
1170.2175
1170.2199
1170.2202
1114.4053
1114.4049
1114.4042
1114.4047
1114.4052
1114.4057
1114.4061
1114.4066
1114.4078
1114.4084
1114.4049
1114.4041
1114.4038
1114.4044
1114.4049
1114.4053
1114.4056
1114.4061
1114.4076
1114.4085
1114.4042
1114.4038
1114.4035
1114.4042
1114.4047
1114.405
1114.4052
1114.4056
1114.4071
1114.4082
1114.4047
1114.4044
1114.4042
1114.4048
1114.4052
1114.4055
1114.4056
1114.4059
1114.4073
1114.4083
1114.4052
1114.4049
1114.4047
1114.4052
1114.4057
1114.4059
1114.406
1114.4062
1114.4075
1114.4085
1114.4057
1114.4053
1114.405
1114.4055
1114.4059
1114.4061
1114.4061
1114.4063
1114.4076
1114.4086
1114.4061
1114.4056
1114.4052
1114.4056
1114.406
1114.4061
1114.4061
1114.4063
1114.4077
1114.4087
1114.4066
1114.4061
1114.4056
1114.4059
1114.4062
1114.4063
1114.4063
1114.4066
1114.4081
1114.4092
1114.4078
1114.4076
1114.4071
1114.4073
1114.4075
1114.4076
1114.4077
1114.4081
1114.4097
1114.4112
1114.4084
1114.4085
1114.4082
1114.4083
1114.4085
1114.4086
1114.4087
1114.4092
1114.4112
1114.4115
1061.8131
1061.8128
1061.8125
1061.8132
1061.8138
1061.8141
1061.8143
1061.8146
1061.8154
1061.8159
1061.8128
1061.8124
1061.8124
1061.8131
1061.8137
1061.814
1061.8141
1061.8143
1061.8153
1061.816
1061.8125
1061.8124
1061.8125
1061.8132
1061.8138
1061.814
1061.814
1061.814
1061.8151
1061.8159
1061.8132
1061.8131
1061.8132
1061.814
1061.8145
1061.8146
1061.8145
1061.8145
1061.8153
1061.8161
1061.8138
1061.8137
1061.8138
1061.8145
1061.8149
1061.815
1061.8149
1061.8147
1061.8155
1061.8162
1061.8141
1061.814
1061.814
1061.8146
1061.815
1061.8151
1061.8149
1061.8147
1061.8155
1061.8162
1061.8143
1061.8141
1061.814
1061.8145
1061.8149
1061.8149
1061.8147
1061.8145
1061.8153
1061.816
1061.8146
1061.8143
1061.814
1061.8145
1061.8147
1061.8147
1061.8145
1061.8144
1061.8153
1061.8162
1061.8154
1061.8153
1061.8151
1061.8153
1061.8155
1061.8155
1061.8153
1061.8153
1061.8165
1061.8177
1061.8159
1061.816
1061.8159
1061.8161
1061.8162
1061.8162
1061.816
1061.8162
1061.8177
1061.8179
1012.1061
1012.106
1012.106
1012.1068
1012.1074
1012.1077
1012.1077
1012.1077
1012.1081
1012.1084
1012.106
1012.1058
1012.1061
1012.107
1012.1075
1012.1077
1012.1076
1012.1075
1012.1081
1012.1086
1012.106
1012.1061
1012.1065
1012.1074
1012.1079
1012.108
1012.1078
1012.1075
1012.1081
1012.1086
1012.1068
1012.107
1012.1074
1012.1082
1012.1087
1012.1087
1012.1084
1012.108
1012.1084
1012.1089
1012.1074
1012.1075
1012.1079
1012.1087
1012.1091
1012.1091
1012.1087
1012.1082
1012.1086
1012.1089
1012.1077
1012.1077
1012.108
1012.1087
1012.1091
1012.1091
1012.1086
1012.1081
1012.1084
1012.1088
1012.1077
1012.1076
1012.1078
1012.1084
1012.1087
1012.1086
1012.1082
1012.1077
1012.108
1012.1084
1012.1077
1012.1075
1012.1075
1012.108
1012.1082
1012.1081
1012.1077
1012.1072
1012.1077
1012.1082
1012.1081
1012.1081
1012.1081
1012.1084
1012.1086
1012.1084
1012.108
1012.1077
1012.1083
1012.1092
1012.1084
1012.1086
1012.1086
1012.1089
1012.1089
1012.1088
1012.1084
1012.1082
1012.1092
1012.1093
965.01955
965.0196
965.01994
965.02085
965.02142
965.02158
965.02143
965.02119
965.02129
965.02139
965.0196
965.01964
965.02023
965.02116
965.0217
965.02181
965.02155
965.02118
965.02138
965.02161
965.01994
965.02023
965.02089
965.0218
965.02231
965.02234
965.02195
965.0214
965.02151
965.02177
965.02085
965.02116
965.0218
965.02269
965.02315
965.0231
965.02261
965.02191
965.02186
965.02201
965.02142
965.0217
965.02231
965.02315
965.02354
965.02344
965.02287
965.02208
965.02195
965.02204
965.02158
965.02181
965.02234
965.0231
965.02344
965.02328
965.02267
965.02184
965.02168
965.02175
965.02143
965.02155
965.02195
965.02261
965.02287
965.02267
965.02204
965.02121
965.02108
965.02119
965.02119
965.02118
965.0214
965.02191
965.02208
965.02184
965.02121
965.02044
965.02042
965.02069
965.02129
965.02138
965.02151
965.02186
965.02195
965.02168
965.02108
965.02042
965.02064
965.02122
965.02139
965.02161
965.02177
965.02201
965.02204
965.02175
965.02119
965.02069
965.02122
965.02122
920.33961
920.33978
920.34039
920.34134
920.34188
920.34195
920.34164
920.34117
920.34097
920.3409
920.33978
920.34003
920.34085
920.34182
920.34233
920.34234
920.34191
920.34129
920.34113
920.34115
920.34039
920.34085
920.34171
920.34266
920.34312
920.34306
920.34251
920.3417
920.34141
920.34141
920.34134
920.34182
920.34266
920.34357
920.34399
920.34384
920.34319
920.34223
920.34178
920.34166
920.34188
920.34233
920.34312
920.34399
920.34434
920.34413
920.3434
920.34236
920.34182
920.34164
920.34195
920.34234
920.34306
920.34384
920.34413
920.34387
920.34309
920.342
920.34144
920.34124
920.34164
920.34191
920.34251
920.34319
920.3434
920.34309
920.34229
920.3412
920.34067
920.3405
920.34117
920.34129
920.3417
920.34223
920.34236
920.342
920.3412
920.34017
920.33973
920.33971
920.34097
920.34113
920.34141
920.34178
920.34182
920.34144
920.34067
920.33973
920.33953
920.33983
920.3409
920.34115
920.34141
920.34166
920.34164
920.34124
920.3405
920.33971
920.33983
920.3397
877.89222
877.89249
877.89333
877.8943
877.89479
877.89477
877.89432
877.89365
877.89319
877.89296
877.89249
877.89293
877.89393
877.89491
877.89537
877.89529
877.89472
877.89389
877.89341
877.89323
877.89333
877.89393
877.89495
877.8959
877.89632
877.89616
877.89547
877.89445
877.89381
877.89356
877.8943
877.89491
877.8959
877.89682
877.89718
877.89694
877.89615
877.89498
877.89419
877.89382
877.89479
877.89537
877.89632
877.89718
877.89748
877.89718
877.89631
877.89505
877.89417
877.89374
877.89477
877.89529
877.89616
877.89694
877.89718
877.89682
877.8959
877.89461
877.8937
877.89325
877.89432
877.89472
877.89547
877.89615
877.89631
877.8959
877.89496
877.89366
877.89277
877.89236
877.89365
877.89389
877.89445
877.89498
877.89505
877.89461
877.89366
877.8924
877.89161
877.89134
877.89319
877.89341
877.89381
877.89419
877.89417
877.8937
877.89277
877.89161
877.89104
877.89108
877.89296
877.89323
877.89356
877.89382
877.89374
877.89325
877.89236
877.89134
877.89108
877.89083
837.53505
837.5354
837.53641
837.53738
837.53782
837.53771
837.53714
837.53629
837.53561
837.53524
837.5354
837.53599
837.53713
837.53809
837.53849
837.53832
837.53764
837.53663
837.53587
837.53552
837.53641
837.53713
837.53827
837.5392
837.53955
837.53931
837.5385
837.53731
837.53638
837.53592
837.53738
837.53809
837.5392
837.54008
837.54038
837.54007
837.53916
837.53783
837.53674
837.53617
837.53782
837.53849
837.53955
837.54038
837.54063
837.54025
837.53927
837.53785
837.53668
837.53604
837.53771
837.53832
837.53931
837.54007
837.54025
837.53981
837.53878
837.53732
837.53612
837.53547
837.53714
837.53764
837.5385
837.53916
837.53927
837.53878
837.53772
837.53626
837.53508
837.53445
837.53629
837.53663
837.53731
837.53783
837.53785
837.53732
837.53626
837.53484
837.53374
837.53324
837.53561
837.53587
837.53638
837.53674
837.53668
837.53612
837.53508
837.53374
837.53285
837.53266
837.53524
837.53552
837.53592
837.53617
837.53604
837.53547
837.53445
837.53324
837.53266
837.53229
799.15115
799.15155
799.1527
799.15364
799.15401
799.15382
799.15315
799.15217
799.1513
799.15082
799.15155
799.15227
799.1535
799.15442
799.15476
799.15451
799.15373
799.15259
799.1516
799.1511
799.1527
799.1535
799.15472
799.1556
799.1559
799.15558
799.15469
799.15336
799.15218
799.15154
799.15364
799.15442
799.1556
799.15644
799.15668
799.1563
799.15531
799.15385
799.15253
799.15177
799.15401
799.15476
799.1559
799.15668
799.15686
799.15641
799.15535
799.15382
799.15242
799.15161
799.15382
799.15451
799.15558
799.1563
799.15641
799.15591
799.1548
799.15323
799.15179
799.15097
799.15315
799.15373
799.15469
799.15531
799.15535
799.1548
799.15367
799.15209
799.15067
799.14986
799.15217
799.15259
799.15336
799.15385
799.15382
799.15323
799.15209
799.15054
799.1492
799.14851
799.1513
799.1516
799.15218
799.15253
799.15242
799.15179
799.15067
799.1492
799.14804
799.14764
799.15082
799.1511
799.15154
799.15177
799.15161
799.15097
799.14986
799.14851
799.14764
799.14717
762.6441
762.64454
762.6458
762.64668
762.64699
762.64673
762.64598
762.6449
762.64387
762.6433
762.64454
762.64535
762.64664
762.6475
762.64777
762.64746
762.64661
762.64537
762.64419
762.64357
762.6458
762.64664
762.64791
762.64874
762.64896
762.64859
762.64763
762.64621
762.64484
762.64405
762.64668
762.6475
762.64874
762.64951
762.64969
762.64924
762.6482
762.64666
762.64515
762.64426
762.64699
762.64777
762.64896
762.64969
762.6498
762.6493
762.64819
762.64658
762.645
762.64405
762.64673
762.64746
762.64859
762.64924
762.6493
762.64875
762.64759
762.64594
762.64433
762.64337
762.64598
762.64661
762.64763
762.6482
762.64819
762.64759
762.64641
762.64475
762.64315
762.64221
762.6449
762.64537
762.64621
762.64666
762.64658
762.64594
762.64475
762.64312
762.64159
762.64075
762.64387
762.64419
762.64484
762.64515
762.645
762.64433
762.64315
762.64159
762.64022
762.63964
762.6433
762.64357
762.64405
762.64426
762.64405
762.64337
762.64221
762.64075
762.63964
762.6391
727.93424
727.93469
727.93603
727.93684
727.93707
727.93675
727.93595
727.9348
727.93366
727.93302
727.93469
727.93557
727.93689
727.93768
727.93788
727.93751
727.93662
727.9353
727.93398
727.93326
727.93603
727.93689
727.93819
727.93893
727.93909
727.93866
727.93767
727.9362
727.93467
727.93377
727.93684
727.93768
727.93893
727.93963
727.93974
727.93925
727.93818
727.9366
727.93495
727.93395
727.93707
727.93788
727.93909
727.93974
727.93979
727.93925
727.93812
727.93648
727.93476
727.93371
727.93675
727.93751
727.93866
727.93925
727.93925
727.93866
727.93749
727.93581
727.93406
727.933
727.93595
727.93662
727.93767
727.93818
727.93812
727.93749
727.93628
727.9346
727.93286
727.93181
727.9348
727.9353
727.9362
727.9366
727.93648
727.93581
727.9346
727.93293
727.93125
727.93029
727.93366
727.93398
727.93467
727.93495
727.93476
727.93406
727.93286
727.93125
727.92971
727.92899
727.93302
727.93326
727.93377
727.93395
727.93371
727.933
727.93181
727.93029
727.92899
727.9284
694.95557
694.95602
694.9574
694.95813
694.95829
694.95792
694.95707
694.95588
694.95466
694.95399
694.95602
694.95693
694.95826
694.95896
694.95909
694.95868
694.95775
694.95641
694.95498
694.9542
694.9574
694.95826
694.95955
694.96021
694.96029
694.95983
694.95882
694.95734
694.9557
694.95471
694.95813
694.95896
694.96021
694.96082
694.96086
694.96034
694.95926
694.95769
694.95594
694.95486
694.95829
694.95909
694.96029
694.96086
694.96086
694.96029
694.95916
694.95752
694.95572
694.9546
694.95792
694.95868
694.95983
694.96034
694.96029
694.95968
694.95851
694.95684
694.95501
694.95388
694.95707
694.95775
694.95882
694.95926
694.95916
694.95851
694.95731
694.95563
694.95381
694.95269
694.95588
694.95641
694.95734
694.95769
694.95752
694.95684
694.95563
694.95397
694.95219
694.95115
694.95466
694.95498
694.9557
694.95594
694.95572
694.95501
694.95381
694.95219
694.95054
694.9497
694.95399
694.9542
694.95471
694.95486
694.9546
694.95388
694.95269
694.95115
694.9497
694.94908
663.65332
663.65375
663.65515
663.65579
663.65587
663.65546
663.65461
663.6534
663.65213
663.65144
663.65375
663.65468
663.65599
663.65659
663.65665
663.65621
663.65528
663.65393
663.65243
663.65161
663.65515
663.65599
663.65726
663.65781
663.65783
663.65734
663.65634
663.65487
663.65317
663.65212
663.65579
663.65659
663.65781
663.65833
663.65831
663.65777
663.65671
663.65516
663.65337
663.65225
663.65587
663.65665
663.65783
663.65831
663.65825
663.65767
663.65656
663.65496
663.65312
663.65197
663.65546
663.65621
663.65734
663.65777
663.65767
663.65705
663.65591
663.65428
663.65242
663.65125
663.65461
663.65528
663.65634
663.65671
663.65656
663.65591
663.65475
663.65311
663.65125
663.65009
663.6534
663.65393
663.65487
663.65516
663.65496
663.65428
663.65311
663.65148
663.64965
663.64855
663.65213
663.65243
663.65317
663.65337
663.65312
663.65242
663.65125
663.64965
663.64792
663.647
663.65144
663.65161
663.65212
663.65225
663.65197
663.65125
663.65009
663.64855
663.647
663.64637
633.98197
633.98235
633.98376
633.98429
633.98431
633.98387
633.98301
633.98182
633.98054
633.97984
633.98235
633.98328
633.98456
633.98505
633.98504
633.98458
633.98366
633.98234
633.9808
633.97997
633.98376
633.98456
633.98578
633.98623
633.98619
633.98568
633.98471
633.98328
633.98155
633.98048
633.98429
633.98505
633.98623
633.98665
633.98657
633.98602
633.985
633.98351
633.9817
633.98057
633.98431
633.98504
633.98619
633.98657
633.98645
633.98587
633.98481
633.98329
633.98144
633.98028
633.98387
633.98458
633.98568
633.98602
633.98587
633.98526
633.98417
633.98262
633.98075
633.97958
633.98301
633.98366
633.98471
633.985
633.98481
633.98417
633.98307
633.98151
633.97964
633.97847
633.98182
633.98234
633.98328
633.98351
633.98329
633.98262
633.98151
633.97995
633.9781
633.97698
633.98054
633.9808
633.98155
633.9817
633.98144
633.98075
633.97964
633.9781
633.97633
633.97536
633.97984
633.97997
633.98048
633.98057
633.98028
633.97958
633.97847
633.97698
633.97536
633.97473
605.90354
605.90387
605.90525
605.90568
605.90563
605.90518
605.90434
605.90318
605.9019
605.90122
605.90387
605.90477
605.906
605.90639
605.90631
605.90583
605.90495
605.90368
605.90213
605.9013
605.90525
605.906
605.90716
605.90751
605.9074
605.90689
605.90597
605.90461
605.90287
605.9018
605.90568
605.90639
605.90751
605.90782
605.90769
605.90714
605.90618
605.90478
605.90299
605.90187
605.90563
605.90631
605.9074
605.90769
605.90752
605.90695
605.90596
605.90453
605.90271
605.90157
605.90518
605.90583
605.90689
605.90714
605.90695
605.90636
605.90534
605.90389
605.90206
605.90091
605.90434
605.90495
605.90597
605.90618
605.90596
605.90534
605.90431
605.90285
605.90101
605.89987
605.90318
605.90368
605.90461
605.90478
605.90453
605.90389
605.90285
605.90139
605.89956
605.89844
605.9019
605.90213
605.90287
605.90299
605.90271
605.90206
605.90101
605.89956
605.89779
605.89679
605.90122
605.9013
605.9018
605.90187
605.90157
605.90091
605.89987
605.89844
605.89679
605.89619
579.38625
579.3865
579.38786
579.38818
579.38806
579.38759
579.38679
579.38569
579.38445
579.3838
579.3865
579.38737
579.38854
579.38881
579.38867
579.38819
579.38736
579.38615
579.38463
579.38383
579.38786
579.38854
579.38962
579.38986
579.3897
579.38919
579.38833
579.38706
579.38536
579.38431
579.38818
579.38881
579.38986
579.39007
579.38988
579.38935
579.38847
579.38717
579.38543
579.38435
579.38806
579.38867
579.3897
579.38988
579.38967
579.38913
579.38822
579.38691
579.38515
579.38405
579.38759
579.38819
579.38919
579.38935
579.38913
579.38856
579.38764
579.38631
579.38454
579.38344
579.38679
579.38736
579.38833
579.38847
579.38822
579.38764
579.3867
579.38536
579.38359
579.38248
579.38569
579.38615
579.38706
579.38717
579.38691
579.38631
579.38536
579.38402
579.38225
579.38115
579.38445
579.38463
579.38536
579.38543
579.38515
579.38454
579.38359
579.38225
579.3805
579.37949
579.3838
579.38383
579.38431
579.38435
579.38405
579.38344
579.38248
579.38115
579.37949
579.37894
554.40328
554.40346
554.40477
554.40498
554.4048
554.40433
554.40358
554.40255
554.40136
554.40076
554.40346
554.40427
554.40536
554.40552
554.40533
554.40485
554.40408
554.40297
554.40149
554.40073
554.40477
554.40536
554.40637
554.4065
554.40628
554.40579
554.40501
554.40385
554.4022
554.40119
554.40498
554.40552
554.4065
554.4066
554.40637
554.40586
554.40507
554.4039
554.40224
554.4012
554.4048
554.40533
554.40628
554.40637
554.40612
554.40561
554.4048
554.40363
554.40195
554.40092
554.40433
554.40485
554.40579
554.40586
554.40561
554.40508
554.40426
554.40308
554.4014
554.40036
554.40358
554.40408
554.40501
554.40507
554.4048
554.40426
554.40343
554.40224
554.40056
554.39951
554.40255
554.40297
554.40385
554.4039
554.40363
554.40308
554.40224
554.40104
554.39935
554.3983
554.40136
554.40149
554.4022
554.40224
554.40195
554.4014
554.40056
554.39935
554.39766
554.39666
554.40076
554.40073
554.40119
554.4012
554.40092
554.40036
554.39951
554.3983
554.39666
554.39617
530.9318
530.93189
530.93315
530.93325
530.93301
530.93255
530.93186
530.93092
530.9298
530.92926
530.93189
530.93265
530.93365
530.9337
530.93346
530.93299
530.9323
530.93129
530.92988
530.92918
530.93315
530.93365
530.93457
530.93459
530.93433
530.93386
530.93316
530.93213
530.93057
530.92961
530.93325
530.9337
530.93459
530.93458
530.93432
530.93384
530.93315
530.93213
530.93056
530.9296
530.93301
530.93346
530.93433
530.93432
530.93404
530.93356
530.93287
530.93185
530.93029
530.92933
530.93255
530.93299
530.93386
530.93384
530.93356
530.93309
530.93238
530.93136
530.9298
530.92884
530.93186
530.9323
530.93316
530.93315
530.93287
530.93238
530.93168
530.93065
530.92907
530.92811
530.93092
530.93129
530.93213
530.93213
530.93185
530.93136
530.93065
530.92961
530.92801
530.92703
530.9298
530.92988
530.93057
530.93056
530.93029
530.9298
530.92907
530.92801
530.9264
530.92543
530.92926
530.92918
530.92961
530.9296
530.92933
530.92884
530.92811
530.92703
530.92543
530.92502
508.95204
508.95204
508.95323
508.95322
508.95294
508.9525
508.95188
508.95104
508.95
508.94954
508.95204
508.95272
508.95364
508.95358
508.95329
508.95285
508.95224
508.95135
508.95002
508.94939
508.95323
508.95364
508.95446
508.95438
508.95408
508.95364
508.95304
508.95215
508.95069
508.9498
508.95322
508.95358
508.95438
508.95427
508.95397
508.95354
508.95296
508.95209
508.95064
508.94977
508.95294
508.95329
508.95408
508.95397
508.95367
508.95324
508.95267
508.95182
508.95038
508.94952
508.9525
508.95285
508.95364
508.95354
508.95324
508.95282
508.95225
508.9514
508.94997
508.94911
508.95188
508.95224
508.95304
508.95296
508.95267
508.95225
508.95167
508.95082
508.94937
508.9485
508.95104
508.95135
508.95215
508.95209
508.95182
508.9514
508.95082
508.94995
508.94848
508.94757
508.95
508.95002
508.95069
508.95064
508.95038
508.94997
508.94937
508.94848
508.94697
508.94604
508.94954
508.94939
508.9498
508.94977
508.94952
508.94911
508.9485
508.94757
508.94604
508.94572
488.44651
488.44641
488.44753
488.44742
488.4471
488.44668
488.44614
488.44542
488.44448
488.4441
488.44641
488.44702
488.44784
488.44768
488.44735
488.44694
488.44642
488.44566
488.44443
488.44389
488.44753
488.44784
488.44857
488.44838
488.44805
488.44765
488.44716
488.44642
488.44507
488.44427
488.44742
488.44768
488.44838
488.44818
488.44785
488.44747
488.447
488.44631
488.445
488.44422
488.4471
488.44735
488.44805
488.44785
488.44753
488.44716
488.44671
488.44604
488.44475
488.444
488.44668
488.44694
488.44765
488.44747
488.44716
488.4468
488.44636
488.4457
488.44442
488.44367
488.44614
488.44642
488.44716
488.447
488.44671
488.44636
488.44593
488.44526
488.44397
488.4432
488.44542
488.44566
488.44642
488.44631
488.44604
488.4457
488.44526
488.44458
488.44324
488.44243
488.44448
488.44443
488.44507
488.445
488.44475
488.44442
488.44397
488.44324
488.44185
488.44099
488.4441
488.44389
488.44427
488.44422
488.444
488.44367
488.4432
488.44243
488.44099
488.44076
469.39929
469.39909
469.40014
469.39993
469.39956
469.39917
469.39872
469.39812
469.39729
469.397
469.39909
469.39961
469.40034
469.40008
469.39971
469.39934
469.39892
469.39831
469.39719
469.39674
469.40014
469.40034
469.40097
469.40068
469.40032
469.39997
469.3996
469.39902
469.3978
469.3971
469.39993
469.40008
469.40068
469.40039
469.40004
469.39971
469.39938
469.39886
469.39769
469.39703
469.39956
469.39971
469.40032
469.40004
469.3997
469.3994
469.39909
469.39861
469.39748
469.39684
469.39917
469.39934
469.39997
469.39971
469.3994
469.39911
469.39882
469.39835
469.39723
469.3966
469.39872
469.39892
469.3996
469.39938
469.39909
469.39882
469.39853
469.39806
469.39693
469.39628
469.39812
469.39831
469.39902
469.39886
469.39861
469.39835
469.39806
469.39757
469.39639
469.39568
469.39729
469.39719
469.3978
469.39769
469.39748
469.39723
469.39693
469.39639
469.39512
469.39434
469.397
469.39674
469.3971
469.39703
469.39684
469.3966
469.39628
469.39568
469.39434
469.39421
451.79536
451.79506
451.79603
451.79573
451.79534
451.79498
451.79463
451.79417
451.79346
451.79326
451.79506
451.7955
451.79613
451.79577
451.79538
451.79506
451.79475
451.79428
451.79329
451.79294
451.79603
451.79613
451.79666
451.79629
451.79591
451.79561
451.79536
451.79495
451.79387
451.79327
451.79573
451.79577
451.79629
451.79591
451.79555
451.79528
451.79508
451.79475
451.79374
451.7932
451.79534
451.79538
451.79591
451.79555
451.7952
451.79497
451.7948
451.79452
451.79355
451.79305
451.79498
451.79506
451.79561
451.79528
451.79497
451.79476
451.79462
451.79435
451.7934
451.7929
451.79463
451.79475
451.79536
451.79508
451.7948
451.79462
451.79448
451.79422
451.79325
451.79273
451.79417
451.79428
451.79495
451.79475
451.79452
451.79435
451.79422
451.79392
451.7929
451.79231
451.79346
451.79329
451.79387
451.79374
451.79355
451.7934
451.79325
451.7929
451.79178
451.79108
451.79326
451.79294
451.79327
451.7932
451.79305
451.7929
451.79273
451.79231
451.79108
451.79106
435.62006
435.61966
435.62056
435.62017
435.61975
435.61945
435.6192
435.61887
435.61829
435.6182
435.61966
435.62001
435.62055
435.62011
435.6197
435.61943
435.61923
435.61892
435.61806
435.61782
435.62056
435.62055
435.62098
435.62053
435.62013
435.6199
435.61978
435.61954
435.61861
435.61813
435.62017
435.62011
435.62053
435.62007
435.61971
435.61951
435.61945
435.61931
435.61847
435.61805
435.61975
435.6197
435.62013
435.61971
435.61936
435.61921
435.61919
435.61911
435.61832
435.61794
435.61945