/*--------------------------------*- C++ -*----------------------------------*\
| =========                 |                                                 |
| \\      /  F ield         | OpenFOAM: The Open Source CFD Toolbox           |
|  \\    /   O peration     | Version:  v2106                                 |
|   \\  /    A nd           | Website:  www.openfoam.com                      |
|    \\/     M anipulation  |                                                 |
\*---------------------------------------------------------------------------*/
FoamFile
{
    version     2.0;
    format      ascii;
    arch        "LSB;label=32;scalar=64";
    class       volScalarField;
    location    "25";
    object      laplacianT;
}
// * * * * * * * * * * * * * * * * * * * * * * * * * * * * * * * * * * * * * //

dimensions      [0 -2 0 1 0 0 0];

internalField   nonuniform List<scalar> 
4000
(
127928.45
127928.36
127928.22
127928
127927.94
127927.95
127928
127928.09
127928.16
127928.17
127928.36
127928.44
127928.16
127927.97
127927.91
127927.92
127927.99
127928.09
127928.19
127928.18
127928.22
127928.16
127927.92
127927.74
127927.69
127927.7
127927.78
127927.9
127928.06
127928.08
127928
127927.97
127927.74
127927.56
127927.51
127927.53
127927.61
127927.75
127927.92
127927.96
127927.94
127927.91
127927.69
127927.51
127927.47
127927.5
127927.58
127927.72
127927.89
127927.94
127927.95
127927.92
127927.7
127927.53
127927.5
127927.53
127927.61
127927.75
127927.93
127927.98
127928
127927.99
127927.78
127927.61
127927.58
127927.61
127927.7
127927.84
127928.02
127928.07
127928.09
127928.09
127927.9
127927.75
127927.72
127927.75
127927.84
127927.98
127928.16
127928.21
127928.16
127928.19
127928.06
127927.92
127927.89
127927.93
127928.02
127928.16
127928.33
127928.37
127928.17
127928.18
127928.08
127927.96
127927.94
127927.98
127928.07
127928.21
127928.37
127928.4
-9455.5834
-9458.7447
-9456.5443
-9456.8377
-9456.869
-9456.8732
-9456.8819
-9456.8955
-9456.9127
-9456.935
-9458.7447
-9458.8915
-9457.6745
-9457.9374
-9457.9622
-9457.9659
-9457.9764
-9458.0064
-9458.1212
-9457.764
-9456.5443
-9457.6745
-9456.3656
-9456.6143
-9456.6378
-9456.6411
-9456.6489
-9456.6759
-9456.8905
-9457.0512
-9456.8377
-9457.9374
-9456.6143
-9456.8615
-9456.8855
-9456.889
-9456.8948
-9456.9068
-9457.0701
-9457.1381
-9456.869
-9457.9622
-9456.6378
-9456.8855
-9456.91
-9456.9142
-9456.9207
-9456.9328
-9457.0932
-9457.1513
-9456.8732
-9457.9659
-9456.6411
-9456.889
-9456.9142
-9456.919
-9456.9261
-9456.9388
-9457.0998
-9457.1575
-9456.8819
-9457.9764
-9456.6489
-9456.8948
-9456.9207
-9456.9261
-9456.9336
-9456.9465
-9457.1077
-9457.1658
-9456.8955
-9458.0064
-9456.6759
-9456.9068
-9456.9328
-9456.9388
-9456.9465
-9456.9595
-9457.1208
-9457.1805
-9456.9127
-9458.1212
-9456.8905
-9457.0701
-9457.0932
-9457.0998
-9457.1077
-9457.1208
-9457.2828
-9457.3483
-9456.935
-9457.764
-9457.0512
-9457.1381
-9457.1513
-9457.1575
-9457.1658
-9457.1805
-9457.3483
-9457.41
-8497.1784
-8500.7249
-8497.8753
-8498.329
-8498.3833
-8498.3898
-8498.3992
-8498.4224
-8498.5077
-8497.9781
-8500.7249
-8500.494
-8498.9479
-8499.3543
-8499.3982
-8499.4022
-8499.4099
-8499.4691
-8499.9654
-8499.1
-8497.8753
-8498.9479
-8497.272
-8497.6577
-8497.6992
-8497.7011
-8497.6977
-8497.7216
-8498.3348
-8498.2011
-8498.329
-8499.3543
-8497.6577
-8498.0408
-8498.0824
-8498.0844
-8498.0769
-8498.0726
-8498.5998
-8498.3251
-8498.3833
-8499.3982
-8497.6992
-8498.0824
-8498.1246
-8498.1272
-8498.1205
-8498.1155
-8498.637
-8498.3452
-8498.3898
-8499.4022
-8497.7011
-8498.0844
-8498.1272
-8498.1304
-8498.1243
-8498.1199
-8498.6419
-8498.3493
-8498.3992
-8499.4099
-8497.6977
-8498.0769
-8498.1205
-8498.1243
-8498.1185
-8498.1144
-8498.6369
-8498.3459
-8498.4224
-8499.4691
-8497.7216
-8498.0726
-8498.1155
-8498.1199
-8498.1144
-8498.1108
-8498.6346
-8498.3531
-8498.5077
-8499.9654
-8498.3348
-8498.5998
-8498.637
-8498.6419
-8498.6369
-8498.6346
-8499.1649
-8498.9259
-8497.9781
-8499.1
-8498.2011
-8498.3251
-8498.3452
-8498.3493
-8498.3459
-8498.3531
-8498.9259
-8498.2435
-7731.6782
-7735.6388
-7732.207
-7732.8135
-7732.89
-7732.8981
-7732.906
-7732.9444
-7733.2411
-7732.5036
-7735.6388
-7735.1528
-7733.3222
-7733.8654
-7733.9275
-7733.9298
-7733.9256
-7733.9863
-7734.9439
-7733.8219
-7732.207
-7733.3222
-7731.3245
-7731.8403
-7731.8991
-7731.8981
-7731.8753
-7731.8693
-7732.9654
-7732.7645
-7732.8135
-7733.8654
-7731.8403
-7732.3525
-7732.4112
-7732.41
-7732.3812
-7732.3336
-7733.3109
-7732.9245
-7732.89
-7733.9275
-7731.8991
-7732.4112
-7732.4703
-7732.4698
-7732.4419
-7732.3927
-7733.3613
-7732.9513
-7732.8981
-7733.9298
-7731.8981
-7732.41
-7732.4698
-7732.4699
-7732.4426
-7732.3941
-7733.3632
-7732.9517
-7732.906
-7733.9256
-7731.8753
-7732.3812
-7732.4419
-7732.4426
-7732.4156
-7732.3675
-7733.3373
-7732.9294
-7732.9444
-7733.9863
-7731.8693
-7732.3336
-7732.3927
-7732.3941
-7732.3675
-7732.3201
-7733.2937
-7732.9126
-7733.2411
-7734.9439
-7732.9654
-7733.3109
-7733.3613
-7733.3632
-7733.3373
-7733.2937
-7734.2907
-7734.0727
-7732.5036
-7733.8219
-7732.7645
-7732.9245
-7732.9513
-7732.9517
-7732.9294
-7732.9126
-7734.0727
-7732.6007
-7105.3979
-7109.6583
-7105.7201
-7106.4781
-7106.5762
-7106.5846
-7106.5856
-7106.619
-7107.0907
-7106.2298
-7109.6583
-7108.8971
-7106.839
-7107.517
-7107.5967
-7107.5958
-7107.5732
-7107.6086
-7108.9692
-7107.7042
-7105.7201
-7106.839
-7104.5752
-7105.2193
-7105.2946
-7105.2894
-7105.2409
-7105.1774
-7106.6927
-7106.5113
-7106.4781
-7107.517
-7105.2193
-7105.8587
-7105.9337
-7105.9283
-7105.8719
-7105.7533
-7107.1177
-7106.7068
-7106.5762
-7107.5967
-7105.2946
-7105.9337
-7106.0091
-7106.0044
-7105.9492
-7105.8281
-7107.1811
-7106.7398
-7106.5846
-7107.5958
-7105.2894
-7105.9283
-7106.0044
-7106.0002
-7105.9456
-7105.8253
-7107.1787
-7106.7353
-7106.5856
-7107.5732
-7105.2409
-7105.8719
-7105.9492
-7105.9456
-7105.8913
-7105.7713
-7107.1252
-7106.6872
-7106.619
-7107.6086
-7105.1774
-7105.7533
-7105.8281
-7105.8253
-7105.7713
-7105.6519
-7107.0114
-7106.6204
-7107.0907
-7108.9692
-7106.6927
-7107.1177
-7107.1811
-7107.1787
-7107.1252
-7107.0114
-7108.4128
-7108.3561
-7106.2298
-7107.7042
-7106.5113
-7106.7068
-7106.7398
-7106.7353
-7106.6872
-7106.6204
-7108.3561
-7106.2331
-6581.9382
-6586.401
-6582.0347
-6582.9422
-6583.0612
-6583.069
-6583.0609
-6583.0803
-6583.6987
-6582.7606
-6586.401
-6585.3598
-6583.1304
-6583.9408
-6584.0371
-6584.0321
-6583.9877
-6583.9837
-6585.6928
-6584.3633
-6582.0347
-6583.1304
-6580.6566
-6581.4263
-6581.5174
-6581.5071
-6581.4296
-6581.294
-6583.1664
-6583.0569
-6582.9422
-6583.9408
-6581.4263
-6582.1901
-6582.2808
-6582.2702
-6582.1833
-6581.9793
-6583.6695
-6583.2872
-6583.0612
-6584.0371
-6581.5174
-6582.2808
-6582.3719
-6582.3621
-6582.2765
-6582.0694
-6583.7454
-6583.3261
-6583.069
-6584.0321
-6581.5071
-6582.2702
-6582.3621
-6582.3529
-6582.268
-6582.0617
-6583.738
-6583.3159
-6583.0609
-6583.9877
-6581.4296
-6582.1833
-6582.2765
-6582.268
-6582.1833
-6581.977
-6583.6536
-6583.2382
-6583.0803
-6583.9837
-6581.294
-6581.9793
-6582.0694
-6582.0617
-6581.977
-6581.7712
-6583.454
-6583.1062
-6583.6987
-6585.6928
-6583.1664
-6583.6695
-6583.7454
-6583.738
-6583.6536
-6583.454
-6585.1959
-6585.3686
-6582.7606
-6584.3633
-6583.0569
-6583.2872
-6583.3261
-6583.3159
-6583.2382
-6583.1062
-6585.3686
-6582.7245
-6136.0552
-6140.6504
-6135.9299
-6136.9824
-6137.1215
-6137.128
-6137.1092
-6137.109
-6137.8499
-6136.8656
-6140.6504
-6139.3437
-6136.9934
-6137.9315
-6138.0436
-6138.0336
-6137.9651
-6137.912
-6139.9179
-6138.5753
-6135.9299
-6136.9934
-6134.3599
-6135.2508
-6135.3568
-6135.3407
-6135.2322
-6135.0149
-6137.1856
-6137.1761
-6136.9824
-6137.9315
-6135.2508
-6136.1346
-6136.2401
-6136.2239
-6136.1044
-6135.8061
-6137.7645
-6137.44
-6137.1215
-6138.0436
-6135.3568
-6136.2401
-6136.346
-6136.3307
-6136.2129
-6135.9107
-6137.8524
-6137.4844
-6137.128
-6138.0336
-6135.3407
-6136.2239
-6136.3307
-6136.3159
-6136.1989
-6135.8976
-6137.8395
-6137.4678
-6137.1092
-6137.9651
-6135.2322
-6136.1044
-6136.2129
-6136.1989
-6136.082
-6135.7805
-6137.7222
-6137.3582
-6137.109
-6137.912
-6135.0149
-6135.8061
-6135.9107
-6135.8976
-6135.7805
-6135.4787
-6137.4269
-6137.1507
-6137.8499
-6139.9179
-6137.1856
-6137.7645
-6137.8524
-6137.8395
-6137.7222
-6137.4269
-6139.4496
-6139.8843
-6136.8656
-6138.5753
-6137.1761
-6137.44
-6137.4844
-6137.4678
-6137.3582
-6137.1507
-6139.8843
-6136.825
-5749.7652
-5754.4421
-5749.4354
-5750.6266
-5750.7845
-5750.7892
-5750.7585
-5750.7342
-5751.5753
-5750.5645
-5754.4421
-5752.8963
-5750.4682
-5751.5279
-5751.6547
-5751.6391
-5751.5448
-5751.4351
-5753.689
-5752.3649
-5749.4354
-5750.4682
-5747.7195
-5748.7254
-5748.8453
-5748.823
-5748.6823
-5748.3768
-5750.7911
-5750.8914
-5750.6266
-5751.5279
-5748.7254
-5749.7233
-5749.8425
-5749.8202
-5749.6673
-5749.2687
-5751.4423
-5751.1873
-5750.7845
-5751.6547
-5748.8453
-5749.8425
-5749.9622
-5749.941
-5749.79
-5749.3872
-5751.5416
-5751.2368
-5750.7892
-5751.6391
-5748.823
-5749.8202
-5749.941
-5749.9203
-5749.7703
-5749.3683
-5751.5229
-5751.2135
-5750.7585
-5751.5448
-5748.6823
-5749.6673
-5749.79
-5749.7703
-5749.6203
-5749.2177
-5751.3715
-5751.0706
-5750.7342
-5751.4351
-5748.3768
-5749.2687
-5749.3872
-5749.3683
-5749.2177
-5748.8141
-5750.9739
-5750.7803
-5751.5753
-5753.689
-5750.7911
-5751.4423
-5751.5416
-5751.5229
-5751.3715
-5750.9739
-5753.2221
-5753.9289
-5750.5645
-5752.3649
-5750.8914
-5751.1873
-5751.2368
-5751.2135
-5751.0706
-5750.7803
-5753.9289
-5750.5388
-5409.9469
-5414.6686
-5409.4381
-5410.7597
-5410.9351
-5410.9375
-5410.8941
-5410.8424
-5411.7629
-5410.7374
-5414.6686
-5412.9171
-5410.4483
-5411.6216
-5411.7618
-5411.7403
-5411.6193
-5411.4476
-5413.9039
-5412.6152
-5409.4381
-5410.4483
-5407.6228
-5408.7363
-5408.8689
-5408.8401
-5408.6668
-5408.2691
-5410.8766
-5411.0844
-5410.7597
-5411.6216
-5408.7363
-5409.8408
-5409.9726
-5409.944
-5409.7574
-5409.2555
-5411.5957
-5411.4102
-5410.9351
-5411.7618
-5408.8689
-5409.9726
-5410.1049
-5410.0776
-5409.8934
-5409.3867
-5411.7058
-5411.4644
-5410.9375
-5411.7403
-5408.8401
-5409.944
-5410.0776
-5410.0509
-5409.8677
-5409.362
-5411.6811
-5411.4343
-5410.8941
-5411.6193
-5408.6668
-5409.7574
-5409.8934
-5409.8677
-5409.6844
-5409.1778
-5411.4952
-5411.2573
-5410.8424
-5411.4476
-5408.2691
-5409.2555
-5409.3867
-5409.362
-5409.1778
-5408.669
-5410.9915
-5410.8796
-5411.7629
-5413.9039
-5410.8766
-5411.5957
-5411.7058
-5411.6811
-5411.4952
-5410.9915
-5413.4147
-5414.3881
-5410.7374
-5412.6152
-5411.0844
-5411.4102
-5411.4644
-5411.4343
-5411.2573
-5410.8796
-5414.3881
-5410.735
-5106.829
-5111.5687
-5106.1711
-5107.6133
-5107.8046
-5107.8045
-5107.7479
-5107.6664
-5108.6473
-5107.6136
-5111.5687
-5109.6482
-5107.1699
-5108.448
-5108.6002
-5108.5725
-5108.4246
-5108.1874
-5110.8039
-5109.5576
-5106.1711
-5107.1699
-5104.3012
-5105.5136
-5105.6576
-5105.6222
-5105.4166
-5104.9249
-5107.6799
-5107.9847
-5107.6133
-5108.448
-5105.5136
-5106.716
-5106.8592
-5106.8243
-5106.6046
-5105.9985
-5108.4617
-5108.3382
-5107.8046
-5108.6002
-5105.6576
-5106.8592
-5107.0029
-5106.9695
-5106.7526
-5106.1415
-5108.5817
-5108.3966
-5107.8045
-5108.5725
-5105.6222
-5106.8243
-5106.9695
-5106.9369
-5106.7211
-5106.1109
-5108.5512
-5108.3596
-5107.7479
-5108.4246
-5105.4166
-5106.6046
-5106.7526
-5106.7211
-5106.505
-5105.8935
-5108.3311
-5108.1487
-5107.6664
-5108.1874
-5104.9249
-5105.9985
-5106.1415
-5106.1109
-5105.8935
-5105.2787
-5107.72
-5107.681
-5108.6473
-5110.8039
-5107.6799
-5108.4617
-5108.5817
-5108.5512
-5108.3311
-5107.72
-5110.2724
-5111.4964
-5107.6136
-5109.5576
-5107.9847
-5108.3382
-5108.3966
-5108.3596
-5108.1487
-5107.681
-5111.4964
-5107.6352
-4833.0041
-4837.7421
-4832.2288
-4833.7807
-4833.9863
-4833.9834
-4833.9136
-4833.8007
-4834.8248
-4833.7856
-4837.7421
-4835.6907
-4833.2291
-4834.6018
-4834.7646
-4834.7307
-4834.556
-4834.2516
-4836.9898
-4835.7862
-4832.2288
-4833.2291
-4830.3458
-4831.6476
-4831.8017
-4831.7598
-4831.5227
-4830.9374
-4833.7984
-4834.1849
-4833.7807
-4834.6018
-4831.6476
-4832.9385
-4833.0918
-4833.0507
-4832.7988
-4832.0899
-4834.6372
-4834.5634
-4833.9863
-4834.7646
-4831.8017
-4833.0918
-4833.2456
-4833.2062
-4832.9577
-4832.2435
-4834.7663
-4834.6255
-4833.9834
-4834.7307
-4831.7598
-4833.0507
-4833.2062
-4833.1677
-4832.9204
-4832.2073
-4834.7299
-4834.5818
-4833.9136
-4834.556
-4831.5227
-4832.7988
-4832.9577
-4832.9204
-4832.6726
-4831.9577
-4834.4767
-4834.3377
-4833.8007
-4834.2516
-4830.9374
-4832.0899
-4832.2435
-4832.2073
-4831.9577
-4831.2381
-4833.759
-4833.7795
-4834.8248
-4836.9898
-4833.7984
-4834.6372
-4834.7663
-4834.7299
-4834.4767
-4833.759
-4836.3996
-4837.8515
-4833.7856
-4835.7862
-4834.1849
-4834.5634
-4834.6255
-4834.5818
-4834.3377
-4833.7795
-4837.8515
-4833.8267
-4582.7685
-4587.4897
-4581.9077
-4583.5572
-4583.7754
-4583.7695
-4583.6866
-4583.5416
-4584.5936
-4583.5495
-4587.4897
-4585.3451
-4582.9218
-4584.3784
-4584.5504
-4584.5102
-4584.3097
-4583.9376
-4586.7625
-4585.5977
-4581.9077
-4582.9218
-4580.0487
-4581.4295
-4581.5923
-4581.5442
-4581.277
-4580.6002
-4583.5304
-4583.9804
-4583.5572
-4584.3784
-4581.4295
-4582.7987
-4582.9607
-4582.9137
-4582.6313
-4581.8228
-4584.4198
-4584.381
-4583.7754
-4584.5504
-4581.5923
-4582.9607
-4583.1233
-4583.0783
-4582.7997
-4581.9857
-4584.5569
-4584.4464
-4583.7695
-4584.5102
-4581.5442
-4582.9137
-4583.0783
-4583.0341
-4582.7568
-4581.9441
-4584.515
-4584.3962
-4583.6866
-4584.3097
-4581.277
-4582.6313
-4582.7997
-4582.7568
-4582.479
-4581.6639
-4584.2302
-4584.1202
-4583.5416
-4583.9376
-4580.6002
-4581.8228
-4581.9857
-4581.9441
-4581.6639
-4580.8427
-4583.4086
-4583.4726
-4584.5936
-4586.7625
-4583.5304
-4584.4198
-4584.5569
-4584.515
-4584.2302
-4583.4086
-4586.1012
-4587.7537
-4583.5495
-4585.5977
-4583.9804
-4584.381
-4584.4464
-4584.3962
-4584.1202
-4583.4726
-4587.7537
-4583.6024
-4351.6697
-4356.362
-4350.7537
-4352.488
-4352.717
-4352.7082
-4352.6125
-4352.4354
-4353.5016
-4352.452
-4356.362
-4354.1601
-4351.793
-4353.3221
-4353.5018
-4353.4557
-4353.2303
-4352.7917
-4355.6717
-4354.5392
-4350.7537
-4351.793
-4348.9511
-4350.4002
-4350.5704
-4350.5163
-4350.2208
-4349.4561
-4352.4227
-4352.9172
-4352.488
-4353.3221
-4350.4002
-4351.837
-4352.0064
-4351.9538
-4351.6428
-4350.7394
-4353.356
-4353.3367
-4352.717
-4353.5018
-4350.5704
-4352.0064
-4352.1764
-4352.126
-4351.8193
-4350.9104
-4353.5001
-4353.4049
-4352.7082
-4353.4557
-4350.5163
-4351.9538
-4352.126
-4352.0765
-4351.7713
-4350.8637
-4353.4531
-4353.3487
-4352.6125
-4353.2303
-4350.2208
-4351.6428
-4351.8193
-4351.7713
-4351.4654
-4350.555
-4353.1385
-4353.0424
-4352.4354
-4352.7917
-4349.4561
-4350.7394
-4350.9104
-4350.8637
-4350.555
-4349.6369
-4352.2177
-4352.3083
-4353.5016
-4355.6717
-4352.4227
-4353.356
-4353.5001
-4353.4531
-4353.1385
-4352.2177
-4354.9303
-4356.7541
-4352.452
-4354.5392
-4352.9172
-4353.3367
-4353.4049
-4353.3487
-4353.0424
-4352.3083
-4356.7541
-4352.5072
-4136.1896
-4140.8429
-4135.2466
-4137.0526
-4137.2904
-4137.2786
-4137.1708
-4136.9622
-4138.0307
-4136.9743
-4140.8429
-4138.6173
-4136.3207
-4137.9105
-4138.0964
-4138.0446
-4137.796
-4137.2931
-4140.1999
-4139.0923
-4135.2466
-4136.3207
-4133.5278
-4135.0341
-4135.2102
-4135.1507
-4134.8291
-4133.9814
-4136.9556
-4137.4756
-4137.0526
-4137.9105
-4135.0341
-4136.5274
-4136.7028
-4136.6451
-4136.3079
-4135.3156
-4137.9257
-4137.9109
-4137.2904
-4138.0964
-4135.2102
-4136.7028
-4136.8789
-4136.8235
-4136.4911
-4135.4934
-4138.0757
-4137.9814
-4137.2786
-4138.0446
-4135.1507
-4136.6451
-4136.8235
-4136.7692
-4136.4384
-4135.4419
-4138.0239
-4137.9195
-4137.1708
-4137.796
-4134.8291
-4136.3079
-4136.4911
-4136.4384
-4136.1067
-4135.107
-4137.6819
-4137.5851
-4136.9622
-4137.2931
-4133.9814
-4135.3156
-4135.4934
-4135.4419
-4135.107
-4134.0982
-4136.6677
-4136.7687
-4138.0307
-4140.1999
-4136.9556
-4137.9257
-4138.0757
-4138.0239
-4137.6819
-4136.6677
-4139.3726
-4141.3376
-4136.9743
-4139.0923
-4137.4756
-4137.9109
-4137.9814
-4137.9195
-4137.5851
-4136.7687
-4141.3376
-4137.0217
-3933.5195
-3938.1243
-3932.5748
-3934.4388
-3934.6837
-3934.669
-3934.5498
-3934.3108
-3935.3712
-3934.307
-3938.1243
-3935.9056
-3933.6909
-3935.3294
-3935.5201
-3935.463
-3935.1929
-3934.6291
-3937.5377
-3936.447
-3932.5748
-3933.6909
-3930.9623
-3932.5144
-3932.6951
-3932.6305
-3932.2852
-3931.3607
-3934.3172
-3934.8448
-3934.4388
-3935.3294
-3932.5144
-3934.0529
-3934.233
-3934.1706
-3933.8098
-3932.7359
-3935.317
-3935.2927
-3934.6837
-3935.5201
-3932.6951
-3934.233
-3934.4138
-3934.354
-3933.9984
-3932.9191
-3935.4718
-3935.3649
-3934.669
-3935.463
-3932.6305
-3934.1706
-3934.354
-3934.2952
-3933.9413
-3932.8634
-3935.4157
-3935.2979
-3934.5498
-3935.1929
-3932.2852
-3933.8098
-3933.9984
-3933.9413
-3933.5865
-3932.5048
-3935.0489
-3934.9379
-3934.3108
-3934.6291
-3931.3607
-3932.7359
-3932.9191
-3932.8634
-3932.5048
-3931.4125
-3933.9484
-3934.0445
-3935.3712
-3937.5377
-3934.3172
-3935.317
-3935.4718
-3935.4157
-3935.0489
-3933.9484
-3936.6218
-3938.6981
-3934.307
-3936.447
-3934.8448
-3935.2927
-3935.3649
-3935.2979
-3934.9379
-3934.0445
-3938.6981
-3934.3365
-3741.3965
-3745.9436
-3740.4723
-3742.3805
-3742.6305
-3742.6131
-3742.4834
-3742.2157
-3743.2591
-3742.1862
-3745.9436
-3743.7592
-3741.6354
-3743.3105
-3743.5044
-3743.4425
-3743.1531
-3742.5324
-3745.4205
-3744.3398
-3740.4723
-3741.6354
-3738.9839
-3740.5702
-3740.7542
-3740.6851
-3740.3188
-3739.3244
-3742.2415
-3742.7604
-3742.3805
-3743.3105
-3740.5702
-3742.1426
-3742.326
-3742.2595
-3741.8779
-3740.7306
-3743.2636
-3743.2174
-3742.6305
-3743.5044
-3740.7542
-3742.326
-3742.5102
-3742.4464
-3742.0704
-3740.9178
-3743.422
-3743.2909
-3742.6131
-3743.4425
-3740.6851
-3742.2595
-3742.4464
-3742.3838
-3742.0096
-3740.8584
-3743.3621
-3743.2193
-3742.4834
-3743.1531
-3740.3188
-3741.8779
-3742.0704
-3742.0096
-3741.6344
-3740.4789
-3742.9733
-3742.8363
-3742.2157
-3742.5324
-3739.3244
-3740.7306
-3740.9178
-3740.8584
-3740.4789
-3739.3113
-3741.7947
-3741.8724
-3743.2591
-3745.4205
-3742.2415
-3743.2636
-3743.422
-3743.3621
-3742.9733
-3741.7947
-3744.4163
-3746.5751
-3742.1862
-3744.3398
-3742.7604
-3743.2174
-3743.2909
-3743.2193
-3742.8363
-3741.8724
-3746.5751
-3742.1887
-3557.9841
-3562.4641
-3557.0994
-3559.0378
-3559.2912
-3559.2711
-3559.1321
-3558.8377
-3559.8565
-3558.7748
-3562.4641
-3560.338
-3558.3118
-3560.0114
-3560.2072
-3560.141
-3559.8345
-3559.1619
-3562.0099
-3560.9329
-3557.0994
-3558.3118
-3555.7482
-3557.3573
-3557.5432
-3557.4702
-3557.0859
-3556.0293
-3558.8881
-3559.3839
-3559.0378
-3560.0114
-3557.3573
-3558.9523
-3559.1376
-3559.0675
-3558.6682
-3557.4562
-3559.925
-3559.8468
-3559.2912
-3560.2072
-3557.5432
-3559.1376
-3559.3238
-3559.2566
-3558.8633
-3557.6462
-3560.086
-3559.9209
-3559.2711
-3560.141
-3557.4702
-3559.0675
-3559.2566
-3559.1907
-3558.7992
-3557.5836
-3560.0229
-3559.8454
-3559.1321
-3559.8345
-3557.0859
-3558.6682
-3558.8633
-3558.7992
-3558.4065
-3557.1862
-3559.6151
-3559.4423
-3558.8377
-3559.1619
-3556.0293
-3557.4562
-3557.6462
-3557.5836
-3557.1862
-3555.9523
-3558.3673
-3558.4151
-3559.8565
-3562.0099
-3558.8881
-3559.925
-3560.086
-3560.0229
-3559.6151
-3558.3673
-3560.9199
-3563.1341
-3558.7748
-3560.9329
-3559.3839
-3559.8468
-3559.9209
-3559.8454
-3559.4423
-3558.4151
-3563.1341
-3558.7421
-3381.7832
-3386.1859
-3380.9535
-3382.9084
-3383.1632
-3383.1408
-3382.9934
-3382.6748
-3383.6626
-3382.5728
-3386.1859
-3384.1389
-3382.2153
-3383.9272
-3384.1236
-3384.0537
-3383.7324
-3383.0134
-3385.8044
-3384.7262
-3380.9535
-3382.2153
-3379.7485
-3381.369
-3381.5555
-3381.4792
-3381.0798
-3379.9695
-3382.754
-3383.2144
-3382.9084
-3383.9272
-3381.369
-3382.9753
-3383.1613
-3383.0883
-3382.6743
-3381.4071
-3383.7983
-3383.6797
-3383.1632
-3384.1236
-3381.5555
-3383.1613
-3383.3482
-3383.2782
-3382.8706
-3381.5985
-3383.9607
-3383.7541
-3383.1408
-3384.0537
-3381.4792
-3383.0883
-3383.2782
-3383.2095
-3382.8038
-3381.5332
-3383.8949
-3383.6752
-3382.9934
-3383.7324
-3381.0798
-3382.6743
-3382.8706
-3382.8038
-3382.3968
-3381.121
-3383.4713
-3383.2552
-3382.6748
-3383.0134
-3379.9695
-3381.4071
-3381.5985
-3381.5332
-3381.121
-3379.8304
-3382.164
-3382.1725
-3383.6626
-3385.8044
-3382.754
-3383.7983
-3383.9607
-3383.8949
-3383.4713
-3382.164
-3384.6334
-3386.8777
-3382.5728
-3384.7262
-3383.2144
-3383.6797
-3383.7541
-3383.6752
-3383.2552
-3382.1725
-3386.8777
-3382.498
-3211.5646
-3215.8794
-3210.8026
-3212.7601
-3213.0147
-3212.9901
-3212.8357
-3212.4955
-3213.4471
-3212.3505
-3215.8794
-3213.929
-3212.1114
-3213.8238
-3214.0193
-3213.9463
-3213.613
-3212.8535
-3215.5725
-3214.4899
-3210.8026
-3212.1114
-3209.7487
-3211.3695
-3211.5554
-3211.4765
-3211.0651
-3209.9099
-3212.6063
-3213.0215
-3212.7601
-3213.8238
-3211.3695
-3212.976
-3213.1614
-3213.0861
-3212.6606
-3211.3482
-3213.6508
-3213.4859
-3213.0147
-3214.0193
-3211.5554
-3213.1614
-3213.3478
-3213.2757
-3212.8568
-3211.5397
-3213.8135
-3213.56
-3212.9901
-3213.9463
-3211.4765
-3213.0861
-3213.2757
-3213.2048
-3212.788
-3211.4723
-3213.7455
-3213.4785
-3212.8357
-3213.613
-3211.0651
-3212.6606
-3212.8568
-3212.788
-3212.3697
-3211.0485
-3213.3094
-3213.0446
-3212.4955
-3212.8535
-3209.9099
-3211.3482
-3211.5397
-3211.4723
-3211.0485
-3209.7112
-3211.9526
-3211.915
-3213.4471
-3215.5725
-3212.6063
-3213.6508
-3213.8135
-3213.7455
-3213.3094
-3211.9526
-3214.3272
-3216.5788
-3212.3505
-3214.4899
-3213.0215
-3213.4859
-3213.56
-3213.4785
-3213.0446
-3211.915
-3216.5788
-3212.2285
-3046.3191
-3050.5345
-3045.6341
-3047.5809
-3047.8335
-3047.8069
-3047.6467
-3047.2879
-3048.199
-3047.0979
-3050.5345
-3048.695
-3046.9855
-3048.6869
-3048.8802
-3048.8047
-3048.4619
-3047.6684
-3050.3025
-3049.2137
-3045.6341
-3046.9855
-3044.7331
-3046.3432
-3046.5272
-3046.4463
-3046.0262
-3044.8351
-3047.4323
-3047.7943
-3047.5809
-3048.6869
-3046.3432
-3047.9391
-3048.1227
-3048.0457
-3047.612
-3046.2644
-3048.4696
-3048.2546
-3047.8335
-3048.8802
-3046.5272
-3048.1227
-3048.3074
-3048.2336
-3047.8068
-3046.4547
-3048.6315
-3048.3279
-3047.8069
-3048.8047
-3046.4463
-3048.0457
-3048.2336
-3048.1612
-3047.7364
-3046.3858
-3048.5619
-3048.2444
-3047.6467
-3048.4619
-3046.0262
-3047.612
-3047.8068
-3047.7364
-3047.31
-3045.9536
-3048.1166
-3047.8
-3047.2879
-3047.6684
-3044.8351
-3046.2644
-3046.4547
-3046.3858
-3045.9536
-3044.58
-3046.7209
-3046.6323
-3048.199
-3050.3025
-3047.4323
-3048.4696
-3048.6315
-3048.5619
-3048.1166
-3046.7209
-3048.9914
-3051.2293
-3047.0979
-3049.2137
-3047.7943
-3048.2546
-3048.3279
-3048.2444
-3047.8
-3046.6323
-3051.2293
-3046.9249
-2885.2178
-2889.3215
-2884.6164
-2886.5393
-2886.7882
-2886.7601
-2886.5954
-2886.2211
-2887.0883
-2885.9857
-2889.3215
-2887.6044
-2886.004
-2887.683
-2887.8731
-2887.7957
-2887.4461
-2886.6252
-2889.1635
-2888.0681
-2884.6164
-2886.004
-2883.8668
-2885.4556
-2885.6366
-2885.5545
-2885.1287
-2883.9112
-2886.3996
-2886.703
-2886.5393
-2887.683
-2885.4556
-2887.0303
-2887.211
-2887.1329
-2886.6943
-2885.3219
-2887.4229
-2887.156
-2886.7882
-2887.8731
-2885.6366
-2887.211
-2887.3928
-2887.318
-2886.8864
-2885.5098
-2887.5828
-2887.2279
-2886.7601
-2887.7957
-2885.5545
-2887.1329
-2887.318
-2887.2447
-2886.8151
-2885.44
-2887.5122
-2887.143
-2886.5954
-2887.4461
-2885.1287
-2886.6943
-2886.8864
-2886.8151
-2886.3839
-2885.0026
-2887.061
-2886.6916
-2886.2211
-2886.6252
-2883.9112
-2885.3219
-2885.5098
-2885.44
-2885.0026
-2883.6032
-2885.6372
-2885.4949
-2887.0883
-2889.1635
-2886.3996
-2887.4229
-2887.5828
-2887.5122
-2887.061
-2885.6372
-2887.7962
-2890.0021
-2885.9857
-2888.0681
-2886.703
-2887.156
-2887.2279
-2887.143
-2886.6916
-2885.4949
-2890.0021
-2885.7597
-2727.5826
-2731.5615
-2727.0687
-2728.955
-2729.1987
-2729.1692
-2729.0013
-2728.6147
-2729.4355
-2728.3354
-2731.5615
-2729.9757
-2728.4844
-2730.1301
-2730.3157
-2730.2372
-2729.8835
-2729.0421
-2731.4752
-2730.3744
-2727.0687
-2728.4844
-2726.4664
-2728.0236
-2728.2004
-2728.1177
-2727.6895
-2726.4551
-2728.827
-2729.0682
-2728.955
-2730.1301
-2728.0236
-2729.567
-2729.7436
-2729.6651
-2729.2247
-2727.838
-2729.8294
-2729.5108
-2729.1987
-2730.3157
-2728.2004
-2729.7436
-2729.9214
-2729.8462
-2729.413
-2728.0223
-2729.9864
-2729.5809
-2729.1692
-2730.2372
-2728.1177
-2729.6651
-2729.8462
-2729.7725
-2729.3413
-2727.9521
-2729.9154
-2729.4954
-2729.0013
-2729.8835
-2727.6895
-2729.2247
-2729.413
-2729.3413
-2728.9084
-2727.5128
-2729.4616
-2729.0401
-2728.6147
-2729.0421
-2726.4551
-2727.838
-2728.0223
-2727.9521
-2727.5128
-2726.0982
-2728.0204
-2727.8239
-2729.4355
-2731.4752
-2728.827
-2729.8294
-2729.9864
-2729.9154
-2729.4616
-2728.0204
-2730.0626
-2732.2202
-2728.3354
-2730.3744
-2729.0682
-2729.5108
-2729.5809
-2729.4954
-2729.0401
-2727.8239
-2732.2202
-2728.0557
-2572.8624
-2576.7031
-2572.4376
-2574.2751
-2574.5119
-2574.4815
-2574.3117
-2573.9162
-2574.6886
-2573.5955
-2576.7031
-2575.2548
-2573.8719
-2575.4739
-2575.6539
-2575.5749
-2575.2197
-2574.3648
-2576.6849
-2575.5812
-2572.4376
-2573.8719
-2571.9761
-2573.4919
-2573.6636
-2573.5809
-2573.1533
-2571.9116
-2574.161
-2574.3383
-2574.2751
-2575.4739
-2573.4919
-2574.9942
-2575.1657
-2575.0874
-2574.6485
-2573.2578
-2575.1359
-2574.7674
-2574.5119
-2575.6539
-2573.6636
-2575.1657
-2575.3384
-2575.2635
-2574.8317
-2573.4373
-2575.2889
-2574.8354
-2574.4815
-2575.5749
-2573.5809
-2575.0874
-2575.2635
-2575.1899
-2574.7602
-2573.3673
-2575.218
-2574.7498
-2574.3117
-2575.2197
-2573.1533
-2574.6485
-2574.8317
-2574.7602
-2574.3288
-2572.9293
-2574.765
-2574.2941
-2573.9162
-2574.3648
-2571.9116
-2573.2578
-2573.4373
-2573.3673
-2572.9293
-2571.51
-2573.3173
-2573.0678
-2574.6886
-2576.6849
-2574.161
-2575.1359
-2575.2889
-2575.218
-2574.765
-2573.3173
-2575.2388
-2577.3341
-2573.5955
-2575.5812
-2574.3383
-2574.7674
-2574.8354
-2574.7498
-2574.2941
-2573.0678
-2577.3341
-2573.263
-2420.6153
-2424.3039
-2420.2792
-2422.056
-2422.2847
-2422.2535
-2422.0833
-2421.6821
-2422.4048
-2421.324
-2424.3039
-2422.997
-2421.7213
-2423.2695
-2423.4429
-2423.364
-2423.0101
-2422.1487
-2424.3493
-2423.2466
-2420.2792
-2421.7213
-2419.95
-2421.4149
-2421.5804
-2421.4985
-2421.0747
-2419.835
-2421.9572
-2422.0706
-2422.056
-2423.2695
-2421.4149
-2422.8668
-2423.0323
-2422.9548
-2422.5204
-2421.1361
-2422.8984
-2422.4836
-2422.2847
-2423.4429
-2421.5804
-2423.0323
-2423.1988
-2423.1247
-2422.6975
-2421.3097
-2423.0464
-2422.5488
-2422.2535
-2423.364
-2421.4985
-2422.9548
-2423.1247
-2423.052
-2422.6268
-2421.2404
-2422.9761
-2422.4639
-2422.0833
-2423.0101
-2421.0747
-2422.5204
-2422.6975
-2422.6268
-2422.1999
-2420.8068
-2422.5271
-2422.011
-2421.6821
-2422.1487
-2419.835
-2421.1361
-2421.3097
-2421.2404
-2420.8068
-2419.3935
-2421.0837
-2420.784
-2422.4048
-2424.3493
-2421.9572
-2422.8984
-2423.0464
-2422.9761
-2422.5271
-2421.0837
-2422.8821
-2424.9031
-2421.324
-2423.2466
-2422.0706
-2422.4836
-2422.5488
-2422.4639
-2422.011
-2420.784
-2424.9031
-2420.9407
-2270.4943
-2274.0164
-2270.2443
-2271.9494
-2272.1684
-2272.1368
-2271.9675
-2271.5641
-2272.2365
-2271.1736
-2274.0164
-2272.8529
-2271.6826
-2273.1675
-2273.3333
-2273.2552
-2272.9052
-2272.0443
-2274.12
-2273.0232
-2270.2443
-2271.6826
-2270.0374
-2271.4425
-2271.6009
-2271.5203
-2271.1034
-2269.875
-2271.8666
-2271.9177
-2271.9494
-2273.1675
-2271.4425
-2272.8351
-2272.9936
-2272.9175
-2272.4907
-2271.1229
-2272.7679
-2272.3117
-2272.1684
-2273.3333
-2271.6009
-2272.9936
-2273.1531
-2273.0803
-2272.6607
-2271.2896
-2272.9101
-2272.3739
-2272.1368
-2273.2552
-2271.5203
-2272.9175
-2273.0803
-2273.009
-2272.5913
-2271.2215
-2272.841
-2272.2902
-2271.9675
-2272.9052
-2271.1034
-2272.4907
-2272.6607
-2272.5913
-2272.1718
-2270.7953
-2272.3991
-2271.8434
-2271.5641
-2272.0443
-2269.875
-2271.1229
-2271.2896
-2271.2215
-2270.7953
-2269.3982
-2270.9706
-2270.6251
-2272.2365
-2274.12
-2271.8666
-2272.7679
-2272.9101
-2272.841
-2272.3991
-2270.9706
-2272.6447
-2274.5813
-2271.1736
-2273.0232
-2271.9177
-2272.3117
-2272.3739
-2272.2902
-2271.8434
-2270.6251
-2274.5813
-2270.7428
-2122.2354
-2125.5767
-2122.0677
-2123.6904
-2123.8985
-2123.8669
-2123.6997
-2123.2974
-2123.9191
-2122.8803
-2125.5767
-2124.5567
-2123.4895
-2124.9022
-2125.0595
-2124.9828
-2124.6394
-2123.7858
-2125.7325
-2124.6474
-2122.0677
-2123.4895
-2121.9715
-2123.3084
-2123.4589
-2123.3802
-2122.973
-2121.7652
-2123.6237
-2123.6155
-2123.6904
-2124.9022
-2123.3084
-2124.6334
-2124.784
-2124.7099
-2124.2936
-2122.9521
-2124.4796
-2123.988
-2123.8985
-2125.0595
-2123.4589
-2124.784
-2124.9356
-2124.8647
-2124.4555
-2123.111
-2124.615
-2124.0467
-2123.8669
-2124.9828
-2123.3802
-2124.7099
-2124.8647
-2124.7953
-2124.388
-2123.0447
-2124.5476
-2123.9649
-2123.6997
-2124.6394
-2122.973
-2124.2936
-2124.4555
-2124.388
-2123.9789
-2122.6288
-2124.1159
-2123.5274
-2123.2974
-2123.7858
-2121.7652
-2122.9521
-2123.111
-2123.0447
-2122.6288
-2121.2581
-2122.7127
-2122.3268
-2123.9191
-2125.7325
-2123.6237
-2124.4796
-2124.615
-2124.5476
-2124.1159
-2122.7127
-2124.2622
-2126.1062
-2122.8803
-2124.6474
-2123.6155
-2123.988
-2124.0467
-2123.9649
-2123.5274
-2122.3268
-2126.1062
-2122.4065
-1975.6494
-1978.7956
-1975.5584
-1977.089
-1977.285
-1977.2536
-1977.0898
-1976.6921
-1977.2632
-1976.2548
-1978.7956
-1977.9176
-1976.9509
-1978.2829
-1978.4309
-1978.3563
-1978.0218
-1977.1824
-1978.9968
-1977.9302
-1975.5584
-1976.9509
-1975.5605
-1976.8213
-1976.9631
-1976.8869
-1976.4923
-1975.3138
-1977.0379
-1976.9745
-1977.089
-1978.2829
-1976.8213
-1978.0708
-1978.2128
-1978.1412
-1977.7383
-1976.4328
-1977.843
-1977.3232
-1977.285
-1978.4309
-1976.9631
-1978.2128
-1978.3557
-1978.2873
-1977.8912
-1976.5829
-1977.9709
-1977.378
-1977.2536
-1978.3563
-1976.8869
-1978.1412
-1978.2873
-1978.2202
-1977.826
-1976.5188
-1977.9056
-1977.2986
-1977.0898
-1978.0218
-1976.4923
-1977.7383
-1977.8912
-1977.826
-1977.4301
-1976.1161
-1977.4871
-1976.8734
-1976.6921
-1977.1824
-1975.3138
-1976.4328
-1976.5829
-1976.5188
-1976.1161
-1974.7814
-1976.1193
-1975.6998