/*--------------------------------*- C++ -*----------------------------------*\
| =========                 |                                                 |
| \\      /  F ield         | OpenFOAM: The Open Source CFD Toolbox           |
|  \\    /   O peration     | Version:  v2106                                 |
|   \\  /    A nd           | Website:  www.openfoam.com                      |
|    \\/     M anipulation  |                                                 |
\*---------------------------------------------------------------------------*/
FoamFile
{
    version     2.0;
    format      ascii;
    arch        "LSB;label=32;scalar=64";
    class       volScalarField;
    location    "25";
    object      T;
}
// * * * * * * * * * * * * * * * * * * * * * * * * * * * * * * * * * * * * * //

dimensions      [0 0 0 1 0 0 0];

internalField   nonuniform List<scalar> 
4000
(
274.8742
274.87421
274.8742
274.8742
274.8742
274.8742
274.8742
274.8742
274.8742
274.8742
274.87421
274.87421
274.8742
274.8742
274.8742
274.8742
274.8742
274.8742
274.87421
274.87421
274.8742
274.8742
274.8742
274.87419
274.87419
274.87419
274.87419
274.8742
274.8742
274.8742
274.8742
274.8742
274.87419
274.87419
274.87419
274.87419
274.87419
274.87419
274.8742
274.8742
274.8742
274.8742
274.87419
274.87419
274.87419
274.87419
274.87419
274.87419
274.8742
274.8742
274.8742
274.8742
274.87419
274.87419
274.87419
274.87419
274.87419
274.8742
274.8742
274.8742
274.8742
274.8742
274.87419
274.87419
274.87419
274.87419
274.87419
274.8742
274.8742
274.8742
274.8742
274.8742
274.8742
274.87419
274.87419
274.8742
274.8742
274.8742
274.8742
274.8742
274.8742
274.87421
274.8742
274.8742
274.8742
274.8742
274.8742
274.8742
274.8742
274.87421
274.8742
274.87421
274.8742
274.8742
274.8742
274.8742
274.8742
274.8742
274.87421
274.87421
291.41543
291.41549
291.41542
291.4154
291.41539
291.41539
291.4154
291.41541
291.41542
291.41542
291.41549
291.41549
291.41543
291.41541
291.4154
291.4154
291.41541
291.41543
291.41544
291.41544
291.41542
291.41543
291.41537
291.41535
291.41534
291.41534
291.41535
291.41537
291.4154
291.41541
291.4154
291.41541
291.41535
291.41533
291.41532
291.41533
291.41534
291.41536
291.41538
291.4154
291.41539
291.4154
291.41534
291.41532
291.41532
291.41532
291.41533
291.41535
291.41538
291.41539
291.41539
291.4154
291.41534
291.41533
291.41532
291.41533
291.41534
291.41536
291.41539
291.4154
291.4154
291.41541
291.41535
291.41534
291.41533
291.41534
291.41535
291.41537
291.4154
291.41541
291.41541
291.41543
291.41537
291.41536
291.41535
291.41536
291.41537
291.41539
291.41542
291.41543
291.41542
291.41544
291.4154
291.41538
291.41538
291.41539
291.4154
291.41542
291.41545
291.41546
291.41542
291.41544
291.41541
291.4154
291.41539
291.4154
291.41541
291.41543
291.41546
291.41547
307.01096
307.01103
307.01092
307.01088
307.01087
307.01087
307.01089
307.01091
307.01094
307.01093
307.01103
307.01102
307.01092
307.01088
307.01087
307.01087
307.01089
307.01092
307.01096
307.01095
307.01092
307.01092
307.01082
307.01079
307.01077
307.01078
307.0108
307.01084
307.01089
307.0109
307.01088
307.01088
307.01079
307.01075
307.01074
307.01075
307.01077
307.01081
307.01087
307.01088
307.01087
307.01087
307.01077
307.01074
307.01074
307.01074
307.01077
307.0108
307.01086
307.01088
307.01087
307.01087
307.01078
307.01075
307.01074
307.01075
307.01077
307.01081
307.01087
307.01089
307.01089
307.01089
307.0108
307.01077
307.01077
307.01077
307.0108
307.01084
307.0109
307.01091
307.01091
307.01092
307.01084
307.01081
307.0108
307.01081
307.01084
307.01088
307.01094
307.01095
307.01094
307.01096
307.01089
307.01087
307.01086
307.01087
307.0109
307.01094
307.01099
307.011
307.01093
307.01095
307.0109
307.01088
307.01088
307.01089
307.01091
307.01095
307.011
307.011
321.75663
321.7567
321.75655
321.75651
321.75649
321.7565
321.75652
321.75656
321.7566
321.75659
321.7567
321.75667
321.75654
321.7565
321.75648
321.75649
321.75652
321.75657
321.75663
321.75662
321.75655
321.75654
321.75641
321.75637
321.75636
321.75637
321.7564
321.75645
321.75654
321.75656
321.75651
321.7565
321.75637
321.75633
321.75632
321.75633
321.75636
321.75642
321.75651
321.75653
321.75649
321.75648
321.75636
321.75632
321.75631
321.75632
321.75635
321.75641
321.7565
321.75653
321.7565
321.75649
321.75637
321.75633
321.75632
321.75633
321.75637
321.75643
321.75652
321.75654
321.75652
321.75652
321.7564
321.75636
321.75635
321.75637
321.7564
321.75646
321.75655
321.75658
321.75656
321.75657
321.75645
321.75642
321.75641
321.75643
321.75646
321.75652
321.75661
321.75664
321.7566
321.75663
321.75654
321.75651
321.7565
321.75652
321.75655
321.75661
321.7567
321.75672
321.75659
321.75662
321.75656
321.75653
321.75653
321.75654
321.75658
321.75664
321.75672
321.75671
335.729
335.72906
335.72888
335.72883
335.72881
335.72882
335.72886
335.72891
335.72898
335.72897
335.72906
335.72901
335.72886
335.72881
335.72879
335.7288
335.72884
335.72891
335.729
335.729
335.72888
335.72886
335.72871
335.72866
335.72865
335.72866
335.7287
335.72877
335.72889
335.72893
335.72883
335.72881
335.72866
335.72861
335.7286
335.72862
335.72866
335.72873
335.72885
335.72889
335.72881
335.72879
335.72865
335.7286
335.72859
335.72861
335.72865
335.72873
335.72885
335.72889
335.72882
335.7288
335.72866
335.72862
335.72861
335.72863
335.72867
335.72875
335.72887
335.72891
335.72886
335.72884
335.7287
335.72866
335.72865
335.72867
335.72871
335.72879
335.72892
335.72896
335.72891
335.72891
335.72877
335.72873
335.72873
335.72875
335.72879
335.72887
335.72899
335.72904
335.72898
335.729
335.72889
335.72885
335.72885
335.72887
335.72892
335.72899
335.72912
335.72916
335.72897
335.729
335.72893
335.72889
335.72889
335.72891
335.72896
335.72904
335.72916
335.72914
348.99069
348.99075
348.99054
348.99049
348.99047
348.99049
348.99053
348.9906
348.99068
348.99069
348.99075
348.99068
348.99051
348.99045
348.99044
348.99046
348.9905
348.99058
348.99071
348.99072
348.99054
348.99051
348.99034
348.99029
348.99028
348.99029
348.99034
348.99043
348.99058
348.99063
348.99049
348.99045
348.99029
348.99024
348.99023
348.99025
348.9903
348.99039
348.99054
348.9906
348.99047
348.99044
348.99028
348.99023
348.99022
348.99024
348.99029
348.99038
348.99054
348.9906
348.99049
348.99046
348.99029
348.99025
348.99024
348.99027
348.99032
348.99041
348.99056
348.99062
348.99053
348.9905
348.99034
348.9903
348.99029
348.99032
348.99037
348.99046
348.99062
348.99068
348.9906
348.99058
348.99043
348.99039
348.99038
348.99041
348.99046
348.99056
348.99071
348.99077
348.99068
348.99071
348.99058
348.99054
348.99054
348.99056
348.99062
348.99071
348.99087
348.99092
348.99069
348.99072
348.99063
348.9906
348.9906
348.99062
348.99068
348.99077
348.99092
348.99091
361.59406
361.59412
361.5939
361.59384
361.59383
361.59385
361.5939
361.59398
361.59408
361.59409
361.59412
361.59404
361.59385
361.59379
361.59379
361.59381
361.59386
361.59395
361.5941
361.59413
361.5939
361.59385
361.59367
361.59362
361.59361
361.59363
361.59369
361.59379
361.59397
361.59403
361.59384
361.59379
361.59362
361.59357
361.59356
361.59359
361.59364
361.59375
361.59393
361.594
361.59383
361.59379
361.59361
361.59356
361.59356
361.59359
361.59364
361.59374
361.59393
361.594
361.59385
361.59381
361.59363
361.59359
361.59359
361.59361
361.59367
361.59377
361.59395
361.59403
361.5939
361.59386
361.59369
361.59364
361.59364
361.59367
361.59373
361.59383
361.59402
361.59409
361.59398
361.59395
361.59379
361.59375
361.59374
361.59377
361.59383
361.59394
361.59412
361.5942
361.59408
361.5941
361.59397
361.59393
361.59393
361.59395
361.59402
361.59412
361.59431
361.59438
361.59409
361.59413
361.59403
361.594
361.594
361.59403
361.59409
361.5942
361.59438
361.59436
373.58373
373.58378
373.58354
373.58348
373.58348
373.5835
373.58356
373.58365
373.58377
373.58379
373.58378
373.58369
373.58349
373.58344
373.58343
373.58346
373.58352
373.58362
373.58379
373.58382
373.58354
373.58349
373.5833
373.58325
373.58325
373.58327
373.58333
373.58344
373.58364
373.58373
373.58348
373.58344
373.58325
373.58321
373.5832
373.58323
373.58329
373.5834
373.58361
373.58369
373.58348
373.58343
373.58325
373.5832
373.5832
373.58323
373.58329
373.5834
373.58361
373.58369
373.5835
373.58346
373.58327
373.58323
373.58323
373.58326
373.58332
373.58343
373.58364
373.58372
373.58356
373.58352
373.58333
373.58329
373.58329
373.58332
373.58339
373.5835
373.5837
373.58379
373.58365
373.58362
373.58344
373.5834
373.5834
373.58343
373.5835
373.58361
373.58382
373.58391
373.58377
373.58379
373.58364
373.58361
373.58361
373.58364
373.5837
373.58382
373.58403
373.58412
373.58379
373.58382
373.58373
373.58369
373.58369
373.58372
373.58379
373.58391
373.58412
373.58411
384.99832
384.99837
384.99812
384.99807
384.99807
384.9981
384.99816
384.99826
384.99839
384.99842
384.99837
384.99827
384.99806
384.99801
384.99801
384.99804
384.99811
384.99822
384.99841
384.99845
384.99812
384.99806
384.99787
384.99783
384.99783
384.99786
384.99792
384.99804
384.99825
384.99835
384.99807
384.99801
384.99783
384.99779
384.99779
384.99782
384.99788
384.998
384.99822
384.99831
384.99807
384.99801
384.99783
384.99779
384.99779
384.99783
384.99789
384.998
384.99822
384.99832
384.9981
384.99804
384.99786
384.99782
384.99783
384.99786
384.99792
384.99803
384.99825
384.99835
384.99816
384.99811
384.99792
384.99788
384.99789
384.99792
384.99798
384.9981
384.99832
384.99842
384.99826
384.99822
384.99804
384.998
384.998
384.99803
384.9981
384.99822
384.99844
384.99855
384.99839
384.99841
384.99825
384.99822
384.99822
384.99825
384.99832
384.99844
384.99867
384.99878
384.99842
384.99845
384.99835
384.99831
384.99832
384.99835
384.99842
384.99855
384.99878
384.99877
395.87184
395.87188
395.87162
395.87158
395.87158
395.87162
395.87168
395.87179
395.87193
395.87196
395.87188
395.87177
395.87156
395.87152
395.87153
395.87156
395.87163
395.87174
395.87194
395.87199
395.87162
395.87156
395.87137
395.87133
395.87134
395.87137
395.87144
395.87156
395.87179
395.87189
395.87158
395.87152
395.87133
395.8713
395.87131
395.87134
395.87141
395.87152
395.87175
395.87186
395.87158
395.87153
395.87134
395.87131
395.87132
395.87135
395.87141
395.87153
395.87176
395.87186
395.87162
395.87156
395.87137
395.87134
395.87135
395.87138
395.87145
395.87156
395.87179
395.8719
395.87168
395.87163
395.87144
395.87141
395.87141
395.87145
395.87151
395.87162
395.87186
395.87196
395.87179
395.87174
395.87156
395.87152
395.87153
395.87156
395.87162
395.87174
395.87198
395.87209
395.87193
395.87194
395.87179
395.87175
395.87176
395.87179
395.87186
395.87198
395.87223
395.87234
395.87196
395.87199
395.87189
395.87186
395.87186
395.8719
395.87196
395.87209
395.87234
395.87234
406.23458
406.23462
406.23437
406.23433
406.23434
406.23438
406.23445
406.23455
406.2347
406.23473
406.23462
406.23451
406.23431
406.23428
406.23429
406.23432
406.23439
406.23451
406.23471
406.23477
406.23437
406.23431
406.23412
406.23409
406.2341
406.23414
406.2342
406.23432
406.23456
406.23467
406.23433
406.23428
406.23409
406.23407
406.23408
406.23411
406.23417
406.23429
406.23452
406.23464
406.23434
406.23429
406.2341
406.23408
406.23409
406.23413
406.23418
406.2343
406.23453
406.23464
406.23438
406.23432
406.23414
406.23411
406.23413
406.23416
406.23422
406.23433
406.23456
406.23467
406.23445
406.23439
406.2342
406.23417
406.23418
406.23422
406.23428
406.23439
406.23463
406.23474
406.23455
406.23451
406.23432
406.23429
406.2343
406.23433
406.23439
406.23451
406.23475
406.23487
406.2347
406.23471
406.23456
406.23452
406.23453
406.23456
406.23463
406.23475
406.235
406.23513
406.23473
406.23477
406.23467
406.23464
406.23464
406.23467
406.23474
406.23487
406.23513
406.23513
416.11396
416.11399
416.11375
416.11372
416.11373
416.11377
416.11384
416.11394
416.11409
416.11413
416.11399
416.11389
416.11368
416.11366
416.11368
416.11372
416.11378
416.11389
416.1141
416.11416
416.11375
416.11368
416.1135
416.11348
416.1135
416.11353
416.11359
416.11371
416.11395
416.11406
416.11372
416.11366
416.11348
416.11347
416.11348
416.11352
416.11357
416.11368
416.11392
416.11403
416.11373
416.11368
416.1135
416.11348
416.1135
416.11353
416.11359
416.11369
416.11393
416.11404
416.11377
416.11372
416.11353
416.11352
416.11353
416.11356
416.11362
416.11372
416.11396
416.11407
416.11384
416.11378
416.11359
416.11357
416.11359
416.11362
416.11367
416.11378
416.11402
416.11413
416.11394
416.11389
416.11371
416.11368
416.11369
416.11372
416.11378
416.11389
416.11413
416.11426
416.11409
416.1141
416.11395
416.11392
416.11393
416.11396
416.11402
416.11413
416.11439
416.11453
416.11413
416.11416
416.11406
416.11403
416.11404
416.11407
416.11413
416.11426
416.11453
416.11452
425.53498
425.53501
425.53477
425.53475
425.53477
425.53481
425.53487
425.53498
425.53513
425.53516
425.53501
425.53491
425.53471
425.5347
425.53472
425.53476
425.53482
425.53493
425.53514
425.5352
425.53477
425.53471
425.53453
425.53453
425.53455
425.53458
425.53464
425.53475
425.53499
425.5351
425.53475
425.5347
425.53453
425.53452
425.53454
425.53458
425.53463
425.53473
425.53496
425.53508
425.53477
425.53472
425.53455
425.53454
425.53456
425.53459
425.53464
425.53474
425.53497
425.53508
425.53481
425.53476
425.53458
425.53458
425.53459
425.53462
425.53467
425.53477
425.535
425.53511
425.53487
425.53482
425.53464
425.53463
425.53464
425.53467
425.53472
425.53481
425.53505
425.53516
425.53498
425.53493
425.53475
425.53473
425.53474
425.53477
425.53481
425.53491
425.53516
425.53528
425.53513
425.53514
425.53499
425.53496
425.53497
425.535
425.53505
425.53516
425.53542
425.53556
425.53516
425.5352
425.5351
425.53508
425.53508
425.53511
425.53516
425.53528
425.53556
425.53555
434.52075
434.52079
434.52055
434.52054
434.52057
434.52061
434.52067
434.52076
434.52091
434.52094
434.52079
434.52069
434.5205
434.5205
434.52053
434.52056
434.52062
434.52072
434.52093
434.52099
434.52055
434.5205
434.52033
434.52033
434.52036
434.52039
434.52044
434.52054
434.52078
434.52089
434.52054
434.5205
434.52033
434.52034
434.52036
434.52039
434.52044
434.52053
434.52076
434.52087
434.52057
434.52053
434.52036
434.52036
434.52039
434.52042
434.52046
434.52054
434.52076
434.52087
434.52061
434.52056
434.52039
434.52039
434.52042
434.52044
434.52048
434.52056
434.52079
434.5209
434.52067
434.52062
434.52044
434.52044
434.52046
434.52048
434.52052
434.5206
434.52083
434.52094
434.52076
434.52072
434.52054
434.52053
434.52054
434.52056
434.5206
434.52069
434.52093
434.52105
434.52091
434.52093
434.52078
434.52076
434.52076
434.52079
434.52083
434.52093
434.52118
434.52132
434.52094
434.52099
434.52089
434.52087
434.52087
434.5209
434.52094
434.52105
434.52132
434.52132
443.09282
443.09286
443.09264
443.09264
443.09267
443.09271
443.09276
443.09285
443.09299
443.09302
443.09286
443.09277
443.09259
443.0926
443.09263
443.09267
443.09272
443.09281
443.09301
443.09307
443.09264
443.09259
443.09243
443.09244
443.09247
443.09251
443.09255
443.09263
443.09286
443.09297
443.09264
443.0926
443.09244
443.09246
443.09249
443.09251
443.09255
443.09262
443.09285
443.09295
443.09267
443.09263
443.09247
443.09249
443.09251
443.09254
443.09257
443.09264
443.09285
443.09296
443.09271
443.09267
443.09251
443.09251
443.09254
443.09256
443.09259
443.09266
443.09287
443.09297
443.09276
443.09272
443.09255
443.09255
443.09257
443.09259
443.09262
443.09269
443.0929
443.09301
443.09285
443.09281
443.09263
443.09262
443.09264
443.09266
443.09269
443.09276
443.09299
443.09311
443.09299
443.09301
443.09286
443.09285
443.09285
443.09287
443.0929
443.09299
443.09324
443.09338
443.09302
443.09307
443.09297
443.09295
443.09296
443.09297
443.09301
443.09311
443.09338
443.09337
451.27145
451.2715
451.27128
451.27129
451.27133
451.27136
451.27141
451.27149
451.27162
451.27165
451.2715
451.27141
451.27124
451.27126
451.2713
451.27133
451.27137
451.27145
451.27164
451.2717
451.27128
451.27124
451.2711
451.27112
451.27115
451.27118
451.27121
451.27129
451.2715
451.27161
451.27129
451.27126
451.27112
451.27114
451.27117
451.2712
451.27122
451.27128
451.27149
451.27159
451.27133
451.2713
451.27115
451.27117
451.2712
451.27122
451.27124
451.2713
451.2715
451.27159
451.27136
451.27133
451.27118
451.2712
451.27122
451.27124
451.27126
451.27131
451.27151
451.27161
451.27141
451.27137
451.27121
451.27122
451.27124
451.27126
451.27127
451.27133
451.27153
451.27163
451.27149
451.27145
451.27129
451.27128
451.2713
451.27131
451.27133
451.27139
451.2716
451.27172
451.27162
451.27164
451.2715
451.27149
451.2715
451.27151
451.27153
451.2716
451.27184
451.27198
451.27165
451.2717
451.27161
451.27159
451.27159
451.27161
451.27163
451.27172
451.27198
451.27196
459.07584
459.0759
459.07569
459.07571
459.07575
459.07578
459.07582
459.07589
459.07602
459.07604
459.0759
459.07581
459.07566
459.07569
459.07572
459.07576
459.07579
459.07586
459.07604
459.07609
459.07569
459.07566
459.07553
459.07556
459.07559
459.07562
459.07564
459.0757
459.07591
459.076
459.07571
459.07569
459.07556
459.07559
459.07562
459.07564
459.07566
459.0757
459.0759
459.07599
459.07575
459.07572
459.07559
459.07562
459.07565
459.07567
459.07568
459.07571
459.0759
459.07599
459.07578
459.07576
459.07562
459.07564
459.07567
459.07568
459.07569
459.07572
459.07591
459.07599
459.07582
459.07579
459.07564
459.07566
459.07568
459.07569
459.07569
459.07573
459.07592
459.07601
459.07589
459.07586
459.0757
459.0757
459.07571
459.07572
459.07573
459.07577
459.07597
459.07608
459.07602
459.07604
459.07591
459.0759
459.0759
459.07591
459.07592
459.07597
459.0762
459.07633
459.07604
459.07609
459.076
459.07599
459.07599
459.07599
459.07601
459.07608
459.07633
459.07631
466.52433
466.52439
466.5242
466.52422
466.52426
466.5243
466.52433
466.52439
466.5245
466.52452
466.52439
466.52431
466.52418
466.52421
466.52425
466.52428
466.5243
466.52436
466.52453
466.52457
466.5242
466.52418
466.52405
466.52409
466.52413
466.52415
466.52417
466.52421
466.5244
466.52449
466.52422
466.52421
466.52409
466.52413
466.52416
466.52418
466.52418
466.52422
466.52439
466.52448
466.52426
466.52425
466.52413
466.52416
466.5242
466.52421
466.5242
466.52423
466.5244
466.52447
466.5243
466.52428
466.52415
466.52418
466.52421
466.52421
466.52421
466.52423
466.5244
466.52447
466.52433
466.5243
466.52417
466.52418
466.5242
466.52421
466.5242
466.52422
466.5244
466.52448
466.52439
466.52436
466.52421
466.52422
466.52423
466.52423
466.52422
466.52425
466.52444
466.52453
466.5245
466.52453
466.5244
466.52439
466.5244
466.5244
466.5244
466.52444
466.52464
466.52477
466.52452
466.52457
466.52449
466.52448
466.52447
466.52447
466.52448
466.52453
466.52477
466.52474
473.63453
473.63459
473.63441
473.63445
473.63449
473.63452
473.63454
473.63459
473.63469
473.6347
473.63459
473.63452
473.6344
473.63444
473.63448
473.63451
473.63452
473.63456
473.63472
473.63475
473.63441
473.6344
473.63429
473.63433
473.63437
473.63439
473.6344
473.63443
473.6346
473.63468
473.63445
473.63444
473.63433
473.63438
473.63441
473.63443
473.63442
473.63443
473.63459
473.63467
473.63449
473.63448
473.63437
473.63441
473.63445
473.63445
473.63444
473.63444
473.6346
473.63466
473.63452
473.63451
473.63439
473.63443
473.63445
473.63445
473.63443
473.63444
473.63459
473.63465
473.63454
473.63452
473.6344
473.63442
473.63444
473.63443
473.63442
473.63442
473.63458
473.63465
473.63459
473.63456
473.63443
473.63443
473.63444
473.63444
473.63442
473.63443
473.6346
473.63469
473.63469
473.63472
473.6346
473.63459
473.6346
473.63459
473.63458
473.6346
473.63479
473.63491
473.6347
473.63475
473.63468
473.63467
473.63466
473.63465
473.63465
473.63469
473.63491
473.63488
480.42344
480.42351
480.42335
480.42339
480.42343
480.42346
480.42347
480.42351
480.42359
480.42359
480.42351
480.42345
480.42334
480.42339
480.42343
480.42345
480.42346
480.42349
480.42363
480.42365
480.42335
480.42334
480.42325
480.4233
480.42334
480.42335
480.42334
480.42336
480.42351
480.42358
480.42339
480.42339
480.4233
480.42335
480.42338
480.42339
480.42337
480.42337
480.42351
480.42357
480.42343
480.42343
480.42334
480.42338
480.42341
480.42341
480.42339
480.42338
480.42351
480.42357
480.42346
480.42345
480.42335
480.42339
480.42341
480.42341
480.42338
480.42336
480.4235
480.42355
480.42347
480.42346
480.42334
480.42337
480.42339
480.42338
480.42335
480.42334
480.42347
480.42353
480.42351
480.42349
480.42336
480.42337
480.42338
480.42336
480.42334
480.42333
480.42348
480.42356
480.42359
480.42363
480.42351
480.42351
480.42351
480.4235
480.42347
480.42348
480.42365
480.42376
480.42359
480.42365
480.42358
480.42357
480.42357
480.42355
480.42353
480.42356
480.42376
480.42373
486.90759
486.90766
486.90751
486.90756
486.90761
486.90763
486.90764
486.90766
486.90773
486.90773
486.90766
486.90762
486.90752
486.90757
486.90762
486.90763
486.90763
486.90764
486.90777
486.90779
486.90751
486.90752
486.90744
486.90749
486.90753
486.90754
486.90752
486.90752
486.90766
486.90772
486.90756
486.90757
486.90749
486.90754
486.90758
486.90758
486.90755
486.90754
486.90766
486.90771
486.90761
486.90762
486.90753
486.90758
486.90761
486.9076
486.90757
486.90754
486.90766
486.9077
486.90763
486.90763
486.90754
486.90758
486.9076
486.90759
486.90755
486.90752
486.90764
486.90768
486.90764
486.90763
486.90752
486.90755
486.90757
486.90755
486.90751
486.90748
486.9076
486.90765
486.90766
486.90764
486.90752
486.90754
486.90754
486.90752
486.90748
486.90746
486.90759
486.90766
486.90773
486.90777
486.90766
486.90766
486.90766
486.90764
486.9076
486.90759
486.90775
486.90785
486.90773
486.90779
486.90772
486.90771
486.9077
486.90768
486.90765
486.90766
486.90785
486.90781
493.10308
493.10316
493.10302
493.10307
493.10312
493.10313
493.10313
493.10314
493.1032
493.10319
493.10316
493.10312
493.10303
493.10309
493.10313
493.10314
493.10313
493.10313
493.10324
493.10325
493.10302
493.10303
493.10296
493.10302
493.10306
493.10306
493.10304
493.10302
493.10315
493.10319
493.10307
493.10309
493.10302
493.10308
493.10311
493.10311
493.10307
493.10304
493.10315
493.10319
493.10312
493.10313
493.10306
493.10311
493.10314
493.10313
493.10308
493.10304
493.10314
493.10317
493.10313
493.10314
493.10306
493.10311
493.10313
493.10311
493.10306
493.10302
493.10311
493.10314
493.10313
493.10313
493.10304
493.10307
493.10308
493.10306
493.10301
493.10297
493.10306
493.1031
493.10314
493.10313
493.10302
493.10304
493.10304
493.10302
493.10297
493.10293
493.10304
493.1031
493.1032
493.10324
493.10315
493.10315
493.10314
493.10311
493.10306
493.10304
493.10318
493.10327
493.10319
493.10325
493.10319
493.10319
493.10317
493.10314
493.1031
493.1031
493.10327
493.10322
499.02566
499.02574
499.02562
499.02567
499.02572
499.02573
499.02572
499.02572
499.02577
499.02575
499.02574
499.02571
499.02564
499.0257
499.02574
499.02575
499.02573
499.02572
499.02581
499.02581
499.02562
499.02564
499.02558
499.02564
499.02568
499.02568
499.02564
499.02561
499.02572
499.02576
499.02567
499.0257
499.02564
499.0257
499.02573
499.02572
499.02568
499.02563
499.02572
499.02575
499.02572
499.02574
499.02568
499.02573
499.02576
499.02574
499.02569
499.02563
499.02571
499.02573
499.02573
499.02575
499.02568
499.02572
499.02574
499.02572
499.02566
499.0256
499.02568
499.0257
499.02572
499.02573
499.02564
499.02568
499.02569
499.02566
499.0256
499.02554
499.02562
499.02564
499.02572
499.02572
499.02561
499.02563
499.02563
499.0256
499.02554
499.02549
499.02558
499.02563
499.02577
499.02581
499.02572
499.02572
499.02571
499.02568
499.02562
499.02558
499.02571
499.02579
499.02575
499.02581
499.02576
499.02575
499.02573
499.0257
499.02564
499.02563
499.02579
499.02573
504.69081
504.69089
504.69078
504.69084
504.69088
504.69089
504.69087
504.69086
504.69089
504.69087
504.69089
504.69086
504.6908
504.69087
504.69091
504.69091
504.69088
504.69086
504.69094
504.69093
504.69078
504.6908
504.69075
504.69082
504.69085
504.69085
504.6908
504.69076
504.69085
504.69088
504.69084
504.69087
504.69082
504.69088
504.69091
504.69089
504.69084
504.69078
504.69085
504.69087
504.69088
504.69091
504.69085
504.69091
504.69093
504.69091
504.69085
504.69078
504.69084
504.69085
504.69089
504.69091
504.69085
504.69089
504.69091
504.69088
504.69081
504.69074
504.6908
504.69081
504.69087
504.69088
504.6908
504.69084
504.69085
504.69081
504.69074
504.69067
504.69074
504.69075
504.69086
504.69086
504.69076
504.69078
504.69078
504.69074
504.69067
504.69061
504.69069
504.69072
504.69089
504.69094
504.69085
504.69085
504.69084
504.6908
504.69074
504.69069
504.69079
504.69086
504.69087
504.69093
504.69088
504.69087
504.69085
504.69081
504.69075
504.69072
504.69086
504.6908
510.11373
510.11381
510.11371
510.11377
510.11381
510.11382
510.11379
510.11377
510.1138
510.11377
510.11381
510.1138
510.11375
510.11381
510.11385
510.11384
510.11381
510.11378
510.11384
510.11383
510.11371
510.11375
510.11371
510.11377
510.1138
510.11379
510.11374
510.11369
510.11376
510.11378
510.11377
510.11381
510.11377
510.11383
510.11386
510.11384
510.11378
510.11371
510.11377
510.11377
510.11381
510.11385
510.1138
510.11386
510.11388
510.11386
510.11378
510.11371
510.11375
510.11375
510.11382
510.11384
510.11379
510.11384
510.11386
510.11382
510.11375
510.11366
510.11371
510.1137
510.11379
510.11381
510.11374
510.11378
510.11378
510.11375
510.11367
510.11359
510.11363
510.11363
510.11377
510.11378
510.11369
510.11371
510.11371
510.11366
510.11359
510.11351
510.11357
510.11359
510.1138
510.11384
510.11376
510.11377
510.11375
510.11371
510.11363
510.11357
510.11366
510.11372
510.11377
510.11383
510.11378
510.11377
510.11375
510.1137
510.11363
510.11359
510.11372
510.11365
515.30944
515.30952
515.30944
515.3095
515.30954
515.30954
515.30951
515.30947
515.30949
515.30945
515.30952
515.30952
515.30948
515.30954
515.30958
515.30957
515.30952
515.30948
515.30953
515.30951
515.30944
515.30948
515.30945
515.30951
515.30954
515.30952
515.30947
515.30941
515.30946
515.30947
515.3095
515.30954
515.30951
515.30957
515.3096
515.30957
515.3095
515.30943
515.30947
515.30946
515.30954
515.30958
515.30954
515.3096
515.30962
515.30958
515.30951
515.30942
515.30945
515.30944
515.30954
515.30957
515.30952
515.30957
515.30958
515.30955
515.30946
515.30937
515.3094
515.30939
515.30951
515.30952
515.30947
515.3095
515.30951
515.30946
515.30938
515.30929
515.30932
515.30931
515.30947
515.30948
515.30941
515.30943
515.30942
515.30937
515.30929
515.3092
515.30925
515.30926
515.30949
515.30953
515.30946
515.30947
515.30945
515.3094
515.30932
515.30925
515.30932
515.30937
515.30945
515.30951
515.30947
515.30946
515.30944
515.30939
515.30931
515.30926
515.30937
515.3093
520.29277
520.29285
520.29278
520.29284
520.29287
520.29287
520.29283
520.29279
520.2928
520.29276
520.29285
520.29285
520.29282
520.29288
520.29291
520.2929
520.29285
520.2928
520.29284
520.29281
520.29278
520.29282
520.2928
520.29286
520.29289
520.29287
520.2928
520.29273
520.29278
520.29278
520.29284
520.29288
520.29286
520.29292
520.29294
520.29291
520.29284
520.29275
520.29278
520.29277
520.29287
520.29291
520.29289
520.29294
520.29296
520.29292
520.29284
520.29274
520.29276
520.29274
520.29287
520.2929
520.29287
520.29291
520.29292
520.29288
520.29279
520.29269
520.29271
520.29269
520.29283
520.29285
520.2928
520.29284
520.29284
520.29279
520.2927
520.2926
520.29262
520.2926
520.29279
520.2928
520.29273
520.29275
520.29274
520.29269
520.2926
520.29251
520.29254
520.29254
520.2928
520.29284
520.29278
520.29278
520.29276
520.29271
520.29262
520.29254
520.2926
520.29264
520.29276
520.29281
520.29278
520.29277
520.29274
520.29269
520.2926
520.29254
520.29264
520.29257
525.07837
525.07845
525.07839
525.07845
525.07848
525.07847
525.07843
525.07838
525.07838
525.07833
525.07845
525.07846
525.07843
525.07849
525.07852
525.07851
525.07845
525.0784
525.07842
525.07839
525.07839
525.07843
525.07842
525.07848
525.0785
525.07848
525.07841
525.07834
525.07837
525.07836
525.07845
525.07849
525.07848
525.07853
525.07855
525.07852
525.07844
525.07835
525.07837
525.07835
525.07848
525.07852
525.0785
525.07855
525.07857
525.07853
525.07844
525.07834
525.07834
525.07832
525.07847
525.07851
525.07848
525.07852
525.07853
525.07848
525.07839
525.07828
525.07829
525.07826
525.07843
525.07845
525.07841
525.07844
525.07844
525.07839
525.0783
525.07819
525.0782
525.07818
525.07838
525.0784
525.07834
525.07835
525.07834
525.07828
525.07819
525.07809
525.07811
525.07811
525.07838
525.07842
525.07837
525.07837
525.07834
525.07829
525.0782
525.07811
525.07816
525.07819
525.07833
525.07839
525.07836
525.07835
525.07832
525.07826
525.07818
525.07811
525.07819
525.07812
529.68076
529.68083
529.68078
529.68084
529.68086
529.68085
529.68081
529.68075
529.68074
529.6807
529.68083
529.68084
529.68083
529.68088
529.68091
529.68089
529.68083
529.68077
529.68079
529.68075
529.68078
529.68083
529.68081
529.68087
529.68089
529.68086
529.68079
529.68072
529.68073
529.68072
529.68084
529.68088
529.68087
529.68093
529.68094
529.68091
529.68082
529.68073
529.68073
529.68071
529.68086
529.68091
529.68089
529.68094
529.68095
529.68091
529.68082
529.68072
529.68071
529.68068
529.68085
529.68089
529.68086
529.68091
529.68091
529.68086
529.68077
529.68066
529.68065
529.68062
529.68081
529.68083
529.68079
529.68082
529.68082
529.68077
529.68067
529.68056
529.68056
529.68053
529.68075
529.68077
529.68072
529.68073
529.68072
529.68066
529.68056
529.68046
529.68047
529.68046
529.68074
529.68079
529.68073
529.68073
529.68071
529.68065
529.68056
529.68047
529.6805
529.68053
529.6807
529.68075
529.68072
529.68071
529.68068
529.68062
529.68053
529.68046
529.68053
529.68045
534.11428
534.11435
534.11431
534.11436
534.11439
534.11437
534.11432
534.11427
534.11425
534.1142
534.11435
534.11437
534.11436
534.11441
534.11443
534.11441
534.11435
534.11428
534.11429
534.11425
534.11431
534.11436
534.11435
534.1144
534.11442
534.11439
534.11432
534.11423
534.11424
534.11422
534.11436
534.11441
534.1144
534.11445
534.11446
534.11443
534.11434
534.11425
534.11424
534.11421
534.11439
534.11443
534.11442
534.11446
534.11447
534.11443