/*--------------------------------*- C++ -*----------------------------------*\
| =========                 |                                                 |
| \\      /  F ield         | OpenFOAM: The Open Source CFD Toolbox           |
|  \\    /   O peration     | Version:  v2106                                 |
|   \\  /    A nd           | Website:  www.openfoam.com                      |
|    \\/     M anipulation  |                                                 |
\*---------------------------------------------------------------------------*/
FoamFile
{
    version     2.0;
    format      ascii;
    arch        "LSB;label=32;scalar=64";
    class       volScalarField;
    location    "25";
    object      T;
}
// * * * * * * * * * * * * * * * * * * * * * * * * * * * * * * * * * * * * * //

dimensions      [0 0 0 1 0 0 0];

internalField   nonuniform List<scalar> 
4000
(
275.59256
275.59257
275.59255
275.59255
275.59255
275.59256
275.59256
275.59256
275.59256
275.59256
275.59257
275.59256
275.59254
275.59255
275.59255
275.59255
275.59255
275.59256
275.59256
275.59256
275.59255
275.59254
275.59253
275.59253
275.59254
275.59254
275.59254
275.59254
275.59255
275.59255
275.59255
275.59255
275.59253
275.59254
275.59254
275.59254
275.59254
275.59254
275.59255
275.59255
275.59255
275.59255
275.59254
275.59254
275.59254
275.59254
275.59255
275.59255
275.59255
275.59255
275.59256
275.59255
275.59254
275.59254
275.59254
275.59255
275.59255
275.59255
275.59255
275.59255
275.59256
275.59255
275.59254
275.59254
275.59255
275.59255
275.59255
275.59255
275.59255
275.59255
275.59256
275.59256
275.59254
275.59254
275.59255
275.59255
275.59255
275.59255
275.59255
275.59256
275.59256
275.59256
275.59255
275.59255
275.59255
275.59255
275.59255
275.59255
275.59255
275.59256
275.59256
275.59256
275.59255
275.59255
275.59255
275.59255
275.59255
275.59256
275.59256
275.59256
285.71146
285.71147
285.71139
285.7114
285.71141
285.71142
285.71143
285.71144
285.71145
285.71146
285.71147
285.71143
285.71137
285.71138
285.7114
285.71141
285.71141
285.71143
285.71144
285.71145
285.71139
285.71137
285.71132
285.71134
285.71135
285.71136
285.71136
285.71137
285.7114
285.71142
285.7114
285.71138
285.71134
285.71135
285.71136
285.71137
285.71137
285.71138
285.7114
285.71142
285.71141
285.7114
285.71135
285.71136
285.71137
285.71138
285.71138
285.71139
285.7114
285.71142
285.71142
285.71141
285.71136
285.71137
285.71138
285.71138
285.71139
285.71139
285.71141
285.71142
285.71143
285.71141
285.71136
285.71137
285.71138
285.71139
285.71139
285.71139
285.71141
285.71142
285.71144
285.71143
285.71137
285.71138
285.71139
285.71139
285.71139
285.7114
285.71141
285.71143
285.71145
285.71144
285.7114
285.7114
285.7114
285.71141
285.71141
285.71141
285.71143
285.71145
285.71146
285.71145
285.71142
285.71142
285.71142
285.71142
285.71142
285.71143
285.71145
285.71147
295.73635
295.73637
295.73625
295.73626
295.73628
295.7363
295.73631
295.73633
295.73636
295.73636
295.73637
295.7363
295.73622
295.73624
295.73626
295.73627
295.73629
295.73631
295.73634
295.73636
295.73625
295.73622
295.73615
295.73617
295.73619
295.7362
295.73622
295.73623
295.73628
295.73631
295.73626
295.73624
295.73617
295.73619
295.73621
295.73622
295.73623
295.73624
295.73628
295.73631
295.73628
295.73626
295.73619
295.73621
295.73623
295.73624
295.73624
295.73625
295.73629
295.73631
295.7363
295.73627
295.7362
295.73622
295.73624
295.73625
295.73625
295.73626
295.73629
295.73632
295.73631
295.73629
295.73622
295.73623
295.73624
295.73625
295.73625
295.73626
295.73629
295.73632
295.73633
295.73631
295.73623
295.73624
295.73625
295.73626
295.73626
295.73627
295.7363
295.73633
295.73636
295.73634
295.73628
295.73628
295.73629
295.73629
295.73629
295.7363
295.73634
295.73637
295.73636
295.73636
295.73631
295.73631
295.73631
295.73632
295.73632
295.73633
295.73637
295.7364
305.65795
305.65796
305.65782
305.65784
305.65787
305.65789
305.65791
305.65794
305.65798
305.65799
305.65796
305.65788
305.65779
305.65781
305.65784
305.65786
305.65788
305.6579
305.65797
305.658
305.65782
305.65779
305.65771
305.65773
305.65776
305.65778
305.65779
305.65781
305.65788
305.65793
305.65784
305.65781
305.65773
305.65776
305.65778
305.6578
305.65781
305.65782
305.65788
305.65793
305.65787
305.65784
305.65776
305.65778
305.65781
305.65782
305.65782
305.65783
305.65789
305.65793
305.65789
305.65786
305.65778
305.6578
305.65782
305.65783
305.65783
305.65784
305.65789
305.65793
305.65791
305.65788
305.65779
305.65781
305.65782
305.65783
305.65783
305.65784
305.65789
305.65794
305.65794
305.6579
305.65781
305.65782
305.65783
305.65784
305.65784
305.65785
305.65791
305.65795
305.65798
305.65797
305.65788
305.65788
305.65789
305.65789
305.65789
305.65791
305.65797
305.65802
305.65799
305.658
305.65793
305.65793
305.65793
305.65793
305.65794
305.65795
305.65802
305.65805
315.46759
315.4676
315.46744
315.46747
315.4675
315.46753
315.46755
315.46758
315.46764
315.46765
315.4676
315.46751
315.4674
315.46743
315.46747
315.46749
315.46751
315.46754
315.46762
315.46766
315.46744
315.4674
315.46731
315.46734
315.46737
315.46739
315.4674
315.46743
315.46752
315.46759
315.46747
315.46743
315.46734
315.46737
315.46741
315.46742
315.46743
315.46744
315.46752
315.46759
315.4675
315.46747
315.46737
315.46741
315.46743
315.46745
315.46745
315.46746
315.46753
315.46759
315.46753
315.46749
315.46739
315.46742
315.46745
315.46746
315.46745
315.46746
315.46753
315.46759
315.46755
315.46751
315.4674
315.46743
315.46745
315.46745
315.46745
315.46746
315.46753
315.46759
315.46758
315.46754
315.46743
315.46744
315.46746
315.46746
315.46746
315.46747
315.46755
315.46761
315.46764
315.46762
315.46752
315.46752
315.46753
315.46753
315.46753
315.46755
315.46763
315.46771
315.46765
315.46766
315.46759
315.46759
315.46759
315.46759
315.46759
315.46761
315.46771
315.46774
325.15724
325.15725
325.15707
325.1571
325.15714
325.15717
325.1572
325.15724
325.1573
325.15732
325.15725
325.15715
325.15703
325.15707
325.15711
325.15713
325.15715
325.15719
325.15729
325.15734
325.15707
325.15703
325.15692
325.15696
325.157
325.15702
325.15703
325.15706
325.15717
325.15726
325.1571
325.15707
325.15696
325.15701
325.15704
325.15706
325.15706
325.15708
325.15717
325.15725
325.15714
325.15711
325.157
325.15704
325.15707
325.15709
325.15708
325.15709
325.15718
325.15725
325.15717
325.15713
325.15702
325.15706
325.15709
325.15709
325.15709
325.15709
325.15718
325.15725
325.1572
325.15715
325.15703
325.15706
325.15708
325.15709
325.15708
325.15708
325.15718
325.15724
325.15724
325.15719
325.15706
325.15708
325.15709
325.15709
325.15708
325.15709
325.15719
325.15727
325.1573
325.15729
325.15717
325.15717
325.15718
325.15718
325.15718
325.15719
325.1573
325.15739
325.15732
325.15734
325.15726
325.15725
325.15725
325.15725
325.15724
325.15727
325.15739
325.15742
334.71954
334.71956
334.71936
334.7194
334.71944
334.71948
334.7195
334.71954
334.71962
334.71964
334.71956
334.71944
334.71931
334.71936
334.7194
334.71943
334.71945
334.71948
334.7196
334.71966
334.71936
334.71931
334.7192
334.71925
334.71929
334.71931
334.71932
334.71935
334.71948
334.71957
334.7194
334.71936
334.71925
334.7193
334.71934
334.71935
334.71935
334.71936
334.71948
334.71956
334.71944
334.7194
334.71929
334.71934
334.71937
334.71938
334.71938
334.71938
334.71949
334.71956
334.71948
334.71943
334.71931
334.71935
334.71938
334.71939
334.71938
334.71938
334.71948
334.71956
334.7195
334.71945
334.71932
334.71935
334.71938
334.71938
334.71936
334.71936
334.71947
334.71955
334.71954
334.71948
334.71935
334.71936
334.71938
334.71938
334.71936
334.71937
334.71948
334.71957
334.71962
334.7196
334.71948
334.71948
334.71949
334.71948
334.71947
334.71948
334.71961
334.71972
334.71964
334.71966
334.71957
334.71956
334.71956
334.71956
334.71955
334.71957
334.71972
334.71975
344.14784
344.14786
344.14765
344.1477
344.14775
344.14778
344.14781
344.14784
344.14793
344.14795
344.14786
344.14774
344.14761
344.14766
344.14771
344.14773
344.14775
344.14779
344.14792
344.14798
344.14765
344.14761
344.14749
344.14754
344.14759
344.14761
344.14761
344.14763
344.14778
344.14788
344.1477
344.14766
344.14754
344.1476
344.14764
344.14765
344.14765
344.14765
344.14778
344.14787
344.14775
344.14771
344.14759
344.14764
344.14768
344.14769
344.14767
344.14767
344.14779
344.14787
344.14778
344.14773
344.14761
344.14765
344.14769
344.14769
344.14767
344.14766
344.14778
344.14786
344.14781
344.14775
344.14761
344.14765
344.14767
344.14767
344.14765
344.14764
344.14776
344.14784
344.14784
344.14779
344.14763
344.14765
344.14767
344.14766
344.14764
344.14764
344.14777
344.14787
344.14793
344.14792
344.14778
344.14778
344.14779
344.14778
344.14776
344.14777
344.14792
344.14804
344.14795
344.14798
344.14788
344.14787
344.14787
344.14786
344.14784
344.14787
344.14804
344.14808
353.43621
353.43624
353.43602
353.43607
353.43613
353.43616
353.43618
353.43622
353.43631
353.43633
353.43624
353.43611
353.43597
353.43603
353.43608
353.43611
353.43612
353.43615
353.4363
353.43636
353.43602
353.43597
353.43585
353.43591
353.43596
353.43598
353.43598
353.43599
353.43615
353.43626
353.43607
353.43603
353.43591
353.43597
353.43602
353.43603
353.43601
353.43601
353.43615
353.43625
353.43613
353.43608
353.43596
353.43602
353.43606
353.43606
353.43604
353.43603
353.43616
353.43625
353.43616
353.43611
353.43598
353.43603
353.43606
353.43606
353.43603
353.43602
353.43614
353.43623
353.43618
353.43612
353.43598
353.43601
353.43604
353.43603
353.436
353.43599
353.43611
353.43621
353.43622
353.43615
353.43599
353.43601
353.43603
353.43602
353.43599
353.43598
353.43612
353.43623
353.43631
353.4363
353.43615
353.43615
353.43616
353.43614
353.43611
353.43612
353.43628
353.43642
353.43633
353.43636
353.43626
353.43625
353.43625
353.43623
353.43621
353.43623
353.43642
353.43645
362.57945
362.57949
362.57926
362.57931
362.57937
362.57941
362.57942
362.57946
362.57955
362.57957
362.57949
362.57935
362.57921
362.57927
362.57933
362.57936
362.57936
362.57939
362.57954
362.57961
362.57926
362.57921
362.57908
362.57915
362.5792
362.57922
362.57921
362.57922
362.57939
362.5795
362.57931
362.57927
362.57915
362.57922
362.57927
362.57928
362.57925
362.57924
362.57939
362.57949
362.57937
362.57933
362.5792
362.57927
362.57931
362.57931
362.57928
362.57926
362.57939
362.57949
362.57941
362.57936
362.57922
362.57928
362.57931
362.57931
362.57927
362.57924
362.57937
362.57946
362.57942
362.57936
362.57921
362.57925
362.57928
362.57927
362.57923
362.5792
362.57934
362.57943
362.57946
362.57939
362.57922
362.57924
362.57926
362.57924
362.5792
362.57919
362.57933
362.57945
362.57955
362.57954
362.57939
362.57939
362.57939
362.57937
362.57934
362.57933
362.57951
362.57966
362.57957
362.57961
362.5795
362.57949
362.57949
362.57946
362.57943
362.57945
362.57966
362.57969
371.5731
371.57314
371.5729
371.57296
371.57303
371.57306
371.57307
371.5731
371.5732
371.57322
371.57314
371.573
371.57285
371.57293
371.57299
371.57301
371.57301
371.57303
371.57319
371.57326
371.5729
371.57285
371.57273
371.5728
371.57286
371.57287
371.57285
371.57286
371.57303
371.57315
371.57296
371.57293
371.5728
371.57288
371.57293
371.57293
371.5729
371.57288
371.57303
371.57314
371.57303
371.57299
371.57286
371.57293
371.57297
371.57297
371.57293
371.5729
371.57303
371.57313
371.57306
371.57301
371.57287
371.57293
371.57297
371.57296
371.57291
371.57288
371.57301
371.5731
371.57307
371.57301
371.57285
371.5729
371.57293
371.57291
371.57286
371.57282
371.57296
371.57306
371.5731
371.57303
371.57286
371.57288
371.5729
371.57288
371.57282
371.5728
371.57295
371.57307
371.5732
371.57319
371.57303
371.57303
371.57303
371.57301
371.57296
371.57295
371.57313
371.5733
371.57322
371.57326
371.57315
371.57314
371.57313
371.5731
371.57306
371.57307
371.5733
371.57332
380.41344
380.41348
380.41324
380.41331
380.41337
380.4134
380.41341
380.41343
380.41353
380.41355
380.41348
380.41334
380.41319
380.41327
380.41334
380.41336
380.41335
380.41337
380.41353
380.4136
380.41324
380.41319
380.41306
380.41315
380.41321
380.41322
380.41319
380.41318
380.41336
380.41348
380.41331
380.41327
380.41315
380.41323
380.41328
380.41328
380.41324
380.41321
380.41336
380.41347
380.41337
380.41334
380.41321
380.41328
380.41333
380.41332
380.41326
380.41322
380.41336
380.41346
380.4134
380.41336
380.41322
380.41328
380.41332
380.4133
380.41324
380.41319
380.41333
380.41342
380.41341
380.41335
380.41319
380.41324
380.41326
380.41324
380.41318
380.41313
380.41327
380.41337
380.41343
380.41337
380.41318
380.41321
380.41322
380.41319
380.41313
380.4131
380.41325
380.41337
380.41353
380.41353
380.41336
380.41336
380.41336
380.41333
380.41327
380.41325
380.41344
380.41361
380.41355
380.4136
380.41348
380.41347
380.41346
380.41342
380.41337
380.41337
380.41361
380.41363
389.09748
389.09753
389.09729
389.09736
389.09743
389.09746
389.09746
389.09748
389.09757
389.09759
389.09753
389.0974
389.09725
389.09733
389.0974
389.09742
389.0974
389.09741
389.09757
389.09764
389.09729
389.09725
389.09712
389.09721
389.09727
389.09727
389.09724
389.09722
389.0974
389.09752
389.09736
389.09733
389.09721
389.09729
389.09735
389.09734
389.09729
389.09725
389.0974
389.09751
389.09743
389.0974
389.09727
389.09735
389.09739
389.09738
389.09732
389.09726
389.0974
389.09749
389.09746
389.09742
389.09727
389.09734
389.09738
389.09736
389.09729
389.09723
389.09736
389.09745
389.09746
389.0974
389.09724
389.09729
389.09732
389.09729
389.09721
389.09715
389.09729
389.09739
389.09748
389.09741
389.09722
389.09725
389.09726
389.09723
389.09715
389.0971
389.09726
389.09738
389.09757
389.09757
389.0974
389.0974
389.0974
389.09736
389.09729
389.09726
389.09745
389.09763
389.09759
389.09764
389.09752
389.09751
389.09749
389.09745
389.09739
389.09738
389.09763
389.09764
397.62301
397.62306
397.62281
397.62289
397.62296
397.62299
397.62298
397.62299
397.62308
397.6231
397.62306
397.62293
397.62278
397.62287
397.62294
397.62295
397.62293
397.62293
397.62309
397.62315
397.62281
397.62278
397.62265
397.62274
397.62281
397.62281
397.62276
397.62274
397.62291
397.62303
397.62289
397.62287
397.62274
397.62284
397.62289
397.62288
397.62282
397.62277
397.62291
397.62302
397.62296
397.62294
397.62281
397.62289
397.62294
397.62292
397.62284
397.62278
397.62291
397.623
397.62299
397.62295
397.62281
397.62288
397.62292
397.62289
397.6228
397.62273
397.62286
397.62295
397.62298
397.62293
397.62276
397.62282
397.62284
397.6228
397.62272
397.62265
397.62278
397.62288
397.62299
397.62293
397.62274
397.62277
397.62278
397.62273
397.62265
397.62259
397.62274
397.62286
397.62308
397.62309
397.62291
397.62291
397.62291
397.62286
397.62278
397.62274
397.62293
397.62311
397.6231
397.62315
397.62303
397.62302
397.623
397.62295
397.62288
397.62286
397.62311
397.62312
405.98849
405.98855
405.9883
405.98839
405.98846
405.98848
405.98847
405.98847
405.98856
405.98857
405.98855
405.98842
405.98827
405.98837
405.98844
405.98845
405.98842
405.98841
405.98856
405.98863
405.9883
405.98827
405.98815
405.98825
405.98831
405.98831
405.98825
405.98822
405.98839
405.98851
405.98839
405.98837
405.98825
405.98835
405.9884
405.98838
405.98831
405.98825
405.98839
405.98849
405.98846
405.98844
405.98831
405.9884
405.98845
405.98842
405.98833
405.98825
405.98838
405.98847
405.98848
405.98845
405.98831
405.98838
405.98842
405.98838
405.98829
405.9882
405.98833
405.98841
405.98847
405.98842
405.98825
405.98831
405.98833
405.98829
405.98819
405.98811
405.98823
405.98833
405.98847
405.98841
405.98822
405.98825
405.98825
405.9882
405.98811
405.98803
405.98818
405.9883
405.98856
405.98856
405.98839
405.98839
405.98838
405.98833
405.98823
405.98818
405.98837
405.98855
405.98857
405.98863
405.98851
405.98849
405.98847
405.98841
405.98833
405.9883
405.98855
405.98856
414.19315
414.19322
414.19297
414.19307
414.19314
414.19316
414.19313
414.19313
414.19321
414.19321
414.19322
414.19309
414.19295
414.19305
414.19312
414.19312
414.19308
414.19306
414.19322
414.19327
414.19297
414.19295
414.19283
414.19293
414.193
414.19299
414.19292
414.19287
414.19304
414.19316
414.19307
414.19305
414.19293
414.19303
414.19309
414.19306
414.19298
414.19291
414.19304
414.19314
414.19314
414.19312
414.193
414.19309
414.19313
414.1931
414.193
414.19291
414.19303
414.19311
414.19316
414.19312
414.19299
414.19306
414.1931
414.19306
414.19295
414.19285
414.19297
414.19305
414.19313
414.19308
414.19292
414.19298
414.193
414.19295
414.19284
414.19274
414.19286
414.19295
414.19313
414.19306
414.19287
414.19291
414.19291
414.19285
414.19274
414.19266
414.1928
414.19292
414.19321
414.19322
414.19304
414.19304
414.19303
414.19297
414.19286
414.1928
414.19299
414.19317
414.19321
414.19327
414.19316
414.19314
414.19311
414.19305
414.19295
414.19292
414.19317
414.19317
422.23691
422.23698
422.23674
422.23683
422.23691
422.23692
422.23689
422.23687
422.23695
422.23695
422.23698
422.23686
422.23672
422.23682
422.23689
422.23689
422.23684
422.23681
422.23696
422.23701
422.23674
422.23672
422.2366
422.23671
422.23677
422.23676
422.23668
422.23663
422.23678
422.2369
422.23683
422.23682
422.23671
422.23681
422.23687
422.23684
422.23674
422.23666
422.23679
422.23688
422.23691
422.23689
422.23677
422.23687
422.23691
422.23687
422.23676
422.23666
422.23677
422.23685
422.23692
422.23689
422.23676
422.23684
422.23687
422.23682
422.23671
422.23659
422.2367
422.23677
422.23689
422.23684
422.23668
422.23674
422.23676
422.23671
422.23659
422.23647
422.23659
422.23667
422.23687
422.23681
422.23663
422.23666
422.23666
422.23659
422.23647
422.23637
422.23651
422.23662
422.23695
422.23696
422.23678
422.23679
422.23677
422.2367
422.23659
422.23651
422.23669
422.23687
422.23695
422.23701
422.2369
422.23688
422.23685
422.23677
422.23667
422.23662
422.23687
422.23686
430.12036
430.12043
430.1202
430.1203
430.12037
430.12038
430.12034
430.12032
430.12039
430.12038
430.12043
430.12032
430.12019
430.1203
430.12036
430.12036
430.1203
430.12026
430.1204
430.12045
430.1202
430.12019
430.12008
430.12019
430.12025
430.12023
430.12014
430.12007
430.12022
430.12033
430.1203
430.1203
430.12019
430.12029
430.12034
430.12031
430.12021
430.12011
430.12023
430.12031
430.12037
430.12036
430.12025
430.12034
430.12038
430.12034
430.12022
430.1201
430.12021
430.12027
430.12038
430.12036
430.12023
430.12031
430.12034
430.12028
430.12016
430.12003
430.12013
430.12019
430.12034
430.1203
430.12014
430.12021
430.12022
430.12016
430.12003
430.1199
430.12001
430.12008
430.12032
430.12026
430.12007
430.12011
430.1201
430.12003
430.1199
430.11979
430.11991
430.12002
430.12039
430.1204
430.12022
430.12023
430.12021
430.12013
430.12001
430.11991
430.12009
430.12027
430.12038
430.12045
430.12033
430.12031
430.12027
430.12019
430.12008
430.12002
430.12027
430.12025
437.84479
437.84486
437.84464
437.84474
437.84481
437.84481
437.84477
437.84473
437.84479
437.84478
437.84486
437.84475
437.84463
437.84474
437.84481
437.8448
437.84473
437.84468
437.84481
437.84485
437.84464
437.84463
437.84453
437.84464
437.84469
437.84467
437.84458
437.8445
437.84464
437.84474
437.84474
437.84474
437.84464
437.84474
437.84479
437.84475
437.84464
437.84453
437.84464
437.84471
437.84481
437.84481
437.84469
437.84479
437.84483
437.84478
437.84465
437.84452
437.84461
437.84468
437.84481
437.8448
437.84467
437.84475
437.84478
437.84472
437.84458
437.84444
437.84453
437.84459
437.84477
437.84473
437.84458
437.84464
437.84465
437.84458
437.84444
437.8443
437.8444
437.84446
437.84473
437.84468
437.8445
437.84453
437.84452
437.84444
437.8443
437.84418
437.84429
437.8444
437.84479
437.84481
437.84464
437.84464
437.84461
437.84453
437.8444
437.84429
437.84446
437.84464
437.84478
437.84485
437.84474
437.84471
437.84468
437.84459
437.84446
437.8444
437.84464
437.84461
445.41211
445.41219
445.41197
445.41207
445.41214
445.41214
445.41209
445.41204
445.4121
445.41208
445.41219
445.41209
445.41197
445.41208
445.41214
445.41213
445.41205
445.41199
445.41211
445.41215
445.41197
445.41197
445.41187
445.41198
445.41204
445.41201
445.41191
445.41181
445.41195
445.41204
445.41207
445.41208
445.41198
445.41209
445.41214
445.41209
445.41197
445.41185
445.41195
445.41202
445.41214
445.41214
445.41204
445.41214
445.41217
445.41211
445.41198
445.41184
445.41192
445.41197
445.41214
445.41213
445.41201
445.41209
445.41211
445.41205
445.4119
445.41175
445.41183
445.41188
445.41209
445.41205
445.41191
445.41197
445.41198
445.4119
445.41175
445.4116
445.41169
445.41175
445.41204
445.41199
445.41181
445.41185
445.41184
445.41175
445.4116
445.41147
445.41157
445.41167
445.4121
445.41211
445.41195
445.41195
445.41192
445.41183
445.41169
445.41157
445.41173
445.4119
445.41208
445.41215
445.41204
445.41202
445.41197
445.41188
445.41175
445.41167
445.4119
445.41187
452.82488
452.82496
452.82475
452.82485
452.82492
452.82491
452.82485
452.8248
452.82484
452.82482
452.82496
452.82486
452.82475
452.82487
452.82493
452.82491
452.82482
452.82475
452.82487
452.82489
452.82475
452.82475
452.82466
452.82477
452.82483
452.82479
452.82468
452.82458
452.8247
452.82478
452.82485
452.82487
452.82477
452.82488
452.82492
452.82487
452.82474
452.82461
452.8247
452.82476
452.82492
452.82493
452.82483
452.82492
452.82496
452.82489
452.82475
452.8246
452.82467
452.82471
452.82491
452.82491
452.82479
452.82487
452.82489
452.82482
452.82467
452.82451
452.82457
452.82461
452.82485
452.82482
452.82468
452.82474
452.82475
452.82467
452.82451
452.82435
452.82442
452.82447
452.8248
452.82475
452.82458
452.82461
452.8246
452.82451
452.82435
452.8242
452.8243
452.82439
452.82484
452.82487
452.8247
452.8247
452.82467
452.82457
452.82442
452.8243
452.82445
452.82461
452.82482
452.82489
452.82478
452.82476
452.82471
452.82461
452.82447
452.82439
452.82461
452.82457
460.08624
460.08632
460.08613
460.08623
460.08629
460.08628
460.08621
460.08615
460.08619
460.08616
460.08632
460.08624
460.08613
460.08625
460.0863
460.08628
460.08619
460.08611
460.08621
460.08623
460.08613
460.08613
460.08605
460.08616
460.08621
460.08617
460.08605
460.08594
460.08605
460.08613
460.08623
460.08625
460.08616
460.08627
460.08631
460.08625
460.08611
460.08597
460.08605
460.0861
460.08629
460.0863
460.08621
460.08631
460.08633
460.08627
460.08612
460.08595
460.08601
460.08605
460.08628
460.08628
460.08617
460.08625
460.08627
460.08619
460.08603
460.08586
460.08591
460.08595
460.08621
460.08619
460.08605
460.08611
460.08612
460.08603
460.08586
460.08569
460.08576
460.0858
460.08615
460.08611
460.08594
460.08597
460.08595
460.08586
460.08569
460.08554
460.08562
460.0857
460.08619
460.08621
460.08605
460.08605
460.08601
460.08591
460.08576
460.08562
460.08576
460.08592
460.08616
460.08623
460.08613
460.0861
460.08605
460.08595
460.0858
460.0857
460.08592
460.08587
467.19992
467.20001
467.19982
467.19992
467.19998
467.19996
467.19989
467.19982
467.19985
467.19982
467.20001
467.19993
467.19983
467.19994
467.2
467.19997
467.19987
467.19978
467.19987
467.19989
467.19982
467.19983
467.19975
467.19986
467.19991
467.19986
467.19974
467.19962
467.19972
467.19979
467.19992
467.19994
467.19986
467.19997
467.2
467.19994
467.1998
467.19965
467.19972
467.19976
467.19998
467.2
467.19991
467.2
467.20003
467.19995
467.1998
467.19963
467.19968
467.19971
467.19996
467.19997
467.19986
467.19994
467.19995
467.19987
467.19971
467.19953
467.19957
467.1996
467.19989
467.19987
467.19974
467.1998
467.1998
467.19971
467.19953
467.19936
467.19941
467.19944
467.19982
467.19978
467.19962
467.19965
467.19963
467.19953
467.19936
467.19919
467.19927
467.19934
467.19985
467.19987
467.19972
467.19972
467.19968
467.19957
467.19941
467.19927
467.1994
467.19954
467.19982
467.19989
467.19979
467.19976
467.19971
467.1996
467.19944
467.19934
467.19954
467.19949
474.17019
474.17027
474.1701
474.1702
474.17025
474.17023
474.17015
474.17008
474.17009
474.17006
474.17027
474.1702
474.17011
474.17022
474.17027
474.17024
474.17014
474.17004
474.17012
474.17013
474.1701
474.17011
474.17004
474.17015
474.17019
474.17014
474.17001
474.16989
474.16997
474.17003
474.1702
474.17022
474.17015
474.17025
474.17028
474.17022
474.17007
474.16991
474.16997
474.17
474.17025
474.17027
474.17019
474.17028
474.1703
474.17023
474.17006
474.16989
474.16993
474.16995
474.17023
474.17024
474.17014
474.17022
474.17023
474.17014
474.16997
474.16978
474.16982
474.16984
474.17015
474.17014
474.17001
474.17007
474.17006
474.16997
474.16979
474.16961
474.16965
474.16968
474.17008
474.17004
474.16989
474.16991
474.16989
474.16978
474.16961
474.16944
474.1695
474.16957
474.17009
474.17012
474.16997
474.16997
474.16993
474.16982
474.16965
474.1695
474.16962
474.16976
474.17006
474.17013
474.17003
474.17
474.16995
474.16984
474.16968
474.16957
474.16976
474.1697
481.00182
481.0019
481.00174
481.00184
481.00189
481.00186
481.00178
481.00169
481.00171
481.00166
481.0019
481.00184
481.00176
481.00186
481.00191
481.00187
481.00176
481.00166
481.00173
481.00173
481.00174
481.00176
481.0017
481.0018
481.00184
481.00178
481.00165
481.00152
481.00159
481.00164
481.00184
481.00186
481.0018
481.00189
481.00192
481.00185
481.0017
481.00154
481.00158
481.00161
481.00189
481.00191
481.00184
481.00192
481.00194
481.00186
481.00169
481.00151
481.00154
481.00155
481.00186
481.00187
481.00178
481.00185
481.00186
481.00177
481.00159
481.00141
481.00143
481.00144
481.00178
481.00176
481.00165
481.0017
481.00169
481.00159
481.00142
481.00123
481.00126
481.00128
481.00169
481.00166
481.00152
481.00154
481.00151
481.00141
481.00123
481.00105
481.0011
481.00116
481.00171
481.00173
481.00159
481.00158
481.00154
481.00143
481.00126
481.0011
481.00121
481.00134
481.00166
481.00173
481.00164
481.00161
481.00155
481.00144
481.00128
481.00116
481.00134
481.00128
487.70007
487.70016
487.70001
487.7001
487.70015
487.70012
487.70003
487.69994
487.69994
487.6999
487.70016
487.7001
487.70003
487.70013
487.70017
487.70013
487.70002
487.69991
487.69997
487.69996
487.70001
487.70003
487.69997
487.70007
487.7001
487.70005
487.69991
487.69977
487.69984
487.69988
487.7001
487.70013
487.70007
487.70016
487.70019
487.70011
487.69996
487.69979
487.69983
487.69985
487.70015
487.70017
487.7001
487.70019
487.7002
487.70011
487.69995
487.69976
487.69978
487.69979
487.70012
487.70013
487.70005
487.70011
487.70011
487.70002
487.69985
487.69965
487.69967
487.69967
487.70003
487.70002
487.69991
487.69996
487.69995
487.69985
487.69967
487.69947
487.69949
487.69951
487.69994
487.69991
487.69977
487.69979
487.69976
487.69965
487.69947
487.6993
487.69934
487.69938
487.69994
487.69997
487.69984
487.69983
487.69978
487.69967
487.69949
487.69934
487.69943
487.69955
487.6999
487.69996
487.69988
487.69985
487.69979
487.69967
487.69951
487.69938
487.69955
487.69949
494.27067
494.27075
494.27061
494.2707
494.27074
494.2707
494.27061
494.27052
494.27052
494.27047
494.27075
494.2707
494.27064
494.27073
494.27077
494.27072
494.27061
494.2705
494.27054
494.27053
494.27061
494.27064
494.27059
494.27068
494.2707
494.27064
494.27051
494.27037
494.27042
494.27045
494.2707
494.27073
494.27068
494.27076
494.27078
494.27071
494.27055
494.27038
494.27041
494.27042
494.27074
494.27077
494.2707
494.27078
494.27079
494.2707
494.27054
494.27035
494.27036
494.27036
494.2707
494.27072
494.27064
494.27071
494.2707
494.27061
494.27043
494.27024
494.27024
494.27024
494.27061
494.27061
494.27051
494.27055
494.27054
494.27043
494.27025
494.27006
494.27007
494.27008
494.27052
494.2705
494.27037
494.27038
494.27035
494.27024
494.27006
494.26988
494.26991
494.26995
494.27052
494.27054
494.27042
494.27041
494.27036
494.27024
494.27007
494.26991
494.26999
494.2701
494.27047
494.27053
494.27045
494.27042
494.27036
494.27024
494.27008
494.26995
494.2701
494.27004
500.71972
500.7198
500.71967
500.71975
500.71979
500.71975
500.71966
500.71956
500.71955
500.7195
500.7198
500.71976
500.7197
500.71979
500.71982
500.71977
500.71965
500.71954
500.71958
500.71956
500.71967
500.7197
500.71965
500.71974
500.71976
500.7197
500.71956
500.71942
500.71946
500.71949
500.71975
500.71979
500.71974
500.71982
500.71983
500.71976
500.7196
500.71943
500.71945
500.71945
500.71979
500.71982
500.71976
500.71983
500.71984
500.71975
500.71958
500.7194
500.7194
500.71939
500.71975
500.71977
500.7197
500.71976
500.71975
500.71965
500.71948
500.71929
500.71928
500.71927
500.71966
500.71965
500.71956
500.7196
500.71958
500.71948
500.7193
500.71911
500.71911
500.71911
500.71956
500.71954
500.71942
500.71943
500.7194
500.71929
500.71911
500.71893
500.71895
500.71898
500.71955
500.71958
500.71946
500.71945
500.7194
500.71928
500.71911
500.71895
500.71902
500.71912
500.7195
500.71956
500.71949
500.71945
500.71939
500.71927
500.71911
500.71898
500.71912
500.71906
507.05372
507.0538
507.05369
507.05376
507.05379
507.05375
507.05366
507.05356
507.05354
507.05349
507.0538
507.05377
507.05372
507.0538
507.05382
507.05377
507.05366
507.05354
507.05357
507.05355
507.05369
507.05372
507.05368
507.05376
507.05377
507.05371
507.05357
507.05343
507.05346
507.05348
507.05376
507.0538
507.05376
507.05383
507.05384
507.05376
507.05361
507.05344
507.05345
507.05345
507.05379
507.05382
507.05377
507.05384
507.05384
507.05375
507.05358
507.0534
507.05339
507.05338
507.05375
507.05377
507.05371
507.05376
507.05375
507.05365
507.05348
507.05329
507.05328
507.05327
507.05366
507.05366
507.05357
507.05361
507.05358
507.05348
507.0533
507.05312
507.05311
507.0531
507.05356
507.05354
507.05343
507.05344
507.0534
507.05329
507.05312
507.05294
507.05295
507.05298
507.05354
507.05357
507.05346
507.05345
507.05339
507.05328
507.05311
507.05295
507.05301
507.05311
507.05349
507.05355
507.05348
507.05345
507.05338
507.05327
507.0531
507.05298
507.05311
507.05304
513.27953
513.2796
513.2795
513.27957
513.27959
513.27955
513.27945
513.27936
513.27933
513.27928
513.2796
513.27958
513.27953
513.2796
513.27962
513.27957
513.27945
513.27934
513.27936
513.27934
513.2795
513.27953
513.2795
513.27957
513.27958
513.27951
513.27938
513.27924
513.27926
513.27927
513.27957
513.2796
513.27957
513.27963
513.27963
513.27956
513.27941
513.27924
513.27924