/*--------------------------------*- C++ -*----------------------------------*\
| =========                 |                                                 |
| \\      /  F ield         | OpenFOAM: The Open Source CFD Toolbox           |
|  \\    /   O peration     | Version:  v2106                                 |
|   \\  /    A nd           | Website:  www.openfoam.com                      |
|    \\/     M anipulation  |                                                 |
\*---------------------------------------------------------------------------*/
FoamFile
{
    version     2.0;
    format      ascii;
    arch        "LSB;label=32;scalar=64";
    class       volVectorField;
    location    "50";
    object      flux;
}
// * * * * * * * * * * * * * * * * * * * * * * * * * * * * * * * * * * * * * //

dimensions      [0 1 -1 1 0 0 0];

internalField   nonuniform List<vector> 
10000
(
(-1.3785581e-07 -1.3785491e-07 7.4993428)
(1.2712746e-07 -7.6165447e-09 7.4993424)
(1.4653814e-06 1.9384146e-07 7.4993439)
(2.0140459e-06 1.5587759e-07 7.4993476)
(1.0427781e-06 7.0926376e-08 7.4993513)
(1.0508425e-06 5.0004137e-07 7.4993525)
(7.3167598e-07 1.6018286e-08 7.4993551)
(-4.4424375e-07 -1.9509372e-08 7.4993548)
(5.0076906e-07 4.6680995e-07 7.4993538)
(5.2403247e-07 -1.5596716e-07 7.4993564)
(-7.6174447e-09 1.2713052e-07 7.4993424)
(6.2467201e-07 6.2467556e-07 7.4993428)
(1.7106226e-06 1.0096866e-06 7.4993451)
(1.8296733e-06 7.1129257e-07 7.4993492)
(1.5590238e-06 5.734826e-07 7.4993522)
(9.6848041e-07 7.3071739e-07 7.4993546)
(-4.7650133e-08 1.7700473e-08 7.4993559)
(2.3194374e-07 3.6718667e-07 7.4993549)
(2.9608238e-07 8.4934953e-07 7.4993559)
(-9.8744645e-08 1.2262412e-07 7.4993562)
(1.9384089e-07 1.4653858e-06 7.4993439)
(1.0096835e-06 1.7106265e-06 7.4993451)
(1.5519984e-06 1.5520028e-06 7.4993478)
(1.5778419e-06 1.4027939e-06 7.4993511)
(1.0622029e-06 9.5777168e-07 7.4993538)
(4.9506042e-07 -2.2951838e-07 7.4993549)
(3.6814527e-07 5.3184607e-07 7.4993557)
(3.8740531e-07 5.3603578e-07 7.4993561)
(2.562065e-07 -2.3392701e-07 7.4993568)
(3.9548856e-08 2.9806813e-07 7.4993571)
(1.5587631e-07 2.0140502e-06 7.4993476)
(7.1128895e-07 1.8296764e-06 7.4993492)
(1.4027901e-06 1.5778452e-06 7.4993511)
(1.2354422e-06 1.2354451e-06 7.4993537)
(-7.3288505e-08 2.2479655e-08 7.4993554)
(5.425548e-07 2.9411282e-07 7.4993543)
(7.1790403e-07 2.5099034e-07 7.4993571)
(-5.3382934e-07 -6.1663556e-07 7.4993568)
(5.8114722e-08 6.8901116e-08 7.4993557)
(2.5591878e-07 -1.353871e-07 7.4993563)
(7.092505e-08 1.0427799e-06 7.4993513)
(5.7347854e-07 1.5590257e-06 7.4993522)
(9.5776713e-07 1.062205e-06 7.4993538)
(2.2476386e-08 -7.3286088e-08 7.4993554)
(1.2087064e-07 1.2087298e-07 7.4993544)
(7.235711e-07 3.140071e-07 7.4993557)
(-5.4260312e-07 -6.9025532e-07 7.4993567)
(2.0531608e-07 3.0829824e-07 7.4993541)
(7.3745497e-07 5.7237479e-07 7.4993559)
(-9.6643287e-08 -8.3177163e-07 7.4993557)
(5.0004019e-07 1.0508435e-06 7.4993525)
(7.3071405e-07 9.684819e-07 7.4993546)
(-2.2952172e-07 4.9506362e-07 7.4993549)
(2.9411019e-07 5.4255899e-07 7.4993543)
(3.1400468e-07 7.2357551e-07 7.4993557)
(-2.685735e-07 -2.685691e-07 7.4993555)
(7.1219517e-07 2.2810134e-07 7.4993549)
(7.2880077e-07 2.7411929e-07 7.4993561)
(-1.0819551e-06 -5.1597631e-07 7.4993564)
(-6.8017883e-07 -1.2552647e-07 7.4993539)
(1.6017339e-08 7.3168003e-07 7.4993551)
(1.7698695e-08 -4.7644733e-08 7.4993559)
(5.3184422e-07 3.6815074e-07 7.4993557)
(2.5098828e-07 7.1791163e-07 7.4993571)
(-6.9025745e-07 -5.4259452e-07 7.4993567)
(2.2809694e-07 7.1220427e-07 7.4993549)
(8.5264722e-11 9.4075452e-11 7.4993567)
(-5.3876157e-07 -3.2719015e-07 7.4993549)
(3.3780921e-07 1.3513656e-06 7.4993554)
(1.6365661e-07 1.8812241e-06 7.4993556)
(-1.9509656e-08 -4.4423814e-07 7.4993548)
(3.6718475e-07 2.3195135e-07 7.4993549)
(5.3603465e-07 3.8741206e-07 7.4993561)
(-6.1663506e-07 -5.3382046e-07 7.4993568)
(3.0829732e-07 2.0532646e-07 7.4993541)
(2.741151e-07 7.2881114e-07 7.4993561)
(-3.2719925e-07 -5.3875311e-07 7.4993549)
(2.0800723e-06 2.0800812e-06 7.4993561)
(1.1264591e-06 2.3327812e-06 7.4993602)
(-3.2693985e-07 5.5778017e-07 7.4993585)
(4.6681033e-07 5.0077261e-07 7.4993538)
(8.4934889e-07 2.9608692e-07 7.4993559)
(-2.3392758e-07 2.5621198e-07 7.4993568)
(6.8902679e-08 5.812126e-08 7.4993557)
(5.7237415e-07 7.3746257e-07 7.4993559)
(-5.1598263e-07 -1.0819495e-06 7.4993564)
(1.3513553e-06 3.3781212e-07 7.4993554)
(2.3327728e-06 1.1264626e-06 7.4993602)
(-1.1844918e-06 -1.1844863e-06 7.499361)
(-1.0196774e-06 -1.9900414e-06 7.4993565)
(-1.5596678e-07 5.2403332e-07 7.4993564)
(1.2262411e-07 -9.8743792e-08 7.4993562)
(2.9806898e-07 3.9550135e-08 7.4993571)
(-1.3538447e-07 2.5592058e-07 7.4993563)
(-8.3177341e-07 -9.6641296e-08 7.4993557)
(-1.2553535e-07 -6.8017779e-07 7.4993539)
(1.8812128e-06 1.6365689e-07 7.4993556)
(5.5777384e-07 -3.2693942e-07 7.4993585)
(-1.990045e-06 -1.0196757e-06 7.4993565)
(-8.6397658e-07 -8.6397487e-07 7.4993527)
(-1.7649646e-08 -1.7647703e-08 7.4993444)
(1.2278093e-06 4.4153699e-07 7.4993452)
(3.4202515e-06 5.7297285e-07 7.4993476)
(5.0551809e-06 1.0571879e-06 7.4993498)
(4.1137513e-06 6.2934196e-07 7.4993519)
(2.4472755e-06 6.2451467e-07 7.4993542)
(1.2855784e-06 8.4186965e-07 7.4993536)
(-4.9658006e-07 2.0524519e-07 7.4993541)
(9.7703655e-07 6.3057811e-07 7.4993536)
(1.0243051e-06 2.1989711e-07 7.499354)
(4.4153504e-07 1.2278183e-06 7.4993452)
(2.1137402e-06 2.11375e-06 7.499347)
(4.3437279e-06 2.7977821e-06 7.4993487)
(5.1397346e-06 3.0678704e-06 7.499351)
(3.4647415e-06 1.9396906e-06 7.4993534)
(2.7660671e-06 1.4620979e-06 7.4993544)
(6.5667422e-07 8.8403375e-07 7.4993543)
(-8.1351736e-07 8.4888122e-07 7.4993547)
(9.9901442e-07 1.9127486e-06 7.4993543)
(6.1362409e-07 6.4520762e-07 7.4993542)
(5.7297143e-07 3.4202643e-06 7.4993476)
(2.7977731e-06 4.3437405e-06 7.4993487)
(4.3743719e-06 4.3743844e-06 7.4993504)
(4.1970895e-06 2.6329099e-06 7.4993528)
(2.5079788e-06 2.0364448e-06 7.4993535)
(1.3916186e-06 3.3020385e-07 7.4993548)
(6.7236179e-07 1.1310441e-07 7.4993555)
(5.3213483e-07 1.265679e-06 7.4993552)
(7.7336296e-07 4.3542933e-07 7.4993541)
(1.7927775e-07 -7.3475071e-07 7.4993537)
(1.0571858e-06 5.0551929e-06 7.4993498)
(3.0678603e-06 5.1397444e-06 7.499351)
(2.6328973e-06 4.1970997e-06 7.4993528)
(2.8017949e-06 2.8018051e-06 7.4993528)
(1.1620354e-06 8.2707857e-07 7.4993541)
(8.4272671e-07 3.0224747e-07 7.4993555)
(1.5921493e-06 7.897497e-07 7.4993546)
(-4.9119244e-07 -1.1244884e-06 7.4993538)
(-1.0014153e-06 -1.5103689e-06 7.4993527)
(-1.6649594e-07 -1.7247395e-06 7.4993521)
(6.2933912e-07 4.1137594e-06 7.4993519)
(1.9396799e-06 3.464749e-06 7.4993534)
(2.0364326e-06 2.5079879e-06 7.4993535)
(8.2706833e-07 1.1620455e-06 7.4993541)
(8.4212104e-09 8.4325791e-09 7.4993548)
(1.3542898e-06 7.3582527e-07 7.4993546)
(-7.5437413e-07 -1.2074893e-06 7.4993539)
(-1.7679838e-06 -1.9608383e-06 7.4993521)
(1.7311194e-07 -6.4412319e-07 7.4993511)
(3.6364062e-08 -1.1405373e-06 7.4993513)
(6.2451226e-07 2.4472827e-06 7.4993542)
(1.4620888e-06 2.7660761e-06 7.4993544)
(3.3019376e-07 1.3916316e-06 7.4993548)
(3.0223958e-07 8.4274156e-07 7.4993555)
(7.3581525e-07 1.3543068e-06 7.4993546)
(-3.7319516e-07 -3.731769e-07 7.4993545)
(-1.1045142e-06 -7.2974892e-07 7.4993523)
(7.2173663e-08 3.9509395e-07 7.4993508)
(-1.8111429e-07 7.028386e-07 7.499351)
(-4.974387e-07 1.830697e-07 7.499351)
(8.4186809e-07 1.2855899e-06 7.4993536)
(8.8402878e-07 6.56689e-07 7.4993543)
(1.1309801e-07 6.7238005e-07 7.4993555)
(7.897436e-07 1.5921709e-06 7.4993546)
(-1.2074972e-06 -7.5434983e-07 7.4993539)
(-7.2976597e-07 -1.1044881e-06 7.4993523)
(1.3896724e-08 1.3922233e-08 7.4993521)
(-3.3539628e-07 9.0399766e-07 7.4993515)
(-3.8912306e-08 1.6576455e-06 7.4993506)
(-3.1014854e-07 1.2438433e-06 7.4993497)
(2.0524501e-07 -4.9656592e-07 7.4993541)
(8.4887901e-07 -8.1350137e-07 7.4993547)
(1.2656756e-06 5.3215139e-07 7.4993552)
(-1.1244903e-06 -4.9116906e-07 7.4993538)
(-1.9608437e-06 -1.7679567e-06 7.4993521)
(3.950769e-07 7.2199738e-08 7.4993508)
(9.0397151e-07 -3.3537511e-07 7.4993515)
(1.7158969e-06 1.7159186e-06 7.4993495)
(1.5873134e-07 1.4834291e-06 7.4993486)
(-7.7330682e-07 -2.1958542e-07 7.499348)
(6.3057778e-07 9.7704586e-07 7.4993536)
(1.9127461e-06 9.9902252e-07 7.4993543)
(4.3543032e-07 7.7337411e-07 7.4993541)
(-1.5103645e-06 -1.0013962e-06 7.4993527)
(-6.4412845e-07 1.7313219e-07 7.4993511)
(7.0281558e-07 -1.8110043e-07 7.499351)
(1.6576156e-06 -3.890378e-08 7.4993506)
(1.483408e-06 1.5874775e-07 7.4993486)
(-1.9744164e-06 -1.9743975e-06 7.4993484)
(-1.4454916e-06 -2.6096227e-06 7.4993468)
(2.1989611e-07 1.0243066e-06 7.499354)
(6.4520727e-07 6.136249e-07 7.4993542)
(-7.3474304e-07 1.7928069e-07 7.4993537)
(-1.7247322e-06 -1.6649068e-07 7.4993521)
(-1.140548e-06 3.6368846e-08 7.4993513)
(1.8304092e-07 -4.9743704e-07 7.499351)
(1.2438197e-06 -3.1014759e-07 7.4993497)
(-2.1959686e-07 -7.73301e-07 7.499348)
(-2.6096391e-06 -1.4454841e-06 7.4993468)
(-1.1967902e-06 -1.1967828e-06 7.4993469)
(4.1332763e-07 4.1333147e-07 7.4993483)
(3.4014264e-06 1.222049e-06 7.4993495)
(6.1331021e-06 8.8508424e-07 7.4993508)
(6.3349822e-06 9.5354863e-07 7.4993531)
(5.3740403e-06 1.068272e-06 7.4993525)
(2.7332085e-06 6.228828e-07 7.499353)
(6.1346619e-07 4.4815451e-07 7.4993522)
(-4.3164235e-07 3.9542404e-07 7.4993521)
(4.1728917e-07 8.902154e-07 7.4993513)
(7.466096e-07 2.8751864e-09 7.4993509)
(1.2220452e-06 3.4014418e-06 7.4993495)
(4.1090556e-06 4.1090712e-06 7.4993519)
(5.7303514e-06 3.7875378e-06 7.4993531)
(6.6097638e-06 3.6604362e-06 7.4993538)
(4.8780415e-06 2.1013421e-06 7.4993534)
(1.8030323e-06 1.3432494e-06 7.4993542)
(2.7227806e-07 1.9322195e-06 7.4993526)
(2.3144899e-07 1.540356e-06 7.499352)
(-1.7153411e-07 1.3277401e-06 7.4993513)
(-1.4073062e-07 -1.7084972e-07 7.4993499)
(8.8508055e-07 6.1331225e-06 7.4993508)
(3.7875223e-06 5.7303723e-06 7.4993531)
(5.6844671e-06 5.6844868e-06 7.4993523)
(4.6487865e-06 3.2097201e-06 7.4993532)
(3.0568535e-06 1.6314166e-06 7.4993531)
(2.5640859e-06 8.8359584e-07 7.4993534)
(8.105728e-07 8.1245758e-07 7.4993531)
(-1.0361217e-06 -3.0273398e-07 7.4993516)
(-1.2939166e-06 -1.8385663e-06 7.4993497)
(-2.5245029e-07 -1.7876368e-06 7.4993486)
(9.5354513e-07 6.3350013e-06 7.4993531)
(3.6604199e-06 6.609782e-06 7.4993538)
(3.2096992e-06 4.6488063e-06 7.4993532)
(2.5566936e-06 2.5567137e-06 7.4993536)
(2.5519172e-06 1.3775505e-06 7.4993534)
(9.8407326e-07 1.0450108e-07 7.499354)
(-9.1405176e-07 -1.3960252e-06 7.4993515)
(-2.4195749e-06 -3.7251585e-06 7.4993488)
(-1.656437e-06 -2.9193075e-06 7.4993474)
(-1.0677761e-07 -2.4730771e-06 7.4993471)
(1.0682677e-06 5.374056e-06 7.4993525)
(2.1013274e-06 4.8780581e-06 7.4993534)
(1.6313988e-06 3.0568742e-06 7.4993531)
(1.3775307e-06 2.5519412e-06 7.4993534)
(6.0464082e-07 6.0466519e-07 7.4993532)
(-2.0948981e-07 -6.301935e-07 7.4993517)
(-3.0190868e-06 -2.9362808e-06 7.4993486)
(-2.5594041e-06 -2.7564825e-06 7.4993471)
(-4.1835193e-08 -1.1014468e-06 7.4993466)
(4.5036662e-08 -1.9753414e-06 7.4993463)
(6.2287991e-07 2.7332261e-06 7.499353)
(1.3432382e-06 1.8030542e-06 7.4993542)
(8.8358235e-07 2.5641115e-06 7.4993534)
(1.0448453e-07 9.8410318e-07 7.499354)
(-6.3021752e-07 -2.0945613e-07 7.4993517)
(-2.5568727e-06 -2.556838e-06 7.49935)
(-3.0403408e-06 -1.5214558e-06 7.4993475)
(-5.8474093e-07 -3.8827643e-07 7.499346)
(-8.7529585e-07 -1.01372e-06 7.4993449)
(-6.8937406e-07 -1.7212111e-06 7.4993443)
(4.4815314e-07 6.1348814e-07 7.4993522)
(1.9322128e-06 2.7230229e-07 7.4993526)
(8.1244778e-07 8.1060087e-07 7.4993531)
(-1.3960369e-06 -9.1401745e-07 7.4993515)
(-2.9363004e-06 -3.0190461e-06 7.4993486)
(-1.5214895e-06 -3.0402977e-06 7.4993475)
(-8.505252e-07 -8.5048299e-07 7.4993458)
(-2.0516683e-06 -1.6127931e-06 7.4993431)
(-1.3747699e-06 -1.0297624e-06 7.4993414)
(-4.2662407e-07 -1.0938482e-06 7.4993411)
(3.9542267e-07 -4.3162416e-07 7.4993521)
(1.5403509e-06 2.314669e-07 7.499352)
(-3.0273739e-07 -1.036099e-06 7.4993516)
(-3.7251624e-06 -2.4195421e-06 7.4993488)
(-2.7564978e-06 -2.5593643e-06 7.4993471)
(-3.8830962e-07 -5.8470249e-07 7.499346)
(-1.6128362e-06 -2.0516342e-06 7.4993431)
(-7.6402031e-07 -7.6398394e-07 7.4993394)
(-3.5635097e-07 1.3731757e-07 7.499339)
(-7.3209795e-07 -2.370954e-06 7.4993388)
(8.9021384e-07 4.1729564e-07 7.4993513)
(1.327738e-06 -1.7152814e-07 7.4993513)
(-1.8385612e-06 -1.2939012e-06 7.4993497)
(-2.9193022e-06 -1.6564127e-06 7.4993474)
(-1.1014608e-06 -4.1811459e-08 7.4993466)
(-1.0137595e-06 -8.7527873e-07 7.4993449)
(-1.0298066e-06 -1.3747501e-06 7.4993414)
(1.3728354e-07 -3.5632141e-07 7.499339)
(-2.9817399e-06 -2.9817188e-06 7.4993376)
(-2.0988051e-06 -3.0885339e-06 7.499338)
(2.8734822e-09 7.466096e-07 7.4993509)
(-1.7084588e-07 -1.4073076e-07 7.4993499)
(-1.7876219e-06 -2.5244631e-07 7.4993486)
(-2.4730727e-06 -1.0677122e-07 7.4993471)
(-1.9753638e-06 4.5040026e-08 7.4993463)
(-1.7212482e-06 -6.8937325e-07 7.4993443)
(-1.0938789e-06 -4.2661914e-07 7.4993411)
(-2.370989e-06 -7.320881e-07 7.4993388)
(-3.0885634e-06 -2.0988009e-06 7.499338)
(-8.0330802e-07 -8.0330376e-07 7.4993381)
(8.0988386e-07 8.0988926e-07 7.4993509)
(3.7829172e-06 2.0605506e-06 7.4993532)
(6.9757197e-06 2.1030836e-06 7.4993526)
(6.7571592e-06 1.5145124e-06 7.4993523)
(3.9961126e-06 1.2322451e-06 7.499351)
(2.0916752e-06 1.4635233e-06 7.4993498)
(4.3272124e-07 1.1541493e-06 7.4993485)
(-1.3585686e-06 1.2909808e-07 7.4993469)
(-1.9320901e-07 6.4690122e-07 7.4993457)
(7.6865812e-07 -4.9201214e-07 7.4993462)
(2.0605452e-06 3.7829383e-06 7.4993532)
(5.7227087e-06 5.7227312e-06 7.4993549)
(6.1566623e-06 4.2772507e-06 7.4993543)
(5.4509015e-06 3.1599946e-06 7.4993537)
(3.9196291e-06 2.529236e-06 7.4993513)
(1.9745315e-06 1.9310974e-06 7.4993505)
(-1.5689167e-06 1.8184399e-06 7.4993496)
(-2.1194407e-06 3.2769997e-07 7.4993469)
(-1.1248743e-06 2.86283e-07 7.4993452)
(-3.7025525e-07 -1.659954e-06 7.499344)
(2.1030791e-06 6.9757472e-06 7.4993526)
(4.2772296e-06 6.1566904e-06 7.4993543)
(4.4129831e-06 4.4130125e-06 7.4993527)
(5.0091445e-06 2.4761405e-06 7.4993519)
(2.7672154e-06 2.0086581e-06 7.4993516)
(1.3808791e-06 1.4782565e-07 7.4993495)
(-1.1706762e-06 -1.0059156e-06 7.4993473)
(-2.8907255e-06 -1.965276e-06 7.4993446)
(-2.180863e-06 -3.4786707e-06 7.4993431)
(-5.2883323e-07 -3.4715142e-06 7.499342)
(1.5145073e-06 6.7571876e-06 7.4993523)
(3.159974e-06 5.4509305e-06 7.4993537)
(2.4761124e-06 5.0091786e-06 7.4993519)
(3.0465472e-06 3.0465819e-06 7.4993518)
(1.5913142e-06 9.4772872e-07 7.4993506)
(-1.0400422e-06 -1.4089561e-06 7.499348)
(-3.6820183e-06 -3.7104564e-06 7.4993452)
(-4.5921958e-06 -5.6230295e-06 7.4993425)
(-2.6311125e-06 -4.6392383e-06 7.4993409)
(-3.6548423e-07 -4.062973e-06 7.4993401)
(1.232241e-06 3.9961419e-06 7.499351)
(2.5292206e-06 3.9196632e-06 7.4993513)
(2.0086345e-06 2.7672547e-06 7.4993516)
(9.4769462e-07 1.5913562e-06 7.4993506)
(-1.6883226e-06 -1.6882795e-06 7.4993482)
(-3.277306e-06 -3.3260022e-06 7.4993448)
(-5.3847496e-06 -5.2362768e-06 7.4993423)
(-3.8195073e-06 -4.6820664e-06 7.4993404)
(-6.2080652e-07 -3.1713139e-06 7.4993392)
(-1.4465641e-07 -3.9946559e-06 7.4993385)
(1.4635216e-06 2.0917076e-06 7.4993498)
(1.9310868e-06 1.9745697e-06 7.4993505)
(1.4780533e-07 1.3809188e-06 7.4993495)
(-1.408987e-06 -1.0399984e-06 7.499348)
(-3.3260441e-06 -3.2772569e-06 7.4993448)
(-4.5880396e-06 -4.5879884e-06 7.4993423)
(-5.0380826e-06 -3.5079707e-06 7.4993407)
(-2.5272329e-06 -3.6172958e-06 7.499338)
(-1.943702e-06 -4.4509428e-06 7.4993363)
(-9.1437888e-07 -5.0536389e-06 7.4993353)
(1.1541491e-06 4.3275094e-07 7.4993485)
(1.8184318e-06 -1.5688874e-06 7.4993496)
(-1.0059335e-06 -1.1706437e-06 7.4993473)
(-3.710481e-06 -3.6819753e-06 7.4993452)
(-5.2363126e-06 -5.3846964e-06 7.4993423)
(-3.5080198e-06 -5.0380243e-06 7.4993407)
(-4.414057e-06 -4.4140002e-06 7.4993377)
(-4.7624794e-06 -5.7349248e-06 7.4993335)
(-2.0571496e-06 -4.211114e-06 7.4993328)
(-5.4645383e-07 -4.1981321e-06 7.4993324)
(1.2909604e-07 -1.3585522e-06 7.4993469)
(3.2769222e-07 -2.1194257e-06 7.4993469)
(-1.9652825e-06 -2.8907002e-06 7.4993446)
(-5.6230397e-06 -4.5921568e-06 7.4993425)
(-4.6820931e-06 -3.8194589e-06 7.4993404)
(-3.6173434e-06 -2.527184e-06 7.499338)
(-5.7349831e-06 -4.762435e-06 7.4993335)
(-2.3243467e-06 -2.3242992e-06 7.4993311)
(-4.0690936e-07 -2.3326222e-06 7.4993307)
(-9.0572428e-07 -3.2292098e-06 7.4993304)
(6.4690009e-07 -1.9320524e-07 7.4993457)
(2.8628385e-07 -1.1248647e-06 7.4993452)
(-3.4786646e-06 -2.1808416e-06 7.4993431)
(-4.6392397e-06 -2.6310867e-06 7.4993409)
(-3.1713399e-06 -6.2078257e-07 7.4993392)
(-4.4509959e-06 -1.9436786e-06 7.4993363)
(-4.2111722e-06 -2.0571186e-06 7.4993328)
(-2.3326666e-06 -4.0688512e-07 7.4993307)
(-2.9620602e-06 -2.9620472e-06 7.4993281)
(-1.1441789e-06 -3.3002644e-06 7.499331)
(-4.9201025e-07 7.6865821e-07 7.4993462)
(-1.6599441e-06 -3.7025212e-07 7.499344)
(-3.4715046e-06 -5.2882712e-07 7.499342)
(-4.0629806e-06 -3.6547879e-07 7.4993401)
(-3.994685e-06 -1.4465438e-07 7.4993385)
(-5.0536795e-06 -9.1437552e-07 7.4993353)
(-4.1981896e-06 -5.4644341e-07 7.4993324)
(-3.2292753e-06 -9.0572044e-07 7.4993304)
(-3.3002886e-06 -1.1441826e-06 7.499331)
(-1.1312024e-06 -1.1312061e-06 7.4993299)
(1.9362224e-06 1.9362285e-06 7.4993504)
(5.1327641e-06 2.3915661e-06 7.4993516)
(5.262366e-06 2.0308068e-06 7.4993502)
(4.7408546e-06 1.8668787e-06 7.4993481)
(2.9012437e-06 1.2878793e-06 7.4993459)
(2.4879946e-07 1.057708e-06 7.4993441)
(-2.2590945e-06 1.1360331e-06 7.4993415)
(-3.2734932e-06 3.4981227e-07 7.4993391)
(-3.2318177e-07 5.6511174e-07 7.4993372)
(1.0911613e-06 -1.4913578e-06 7.4993375)
(2.3915599e-06 5.1327883e-06 7.4993516)
(5.2746315e-06 5.2746562e-06 7.4993526)
(4.4753349e-06 3.882022e-06 7.4993502)
(3.6264633e-06 3.2560347e-06 7.4993484)
(1.6874877e-06 2.7131353e-06 7.4993459)
(2.1030218e-08 1.0567339e-06 7.4993429)
(-3.3209382e-06 7.5622807e-07 7.4993407)
(-4.1298753e-06 -7.53801e-07 7.4993386)
(-3.0849368e-06 -1.289656e-06 7.4993362)
(-9.6530816e-07 -4.3895201e-06 7.4993344)
(2.030801e-06 5.2624009e-06 7.4993502)
(3.8819977e-06 4.4753708e-06 7.4993502)
(3.2437445e-06 3.2437811e-06 7.4993493)
(3.5719679e-06 1.3495931e-06 7.4993472)
(7.0194282e-07 8.9962697e-07 7.4993449)
(-1.7081077e-06 -1.6078614e-06 7.4993416)
(-4.0696294e-06 -3.4907183e-06 7.4993382)
(-5.3193772e-06 -4.7034283e-06 7.4993355)
(-3.9589009e-06 -6.0879199e-06 7.4993334)
(-9.7541478e-07 -5.6143354e-06 7.4993325)
(1.8668732e-06 4.7408958e-06 7.4993481)
(3.2560118e-06 3.6265082e-06 7.4993484)
(1.3495573e-06 3.5720176e-06 7.4993472)
(1.2823092e-06 1.2823592e-06 7.4993453)
(-1.2699668e-06 -2.0600272e-06 7.499342)
(-4.369315e-06 -4.6644693e-06 7.4993383)
(-6.4165051e-06 -6.4522067e-06 7.4993353)
(-6.7270769e-06 -7.9910253e-06 7.4993331)
(-3.9958439e-06 -6.790737e-06 7.4993313)
(-6.4958518e-07 -5.9020201e-06 7.4993308)
(1.2878759e-06 2.9012906e-06 7.4993459)
(2.7131195e-06 1.6875419e-06 7.4993459)
(8.9959542e-07 7.0200073e-07 7.4993449)
(-2.0600769e-06 -1.2699094e-06 7.499342)
(-5.2448857e-06 -5.2448257e-06 7.4993379)
(-6.1002872e-06 -6.25944e-06 7.4993349)
(-7.3961853e-06 -7.477713e-06 7.499333)
(-5.6579076e-06 -7.2695855e-06 7.4993309)
(-1.8698957e-06 -5.7703468e-06 7.4993291)
(-3.8293687e-07 -6.7550315e-06 7.4993283)
(1.0577074e-06 2.4884826e-07 7.4993441)
(1.0567219e-06 2.1082591e-08 7.4993429)
(-1.6078941e-06 -1.7080564e-06 7.4993416)
(-4.6645173e-06 -4.3692604e-06 7.4993383)
(-6.2594975e-06 -6.1002235e-06 7.4993349)
(-6.6022023e-06 -6.6021347e-06 7.499333)
(-7.4266506e-06 -6.1566843e-06 7.499331)
(-5.0197106e-06 -7.2427694e-06 7.4993278)
(-3.4812898e-06 -7.3581022e-06 7.499326)
(-1.3060416e-06 -7.85976e-06 7.4993248)
(1.1360322e-06 -2.2590588e-06 7.4993415)
(7.5621486e-07 -3.3209049e-06 7.4993407)
(-3.4907475e-06 -4.069591e-06 7.4993382)
(-6.452244e-06 -6.416453e-06 7.4993353)
(-7.4777601e-06 -7.39612e-06 7.499333)
(-6.156748e-06 -7.4265792e-06 7.499331)
(-8.0368201e-06 -8.0367516e-06 7.4993277)
(-6.8593254e-06 -8.4268799e-06 7.4993247)
(-2.4868863e-06 -6.6292247e-06 7.4993239)
(-7.1737541e-07 -6.0472638e-06 7.4993235)
(3.4981e-07 -3.2734772e-06 7.4993391)
(-7.5381031e-07 -4.1298566e-06 7.4993386)
(-4.7034421e-06 -5.3193453e-06 7.4993355)
(-7.9910463e-06 -6.7270319e-06 7.4993331)
(-7.2696236e-06 -5.6578546e-06 7.4993309)
(-7.242834e-06 -5.0196564e-06 7.4993278)
(-8.4269513e-06 -6.8592738e-06 7.4993247)
(-3.6121836e-06 -3.6121344e-06 7.4993235)
(-1.1016737e-06 -4.5875183e-06 7.4993212)
(-9.1806773e-07 -3.7870988e-06 7.4993219)
(5.6511254e-07 -3.2317473e-07 7.4993372)
(-1.2896533e-06 -3.0849195e-06 7.4993362)
(-6.0879228e-06 -3.9588771e-06 7.4993334)
(-6.7907533e-06 -3.9958219e-06 7.4993313)
(-5.7703846e-06 -1.8698708e-06 7.4993291)
(-7.3581672e-06 -3.4812544e-06 7.499326)
(-6.629298e-06 -2.4868466e-06 7.4993239)
(-4.5875699e-06 -1.1016562e-06 7.4993212)
(-2.6618507e-06 -2.6618277e-06 7.499322)
(-1.8376241e-07 -3.6167275e-06 7.4993208)
(-1.4913532e-06 1.0911637e-06 7.4993375)
(-4.3895127e-06 -9.6530205e-07 7.4993344)
(-5.6143445e-06 -9.7540929e-07 7.4993325)
(-5.90204e-06 -6.4958319e-07 7.4993308)
(-6.7550561e-06 -3.8293369e-07 7.4993283)
(-7.8598098e-06 -1.3060309e-06 7.4993248)
(-6.0473531e-06 -7.173621e-07 7.4993235)
(-3.7871647e-06 -9.1806763e-07 7.4993219)
(-3.6167449e-06 -1.8375866e-07 7.4993208)
(-1.5546676e-06 -1.5546638e-06 7.4993206)
(1.6579857e-06 1.6579921e-06 7.4993432)
(3.6477895e-06 2.6959628e-06 7.4993423)
(3.4164535e-06 2.0543425e-06 7.4993402)
(2.4386107e-06 1.697515e-06 7.4993386)
(3.6622222e-08 1.2092969e-06 7.4993355)
(-2.3209528e-06 6.7215069e-07 7.4993327)
(-4.5924882e-06 6.0961942e-07 7.49933)
(-5.6468942e-06 -2.2107102e-07 7.4993281)
(-1.784495e-06 -5.7635868e-08 7.4993257)
(9.6301197e-07 -2.5409053e-06 7.4993252)
(2.6959565e-06 3.6478161e-06 7.4993423)
(4.242315e-06 4.2423411e-06 7.4993426)
(1.9187817e-06 3.3744597e-06 7.49934)
(1.1710424e-06 2.2971859e-06 7.4993377)
(-1.5014242e-06 1.5444675e-06 7.4993349)
(-3.220469e-06 -6.1784107e-07 7.4993314)
(-5.9323208e-06 -1.5163841e-06 7.4993281)
(-6.6477772e-06 -3.3002829e-06 7.4993261)
(-5.2642464e-06 -3.5323972e-06 7.4993239)
(-1.5202575e-06 -6.6905868e-06 7.4993226)
(2.0543358e-06 3.4164945e-06 7.4993402)
(3.3744331e-06 1.9188251e-06 7.49934)
(1.4712984e-06 1.4713427e-06 7.4993387)
(6.0861851e-07 -6.2505712e-07 7.4993359)
(-2.8784048e-06 -1.8791459e-06 7.4993321)
(-5.3818044e-06 -4.5059465e-06 7.4993286)
(-7.27493e-06 -6.4376015e-06 7.4993253)
(-7.6629073e-06 -7.4561839e-06 7.4993233)
(-5.1747989e-06 -8.3192916e-06 7.4993218)
(-1.1424477e-06 -7.1347591e-06 7.4993216)
(1.6975102e-06 2.4386653e-06 7.4993386)
(2.2971633e-06 1.1711047e-06 7.4993377)
(-6.2510046e-07 6.0868196e-07 7.4993359)
(-2.1794462e-06 -2.1793832e-06 7.4993327)
(-5.3823136e-06 -6.0922235e-06 7.4993287)
(-7.7789246e-06 -8.0959445e-06 7.4993255)
(-8.8825582e-06 -8.8488302e-06 7.4993229)
(-8.5294673e-06 -1.0194094e-05 7.499321)
(-4.9428216e-06 -8.9414643e-06 7.4993197)
(-7.3056919e-07 -8.2828394e-06 7.4993196)
(1.2092953e-06 3.6687237e-08 7.4993355)
(1.5444498e-06 -1.5013541e-06 7.4993349)
(-1.8791895e-06 -2.8783364e-06 7.4993322)
(-6.092287e-06 -5.3822445e-06 7.4993287)
(-8.7949661e-06 -8.7948939e-06 7.4993249)
(-8.138411e-06 -8.5916125e-06 7.4993224)
(-9.3730794e-06 -9.5312527e-06 7.4993205)
(-7.7555414e-06 -9.973966e-06 7.4993183)
(-3.2635445e-06 -8.4748771e-06 7.4993172)
(-7.033645e-07 -9.9339424e-06 7.4993162)
(6.7214927e-07 -2.3208916e-06 7.4993327)
(-6.1786032e-07 -3.2204101e-06 7.4993314)
(-4.5059908e-06 -5.3817458e-06 7.4993286)
(-8.0960038e-06 -7.7788582e-06 7.4993255)
(-8.5916817e-06 -8.1383329e-06 7.4993224)
(-8.5152834e-06 -8.5152019e-06 7.4993204)
(-1.0264912e-05 -8.8780502e-06 7.4993183)
(-7.4730917e-06 -9.774358e-06 7.499316)
(-4.902798e-06 -9.6162453e-06 7.4993145)
(-1.7032794e-06 -9.7653496e-06 7.4993139)
(6.0961635e-07 -4.5924477e-06 7.49933)
(-1.5164044e-06 -5.9322817e-06 7.4993281)
(-6.4376376e-06 -7.274882e-06 7.4993253)
(-8.8488741e-06 -8.8824957e-06 7.4993229)
(-9.5313098e-06 -9.3730021e-06 7.4993205)
(-8.8781283e-06 -1.0264834e-05 7.4993183)
(-1.0632235e-05 -1.063216e-05 7.4993162)
(-8.4937366e-06 -1.0029992e-05 7.4993146)
(-3.254536e-06 -9.0715163e-06 7.4993126)
(-8.0276734e-07 -7.1607589e-06 7.4993126)
(-2.2107338e-07 -5.6468716e-06 7.4993281)
(-3.3002946e-06 -6.6477471e-06 7.4993261)
(-7.4562048e-06 -7.6628669e-06 7.4993233)
(-1.0194124e-05 -8.5294192e-06 7.499321)
(-9.9740195e-06 -7.7554867e-06 7.4993183)
(-9.774441e-06 -7.4730345e-06 7.499316)
(-1.0030071e-05 -8.4936719e-06 7.4993146)
(-5.9124484e-06 -5.9123894e-06 7.4993127)
(-2.0335644e-06 -4.2142597e-06 7.4993105)
(-4.2944108e-07 -6.0259869e-06 7.4993113)
(-5.7634016e-08 -1.7844781e-06 7.4993257)
(-3.5323998e-06 -5.2642224e-06 7.4993239)
(-8.3193098e-06 -5.1747759e-06 7.4993218)
(-8.9414939e-06 -4.9428005e-06 7.4993197)
(-8.4749251e-06 -3.2635127e-06 7.4993172)
(-9.6163135e-06 -4.9027508e-06 7.4993145)
(-9.0715904e-06 -3.2544902e-06 7.4993126)
(-4.2143244e-06 -2.0335248e-06 7.4993105)
(-3.3681334e-06 -3.3680803e-06 7.4993125)
(-2.0105855e-06 -4.5740121e-06 7.49931)
(-2.5409029e-06 9.6301723e-07 7.4993252)
(-6.6905923e-06 -1.5202517e-06 7.4993226)
(-7.1347829e-06 -1.1424445e-06 7.4993216)
(-8.2828607e-06 -7.3056711e-07 7.4993196)
(-9.9339697e-06 -7.0335569e-07 7.4993162)
(-9.7654184e-06 -1.7032635e-06 7.4993139)
(-7.1608446e-06 -8.0275896e-07 7.4993126)
(-6.0260385e-06 -4.2943299e-07 7.4993113)
(-4.5740517e-06 -2.0105683e-06 7.49931)
(-1.2333956e-06 -1.2333785e-06 7.4993112)
(1.3573611e-06 1.3573676e-06 7.4993276)
(2.2194025e-06 2.5872858e-06 7.4993263)
(1.5623474e-06 1.843593e-06 7.4993249)
(2.4788782e-08 1.2638274e-06 7.4993232)
(-3.0144288e-06 8.6906757e-07 7.4993204)
(-5.2542741e-06 1.8051295e-07 7.4993178)
(-6.8746935e-06 -1.3255189e-07 7.4993156)
(-7.5769189e-06 -9.7575276e-07 7.4993143)
(-3.1738406e-06 -6.4052609e-07 7.4993126)
(7.4828535e-07 -3.2292767e-06 7.4993122)
(2.5872792e-06 2.2194307e-06 7.4993263)
(2.9487406e-06 2.9487698e-06 7.4993257)
(-4.2284008e-07 2.3852127e-06 7.499324)
(-1.4369994e-06 5.8806506e-07 7.4993216)
(-4.6394005e-06 -6.6128848e-07 7.4993188)
(-6.7567033e-06 -3.0090603e-06 7.4993162)
(-8.609092e-06 -3.9334529e-06 7.4993136)
(-8.3388802e-06 -5.509954e-06 7.4993124)
(-6.5541265e-06 -5.2539888e-06 7.4993112)
(-1.8404653e-06 -8.0271074e-06 7.4993105)
(1.8435872e-06 1.5623963e-06 7.4993249)
(2.3851845e-06 -4.227882e-07 7.499324)
(-7.9835737e-07 -7.9830535e-07 7.4993221)
(-3.0217124e-06 -3.5817489e-06 7.4993192)
(-6.6115542e-06 -5.3234973e-06 7.4993158)
(-8.5264385e-06 -7.5005105e-06 7.4993134)
(-9.3755872e-06 -8.7242797e-06 7.4993115)
(-8.8974549e-06 -9.7438473e-06 7.4993106)
(-5.6909939e-06 -1.0323366e-05 7.4993097)
(-1.1004604e-06 -8.6175498e-06 7.4993101)
(1.2638229e-06 2.4857062e-08 7.4993232)
(5.8803892e-07 -1.4369262e-06 7.4993216)
(-3.5818008e-06 -3.0216424e-06 7.4993192)
(-5.9621914e-06 -5.962121e-06 7.4993159)
(-8.5581621e-06 -9.3101293e-06 7.4993131)
(-1.0157486e-05 -1.0883078e-05 7.499311)
(-1.0852429e-05 -1.1331293e-05 7.4993094)
(-9.9379661e-06 -1.2994199e-05 7.4993079)
(-5.4278291e-06 -1.1294709e-05 7.4993076)
(-7.0325474e-07 -1.1268333e-05 7.4993078)
(8.6906501e-07 -3.0143547e-06 7.4993204)
(-6.6131498e-07 -4.6393257e-06 7.4993188)
(-5.3235522e-06 -6.6114809e-06 7.4993158)
(-9.3101993e-06 -8.5580857e-06 7.4993131)
(-1.1532511e-05 -1.1532431e-05 7.4993104)
(-1.0547602e-05 -1.1305822e-05 7.4993082)
(-1.1486709e-05 -1.2080979e-05 7.4993065)
(-8.8608713e-06 -1.2257937e-05 7.4993056)
(-3.9651274e-06 -1.095593e-05 7.4993058)
(-1.0828759e-06 -1.2463581e-05 7.4993051)
(1.8050893e-07 -5.2542112e-06 7.4993178)
(-3.0090872e-06 -6.756643e-06 7.4993162)
(-7.5005609e-06 -8.5263728e-06 7.4993134)
(-1.0883141e-05 -1.0157408e-05 7.499311)
(-1.1305898e-05 -1.0547514e-05 7.4993082)
(-1.0706034e-05 -1.0705946e-05 7.4993063)
(-1.1804544e-05 -1.0434496e-05 7.4993055)
(-8.812917e-06 -1.0950539e-05 7.4993049)
(-5.6334739e-06 -1.2052504e-05 7.4993033)
(-1.7083557e-06 -1.1449941e-05 7.4993038)
(-1.3255615e-07 -6.8746488e-06 7.4993156)
(-3.9334765e-06 -8.6090444e-06 7.4993136)
(-8.7243176e-06 -9.3755302e-06 7.4993115)
(-1.133134e-05 -1.0852357e-05 7.4993094)
(-1.2081049e-05 -1.1486627e-05 7.4993065)
(-1.0434584e-05 -1.1804465e-05 7.4993055)
(-1.1731301e-05 -1.1731217e-05 7.499305)
(-1.0478879e-05 -1.1779911e-05 7.4993038)
(-4.4645302e-06 -1.0583697e-05 7.4993018)
(-6.8116781e-07 -8.6025891e-06 7.4993025)
(-9.757548e-07 -7.5768843e-06 7.4993143)
(-5.5099687e-06 -8.3388385e-06 7.4993124)
(-9.7438733e-06 -8.8974077e-06 7.4993106)
(-1.2994238e-05 -9.9379142e-06 7.4993079)
(-1.2258007e-05 -8.860815e-06 7.4993056)
(-1.0950625e-05 -8.8128489e-06 7.4993049)
(-1.1779989e-05 -1.0478792e-05 7.4993038)
(-7.665397e-06 -7.6653139e-06 7.4993024)
(-2.4561525e-06 -4.6527646e-06 7.4993029)
(-3.8761693e-07 -6.3697804e-06 7.4993013)
(-6.4052567e-07 -3.1738131e-06 7.4993126)
(-5.254e-06 -6.5540988e-06 7.4993112)
(-1.0323393e-05 -5.6909685e-06 7.4993097)
(-1.1294748e-05 -5.4278031e-06 7.4993076)
(-1.0955984e-05 -3.9650948e-06 7.4993058)
(-1.2052561e-05 -5.6334338e-06 7.4993033)
(-1.0583766e-05 -4.4644905e-06 7.4993018)
(-4.6528513e-06 -2.4560949e-06 7.4993029)
(-3.1689967e-06 -3.1689359e-06 7.4992997)
(-1.825845e-06 -3.7731155e-06 7.4993024)
(-3.2292786e-06 7.4829259e-07 7.4993122)
(-8.0271241e-06 -1.8404603e-06 7.4993105)
(-8.6175776e-06 -1.1004568e-06 7.4993101)
(-1.1268364e-05 -7.0324996e-07 7.4993078)
(-1.2463637e-05 -1.0828679e-06 7.4993051)
(-1.145002e-05 -1.7083524e-06 7.4993038)
(-8.6026501e-06 -6.8117377e-07 7.4993025)
(-6.3698424e-06 -3.8760854e-07 7.4993013)
(-3.7731731e-06 -1.8258345e-06 7.4993024)
(-7.9040333e-07 -7.9039277e-07 7.4993026)
(8.0302802e-07 8.0303522e-07 7.499309)
(9.2597595e-07 2.2930651e-06 7.4993075)
(3.3870946e-07 1.4565867e-06 7.4993068)
(-2.0329014e-06 6.3148406e-07 7.499305)
(-5.3445899e-06 1.7159938e-07 7.4993029)
(-7.0899688e-06 -4.2521208e-07 7.4993019)
(-8.1375813e-06 -7.0168212e-07 7.4993012)
(-8.673764e-06 -1.4626635e-06 7.4993007)
(-3.8983853e-06 -9.8256024e-07 7.4992997)
(6.8890217e-07 -3.6702962e-06 7.4992998)
(2.2930579e-06 9.2600814e-07 7.4993075)
(1.9063032e-06 1.9063373e-06 7.4993067)