/*--------------------------------*- C++ -*----------------------------------*\
| =========                 |                                                 |
| \\      /  F ield         | OpenFOAM: The Open Source CFD Toolbox           |
|  \\    /   O peration     | Version:  v2106                                 |
|   \\  /    A nd           | Website:  www.openfoam.com                      |
|    \\/     M anipulation  |                                                 |
\*---------------------------------------------------------------------------*/
FoamFile
{
    version     2.0;
    format      ascii;
    arch        "LSB;label=32;scalar=64";
    class       volScalarField;
    location    "50";
    object      gradTy;
}
// * * * * * * * * * * * * * * * * * * * * * * * * * * * * * * * * * * * * * //

dimensions      [0 -1 0 1 0 0 0];

internalField   nonuniform List<scalar> 
10000
(
-5.5141963e-05
-3.0466179e-06
7.7536583e-05
6.2351035e-05
2.837055e-05
0.00020001655
6.4073145e-06
-7.8037488e-06
0.00018672398
-6.2386865e-05
5.0852208e-05
0.00024987023
0.00040387462
0.00028451703
0.00022939304
0.00029228696
7.080189e-06
0.00014687467
0.00033973981
4.9049646e-05
0.00058615433
0.00068425058
0.0006208011
0.00056111756
0.00038310867
-9.1807351e-05
0.00021273843
0.00021441431
-9.3570804e-05
0.00011922725
0.00080562006
0.00073187056
0.00063113808
0.00049417804
8.9918618e-06
0.00011764513
0.00010039614
-0.00024665422
2.7560446e-05
-5.4154839e-05
0.00041711195
0.00062361028
0.00042488199
-2.9314435e-05
4.8349193e-05
0.00012560284
-0.00027610213
0.0001233193
0.00022894992
-0.00033270865
0.00042033739
0.00038739276
0.00019802545
0.0002170236
0.0002894302
-0.00010742764
9.1240537e-05
0.00010964771
-0.00020639052
-5.0210587e-05
0.00029267201
-1.9057893e-05
0.00014726029
0.00028716465
-0.00021703781
0.00028488171
3.7630181e-08
-0.00013087606
0.00054054624
0.00075248963
-0.00017769526
9.2780539e-05
0.00015496482
-0.00021352818
8.2130583e-05
0.00029152446
-0.00021550125
0.00083203247
0.00093311249
0.00022311207
0.00020030905
0.00011843477
0.00010248479
2.3248504e-05
0.00029498503
-0.00043277979
0.00013512485
0.00045058505
-0.00047379453
-0.00079601656
0.00020961333
-3.9497517e-05
1.5820054e-05
0.00010236823
-3.8656519e-05
-0.00027207111
6.5462757e-05
-0.00013077577
-0.00040787029
-0.00034558995
-7.0590812e-06
0.0001766148
0.00022918914
0.00042287515
0.00025173678
0.00024980587
0.00033674786
8.2098078e-05
0.00025223125
8.7958843e-05
0.00049112734
0.00084549998
0.0011191129
0.0012271481
0.00077587626
0.00058483914
0.0003536135
0.00033955249
0.00076509946
0.00025808305
0.0013681057
0.0017374962
0.0017497538
0.001053164
0.0008145779
0.00013208154
4.5241763e-05
0.00050627159
0.00017417173
-0.00029390029
0.0020220772
0.0020558978
0.0016788399
0.001120722
0.00033083143
0.00012089899
0.00031589988
-0.00044979538
-0.00060414757
-0.00068989578
0.0016455037
0.0013858996
0.0010031952
0.00046481819
3.3730316e-06
0.00029433011
-0.00048299572
-0.00078433533
-0.00025764928
-0.00045621493
0.00097891308
0.0011064305
0.00055665262
0.00033709662
0.00054172273
-0.00014927076
-0.00029189957
0.00015803758
0.00028113544
7.322788e-05
0.00051423595
0.0002626756
0.00026895202
0.00063686835
-0.00030173993
-0.00044179524
5.5688932e-06
0.00036159906
0.00066305819
0.00049753731
-0.00019862637
-0.00032540055
0.00021286056
-0.00019646763
-0.00070718267
2.8879895e-05
-0.00013415004
0.00068636746
0.00059337165
-8.7834166e-05
0.00039081834
0.00039960901
0.00030934964
-0.00040055846
6.9252877e-05
-7.2440174e-05
-1.5561512e-05
6.3499101e-05
-0.00078975901
-0.0010438491
0.00040972263
0.00024544996
7.1712274e-05
-6.6596271e-05
1.4547538e-05
-0.00019897482
-0.00012405904
-0.0003093204
-0.00057819365
-0.00047871312
0.00016533259
0.00048881962
0.0003540337
0.00038141945
0.00042730879
0.00024915312
0.0001792618
0.00015816962
0.00035608616
1.1500746e-06
0.0013605767
0.0016436285
0.0015150151
0.0014641745
0.00084053684
0.00053729977
0.0007728878
0.00061614242
0.00053109605
-6.8339887e-05
0.002453249
0.0022921489
0.0022737947
0.0012838881
0.00065256666
0.00035343834
0.00032498303
-0.00012109359
-0.00073542654
-0.00071505474
0.0025340005
0.0026439128
0.0018595225
0.0010226855
0.00055102021
4.1800433e-05
-0.00055841008
-0.0014900634
-0.001167723
-0.00098923084
0.0021496224
0.0019512233
0.0012227497
0.0010207765
0.00024186607
-0.0002520774
-0.0011745123
-0.001102593
-0.0004405787
-0.00079013657
0.0010932904
0.00072122168
0.0010256446
0.00039364127
-8.3782452e-05
-0.0010227352
-0.00060858233
-0.00015531057
-0.00040548801
-0.00068848445
0.00024539526
0.00010892091
0.00032424035
-0.00036560698
-0.0012076184
-0.0012161191
-0.0003401932
-0.00064511724
-0.00041190495
-0.00043753928
-0.00017264966
9.2586759e-05
-0.0004144396
-0.00096781685
-0.0010237457
-0.000233881
-0.0008206537
-0.00030559357
5.4927028e-05
-0.0009483816
0.00016691826
-6.8611256e-05
-0.00051756047
-0.00066256507
-1.6724584e-05
-0.00035011149
-0.00054990002
-0.00014252856
-0.0011926875
-0.0012354135
0.00029864384
-5.6292303e-05
-0.00010097853
-4.2708488e-05
1.801601e-05
-0.0002757493
-0.00017064766
-0.00029283524
-0.00083952034
-0.0003213215
0.0003239557
0.00082422025
0.00084123343
0.00060580495
0.00049289804
0.00058540934
0.00046165972
5.1639233e-05
0.00025876049
-0.00019680486
0.0015131753
0.0022890925
0.0017109003
0.0012639978
0.0010116944
0.00077243897
0.00072737595
0.00013107999
0.0001145132
-0.00066398161
0.0027902989
0.0024626762
0.001765205
0.00099045619
0.00080346325
5.9130258e-05
-0.00040236625
-0.00078611041
-0.0013914683
-0.0013886057
0.002702875
0.0021803722
0.0020036715
0.0012186328
0.00037909149
-0.00056358243
-0.0014841825
-0.0022492118
-0.0018556953
-0.0016251892
0.0015984567
0.0015678653
0.0011069019
0.00063654247
-0.00067531178
-0.0013304009
-0.0020945107
-0.0018728266
-0.0012685256
-0.0015978624
0.00083668306
0.00078982788
0.00055236751
-0.00041599935
-0.0013109027
-0.0018351954
-0.0014031883
-0.0014469183
-0.0017803771
-0.0020214556
0.00017310038
-0.00062755495
-0.00046825747
-0.0014727901
-0.0021538785
-0.0020152097
-0.0017656001
-0.0022939699
-0.0016844456
-0.0016792528
-0.0005434209
-0.00084777028
-0.0011562801
-0.0018368627
-0.0015277836
-0.0010108736
-0.001904974
-0.00092971968
-0.00093304888
-0.0012916839
-7.7282097e-05
-0.00044994587
-0.00087233664
-0.0010524347
-0.00024831303
-0.00077747146
-0.00082284745
-0.00016275405
-0.0011848189
-0.0013201058
0.00030746329
-0.00014810085
-0.00021153085
-0.00014619152
-5.786175e-05
-0.00036575021
-0.00021857737
-0.00036228818
-0.00045767303
-0.00045248242
0.00077449141
0.00095662642
0.00081232271
0.00074675148
0.00051515171
0.00042308322
0.00045441324
0.00013992491
0.00022604469
-0.00059654311
0.0020531153
0.0021098625
0.0015528088
0.0013024139
0.0010852541
0.00042269355
0.00030249123
-0.0003015204
-0.00051586238
-0.0017558081
0.0021049603
0.0017901483
0.0012975125
0.00053983723
0.00035985079
-0.00064314457
-0.0013962873
-0.0018813713
-0.0024351679
-0.0022457342
0.0018963583
0.0014506033
0.0014288071
0.00051294367
-0.00082401087
-0.0018657877
-0.0025808827
-0.0031964101
-0.0027162948
-0.0023608081
0.0011605162
0.00067501676
0.00028080029
-0.00050796376
-0.0020979303
-0.002503776
-0.0029910852
-0.0029078342
-0.0023081387
-0.0027020126
9.9539305e-05
8.4330364e-06
-0.00068322257
-0.0017477041
-0.0024400894
-0.0026408539
-0.0024626737
-0.0028971078
-0.0029432409
-0.003143904
-0.00090362351
-0.001328362
-0.0016278364
-0.0025665812
-0.002958448
-0.0029706317
-0.0032147007
-0.003370752
-0.0026516899
-0.0024189055
-0.0013093909
-0.0016519427
-0.0021277381
-0.0026908128
-0.0022631419
-0.0020078626
-0.0027437095
-0.0014448538
-0.0018350073
-0.0015148395
-0.00012926989
-0.0012339678
-0.0015835508
-0.0015983288
-0.00074794832
-0.0013925018
-0.00099473865
-0.00044066249
-0.0010647311
-0.001446691
0.00043646547
-0.00038612082
-0.00039016371
-0.00025983327
-0.00015317348
-0.00052241235
-0.00028694484
-0.00036722705
-7.3503465e-05
-0.00062186552
0.00066319685
0.0010783851
0.00082173699
0.00067900599
0.00048371875
0.00026886028
0.00024384777
-8.8428409e-05
-2.3054347e-05
-0.0010163621
0.0014591264
0.0016969364
0.0013497839
0.00091887438
0.00061778698
-0.00024713643
-0.00060655364
-0.0013201131
-0.0014129589
-0.0026762347
0.0013665978
0.00076753002
0.00058853709
-0.00025002285
-0.00075165835
-0.0018023786
-0.0025750406
-0.0029824736
-0.0033277166
-0.0028539037
0.00097546612
0.00046844187
0.00024347278
-0.00087175329
-0.0024368894
-0.0032383778
-0.0035395321
-0.0040776376
-0.0035765857
-0.0033131358
1.4674895e-05
-0.00060054165
-0.0011513345
-0.0021528978
-0.0035179576
-0.003436645
-0.0038125011
-0.0039895864
-0.0033899508
-0.003973577
-0.00092835666
-0.001288164
-0.0021526983
-0.0031115433
-0.0032553332
-0.0034060808
-0.0035512201
-0.0039097432
-0.0038464981
-0.0039061398
-0.0018369791
-0.0023729127
-0.0029099528
-0.0035529983
-0.0037492008
-0.0041059334
-0.0042528638
-0.004011997
-0.0036286065
-0.0028643036
-0.0022587486
-0.0026590988
-0.0030651468
-0.0034117677
-0.0031021947
-0.0029892138
-0.0033974688
-0.0023649558
-0.0016857039
-0.0024103948
-0.00071379125
-0.002105689
-0.0020699103
-0.0019771202
-0.0013054051
-0.0019611003
-0.0013017961
-0.00081340991
-0.0013472321
-0.0018296048
0.00038520689
-0.00060810066
-0.00045697779
-0.00029222684
-0.00028134228
-0.00068130542
-0.00032110359
-0.00017177319
-0.00080422734
-0.0004933514
0.00054294706
0.0010349143
0.00073743722
0.00050553098
0.00034762703
7.2205181e-05
-5.3020757e-05
-0.0003903011
-0.00025621044
-0.0012917107
0.0008877723
0.0011795079
0.0009540851
0.00023522603
-0.00026451539
-0.0012036241
-0.0015733812
-0.0022039816
-0.0021015955
-0.003210843
0.00062495852
-0.00016911528
-0.00031932214
-0.0014326996
-0.0021293989
-0.0030002042
-0.0034897119
-0.0038975389
-0.0041293463
-0.0034470199
9.9428248e-06
-0.00057477047
-0.001208657
-0.0023848484
-0.0037240517
-0.0043532311
-0.0045325171
-0.0051976796
-0.0045178837
-0.004507333
-0.0012057419
-0.0018557303
-0.0026445923
-0.0034232343
-0.0046129723
-0.0045223286
-0.0048323917
-0.0049031746
-0.004382372
-0.0049854326
-0.0021016845
-0.0027026572
-0.0034105491
-0.0040629633
-0.0042190055
-0.0042823785
-0.0041737983
-0.0043802155
-0.0048210015
-0.0045799766
-0.0027498595
-0.0034436177
-0.0037502121
-0.0043409427
-0.0045946507
-0.0047217861
-0.0046924869
-0.0047119642
-0.0042334789
-0.0034410356
-0.0030307537
-0.0033355354
-0.0035589631
-0.0039751657
-0.003544326
-0.0035251396
-0.004191517
-0.0030661255
-0.0018611058
-0.0025479122
-0.0012695252
-0.0026216395
-0.0022763874
-0.0021711213
-0.0015860379
-0.0022533735
-0.0017857962
-0.00098243796
-0.0012675744
-0.0015092462
0.00029931704
-0.00073618414
-0.00044018274
-0.00028129998
-0.00043314717
-0.00068334094
-0.00027246951
-0.00015504342
-0.00073033379
-0.00031615711
0.00032121409
0.00091722603
0.00058263468
0.00025259363
6.8639754e-05
-0.00017008483
-0.00028067285
-0.0005850654
-0.0003930241
-0.0014681185
0.00037040326
0.00076253494
0.00025869553
-0.00069219615
-0.0012069222
-0.0020262628
-0.0022648313
-0.0027958761
-0.0025883544
-0.0035067382
0.00013550658
-0.00086144115
-0.0013192232
-0.0025332003
-0.0030621207
-0.0038662992
-0.0042795204
-0.0047849783
-0.004758854
-0.0039448634
-0.00081313027
-0.0015841222
-0.0022787497
-0.0033270193
-0.004617505
-0.0053337052
-0.0055125967
-0.0060845123
-0.0050973637
-0.0052974937
-0.0021378066
-0.0027718254
-0.0034718726
-0.0041049198
-0.005478554
-0.0053156972
-0.0053813742
-0.0052123135
-0.0051275625
-0.0055389639
-0.0028359641
-0.0033599316
-0.0038938675
-0.0045773238
-0.0047889525
-0.0044801406
-0.0041724969
-0.0046367162
-0.0054828845
-0.0049726791
-0.0032550128
-0.0038774815
-0.0040246219
-0.0047961535
-0.0047754217
-0.004692765
-0.0049319879
-0.0050160656
-0.0037689563
-0.003886127
-0.0034694887
-0.0036380159
-0.0037930099
-0.0041173452
-0.0033777746
-0.0038635251
-0.004688146
-0.0027004826
-0.0025286772
-0.0024389884
-0.001559343
-0.0028839241
-0.0022702059
-0.0020438073
-0.0014831895
-0.0023704622
-0.0018191509
-0.001240511
-0.0015576469
-0.0012949721
0.0002755634
-0.00079953219
-0.00033669329
-0.00025687062
-0.00047011463
-0.00053114472
-0.00012998112
-0.00060925288
-7.0183963e-05
-0.00043413651
0.00015218383
0.00081035974
0.00031566905
-5.3568063e-05
-0.00014760167
-0.00035728035
-0.00048320531
-0.00074024092
-0.00049836092
-0.0015994078
1.0228035e-05
0.00025545717
-0.00066648644
-0.0016051295
-0.0018605212
-0.0026605804
-0.0028820657
-0.0032867954
-0.0028394635
-0.0035965823
-0.00038085435
-0.001676747
-0.0022414387
-0.0031805219
-0.0035985374
-0.004544447
-0.0048534678
-0.005255969
-0.0048694333
-0.0041729496
-0.0015492763
-0.0022441809
-0.0027433144
-0.0036012775
-0.0050999249
-0.0057705667
-0.0058440319
-0.0061818507
-0.0052615755
-0.0058500396
-0.0024363564
-0.0028919276
-0.0034918039
-0.004255842
-0.0056610885
-0.0052913863
-0.0053153557
-0.00523461
-0.0056631458
-0.0061570378
-0.0027671994
-0.0032706007
-0.0037887307
-0.0045255244
-0.0045328383
-0.0041797866
-0.0038800814
-0.0046798288
-0.0052471636
-0.0049485959
-0.0032634478
-0.003837883
-0.0038896625
-0.0045494077
-0.0043009396
-0.0044926171
-0.0048009664
-0.0046564593
-0.0034821435
-0.0035341795
-0.0036558657
-0.0036786053
-0.0036132684
-0.0036945659
-0.0030308072
-0.0040423487
-0.0043978785
-0.0027235143
-0.0021252455
-0.0025828555
-0.0016152868
-0.002904039
-0.0019250688
-0.0018210109
-0.0015932613
-0.0027434462
-0.0018620253
-0.0016211548
-0.0017213582
-0.001696941
0.00032962921
-0.00077141821
-0.00017511352
-0.00030709157
-0.00056742516
-0.00063635652
-0.00036837698
-0.00067104359
-0.00067344934
-0.0006547642
-2.0810091e-05
0.00066541088
-1.8328533e-05
-0.00032590466
-0.00033456085
-0.00053703061
-0.0007059304
-0.00095621728
-0.00067936212
-0.001744509
-0.00057265274
-0.0005689256
-0.0016761593
-0.0022248093
-0.002249821
-0.0032416932
-0.0035322202
-0.0037355871
-0.002991894
-0.0038133719
-0.0011805778
-0.0026675608
-0.0028364507
-0.0032942167
-0.0038246449
-0.0050039676
-0.005017247
-0.0052422739
-0.0047621163
-0.0043252228
-0.0020481121
-0.0025224446
-0.0026217768
-0.0035106414
-0.0052656416
-0.0056409916
-0.0056357972
-0.0060072217
-0.0054519001
-0.0061058387
-0.0022148104
-0.0025315095
-0.0032317044
-0.0042412456
-0.0053620428
-0.005003734
-0.0052046299
-0.0053255908
-0.0056661584
-0.0059810989
-0.0023603364
-0.0029173951
-0.0036427091
-0.0041099746
-0.0040128739
-0.0039525576
-0.0036135785
-0.0043240294
-0.0044278191
-0.0044493501
-0.003035781
-0.0036645359
-0.0035296644
-0.0039028639
-0.0038958952
-0.0042247032
-0.0042673541
-0.0035982768
-0.0034751565
-0.0030000558
-0.003641936
-0.0036020996
-0.0031016296
-0.0033469671
-0.0029177228
-0.0038084885
-0.0037319552
-0.0030162813
-0.002246847
-0.0027002259
-0.0015092244
-0.0026916635
-0.0015869981
-0.0017745949
-0.0016856149
-0.0024301105
-0.0018109349
-0.0018318842
-0.0014948755
-0.0017136088
0.00043428567
-0.00063085899
-0.00011335707
-0.00033959041
-0.00054931991
-0.00054955346
-0.00056367363
-0.00023282136
-0.00086592653
-0.0003786422
-0.00020465495
0.0003880614
-0.00031266526
-0.00047573017
-0.00046913645
-0.00075911794
-0.00095940069
-0.0011692368
-0.00084190672
-0.0018141726
-0.0014631531
-0.0016251389
-0.0023462288
-0.0024495069
-0.0025257181
-0.0037855597
-0.0039465466
-0.0038328978
-0.0027954695
-0.0037100615
-0.0021496585
-0.0034454131
-0.0029739899
-0.0032230729
-0.0039216006
-0.0050317624
-0.0044216473
-0.004552806
-0.0043054535
-0.0037949859
-0.0023584359
-0.002593065
-0.0025379015
-0.0035407011
-0.0051735153
-0.0049353563
-0.0049229473
-0.0054748828
-0.0053642924
-0.0055582523
-0.0020146327
-0.0024397186
-0.0033507603
-0.0042484297
-0.0047453701
-0.0044929633
-0.0049353917
-0.0051479176
-0.0051894758
-0.0054071695
-0.0021391297
-0.0028746064
-0.0035599432
-0.0033745517
-0.0033093769
-0.0035645786
-0.0034262375
-0.0041173592
-0.0040989308
-0.0039491533
-0.0028464391
-0.0034615302
-0.002893702
-0.0029826103
-0.003433255
-0.0036375602
-0.0039860267
-0.003603386
-0.0030223686
-0.0032639205
-0.003478462
-0.0033022449
-0.0023274251
-0.003186068
-0.0027687674
-0.0034401445
-0.0034414487
-0.0024764803
-0.0027355765
-0.0029329461
-0.0011445997
-0.0021120096
-0.0010217583
-0.0013541725
-0.0011051255
-0.0016134232
-0.00093691054
-0.001273954
-0.0013933763
-0.00092054142
0.00065124545
-0.00032101624
4.1526789e-05
1.9298056e-05
-8.7785395e-05
-0.00012583132
1.2068443e-05
-0.00028686586
-0.00011951008
2.8357931e-05
-0.00041637831
0.00014849129
-0.00038893891
-0.00050824732
-0.00059252009
-0.00095485266
-0.00099550035
-0.0010188884
-0.00076259071
-0.0017843291
-0.0023561252
-0.0023147733
-0.0024944783
-0.0025168021
-0.0027128907
-0.0038009535
-0.0034099119
-0.0031576394
-0.0021134234
-0.0032411116
-0.002892338
-0.0038778246
-0.0030942975
-0.0032514626
-0.0035871107
-0.0041870228
-0.003261548
-0.0034532408
-0.0034891543
-0.002831435
-0.0026637747
-0.0029689082
-0.0028819705
-0.0034617442
-0.0045827287
-0.0039525015
-0.004099594
-0.0043706923
-0.0045119514
-0.0046131204
-0.002258915
-0.002928602
-0.0035432281
-0.0038644628
-0.0040338901
-0.0040280956
-0.0044283993
-0.0046013655
-0.0045225651
-0.0048962713
-0.0022985373
-0.0029034234
-0.0029958015
-0.0025775934
-0.0025125675
-0.002972102
-0.0029186718
-0.0038012214
-0.0040589082
-0.0031511457
-0.0026488341
-0.0027446942
-0.0020052609
-0.0020108581
-0.0024234842
-0.0025841583
-0.003252611
-0.0035500128
-0.0024224541
-0.0028649787
-0.0028617688
-0.0025123982
-0.0015652938
-0.0027400482
-0.0019776979
-0.0028342397
-0.0031179316
-0.00200408
-0.001577478
-0.0024705636
-0.00020747016
-0.0013556449
-0.00029095411
-0.00073384184
-0.00053340287
-0.0010287525
0.00011669229
-0.00034371547
-0.00034979653
0.00029560553
0.0010320542
1.031623e-05
0.00028026345
0.00044879448
0.00021281119
0.00019965901
0.00081799518
-9.5355953e-05
0.00022260336
0.0003349121
-0.00058431107
0.00011604374
-0.00030647093
-0.00044528097
-0.0005474111
-0.00091179011
-0.00095094549
-0.00082265302
-0.0007327789
-0.0020495188
-0.002856617
-0.002438676
-0.0023281332
-0.0023623658
-0.0024565122
-0.0034225226
-0.0028140342
-0.0024964501
-0.0014644293
-0.002921515
-0.0032975358
-0.0041412228
-0.0032213414
-0.0031336599
-0.0030910884
-0.00351173
-0.0024635616
-0.00232204
-0.0023800627
-0.0016132291
-0.0031445095
-0.0035057979
-0.0032720789
-0.0033750541
-0.0043290199
-0.0035374905
-0.0032373657
-0.002971096
-0.0033435754
-0.0040837525
-0.0027419099
-0.0034400129
-0.0038015561
-0.0038193645
-0.003964076
-0.0036901006
-0.0036963721
-0.0038524313
-0.0035422067
-0.0040590205
-0.0024006139
-0.0030071953
-0.0027594872
-0.0023795444
-0.0016675253
-0.002111712
-0.0023777161
-0.0030108135
-0.0028380593
-0.0023671638
-0.0023912926
-0.0022574428
-0.0014648508
-0.0010673896
-0.00089826517
-0.0012296739
-0.001797382
-0.0018835237
-0.0019744481
-0.0022662761
-0.0021919822
-0.0018646437
-0.00084223234
-0.0017810881
-0.00094848559
-0.0016270048
-0.0014088735
-0.0018040813
-0.0013229284
-0.0017579666
0.00078232216
-0.0010579738
0.00035727936
-0.00034914507
-0.00075544378
-0.00055581402
-0.00011178506
-0.00093855115
-6.5686751e-05
7.6436547e-05
0.0013792265
6.2484139e-05
0.00040783754
0.00057371466
-8.5631489e-05
0.00022915088
0.00022831367
3.4610139e-05
-6.1720097e-05
0.00012935372
-0.00060671355
0.00033296675
-0.00015783968
-0.00035148901
-0.00039008546
-0.00075523061
-0.0010008455
-0.00052092681
-0.000591517
-0.0022024576
-0.0028192452
-0.0021394929
-0.0020932336
-0.0021418935
-0.0019579434
-0.0028527271
-0.0020874178
-0.0013233696
-0.00064663138
-0.0022002168
-0.0033454183
-0.0043777355
-0.0033492483
-0.0029660782
-0.0023640293
-0.0024554499
-0.0010684734
-0.0011803932
-0.0013543513
-0.00058052481
-0.0036464146
-0.0039984743
-0.0035108321
-0.0030097451
-0.0033731805
-0.0027658099
-0.0025123622
-0.0024058798
-0.0027244451
-0.0034658546
-0.0032264143
-0.0038251771
-0.0039318113
-0.0033169377
-0.0036890005
-0.0037723603
-0.0036735933
-0.0034082654
-0.0028999912
-0.0024148673
-0.0024556621
-0.0033737938
-0.0025883727
-0.00207985
-0.0017278745
-0.0020642339
-0.0019982482
-0.0025525645
-0.0017309692
-0.0015865259
-0.0024440709
-0.0020930828
-0.00091514954
-0.00081776909
-0.00055469553
-0.00045316222
-0.0010428135
-0.0015331472
-0.0012388635
-0.0026635515
-0.0018728131
-0.0012588391
-0.00043189996
-0.0015444312
-0.00064373759
-0.00077070791
-0.00037644267
-0.00096676192
-0.001494118
-0.0017936864
0.0013572232
-0.0011650999
0.0004804287
-0.00056500175
-0.00057945882
0.00042821492
0.00038650739
-0.00070211544
-0.00044038975
0.00024283372
0.0014835896
-0.00012736338
0.00044786561
0.00038859965
-4.6384168e-05
0.00071191693
4.9886504e-05
-0.00023782378
-0.00014980501
0.00021765832
-0.00048146039
0.00062775325
1.6019499e-05
-0.00032628829
-0.00015373394
-0.00024816184
-0.00081433694
-0.00019862354
-0.0004149206
-0.0021203907
-0.0024606501
-0.0016841871
-0.0019095144
-0.0017059808
-0.0010269595
-0.0018604018
-0.0014562291
-0.00042465922
-0.00013684507
-0.0016287321
-0.0030960998
-0.004537237
-0.0031216495
-0.0022630249
-0.001954941
-0.0019554754
-0.00013118247
-0.00054396764
-0.00036230957
0.00067685324
-0.0039048295
-0.0041847539
-0.0030364787
-0.0030059397
-0.0031683207
-0.0017346864
-0.0015322756
-0.0016467408
-0.0016415944
-0.001695038
-0.0036715507
-0.003537999
-0.003806012
-0.0032272978
-0.0025366088
-0.0025222427
-0.0026658719
-0.0017260931
-0.0015144388
-0.0017893919
-0.0023133547
-0.0033033461
-0.0027435185
-0.0014833632
-0.0011112781
-0.0016141324
-0.0012891689
-0.0017354638
-0.0012654973
-0.00099961676
-0.0023193025
-0.0022456757
-0.00088502159
-0.00083559661
-0.00079817437
-3.9258822e-05
-0.00091872533
-0.0023207519
-0.001630104
-0.001774045
-0.0017141535
-0.0011155148
-0.00039540368
-0.0013469164
-0.00050479562
-0.00019508002
-0.00048054997
-0.00090620182
-0.0013852411
-0.0015272991
0.0013548019
-0.0015282543
0.00015017395
-0.00030719548
0.00010245475
-0.00037058436
0.00083802209
0.0001762078
0.00021707146
9.4053886e-05
0.0012924307
-0.00041315618
0.00029762358
0.00027976862
0.00026232241
9.6331119e-05
0.00043930701
3.503432e-07
0.00034467738
-8.1619891e-05
-0.00030092432
0.00068351731
0.00027680666
-0.00019427178
-0.00013986454
-0.00015245964
-0.00049675979
-0.00018209941
-0.00043987455
-0.0020641174
-0.0023241668
-0.0013392506
-0.0015135465
-0.0014738879
-0.00084048034
-0.00093349686
-0.0010197847
-0.00051649311
1.6042693e-05
-0.001316629
-0.0028589588
-0.0041553169
-0.0029797019
-0.0016451897
-0.00090487199
-0.00056266935
0.00045133226
0.00060946303
0.001525311
0.0024972944
-0.0033513694
-0.0040675014
-0.0027636686
-0.0019768286
-0.0019390579
-0.0010024307
-0.00048612473
0.00012434585
0.0004515509
4.9122297e-05
-0.0037014656
-0.0036270104
-0.0031341509
-0.002516616
-0.0021508226
-0.0019768509
-0.0011482047
-0.00061646168
-0.00053012574
-0.00066903526
-0.0023809259
-0.0029096568
-0.0025500507
-0.0015464354
-0.0011005792
-0.00055122464
-0.00027508676
-0.00085872613
-0.00025164083
0.0005869792
-0.0022196303
-0.0022617621
-0.0017993877
-0.0010875267
-0.00067629961
0.00026724447
-0.00098432027
-0.0011153112
-0.00054678318
-0.00058897803
-0.0016491661
-0.0015634897
-0.00061241124
-0.00048848805
0.00032351905
0.00012693004
0.0003468671
0.0005649558
-0.00046726063
-0.00047559333
0.0010002156
-0.0018234167
0.00019870615
6.4331694e-05
0.00012499627
1.225488e-05
0.0015702169
0.00053834714
0.00052944846
0.00090232161
0.00098293513
-0.00064155442
9.3568383e-05
6.1543474e-06
-0.00017346424
-8.5658821e-05
0.00038534239
-0.00011412946
0.00037956442
0.000134365
3.4526942e-05
0.00047523171
0.00050719175
-0.00026846017
0.0003042995
1.049068e-05
-0.00032585426
0.00035593018
0.00032941087
-0.0010053854
-0.0023424025
-0.0012659144
-0.0014174613
-0.00094564279
-0.00012052826
-0.00037708887
-0.00057298172
0.00053518107
0.00050588423
-0.0011350843
-0.0030986828
-0.0039767886
-0.0026110926
-0.00021902408
-0.00031039178
0.00024420453
0.0016026011
0.0017922518
0.0015116887
0.0019741584
-0.0027687378
-0.0032323559
-0.0017132322
-0.0009835357
-0.00085501549
-0.00012714438
0.0014771654
0.0017620232
0.0024210342
0.0021661777
-0.0030007711
-0.0026196441
-0.0024875362
-0.0021209226
-0.0015788231
-0.00067440661
0.00032719578
6.7665013e-05
0.00088501631
0.0012759419
-0.0018645298
-0.0028199926
-0.0023380943
-0.00087920309
2.8751259e-05
0.0010202446
0.00060533608
0.00055489896
0.0011947021
0.0017843909
-0.0023868109
-0.0018711167
-0.0014845392
-0.00030552462
0.00042487082
0.00042619465
-4.7073229e-05
0.0008708675
0.0010508142
0.0016359458
-0.0017597643
-0.00077823367
-0.00068548837
-0.00085806781
0.00027060625
-0.00030728438
0.00085268973
0.00078784904
0.00047621415
0.001656392
0.00090740529
-0.0011356043
-0.00076852823
-0.00095537806
-0.00035883277
0.000254572
0.00086866231
0.0010181153
0.0017367373
-0.00014994051
0.00080557683
-0.0005292063
-0.00029108829
-0.00022472684
-0.0004603609
3.838242e-05
-6.6403269e-05
0.00042856169
0.00072035875
-0.00082923255
0.0011370187
0.00023963388
0.0011400656
6.3301767e-05
0.0008229307
0.00066170552
0.00030146708
0.0013556919
0.0014196851
0.0014195199
-0.0013700759
-0.00053599799
-0.00051316791
-0.0010844488
0.0002307885
-4.0234705e-05
6.9963903e-05
0.0012732503
0.0015283083
0.0019998692
-0.0036086385
-0.0029569585
-0.0034508913
0.00023393181
0.00037969176
0.00088264091
0.0021552015
0.0013738227
0.0021284363
0.0014019159
-0.0022729623
-0.0026180626
-0.0017500955
0.00089628532
0.0014480525
0.002309033
0.0033721577
0.0035540164
0.0039916891
0.0023763111
-0.0020866726
-0.0011200306
-0.0012179271
-0.00063549913
0.00029262906
0.0011508839
0.0018506645
0.0030664811
0.0025660416
0.0027094057
-0.00097476058
-0.0017154432
-0.0012765723
-4.0437499e-05
0.00076746772
0.0015611311
0.0017797184
0.0027838491
0.0025670842
0.0028974248
-0.0018166313
-0.00074814369
-0.00061329604
-0.00033372456
0.00073115276
0.0016329364
0.0019681881
0.0017176957
0.0025151279
0.0029934359
-0.0016004134
9.0371197e-05
-0.00022058501
4.4676938e-06
0.00046340736
0.00076532038
0.0012690459
0.0013173557
0.00044794069
0.0022509739
-0.00026008357
-0.00015563199
0.0004270228
-0.00017880428
-0.0007375246
-0.00050758484
-0.0006055717
0.0007771564
0.00033167418
0.00071111072
0.00010114289
0.00010521245
0.00041028494
-0.00039667348
-0.00067291404
-0.00029587682
-0.0004468019
2.6814898e-05
0.0007571903
0.00028037948
0.0037102295
0.00037354871
0.0015466139
0.001070829
0.002597497
0.0025402653
0.0026699508
0.0035020403
0.0041032522
0.0048878805
0.002420097
0.00038587092
0.0020097295
-0.00017507057
0.0017843218
0.0011005451
0.0030440102
0.0039425442
0.0061804573
0.0084684152
-0.004450947
-0.0015074865
-0.003494776
-0.00063477635
-0.00025285695
0.00018483126
0.0018376938
0.00093898976
0.0014413071
0.0022562293
-0.0036747166
-0.00084495221
-0.0034393315
0.0015084298
0.0025841037
0.0050744457
0.0045328837
0.0044173109
0.0036117595
0.0025780115
-0.001973186
0.0012787839
-0.00041836975
0.0011239498
0.0029166856
0.0035431594
0.0036565998
0.0038271743
0.0057578812
0.0031512224
-0.00010512027
0.00089093965
0.0014039911
0.0021286335
0.003081494
0.0028056137
0.0042683711
0.0036385584
0.0062716433
0.0034176777
-0.0015207639
0.00066093162
0.0015829454
0.00073724217
0.00065860713
0.00093755466
0.0014723938
0.0028433499
0.0031333549
0.0027999059
-0.002355043
0.00035795896
0.0010513207
-0.00050473378
-0.00011732811
0.0014954181
0.0018511285
0.0031461054
-0.00087713616
0.0026446111
-0.0028777795
-0.00046109125
0.0018879204
0.00061978832
-0.00018027285
-0.00019494692
-0.00047116282
-0.00026926027
-0.00098384023
0.0060961743
-0.0010283663
-0.00017223763
0.00056795405
0.00033012564
-0.00019612194
-0.0014633508
-0.0021306285
-0.0017008033
0.00021123813
0.0030177581
0.0081781282
0.001156074
-0.00010582439
0.0008321553
0.0062467572
0.0082235154
0.0099038939
0.010342298
0.0096399146
0.0065478448
0.013990608
0.0045204981
0.008550565
0.0048155441
0.0092721648
0.0087794123
0.01432424
0.018558764
0.020221883
0.020097994
0.00098323416
0.0061708908
0.0074702381
0.0057376528
0.0027493087
-0.0016017926
0.00011984569
0.0038792435
0.0061958338
0.016262182
-0.0079102982
0.0065622243
-0.0011877915
0.0030385573
0.0061407442
0.0068177726
0.0044609773
0.0045270428
0.0029032716
0.0084258882
-0.0093655002
0.0057368787
-0.00039347117
-0.0003313586
0.0036929046
0.007220196
0.0063883752
0.0062308
0.0065184023
0.0044115744
-0.005418441
0.003311881
0.0037385107
0.0017937232
0.0023519642
0.004522066
0.0033246032
0.0023854465
0.010277346
0.0024442809
-0.00751477
-0.0017250314
0.0057222319
0.0048518614
0.0037015117
0.0038410454
0.0014938832
-0.001622214
0.0085595732
0.0028442152
-0.0084711414
-0.0069556871
0.00030355693
0.00048767887
-0.00076291312
0.00066010642
0.0060613737
0.0075979356
0.0017335277
0.0014536284
-0.010652955
-0.015484454
-0.0071995928
-0.0013104529
-0.0021728999
-0.0026082439
-0.0020106238
0.0017385799
-0.0083075002
0.0024867694
-0.0043156837
-0.0073376805
-0.0039761145
4.0288095e-05
0.00022600058
-0.0010619195
-0.0048825819
-0.004886222
-0.0051398983
0.0022698113
-0.0086063887
-0.00045740984
0.00054768096
-0.00094854698
-0.0050610122
-0.0064462944
-0.0084926599
-0.0083512604
-0.007608192
-0.0048420232
-0.015004023
-0.0041323347
-0.0089636398
-0.0045439754
-0.0054764883
-0.0037998527
-0.0087994166
-0.011832014
-0.014379483
-0.0146565
-0.00050700113
-0.0067323105
-0.0069338327
-0.0017287777
0.0039733458
0.0091758784
0.0090573448
0.005119271
0.001835124
-0.0077448531
0.0087148869
-0.0044624303
0.0063626996
0.0052276265
0.0038819507
0.0047459968
0.0073708253
0.0074007481
0.0098877501
0.0040591617
0.011188795
-0.00090154154
0.0070772597
0.0087081309
0.0062834272
0.0034989345
0.0051365766
0.0061212046
0.0064506444
0.008020823
0.008571638
0.00032772368
0.0012746727
0.0042776065
0.0044638587
0.0030967927
0.0056198407
0.0066495068
-0.00010944494
0.009417205
0.0090442647
0.0036943259
-0.0023383762
-0.0014754021
3.97512e-05
0.0011666784
0.003662967
0.008703005
0.00043143635
0.006754274
0.0099431116
0.0094383322
0.001561149
0.00084018424
0.0035833852
0.0021130407
-0.0020161086
-0.00099005618
0.0046155642
0.0042071708
0.011817936
0.016265785
0.0071264454