/*--------------------------------*- C++ -*----------------------------------*\
| =========                 |                                                 |
| \\      /  F ield         | OpenFOAM: The Open Source CFD Toolbox           |
|  \\    /   O peration     | Version:  v2106                                 |
|   \\  /    A nd           | Website:  www.openfoam.com                      |
|    \\/     M anipulation  |                                                 |
\*---------------------------------------------------------------------------*/
FoamFile
{
    version     2.0;
    format      ascii;
    arch        "LSB;label=32;scalar=64";
    class       volScalarField;
    location    "50";
    object      laplacianT;
}
// * * * * * * * * * * * * * * * * * * * * * * * * * * * * * * * * * * * * * //

dimensions      [0 -2 0 1 0 0 0];

internalField   nonuniform List<scalar> 
10000
(
-0.35015802
0.87921222
1.5284934
-0.33698058
-0.62451591
1.6478154
-1.5163921
-0.38860765
1.3902249
-1.50036
0.87921052
2.0490997
1.3408453
0.32197551
0.69569006
-1.7142567
-0.069125293
0.91811978
-1.8655491
0.73191188
1.5284934
1.340844
0.65546084
0.70990086
-0.27932896
-0.3851423
0.4147343
-0.66669065
-1.0710546
-0.84201616
-0.33698427
0.32197647
0.7098991
-1.8621327
-1.6232853
1.8467677
-2.4968132
-1.0323613
1.1946693
-1.4839677
-0.62451937
0.69568972
-0.27932913
-1.6232815
2.3430099
-1.5040092
-0.74375743
2.8182581
-2.9960559
-1.9437916
1.6478153
-1.7142537
-0.38513968
1.8467714
-1.504007
0.24191729
1.2837428
-4.6958195
-3.302367
1.8452752
-1.5163884
-0.069117564
0.41473715
-2.4968069
-0.74375282
1.2837468
-3.1526129
1.3538518
2.1135489
-0.76802786
-0.3886085
0.91811921
-0.66668571
-1.0323612
2.8182567
-4.6958238
1.3538436
0.82417154
-6.8472269
-4.7626302
1.3902251
-1.8655533
-1.0710544
1.1946696
-2.9960593
-3.3023733
2.1135432
-6.8472274
-7.5194902
-1.8418699
-1.5003614
0.73190665
-0.84201713
-1.4839692
-1.9437989
1.8452682
-0.76803099
-4.7626227
-1.8418704
1.1637356
1.1852745
3.1550076
3.5028941
4.0541628
0.10038269
1.5063705
-0.1291611
-0.47393371
2.3157284
-2.0165197
3.1550089
3.2608061
4.0213285
0.40217015
-0.24925617
0.54308851
-4.9409199
0.69914654
0.68767231
-2.5106294
3.5028932
4.0213224
2.2436905
-0.0093003231
-1.0619319
-0.5799655
0.13692323
0.47373396
-2.8234851
-3.4296558
4.0541596
0.40216514
-0.0092993551
1.2786174
-3.368934
2.6124876
-1.7926452
-4.9711299
-2.3137368
-1.2785636
0.10037724
-0.24925839
-1.0619293
-3.3689307
0.207259
0.43442367
-6.1032039
1.2652204
-0.30037682
-1.3259949
1.5063705
0.54309135
-0.57995743
2.612497
0.43442509
-2.1884117
0.17006477
0.417541
-2.7723278
-0.71073902
-0.12915763
-4.9409132
0.13692784
-1.7926367
-6.1032003
0.17006317
-4.5724127
-1.589557
-3.6244104
-2.8907481
-0.47392984
0.69914597
0.47373385
-4.9711256
1.2652181
0.41753259
-1.5895646
-2.4475701
-7.0044566
-3.7593077
2.3157237
0.68766554
-2.8234814
-2.3137397
-0.30038814
-2.7723449
-3.6244126
-7.0044492
-7.8251263
-3.3688257
-2.0165255
-2.5106303
-3.4296542
-1.2785762
-1.3260155
-0.71074982
-2.8907362
-3.7593137
-3.3688501
-0.57500296
2.9063407
5.0686581
1.9989355
1.2264349
0.60240387
-2.6248493
-0.46683851
-1.6449989
0.78537545
-2.2737032
5.0686563
2.6513071
3.416243
1.5750431
-2.5643848
-2.4571078
0.93163015
-1.7270202
-3.6193076
-1.6893639
1.9989314
3.4162417
1.3040771
-2.9382286
0.68111126
-1.676705
-4.0848774
-5.2571536
-3.1355414
-2.7665686
1.226428
1.5750346
-2.938227
1.0820695
-1.1013355
-3.2026445
-2.7887703
-3.4023037
-0.1743328
-1.489823
0.60239899
-2.5643816
0.68111473
-1.1013304
-0.59344808
-2.8757349
-4.3161062
1.3259534
-1.3531499
-2.8502589
-2.6248465
-2.4571015
-1.6766954
-3.2026421
-2.8757321
-6.0770192
1.1070388
-2.0064413
-4.8716193
-1.9331999
-0.46683431
0.93163327
-4.0848741
-2.7887678
-4.3161113
1.1070327
-5.7887966
-4.9116424
-2.8783345
-3.1281975
-1.6450031
-1.7270231
-5.2571526
-3.4023091
1.3259436
-2.0064559
-4.9116499
-0.55578067
-4.8379698
-4.0187801
0.78536834
-3.6193087
-3.1355384
-0.17434103
-1.3531769
-4.8716427
-2.8783359
-4.8379689
-9.9339486
0.36053075
-2.2737034
-1.6893496
-2.7665684
-1.4898438
-2.8502782
-1.9332003
-3.128198
-4.0188157
0.36053332
-1.638657
2.1013523
4.5886366
4.9276391
-0.84047674
-0.10214138
0.010070904
-0.96054366
-3.7059647
0.0056794556
-3.9222074
4.588633
-0.30989821
-1.5273175
-3.6474777
-2.0285871
-5.858265
-5.388475
-1.4726845
-3.8883687
-2.7175808
4.9276328
-1.5273267
3.6927744
-1.2317574
-1.232398
-1.9865809
-5.1510124
-4.3832054
-4.41047
-4.0692867
-0.84048406
-3.6474805
-1.2317548
-1.7829037
-4.7645665
-5.9273335
-5.670262
-3.8682222
-1.3637346
-2.11438
-0.10214416
-2.0285851
-1.2324002
-4.7645691
-4.7610736
-3.6242896
-4.2387498
1.2367596
-2.9789517
-4.2017991
0.010072481
-5.8582665
-1.9865841
-5.9273408
-3.6242929
-5.8114306
-1.0485248
-3.5334907
-5.8523852
-2.9503954
-0.96054526
-5.3884884
-5.1510203
-5.6702684
-4.2387545
-1.0485265
-7.8274514
-2.2057809
-1.1545742
-1.7670049
-3.7059734
-1.4726882
-4.3832018
-3.8682321
1.2367445
-3.5335109
-2.2057954
4.3090425
-5.1395251
-1.8659267
0.0056785978
-3.8883604
-4.4104692
-1.363752
-2.9789827
-5.8524078
-1.1545715
-5.1395331
-3.6994844
-1.6414231
-3.9221994
-2.7175764
-4.0692985
-2.1144027
-4.2018096
-2.9503987
-1.7670344
-1.8659276
-1.6413719
-0.33953109
4.0927406
0.089465982
0.25931444
-1.1670964
-1.9154296
-4.2041699
-2.563506
-3.5721109
-0.44362469
-7.6388975
0.089462838
-5.3117054
-3.5948
-6.4071937
-4.1237528
-6.7720267
-7.6956548
-5.1825685
-6.8850242
-3.3741045
0.25931069
-3.594802
-0.39647682
-3.834264
-5.9641445
-5.4674362
-7.1387447
-6.1016427
-5.1570262
-4.0740719
-1.1671033
-6.4071955
-3.8342626
-4.4589321
-8.0224807
-7.4998499
-6.5008355
-4.802052
-1.8199041
-2.5053498
-1.9154305
-4.1237525
-5.9641536
-8.0224898
-6.373457
-3.7855321
-5.1147227
-0.57118598
-4.0271003
-5.6707244
-4.2041736
-6.7720437
-5.4674565
-7.4998586
-3.785536
-6.1799437
-3.3321699
-4.418351
-5.9779574
-2.2538041
-2.5635193
-7.6956782
-7.1387589
-6.5008392
-5.1147285
-3.3321793
-8.9589497
0.11178268
-1.9636409
-2.2151932
-3.572123
-5.1825744
-6.1016478
-4.8020636
-0.5712071
-4.4183802
0.11177633
3.0020346
-5.9195946
-1.7727284
-0.44362161
-6.8850221
-5.1570403
-1.8199266
-4.027126
-5.9779729
-1.9636321
-5.9195858
1.4667128
-5.8721631
-7.6388917
-3.3741197
-4.0740922
-2.505352
-5.6707286
-2.2538388
-2.2152289
-1.7726716
-5.8721554
-0.62997748
-1.2413626
-3.0731803
-1.8341896
-4.8750782
-4.0768233
-6.2191282
-5.0184598
-6.2763399
-1.5310209
-9.509276
-3.0731822
-11.895972
-6.4696454
-9.6232405
-7.5674082
-8.6909021
-9.6068971
-7.1483179
-7.2776662
-2.3011515
-1.8341926
-6.4696406
-4.1439015
-7.3541769
-8.5574742
-7.5910619
-7.8346329
-5.7152436
-4.5277221
-4.2630423
-4.8750772
-9.6232395
-7.3541823
-8.6406914
-9.8296121
-7.9734826
-6.3402844
-5.5174713
-2.1259387
-3.7817974
-4.0768224
-7.5674228
-8.5574924
-9.8296215
-5.1704204
-3.5994561
-6.9941615
-1.7481281
-4.293932
-5.6760994
-6.2191418
-8.6909303
-7.5910818
-7.9734914
-3.5994573
-8.7357861
-5.2711923
-3.6441174
-5.6000444
-0.63937114
-5.0184827
-9.6069212
-7.8346452
-6.340292
-6.9941772
-5.271215
-8.4148427
-0.18445911
-3.33332
-3.4312195
-6.2763528
-7.148327
-5.7152573
-5.5174888
-1.7481639
-3.6441392
-0.18443956
0.022075082
-0.64410873
-3.6065001
-1.531024
-7.2776854
-4.5277459
-2.1259565
-4.2939516
-5.6000479
-3.3333295
-0.64410746
-9.9994779
-0.21199987
-9.5092851
-2.3011769
-4.2630549
-3.7817932
-5.6761327
-0.63943223
-3.4312252
-3.6064944
-0.21205358
-0.21763418
-3.9823319
-5.9218584
-3.9632257
-7.7100367
-6.0490781
-7.7938042
-5.8773794
-7.6313141
-1.7361617
-9.88915
-5.9218586
-15.468057
-8.7067862
-11.805744
-10.487992
-10.537216
-8.9754688
-6.7911291
-6.8532042
-1.2821167
-3.9632215
-8.7067837
-7.7921528
-10.049059
-9.2058768
-7.3566993
-6.693273
-5.7314477
-4.3766149
-5.1190292
-7.7100354
-11.805748
-10.049066
-9.3764818
-9.4057053
-8.2240534
-6.8153307
-5.5970048
-1.4022665
-4.1044959
-6.0490857
-10.488018
-9.20589
-9.405709
-5.5869464
-3.8202956
-6.153354
0.61417938
-3.9433716
-3.1676304
-7.7938238
-10.537242
-7.3567137
-8.2240581
-3.8203009
-7.6227416
-3.4780184
-2.7480265
-4.3038135
-0.21461493
-5.8773995
-8.9754864
-6.6932822
-6.8153462
-6.1533817
-3.478033
-7.8901532
-1.136031
0.097794733
-1.6204418
-7.6313244
-6.7911463
-5.7314634
-5.597033
0.61414216
-2.7480163
-1.1360106
2.9948053
2.0325931
-2.0278551
-1.7361774
-6.853239
-4.3766398
-1.40229
-3.943396
-4.3038414
0.09772433
2.0325489
-8.2278795
0.53713836
-9.889176
-1.2821467
-5.1190427
-4.104515
-3.1676748
-0.2146291
-1.6204156
-2.0279034
0.53714598
-1.7639912
-5.6966152
-5.9005917
-4.8449269
-9.3757811
-6.9651133
-8.123735
-5.8487463
-7.9660955
-1.4318323
-10.022409
-5.9005915
-15.3899
-9.8940864
-12.754927
-9.9727901
-10.095804
-8.358408
-6.6841912
-6.7783009
-0.46218013
-4.8449218
-9.8940874
-8.1239408
-10.014307
-8.0873601
-6.7233497
-6.6270018
-6.4286605
-3.5557062
-6.0406688
-9.3757853
-12.754938
-10.014321
-8.3840856
-9.1310675
-8.1927342
-6.547934
-3.4089931
-0.50073209
-3.3796566
-6.9651305
-9.972817
-8.0873614
-9.1310767
-4.7280521
-1.5906791
-3.3871633
2.6119225
-4.4831049
-2.9428589
-8.1237554
-10.095816
-6.7233665
-8.1927406
-1.5906905
-5.3793456
-2.6931472
-3.5971309
-1.7240691
-1.0704294
-5.8487595
-8.3584302
-6.6270106
-6.5479529
-3.3871898
-2.6931451
-8.2853979
0.3649073
4.1633509
-2.0891638
-7.9661107
-6.6842034
-6.428678
-3.4090251
2.6118985
-3.5971228
0.36485358
5.782524
-5.755347
1.4791632
-1.4318548
-6.7783292
-3.5557323
-0.5007645
-4.4831238
-1.724116
4.1632705
-5.7553815
5.6026267
-3.380368
-10.02244
-0.46219805
-6.0406822
-3.3796946
-2.9428585
-1.0703809
-2.0891601
1.4791508
-3.3803215
-1.2791707
-4.6379566
-4.0245199
-4.9389815
-8.7376941
-5.2914641
-7.4961696
-5.9529031
-7.9651654
-0.73175295
-10.080361
-4.0245183
-14.379691
-8.937711
-10.538755
-7.9431798
-9.3282103
-7.8220967
-6.5622436
-6.1812055
0.38284888
-4.9389787
-8.9377187
-6.0112864
-6.8859148
-6.0499961
-5.751026
-6.0135204
-5.7622666
-2.8193919
-7.5778082
-8.737708
-10.538764
-6.8859343
-6.1200919
-7.9050921
-6.3016841
-5.2270456
-1.9282139
-1.8498616
-3.0599377
-5.2914835
-7.9432128
-6.0499681
-7.9051122
-1.8801304
-0.013199903
-2.4244069
1.0441003
-5.9079521
-3.0672027
-7.4961845
-9.3281866
-5.7510708
-6.3017075
-0.013206236
-5.2975057
-3.1150053
-3.8690642
0.71967251
2.5467519
-5.9528998
-7.8221394
-6.0135358
-5.2270541
-2.4244023
-3.1150032
-9.3874553
1.2439262
-0.31082442
-2.3020641
-7.9651906
-6.5622578
-5.7622737
-1.9282341
1.0440939
-3.869119
1.2438343
3.4068569
-3.1089276
2.0889917
-0.73177207
-6.1812189
-2.8193989
-1.8498762
-5.9079415
0.71965586
-0.31082493
-3.1089066
-5.3786693
-1.4646695
-10.080379
0.38285897
-7.577833
-3.0599742
-3.0671835
2.5467496
-2.3021236
2.0889975
-1.4647045
2.4685199
-2.9121533
-1.8440568
-3.6529092
-5.6759312
-2.8228852
-6.3096959
-5.3682009
-7.50528
0.48836588
-9.2972071
-1.8440578
-13.477689
-5.5927985
-5.9281149
-4.7357696
-7.9861082
-6.4156645
-4.7802019
-3.3517995
2.1983843
-3.6529132
-5.5928261
-0.87978547
-2.5056
-4.1834891
-3.4847669
-2.745629
-3.3190486
-1.5390098
-5.6445362
-5.6759564
-5.9280773
-2.5056748
-3.9977972
-5.5075999
-2.5400698
-3.5874478
-0.53481022
-0.57875907
0.15208776
-2.8228823
-4.7359006
-4.183378
-5.5076218
1.7806877
0.97700582
-0.39020116
2.1430216
-2.450615
1.0808237
-6.3097465
-7.9859651
-3.4848327
-2.5401196
0.9770061
-2.3844047
-0.79078429
0.20314481
3.3370807
4.391968
-5.3681496
-6.4157553
-2.7456934
-3.5874633
-0.39019595
-0.79081217
-7.1370397
2.506468
-3.8383632
0.9608785
-7.505327
-4.7802406
-3.3190653
-0.53479208
2.1430321
0.20308781
2.5064518
-3.3028669
5.4839379
-0.45313942
0.48834542
-3.3517911
-1.5389838
-0.57874857
-2.4506033
3.3370805
-3.8383487
5.4839275
-7.970922
3.0105112
-9.2971984
2.1984031
-5.6445899
0.15204877
1.0808216
4.3919379
0.9608777
-0.45312125
3.0105152
1.9218546
-1.3195995
-0.70948909
-0.709208
-1.8926489
-0.063477733
-4.5681554
-3.4613618
-5.6314301
3.7295625
-6.846145
-0.70949758
-11.21931
-0.3205039
-1.6491902
-1.7488357
-4.9590592
-2.0963968
-0.072492809
2.542578
5.2766046
-0.70918394
-0.32062566
4.0689954
0.40098129
-1.4010272
1.4878591
3.0545211
0.4795363
0.84201544
-2.4779251
-1.8927486
-1.6488281
0.4006457
-1.8352707
-1.4212774
2.9117811
-2.5023435
1.1003871
4.6903717
1.7656131
-0.063310877
-1.74949
-1.4007131
-1.421216
6.6983597
2.2827714
3.1245496
5.4463749
4.2296925
2.5337836
-4.5684405
-4.9585561
1.4879178
2.9117032
2.2827272
2.4022883
1.476167
3.5872671
6.5500138
4.6888054
-3.4611179
-2.0964937
3.0543429
-2.5024521
3.1244893
1.4761198
-2.0318135
6.0512399
3.8866932
1.284283
-5.6315233
-0.072638324
0.47947404
1.1004289
5.4463991
3.587278
6.0512925
5.3268508
3.6195876
5.7890052
3.7295246
2.5425958
0.84205021
4.6903833
4.2296702
6.5499987
3.8866727
3.6195499
9.4146193
6.432088
-6.8461219
5.2766059
-2.4779644
1.7656156
2.5337866
4.6887758
1.2842874
5.7889681
6.4320851
3.5908418
-0.39843207
0.46275369
2.8596802
0.69691719
2.250272
-2.0081778
0.53429092
-1.8065868
7.0744824
-5.7951546
0.46270282
-8.1887462
3.101764
0.62909619
1.82847
0.66503559
2.9677128
2.0248476
5.7283313
5.9616993
2.8599225
3.1010214
6.4261332
2.8323921
3.2532065
5.7028906
4.5052897
2.4165726
1.8521832
-1.8898961
0.69624553
0.63124259
2.831199
1.6132726
1.3802112
4.6180972
-1.9636681
1.1559775
8.4070485
0.77284704
2.2514565
1.8258503
3.2534627
1.3805625
9.1703875
2.3923334
5.3535091
4.6406196
4.5888005
0.47798302
-2.0095176
0.66605366
5.7036303
4.6183256
2.3922915
5.8153304
2.6181426
4.1259086
9.0774717
6.2295177
0.5349972
2.9680574
4.5052085
-1.9638884
5.3532542
2.6179892
-0.13900371
5.7410146
11.626946
-4.2835104
-1.8066409
2.0246046
2.4163602
1.1558495
4.6404973
4.1258886
5.7411076
12.79151
4.0505324
7.7305851
7.0743925
5.7282548
1.8520964
8.406995
4.5887733
9.0774866
11.627054
4.0505761
7.9458844
2.7465979
-5.7951594
5.9616808
-1.8899191
0.77288938
0.47804236
6.2295203
-4.2834046
7.7306486
2.7465988
-1.5496639
-0.34489465
1.7386571
4.6433855
1.9578596
4.3732043
0.43618593
2.5953671
0.45830887
8.0998446
-7.4272192
1.7383263
-6.8035852
3.7949612
1.4431733
3.9367832
3.1134134
5.744787
3.0705034
7.880504
9.462393
4.6451772
3.7904216
6.4413814
3.8164044
5.115495
7.8991733
5.7512128
5.784726
2.3584948
-1.3985995
1.9534735
1.4532657
3.8137771
2.5123104
2.2657208
6.9399013
2.877144
1.0453741
9.2676981
0.00010406996
4.3794059
3.9295835
5.1132241
2.2658295
13.216496
7.3760043
6.0386482
2.3739085
2.0543706
5.2493259
0.4316413
3.112944
7.9004845
6.941422
7.3768317
9.0008952
4.7143971
4.8143116
8.7428928
5.9817855
2.5963504
5.7463797
5.7524284
2.8779422
6.0387203
4.7138447
3.5048425
3.8926379
2.7420638
1.1189089
0.45867985
3.070739
5.7847693
1.0453458
2.3735057
4.8136127
3.8925574
0.07682649
8.4920594
5.3883286
8.0997804
7.8803666
2.3582225
9.2675357
2.0540726
8.7423132
2.7420701
8.4921764
1.2696465
3.1445389
-7.4272683
9.4623028
-1.3988236
3.8286648e-05
5.249324
5.9812911
1.118841
5.3885027
3.1446816
2.4415961
-0.41552208
2.6707942
4.340546
1.6729149
5.5526329
1.2406582
2.6186569
3.4069446
8.8416513
-7.5154284
2.6684173
-8.6627621
2.5417912
0.8119137
4.4049469
3.7423978
10.337258
3.858751
8.3569938
13.444095
4.3524325
2.5174549
5.2492649
4.1499666
6.1934541
9.6402211
5.635467
4.0534961
1.8682526
-3.6754393
1.6485389
0.84787722
4.1510296
3.8816508
1.175935
4.1713062
1.4982046
-0.01269389
8.8604754
3.335746
5.5772872
4.3977236
6.1835771
1.1708624
8.01977
8.05888
6.4170178
4.0374487
4.3391007
7.985851
1.2312529
3.7329908
9.6349895
4.1707651
8.0618647
12.629669
9.4743639
6.6653846
12.989985
-0.11714947
2.617413
10.337577
5.6368288
1.5013395
6.4210975
9.474707
4.3958159
7.8344076
0.34772717
3.4987732
3.4076555
3.8600406
4.0547902
-0.010230674
4.0402453
6.6648482
7.8339102
5.0525935
5.8036708
9.1995719
8.8418993
8.3575382
1.8683741
8.8616877
4.3407993
12.988777
0.34672907
5.8033376
3.9814015
7.0354341
-7.5153854
13.444319
-3.6758541
3.3359856
7.9875717
-0.1180955
3.4972687
9.1985321
7.0349027
3.2970382
-0.25895498
2.662405
2.9857133
-0.49550155
6.135567
2.7427104
1.0815311
4.0613331
7.0134472
-7.3809071
2.6463779
-12.235658
0.091570882
0.89416527
3.9968602
-1.3939778
9.4369766
1.5862578
5.4018722
13.484175
3.0557673
-0.016380273
5.7107493
1.366843
1.3583847
7.8732705
5.0663771
0.60756413
1.3182471
-3.4084336
-0.60681167
0.97170053
1.4009543
-0.74909434
4.0907888
4.6730651
-1.1990113
1.8422251
6.8003988
3.1770221
6.203685
4.0356273
1.3627825
4.0747281
10.289405
2.7963977
5.0997473
4.9175242
6.0345374
1.2002158
2.7405695
-1.4080121
7.8505864
4.6475248
2.7921697
6.3389552
7.0082953
-0.61914257
5.2682775
6.4849485
1.0756576
9.4277831
5.052672
-1.2128662
5.1032767
7.0111729
2.1547178
5.7174861
5.4960385
-0.46057835
4.0598241
1.5840368
0.60138201
1.8371412
4.9264136
-0.61399875
5.7192726
11.551973
7.767162
9.4062993
7.0132032
5.4023282
1.3143361
6.7983094
6.044955
5.2741998
5.4981961
7.7676254
10.503108
4.1433884
-7.3808404
13.485509
-3.4112718
3.1728773
1.2098479
6.4937402
-0.45547588
9.4087773
4.1444952
7.8907563
-0.77077237
0.80367269
3.2044147
-2.3597911
2.3941982
2.1567758
0.25994396
2.3961837
4.2465424
-7.0768008
0.70728348
-12.99209
-2.5982478
-2.6012786
3.0618953
0.86854812
4.2280795
2.8493019
6.5208139
16.747102
3.5655983
-2.9610317
3.9577603
1.4423687
3.1408794
3.5805092
4.9513436
7.4802887
2.8568626
-0.60382171
-2.7544003
-2.6471635
1.537248
-2.4936808
-0.58510095
-0.58089607
-1.1633017
1.2013059
-2.3354582
-2.4082105
2.4763065
3.2200352
3.3059954
-0.54370362
6.2929935
1.9566104
7.5247053
6.1355583
1.3344383
4.4068548
2.1970002
0.9361255
3.6452708
-0.60720454
1.9276982
7.0426515
1.2287538
0.45656853
0.59603184
3.4671938
0.26829136
4.2497415
4.9641162
-1.2211568
7.4853262
1.2129855
2.3731293
9.5621414
1.5152261
-2.9126971
2.3973686
2.8593571
7.4753001
1.1396523
6.1020016
0.43976057
9.5564273
7.2907861
1.152469
8.2099812
4.246308
6.5306088
2.8459484
-2.3934431
1.3089961
0.58486721
1.5105685
1.1512511
5.4483553
1.793588
-7.0767337
16.758841
-0.6081697
-2.4685833
4.3691088
3.4479873
-2.9218414
8.2061205
1.7922144
-0.41420284
-1.7198999
-2.5879957
4.0800761
-2.3265874
3.6900816
0.7444564
-1.0153094
5.5113463
5.5684554
-5.4501889
-3.0922116
-10.705081
-4.534942
3.4613543
-1.6659743
1.2330477
5.1950511
2.6386218
0.65366152
9.4310206
5.6900262
-5.1951295
8.9124585
-0.41495522
1.5636886
2.4549208
6.5046536
5.1207869
5.3983502
9.2110635
-3.2164354
2.3757398
-0.71602975
-6.4341982
-0.89235995
0.5184887
-2.9418148
-4.0788399
3.2075491
2.5734217
3.4651208
-1.934792
1.8146762
-0.59000213
4.8420739
6.9777536
1.6800863
2.8494654
-2.117768
3.7424221
0.70917592
1.236075
2.8464627
0.85444691
7.0939431
6.2423797
-2.5117246
7.0674874
6.5778717
3.5659131
-1.0161035
5.2681496
6.8760194
-2.6848913
1.8050142
-2.4736176
1.1358487
5.5180652
-3.2730657
1.0805006
5.51394
2.7305107
5.4351175
-3.9156388
2.9452547
7.1099212
5.5310656
2.5148245
6.2602499
0.9985647
5.5671017
0.75676934
5.6571496
3.2923121
-2.0670363
6.606421
-3.2602946
6.264273
1.4373096
-8.0082192
-5.4538554
9.5333327
9.4827079
2.6749146
3.784709
3.5846348
1.0879525
1.0006307
-8.0084979
10.023395
1.0680914
-7.9361878
3.9088988
-2.8509208
3.6276953
0.25733502
-1.721764
3.8964489
2.0239702
-0.68116971
-10.185226
-4.6629012
-13.98859
1.9469397
-2.3118612
-2.693489
5.1718369
-5.2892121
-3.1091758
-6.32625
10.046023
-12.225802
4.5289708
8.0140482
5.164629
6.5389671
10.061562
7.5841619
12.119121
4.1058084
-2.3980947
-0.57512971
5.2377875
-9.0865688
-2.4038323
-2.8197251
-2.4128212
1.9092071
-6.1529476
1.1245992
3.2619898
-5.1637604
2.4437981
-3.098808
-0.99854651
2.4326436
1.3535983
0.90293407
-2.4659501
6.0370973
-0.21478963
-5.0926945
4.476706
-3.5934253
2.2221541
1.1340894
2.0852777
-5.5897446
1.009668
-1.4355745
-2.1671986
3.3244378
8.720251
-3.0713537
1.1012822
2.0127993
6.0720579
-5.854381
3.1866172
4.0068385
3.489738
-6.6453389
6.87502
1.4384783
0.67545065
-5.6820638
-5.8835451
-1.6046169
-5.3512163
-7.1711766
1.6346334
-4.0501141
11.916067
-6.3899821
-2.6262173
0.92083167
3.1417282
-5.3710631
9.8397484
-1.5959199
-1.0588368
-7.1408878
4.110343
1.1108615
5.9828289
-1.5149778
3.9151436
-7.2654227
-1.6815258
3.6166184
7.5562653
-16.997112
-8.2367516
-8.8523966
0.017637237
-9.4452842
-10.018301
-10.721483
-9.8783699
-8.4967924
-25.321584
-4.1122396
-29.260327
-16.571242
-18.91881
-18.131759
-11.256248
-20.965662
-25.33719
-43.329959
11.596895
-6.6932366
-18.206822
10.241678
6.7494087
12.473652
4.0134032
12.465051
-0.52918521
-17.448203
8.4128651
3.5958537
13.571949
-1.8393041
-1.7895643
-6.2683826
-11.357049
1.5503052
-0.0094628116
-5.588589
13.439369
-3.350988
10.690046
-0.72190333
9.4111655
-8.4761288
-4.7428313
1.4410533
-1.691357
-3.585497
0.23827332
-7.2069932
16.104376
-4.9896592
-8.1533108
-3.1374458
-6.4149902
9.159477
-17.21155
0.64828747
-3.501852
-4.3722155
7.1343281
-10.06558
-4.308818
-6.3159411
-22.60831
2.5380201
-19.367272
-2.6333192
-6.8153533
-17.462363
15.033874
2.9306131
2.086658
9.4239272
2.6412349
-1.988933
-10.58688
2.7158183
-8.1757005
-24.606119
1.3326061
1.5575648
-0.56185515
-16.457288
-18.875504
-10.288498
11.401761
-5.6323378
-8.5810021
-44.989952
-17.042413
-4.0891568
-1.544256
2.829545
-0.55524517
4.5534577
-4.1991796
-39.475348
76.618581
61.803401
40.912615
23.083404
83.950622
81.606028
95.948912
114.1079
123.79396
161.05361
-53.826767
70.532171
72.48363
34.028875
-8.9104834
-36.795106
-45.155067
-21.879064
1.9551329
112.44571
-52.913498
60.956845
-42.306898
5.4760132
16.729113
39.514236
-2.8250527
-16.498587
-16.641759
40.30917
-49.072604
19.074277
0.52618976
-3.4027707
4.6363281
38.080503
17.322198
2.4895078
20.691151
8.2860732
32.629742
-22.785252
11.148433
3.2039321
-11.430622
9.7820993
3.1567105
-12.238398
26.852335
16.478691
47.829894
-48.783515
34.478102
36.501122
9.4847904
8.3645753
0.72120088
-12.744801
14.533358
21.291563
76.610408
-55.426663
-7.4876381
15.713689
2.8569235
0.79773777
12.617438
16.133445
-44.336012
52.771918
106.79537
-30.245312
-21.361746
0.21275613
-12.972717
-12.764369
16.274941
69.888154
-54.586188
36.872736
126.25114
-3.1199746
-21.79612
16.696548
24.296789
13.155902
-44.966404
-54.90715
-39.054214
66.068222
170.34699
115.54801
38.151055
2.7366979
9.3395113
13.861393
45.805156
30.681788
60.947191
21.561697
-78.270301
-54.652755
-39.811035
-25.625374
-75.424185
-74.593821
-89.412421
-105.0038
-124.02945
-153.25899
63.411765
-69.308197
-61.35937
-16.798406
22.819479
40.163666
58.799193
31.646757
-1.4227669
-97.036902
52.629075
-52.62184
63.441381
11.090124
-9.902059
-36.748484
9.8607164
17.43006
21.781735
-22.626598
44.189782
-5.1248892
14.916997
14.950168
-3.0833117
-39.508094
-16.182712
-0.75884716
-18.651452
-3.1666176
-26.23851
33.964278
-5.5702121
-2.0046765
5.1620218
-21.206614
-6.1847315
3.2112079
-40.160014
-20.794076
-42.533255
50.185389
-32.747487
-38.321488
-21.014836
-20.175513
-12.547122
-1.6896552
-22.267292
-26.289017
-71.405123
67.807179
13.792565
-14.877764
-5.9761638
-12.632041
-21.505756
-20.705054
35.766063
-69.736588
-98.715417
39.307893
21.860111
1.3597786
3.94998
-1.5983662
-20.771917
-76.725134
39.396144
-49.735428
-127.24335
3.3726199
26.752098
-14.691817
-37.516954
-20.73122
36.572602
39.833995
19.048579
-74.765347
-162.5714
-99.641656
-20.207569
2.4578182
-13.708918
-18.985524
-62.93583
-43.767732
-69.953364
-33.892869
1.8188443
27.934422
55.119696
33.452687
34.278987
29.510122
23.081213
38.285112
52.533672
30.890646
10.374586
4.4344257
-5.7665889
-3.3158087
-7.6717414
4.2644127
-7.18546
7.1339278
24.895149
12.728875
35.239676
-10.650456
20.565508
11.218037
18.569323
18.142823
3.8311992
10.796449
16.507259
0.34358587
16.83182
-8.8617008
9.6706093
-4.0474103
2.200499
20.461571
-2.8659635
0.23658101
18.874916
8.4321133
22.015198
-12.524637
16.759739
1.72251
11.650063
1.3571609
-4.5134132
16.549531
5.8637134
7.4878959
21.302025
0.37585961
16.437184
19.870031
1.2255098
19.347318
4.8573958
3.7141131
1.389542
18.030401
18.355898
-10.139477
2.2032521
-3.600053
-4.7693563
4.792484
-5.7785386
14.444534
10.230275
7.0896165
36.527728
5.2231549
9.1746072
-0.89978602
15.84137
3.2962957
14.195738
-13.436114
-8.107038
15.286573
53.193112
24.666985
15.380432
17.280678
4.1134804
-0.31891711
8.6646068
-9.3819232
16.035914
5.460619
31.233074
12.026948
-0.9183087
6.9550338
6.0220309
16.695092
5.9323095
14.405822
5.7148071
11.237102
15.711549
-2.35101
2.7684327
10.643625
-8.9575225
7.2910572
-5.001041
-3.0787237
14.295563
4.4607114
-3.3592379
23.42931
8.1779719
13.850712
5.0651777
3.6690376
-6.0411537
3.7374897
9.0573936
3.7311766
1.5880748
7.8714552
-0.99527251
-1.715757
-5.30192
1.7818965
6.587948
-6.1421371
-3.0868949
-3.6405557
9.664944
13.507571
-1.8215684
14.652274
-0.39095137
6.2077472
-1.2126885
-5.120419
11.87255
1.1206978
-9.6825848
4.7830355
-5.4095805
-0.41644224
5.2741581
3.8413483
-7.8121373
6.8619811
2.8598975
-0.83960251
6.772998
3.4604773
1.7195989
6.2093903
3.858046
-4.3785904
6.0465699
6.1265292
-4.9817615
4.59049
-5.3628927
-6.2131859
6.5770352
-1.1405658
-7.7165937
6.126137
-6.5914419
2.765363
-0.15309906
-5.1147444
-3.2614007
3.5557647
-6.1691555
-5.0106778
7.06478
6.3706338
2.9714353
1.5630449
-14.172545
8.8000975
14.62636
9.3244109
-2.8687471
12.031314
2.967581
-4.9124572
-0.14212488
-14.359215
-3.8866939
6.844375
4.7786442
3.8302931
-3.6441066
1.0584104
-0.92699087
4.4966958
-5.2364724
8.5179891
6.9188187
1.9039081
24.888736
6.3597282
14.865194
8.524215
13.259343
5.8501728
11.912737
4.7759197
2.9239478
-4.1158809
6.3245327
1.0057273
11.565187
-8.5226816
3.893041
0.80414428
7.9392713
6.7020438
0.27098575
10.950261
14.820596
11.546388
22.18508
7.6266885
19.543543
6.3238982
-1.4531073
-1.2445885
2.3631398
1.5494298
8.4971095
-8.5425119
7.6165881
10.219221
-0.69222796
-4.8915005
2.3878129
9.6946356
10.640617
2.2387755
13.245553
3.8775352
19.528416
-0.70133283
9.2915467
9.2602253
10.336815
10.777659
4.7156736
0.68093932
5.8375362
0.79544541
6.3072033
-4.91029
9.2446961
1.2070658
10.138625
4.1784739
-0.0086050542
6.6732653
11.879166
7.9284245
-1.4667556
2.3687511
10.311907
10.119446
-7.903153
6.9595471
7.8172759
1.3387488
4.6827034
6.6197215
-1.305838
9.6588949
10.765574
4.1921144
7.007779
19.063524
-5.0281848
7.0885038
2.8988037
0.27530773
2.3864601
10.66998
4.7453013
0.026499275
7.8758164
-5.0260566
-5.7220477
3.9735085
-4.0723425
10.97229
1.5613981
2.243852
0.68312069
6.6823181
1.3674479
7.0156304
3.9904722
2.6387363
-1.9475569
18.314101
16.680972
-1.5857936
7.5517465
12.68117
4.2681395
-0.74324979
15.8946
-11.33113
18.310381
5.1264093
-3.2528467
11.688129
-1.2924878
-4.0316592
-3.2281514
7.5675286
3.6940935
11.632001
16.677488
-3.2547303
23.40962
12.307434
4.9231666
11.07386
3.3077237
6.9084167
4.5591316
0.35016629
-1.5844097
11.686981
12.307511
9.7158276
0.71069293
5.7664775
0.84641553
6.4637618
8.7511355
4.2288687
7.5574484
-1.2925867
4.9238488
0.71163586
7.0807143
10.08826
6.9441262
13.08416
6.0108702
2.4622529
12.69228
-4.0281537
11.075741
5.7676468
10.088019
6.4977638
9.971024
7.6801495
6.3494765
6.8732325
4.284515
-3.2140726
3.3177015
0.85181889
6.942961
9.9644277
-4.0774515
13.872118
3.8451756
2.0647668
-0.74707312
7.5597835
6.8975918
6.453147
13.073647
7.6692258
13.873778
15.26243
-3.1774108
7.2771664
15.879681
3.6866283
4.5567364
8.7513196
6.0105352
6.3466513
3.8557826
-3.1671532
1.8374547
-2.3493347
-11.329207
11.63343
0.35112312
4.229134
2.4606631
6.8710985
2.0837796
7.2613893
-2.3462548
3.2709572
18.014791
12.399776
17.389097
8.9385145
8.8729824
2.2622744
6.5411042
3.6433252
15.418237
-15.575718
12.398427
8.0500817
12.282607
0.66383066
16.984586
9.1250134
-1.1306281
1.9615377
5.9939379
15.516111
17.387594
12.282333
22.735274
9.8872733
3.5952871
8.8974935
1.977998
4.0836587
7.2168918
3.0504327
8.9374375
0.66345554
9.8871915
1.6798203
6.7580472
5.1775886
1.9988812
5.4350632
14.149135
4.4138611
8.871609
16.983644
3.5948999
6.7580819
11.669625
16.037508
8.631511
15.890167
6.7209666
4.5053714
2.2612236
9.1230922
8.8961843
5.1771248
16.03759
10.292304
8.4019142
8.4859049
9.2297624
12.922947
6.5442386
-1.1278132
1.9810931
2.0020798
8.6340027
8.4022245
-4.3695695
11.189333
6.8720922
0.39081908
3.6466732
1.9631502
4.0837468
5.4347413
15.889705
8.4834343
11.1878
14.618496
9.5599654
2.6382364
15.41613
5.99253
7.2161616
14.149172
6.7212991
9.2273868
6.8710717
9.5635293
-17.009254
6.3207259
-15.575906
15.51607
3.0504668
4.4141533
4.5051735
12.91945
0.39681024
2.6354323
6.3211994
4.8064622
4.9292657
17.787845
18.56181
11.230223
6.287804
8.6069028
3.021259
-2.8275274
19.409783
-13.297217
17.787684
-5.9237221
12.8786
0.057088585
14.386488
3.4579919
8.2768237
5.6886815
11.657171
18.69723
18.561789
12.878549
16.565909
10.597325
9.2084021
12.103417
5.9310009
7.6290016
11.356978
1.3924995
11.23028
0.057211324
10.597386
7.6687531
7.4316236
6.6932046
3.8424632
5.2158791
16.166945
4.2830545
6.2878032
14.386654
9.2085095
7.4317016
17.534741
17.679469
7.2545754
18.926418
9.8618415
7.3079171
8.6062248
3.4572794
12.102708
6.6926097
17.679102
6.5754752
6.1312517
13.318113
11.066734
12.097456
3.0209499
8.2766725
5.9311229
3.8428336
7.2551916
6.131757
-0.052473772
10.898061
10.621207
2.4942484
-2.8266591
5.6892861
7.6292468
5.2159999
18.926792
13.318169
10.897702
16.373936
14.338777
5.7433309
19.409721
11.657062
11.356851
16.166952
9.8623651
11.066649
10.620132
14.339595
-11.962997
7.6827422
-13.297224
18.697219
1.392463
4.2832299
7.3084476
12.095884
2.4955931
5.7429771
7.6827769
2.4132636
0.48437239
15.923058
20.04286
-0.18060073
12.103864
3.1417134
3.6770836
1.3990737
19.12963
-13.668594
15.923033
0.5916562
12.177706
7.0713724
6.9562215
4.8337856
13.842767
6.3823575
11.447382
19.608573
20.042793
12.177652
14.214738
3.6722935
11.600635
11.484461
7.9507251
9.5488736
12.889066
-1.9749133
-0.18059067
7.0713907
3.6723054
9.3554354
3.6181636
3.8957175
4.0482413
9.4864885
15.481755
5.1599315
12.104025
6.9563779
11.600773
3.6182786
13.644173
16.041019
14.217588
22.551839
7.8759664
6.2133342
3.1417165
4.8337898
11.484411
3.8956042
16.040853
13.643446
9.5738984
10.664984
12.072269
9.4286835
3.6769149
13.84266
7.9506557
4.0482093
14.217602
9.5740056
-1.9984924
11.979406
16.670687
2.2693573
1.3992033
6.3824797
9.5489303
9.4864966
22.551894
10.665114