/*--------------------------------*- C++ -*----------------------------------*\
| =========                 |                                                 |
| \\      /  F ield         | OpenFOAM: The Open Source CFD Toolbox           |
|  \\    /   O peration     | Version:  v2106                                 |
|   \\  /    A nd           | Website:  www.openfoam.com                      |
|    \\/     M anipulation  |                                                 |
\*---------------------------------------------------------------------------*/
FoamFile
{
    version     2.0;
    format      ascii;
    arch        "LSB;label=32;scalar=64";
    class       volScalarField;
    location    "0";
    object      calFieldValue;
}
// * * * * * * * * * * * * * * * * * * * * * * * * * * * * * * * * * * * * * //

dimensions      [0 0 0 1 0 0 0];

internalField   nonuniform List<scalar> 
4000
(
270.69994
270.69995
270.69995
270.69993
270.69994
270.69994
270.69995
270.69995
270.69995
270.69995
270.69995
270.69996
270.69994
270.69993
270.69994
270.69995
270.69995
270.69995
270.69995
270.69995
270.69995
270.69994
270.69994
270.69993
270.69994
270.69995
270.69995
270.69995
270.69995
270.69995
270.69993
270.69993
270.69993
270.69992
270.69993
270.69994
270.69994
270.69994
270.69994
270.69994
270.69994
270.69994
270.69994
270.69993
270.69994
270.69994
270.69994
270.69994
270.69994
270.69994
270.69994
270.69995
270.69995
270.69994
270.69994
270.69995
270.69995
270.69994
270.69994
270.69994
270.69995
270.69995
270.69995
270.69994
270.69994
270.69995
270.69994
270.69994
270.69994
270.69994
270.69995
270.69995
270.69995
270.69994
270.69994
270.69994
270.69994
270.69994
270.69993
270.69993
270.69995
270.69995
270.69995
270.69994
270.69994
270.69994
270.69994
270.69993
270.69993
270.69993
270.69995
270.69995
270.69995
270.69994
270.69994
270.69994
270.69994
270.69993
270.69993
270.69994
271.28466
271.28467
271.28468
271.28463
271.28465
271.28465
271.28467
271.28469
271.28469
271.28469
271.28467
271.28468
271.28465
271.28463
271.28465
271.28466
271.28467
271.28467
271.28469
271.28468
271.28468
271.28465
271.28464
271.28463
271.28463
271.28465
271.28466
271.28466
271.28468
271.28468
271.28463
271.28463
271.28463
271.2846
271.28462
271.28463
271.28463
271.28463
271.28466
271.28466
271.28465
271.28465
271.28463
271.28462
271.28464
271.28465
271.28465
271.28464
271.28464
271.28466
271.28465
271.28466
271.28465
271.28463
271.28465
271.28465
271.28465
271.28464
271.28465
271.28465
271.28467
271.28467
271.28466
271.28463
271.28465
271.28465
271.28464
271.28465
271.28464
271.28464
271.28469
271.28467
271.28466
271.28463
271.28464
271.28464
271.28465
271.28464
271.28464
271.28465
271.28469
271.28469
271.28468
271.28466
271.28464
271.28465
271.28464
271.28464
271.28465
271.28465
271.28469
271.28468
271.28468
271.28466
271.28466
271.28465
271.28464
271.28465
271.28465
271.28466
271.85139
271.85138
271.85138
271.85133
271.85134
271.85138
271.85139
271.8514
271.8514
271.85141
271.85138
271.85139
271.85135
271.85133
271.85135
271.85138
271.85139
271.8514
271.85139
271.85141
271.85138
271.85135
271.85134
271.85131
271.85134
271.85135
271.85138
271.85138
271.85139
271.85139
271.85133
271.85133
271.85131
271.85129
271.85131
271.85133
271.85133
271.85135
271.85136
271.85136
271.85134
271.85135
271.85134
271.85131
271.85134
271.85135
271.85134
271.85135
271.85135
271.85135
271.85138
271.85138
271.85135
271.85133
271.85135
271.85135
271.85134
271.85134
271.85134
271.85135
271.85139
271.85139
271.85138
271.85133
271.85134
271.85134
271.85134
271.85133
271.85134
271.85133
271.8514
271.8514
271.85138
271.85135
271.85135
271.85134
271.85133
271.85133
271.85135
271.85135
271.8514
271.85139
271.85139
271.85136
271.85135
271.85134
271.85134
271.85135
271.85135
271.85135
271.85141
271.85141
271.85139
271.85136
271.85135
271.85135
271.85133
271.85135
271.85135
271.85137
272.38843
272.38841
272.3884
272.38834
272.38836
272.3884
272.38842
272.38843
272.38845
272.38846
272.38841
272.38842
272.38836
272.38833
272.38836
272.3884
272.38841
272.38842
272.38843
272.38843
272.3884
272.38836
272.38835
272.38831
272.38834
272.38837
272.38838
272.3884
272.38841
272.38842
272.38834
272.38833
272.38831
272.3883
272.38832
272.38834
272.38833
272.38836
272.38837
272.38839
272.38836
272.38836
272.38834
272.38832
272.38833
272.38834
272.38834
272.38835
272.38836
272.38837
272.3884
272.3884
272.38837
272.38834
272.38834
272.38834
272.38834
272.38834
272.38836
272.38835
272.38842
272.38841
272.38838
272.38833
272.38834
272.38834
272.38833
272.38833
272.38835
272.38834
272.38843
272.38842
272.3884
272.38836
272.38835
272.38834
272.38833
272.38833
272.38835
272.38835
272.38845
272.38843
272.38841
272.38837
272.38836
272.38836
272.38835
272.38835
272.38836
272.38837
272.38846
272.38843
272.38842
272.38839
272.38837
272.38835
272.38834
272.38835
272.38837
272.38837
272.88455
272.88453
272.88451
272.88445
272.88448
272.88452
272.88454
272.88455
272.88457
272.88459
272.88453
272.88452
272.88448
272.88443
272.88446
272.8845
272.88451
272.88454
272.88456
272.88455
272.88451
272.88448
272.88444
272.88442
272.88446
272.88449
272.88449
272.88452
272.88453
272.88454
272.88445
272.88443
272.88442
272.88439
272.88442
272.88443
272.88444
272.88446
272.88448
272.8845
272.88448
272.88446
272.88446
272.88442
272.88445
272.88445
272.88445
272.88446
272.88448
272.88447
272.88452
272.8845
272.88449
272.88443
272.88445
272.88445
272.88443
272.88443
272.88445
272.88445
272.88454
272.88451
272.88449
272.88444
272.88445
272.88443
272.88441
272.88441
272.88442
272.88443
272.88455
272.88454
272.88452
272.88446
272.88446
272.88443
272.88441
272.88443
272.88443
272.88445
272.88457
272.88456
272.88453
272.88448
272.88448
272.88445
272.88442
272.88443
272.88446
272.88448
272.88459
272.88455
272.88454
272.8845
272.88447
272.88445
272.88443
272.88445
272.88448
272.88448
273.32924
273.32922
273.3292
273.32913
273.32916
273.3292
273.32922
273.32924
273.32925
273.32927
273.32922
273.32923
273.32916
273.32911
273.32915
273.32918
273.32921
273.32922
273.32924
273.32924
273.3292
273.32916
273.32913
273.3291
273.32914
273.32916
273.32916
273.3292
273.32922
273.32921
273.32913
273.32911
273.3291
273.32906
273.32909
273.3291
273.3291
273.32912
273.32916
273.32918
273.32916
273.32915
273.32914
273.32909
273.32911
273.32912
273.3291
273.32911
273.32913
273.32914
273.3292
273.32918
273.32916
273.3291
273.32912
273.32911
273.32909
273.32909
273.3291
273.32911
273.32922
273.32921
273.32916
273.3291
273.3291
273.32909
273.32906
273.32905
273.32909
273.32908
273.32924
273.32922
273.3292
273.32912
273.32911
273.32909
273.32905
273.32907
273.3291
273.32912
273.32925
273.32924
273.32922
273.32916
273.32913
273.3291
273.32909
273.3291
273.32913
273.32914
273.32927
273.32924
273.32921
273.32918
273.32914
273.32911
273.32908
273.32912
273.32914
273.32915
273.71288
273.71286
273.71284
273.71276
273.71279
273.71282
273.71284
273.71287
273.71288
273.71292
273.71286
273.71285
273.7128
273.71274
273.71278
273.71282
273.71282
273.71285
273.71286
273.71287
273.71284
273.7128
273.71276
273.71272
273.71275
273.71277
273.71278
273.71281
273.71284
273.71285
273.71276
273.71274
273.71272
273.71267
273.71271
273.71272
273.7127
273.71273
273.71276
273.71278
273.71279
273.71278
273.71275
273.71271
273.71273
273.71271
273.7127
273.7127
273.71274
273.71275
273.71282
273.71282
273.71277
273.71272
273.71271
273.7127
273.71268
273.71269
273.7127
273.7127
273.71284
273.71282
273.71278
273.7127
273.7127
273.71268
273.71264
273.71264
273.71267
273.71268
273.71287
273.71285
273.71281
273.71273
273.7127
273.71269
273.71264
273.71265
273.71268
273.71271
273.71288
273.71286
273.71284
273.71276
273.71274
273.7127
273.71267
273.71268
273.71274
273.71273
273.71292
273.71287
273.71285
273.71278
273.71275
273.7127
273.71268
273.71271
273.71273
273.71275
274.02697
274.02694
274.02693
274.02682
274.02685
274.02689
274.02691
274.02693
274.02695
274.02699
274.02694
274.02694
274.02688
274.02682
274.02686
274.02688
274.02688
274.02693
274.02693
274.02694
274.02693
274.02688
274.02684
274.02679
274.02682
274.02684
274.02684
274.02687
274.02691
274.0269
274.02682
274.02682
274.02679
274.02674
274.02676
274.02677
274.02675
274.02679
274.02682
274.02684
274.02685
274.02686
274.02682
274.02676
274.02679
274.02676
274.02673
274.02675
274.02679
274.02679
274.02689
274.02688
274.02684
274.02677
274.02676
274.02674
274.02669
274.0267
274.02673
274.02673
274.02691
274.02688
274.02684
274.02675
274.02673
274.02669
274.02665
274.02667
274.02668
274.0267
274.02693
274.02693
274.02687
274.02679
274.02675
274.0267
274.02667
274.02668
274.02672
274.02675
274.02695
274.02693
274.02691
274.02682
274.02679
274.02673
274.02668
274.02672
274.02676
274.02677
274.02699
274.02694
274.0269
274.02684
274.02679
274.02673
274.0267
274.02675
274.02677
274.02679
274.26439
274.26435
274.26433
274.26422
274.26426
274.26429
274.26431
274.26432
274.26434
274.26439
274.26435
274.26436
274.26428
274.2642
274.26424
274.26427
274.26427
274.26431
274.26432
274.26432
274.26433
274.26428
274.26423
274.26417
274.26421
274.26423
274.26422
274.26427
274.2643
274.26429
274.26422
274.2642
274.26417
274.26412
274.26415
274.26414
274.26411
274.26415
274.26419
274.2642
274.26426
274.26424
274.26421
274.26415
274.26416
274.26414
274.26409
274.26411
274.26414
274.26414
274.26429
274.26427
274.26423
274.26414
274.26414
274.2641
274.26406
274.26406
274.26408
274.26408
274.26431
274.26427
274.26422
274.26411
274.26409
274.26406
274.26399
274.26401
274.26402
274.26405
274.26432
274.26431
274.26427
274.26415
274.26411
274.26406
274.26401
274.26402
274.26407
274.2641
274.26434
274.26432
274.2643
274.26419
274.26414
274.26408
274.26402
274.26407
274.26413
274.26413
274.26439
274.26432
274.26429
274.2642
274.26414
274.26408
274.26405
274.2641
274.26413
274.26414
274.41965
274.41961
274.4196
274.41948
274.41951
274.41954
274.41955
274.41956
274.41959
274.41963
274.41961
274.41963
274.41954
274.41946
274.4195
274.41951
274.41952
274.41955
274.41956
274.41957
274.4196
274.41954
274.41949
274.41943
274.41946
274.41947
274.41944
274.41949
274.41953
274.41953
274.41948
274.41946
274.41943
274.41936
274.41938
274.41936
274.41933
274.41936
274.41941
274.41943
274.41951
274.4195
274.41946
274.41938
274.41939
274.41936
274.41931
274.41932
274.41935
274.41936
274.41954
274.41951
274.41947
274.41936
274.41936
274.41932
274.41925
274.41926
274.41928
274.41929
274.41955
274.41952
274.41944
274.41933
274.41931
274.41925
274.41918
274.41919
274.41922
274.41924
274.41956
274.41955
274.41949
274.41936
274.41932
274.41926
274.41919
274.41921
274.41926
274.4193
274.41959
274.41956
274.41953
274.41941
274.41935
274.41928
274.41922
274.41926
274.41933
274.41934
274.41963
274.41957
274.41953
274.41943
274.41936
274.41929
274.41924
274.4193
274.41934
274.41934
274.48923
274.4892
274.48918
274.48903
274.48907
274.4891
274.4891
274.48912
274.48914
274.48919
274.4892
274.48919
274.4891
274.48903
274.48906
274.48907
274.48907
274.48909
274.4891
274.4891
274.48918
274.4891
274.48905
274.48899
274.48902
274.48901
274.48898
274.48903
274.48907
274.48906
274.48903
274.48903
274.48899
274.48891
274.48893
274.4889
274.48887
274.4889
274.48895
274.48897
274.48907
274.48906
274.48902
274.48893
274.48894
274.48889
274.48883
274.48885
274.48888
274.48888
274.4891
274.48907
274.48901
274.4889
274.48889
274.48884
274.48876
274.48877
274.48879
274.4888
274.4891
274.48907
274.48898
274.48887
274.48883
274.48876
274.48868
274.48868
274.48873
274.48875
274.48912
274.48909
274.48903
274.4889
274.48885
274.48877
274.48868
274.48871
274.48877
274.48882
274.48914
274.4891
274.48907
274.48895
274.48888
274.48879
274.48873
274.48877
274.48885
274.48885
274.48919
274.4891
274.48906
274.48897
274.48888
274.4888
274.48875
274.48882
274.48885
274.48886
274.47181
274.47176
274.47173
274.47159
274.47162
274.47164
274.47165
274.47167
274.47168
274.47173
274.47176
274.47177
274.47167
274.47157
274.47161
274.47163
274.47162
274.47164
274.47166
274.47165
274.47173
274.47167
274.47161
274.47153
274.47156
274.47155
274.47152
274.47158
274.47162
274.47161
274.47159
274.47157
274.47153
274.47145
274.47148
274.47144
274.47139
274.47142
274.47147
274.4715
274.47162
274.47161
274.47156
274.47148
274.47148
274.47142
274.47134
274.47136
274.4714
274.4714
274.47164
274.47163
274.47155
274.47144
274.47142
274.47136
274.47128
274.47128
274.47131
274.47131
274.47165
274.47162
274.47152
274.47139
274.47134
274.47128
274.47117
274.47119
274.47123
274.47124
274.47167
274.47164
274.47158
274.47142
274.47136
274.47128
274.47119
274.47121
274.47128
274.47133
274.47168
274.47166
274.47162
274.47147
274.4714
274.47131
274.47123
274.47128
274.47136
274.47136
274.47173
274.47165
274.47161
274.4715
274.4714
274.47131
274.47124
274.47133
274.47136
274.47137
274.3686
274.36855
274.36852
274.36837
274.36839
274.36842
274.3684
274.36841
274.36844
274.3685
274.36855
274.36856
274.36845
274.36835
274.36838
274.36839
274.36837
274.36839
274.3684
274.36841
274.36852
274.36845
274.36839
274.3683
274.36833
274.36831
274.36828
274.36832
274.36836
274.36836
274.36837
274.36835
274.3683
274.36821
274.36823
274.36819
274.36813
274.36816
274.36823
274.36824
274.36839
274.36838
274.36833
274.36823
274.36823
274.36818
274.36808
274.3681
274.36813
274.36815
274.36842
274.36839
274.36831
274.36819
274.36818
274.3681
274.36801
274.36799
274.36803
274.36804
274.3684
274.36837
274.36828
274.36813
274.36808
274.36801
274.3679
274.36789
274.36794
274.36796
274.36841
274.36839
274.36832
274.36816
274.3681
274.36799
274.36789
274.36793
274.368
274.36805
274.36844
274.3684
274.36836
274.36823
274.36813
274.36803
274.36794
274.368
274.36809
274.36809
274.3685
274.36841
274.36836
274.36824
274.36815
274.36804
274.36796
274.36805
274.36809
274.36812
274.18367
274.18363
274.1836
274.18343
274.18346
274.18347
274.18345
274.18346
274.18348
274.18354
274.18363
274.18362
274.18351
274.18341
274.18344
274.18345
274.18341
274.18343
274.18345
274.18345
274.1836
274.18351
274.18344
274.18335
274.18339
274.18336
274.18332
274.18335
274.18341
274.18339
274.18343
274.18341
274.18335
274.18327
274.18328
274.18323
274.18315
274.18319
274.18325
274.18326
274.18346
274.18344
274.18339
274.18328
274.18328
274.18321
274.1831
274.18312
274.18316
274.18317
274.18347
274.18345
274.18336
274.18323
274.18321
274.18312
274.18301
274.18301
274.18304
274.18305
274.18345
274.18341
274.18332
274.18315
274.1831
274.18301
274.18289
274.18289
274.18294
274.18298
274.18346
274.18343
274.18335
274.18319
274.18312
274.18301
274.18289
274.18292
274.183
274.18306
274.18348
274.18345
274.18341
274.18325
274.18316
274.18304
274.18294
274.183
274.18309
274.18309
274.18354
274.18345
274.18339
274.18326
274.18317
274.18305
274.18298
274.18306
274.18309
274.18312
273.92424
273.92417
273.92416
273.92397
273.92401
273.92401
273.92399
273.924
273.92402
273.92409
273.92417
273.92419
273.92407
273.92395
273.92399
273.92399
273.92395
273.92398
273.92398
273.92398
273.92416
273.92407
273.924
273.9239
273.92393
273.9239
273.92385
273.92389
273.92393
273.92392
273.92397
273.92395
273.9239
273.92381
273.92382
273.92376
273.92368
273.92371
273.92378
273.92378
273.92401
273.92399
273.92393
273.92382
273.92381
273.92373
273.92362
273.92364
273.92368
273.92368
273.92401
273.92399
273.9239
273.92376
273.92373
273.92365
273.92352
273.92351
273.92354
273.92354
273.92399
273.92395
273.92385
273.92368
273.92362
273.92352
273.9234
273.9234
273.92345
273.92346
273.924
273.92398
273.92389
273.92371
273.92364
273.92351
273.9234
273.92341
273.9235
273.92356
273.92402
273.92398
273.92393
273.92378
273.92368
273.92354
273.92345
273.9235
273.9236
273.92359
273.92409
273.92398
273.92392
273.92378
273.92368
273.92354
273.92346
273.92356
273.92359
273.92362
273.6009
273.60083
273.60082
273.60062
273.60065
273.60067
273.60064
273.60065
273.60066
273.60073
273.60083
273.60085
273.60072
273.6006
273.60064
273.60063
273.60059
273.6006
273.60061
273.6006
273.60082
273.60072
273.60065
273.60055
273.60057
273.60055
273.60049
273.60053
273.60056
273.60055
273.60062
273.6006
273.60055
273.60045
273.60046
273.6004
273.60031
273.60034
273.6004
273.6004
273.60065
273.60064
273.60057
273.60046
273.60044
273.60037
273.60025
273.60025
273.60029
273.60029
273.60067
273.60063
273.60055
273.6004
273.60037
273.60027
273.60013
273.60012
273.60016
273.60016
273.60064
273.60059
273.60049
273.60031
273.60025
273.60013
273.6
273.59999
273.60004
273.60007
273.60065
273.6006
273.60053
273.60034
273.60025
273.60012
273.59999
273.60001
273.60011
273.60017
273.60066
273.60061
273.60056
273.6004
273.60029
273.60016
273.60004
273.60011
273.60021
273.6002
273.60073
273.6006
273.60055
273.6004
273.60029
273.60016
273.60007
273.60017
273.6002
273.60023
273.22787
273.22782
273.22778
273.22759
273.22762
273.22763
273.22759
273.2276
273.22761
273.22767
273.22782
273.22781
273.2277
273.22757
273.22761
273.22759
273.22755
273.22757
273.22757
273.22756
273.22778
273.2277
273.22763
273.22752
273.22754
273.22751
273.22743
273.22747
273.22752
273.22751
273.22759
273.22757
273.22752
273.22742
273.22742
273.22735
273.22726
273.22729
273.22735
273.22735
273.22762
273.22761
273.22754
273.22742
273.22742
273.22732
273.2272
273.2272
273.22723
273.22723
273.22763
273.22759
273.22751
273.22735
273.22732
273.22721
273.22707
273.22707
273.22709
273.22709
273.22759
273.22755
273.22743
273.22726
273.2272
273.22707
273.22693
273.22693
273.22697
273.22699
273.2276
273.22757
273.22747
273.22729
273.2272
273.22707
273.22693
273.22695
273.22702
273.22711
273.22761
273.22757
273.22752
273.22735
273.22723
273.22709
273.22697
273.22702
273.22715
273.22714
273.22767
273.22756
273.22751
273.22735
273.22723
273.22709
273.22699
273.22711
273.22714
273.22717
272.82311
272.82306
272.82303
272.82283
272.82286
272.82286
272.82281
272.82281
272.82284
272.8229
272.82306
272.82306
272.82294
272.8228
272.82284
272.82282
272.82276
272.82278
272.82278
272.82278
272.82303
272.82294
272.82287
272.82275
272.82278
272.82273
272.82265
272.8227
272.82274
272.82271
272.82283
272.8228
272.82275
272.82265
272.82265
272.82257
272.82248
272.82249
272.82255
272.82257
272.82286
272.82284
272.82278
272.82265
272.82265
272.82255
272.8224
272.82241
272.82244
272.82244
272.82286
272.82282
272.82273
272.82257
272.82255
272.82243
272.82228
272.82227
272.82229
272.82229
272.82281
272.82276
272.82265
272.82248
272.8224
272.82228
272.82212
272.82212
272.82216
272.82219
272.82281
272.82278
272.8227
272.82249
272.82241
272.82227
272.82212
272.82213
272.82223
272.8223
272.82284
272.82278
272.82274
272.82255
272.82244
272.82229
272.82216
272.82223
272.82234
272.82233
272.8229
272.82278
272.82271
272.82257
272.82244
272.82229
272.82219
272.8223
272.82233
272.82236
272.40823
272.40818
272.40814
272.40794
272.40797
272.40796
272.40792
272.40792
272.40792
272.40799
272.40818
272.40817
272.40804
272.40792
272.40795
272.40792
272.40788
272.40789
272.40789
272.40787
272.40814
272.40804
272.40798
272.40787
272.40788
272.40784
272.40775
272.40779
272.40783
272.40781
272.40794
272.40792
272.40787
272.40776
272.40776
272.40769
272.40757
272.40759
272.40765
272.40766
272.40797
272.40795
272.40788
272.40776
272.40774
272.40764
272.4075
272.40749
272.40753
272.40753
272.40796
272.40792
272.40784
272.40769
272.40764
272.40753
272.40737
272.40735
272.40737
272.40737
272.40792
272.40788
272.40775
272.40757
272.4075
272.40737
272.40719
272.40719
272.40723
272.40726
272.40792
272.40789
272.40779
272.40759
272.40749
272.40735
272.40719
272.4072
272.4073
272.40737
272.40792
272.40789
272.40783
272.40765
272.40753
272.40737
272.40723
272.4073
272.40741
272.40741
272.40799
272.40787
272.40781
272.40766
272.40753
272.40737
272.40726
272.40737
272.40741
272.40744
272.00826
272.00821
272.00818
272.00797
272.008
272.008
272.00794
272.00794
272.00795
272.00801
272.00821
272.00821
272.00809
272.00795
272.00799
272.00796
272.00789
272.00791
272.00791
272.00789
272.00818
272.00809
272.00802
272.00791
272.00793
272.00787
272.00779
272.00781
272.00785
272.00783
272.00797
272.00795
272.00791
272.00779
272.0078
272.00772
272.00759
272.00761
272.00767
272.00768
272.008
272.00799
272.00793
272.0078
272.00779
272.00768
272.00752
272.00752
272.00755
272.00754
272.008
272.00796
272.00787
272.00772
272.00768
272.00756
272.00738
272.00736
272.0074
272.00739
272.00794
272.00789
272.00779
272.00759
272.00752
272.00738
272.00722
272.00719
272.00724
272.00727
272.00794
272.00791
272.00781
272.00761
272.00752
272.00736
272.00719
272.00721
272.00731
272.00738
272.00795
272.00791
272.00785
272.00767
272.00755
272.0074
272.00724
272.00731
272.00742
272.00741
272.00801
272.00789
272.00783
272.00768
272.00754
272.00739
272.00727
272.00738
272.00741
272.00744
271.65118
271.65113
271.65109
271.65088
271.65091
271.65091
271.65086
271.65084
271.65085
271.65092
271.65113
271.65113
271.65101
271.65087
271.65092
271.65087
271.65081
271.65081
271.6508
271.65079
271.65109
271.65101
271.65093
271.65083
271.65085
271.65078
271.65068
271.65072
271.65076
271.65074
271.65088
271.65087
271.65083
271.65072
271.65071
271.65063
271.6505
271.65052
271.65057
271.65058
271.65091
271.65092
271.65085
271.65071
271.65072
271.6506
271.65043
271.65041
271.65045
271.65044
271.65091
271.65087
271.65078
271.65063
271.6506
271.65047
271.65028
271.65026
271.65029
271.65027
271.65086
271.65081
271.65068
271.6505
271.65043
271.65028
271.65009
271.65008
271.65013
271.65016
271.65084
271.65081
271.65072
271.65052
271.65041
271.65026
271.65008
271.6501
271.65019
271.65027
271.65085
271.6508
271.65076
271.65057
271.65045
271.65029
271.65013
271.65019
271.65031
271.65029
271.65092
271.65079
271.65074
271.65058
271.65044
271.65027
271.65016
271.65027
271.65029
271.65032
271.36687
271.36682
271.36679
271.36657
271.36662
271.3666
271.36654
271.36653
271.36652
271.36659
271.36682
271.36682
271.3667
271.36658
271.36661
271.36657
271.36649
271.3665
271.36649
271.36646
271.36679
271.3667
271.36663
271.36653
271.36654
271.36648
271.36638
271.3664
271.36645
271.36641
271.36657
271.36658
271.36653
271.36642
271.36643
271.36633
271.36618
271.36619
271.36626
271.36627
271.36662
271.36661
271.36654
271.36643
271.36641
271.3663
271.36613
271.3661
271.36613
271.36612
271.3666
271.36657
271.36648
271.36633
271.3663
271.36617
271.36597
271.36594
271.36597
271.36595
271.36654
271.36649
271.36638
271.36618
271.36613
271.36597
271.36578
271.36575
271.3658
271.36582
271.36653
271.3665
271.3664
271.36619
271.3661
271.36594
271.36575
271.36577
271.36586
271.36594
271.36652
271.36649
271.36645
271.36626
271.36613
271.36597
271.3658
271.36586
271.36597
271.36597
271.36659
271.36646
271.36641
271.36627
271.36612
271.36595
271.36582
271.36594
271.36597
271.36598
271.18578
271.18573
271.18571
271.1855
271.18552
271.18551
271.18544
271.18543
271.18543
271.18549
271.18573
271.18575
271.18561
271.18549
271.18553
271.18549
271.18539
271.18541
271.18539
271.18536
271.18571
271.18561
271.18556
271.18545
271.18546
271.1854
271.18529
271.18532
271.18535
271.18532
271.1855
271.18549
271.18545
271.18534
271.18535
271.18525
271.18509
271.18511
271.18516
271.18517
271.18552
271.18553
271.18546
271.18535
271.18533
271.18521
271.18503
271.18502
271.18503
271.18502
271.18551
271.18549
271.1854
271.18525
271.18521
271.18508
271.18487
271.18484
271.18486
271.18484
271.18544
271.18539
271.18529
271.18509
271.18503
271.18487
271.18468
271.18465
271.18468
271.18471
271.18543
271.18541
271.18532
271.18511
271.18502
271.18484
271.18465
271.18465
271.18474
271.18482
271.18543
271.18539
271.18535
271.18516
271.18503
271.18486
271.18468
271.18474
271.18487
271.18485
271.18549
271.18536
271.18532
271.18517
271.18502
271.18484
271.18471
271.18482
271.18485
271.18488
271.13679
271.13674
271.13671
271.13649
271.13654
271.13652
271.13644
271.13641
271.13642
271.13648
271.13674
271.13674
271.13663
271.13651
271.13653
271.1365
271.13639
271.1364
271.13638
271.13635
271.13671
271.13663
271.13656
271.13645
271.13648
271.13641
271.13629
271.1363
271.13633
271.1363
271.13649
271.13651
271.13645
271.13636
271.13636
271.13625
271.13609
271.13611
271.13616
271.13616
271.13654
271.13653
271.13648
271.13636
271.13634
271.13622
271.13603
271.13601
271.13603
271.13601
271.13652
271.1365
271.13641
271.13625
271.13622
271.13607
271.13586
271.13583
271.13585
271.13582
271.13644
271.13639
271.13629
271.13609
271.13603
271.13586
271.13566
271.13564
271.13566
271.13569
271.13641
271.1364
271.1363
271.13611
271.13601
271.13583
271.13564
271.13563
271.13572
271.1358
271.13642
271.13638
271.13633
271.13616
271.13603
271.13585
271.13566
271.13572
271.13585
271.13583
271.13648
271.13635
271.1363
271.13616
271.13601
271.13582
271.13569
271.1358
271.13583
271.13585
271.24429
271.24424
271.24422
271.24401
271.24405
271.24403
271.24394
271.24391
271.24391
271.24398
271.24424
271.24424
271.24413
271.24401
271.24405
271.24399
271.24389
271.24388
271.24386
271.24384
271.24422
271.24413
271.24408
271.24397
271.24399
271.24391
271.24379
271.2438
271.24382
271.24379
271.24401
271.24401
271.24397
271.24386
271.24387
271.24376
271.24359
271.24361
271.24365
271.24365
271.24405
271.24405
271.24399
271.24387
271.24385
271.24372
271.24353
271.24351
271.24352
271.2435
271.24403
271.24399
271.24391
271.24376
271.24372
271.24357
271.24337
271.24332
271.24334
271.24331
271.24394
271.24389
271.24379
271.24359
271.24353
271.24337
271.24315
271.24312
271.24315
271.24317
271.24391
271.24388
271.2438
271.24361
271.24351
271.24332
271.24312
271.24311
271.2432
271.24328
271.24391
271.24386
271.24382
271.24365
271.24352
271.24334
271.24315
271.2432
271.24332
271.24331
271.24398
271.24384
271.24379
271.24365
271.2435
271.24331
271.24317
271.24328
271.24331
271.24332
271.52447
271.52442
271.52438
271.52419
271.52423
271.52419
271.52411
271.52406
271.52407
271.52413
271.52442
271.52442
271.52431
271.52419
271.52422
271.52417
271.52405
271.52406
271.52403
271.524
271.52438
271.52431
271.52426
271.52415
271.52417
271.52408
271.52395
271.52397
271.524
271.52395
271.52419
271.52419
271.52415
271.52406
271.52405
271.52393
271.52376
271.52377
271.52381
271.52381
271.52423
271.52422
271.52417
271.52405
271.52403
271.5239
271.5237
271.52366
271.52369
271.52367
271.52419
271.52417
271.52408
271.52393
271.5239
271.52375
271.52353
271.52349
271.52349
271.52346
271.52411
271.52405
271.52395
271.52376
271.5237
271.52353
271.52332
271.52327
271.5233
271.52332
271.52406
271.52406
271.52397
271.52377
271.52366
271.52349
271.52327
271.52328
271.52335
271.52343
271.52407
271.52403
271.524
271.52381
271.52369
271.52349
271.5233
271.52335
271.52349
271.52346
271.52413
271.524
271.52395
271.52381
271.52367
271.52346
271.52332
271.52343
271.52346
271.52347
271.98043
271.98039
271.98036
271.98016
271.98019
271.98015
271.98005
271.98003
271.98001
271.9801
271.98039
271.9804
271.98027
271.98017
271.9802
271.98012
271.98002
271.98
271.97998
271.97996
271.98036
271.98027
271.98022
271.98013
271.98014
271.98005
271.97991
271.97991
271.97994
271.97991
271.98016
271.98017
271.98013
271.98002
271.98002
271.97989
271.97971
271.97971
271.97977
271.97975
271.98019
271.9802
271.98014
271.98002
271.98
271.97985
271.97965
271.97962
271.97964
271.97961
271.98015
271.98012
271.98005
271.97989
271.97985
271.97969
271.97948
271.97943
271.97945
271.97942
271.98005
271.98002
271.97991
271.97971
271.97965
271.97948
271.97925
271.97922
271.97925
271.97926
271.98003
271.98
271.97991
271.97971
271.97962
271.97943
271.97922
271.97922
271.97929
271.97937
271.98001
271.97998
271.97994
271.97977
271.97964
271.97945
271.97925
271.97929
271.97943
271.9794
271.9801
271.97996
271.97991
271.97975
271.97961
271.97942
271.97926
271.97937
271.9794
271.97941
272.59652
272.59648
272.59645
272.59627
272.5963
272.59625
272.59614
272.5961
272.5961
272.59617
272.59648
272.59649
272.59638
272.59627
272.59629
272.59622
272.59609
272.59609
272.59607
272.59604
272.59645
272.59638
272.59634
272.59623
272.59625
272.59612
272.59598
272.596
272.59603
272.59599
272.59627
272.59627
272.59623
272.59613
272.59613
272.59599
272.5958
272.5958
272.59585
272.59585
272.5963
272.59629
272.59625
272.59613
272.5961
272.59594
272.59574
272.5957
272.59573
272.59569
272.59625
272.59622
272.59612
272.59599
272.59594
272.59577
272.59555
272.59552
272.59552
272.5955
272.59614
272.59609
272.59598
272.5958
272.59574
272.59555
272.59534
272.5953
272.59533
272.59536
272.5961
272.59609
272.596
272.5958
272.5957
272.59552
272.5953
272.59529
272.59539
272.59548
272.5961
272.59607
272.59603
272.59585
272.59573
272.59552
272.59533
272.59539
272.59551
272.59548
272.59617
272.59604
272.59599
272.59585
272.59569
272.5955
272.59536
272.59548
272.59548
272.5955
273.33198
273.33193
273.33191
273.33172
273.33174
273.33167
273.33158
273.33154
273.33153
273.3316
273.33193
273.33193
273.33182
273.33173
273.33174
273.33164
273.33153
273.33151
273.33149
273.33146
273.33191
273.33182
273.33178
273.33169
273.33168
273.33157
273.33142
273.33143
273.33146
273.33143
273.33172
273.33173
273.33169
273.33159
273.33156
273.33143
273.33125
273.33125
273.33128
273.33128
273.33174
273.33174
273.33168
273.33156
273.33154
273.33139
273.33119
273.33115
273.33117
273.33115
273.33167
273.33164
273.33157
273.33143
273.33139
273.33122
273.331
273.33095
273.33096
273.33095
273.33158
273.33153
273.33142
273.33125
273.33119
273.331
273.33078
273.33074
273.33078
273.33079
273.33154
273.33151
273.33143
273.33125
273.33115
273.33095
273.33074
273.33074
273.33082
273.33091
273.33153
273.33149
273.33146
273.33128
273.33117
273.33096
273.33078
273.33082
273.33094
273.33092
273.3316
273.33146
273.33143
273.33128
273.33115
273.33095
273.33079
273.33091
273.33092
273.33095
274.11461
274.11457
274.11455
274.11437
274.1144
274.11433
274.11421
274.11417
274.11417
274.11424
274.11457
274.11458
274.11448
274.1144
274.1144
274.11429
274.11418
274.11416
274.11413
274.11411
274.11455
274.11448
274.11444
274.11435
274.11434
274.11422
274.11407
274.11408
274.11411
274.11407
274.11437
274.1144
274.11435
274.11424
274.11423
274.11408
274.11391
274.1139