/*--------------------------------*- C++ -*----------------------------------*\
| =========                 |                                                 |
| \\      /  F ield         | OpenFOAM: The Open Source CFD Toolbox           |
|  \\    /   O peration     | Version:  v2106                                 |
|   \\  /    A nd           | Website:  www.openfoam.com                      |
|    \\/     M anipulation  |                                                 |
\*---------------------------------------------------------------------------*/
FoamFile
{
    version     2.0;
    format      ascii;
    arch        "LSB;label=32;scalar=64";
    class       volVectorField;
    location    "40";
    object      flux;
}
// * * * * * * * * * * * * * * * * * * * * * * * * * * * * * * * * * * * * * //

dimensions      [0 1 -1 1 0 0 0];

internalField   nonuniform List<vector> 
30000
(
(2.0412524e-07 0.00056529547 12.130159)
(1.1688617e-06 0.00056524491 12.130159)
(1.1624306e-06 0.00056493287 12.130161)
(2.9402893e-06 0.00056596928 12.130163)
(4.0565956e-06 0.00056505889 12.130172)
(1.9774625e-06 0.00056525237 12.130178)
(3.676865e-06 0.00056640817 12.130183)
(3.8922806e-06 0.00056563719 12.130192)
(-1.3946411e-06 0.00056488964 12.130195)
(-1.4476374e-06 0.00056588459 12.13019)
(1.5356179e-07 0.0025402052 12.133552)
(6.2495225e-07 0.0025396554 12.133553)
(2.2489808e-06 0.0025401506 12.133554)
(3.1293253e-06 0.002540671 12.13356)
(2.9812421e-06 0.002539191 12.133566)
(4.0013727e-06 0.00254127 12.133572)
(4.2540818e-06 0.0025416969 12.133581)
(1.6144924e-06 0.0025400637 12.133589)
(-1.0235322e-06 0.0025406906 12.133588)
(-4.5268502e-07 0.0025414985 12.133586)
(-1.6241235e-07 0.0042197947 12.140325)
(1.1142502e-06 0.0042207434 12.140325)
(2.1780054e-06 0.0042205942 12.140328)
(1.9806956e-06 0.0042189316 12.140333)
(4.655581e-06 0.0042210226 12.140338)
(4.4833639e-06 0.004221045 12.14035)
(2.470568e-06 0.0042195402 12.140355)
(2.8859748e-06 0.0042197037 12.14036)
(4.0164635e-08 0.0042200174 12.140365)
(-9.0905606e-07 0.0042193838 12.140361)
(7.8604032e-07 0.0058812161 12.150444)
(1.4244611e-06 0.0058810101 12.150447)
(4.3722672e-07 0.0058796699 12.150449)
(3.5577536e-06 0.0058812022 12.150451)
(5.0946024e-06 0.0058817908 12.150463)
(2.5189951e-06 0.0058801642 12.15047)
(2.9127557e-06 0.0058805373 12.150474)
(2.0916218e-06 0.0058797627 12.150481)
(-1.3433853e-06 0.0058785247 12.150482)
(-8.7504769e-07 0.0058794626 12.150479)
(-2.9974771e-07 0.0075138842 12.163868)
(-4.3201822e-07 0.0075122988 12.163867)
(2.3700551e-06 0.0075137799 12.163868)
(4.1015668e-06 0.0075141449 12.163876)
(3.6175662e-06 0.0075125735 12.163883)
(3.229918e-06 0.0075132735 12.16389)
(2.0690564e-06 0.007513044 12.163897)
(8.7341263e-07 0.0075124656 12.1639)
(-2.598761e-07 0.0075134207 12.163901)
(-2.8379944e-07 0.0075143485 12.163901)
(-2.7090678e-07 0.0091068162 12.180523)
(1.3201278e-06 0.0091084647 12.180522)
(2.2832729e-06 0.0091088187 12.180528)
(2.3513369e-06 0.0091069142 12.180531)
(4.2232476e-06 0.0091074697 12.180538)
(2.9894917e-06 0.0091068972 12.180547)
(2.1048083e-06 0.0091065205 12.180551)
(2.4683316e-06 0.0091079673 12.180557)
(5.3958985e-07 0.0091095743 12.180562)
(-2.5648636e-07 0.0091101856 12.180562)
(7.9924528e-07 0.010657433 12.20033)
(1.5705402e-06 0.010657837 12.200333)
(8.195537e-07 0.010655858 12.200335)
(2.75254e-06 0.01065674 12.200337)
(3.6006468e-06 0.010656082 12.200345)
(2.280669e-06 0.010655244 12.200351)
(3.1390731e-06 0.010655938 12.200356)
(3.9273102e-06 0.010657027 12.200365)
(1.958422e-06 0.010658346 12.200372)
(1.2366949e-07 0.010658589 12.200374)
(-1.6719549e-09 0.012149582 12.223191)
(-2.5516741e-07 0.012147359 12.223192)
(1.1865704e-06 0.012148031 12.223191)
(2.5753026e-06 0.012147714 12.223196)
(2.7267888e-06 0.012147115 12.223201)
(2.8462302e-06 0.012147966 12.223208)
(3.8883864e-06 0.01214863 12.223215)
(4.8755358e-06 0.012149511 12.223225)
(2.1013521e-06 0.012149569 12.223234)
(-9.4207593e-08 0.012149957 12.223236)
(-6.8250055e-07 0.013567294 12.248972)
(2.008683e-08 0.013568144 12.248968)
(1.1746712e-06 0.013568012 12.248971)
(1.836078e-06 0.013566975 12.248973)
(3.8520187e-06 0.013568087 12.24898)
(3.7955493e-06 0.013569074 12.248989)
(4.6840909e-06 0.013570015 12.248997)
(4.8659604e-06 0.013570323 12.249009)
(2.4050768e-06 0.013570722 12.249017)
(3.8295482e-07 0.013572414 12.249021)
(5.6497972e-07 0.01490923 12.277518)
(4.6329085e-07 0.014909551 12.27752)
(1.8362059e-08 0.014908085 12.277519)
(2.6500209e-06 0.014909227 12.277522)
(4.8249254e-06 0.01490931 12.27753)
(4.7740517e-06 0.014909741 12.27754)
(5.1374684e-06 0.014909814 12.27755)
(5.5826846e-06 0.014909914 12.277562)
(4.1930718e-06 0.014911007 12.277574)
(1.0341661e-06 0.014911417 12.277579)
(-4.6878185e-07 0.016155135 12.308672)
(-1.1248765e-06 0.016153206 12.30867)
(8.5116973e-07 0.016154828 12.30867)
(3.060227e-06 0.016154655 12.308675)
(4.3654871e-06 0.016154518 12.308682)
(4.3002968e-06 0.016154493 12.308692)
(4.8573747e-06 0.01615457 12.308701)
(6.0583769e-06 0.016154696 12.308714)
(3.9078069e-06 0.016154098 12.308726)
(6.5642766e-07 0.016153406 12.30873)
(-7.2080008e-07 0.017284183 12.342211)
(1.5605771e-07 0.017285945 12.342208)
(1.4671217e-06 0.017286246 12.342211)
(2.3395985e-06 0.017285571 12.342213)
(4.662535e-06 0.017286487 12.342222)
(4.8264311e-06 0.017287417 12.342232)
(5.3410227e-06 0.017288147 12.342243)
(5.1104107e-06 0.017287264 12.342255)
(2.9030365e-06 0.017286488 12.342265)
(5.7334513e-07 0.01728668 12.342269)
(7.0575823e-07 0.018292426 12.377898)
(9.3776542e-07 0.018292763 12.3779)
(4.7731909e-07 0.018290951 12.3779)
(3.3011442e-06 0.018291933 12.377904)
(6.2116251e-06 0.018292929 12.377914)
(5.9606715e-06 0.018294002 12.377927)
(4.7047492e-06 0.018293114 12.377939)
(4.3998639e-06 0.018292814 12.377949)
(3.3234212e-06 0.018293531 12.377959)
(7.8420456e-07 0.018293749 12.377964)
(-4.9644385e-07 0.019153765 12.415476)
(-1.3197023e-06 0.019151546 12.415474)
(6.3731022e-07 0.019152355 12.415473)
(4.3181841e-06 0.019153009 12.415479)
(6.7315079e-06 0.019153788 12.41549)
(5.0114959e-06 0.019152895 12.415503)
(4.1529321e-06 0.019152361 12.415513)
(5.52755e-06 0.019154057 12.415525)
(3.8381465e-06 0.019154535 12.415536)
(7.1846879e-07 0.019154291 12.415542)
(-7.732136e-07 0.019846322 12.45462)
(-4.722029e-07 0.019847686 12.454616)
(1.9397068e-06 0.019848409 12.454619)
(4.7345148e-06 0.019848762 12.454625)
(6.0981675e-06 0.019848551 12.454636)
(4.5331198e-06 0.019847948 12.454648)
(5.8660157e-06 0.019849649 12.454659)
(6.5737408e-06 0.01985036 12.454674)
(3.5581719e-06 0.019849783 12.454686)
(6.2204606e-07 0.019849598 12.454691)
(4.1243055e-07 0.020360734 12.494987)
(7.665389e-07 0.020361429 12.494989)
(1.7134264e-06 0.020360705 12.494989)
(4.4609992e-06 0.02036093 12.494995)
(5.918027e-06 0.020360518 12.495006)
(6.1091755e-06 0.020362031 12.495019)
(6.5640648e-06 0.020362412 12.495033)
(5.6616072e-06 0.0203611 12.495047)
(3.0766498e-06 0.020360708 12.495058)
(5.9499537e-07 0.020360657 12.495063)
(-3.1038529e-07 0.020668991 12.536198)
(-5.0141615e-07 0.020667676 12.536196)
(1.4411334e-06 0.020668237 12.536196)
(4.5476494e-06 0.020668104 12.536203)
(7.1985268e-06 0.02066895 12.536215)
(6.4268887e-06 0.020669412 12.53623)
(4.9355157e-06 0.020667883 12.536241)
(4.8700206e-06 0.020667432 12.536254)
(3.1147712e-06 0.020667633 12.536264)
(5.8748436e-07 0.020667432 12.53627)
(-4.6417924e-07 0.020749457 12.57781)
(1.2883704e-08 0.020750328 12.577808)
(2.1415138e-06 0.020750875 12.577811)
(5.174121e-06 0.0207504 12.577817)
(7.2263249e-06 0.020750181 12.57783)
(5.0422519e-06 0.020749028 12.577843)
(4.5836326e-06 0.020749096 12.577853)
(5.4109035e-06 0.020749941 12.577867)
(3.0771494e-06 0.020749895 12.577878)
(4.6146108e-07 0.020749462 12.577882)
(2.7014873e-07 0.020588946 12.61936)
(9.1576609e-07 0.020590211 12.619361)
(1.5126048e-06 0.020588692 12.619363)
(3.8541786e-06 0.020586906 12.619367)
(5.8266161e-06 0.020585697 12.619377)
(5.3419991e-06 0.020586209 12.619389)
(5.84889e-06 0.020587544 12.619402)
(5.6689598e-06 0.020587782 12.619416)
(2.6357819e-06 0.020587478 12.619426)
(2.9880828e-07 0.020587356 12.61943)
(3.7867807e-07 0.020165777 12.660342)
(-2.4133513e-07 0.020164791 12.660343)
(-1.1633721e-06 0.020162367 12.660339)
(2.1791183e-06 0.020161168 12.66034)
(6.5290615e-06 0.020162056 12.66035)
(6.8892926e-06 0.020163565 12.660365)
(6.1569143e-06 0.02016369 12.660378)
(5.3443037e-06 0.020163282 12.660392)
(2.6517991e-06 0.020163474 12.660402)
(3.8069355e-07 0.020163808 12.660405)
(-3.8717223e-07 0.019463188 12.700206)
(-2.4936594e-06 0.019460928 12.700203)
(-2.1095905e-06 0.019460629 12.700197)
(3.5427178e-06 0.019462242 12.700199)
(8.2231928e-06 0.019463912 12.700212)
(6.9766527e-06 0.019464047 12.700228)
(5.566418e-06 0.01946337 12.700241)
(5.45306e-06 0.019463231 12.700254)
(3.1614582e-06 0.019463679 12.700264)
(5.2129929e-07 0.019463746 12.700268)
(-1.1285852e-06 0.018473807 12.738384)
(-2.8008021e-06 0.018473721 12.738378)
(1.5152928e-07 0.018475755 12.738376)
(5.4617057e-06 0.018477526 12.738382)
(8.3336298e-06 0.018477804 12.738396)
(6.3471899e-06 0.018477385 12.738412)
(5.3412553e-06 0.01847702 12.738423)
(5.6538788e-06 0.018476875 12.738436)
(3.1666299e-06 0.018476774 12.738447)
(4.2546281e-07 0.018476464 12.738451)
(-4.4444339e-07 0.017195982 12.774297)
(-5.4591446e-07 0.017198005 12.774294)
(1.6952426e-06 0.017199027 12.774295)
(5.5924404e-06 0.017199156 12.774303)
(8.0824003e-06 0.017199106 12.774317)
(6.1924993e-06 0.017199009 12.774332)
(5.0558727e-06 0.017198672 12.774343)
(5.206471e-06 0.017198154 12.774355)
(2.7508122e-06 0.017197705 12.774365)
(3.1477768e-07 0.017197527 12.774368)
(2.1987276e-07 0.015630626 12.807363)
(2.4386637e-07 0.01563063 12.807362)
(1.3024963e-06 0.015630416 12.807363)
(5.5410288e-06 0.015630529 12.807371)
(8.1863921e-06 0.015630631 12.807386)
(5.9125562e-06 0.015630373 12.807399)
(4.4861994e-06 0.015630075 12.807409)
(4.6873018e-06 0.01562961 12.807421)
(2.5396134e-06 0.015629101 12.80743)
(3.0650483e-07 0.015628953 12.807433)
(-4.4176289e-07 0.013783769 12.837003)
(-7.5597242e-07 0.013782713 12.837001)
(1.5944303e-06 0.013783377 12.837003)
(5.8080525e-06 0.0137836 12.837011)
(7.926306e-06 0.013783235 12.837025)
(5.6361151e-06 0.013782961 12.837038)
(4.2929052e-06 0.013783038 12.837048)
(4.2323821e-06 0.013782387 12.837059)
(2.0942075e-06 0.013781288 12.837067)
(2.1641829e-07 0.013781159 12.837069)
(-4.8428565e-07 0.01167747 12.862669)
(-1.4883305e-07 0.011678593 12.862668)
(2.1892351e-06 0.011679014 12.86267)
(5.399168e-06 0.011678421 12.862677)
(7.5476049e-06 0.011677915 12.862691)
(5.7157912e-06 0.011677737 12.862705)
(3.9117759e-06 0.011677371 12.862715)
(2.9374425e-06 0.011675787 12.862723)
(1.3115819e-06 0.011674427 12.862728)
(2.2013377e-07 0.011674991 12.862731)
(3.0682377e-07 0.0093446967 12.883869)
(7.874938e-07 0.0093458157 12.88387)
(1.4219857e-06 0.0093449106 12.883871)
(4.7091761e-06 0.0093442067 12.883877)
(7.2426391e-06 0.0093438218 12.883891)
(5.0917924e-06 0.0093428237 12.883904)
(2.3426114e-06 0.0093413842 12.883911)
(1.2884142e-06 0.009339672 12.883915)
(1.2982439e-06 0.0093393092 12.883919)
(5.9255958e-07 0.0093403776 12.883924)
(2.6176584e-07 0.006820699 12.900176)
(6.5162383e-08 0.0068198282 12.900176)
(5.8021776e-07 0.0068192697 12.900176)
(4.310366e-06 0.0068191085 12.900182)
(6.1645787e-06 0.0068182611 12.900194)
(3.2781534e-06 0.0068164169 12.900204)
(7.6011986e-07 0.0068151771 12.900208)
(8.6241975e-07 0.0068146194 12.900211)
(2.0171689e-06 0.0068151143 12.900215)
(9.3242164e-07 0.0068159952 12.900221)
(-2.7367202e-07 0.0041510067 12.911244)
(-6.4174621e-07 0.0041499738 12.911243)
(7.0221304e-07 0.0041503481 12.911244)
(3.7005472e-06 0.0041505195 12.911249)
(4.5511127e-06 0.0041495157 12.911259)
(2.0078079e-06 0.0041482515 12.911266)
(5.4512597e-07 0.0041477976 12.911269)
(1.225582e-06 0.0041479478 12.911272)
(2.6739924e-06 0.0041490401 12.911277)
(1.1798302e-06 0.0041504396 12.911285)
(-4.2678361e-07 0.00092883031 12.916838)
(-5.933903e-07 0.00092867719 12.916836)
(1.1258452e-06 0.00092886254 12.916838)
(3.4779956e-06 0.00092895962 12.916843)
(3.8966043e-06 0.00092871418 12.916852)
(1.5600432e-06 0.00092852328 12.916857)
(4.564167e-07 0.00092841567 12.91686)
(2.1049262e-06 0.00092846414 12.916864)
(4.5089839e-06 0.0009290019 12.916872)
(1.8654e-06 0.00092968747 12.916882)
(-5.7469525e-07 0.001697299 12.12648)
(3.0101468e-07 0.0016983584 12.126479)
(2.918702e-06 0.0016977391 12.12648)
(6.72643e-06 0.0016989923 12.126483)
(9.8968267e-06 0.0016989587 12.126488)
(1.0196746e-05 0.0016987089 12.126493)
(9.5713193e-06 0.0016996668 12.126501)
(7.2881379e-06 0.001700166 12.126505)
(1.7697679e-06 0.0016983139 12.126508)
(-8.1183685e-07 0.0016982375 12.126509)
(4.8473377e-07 0.0076291475 12.129889)
(9.6110533e-07 0.0076297325 12.129889)
(3.869466e-06 0.0076300254 12.12989)
(8.5558448e-06 0.0076327353 12.129893)
(9.4717804e-06 0.007631499 12.129899)
(1.1259013e-05 0.0076337327 12.129905)
(1.1757014e-05 0.0076341135 12.129912)
(5.2586559e-06 0.0076329669 12.129918)
(-1.123063e-06 0.007632364 12.12992)
(-8.8821404e-07 0.0076326092 12.12992)
(-1.8467067e-07 0.012678554 12.136695)
(1.1788963e-06 0.012679027 12.136695)
(5.9214419e-06 0.012680901 12.136695)
(8.2000553e-06 0.012679535 12.136701)
(1.0894195e-05 0.012681978 12.136706)
(1.2811223e-05 0.012682991 12.136713)
(8.80554e-06 0.01268039 12.13672)
(5.5386614e-06 0.012679385 12.136724)
(1.412045e-06 0.012680836 12.136727)
(-6.4841364e-07 0.012681517 12.136728)
(8.0002285e-07 0.017669832 12.146866)
(3.3072463e-06 0.017670668 12.146865)
(4.3775499e-06 0.017669898 12.146869)
(9.6332032e-06 0.017671155 12.146873)
(1.2927251e-05 0.017672752 12.14688)
(9.6712861e-06 0.017670637 12.146887)
(8.1509516e-06 0.017670213 12.146893)
(5.7045735e-06 0.017669376 12.146898)
(1.0087917e-06 0.017669367 12.146902)
(-4.3448736e-07 0.017671494 12.146903)
(3.7266863e-07 0.022577103 12.160357)
(1.2457123e-06 0.022575623 12.160358)
(6.4092944e-06 0.022576591 12.160359)
(1.1053825e-05 0.022578176 12.160365)
(1.0375565e-05 0.022575249 12.160371)
(1.0271759e-05 0.022575527 12.160378)
(7.5447593e-06 0.022575588 12.160385)
(4.6931788e-06 0.022576171 12.160391)
(3.5301458e-06 0.022579065 12.160396)
(7.6952787e-07 0.022580845 12.160398)
(-1.8703053e-07 0.027372601 12.177104)
(2.7946223e-06 0.02737285 12.177104)
(6.9304924e-06 0.027374032 12.177107)
(8.2917555e-06 0.027370618 12.177112)
(1.0279077e-05 0.027370603 12.177117)
(1.0010306e-05 0.027369536 12.177124)
(8.794435e-06 0.02737012 12.177132)
(9.1814692e-06 0.027374271 12.17714)
(5.6830277e-06 0.027377074 12.177147)
(7.5222204e-07 0.027378045 12.177149)
(5.3846833e-07 0.032029282 12.197027)
(2.6763243e-06 0.032030731 12.197026)
(4.177817e-06 0.032027464 12.197029)
(7.6255341e-06 0.032027214 12.197032)
(9.2935323e-06 0.032026669 12.197038)
(9.7884224e-06 0.032025771 12.197046)
(1.2279101e-05 0.032028995 12.197055)
(1.1647301e-05 0.032031164 12.197065)
(7.3048562e-06 0.032033276 12.197072)
(1.4169515e-06 0.032035176 12.197076)
(7.7886383e-07 0.036513929 12.22002)
(9.7650961e-07 0.036511255 12.220021)
(3.4128966e-06 0.036510577 12.220021)
(7.4961071e-06 0.03651093 12.220026)
(8.8367582e-06 0.036510662 12.220032)
(1.2336532e-05 0.036513275 12.22004)
(1.4187505e-05 0.036515078 12.220051)
(1.3463119e-05 0.036516706 12.220062)
(9.6944103e-06 0.036519393 12.220071)
(2.0183982e-06 0.036520922 12.220074)
(-1.2440934e-06 0.040789223 12.245963)
(-6.7604937e-07 0.040787941 12.245961)
(3.8521477e-06 0.040788229 12.245963)
(7.710382e-06 0.040787576 12.245968)
(1.1638658e-05 0.040789369 12.245974)
(1.4205091e-05 0.040791102 12.245984)
(1.5710111e-05 0.040792501 12.245996)
(1.5962199e-05 0.040795151 12.246008)
(1.1521038e-05 0.040797502 12.246018)
(2.4361276e-06 0.040798346 12.246021)
(-7.5273478e-08 0.044822785 12.274708)
(-1.6640061e-08 0.044824426 12.274706)
(3.0473493e-06 0.044823426 12.274709)
(8.6358707e-06 0.044824735 12.274713)
(1.2363337e-05 0.044824377 12.274719)
(1.5468274e-05 0.044825116 12.274729)
(1.8236242e-05 0.04482674 12.274742)
(1.8463838e-05 0.044828266 12.274755)
(1.288888e-05 0.044829253 12.274765)
(2.5810361e-06 0.044828832 12.274767)
(-1.5050119e-07 0.048573161 12.306079)
(-3.4838763e-08 0.048571846 12.30608)
(4.1616959e-06 0.048573778 12.306081)
(8.6607928e-06 0.048573139 12.306086)
(1.2019388e-05 0.048573494 12.306092)
(1.656796e-05 0.04857506 12.306102)
(1.8859989e-05 0.048575704 12.306116)
(1.8475553e-05 0.048575316 12.306129)
(1.208689e-05 0.048574097 12.306139)
(2.1551629e-06 0.048573899 12.306141)
(-9.5159701e-07 0.051986316 12.339878)
(6.0090727e-07 0.051987044 12.339876)
(4.3404313e-06 0.05198683 12.339879)
(8.3515777e-06 0.051986651 12.339884)
(1.4283583e-05 0.051990011 12.33989)
(1.7678127e-05 0.051991463 12.339901)
(1.8492397e-05 0.051991724 12.339915)
(1.6856662e-05 0.051990663 12.339928)
(1.1471649e-05 0.051990109 12.339938)
(2.4489274e-06 0.051991299 12.339941)
(3.3504165e-07 0.055021092 12.375864)
(4.7912501e-07 0.055021288 12.375863)
(3.7691009e-06 0.05501972 12.375866)
(1.1842643e-05 0.055022996 12.375871)
(1.6830886e-05 0.055024376 12.375879)
(1.8280427e-05 0.055024703 12.375889)
(1.8060556e-05 0.055024866 12.375904)
(1.686057e-05 0.055025672 12.375918)
(1.2722768e-05 0.055027224 12.375929)
(2.9487389e-06 0.055028074 12.375933)
(-8.2147646e-07 0.057621816 12.41377)
(-7.7191672e-07 0.057619707 12.413771)
(6.048613e-06 0.057621964 12.413772)
(1.3007627e-05 0.057622476 12.413778)
(1.5990531e-05 0.057621622 12.413786)
(1.8168099e-05 0.057621627 12.413797)
(1.9461202e-05 0.057623156 12.413814)
(1.9214961e-05 0.057625857 12.413829)
(1.3874545e-05 0.057626948 12.413842)
(3.0159374e-06 0.057627329 12.413845)
(-1.0715745e-06 0.05972729 12.453294)
(6.2703237e-07 0.059729114 12.453292)
(6.5386785e-06 0.059728859 12.453294)
(1.1499943e-05 0.059727728 12.4533)
(1.5981669e-05 0.059728207 12.453307)
(1.9815264e-05 0.059729301 12.45332)
(2.2291077e-05 0.059731507 12.453338)
(2.0652405e-05 0.059732294 12.453354)
(1.4194456e-05 0.059732259 12.453367)
(3.2025821e-06 0.059733002 12.453372)
(3.9476911e-07 0.061285587 12.494084)
(7.9683524e-07 0.061285097 12.494082)
(4.6618766e-06 0.061283456 12.494084)
(1.2355513e-05 0.061284934 12.494089)
(1.7563999e-05 0.061286036 12.494098)
(2.1468553e-05 0.061287161 12.494111)
(2.245433e-05 0.061286855 12.494129)
(1.9966616e-05 0.061285809 12.494146)
(1.4582155e-05 0.061286043 12.49416)
(3.5113306e-06 0.061286371 12.494165)
(-1.3984637e-06 0.06222768 12.535754)
(-1.5040209e-06 0.062225656 12.535752)
(6.3758635e-06 0.062228025 12.535755)
(1.4080269e-05 0.062228605 12.535761)
(1.820926e-05 0.062228753 12.535769)
(2.0634178e-05 0.06222816 12.535782)
(2.0938446e-05 0.062226943 12.5358)
(1.9840164e-05 0.062227165 12.535818)
(1.4756189e-05 0.062227066 12.535832)
(3.4209825e-06 0.062226216 12.535836)
(-9.540607e-07 0.062493584 12.577876)
(1.1423936e-06 0.062497158 12.577875)
(7.6107239e-06 0.06249704 12.577878)
(1.3082882e-05 0.062494398 12.577883)
(1.7118557e-05 0.062493098 12.577891)
(1.9658702e-05 0.062492312 12.577904)
(2.14594e-05 0.062493286 12.577922)
(2.0090268e-05 0.062493928 12.577939)
(1.3632817e-05 0.062492673 12.577953)
(2.9441075e-06 0.062491515 12.577957)
(9.8396067e-07 0.062030757 12.619979)
(1.9519604e-06 0.062031366 12.619978)
(3.6160736e-06 0.06202643 12.619979)
(1.013789e-05 0.062023502 12.619983)
(1.6122852e-05 0.062022508 12.61999)
(2.0821953e-05 0.062023724 12.620004)
(2.2554514e-05 0.0620251 12.620022)
(1.9227702e-05 0.062024611 12.620038)
(1.2343533e-05 0.062023624 12.62005)
(2.6489391e-06 0.062023229 12.620054)
(-5.4855855e-07 0.06077216 12.661546)
(-3.185351e-06 0.060767303 12.661543)
(-2.531079e-07 0.060764408 12.661543)
(9.1610814e-06 0.060764308 12.661547)
(1.7340921e-05 0.06076591 12.661554)
(2.2250734e-05 0.06076755 12.661567)
(2.234603e-05 0.060767321 12.661585)
(1.8614672e-05 0.060766677 12.661601)
(1.2251158e-05 0.060766775 12.661612)
(2.6806841e-06 0.060766857 12.661616)
(-2.2544317e-06 0.058672741 12.702022)
(-5.7999979e-06 0.058671057 12.702019)
(6.2151479e-07 0.058672649 12.70202)
(1.1639414e-05 0.05867557 12.702025)
(1.9364751e-05 0.058678216 12.702033)
(2.2233392e-05 0.058678385 12.702046)
(2.1681058e-05 0.058677135 12.702063)
(1.8681033e-05 0.058676542 12.702078)
(1.2523553e-05 0.058676764 12.70209)
(2.7035918e-06 0.058676732 12.702093)
(-1.6712182e-06 0.055714477 12.740834)
(-3.2773541e-06 0.05571646 12.740832)
(4.2603371e-06 0.055719742 12.740835)
(1.4728345e-05 0.055723106 12.740841)
(2.0155317e-05 0.055724435 12.74085)
(2.1169495e-05 0.055723363 12.740862)
(2.0503579e-05 0.055721522 12.740878)
(1.8243273e-05 0.055720589 12.740892)
(1.2440774e-05 0.055720506 12.740904)
(2.659614e-06 0.055720312 12.740908)
(-9.3263054e-07 0.051880642 12.777387)
(-5.3514043e-07 0.051881851 12.777386)
(7.2680898e-06 0.051884543 12.77739)
(1.6332688e-05 0.05188639 12.777398)
(1.9621675e-05 0.051886212 12.777406)
(1.9320252e-05 0.051884528 12.777417)
(1.8907105e-05 0.051883019 12.777432)
(1.7665585e-05 0.051882416 12.777446)
(1.2246365e-05 0.051881944 12.777459)
(2.5739355e-06 0.051881317 12.777462)
(-8.6478067e-07 0.047167916 12.811077)
(6.2415289e-07 0.047168552 12.811076)
(8.7985356e-06 0.047170139 12.811082)
(1.6397147e-05 0.04717028 12.811089)
(1.8293182e-05 0.04716925 12.811096)
(1.797591e-05 0.047168395 12.811106)
(1.8391922e-05 0.047168375 12.811122)
(1.716885e-05 0.04716765 12.811137)
(1.1341642e-05 0.047165804 12.811148)
(2.2413675e-06 0.047164645 12.811151)
(-5.0928909e-07 0.041608364 12.841308)
(1.6878595e-06 0.041610062 12.841309)
(8.9966603e-06 0.041610159 12.841314)
(1.5443365e-05 0.041609135 12.84132)
(1.7736843e-05 0.041608618 12.841327)
(1.8444635e-05 0.041609352 12.841338)
(1.8161929e-05 0.041609025 12.841354)
(1.5095459e-05 0.041606275 12.841367)
(9.2413112e-06 0.041603144 12.841377)
(1.8009934e-06 0.041602718 12.84138)
(2.6715062e-07 0.035265732 12.867515)
(2.4190911e-06 0.035266993 12.867516)
(7.8719352e-06 0.035265717 12.86752)
(1.485559e-05 0.035264877 12.867527)
(1.8509547e-05 0.03526534 12.867535)
(1.838373e-05 0.035265148 12.867547)
(1.5315108e-05 0.035261622 12.86756)
(1.1287343e-05 0.035257433 12.86757)
(7.7848912e-06 0.035255443 12.86758)
(1.9576356e-06 0.035256632 12.867584)
(3.3107445e-07 0.028225665 12.88918)
(1.6728678e-06 0.028224968 12.88918)
(6.8812925e-06 0.028224359 12.889184)
(1.5066493e-05 0.028224141 12.889193)
(1.8007601e-05 0.028223452 12.889202)
(1.472596e-05 0.02822004 12.889211)
(1.0446662e-05 0.028215061 12.88922)
(8.917115e-06 0.02821283 12.889231)
(8.4405551e-06 0.02821275 12.88924)
(2.593524e-06 0.028214054 12.889244)
(-1.9762136e-07 0.020601642 12.905853)
(1.1127361e-06 0.020600647 12.905853)
(7.0448625e-06 0.020601597 12.905859)
(1.3949042e-05 0.020600895 12.905868)
(1.4408947e-05 0.020598126 12.905874)
(9.9922089e-06 0.020593861 12.905881)
(8.1046402e-06 0.02059134 12.90589)
(8.9763657e-06 0.020591125 12.905901)
(9.0092111e-06 0.02059146 12.905909)
(2.8272509e-06 0.020593822 12.905912)
(-3.328041e-07 0.012540486 12.917177)
(1.62711e-06 0.012540071 12.917178)
(7.1300081e-06 0.012541099 12.917184)
(1.1595857e-05 0.0125407 12.917192)
(1.0973438e-05 0.012538267 12.917197)
(7.9398195e-06 0.012535448 12.917204)
(7.7104801e-06 0.012534729 12.917212)
(9.0375594e-06 0.012535719 12.917221)
(1.1137945e-05 0.012538092 12.91723)
(4.168213e-06 0.012540707 12.917235)
(-4.7435549e-07 0.0028069755 12.922904)
(1.7258691e-06 0.002806834 12.922905)
(7.6740238e-06 0.0028070414 12.922911)
(1.1117518e-05 0.0028071967 12.922918)
(9.1567026e-06 0.0028067225 12.922923)
(6.4541482e-06 0.0028059855 12.922928)
(8.3760293e-06 0.002805732 12.922937)
(1.2339064e-05 0.0028064292 12.922947)
(1.3997164e-05 0.0028079331 12.922956)
(4.5705249e-06 0.0028083354 12.922956)
(-2.6781384e-07 0.0028381263 12.11967)
(2.038803e-06 0.0028384905 12.11967)
(5.1781853e-06 0.0028382177 12.119672)
(1.0303348e-05 0.0028390907 12.119673)
(1.4377568e-05 0.0028393586 12.119677)
(1.5101221e-05 0.0028397866 12.11968)
(1.5003604e-05 0.0028401269 12.119684)
(1.0782827e-05 0.0028409827 12.119688)
(3.3305695e-06 0.0028393771 12.11969)
(-4.9199523e-07 0.0028395427 12.119691)
(9.6370295e-08 0.012755671 12.123111)
(2.1758599e-06 0.012755625 12.123109)
(6.0784153e-06 0.012755025 12.123113)
(1.2014746e-05 0.012758466 12.123114)
(1.542149e-05 0.012757363 12.123118)
(1.6253643e-05 0.012761141 12.123122)
(1.6797707e-05 0.012760941 12.123125)
(9.6581241e-06 0.012759625 12.123129)
(1.1706527e-06 0.012760209 12.123133)
(-3.2636824e-07 0.012760673 12.123134)
(-2.9891036e-07 0.021196904 12.129979)
(1.3919385e-06 0.021197089 12.129979)
(8.0189244e-06 0.021198816 12.129979)
(1.2641746e-05 0.021199202 12.129983)
(1.7052839e-05 0.021201273 12.129987)
(1.8678733e-05 0.021203117 12.129991)
(1.3487634e-05 0.021200505 12.129996)
(1.0051394e-05 0.021199683 12.13)
(4.378948e-06 0.021202741 12.130004)
(-1.8255491e-07 0.021202884 12.130004)
(2.2013329e-07 0.029543101 12.140244)
(4.0882337e-06 0.029543674 12.140244)
(8.1906502e-06 0.029543687 12.140246)
(1.4472006e-05 0.029545091 12.14025)
(1.9336627e-05 0.029547068 12.140253)
(1.5485151e-05 0.02954479 12.140259)
(1.3363589e-05 0.029545115 12.140264)
(1.1894003e-05 0.029546232 12.140269)
(4.3722802e-06 0.029546812 12.140273)
(-2.3069916e-07 0.029548688 12.140273)
(8.328674e-08 0.037751646 12.153864)
(1.9783498e-06 0.037751563 12.153864)
(9.4365158e-06 0.037752217 12.153866)
(1.6023154e-05 0.03775338 12.153869)
(1.6751698e-05 0.037750127 12.153874)
(1.672538e-05 0.037750432 12.15388)
(1.4928878e-05 0.037752664 12.153885)
(1.1748571e-05 0.037754531 12.153892)
(6.8350718e-06 0.037757649 12.153897)
(1.0677604e-06 0.037760319 12.153897)
(1.6456544e-07 0.045777182 12.170776)
(4.6596755e-06 0.045777169 12.170777)
(1.0008236e-05 0.045778456 12.170778)
(1.2381905e-05 0.045774535 12.170782)
(1.6387937e-05 0.045774433 12.170787)
(1.8022003e-05 0.045774859 12.170793)
(1.746314e-05 0.045776701 12.170801)
(1.6878923e-05 0.045781924 12.170809)
(1.0160207e-05 0.045786216 12.170814)
(1.5492415e-06 0.045788047 12.170815)
(7.4421297e-08 0.053573857 12.190904)
(3.2520952e-06 0.053574295 12.190903)
(6.8026792e-06 0.053570012 12.190905)
(1.2000689e-05 0.053570191 12.190909)
(1.7076109e-05 0.053570882 12.190914)
(1.8992409e-05 0.053570778 12.190922)
(2.1993581e-05 0.05357482 12.19093)
(2.1263862e-05 0.053579017 12.190939)
(1.2958313e-05 0.053582391 12.190946)
(2.2888394e-06 0.053583641 12.190947)
(4.5635792e-07 0.061085338 12.214147)
(8.1421142e-07 0.061082343 12.214146)
(5.9044839e-06 0.061082186 12.214148)
(1.3251521e-05 0.061083376 12.214153)
(1.6974521e-05 0.061083224 12.214158)
(2.1960728e-05 0.061086021 12.214167)
(2.570252e-05 0.061089574 12.214176)
(2.4449193e-05 0.061092792 12.214187)
(1.4783525e-05 0.061095188 12.214193)
(2.3826221e-06 0.061095343 12.214192)
(-1.9221784e-06 0.06825491 12.240387)
(9.9771635e-08 0.068253343 12.240388)
(7.8357359e-06 0.068255407 12.24039)
(1.3039196e-05 0.068254069 12.240394)
(1.9720475e-05 0.068255592 12.2404)
(2.534219e-05 0.068258169 12.240408)
(2.8765423e-05 0.068260891 12.240419)
(2.6877774e-05 0.068263914 12.240429)
(1.55093e-05 0.068265597 12.240434)
(2.392489e-06 0.068265601 12.240434)
(-5.8834326e-07 0.075025234 12.269484)
(1.3109599e-06 0.07502858 12.269483)
(6.6308468e-06 0.075025992 12.269487)
(1.3436859e-05 0.075027148 12.269491)
(2.1073843e-05 0.075027088 12.269496)
(2.7259505e-05 0.07502803 12.269505)
(3.1448099e-05 0.075029666 12.269516)
(2.9154885e-05 0.075031167 12.269526)
(1.6470146e-05 0.075032243 12.26953)
(2.3854739e-06 0.07503168 12.26953)
(3.0806651e-07 0.081324879 12.301267)
(8.5782147e-07 0.081323259 12.301267)
(6.4045586e-06 0.081325071 12.30127)
(1.4134511e-05 0.081325677 12.301274)
(2.0602418e-05 0.081325585 12.301278)
(2.7921019e-05 0.081326731 12.301287)
(3.1902485e-05 0.081327401 12.301297)
(2.9453951e-05 0.081327504 12.301308)
(1.6021479e-05 0.08132711 12.301313)
(2.0171582e-06 0.081327057 12.301312)
(-1.6683018e-06 0.087069462 12.335536)
(1.5026914e-06 0.087068369 12.335537)
(9.048717e-06 0.087070883 12.335541)
(1.3951274e-05 0.087070267 12.335544)
(2.212797e-05 0.087072846 12.335548)
(2.9075293e-05 0.087074733 12.335556)
(3.2221128e-05 0.087076177 12.335567)
(2.8864426e-05 0.087076346 12.335579)
(1.6022936e-05 0.08707678 12.335585)
(2.3497422e-06 0.087078102 12.335585)
(-4.2068781e-07 0.09218501 12.372065)
(2.2786639e-06 0.092187292 12.372066)
(8.3020828e-06 0.092184523 12.372069)
(1.6096918e-05 0.092186362 12.372071)
(2.5068813e-05 0.092188096 12.372075)
(3.1252343e-05 0.092189983 12.372084)
(3.3514809e-05 0.092192078 12.372097)
(3.0057235e-05 0.092194023 12.37211)
(1.7778298e-05 0.09219658 12.372117)
(2.898541e-06 0.092197887 12.372118)
(-1.4678737e-07 0.096583065 12.410589)
(1.0152846e-06 0.096580804 12.410589)
(8.1183484e-06 0.096580942 12.410591)
(1.7524155e-05 0.096582124 12.410593)
(2.5748566e-05 0.096582065 12.410597)
(3.3057304e-05 0.096583512 12.410608)
(3.6261727e-05 0.096586184 12.410622)
(3.3367334e-05 0.096589723 12.410636)
(1.9886558e-05 0.096592272 12.410645)
(3.2206272e-06 0.096593246 12.410646)
(-1.9279696e-06 0.1001603 12.450805)
(1.5548999e-07 0.10015872 12.450804)
(9.6219262e-06 0.10016041 12.450806)
(1.7220379e-05 0.10016007 12.450809)
(2.6456848e-05 0.10016072 12.450814)
(3.5371024e-05 0.10016223 12.450825)
(3.97253e-05 0.10016482 12.45084)
(3.6145294e-05 0.10016688 12.450856)
(2.130145e-05 0.10016819 12.450865)
(3.5475888e-06 0.10016894 12.450866)
(-1.2027838e-06 0.10282087 12.49237)
(1.12249e-06 0.1028216 12.492369)
(9.472442e-06 0.10282146 12.492373)
(1.7836694e-05 0.10282205 12.492376)
(2.7906198e-05 0.10282308 12.492381)
(3.7157654e-05 0.10282426 12.492394)
(4.0918783e-05 0.1028249 12.492409)
(3.673393e-05 0.10282495 12.492425)
(2.1946597e-05 0.10282533 12.492435)
(3.7260507e-06 0.10282535 12.492435)
(-1.4448164e-06 0.10446092 12.5349)
(7.4507909e-07 0.104461 12.534901)
(1.0075548e-05 0.10446157 12.534904)
(1.8837894e-05 0.10446176 12.534907)
(2.866696e-05 0.10446175 12.534913)
(3.7192532e-05 0.1044616 12.534926)
(4.0410627e-05 0.10446127 12.534942)