/*--------------------------------*- C++ -*----------------------------------*\
| =========                 |                                                 |
| \\      /  F ield         | OpenFOAM: The Open Source CFD Toolbox           |
|  \\    /   O peration     | Version:  v2106                                 |
|   \\  /    A nd           | Website:  www.openfoam.com                      |
|    \\/     M anipulation  |                                                 |
\*---------------------------------------------------------------------------*/
FoamFile
{
    version     2.0;
    format      ascii;
    arch        "LSB;label=32;scalar=64";
    class       volScalarField;
    location    "40";
    object      T;
}
// * * * * * * * * * * * * * * * * * * * * * * * * * * * * * * * * * * * * * //

dimensions      [0 0 0 1 0 0 0];

internalField   nonuniform List<scalar> 
30000
(
275.42614
275.42614
275.42615
275.42615
275.42615
275.42615
275.42615
275.42615
275.42615
275.42615
275.42682
275.42682
275.42682
275.42682
275.42683
275.42683
275.42683
275.42683
275.42683
275.42683
275.42818
275.42818
275.42818
275.42818
275.42818
275.42818
275.42818
275.42818
275.42819
275.42818
275.4302
275.4302
275.4302
275.4302
275.4302
275.4302
275.4302
275.43021
275.43021
275.43021
275.43288
275.43288
275.43288
275.43288
275.43288
275.43289
275.43289
275.43289
275.43289
275.43289
275.43621
275.43621
275.43621
275.43621
275.43621
275.43621
275.43622
275.43622
275.43622
275.43622
275.44017
275.44017
275.44017
275.44017
275.44017
275.44017
275.44017
275.44017
275.44018
275.44018
275.44474
275.44474
275.44474
275.44474
275.44474
275.44474
275.44474
275.44474
275.44474
275.44474
275.44989
275.44989
275.44989
275.44989
275.44989
275.44989
275.44989
275.44989
275.4499
275.4499
275.45559
275.45559
275.45559
275.45559
275.45559
275.45559
275.4556
275.4556
275.4556
275.4556
275.46181
275.46181
275.46181
275.46181
275.46182
275.46182
275.46182
275.46182
275.46182
275.46182
275.46851
275.46851
275.46851
275.46851
275.46852
275.46852
275.46852
275.46852
275.46852
275.46852
275.47564
275.47564
275.47564
275.47564
275.47564
275.47565
275.47565
275.47565
275.47565
275.47565
275.48315
275.48315
275.48315
275.48315
275.48315
275.48315
275.48315
275.48316
275.48316
275.48316
275.49096
275.49096
275.49096
275.49097
275.49097
275.49097
275.49097
275.49097
275.49098
275.49098
275.49902
275.49903
275.49903
275.49903
275.49903
275.49903
275.49903
275.49904
275.49904
275.49904
275.50725
275.50725
275.50725
275.50725
275.50726
275.50726
275.50726
275.50726
275.50727
275.50727
275.51556
275.51556
275.51556
275.51556
275.51556
275.51557
275.51557
275.51557
275.51557
275.51557
275.52385
275.52385
275.52385
275.52385
275.52386
275.52386
275.52386
275.52386
275.52387
275.52387
275.53203
275.53203
275.53203
275.53203
275.53203
275.53204
275.53204
275.53204
275.53204
275.53204
275.53999
275.53998
275.53998
275.53998
275.53999
275.53999
275.53999
275.53999
275.54
275.54
275.5476
275.5476
275.5476
275.5476
275.5476
275.54761
275.54761
275.54761
275.54761
275.54761
275.55476
275.55476
275.55476
275.55477
275.55477
275.55477
275.55477
275.55478
275.55478
275.55478
275.56136
275.56136
275.56136
275.56136
275.56136
275.56137
275.56137
275.56137
275.56137
275.56137
275.56727
275.56727
275.56727
275.56727
275.56727
275.56728
275.56728
275.56728
275.56728
275.56728
275.57239
275.57238
275.57239
275.57239
275.57239
275.57239
275.57239
275.5724
275.5724
275.5724
275.57661
275.57661
275.57661
275.57661
275.57662
275.57662
275.57662
275.57662
275.57662
275.57662
275.57986
275.57986
275.57986
275.57986
275.57986
275.57987
275.57987
275.57987
275.57987
275.57987
275.58207
275.58207
275.58207
275.58207
275.58207
275.58207
275.58207
275.58207
275.58207
275.58207
275.58318
275.58318
275.58318
275.58318
275.58318
275.58319
275.58319
275.58319
275.58319
275.58319
280.27776
280.27776
280.27776
280.27776
280.27776
280.27777
280.27777
280.27777
280.27778
280.27778
280.27979
280.27979
280.27979
280.2798
280.2798
280.2798
280.27981
280.27981
280.27981
280.27981
280.28386
280.28386
280.28386
280.28386
280.28387
280.28387
280.28388
280.28388
280.28388
280.28388
280.28994
280.28994
280.28994
280.28994
280.28995
280.28995
280.28995
280.28996
280.28996
280.28996
280.298
280.298
280.298
280.298
280.29801
280.29801
280.29801
280.29802
280.29802
280.29802
280.308
280.308
280.308
280.308
280.30801
280.30801
280.30802
280.30802
280.30802
280.30802
280.31989
280.31989
280.3199
280.3199
280.3199
280.31991
280.31991
280.31992
280.31992
280.31992
280.33362
280.33362
280.33362
280.33363
280.33363
280.33363
280.33364
280.33364
280.33365
280.33365
280.34911
280.3491
280.3491
280.34911
280.34911
280.34912
280.34912
280.34913
280.34914
280.34914
280.36625
280.36625
280.36625
280.36626
280.36626
280.36627
280.36627
280.36628
280.36629
280.36629
280.38496
280.38496
280.38496
280.38497
280.38497
280.38498
280.38498
280.38499
280.385
280.385
280.40511
280.40511
280.40511
280.40511
280.40512
280.40513
280.40513
280.40514
280.40515
280.40515
280.42655
280.42655
280.42655
280.42656
280.42656
280.42657
280.42658
280.42658
280.42659
280.42659
280.44913
280.44913
280.44913
280.44913
280.44914
280.44915
280.44915
280.44916
280.44917
280.44917
280.47265
280.47265
280.47265
280.47265
280.47266
280.47267
280.47268
280.47268
280.47269
280.4727
280.49691
280.49691
280.49691
280.49691
280.49692
280.49693
280.49694
280.49695
280.49695
280.49696
280.52168
280.52168
280.52168
280.52168
280.52169
280.5217
280.52171
280.52171
280.52172
280.52173
280.54669
280.54669
280.54669
280.5467
280.5467
280.54671
280.54672
280.54673
280.54674
280.54674
280.57167
280.57167
280.57167
280.57168
280.57168
280.57169
280.5717
280.57171
280.57172
280.57172
280.59632
280.59632
280.59631
280.59632
280.59632
280.59633
280.59634
280.59635
280.59635
280.59636
280.62029
280.62029
280.62029
280.62029
280.6203
280.6203
280.62031
280.62032
280.62033
280.62033
280.64326
280.64325
280.64325
280.64326
280.64326
280.64327
280.64328
280.64329
280.6433
280.6433
280.66486
280.66486
280.66486
280.66487
280.66488
280.66488
280.66489
280.6649
280.6649
280.66491
280.68476
280.68476
280.68476
280.68477
280.68477
280.68478
280.68479
280.6848
280.6848
280.6848
280.7026
280.7026
280.7026
280.7026
280.70261
280.70262
280.70263
280.70263
280.70264
280.70264
280.71805
280.71805
280.71805
280.71805
280.71806
280.71807
280.71807
280.71808
280.71808
280.71809
280.73081
280.73081
280.73081
280.73082
280.73082
280.73083
280.73083
280.73084
280.73084
280.73085
280.74063
280.74063
280.74063
280.74063
280.74064
280.74064
280.74065
280.74065
280.74065
280.74066
280.74729
280.74729
280.74729
280.7473
280.7473
280.74731
280.74731
280.74731
280.74732
280.74732
280.75066
280.75066
280.75066
280.75066
280.75067
280.75067
280.75067
280.75068
280.75068
280.75069
285.12733
285.12733
285.12733
285.12733
285.12734
285.12734
285.12735
285.12736
285.12736
285.12736
285.13073
285.13073
285.13074
285.13074
285.13075
285.13075
285.13076
285.13076
285.13077
285.13077
285.13753
285.13753
285.13753
285.13754
285.13754
285.13755
285.13756
285.13756
285.13757
285.13757
285.14769
285.14769
285.14769
285.1477
285.14771
285.14771
285.14772
285.14772
285.14773
285.14773
285.16117
285.16117
285.16117
285.16117
285.16118
285.16119
285.1612
285.1612
285.1612
285.16121
285.17789
285.17789
285.1779
285.1779
285.17791
285.17791
285.17792
285.17793
285.17793
285.17794
285.19779
285.19779
285.19779
285.19779
285.1978
285.19781
285.19782
285.19783
285.19783
285.19784
285.22075
285.22075
285.22075
285.22076
285.22076
285.22077
285.22078
285.22079
285.2208
285.2208
285.24666
285.24666
285.24666
285.24666
285.24667
285.24668
285.24669
285.2467
285.24671
285.24671
285.27536
285.27536
285.27536
285.27536
285.27537
285.27538
285.27539
285.2754
285.27541
285.27542
285.30668
285.30668
285.30668
285.30668
285.30669
285.3067
285.30671
285.30672
285.30674
285.30674
285.34042
285.34041
285.34042
285.34042
285.34043
285.34044
285.34045
285.34046
285.34047
285.34048
285.37633
285.37633
285.37633
285.37634
285.37635
285.37636
285.37637
285.37639
285.3764
285.3764
285.41416
285.41416
285.41416
285.41417
285.41418
285.41419
285.41421
285.41422
285.41423
285.41424
285.4536
285.4536
285.4536
285.4536
285.45361
285.45363
285.45364
285.45366
285.45367
285.45367
285.49429
285.49429
285.49429
285.4943
285.49431
285.49432
285.49434
285.49435
285.49437
285.49437
285.53586
285.53585
285.53586
285.53586
285.53587
285.53589
285.5359
285.53592
285.53593
285.53594
285.57786
285.57786
285.57786
285.57787
285.57788
285.57789
285.57791
285.57792
285.57793
285.57794
285.61984
285.61984
285.61984
285.61984
285.61985
285.61986
285.61988
285.61989
285.61991
285.61991
285.66127
285.66127
285.66127
285.66127
285.66128
285.66129
285.66131
285.66132
285.66133
285.66134
285.7016
285.7016
285.7016
285.7016
285.70161
285.70163
285.70164
285.70166
285.70167
285.70167
285.74027
285.74027
285.74027
285.74027
285.74028
285.7403
285.74031
285.74033
285.74034
285.74034
285.77667
285.77667
285.77668
285.77668
285.77669
285.77671
285.77672
285.77673
285.77674
285.77675
285.81022
285.81022
285.81022
285.81023
285.81024
285.81025
285.81027
285.81028
285.81029
285.81029
285.84031
285.84032
285.84032
285.84033
285.84033
285.84035
285.84036
285.84037
285.84038
285.84038
285.8664
285.8664
285.8664
285.86641
285.86642
285.86643
285.86644
285.86645
285.86646
285.86646
285.88795
285.88796
285.88796
285.88797
285.88798
285.88799
285.888
285.888
285.88801
285.88802
285.90454
285.90454
285.90455
285.90456
285.90456
285.90457
285.90458
285.90459
285.9046
285.9046
285.91581
285.91581
285.91581
285.91582
285.91583
285.91583
285.91584
285.91585
285.91586
285.91586
285.92151
285.92151
285.92151
285.92152
285.92152
285.92153
285.92154
285.92154
285.92155
285.92155
289.97349
289.97349
289.97349
289.9735
289.9735
289.97351
289.97352
289.97352
289.97353
289.97353
289.97828
289.97828
289.97828
289.97829
289.9783
289.9783
289.97831
289.97832
289.97832
289.97832
289.98784
289.98784
289.98784
289.98785
289.98786
289.98787
289.98787
289.98788
289.98789
289.98788
290.00213
290.00213
290.00214
290.00214
290.00215
290.00216
290.00217
290.00217
290.00218
290.00218
290.02109
290.02109
290.02109
290.0211
290.0211
290.02111
290.02112
290.02113
290.02114
290.02114
290.04462
290.04462
290.04462
290.04463
290.04464
290.04465
290.04466
290.04467
290.04467
290.04468
290.07262
290.07262
290.07262
290.07263
290.07263
290.07264
290.07265
290.07267
290.07268
290.07268
290.10494
290.10494
290.10494
290.10495
290.10496
290.10497
290.10498
290.10499
290.105
290.10501
290.14142
290.14141
290.14142
290.14142
290.14143
290.14144
290.14146
290.14147
290.14148
290.14149
290.18184
290.18184
290.18184
290.18185
290.18186
290.18187
290.18188
290.1819
290.18191
290.18191
290.22598
290.22598
290.22598
290.22599
290.22599
290.22601
290.22602
290.22604
290.22605
290.22605
290.27354
290.27354
290.27354
290.27355
290.27356
290.27357
290.27359
290.2736
290.27361
290.27362
290.3242
290.32421
290.32421
290.32421
290.32422
290.32424
290.32425
290.32427
290.32428
290.32429
290.3776
290.3776
290.3776
290.37761
290.37762
290.37763
290.37765
290.37767
290.37768
290.37769
290.43329
290.43329
290.4333
290.4333
290.43331
290.43333
290.43335
290.43337
290.43338
290.43339
290.49081
290.49081
290.49081
290.49081
290.49083
290.49084
290.49087
290.49089
290.4909
290.49091
290.5496
290.5496
290.5496
290.54961
290.54962
290.54964
290.54966
290.54968
290.54969
290.5497
290.60907
290.60906
290.60907
290.60907
290.60909
290.6091
290.60912
290.60915
290.60916
290.60916
290.66855
290.66855
290.66855
290.66855
290.66856
290.66858
290.6686
290.66862
290.66863
290.66864
290.72731
290.72731
290.72731
290.72732
290.72733
290.72734
290.72736
290.72738
290.7274
290.7274
290.78459
290.78458
290.78458
290.78459
290.7846
290.78462
290.78464
290.78466
290.78467
290.78467
290.83955
290.83955
290.83955
290.83956
290.83957
290.83958
290.8396
290.83962
290.83963
290.83964
290.89135
290.89135
290.89136
290.89136
290.89137
290.89139
290.89141
290.89143
290.89144
290.89144
290.93914
290.93914
290.93914
290.93915
290.93916
290.93917
290.93919
290.93921
290.93922
290.93923
290.98205
290.98205
290.98206
290.98206
290.98207
290.98209
290.98211
290.98212
290.98213
290.98214
291.01928
291.01928
291.01928
291.01929
291.0193
291.01932
291.01933
291.01935
291.01936
291.01936
291.05007
291.05007
291.05008
291.05009
291.0501
291.05011
291.05012
291.05014
291.05015
291.05015
291.07378
291.07379
291.07379
291.0738
291.07381
291.07382
291.07383
291.07384
291.07385
291.07386
291.08989
291.0899
291.08991
291.08991
291.08992
291.08993
291.08994
291.08995
291.08996
291.08996
291.09804
291.09805
291.09805
291.09806
291.09807
291.09808
291.09809
291.0981
291.0981
291.0981
294.81487
294.81487
294.81487
294.81487
294.81488
294.81489
294.81489
294.8149
294.8149
294.8149
294.82106
294.82106
294.82106
294.82107
294.82108
294.82108
294.82109
294.8211
294.8211
294.8211
294.83343
294.83343
294.83343
294.83344
294.83344
294.83345
294.83346
294.83346
294.83347
294.83347
294.85191
294.85191
294.85191
294.85192
294.85193
294.85194
294.85194
294.85195
294.85196
294.85195
294.87643
294.87643
294.87644
294.87644
294.87645
294.87646
294.87647
294.87648
294.87648
294.87648
294.90688
294.90688
294.90689
294.90689
294.9069
294.90691
294.90692
294.90693
294.90694
294.90694
294.94312
294.94312
294.94313
294.94313
294.94314
294.94315
294.94316
294.94318
294.94319
294.94319
294.98498
294.98498
294.98498
294.98499
294.98499
294.98501
294.98502
294.98503
294.98504
294.98505
295.03223
295.03223
295.03223
295.03224
295.03225
295.03226
295.03227
295.03229
295.0323
295.0323
295.08462
295.08462
295.08462
295.08463
295.08464
295.08465
295.08467
295.08468
295.08469
295.08469
295.14185
295.14185
295.14186
295.14186
295.14187
295.14188
295.1419
295.14191
295.14193
295.14193
295.20357
295.20357
295.20357
295.20358
295.20359
295.2036
295.20362
295.20363
295.20364
295.20365
295.26935
295.26936
295.26936
295.26936
295.26937
295.26939
295.26941
295.26942
295.26944
295.26944
295.33874
295.33874
295.33874
295.33875
295.33876
295.33877
295.33879
295.33881
295.33883
295.33883
295.41118
295.41118
295.41118
295.41119
295.4112
295.41121
295.41124
295.41126
295.41127
295.41128
295.48605
295.48605
295.48606
295.48606
295.48608
295.4861
295.48612
295.48614
295.48615
295.48616
295.56268
295.56268
295.56268
295.56269
295.5627
295.56272
295.56274
295.56276
295.56278
295.56278
295.64027
295.64027
295.64028
295.64028
295.6403
295.64031
295.64034
295.64036
295.64037
295.64037
295.71798
295.71798
295.71798
295.71799
295.718
295.71802
295.71804
295.71806
295.71807
295.71807
295.79485
295.79485
295.79486
295.79486
295.79487
295.79489
295.79491
295.79493
295.79494
295.79494
295.86988
295.86988
295.86989
295.86989
295.86991
295.86992
295.86994
295.86996
295.86997
295.86997
295.94199
295.94199
295.942
295.94201
295.94202
295.94203
295.94205
295.94207
295.94208
295.94208
296.01006
296.01006
296.01007
296.01007
296.01008
296.0101
296.01012
296.01014
296.01015
296.01015
296.07293
296.07294
296.07294
296.07295
296.07296
296.07298
296.07299
296.07301
296.07302
296.07303
296.12948
296.12948
296.12949
296.12949
296.12951
296.12952
296.12954
296.12955
296.12957
296.12957
296.17859
296.1786
296.1786
296.17861
296.17862
296.17864
296.17865
296.17867
296.17868
296.17868
296.21927
296.21927
296.21928
296.21929
296.2193
296.21932
296.21933
296.21934
296.21935
296.21935
296.25062
296.25063
296.25064
296.25065
296.25066
296.25067
296.25068
296.25069
296.2507
296.2507
296.27194
296.27195
296.27196
296.27196
296.27197
296.27198
296.272
296.272
296.27201
296.27201
296.28273
296.28273
296.28274
296.28275
296.28276
296.28277
296.28278
296.28279
296.28279
296.28279
299.65005
299.65005
299.65005
299.65005
299.65006
299.65006
299.65007
299.65007
299.65007
299.65007
299.65767
299.65767
299.65768
299.65768
299.65769
299.65769
299.6577
299.6577
299.6577
299.6577
299.6729
299.6729
299.6729
299.67291
299.67291
299.67292
299.67292
299.67292
299.67293
299.67293
299.69565
299.69565
299.69566
299.69566
299.69567
299.69568
299.69568
299.69569
299.69569
299.69569
299.72585
299.72585
299.72586
299.72586
299.72587
299.72588
299.72588
299.72589
299.72589
299.72589
299.76336
299.76336
299.76337
299.76338
299.76338
299.76339
299.7634
299.76341
299.76341
299.76341
299.80802
299.80802
299.80803
299.80803
299.80804
299.80805
299.80806
299.80807
299.80808
299.80808
299.85962
299.85962
299.85962
299.85963
299.85964
299.85965
299.85966
299.85967
299.85968
299.85968
299.9179
299.9179
299.91791
299.91791
299.91792
299.91793
299.91794
299.91795
299.91796
299.91796
299.98256
299.98257
299.98257
299.98258
299.98258
299.98259
299.98261
299.98262
299.98263
299.98263
300.05325
300.05325
300.05326
300.05326
300.05327
300.05328
300.05329
300.0533
300.05331
300.05331
300.12953
300.12953
300.12954
300.12954
300.12955
300.12956
300.12957
300.12959
300.1296
300.12959
300.21091
300.21092
300.21092
300.21092
300.21093
300.21094
300.21096
300.21097
300.21098
300.21098
300.29683
300.29684
300.29684
300.29684
300.29685
300.29686
300.29688
300.2969
300.29691
300.29691
300.38663
300.38663
300.38664
300.38664
300.38665
300.38667
300.38668
300.3867
300.38672
300.38672
300.47957
300.47957
300.47957
300.47958
300.47959
300.47961
300.47963
300.47964
300.47966
300.47966
300.5748
300.5748
300.57481
300.57482
300.57483
300.57484
300.57486
300.57488
300.57489
300.57489
300.67138
300.67138
300.67138
300.67139
300.67141
300.67142
300.67144
300.67145
300.67146
300.67146
300.76825
300.76825
300.76826
300.76827
300.76828
300.76829
300.76831
300.76832
300.76833
300.76833
300.86425
300.86425
300.86426
300.86426
300.86427
300.86429
300.8643
300.86432
300.86433
300.86432
300.95811
300.95812
300.95812
300.95813
300.95814
300.95815
300.95817
300.95818
300.95819
300.95819
301.04849
301.04849
301.0485
301.04851
301.04852
301.04853
301.04855
301.04856
301.04857
301.04857
301.13397
301.13397
301.13397
301.13398
301.13399
301.13401
301.13402
301.13403
301.13404
301.13404
301.21307
301.21307
301.21308
301.21309
301.2131
301.21311
301.21312
301.21314
301.21315
301.21315
301.28434
301.28434
301.28435
301.28436
301.28437
301.28438
301.2844
301.28441
301.28442
301.28442
301.34636
301.34636
301.34637
301.34638
301.34639
301.3464
301.34641
301.34643
301.34643
301.34643
301.3978
301.3978
301.39781
301.39782
301.39783
301.39784
301.39785
301.39786
301.39787
301.39786
301.4375
301.4375
301.43751
301.43752
301.43753
301.43754
301.43755
301.43756
301.43756
301.43756
301.46452
301.46452
301.46453
301.46454
301.46455
301.46456
301.46457
301.46457
301.46457
301.46457
301.4782
301.47821
301.47821
301.47822
301.47823
301.47824
301.47825
301.47825
301.47825
301.47825
304.4776
304.4776
304.47761
304.47761
304.47761
304.47761
304.47762
304.47762
304.47761
304.47761
304.48669
304.48669
304.4867
304.4867
304.4867
304.4867
304.4867
304.48671
304.4867
304.4867
304.50483
304.50483
304.50484
304.50484
304.50484
304.50485
304.50485
304.50485
304.50485
304.50485
304.53196
304.53196
304.53196
304.53197
304.53197
304.53198
304.53198
304.53198
304.53198
304.53198
304.56796
304.56797
304.56797
304.56797
304.56798
304.56798
304.56798
304.56799
304.56799
304.56799
304.6127
304.6127
304.61271
304.61271
304.61271
304.61272
304.61272
304.61273
304.61273
304.61273
304.66599
304.66599
304.66599
304.66599
304.666
304.666
304.66601
304.66602
304.66602
304.66602
304.72758
304.72758
304.72759
304.72759
304.7276
304.7276
304.72761
304.72762
304.72762
304.72762
304.7972
304.7972
304.7972
304.79721
304.79721
304.79722
304.79723
304.79724
304.79724
304.79724
304.87449
304.87449
304.8745
304.8745
304.8745
304.87451
304.87452
304.87453
304.87454
304.87454
304.95905
304.95905
304.95906
304.95906
304.95906
304.95907
304.95908
304.95909
304.9591
304.95909
305.05039
305.05039
305.0504
305.0504
305.0504
305.05041
305.05042
305.05043
305.05043
305.05043
305.14794
305.14794
305.14795
305.14795
305.14795
305.14796
305.14797
305.14798
305.14799
305.14799
305.25105
305.25105
305.25106
305.25106
305.25106
305.25107
305.25108
305.2511
305.2511
305.2511
305.35896
305.35896
305.35896
305.35897
305.35897
305.35898
305.359
305.35901
305.35902
305.35901
305.4708
305.4708
305.47081
305.47081
305.47082
305.47083
305.47084
305.47085
305.47086
305.47086
305.58559
305.58559
305.58559
305.5856
305.58561
305.58562
305.58563
305.58564
305.58565
305.58565
305.7022
305.70221
305.70221
305.70222
305.70223
305.70224
305.70225
305.70226
305.70227
305.70226
305.8194
305.8194
305.81941
305.81942
305.81943
305.81943
305.81945
305.81946
305.81946
305.81946
305.93579
305.93579
305.9358
305.9358
305.93581
305.93582
305.93583
305.93584
305.93584
305.93584
306.04984
306.04984
306.04985
306.04985
306.04986
306.04987
306.04988
306.04988
306.04989
306.04988
306.15991
306.15991
306.15991
306.15992
306.15993
306.15993
306.15994
306.15995
306.15995
306.15995
306.26425
306.26425
306.26426
306.26426
306.26427
306.26428
306.26429
306.2643
306.2643
306.2643
306.36105
306.36105
306.36106
306.36107
306.36107
306.36108
306.36109
306.3611
306.3611
306.3611
306.44847
306.44847
306.44848
306.44848
306.44849
306.4485
306.44851
306.44852
306.44852
306.44852
306.5247
306.52471
306.52472
306.52472
306.52473
306.52474
306.52475
306.52476
306.52476
306.52475
306.58807
306.58807
306.58808
306.58809
306.5881
306.5881
306.58811
306.58811
306.58811
306.58811
306.63705
306.63705
306.63706
306.63707
306.63708
306.63709
306.63709
306.6371
306.63709
306.63709
306.67044
306.67044
306.67045
306.67046
306.67046
306.67047
306.67047
306.67047
306.67047
306.67047
306.68736
306.68736
306.68737
306.68737
306.68738
306.68738
306.68739
306.68739
306.68739
306.68738
309.29607
309.29607
309.29608
309.29608
309.29608
309.29608
309.29608
309.29607
309.29607
309.29606
309.30665
309.30665
309.30666
309.30666
309.30666
309.30666
309.30666
309.30666
309.30665
309.30665
309.32779
309.32779
309.32779
309.32779
309.32779
309.32779
309.32779
309.32779
309.32779
309.32778
309.35939
309.35939
309.35939
309.35939
309.35939
309.35939
309.35939
309.35939
309.35939
309.35939
309.40135
309.40134
309.40135
309.40135
309.40135
309.40135
309.40135
309.40135
309.40135
309.40135
309.4535
309.4535
309.4535
309.4535
309.4535
309.4535
309.45351
309.45351
309.45351
309.45351
309.51565
309.51564
309.51565
309.51565
309.51565
309.51565
309.51566
309.51566
309.51567
309.51567
309.58753
309.58753
309.58752
309.58753
309.58753
309.58753
309.58754
309.58755
309.58755
309.58755
309.66882
309.66882
309.66882
309.66882
309.66883
309.66883
309.66884
309.66884
309.66885
309.66885
309.75915
309.75915
309.75916
309.75916
309.75916
309.75916
309.75917
309.75918
309.75918
309.75919
309.85807
309.85807
309.85808
309.85808
309.85808
309.85808
309.85809
309.8581
309.8581
309.8581
309.96504
309.96504
309.96504
309.96504
309.96504
309.96504
309.96505
309.96506
309.96506
309.96506
310.07941
310.07941
310.07941
310.07941
310.07942
310.07942
310.07943
310.07944
310.07944
310.07944
310.20047
310.20047
310.20047
310.20047
310.20047
310.20048
310.20049
310.20049
310.2005
310.2005
310.32736
310.32736
310.32736
310.32736
310.32736
310.32736
310.32737
310.32738
310.32739
310.32739
310.45909
310.45909
310.4591
310.4591
310.4591
310.4591
310.45911
310.45912
310.45913
310.45913
310.59456
310.59456
310.59456
310.59456
310.59457
310.59457
310.59458
310.59459
310.59459
310.59459
310.73246
310.73247
310.73247
310.73247
310.73248
310.73248
310.73249
310.7325
310.7325
310.7325
310.87138
310.87138
310.87138
310.87138
310.87139
310.87139
310.8714
310.8714
310.8714
310.8714
311.00967
311.00967
311.00967
311.00967
311.00968
311.00968
311.00969
311.00969
311.00969
311.00969
311.14555
311.14555
311.14555
311.14555
311.14555
311.14556
311.14556
311.14557
311.14557
311.14557
311.27705
311.27705
311.27705
311.27706
311.27706
311.27706
311.27707
311.27707
311.27707
311.27707
311.40208
311.40208
311.40208
311.40208
311.40209
311.40209
311.4021
311.4021
311.4021
311.4021
311.51841
311.51841
311.51842
311.51842
311.51842
311.51843
311.51843
311.51844
311.51844
311.51844
311.62378
311.62378
311.62379
311.62379
311.6238
311.6238
311.62381
311.62381
311.62381
311.62381
311.71594
311.71594
311.71594
311.71594
311.71595
311.71596
311.71596
311.71596
311.71596
311.71596
311.79272
311.79272
311.79273
311.79273
311.79274
311.79274
311.79274
311.79275
311.79274
311.79274
311.85221
311.85221
311.85222
311.85222
311.85223
311.85223
311.85224
311.85223
311.85223
311.85223
311.89283
311.89283
311.89283
311.89284
311.89284
311.89284
311.89285
311.89284
311.89284
311.89284
311.91343
311.91343
311.91344
311.91344
311.91344
311.91345
311.91345
311.91345
311.91344
311.91345
314.10395
314.10395
314.10396
314.10396
314.10396
314.10395
314.10395
314.10395
314.10394
314.10394
314.11607
314.11607
314.11607
314.11607
314.11607
314.11607
314.11607
314.11606
314.11606
314.11605
314.14027
314.14027
314.14027
314.14027
314.14027
314.14027
314.14026
314.14026
314.14026
314.14026
314.17646
314.17646
314.17646
314.17646
314.17646
314.17646
314.17646
314.17645
314.17645
314.17645
314.22453
314.22453
314.22453
314.22453
314.22453
314.22453
314.22453
314.22453
314.22453
314.22453
314.28431
314.2843
314.2843
314.2843
314.2843
314.2843
314.2843
314.28431
314.28431
314.28431
314.35557
314.35557
314.35557
314.35557
314.35557
314.35557
314.35557
314.35558
314.35558
314.35558
314.43805
314.43805
314.43805
314.43805
314.43805
314.43805
314.43805
314.43806
314.43807
314.43807
314.53141
314.53141
314.5314
314.5314
314.5314
314.53141
314.53141
314.53142
314.53143
314.53143
314.63524
314.63523
314.63523
314.63523
314.63523
314.63524
314.63524
314.63525
314.63526
314.63526
314.74905
314.74905
314.74905
314.74905
314.74905
314.74905
314.74906
314.74906
314.74907
314.74907
314.87226
314.87226
314.87226
314.87226
314.87226
314.87226
314.87227
314.87227
314.87228
314.87228
315.0042
315.0042
315.0042
315.00419
315.00419
315.0042
315.0042
315.00421
315.00421
315.00421
315.14406
315.14406
315.14406
315.14405
315.14405
315.14405
315.14406
315.14406
315.14407
315.14407
315.29091
315.29091
315.2909
315.2909
315.2909
315.2909
315.29091
315.29091
315.29092
315.29092
315.44366
315.44366
315.44366
315.44366
315.44366
315.44366
315.44367
315.44367
315.44367
315.44368
315.60108
315.60108
315.60108
315.60108
315.60108
315.60108
315.60109
315.60109
315.60109
315.60109
315.76173
315.76173
315.76173
315.76173
315.76173
315.76173
315.76173
315.76174
315.76174
315.76174
315.92397
315.92397
315.92397
315.92397
315.92397
315.92397
315.92398
315.92398
315.92398
315.92398
316.08596
316.08596
316.08596
316.08596
316.08596
316.08596
316.08596
316.08597
316.08597
316.08597
316.24563
316.24562
316.24562
316.24562
316.24562
316.24562
316.24562
316.24562
316.24563
316.24562
316.40067
316.40067
316.40067
316.40066
316.40066
316.40066
316.40067
316.40067
316.40067
316.40067
316.5486
316.5486
316.5486
316.54859
316.54859
316.5486
316.5486
316.5486
316.5486
316.5486
316.68674
316.68674
316.68674
316.68674
316.68674
316.68674
316.68675
316.68675
316.68675
316.68674
316.81233
316.81232
316.81232
316.81232
316.81233
316.81233
316.81233
316.81233
316.81233
316.81233
316.92254
316.92254
316.92254
316.92254
316.92254
316.92255
316.92255
316.92254
316.92254
316.92254
317.01467
317.01467
317.01467
317.01468
317.01468
317.01468
317.01468
317.01468
317.01468
317.01468
317.08626
317.08626
317.08626
317.08626
317.08626
317.08626
317.08626
317.08626
317.08626
317.08626
317.13523
317.13523
317.13524
317.13524
317.13524
317.13524
317.13524
317.13524
317.13524
317.13524
317.16012
317.16012
317.16012
317.16011
317.16012
317.16012
317.16012
317.16012
317.16012
317.16012
318.89972
318.89972
318.89972
318.89972
318.89972
318.89972
318.89971
318.89971
318.89971
318.8997
318.91341
318.9134
318.91341
318.91341
318.91341
318.91341
318.9134
318.9134
318.9134
318.91339
318.94075
318.94075
318.94075
318.94075
318.94075
318.94075
318.94075
318.94074
318.94074
318.94074
318.98166
318.98166
318.98166
318.98166
318.98166
318.98166
318.98165
318.98165
318.98165
318.98165
319.03601
319.03601
319.03601
319.03601
319.03601
319.03601
319.03601
319.036
319.03601
319.03601
319.10363
319.10363
319.10363
319.10362
319.10362
319.10362
319.10362
319.10363
319.10363
319.10363
319.18429
319.18429
319.18429
319.18428
319.18428
319.18428
319.18429
319.18429
319.18429
319.1843
319.27771
319.27771
319.2777
319.2777
319.2777
319.2777
319.27771
319.27771
319.27772
319.27772
319.38353
319.38353
319.38352
319.38352
319.38352
319.38353
319.38353
319.38354
319.38354
319.38355
319.50134
319.50133
319.50133
319.50133
319.50133
319.50134
319.50134
319.50135
319.50135
319.50136
319.63062
319.63062
319.63062
319.63062
319.63062
319.63062
319.63063
319.63063
319.63063
319.63064
319.77077
319.77077
319.77077
319.77077
319.77077
319.77077
319.77077
319.77078
319.77078
319.77078
319.92107
319.92106
319.92106
319.92106
319.92106
319.92106
319.92106
319.92107
319.92107
319.92107
320.08066
320.08065
320.08065
320.08065
320.08064
320.08065
320.08065
320.08065
320.08066
320.08066
320.24855
320.24854
320.24854
320.24853
320.24853
320.24853
320.24854
320.24854
320.24855
320.24855
320.42357
320.42357
320.42356
320.42356
320.42356
320.42356
320.42357
320.42357
320.42357
320.42357
320.60438
320.60437
320.60437
320.60437
320.60437
320.60437
320.60437
320.60438
320.60438
320.60438
320.7894
320.78939
320.78939
320.78939
320.78939
320.78939
320.7894
320.7894
320.7894
320.7894
320.97682
320.97682
320.97682
320.97681
320.97681
320.97682
320.97682
320.97682
320.97682
320.97682
321.16458
321.16458
321.16457
321.16457
321.16457
321.16457
321.16457
321.16458
321.16458
321.16458
321.35032
321.35031
321.35031
321.35031
321.35031
321.35031
321.35031
321.35031
321.35031
321.35031
321.5314
321.5314
321.53139
321.53139
321.53139
321.53139
321.53139
321.53139
321.53139
321.53139
321.7049
321.7049
321.70489
321.70489
321.70489
321.70489
321.70489
321.70489
321.70489
321.70489
321.86764
321.86763
321.86763
321.86763
321.86763
321.86763
321.86763
321.86763
321.86763
321.86763
322.01624
322.01624