/*--------------------------------*- C++ -*----------------------------------*\
| =========                 |                                                 |
| \\      /  F ield         | OpenFOAM: The Open Source CFD Toolbox           |
|  \\    /   O peration     | Version:  v2106                                 |
|   \\  /    A nd           | Website:  www.openfoam.com                      |
|    \\/     M anipulation  |                                                 |
\*---------------------------------------------------------------------------*/
FoamFile
{
    version     2.0;
    format      ascii;
    arch        "LSB;label=32;scalar=64";
    class       volVectorField;
    location    "70";
    object      flux;
}
// * * * * * * * * * * * * * * * * * * * * * * * * * * * * * * * * * * * * * //

dimensions      [0 1 -1 1 0 0 0];

internalField   nonuniform List<vector> 
4000
(
(-3.5567213e-07 -3.5567214e-07 0.72226267)
(-7.8147545e-07 -3.1534583e-07 0.72226005)
(-3.9350546e-07 -3.0599761e-07 0.72225878)
(-2.132012e-07 -3.0236722e-07 0.72225803)
(-6.8127236e-08 -3.0023752e-07 0.72225768)
(5.8065894e-08 -2.9828802e-07 0.72225768)
(1.6574669e-07 -2.9563314e-07 0.72225799)
(2.443753e-07 -2.9075276e-07 0.72225856)
(2.6101776e-07 -2.797621e-07 0.7222593)
(8.2572666e-08 -2.5302694e-07 0.72226)
(-3.1534583e-07 -7.8147544e-07 0.72226005)
(-7.0696365e-07 -7.0696366e-07 0.72225774)
(-3.7403753e-07 -6.8356528e-07 0.72225654)
(-2.0456107e-07 -6.7201662e-07 0.72225582)
(-6.2008436e-08 -6.6414864e-07 0.72225548)
(6.4972468e-08 -6.5671019e-07 0.7222555)
(1.7704957e-07 -6.4725738e-07 0.72225583)
(2.6818185e-07 -6.3212973e-07 0.72225645)
(3.1760649e-07 -6.0392308e-07 0.72225728)
(1.0930783e-07 -5.4926258e-07 0.72225822)
(-3.0599761e-07 -3.9350546e-07 0.72225878)
(-6.8356528e-07 -3.7403754e-07 0.72225654)
(-3.5855843e-07 -3.5855844e-07 0.7222554)
(-1.9378456e-07 -3.4694577e-07 0.7222547)
(-5.2820806e-08 -3.3723576e-07 0.72225439)
(7.4957157e-08 -3.2769343e-07 0.72225443)
(1.9032715e-07 -3.1666723e-07 0.7222548)
(2.877096e-07 -3.0232101e-07 0.72225545)
(3.4388491e-07 -2.8317224e-07 0.72225634)
(1.19013e-07 -2.622392e-07 0.72225736)
(-3.0236722e-07 -2.132012e-07 0.72225803)
(-6.7201663e-07 -2.0456107e-07 0.72225582)
(-3.4694576e-07 -1.9378456e-07 0.7222547)
(-1.8323839e-07 -1.832384e-07 0.72225404)
(-4.2756097e-08 -1.7317735e-07 0.72225376)
(8.5541e-08 -1.631172e-07 0.72225382)
(2.0242199e-07 -1.5238578e-07 0.72225421)
(3.0167685e-07 -1.4052253e-07 0.7222549)
(3.5768831e-07 -1.2807301e-07 0.72225583)
(1.2326319e-07 -1.1825163e-07 0.72225689)
(-3.0023752e-07 -6.8127224e-08 0.72225768)
(-6.6414864e-07 -6.2008435e-08 0.72225548)
(-3.3723576e-07 -5.2820799e-08 0.72225439)
(-1.7317735e-07 -4.2756093e-08 0.72225376)
(-3.2699604e-08 -3.2699604e-08 0.7222535)
(9.5748731e-08 -2.2759731e-08 0.72225359)
(2.1292182e-07 -1.2805776e-08 0.72225401)
(3.1202237e-07 -2.9480806e-09 0.72225472)
(3.6615581e-07 5.9350287e-09 0.72225568)
(1.2556059e-07 1.1751109e-08 0.72225676)
(-2.9828802e-07 5.8065898e-08 0.72225768)
(-6.567102e-07 6.4972466e-08 0.7222555)
(-3.2769342e-07 7.4957151e-08 0.72225443)
(-1.631172e-07 8.5540984e-08 0.72225382)
(-2.2759736e-08 9.5748724e-08 0.72225359)
(1.0543483e-07 1.0543482e-07 0.72225371)
(2.2223364e-07 1.1467725e-07 0.72225415)
(3.2041765e-07 1.2332784e-07 0.72225489)
(3.723875e-07 1.3064413e-07 0.72225587)
(1.2714058e-07 1.3512822e-07 0.72225696)
(-2.9563314e-07 1.6574668e-07 0.72225799)
(-6.4725739e-07 1.7704957e-07 0.72225583)
(-3.1666724e-07 1.9032715e-07 0.7222548)
(-1.5238578e-07 2.02422e-07 0.72225421)
(-1.2805769e-08 2.1292182e-07 0.72225401)
(1.1467726e-07 2.2223364e-07 0.72225415)
(2.3081484e-07 2.3081484e-07 0.72225462)
(3.2798925e-07 2.3882605e-07 0.72225538)
(3.7795619e-07 2.4581827e-07 0.72225638)
(1.2854998e-07 2.5037826e-07 0.72225748)
(-2.9075277e-07 2.4437529e-07 0.72225856)
(-6.3212974e-07 2.6818184e-07 0.72225645)
(-3.0232099e-07 2.877096e-07 0.72225545)
(-1.4052252e-07 3.0167686e-07 0.7222549)
(-2.9480961e-09 3.1202237e-07 0.72225472)
(1.2332784e-07 3.2041765e-07 0.72225489)
(2.3882606e-07 3.2798925e-07 0.72225538)
(3.3542108e-07 3.3542109e-07 0.72225616)
(3.839397e-07 3.427877e-07 0.72225718)
(1.3018057e-07 3.4865136e-07 0.72225829)
(-2.7976211e-07 2.6101775e-07 0.7222593)
(-6.0392308e-07 3.1760649e-07 0.72225728)
(-2.8317222e-07 3.4388491e-07 0.72225634)
(-1.2807301e-07 3.5768829e-07 0.72225583)
(5.9350205e-09 3.6615581e-07 0.72225568)
(1.3064413e-07 3.723875e-07 0.72225587)
(2.4581827e-07 3.7795618e-07 0.72225638)
(3.427877e-07 3.839397e-07 0.72225718)
(3.9118646e-07 3.9118647e-07 0.72225822)
(1.3245909e-07 3.9912065e-07 0.72225935)
(-2.5302694e-07 8.2572667e-08 0.72226)
(-5.4926258e-07 1.0930783e-07 0.72225822)
(-2.6223919e-07 1.19013e-07 0.72225736)
(-1.1825162e-07 1.2326318e-07 0.72225689)
(1.1751112e-08 1.2556059e-07 0.72225676)
(1.3512822e-07 1.2714058e-07 0.72225696)
(2.5037826e-07 1.2854998e-07 0.72225748)
(3.4865137e-07 1.3018057e-07 0.72225829)
(3.9912065e-07 1.324591e-07 0.72225935)
(1.3547002e-07 1.3547003e-07 0.72226051)
(-1.5623547e-06 -1.5623547e-06 1.074394)
(-3.5017689e-06 -1.3658378e-06 1.0743907)
(-1.8554767e-06 -1.3222772e-06 1.074389)
(-1.0221779e-06 -1.3051085e-06 1.074388)
(-3.2182082e-07 -1.2947652e-06 1.0743875)
(2.9720382e-07 -1.2852001e-06 1.0743875)
(8.325285e-07 -1.2720911e-06 1.074388)
(1.2393354e-06 -1.2475631e-06 1.0743889)
(1.3800364e-06 -1.1891609e-06 1.0743901)
(4.5276205e-07 -1.0209618e-06 1.0743915)
(-1.3658378e-06 -3.5017689e-06 1.0743907)
(-3.1416527e-06 -3.1416527e-06 1.0743879)
(-1.7643829e-06 -3.0323641e-06 1.0743863)
(-9.809099e-07 -2.9772275e-06 1.0743853)
(-2.9195819e-07 -2.938914e-06 1.0743848)
(3.3121501e-07 -2.9024235e-06 1.0743848)
(8.8898405e-07 -2.8558458e-06 1.0743854)
(1.3637306e-06 -2.7804988e-06 1.0743863)
(1.7199384e-06 -2.6346935e-06 1.0743877)
(6.2096124e-07 -2.3124332e-06 1.0743895)
(-1.3222772e-06 -1.8554767e-06 1.074389)
(-3.0323641e-06 -1.7643829e-06 1.0743863)
(-1.6910515e-06 -1.6910515e-06 1.0743847)
(-9.2872782e-07 -1.6348402e-06 1.0743838)
(-2.4701676e-07 -1.5873856e-06 1.0743833)
(3.8027202e-07 -1.5405639e-06 1.0743834)
(9.5445319e-07 -1.4863441e-06 1.074384)
(1.4604877e-06 -1.4156208e-06 1.074385)
(1.848102e-06 -1.3208735e-06 1.0743865)
(6.6760225e-07 -1.2197715e-06 1.0743884)
(-1.3051085e-06 -1.0221779e-06 1.074388)
(-2.9772275e-06 -9.8090991e-07 1.0743853)
(-1.6348402e-06 -9.2872783e-07 1.0743838)
(-8.7724406e-07 -8.7724406e-07 1.0743828)
(-1.9768186e-07 -8.279411e-07 1.0743824)
(4.3225658e-07 -7.7854746e-07 1.0743826)
(1.0139271e-06 -7.2580047e-07 1.0743832)
(1.5292012e-06 -6.674495e-07 1.0743843)
(1.9157878e-06 -6.0621158e-07 1.0743858)
(6.8836256e-07 -5.5814464e-07 1.0743877)
(-1.2947652e-06 -3.2182082e-07 1.0743875)
(-2.938914e-06 -2.9195818e-07 1.0743848)
(-1.5873856e-06 -2.4701676e-07 1.0743833)
(-8.2794109e-07 -1.9768186e-07 1.0743824)
(-1.4832016e-07 -1.4832016e-07 1.0743821)
(4.8241265e-07 -9.9481853e-08 1.0743823)
(1.0655511e-06 -5.0533575e-08 1.0743829)
(1.5800766e-06 -2.0248865e-09 1.074384)
(1.9574068e-06 4.1705692e-08 1.0743856)
(6.9964688e-07 7.0327297e-08 1.0743875)
(-1.2852001e-06 2.9720382e-07 1.0743875)
(-2.9024235e-06 3.3121502e-07 1.0743848)
(-1.5405639e-06 3.8027203e-07 1.0743834)
(-7.7854747e-07 4.3225658e-07 1.0743826)
(-9.9481854e-08 4.8241265e-07 1.0743823)
(5.3004317e-07 5.3004317e-07 1.0743825)
(1.111384e-06 5.7554877e-07 1.0743832)
(1.6214405e-06 6.1822263e-07 1.0743843)
(1.98814e-06 6.5441996e-07 1.0743859)
(7.0744363e-07 6.7669082e-07 1.0743879)
(-1.2720911e-06 8.325285e-07 1.074388)
(-2.8558458e-06 8.8898405e-07 1.0743854)
(-1.4863441e-06 9.5445319e-07 1.074384)
(-7.2580048e-07 1.0139271e-06 1.0743832)
(-5.0533579e-08 1.0655511e-06 1.0743829)
(5.7554877e-07 1.111384e-06 1.0743832)
(1.1537306e-06 1.1537306e-06 1.0743839)
(1.6589478e-06 1.1934786e-06 1.0743851)
(2.015875e-06 1.2285457e-06 1.0743867)
(7.1449412e-07 1.2518641e-06 1.0743887)
(-1.2475631e-06 1.2393354e-06 1.0743889)
(-2.7804988e-06 1.3637306e-06 1.0743863)
(-1.4156208e-06 1.4604877e-06 1.074385)
(-6.6744951e-07 1.5292012e-06 1.0743843)
(-2.0248925e-09 1.5800766e-06 1.074384)
(6.1822263e-07 1.6214405e-06 1.0743843)
(1.1934786e-06 1.6589478e-06 1.0743851)
(1.6962555e-06 1.6962555e-06 1.0743863)
(2.0465255e-06 1.7343821e-06 1.0743879)
(7.2298928e-07 1.7668175e-06 1.07439)
(-1.1891609e-06 1.3800364e-06 1.0743901)
(-2.6346935e-06 1.7199384e-06 1.0743877)
(-1.3208735e-06 1.848102e-06 1.0743865)
(-6.0621158e-07 1.9157878e-06 1.0743858)
(4.1705683e-08 1.9574069e-06 1.0743856)
(6.5441995e-07 1.98814e-06 1.0743859)
(1.2285457e-06 2.015875e-06 1.0743867)
(1.7343821e-06 2.0465255e-06 1.0743879)
(2.0864371e-06 2.0864371e-06 1.0743896)
(7.3611776e-07 2.1396029e-06 1.0743917)
(-1.0209618e-06 4.5276206e-07 1.0743915)
(-2.3124332e-06 6.2096124e-07 1.0743895)
(-1.2197715e-06 6.6760225e-07 1.0743884)
(-5.5814464e-07 6.8836255e-07 1.0743877)
(7.0327313e-08 6.9964688e-07 1.0743875)
(6.7669081e-07 7.0744364e-07 1.0743879)
(1.2518641e-06 7.1449413e-07 1.0743887)
(1.7668175e-06 7.2298929e-07 1.07439)
(2.1396029e-06 7.3611776e-07 1.0743917)
(7.5843319e-07 7.5843319e-07 1.0743939)
(-2.5369488e-06 -2.5369488e-06 1.0744446)
(-5.761391e-06 -2.218156e-06 1.0744419)
(-3.1514637e-06 -2.1463417e-06 1.0744403)
(-1.7469787e-06 -2.1170709e-06 1.0744394)
(-5.2169202e-07 -2.098934e-06 1.074439)
(5.8496865e-07 -2.0818939e-06 1.0744391)
(1.5670271e-06 -2.058337e-06 1.0744396)
(2.3690662e-06 -2.0138873e-06 1.0744406)
(2.835386e-06 -1.9068598e-06 1.074442)
(9.8544605e-07 -1.5945464e-06 1.0744436)
(-2.218156e-06 -5.761391e-06 1.0744419)
(-5.1754804e-06 -5.1754804e-06 1.0744394)
(-2.999836e-06 -4.993334e-06 1.074438)
(-1.6758672e-06 -4.8984266e-06 1.0744371)
(-4.6892656e-07 -4.8309747e-06 1.0744367)
(6.4586428e-07 -4.7659403e-06 1.0744368)
(1.669037e-06 -4.6823785e-06 1.0744374)
(2.596282e-06 -4.5464332e-06 1.0744384)
(3.4643973e-06 -4.2814291e-06 1.0744399)
(1.2977594e-06 -3.690531e-06 1.074442)
(-2.1463417e-06 -3.1514637e-06 1.0744403)
(-4.993334e-06 -2.9998361e-06 1.074438)
(-2.87441e-06 -2.87441e-06 1.0744366)
(-1.5846194e-06 -2.7762012e-06 1.0744357)
(-3.892057e-07 -2.6921757e-06 1.0744354)
(7.3356486e-07 -2.6086458e-06 1.0744355)
(1.7865341e-06 -2.511532e-06 1.0744362)
(2.7700156e-06 -2.38461e-06 1.0744373)
(3.6912883e-06 -2.2147777e-06 1.0744389)
(1.3793781e-06 -2.0373436e-06 1.0744411)
(-2.1170709e-06 -1.7469787e-06 1.0744394)
(-4.8984266e-06 -1.6758672e-06 1.0744371)
(-2.7762012e-06 -1.5846194e-06 1.0744357)
(-1.4936329e-06 -1.4936329e-06 1.0744349)
(-3.0137109e-07 -1.4059094e-06 1.0744346)
(8.2650802e-07 -1.317659e-06 1.0744348)
(1.8930727e-06 -1.2231893e-06 1.0744355)
(2.8930363e-06 -1.1185809e-06 1.0744366)
(3.8116637e-06 -1.0089512e-06 1.0744383)
(1.4160488e-06 -9.2372483e-07 1.0744405)
(-2.098934e-06 -5.2169201e-07 1.074439)
(-4.8309747e-06 -4.6892655e-07 1.0744367)
(-2.6921757e-06 -3.8920571e-07 1.0744354)
(-1.4059094e-06 -3.013711e-07 1.0744346)
(-2.1323179e-07 -2.1323179e-07 1.0744343)
(9.1628493e-07 -1.2581658e-07 1.0744345)
(1.9856123e-06 -3.8024984e-08 1.0744352)
(2.9842537e-06 4.9119242e-08 1.0744364)
(3.8861443e-06 1.2773518e-07 1.0744381)
(1.4361957e-06 1.7909729e-07 1.0744404)
(-2.0818939e-06 5.8496865e-07 1.0744391)
(-4.7659403e-06 6.458643e-07 1.0744368)
(-2.6086458e-06 7.3356486e-07 1.0744355)
(-1.317659e-06 8.2650802e-07 1.0744348)
(-1.2581657e-07 9.1628493e-07 1.0744345)
(1.0017148e-06 1.0017148e-06 1.0744348)
(2.0680085e-06 1.0835868e-06 1.0744355)
(3.0587965e-06 1.1607181e-06 1.0744368)
(3.9416418e-06 1.2265849e-06 1.0744385)
(1.4502902e-06 1.2674675e-06 1.0744408)
(-2.0583369e-06 1.5670271e-06 1.0744396)
(-4.6823785e-06 1.669037e-06 1.0744374)
(-2.511532e-06 1.7865341e-06 1.0744362)
(-1.2231893e-06 1.8930727e-06 1.0744355)
(-3.8024984e-08 1.9856123e-06 1.0744352)
(1.0835868e-06 2.0680085e-06 1.0744355)
(2.1446156e-06 2.1446156e-06 1.0744363)
(3.1272517e-06 2.2174203e-06 1.0744376)
(3.9928937e-06 2.283197e-06 1.0744394)
(1.4634508e-06 2.3288566e-06 1.0744417)
(-2.0138873e-06 2.3690662e-06 1.0744406)
(-4.5464333e-06 2.5962819e-06 1.0744384)
(-2.38461e-06 2.7700156e-06 1.0744373)
(-1.1185809e-06 2.8930363e-06 1.0744366)
(4.9119244e-08 2.9842537e-06 1.0744364)
(1.1607181e-06 3.0587965e-06 1.0744368)
(2.2174203e-06 3.1272518e-06 1.0744376)
(3.1973779e-06 3.1973779e-06 1.0744389)
(4.0530781e-06 3.273795e-06 1.0744407)
(1.48073e-06 3.3481535e-06 1.074443)
(-1.9068598e-06 2.835386e-06 1.074442)
(-4.281429e-06 3.4643973e-06 1.0744399)
(-2.2147777e-06 3.6912883e-06 1.0744389)
(-1.0089512e-06 3.8116638e-06 1.0744383)
(1.2773518e-07 3.8861443e-06 1.0744381)
(1.2265849e-06 3.9416418e-06 1.0744385)
(2.283197e-06 3.9928937e-06 1.0744394)
(3.273795e-06 4.0530781e-06 1.0744407)
(4.1436693e-06 4.1436693e-06 1.0744425)
(1.5130232e-06 4.3141163e-06 1.0744449)
(-1.5945464e-06 9.8544606e-07 1.0744436)
(-3.690531e-06 1.2977594e-06 1.074442)
(-2.0373436e-06 1.3793781e-06 1.0744411)
(-9.2372484e-07 1.4160488e-06 1.0744405)
(1.7909728e-07 1.4361957e-06 1.0744404)
(1.2674675e-06 1.4502902e-06 1.0744408)
(2.3288566e-06 1.4634508e-06 1.0744417)
(3.3481535e-06 1.48073e-06 1.074443)
(4.3141163e-06 1.5130232e-06 1.0744449)
(1.5943613e-06 1.5943613e-06 1.0744475)
(-3.419277e-06 -3.419277e-06 1.0745256)
(-7.7965882e-06 -2.990209e-06 1.074523)
(-4.3050249e-06 -2.8932011e-06 1.0745216)
(-2.3765548e-06 -2.8528782e-06 1.0745208)
(-6.5212295e-07 -2.8273631e-06 1.0745205)
(9.3375765e-07 -2.8030377e-06 1.0745206)
(2.3707312e-06 -2.7691307e-06 1.0745212)
(3.5934453e-06 -2.7047805e-06 1.0745223)
(4.4111469e-06 -2.5489829e-06 1.0745237)
(1.5611701e-06 -2.0919322e-06 1.0745255)
(-2.990209e-06 -7.7965882e-06 1.074523)
(-7.0074744e-06 -7.0074744e-06 1.0745208)
(-4.0990288e-06 -6.759925e-06 1.0745195)
(-2.2777979e-06 -6.628323e-06 1.0745187)
(-5.7736209e-07 -6.5331197e-06 1.0745183)
(1.0211063e-06 -6.4402514e-06 1.0745185)
(2.5181169e-06 -6.3201389e-06 1.0745192)
(3.923667e-06 -6.1238925e-06 1.0745203)
(5.3304194e-06 -5.7398863e-06 1.0745219)
(2.0182208e-06 -4.8804514e-06 1.074524)
(-2.8932011e-06 -4.3050249e-06 1.0745216)
(-6.759925e-06 -4.0990288e-06 1.0745195)
(-3.9258735e-06 -3.9258735e-06 1.0745182)
(-2.1497496e-06 -3.7881915e-06 1.0745175)
(-4.6405134e-07 -3.6690008e-06 1.0745172)
(1.1467385e-06 -3.5496041e-06 1.0745174)
(2.6870901e-06 -3.4101917e-06 1.0745181)
(4.1736979e-06 -3.2276279e-06 1.0745192)
(5.654588e-06 -2.9835041e-06 1.0745209)
(2.1341267e-06 -2.7313368e-06 1.0745232)
(-2.8528782e-06 -2.3765548e-06 1.0745208)
(-6.628323e-06 -2.2777979e-06 1.0745187)
(-3.7881915e-06 -2.1497496e-06 1.0745175)
(-2.0209252e-06 -2.0209252e-06 1.0745167)
(-3.3877468e-07 -1.8958947e-06 1.0745165)
(1.2799154e-06 -1.7695385e-06 1.0745167)
(2.840093e-06 -1.6338944e-06 1.0745175)
(4.3503545e-06 -1.4835081e-06 1.0745187)
(5.8267105e-06 -1.3260466e-06 1.0745204)
(2.1863324e-06 -1.204413e-06 1.0745227)
(-2.8273631e-06 -6.5212295e-07 1.0745205)
(-6.5331197e-06 -5.7736209e-07 1.0745183)
(-3.6690008e-06 -4.6405135e-07 1.0745172)
(-1.8958947e-06 -3.3877468e-07 1.0745165)
(-2.1266465e-07 -2.1266467e-07 1.0745163)
(1.4087388e-06 -8.7234442e-08 1.0745166)
(2.9731205e-06 3.9047564e-08 1.0745173)
(4.4815457e-06 1.6463792e-07 1.0745186)
(5.933683e-06 2.7803778e-07 1.0745204)
(2.2152158e-06 3.5202822e-07 1.0745227)
(-2.8030377e-06 9.3375764e-07 1.0745206)
(-6.4402514e-06 1.0211063e-06 1.0745185)
(-3.5496041e-06 1.1467385e-06 1.0745174)
(-1.7695385e-06 1.2799154e-06 1.0745167)
(-8.7234447e-08 1.4087388e-06 1.0745166)
(1.5316276e-06 1.5316276e-06 1.0745169)
(3.0919654e-06 1.6498193e-06 1.0745177)
(4.5893447e-06 1.7617043e-06 1.074519)
(6.0141008e-06 1.857838e-06 1.0745208)
(2.2356593e-06 1.9179162e-06 1.0745232)
(-2.7691307e-06 2.3707311e-06 1.0745212)
(-6.3201389e-06 2.5181169e-06 1.0745192)
(-3.4101917e-06 2.6870901e-06 1.0745181)
(-1.6338944e-06 2.840093e-06 1.0745175)
(3.904756e-08 2.9731205e-06 1.0745173)
(1.6498193e-06 3.0919654e-06 1.0745177)
(3.2031972e-06 3.2031972e-06 1.0745185)
(4.6895644e-06 3.310133e-06 1.0745198)
(6.089895e-06 3.408528e-06 1.0745217)
(2.2552679e-06 3.478606e-06 1.0745241)
(-2.7047805e-06 3.5934453e-06 1.0745223)
(-6.1238925e-06 3.923667e-06 1.0745203)
(-3.2276279e-06 4.1736979e-06 1.0745192)
(-1.483508e-06 4.3503545e-06 1.0745187)
(1.6463791e-07 4.4815457e-06 1.0745186)
(1.7617042e-06 4.5893447e-06 1.074519)
(3.310133e-06 4.6895644e-06 1.0745198)
(4.7946755e-06 4.7946755e-06 1.0745212)
(6.1825738e-06 4.9136986e-06 1.0745231)
(2.282378e-06 5.0356988e-06 1.0745255)
(-2.5489829e-06 4.4111469e-06 1.0745237)
(-5.7398863e-06 5.3304194e-06 1.0745219)
(-2.9835041e-06 5.654588e-06 1.0745209)
(-1.3260466e-06 5.8267105e-06 1.0745204)
(2.7803778e-07 5.933683e-06 1.0745204)
(1.857838e-06 6.0141008e-06 1.0745208)
(3.408528e-06 6.089895e-06 1.0745217)
(4.9136986e-06 6.1825738e-06 1.0745231)
(6.3309183e-06 6.3309183e-06 1.074525)
(2.3366014e-06 6.6299814e-06 1.0745275)
(-2.0919322e-06 1.5611701e-06 1.0745255)
(-4.8804514e-06 2.0182208e-06 1.074524)
(-2.7313368e-06 2.1341267e-06 1.0745232)
(-1.204413e-06 2.1863324e-06 1.0745227)
(3.5202821e-07 2.2152158e-06 1.0745227)
(1.9179162e-06 2.2356593e-06 1.0745232)
(3.478606e-06 2.2552679e-06 1.0745241)
(5.0356988e-06 2.282378e-06 1.0745255)
(6.6299814e-06 2.3366013e-06 1.0745275)
(2.4817534e-06 2.4817534e-06 1.0745302)
(-4.252724e-06 -4.252724e-06 1.0746356)
(-9.6963923e-06 -3.7175299e-06 1.0746331)
(-5.3471117e-06 -3.5967985e-06 1.0746319)
(-2.9187929e-06 -3.5460999e-06 1.0746311)
(-7.1438523e-07 -3.5135509e-06 1.0746309)
(1.3394509e-06 -3.4821533e-06 1.0746311)
(3.2276786e-06 -3.4380883e-06 1.0746317)
(4.8712727e-06 -3.3541243e-06 1.0746328)
(6.0319766e-06 -3.1502365e-06 1.0746343)
(2.1490228e-06 -2.5506683e-06 1.0746361)
(-3.7175299e-06 -9.6963923e-06 1.0746331)
(-8.7125041e-06 -8.7125041e-06 1.074631)
(-5.0899668e-06 -8.4035386e-06 1.0746298)
(-2.7939215e-06 -8.2373972e-06 1.0746291)
(-6.1846537e-07 -8.1156687e-06 1.0746289)
(1.4526448e-06 -7.9957789e-06 1.0746291)
(3.4197221e-06 -7.83984e-06 1.0746298)
(5.3030504e-06 -7.5842484e-06 1.0746309)
(7.2371605e-06 -7.0830479e-06 1.0746326)
(2.7485909e-06 -5.9594746e-06 1.0746347)
(-3.5967985e-06 -5.3471117e-06 1.0746319)
(-8.4035386e-06 -5.0899668e-06 1.0746298)
(-4.8720048e-06 -4.8720048e-06 1.0746287)
(-2.630923e-06 -4.6969017e-06 1.074628)
(-4.7276694e-07 -4.5439234e-06 1.0746278)
(1.6152796e-06 -4.3896624e-06 1.0746281)
(3.6392091e-06 -4.2088309e-06 1.0746288)
(5.6280648e-06 -3.9716101e-06 1.07463)
(7.6567504e-06 -3.6545104e-06 1.0746317)
(2.8980717e-06 -3.3291957e-06 1.074634)
(-3.5460999e-06 -2.9187929e-06 1.0746311)
(-8.2373972e-06 -2.7939215e-06 1.0746291)
(-4.6969017e-06 -2.630923e-06 1.074628)
(-2.4658401e-06 -2.4658401e-06 1.0746274)
(-3.1122599e-07 -2.3047234e-06 1.0746272)
(1.7877373e-06 -2.1412142e-06 1.0746275)
(3.8377743e-06 -1.9652056e-06 1.0746283)
(5.8573709e-06 -1.7698243e-06 1.0746295)
(7.8795749e-06 -1.5653571e-06 1.0746313)
(2.9654674e-06 -1.4080657e-06 1.0746336)
(-3.5135509e-06 -7.1438524e-07 1.0746309)
(-8.1156687e-06 -6.1846538e-07 1.0746289)
(-4.5439234e-06 -4.7276696e-07 1.0746278)
(-2.3047234e-06 -3.1122599e-07 1.0746272)
(-1.4814103e-07 -1.4814104e-07 1.0746271)
(1.9547974e-06 1.4513901e-08 1.0746274)
(4.0105989e-06 1.7867325e-07 1.0746282)
(6.0279134e-06 3.4223241e-07 1.0746295)
(8.018509e-06 4.9003813e-07 1.0746313)
(3.0029327e-06 5.8638579e-07 1.0746337)
(-3.4821533e-06 1.3394509e-06 1.0746311)
(-7.9957789e-06 1.4526448e-06 1.0746291)
(-4.3896624e-06 1.6152795e-06 1.0746281)
(-2.1412142e-06 1.7877373e-06 1.0746275)
(1.4513895e-08 1.9547974e-06 1.0746274)
(2.1145516e-06 2.1145516e-06 1.0746278)
(4.1654928e-06 2.2687178e-06 1.0746286)
(6.1687358e-06 2.4152652e-06 1.0746299)
(8.1237283e-06 2.5417749e-06 1.0746318)
(3.0296992e-06 2.6211898e-06 1.0746341)
(-3.4380883e-06 3.2276786e-06 1.0746317)
(-7.83984e-06 3.4197221e-06 1.0746298)
(-4.2088309e-06 3.6392091e-06 1.0746288)
(-1.9652056e-06 3.8377743e-06 1.0746283)
(1.7867326e-07 4.0105989e-06 1.0746282)
(2.2687178e-06 4.1654928e-06 1.0746286)
(4.3113126e-06 4.3113126e-06 1.0746295)
(6.3009704e-06 4.4527655e-06 1.0746308)
(8.2244335e-06 4.5845205e-06 1.0746327)
(3.0558759e-06 4.6796943e-06 1.0746351)
(-3.3541243e-06 4.8712727e-06 1.0746328)
(-7.5842484e-06 5.3030504e-06 1.0746309)
(-3.9716101e-06 5.6280649e-06 1.07463)
(-1.7698243e-06 5.8573709e-06 1.0746295)
(3.4223241e-07 6.0279133e-06 1.0746295)
(2.4152652e-06 6.1687358e-06 1.0746299)
(4.4527655e-06 6.3009704e-06 1.0746308)
(6.4419438e-06 6.4419438e-06 1.0746322)
(8.3506571e-06 6.6050364e-06 1.0746341)
(3.0931484e-06 6.7758921e-06 1.0746366)
(-3.1502365e-06 6.0319766e-06 1.0746343)
(-7.0830479e-06 7.2371605e-06 1.0746326)
(-3.6545104e-06 7.6567504e-06 1.0746317)
(-1.5653571e-06 7.8795749e-06 1.0746313)
(4.9003812e-07 8.018509e-06 1.0746313)
(2.5417749e-06 8.1237283e-06 1.0746318)
(4.5845206e-06 8.2244335e-06 1.0746327)
(6.6050364e-06 8.3506571e-06 1.0746341)
(8.5583819e-06 8.5583819e-06 1.0746361)
(3.1697797e-06 8.9858103e-06 1.0746386)
(-2.5506683e-06 2.1490228e-06 1.0746361)
(-5.9594746e-06 2.7485909e-06 1.0746347)
(-3.3291957e-06 2.8980717e-06 1.074634)
(-1.4080657e-06 2.9654674e-06 1.0746336)
(5.8638577e-07 3.0029327e-06 1.0746337)
(2.6211898e-06 3.0296992e-06 1.0746341)
(4.6796944e-06 3.0558759e-06 1.0746351)
(6.7758921e-06 3.0931484e-06 1.0746366)
(8.9858103e-06 3.1697797e-06 1.0746386)
(3.3781007e-06 3.3781007e-06 1.0746413)
(-5.046532e-06 -5.046532e-06 1.0747735)
(-1.1487354e-05 -4.4085691e-06 1.0747712)
(-6.2977245e-06 -4.2651399e-06 1.0747701)
(-3.385393e-06 -4.20457e-06 1.0747694)
(-7.1725932e-07 -4.165289e-06 1.0747692)
(1.7905824e-06 -4.1270539e-06 1.0747694)
(4.1184482e-06 -4.0731025e-06 1.0747701)
(6.1710794e-06 -3.970008e-06 1.0747712)
(7.6577443e-06 -3.7192196e-06 1.0747727)
(2.7349978e-06 -2.9807659e-06 1.0747745)
(-4.4085691e-06 -1.1487354e-05 1.0747712)
(-1.0315266e-05 -1.0315266e-05 1.0747692)
(-5.9917259e-06 -9.947716e-06 1.0747681)
(-3.2356166e-06 -9.7487142e-06 1.0747675)
(-6.0098524e-07 -9.6015777e-06 1.0747673)
(1.928862e-06 -9.4555673e-06 1.0747675)
(4.3540172e-06 -9.2647841e-06 1.0747683)
(6.7019038e-06 -8.9513409e-06 1.0747694)
(9.1416073e-06 -8.3358904e-06 1.0747711)
(3.4734515e-06 -6.9550253e-06 1.0747732)
(-4.2651399e-06 -6.2977245e-06 1.0747701)
(-9.947716e-06 -5.9917259e-06 1.0747681)
(-5.7311726e-06 -5.7311725e-06 1.0747671)
(-3.0392547e-06 -5.5203904e-06 1.0747665)
(-4.2411244e-07 -5.3349681e-06 1.0747663)
(2.127376e-06 -5.1469807e-06 1.0747666)
(4.6226747e-06 -4.9258797e-06 1.0747674)
(7.0999731e-06 -4.635406e-06 1.0747686)
(9.6540599e-06 -4.247209e-06 1.0747703)
(3.6555747e-06 -3.8507727e-06 1.0747725)
(-4.20457e-06 -3.385393e-06 1.0747694)
(-9.7487142e-06 -3.2356166e-06 1.0747675)
(-5.5203904e-06 -3.0392547e-06 1.0747665)
(-2.8394122e-06 -2.8394122e-06 1.0747659)
(-2.2757554e-07 -2.6435036e-06 1.0747658)
(2.3379503e-06 -2.4439757e-06 1.0747661)
(4.8655919e-06 -2.2286772e-06 1.0747669)
(7.3805746e-06 -1.9894131e-06 1.0747682)
(9.9262406e-06 -1.7391019e-06 1.0747699)
(3.7377424e-06 -1.5470957e-06 1.0747722)
(-4.165289e-06 -7.1725933e-07 1.0747692)
(-9.6015777e-06 -6.0098524e-07 1.0747673)
(-5.3349681e-06 -4.2411245e-07 1.0747663)
(-2.6435036e-06 -2.2757554e-07 1.0747658)
(-2.867594e-08 -2.867594e-08 1.0747657)
(2.5422024e-06 1.7018662e-07 1.0747661)
(5.0772373e-06 3.7132709e-07 1.0747669)
(7.5895484e-06 5.7205131e-07 1.0747682)
(1.0096377e-05 7.535663e-07 1.07477)
(3.7835788e-06 8.7179828e-07 1.0747723)
(-4.1270539e-06 1.7905824e-06 1.0747694)
(-9.4555673e-06 1.928862e-06 1.0747675)
(-5.1469807e-06 2.127376e-06 1.0747666)
(-2.4439757e-06 2.3379503e-06 1.0747661)
(1.7018662e-07 2.5422024e-06 1.0747661)
(2.7379534e-06 2.7379534e-06 1.0747665)
(5.2674566e-06 2.9274085e-06 1.0747673)
(7.7628138e-06 3.1081052e-06 1.0747687)
(1.0225988e-05 3.2646334e-06 1.0747705)
(3.8165637e-06 3.3631742e-06 1.0747728)
(-4.0731025e-06 4.1184482e-06 1.0747701)
(-9.2647841e-06 4.3540172e-06 1.0747683)
(-4.9258797e-06 4.6226747e-06 1.0747674)
(-2.2286771e-06 4.8655919e-06 1.0747669)
(3.7132711e-07 5.0772373e-06 1.0747669)
(2.9274085e-06 5.2674566e-06 1.0747673)
(5.4473891e-06 5.4473891e-06 1.0747682)
(7.9267733e-06 5.6231095e-06 1.0747696)
(1.0351446e-05 5.7881263e-06 1.0747715)
(3.8492726e-06 5.9083235e-06 1.0747738)
(-3.970008e-06 6.1710794e-06 1.0747712)
(-8.9513409e-06 6.7019038e-06 1.0747694)
(-4.635406e-06 7.0999731e-06 1.0747686)
(-1.9894131e-06 7.3805746e-06 1.0747682)
(5.7205131e-07 7.5895484e-06 1.0747682)
(3.1081052e-06 7.7628138e-06 1.0747687)
(5.6231095e-06 7.9267733e-06 1.0747696)
(8.103551e-06 8.103551e-06 1.074771)
(1.0511202e-05 8.3107078e-06 1.0747729)
(3.8966952e-06 8.5301404e-06 1.0747753)
(-3.7192196e-06 7.6577443e-06 1.0747727)
(-8.3358904e-06 9.1416073e-06 1.0747711)
(-4.247209e-06 9.6540599e-06 1.0747703)
(-1.7391018e-06 9.9262406e-06 1.0747699)
(7.5356631e-07 1.0096377e-05 1.07477)
(3.2646334e-06 1.0225988e-05 1.0747705)
(5.7881263e-06 1.0351446e-05 1.0747715)
(8.3107078e-06 1.0511202e-05 1.0747729)
(1.0778036e-05 1.0778036e-05 1.0747749)
(3.9955611e-06 1.1332023e-05 1.0747773)
(-2.9807658e-06 2.7349978e-06 1.0747745)
(-6.9550253e-06 3.4734516e-06 1.0747732)
(-3.8507728e-06 3.6555747e-06 1.0747725)
(-1.5470957e-06 3.7377424e-06 1.0747722)
(8.7179828e-07 3.7835788e-06 1.0747723)
(3.3631742e-06 3.8165637e-06 1.0747728)
(5.9083236e-06 3.8492726e-06 1.0747738)
(8.5301404e-06 3.8966952e-06 1.0747753)
(1.1332023e-05 3.9955611e-06 1.0747773)
(4.2660204e-06 4.2660204e-06 1.07478)
(-5.8012139e-06 -5.8012139e-06 1.0749383)
(-1.3175997e-05 -5.0642506e-06 1.0749361)
(-7.1680362e-06 -4.8990977e-06 1.074935)
(-3.7867657e-06 -4.8291153e-06 1.0749344)
(-6.7140642e-07 -4.783397e-06 1.0749342)
(2.2738307e-06 -4.7385861e-06 1.0749345)
(5.0247884e-06 -4.6750887e-06 1.0749352)
(7.4690047e-06 -4.5534988e-06 1.0749363)
(9.2624929e-06 -4.2573664e-06 1.0749378)
(3.3106306e-06 -3.3846568e-06 1.0749395)
(-5.0642506e-06 -1.3175997e-05 1.0749361)
(-1.1822823e-05 -1.1822823e-05 1.0749342)
(-6.8153333e-06 -1.139931e-05 1.0749331)
(-3.6132147e-06 -1.1168988e-05 1.0749326)
(-5.3561256e-07 -1.0997552e-05 1.0749324)
(2.4362931e-06 -1.0826426e-05 1.0749327)
(5.3024192e-06 -1.0602012e-05 1.0749335)
(8.0955882e-06 -1.0232655e-05 1.0749346)
(1.1015756e-05 -9.5067769e-06 1.0749362)
(4.1833402e-06 -7.8773027e-06 1.0749383)
(-4.8990977e-06 -7.1680362e-06 1.074935)
(-1.139931e-05 -6.8153333e-06 1.0749331)
(-6.514201e-06 -6.514201e-06 1.0749322)
(-3.3850072e-06 -6.2693888e-06 1.0749316)
(-3.2884428e-07 -6.0529015e-06 1.0749315)
(2.6693706e-06 -5.8324727e-06 1.0749319)
(5.6185593e-06 -5.5725094e-06 1.0749326)
(8.5642396e-06 -5.2305745e-06 1.0749339)
(1.1617845e-05 -4.7736817e-06 1.0749355)
(4.3969468e-06 -4.3086348e-06 1.0749377)
(-4.8291153e-06 -3.7867656e-06 1.0749344)
(-1.1168988e-05 -3.6132147e-06 1.0749326)
(-6.2693889e-06 -3.3850072e-06 1.0749316)
(-3.1519152e-06 -3.1519152e-06 1.0749311)
(-9.8696434e-08 -2.9226117e-06 1.0749311)
(2.9166853e-06 -2.6883851e-06 1.0749314)
(5.9043174e-06 -2.4351317e-06 1.0749322)
(8.8944158e-06 -2.1534206e-06 1.0749335)
(1.1937695e-05 -1.8587684e-06 1.0749352)
(4.4933715e-06 -1.6332301e-06 1.0749375)
(-4.783397e-06 -6.7140643e-07 1.0749342)
(-1.0997552e-05 -5.3561257e-07 1.0749324)
(-6.0529015e-06 -3.2884427e-07 1.0749315)
(-2.9226117e-06 -9.8696434e-08 1.0749311)
(1.3468582e-07 1.3468582e-07 1.074931)
(3.1568505e-06 3.6851236e-07 1.0749314)
(6.1535238e-06 6.0545869e-07 1.0749323)
(9.1406029e-06 8.4222845e-07 1.0749336)
(1.2138035e-05 1.0564536e-06 1.0749354)
(4.5473057e-06 1.1959031e-06 1.0749376)
(-4.738586e-06 2.2738307e-06 1.0749345)
(-1.0826426e-05 2.4362931e-06 1.0749327)
(-5.8324727e-06 2.6693706e-06 1.0749319)
(-2.6883851e-06 2.9166853e-06 1.0749314)
(3.6851236e-07 3.1568506e-06 1.0749314)
(3.3874581e-06 3.3874581e-06 1.0749319)
(6.3780335e-06 3.6111931e-06 1.0749327)
(9.3454107e-06 3.8251531e-06 1.0749341)
(1.229137e-05 4.0109692e-06 1.0749359)
(4.5863378e-06 4.1281721e-06 1.0749382)
(-4.6750887e-06 5.0247884e-06 1.0749352)
(-1.0602012e-05 5.3024192e-06 1.0749335)
(-5.5725093e-06 5.6185593e-06 1.0749326)
(-2.4351317e-06 5.9043174e-06 1.0749322)
(6.054587e-07 6.1535238e-06 1.0749323)
(3.6111931e-06 6.3780335e-06 1.0749327)
(6.5912188e-06 6.5912188e-06 1.0749337)
(9.540379e-06 6.8004703e-06 1.074935)
(1.2441054e-05 6.9981035e-06 1.0749369)
(4.625441e-06 7.142835e-06 1.0749391)
(-4.5534988e-06 7.4690047e-06 1.0749363)
(-1.0232655e-05 8.0955882e-06 1.0749346)
(-5.2305745e-06 8.5642396e-06 1.0749339)
(-2.1534206e-06 8.8944157e-06 1.0749335)
(8.4222845e-07 9.1406029e-06 1.0749336)
(3.8251531e-06 9.3454107e-06 1.0749341)
(6.8004703e-06 9.540379e-06 1.074935)
(9.7522955e-06 9.7522955e-06 1.0749364)
(1.2633735e-05 1.000273e-05 1.0749383)
(4.6828255e-06 1.0269771e-05 1.0749406)
(-4.2573664e-06 9.2624928e-06 1.0749378)
(-9.5067769e-06 1.1015756e-05 1.0749362)
(-4.7736817e-06 1.1617845e-05 1.0749355)
(-1.8587684e-06 1.1937695e-05 1.0749352)
(1.0564537e-06 1.2138035e-05 1.0749354)
(4.0109692e-06 1.229137e-05 1.0749359)
(6.9981035e-06 1.2441054e-05 1.0749369)
(1.000273e-05 1.2633735e-05 1.0749383)
(1.295853e-05 1.295853e-05 1.0749402)
(4.803469e-06 1.3636269e-05 1.0749426)
(-3.3846568e-06 3.3106306e-06 1.0749395)
(-7.8773027e-06 4.1833402e-06 1.0749383)
(-4.3086348e-06 4.3969468e-06 1.0749377)
(-1.63323e-06 4.4933715e-06 1.0749375)
(1.1959031e-06 4.5473057e-06 1.0749376)
(4.1281721e-06 4.5863378e-06 1.0749382)
(7.142835e-06 4.625441e-06 1.0749391)
(1.0269771e-05 4.6828255e-06 1.0749406)
(1.3636269e-05 4.8034689e-06 1.0749426)
(5.1346514e-06 5.1346514e-06 1.0749452)
(-6.5145416e-06 -6.5145416e-06 1.0751285)
(-1.4761112e-05 -5.6829504e-06 1.0751264)
(-7.9637759e-06 -5.4971222e-06 1.0751254)
(-4.1309725e-06 -5.4181999e-06 1.0751249)
(-5.8685843e-07 -5.3663547e-06 1.0751248)
(2.7765186e-06 -5.3152615e-06 1.0751251)
(5.9307441e-06 -5.2426214e-06 1.0751258)
(8.7462189e-06 -5.1033021e-06 1.0751269)
(1.0827006e-05 -4.7636972e-06 1.0751283)
(3.8697678e-06 -3.7622621e-06 1.0751299)
(-5.6829504e-06 -1.4761112e-05 1.0751264)
(-1.3234983e-05 -1.3234983e-05 1.0751246)
(-7.5666501e-06 -1.275827e-05 1.0751237)
(-3.9348213e-06 -1.2498206e-05 1.0751232)