/*--------------------------------*- C++ -*----------------------------------*\
| =========                 |                                                 |
| \\      /  F ield         | OpenFOAM: The Open Source CFD Toolbox           |
|  \\    /   O peration     | Version:  v2106                                 |
|   \\  /    A nd           | Website:  www.openfoam.com                      |
|    \\/     M anipulation  |                                                 |
\*---------------------------------------------------------------------------*/
FoamFile
{
    version     2.0;
    format      ascii;
    arch        "LSB;label=32;scalar=64";
    class       volScalarField;
    location    "70";
    object      gradTx;
}
// * * * * * * * * * * * * * * * * * * * * * * * * * * * * * * * * * * * * * //

dimensions      [0 -1 0 1 0 0 0];

internalField   nonuniform List<scalar> 
4000
(
-0.00027892601
-0.00061285045
-0.00030859575
-0.00016719713
-5.3426896e-05
4.5536567e-05
0.00012998224
0.00019164455
0.00020469594
6.4755324e-05
-0.00024730122
-0.00055441665
-0.00029332857
-0.00016042135
-4.8628397e-05
5.0952857e-05
0.00013884622
0.00021031419
0.00024907409
8.5721636e-05
-0.00023997014
-0.00053606713
-0.00028118951
-0.00015197017
-4.1423253e-05
5.8783073e-05
0.00014925879
0.00022562828
0.00026968221
9.3332647e-05
-0.00023712311
-0.00052701041
-0.0002720826
-0.00014369963
-3.3530284e-05
6.7083158e-05
0.00015874384
0.00023658171
0.00028050714
9.6665741e-05
-0.00023545295
-0.00052084016
-0.0002644678
-0.00013580954
-2.5643758e-05
7.5088289e-05
0.00016697803
0.00024469489
0.00028714755
9.8467412e-05
-0.00023392411
-0.00051500677
-0.00025698448
-0.00012792014
-1.7848692e-05
8.2684341e-05
0.00017428058
0.00025127866
0.00029203457
9.9706474e-05
-0.0002318421
-0.00050759367
-0.00024833751
-0.00011950433
-1.0042569e-05
8.9932459e-05
0.00018101014
0.00025721648
0.00029640166
0.00010081176
-0.0002280148
-0.00049573023
-0.00023708686
-0.00011020089
-2.3119627e-06
9.6716443e-05
0.00018729272
0.00026304469
0.00030109407
0.0001020905
-0.00021939568
-0.00047360993
-0.00022206997
-0.00010043771
4.6543753e-06
0.00010245404
0.00019277617
0.00026882175
0.00030677714
0.00010387737
-0.00019842936
-0.00043074396
-0.00020565382
-9.2735559e-05
9.2154835e-06
0.00010597056
0.00019635221
0.00027342017
0.0003129993
0.00010623861
-0.0012172172
-0.0027281983
-0.0014455861
-0.00079637013
-0.00025072786
0.00023154897
0.00064861588
0.00096555568
0.0010751746
0.00035274305
-0.0010641126
-0.0024476349
-0.0013746157
-0.00076421858
-0.00022746215
0.00025804681
0.00069259993
0.0010624709
0.0013399894
0.00048378562
-0.0010301749
-0.0023624891
-0.0013174839
-0.00072356398
-0.00019244867
0.00029626671
0.00074360639
0.0011378536
0.0014398406
0.00052012324
-0.001016799
-0.0023195327
-0.0012736901
-0.00068345342
-0.00015401227
0.00033676744
0.00078994199
0.0011913877
0.001492574
0.00053629742
-0.0010087406
-0.002289683
-0.0012367187
-0.0006450419
-0.00011555498
0.00037584361
0.00083016187
0.0012310243
0.0015249991
0.00054508894
-0.0010012885
-0.0022612535
-0.0012002402
-0.00060655974
-7.750547e-05
0.00041295215
0.00086586989
0.0012632505
0.001548943
0.00055116332
-0.00099107532
-0.0022249652
-0.0011579981
-0.000565465
-3.9370283e-05
0.00044840517
0.00089886174
0.0012924722
0.0015705511
0.0005566563
-0.00097196578
-0.002166263
-0.0011028982
-0.00052000425
-1.5775766e-06
0.00048165201
0.00092982906
0.0013215383
0.0015944306
0.0005632748
-0.00092646516
-0.0020526673
-0.0010290813
-0.0004722943
3.2492544e-05
0.00050985303
0.00095714949
0.0013512423
0.0016255254
0.00057350308
-0.0007954226
-0.0018015971
-0.00095031361
-0.00043484575
5.4791412e-05
0.00052720406
0.0009753167
0.0013765125
0.0016669464
0.00059088883
-0.0019637503
-0.0044596618
-0.0024394218
-0.0013522662
-0.0004038209
0.00045280081
0.0012129729
0.0018337992
0.0021947587
0.00076279428
-0.0017169856
-0.0040061321
-0.002322053
-0.0012972217
-0.00036297728
0.00049993769
0.0012919347
0.0020096779
0.0026816512
0.0010045436
-0.0016613971
-0.0038651399
-0.0022249657
-0.0012265905
-0.00030126856
0.00056782321
0.0013828846
0.0021441582
0.0028572784
0.0010677213
-0.0016387398
-0.003791676
-0.0021489463
-0.0011561615
-0.00023327931
0.0006397668
0.0014653519
0.0022393836
0.0029504563
0.0010961067
-0.0016247008
-0.0037394642
-0.0020839055
-0.0010882582
-0.0001650542
0.00070925952
0.001536983
0.0023099914
0.0030081088
0.0011117016
-0.0016115107
-0.0036891237
-0.0020192483
-0.0010199471
-9.7389578e-05
0.00077538738
0.0016007627
0.002367692
0.0030510671
0.0011226116
-0.0015932762
-0.0036244418
-0.0019440765
-0.0009468219
-2.9433619e-05
0.00083876119
0.0016600611
0.0024206804
0.0030907391
0.0011327986
-0.0015588695
-0.003519212
-0.0018458312
-0.0008658487
3.8021241e-05
0.00089846545
0.0017164163
0.0024749622
0.0031373254
0.0011461737
-0.0014760237
-0.0033140828
-0.0017143707
-0.00078098877
9.887469e-05
0.00094945025
0.0017673314
0.0025341136
0.0032074484
0.0011711706
-0.0012342745
-0.0028566922
-0.001577026
-0.0007150184
0.00013863203
0.00098109585
0.0018026746
0.0025916715
0.0033393844
0.0012341311
-0.0026298489
-0.0059965454
-0.0033110993
-0.0018278662
-0.00050156363
0.00071817573
0.001823387
0.0027638061
0.0033927203
0.0012007338
-0.0022998424
-0.0053896191
-0.0031526629
-0.0017519099
-0.00044406326
0.00078535773
0.0019367451
0.0030177878
0.0040997552
0.0015522627
-0.0022252313
-0.005199223
-0.003019485
-0.0016534249
-0.00035691321
0.00088198456
0.0020667065
0.0032100928
0.0043490813
0.0016414088
-0.0021942181
-0.0050980048
-0.0029135905
-0.0015543429
-0.00026055988
0.00098441416
0.0021843848
0.0033459637
0.004481465
0.0016815614
-0.0021745938
-0.0050247817
-0.002821918
-0.0014581789
-0.00016356557
0.0010834954
0.0022866996
0.0034468661
0.0045637402
0.0017037764
-0.0021558845
-0.0049533543
-0.0027300871
-0.0013609953
-6.7094143e-05
0.0011780122
0.002378106
0.0035297769
0.0046255914
0.0017195
-0.0021298058
-0.0048609728
-0.0026228616
-0.001256668
3.0032431e-05
0.0012689163
0.0024636571
0.0036068583
0.0046838865
0.0017345814
-0.0020803125
-0.0047100348
-0.0024824473
-0.0011410022
0.00012662704
0.0013549697
0.0025459039
0.0036877017
0.0047551679
0.0017554324
-0.0019604847
-0.0044146862
-0.0022946857
-0.0010198947
0.00021384563
0.0014289085
0.0026215818
0.0037792452
0.0048692631
0.0017971368
-0.0016089558
-0.0037536738
-0.0021007375
-0.00092634334
0.00027075346
0.001475116
0.0026754805
0.0038730783
0.0050992796
0.0019087767
-0.0032502779
-0.0074107729
-0.0040866985
-0.0022307794
-0.00054599143
0.0010237176
0.002466855
0.0037230236
0.0046101279
0.0016424582
-0.0028412392
-0.0066588058
-0.0038901677
-0.0021353427
-0.00047268168
0.0011102297
0.0026136305
0.0040530235
0.0055312279
0.0021006971
-0.0027489665
-0.0064226695
-0.0037235835
-0.002010766
-0.00036132707
0.0012345284
0.0027813804
0.0043014262
0.0058519129
0.0022149426
-0.0027102186
-0.0062956908
-0.0035897555
-0.0018845962
-0.0002378643
0.0013663347
0.0029331403
0.0044766807
0.0060222136
0.0022664519
-0.002685342
-0.006202656
-0.003472837
-0.0017614577
-0.00011322146
0.0014940157
0.0030652269
0.0046070231
0.0061283984
0.0022950859
-0.0026613454
-0.0061110264
-0.0033549381
-0.0016364906
1.1092703e-05
0.0016161129
0.0031836095
0.0047146511
0.0062088155
0.002315543
-0.0026276673
-0.0059918451
-0.0032167319
-0.0015019705
0.00013655668
0.0017339393
0.0032950568
0.0048157155
0.0062857826
0.0023355493
-0.0025634951
-0.005796501
-0.0030354284
-0.0013526441
0.00026156192
0.0018459427
0.0034031665
0.0049234586
0.0063822527
0.0023640359
-0.0024076673
-0.0054134425
-0.0027930748
-0.0011963736
0.00037452709
0.0019426316
0.0035038643
0.0050481071
0.0065410126
0.0024226038
-0.0019494285
-0.004554716
-0.0025444427
-0.0010761586
0.0004481638
0.0020033268
0.0035766037
0.0051786887
0.0068676878
0.0025818194
-0.0038329842
-0.0087249721
-0.004783301
-0.0025713024
-0.00054477889
0.0013599983
0.0031280787
0.0046871104
0.0058162744
0.0020773085
-0.0033484336
-0.0078347385
-0.0045508867
-0.0024575432
-0.00045646545
0.0014650257
0.0033070003
0.005090287
0.006943311
0.0026381852
-0.0032394951
-0.007555574
-0.0043529892
-0.0023084008
-0.00032212552
0.0016158029
0.0035110534
0.0053926321
0.0073325336
0.0027765129
-0.0031934907
-0.0074044266
-0.0041928942
-0.0021566147
-0.00017285013
0.0017757401
0.0036955561
0.0056057571
0.0075392627
0.0028389217
-0.0031636556
-0.0072926724
-0.0040520607
-0.0020078165
-2.1780197e-05
0.0019308754
0.0038563068
0.0057644787
0.0076684864
0.0028737358
-0.0031346151
-0.0071817733
-0.0039092789
-0.0018562694
0.00012926161
0.0020795539
0.0040007838
0.0058960786
0.007766929
0.0028987887
-0.0030936374
-0.0070368678
-0.0037413463
-0.001692744
0.00028203355
0.0022234504
0.0041374475
0.0060206104
0.0078622183
0.002923632
-0.003015334
-0.0067987986
-0.0035207231
-0.001511016
0.00043448931
0.0023606946
0.0042709121
0.0061548778
0.0079835566
0.0029596507
-0.002824853
-0.0063313461
-0.0032258762
-0.0013208974
0.0005723551
0.0024795821
0.0043962468
0.006312219
0.0081862243
0.0030347419
-0.0022639763
-0.0052825394
-0.0029247715
-0.0011750632
0.0006621556
0.0025544265
0.0044875397
0.0064788839
0.0086069932
0.0032401632
-0.0043791174
-0.0099460637
-0.0054108807
-0.002858487
-0.00050681946
0.0017164293
0.0037930237
0.0056380705
0.0069919068
0.0024990701
-0.003822812
-0.0089246044
-0.0051446391
-0.0027274801
-0.00040431381
0.0018390662
0.0040025971
0.0061110552
0.0083153794
0.0031578458
-0.0036981444
-0.0086049109
-0.0049173258
-0.0025552149
-0.00024823221
0.0020150077
0.0042412395
0.0064648228
0.0087698741
0.0033190895
-0.0036453175
-0.0084310494
-0.0047325264
-0.0023792626
-7.4502238e-05
0.0022016963
0.0044569477
0.0067140605
0.0090113175
0.003391877
-0.0036108065
-0.0083016389
-0.0045691083
-0.00220617
0.00010166928
0.0023829881
0.0046450643
0.006899898
0.0091625466
0.0034325899
-0.0035769804
-0.0081724621
-0.0044027149
-0.0020293611
0.00027817616
0.0025570651
0.0048145382
0.0070544996
0.0092782931
0.0034620537
-0.0035290486
-0.0080030604
-0.0042064782
-0.0018381896
0.00045703806
0.0027259542
0.0049754636
0.0072016736
0.0093912838
0.0034915711
-0.0034372648
-0.0077242463
-0.0039483642
-0.0016255363
0.00063576664
0.0028874644
0.0051334195
0.0073616411
0.0095367306
0.0035348883
-0.0032137255
-0.0071763081
-0.0036034728
-0.0014031144
0.00079747715
0.0030277298
0.0052826051
0.0075506839
0.0097819059
0.0036259573
-0.0025549497
-0.005946279
-0.0032524261
-0.0012328639
0.00090274225
0.0031162016
0.005391857
0.0077522631
0.010293504
0.003875954
-0.0048877325
-0.011074973
-0.0059750655
-0.0030993881
-0.00044030844
0.0020831677
0.0044497215
0.006562117
0.0081232908
0.0029034107
-0.0042638064
-0.0099299495
-0.0056771103
-0.0029522199
-0.00032445948
0.00222242
0.0046882654
0.0071011087
0.0096325254
0.0036547681
-0.0041243834
-0.0095722815
-0.0054222768
-0.0027582896
-0.00014793983
0.0024220914
0.0049595797
0.0075034619
0.010148633
0.0038376257
-0.0040651697
-0.0093771608
-0.0052143427
-0.0025596602
4.8802899e-05
0.0026340186
0.0052047722
0.0077868305
0.010422864
0.0039202089
-0.0040262713
-0.009231183
-0.0050297171
-0.002363715
0.00024863922
0.0028400225
0.005418781
0.0079983367
0.010594916
0.0039665004
-0.003987937
-0.0090847922
-0.0048410803
-0.0021630812
0.00044920669
0.0030381477
0.0056119658
0.0081747809
0.010727097
0.0040001525
-0.0039334365
-0.0088922594
-0.0046181184
-0.0019457839
0.00065276835
0.0032307571
0.0057959768
0.0083435419
0.01085698
0.0040341312
-0.0038289078
-0.008574934
-0.0043245735
-0.0017038799
0.00085640028
0.0034153436
0.0059773022
0.0085280896
0.011025505
0.0040844354
-0.0035741087
-0.0079509145
-0.0039323966
-0.0014509091
0.0010407188
0.0035759623
0.0061492856
0.0087474922
0.011311392
0.0041908036
-0.0028227514
-0.0065495921
-0.0035342354
-0.001257597
0.0011606342
0.0036774085
0.0062757099
0.0089825009
0.011909937
0.0044834657
-0.0053572011
-0.012110171
-0.006478973
-0.0032992784
-0.00035216032
0.0024517287
0.0050881943
0.0074482715
0.0091996869
0.0032869304
-0.0046701716
-0.010849916
-0.0061515448
-0.003137087
-0.00022386974
0.0026065166
0.0053538613
0.008049087
0.010882949
0.0041250257
-0.0045170312
-0.010456973
-0.0058711652
-0.0029230123
-2.8295332e-05
0.0028283646
0.005655746
0.0084969071
0.011456656
0.0043280728
-0.0044518862
-0.010242109
-0.0056417293
-0.0027032692
0.00018992119
0.0030638876
0.0059285329
0.0088122231
0.011761556
0.0044198123
-0.0044089036
-0.010080707
-0.0054373474
-0.0024860059
0.00041187147
0.0032930218
0.0061668022
0.009047788
0.011953117
0.0044713273
-0.0043663591
-0.0099182435
-0.0052279383
-0.0022631024
0.00063496122
0.0035136946
0.0063822497
0.0092447584
0.012100745
0.0045089149
-0.0043057117
-0.0097040714
-0.0049799763
-0.0020213486
0.00086167843
0.0037285863
0.0065879921
0.009433874
0.012246571
0.0045471053
-0.0041892478
-0.0093506918
-0.0046532667
-0.0017520461
0.0010886781
0.0039348845
0.0067913691
0.009641669
0.01243695
0.004604029
-0.003905168
-0.0086554358
-0.0042168402
-0.0014704677
0.0012942138
0.0041146723
0.0069849026
0.009889839
0.012761451
0.0047249117
-0.0030670727
-0.0070937223
-0.0037746603
-0.0012555859
0.0014278677
0.0042283393
0.0071275738
0.010156549
0.013442503
0.0050580636
-0.0057857282
-0.01304917
-0.0069242865
-0.0034620572
-0.00024800071
0.0028150257
0.0057001635
0.0082875387
0.010212241
0.0036467918
-0.005040472
-0.01168266
-0.0065697679
-0.0032860455
-0.00010822775
0.0029841886
0.0059909568
0.0089456519
0.012056836
0.0045653031
-0.0048747215
-0.011257309
-0.0062659227
-0.0030534294
0.00010493183
0.0032265464
0.0063211432
0.009435568
0.012683814
0.0047870053
-0.0048041263
-0.011024296
-0.0060167032
-0.0028142243
0.00034298265
0.0034838998
0.0066194817
0.0097804672
0.013017091
0.0048872108
-0.0047573804
-0.010848681
-0.0057941015
-0.0025772753
0.00058538473
0.0037344553
0.006880239
0.010038338
0.013226731
0.0049435638
-0.0047109444
-0.010671364
-0.0055654928
-0.0023337714
0.00082933478
0.0039760417
0.0071163614
0.010254386
0.013388718
0.0049848088
-0.0046446051
-0.01043716
-0.0052943902
-0.0020693664
0.0010775266
0.0042116359
0.0073423335
0.010462481
0.013549426
0.0050269323
-0.0045170821
-0.010050384
-0.0049369679
-0.0017746756
0.0013262145
0.0044381362
0.0075662875
0.010692022
0.013760282
0.005090063
-0.004205863
-0.009289131
-0.0044595749
-0.0014665964
0.0015514449
0.0046357785
0.0077799701
0.010967167
0.014121048
0.0052245833
-0.0032873517
-0.0075788107
-0.0039767133
-0.0012317586
0.001697842
0.0047608313
0.0079378514
0.011263644
0.014879659
0.0055958039
-0.0061715715
-0.013889224
-0.0073118801
-0.0035906279
-0.00013235406
0.0031672081
0.0062787522
0.0090724209
0.011153462
0.0039805639
-0.0053732916
-0.012426023
-0.0069327917
-0.0034020649
1.7885744e-05
0.0033495108
0.006592541
0.009782999
0.013145835
0.0049727402
-0.0051961041
-0.011971293
-0.006607671
-0.0031525956
0.00024707636
0.0036106067
0.0069486106
0.010311416
0.013821472
0.0052114653
-0.005120566
-0.011721814
-0.0063404763
-0.0028956704
0.00050322502
0.003887912
0.0072703208
0.010683374
0.014180683
0.0053194015
-0.0050703953
-0.01153326
-0.0061012765
-0.0026407634
0.00076431268
0.0041580651
0.0075516687
0.010961673
0.014406873
0.0053801804
-0.0050204062
-0.011342384
-0.005855137
-0.0023784341
0.0010273492
0.0044188135
0.0078067576
0.011195235
0.014582045
0.0054247834
-0.0049488603
-0.011089862
-0.0055628752
-0.002093305
0.0012952142
0.0046734082
0.0080513335
0.011420815
0.01475648
0.005470537
-0.0048112137
-0.010672525
-0.0051773571
-0.0017753759
0.001563786
0.0049184782
0.0082942595
0.011670464
0.014986309
0.0055394237
-0.0044751415
-0.009850867
-0.0046625002
-0.001443048
0.0018070749
0.005132551
0.0085265625
0.011970622
0.015380766
0.0056866224
-0.0034829652
-0.0080045149
-0.0041425082
-0.0011899753
0.0019651477
0.0052680859
0.008698523
0.01229475
0.016211529
0.0060932651
-0.006513147
-0.014627692
-0.0076421984
-0.0036871981
-8.8661579e-06
0.0035034557
0.006818236
0.0097966201
0.012016961
0.0042861508
-0.005667336
-0.013077886
-0.0072411853
-0.003487414
0.00015077321
0.003697596
0.007152771
0.01055456
0.014142794
0.0053448618
-0.0054799433
-0.012596954
-0.0068970813
-0.0032228599
0.00039436275
0.0039755643
0.0075321728
0.011117685
0.014862234
0.0055988921
-0.0053999939
-0.012332769
-0.0066138047
-0.002950041
0.00066678398
0.0042708419
0.0078749544
0.011514038
0.015244803
0.0057137842
-0.0053467539
-0.012132616
-0.0063597084
-0.0026789913
0.00094469699
0.0045586673
0.0081748868
0.011810778
0.015485924
0.0057785539
-0.0052935677
-0.01192954
-0.0060977939
-0.0023997068
0.0012249469
0.0048367234
0.0084471294
0.012060195
0.015673036
0.0058261969
-0.0052173271
-0.011660507
-0.0057864625
-0.0020958883
0.0015105785
0.0051085115
0.0087085772
0.012301666
0.015859965
0.005875257
-0.0050705444
-0.011215603
-0.0053756105
-0.0017569928
0.001797122
0.0053704137
0.0089687598
0.012569663
0.016107148
0.0059494151
-0.0047120335
-0.010339442
-0.0048269849
-0.0014027953
0.0020567352
0.0055993997
0.0092180454
0.012892724
0.01653253
0.0061082595
-0.0036533225
-0.0083703304
-0.0042736013
-0.0011333026
0.0022253542
0.0057444544
0.0094028726
0.013242228
0.017429617
0.0065474729
-0.0068090856
-0.015262238
-0.0079154951
-0.0037535047
0.00011949711
0.0038197903
0.007313849
0.010454846
0.012797302
0.0045617543
-0.0059214867
-0.013636368
-0.0074953108
-0.0035438836
0.00028742336
0.0040244081
0.0076667786
0.011254812
0.015041621
0.0056795422
-0.0057251721
-0.013132539
-0.0071346056
-0.0032660842
0.00054371096
0.0043173011
0.0080668474
0.011848682
0.015799794
0.0059470867
-0.0056413638
-0.012855479
-0.0068372158
-0.002979273
0.00083050137
0.0046284835
0.0084282959
0.012266645
0.016203031
0.0060681264
-0.0055854246
-0.012645119
-0.0065699951
-0.0026939732
0.0011232974
0.0049319681
0.008744713
0.012579746
0.016457392
0.0061364318
-0.005529413
-0.012431265
-0.0062941378
-0.0023996866
0.0014188019
0.0052253891
0.0090322078
0.012843276
0.016655133
0.0061867815
-0.0054490127
-0.012147608
-0.0059659197
-0.0020793062
0.001720203
0.0055124739
0.0093087056
0.013098957
0.016853256
0.0062388065
-0.0052941265
-0.011678266
-0.0055326205
-0.0017218211
0.0020227138
0.0057893817
0.0095843352
0.013383442
0.017116081
0.006317722
-0.0049157017
-0.010753772
-0.0049540868
-0.0013482414
0.0022968336
0.0060316841
0.0098488719
0.01372717
0.017569445
0.006487114
-0.0037979138
-0.0086757738
-0.0043712105
-0.0010642237
0.0024748163
0.0061852461
0.010045283
0.014099631
0.018526657
0.0069558633
-0.0070582664
-0.015790963
-0.0081319912
-0.0037909797
0.00025028985
0.0041129229
0.0077616368
0.011042685
0.01348991
0.004805854
-0.0061348338
-0.014099948
-0.0076954793
-0.0035729506
0.00042535198
0.0043266093
0.0081305241
0.011879146
0.01583719
0.0059749857
-0.0059309227
-0.013576635
-0.00732063
-0.0032838052
0.00069257879
0.0046324103
0.0085484987
0.012499656
0.016628852
0.0062541925
-0.0058438259
-0.013288587
-0.0070111594
-0.0029849667
0.00099176895
0.0049573561
0.0089261225
0.012936345
0.01704997
0.0063805434
-0.0057855699
-0.01306946
-0.0067326461
-0.0026873747
0.0012974364
0.0052744128
0.0092568462
0.013263651
0.017315816
0.0064519132
-0.0057271178
-0.012846298
-0.0064447424
-0.002380109
0.0016061645
0.0055811823
0.0095576173
0.013539481
0.017522828
0.0065046229
-0.0056431123
-0.012549973
-0.0061018994
-0.0020453723
0.0019212626
0.0058815917
0.0098472676
0.013807618
0.017730786
0.0065592561
-0.0054811929
-0.012059436
-0.0056491439
-0.0016717616
0.0022376593
0.0061716037
0.010136455
0.014106645
0.018007455
0.0066423899
-0.0050854716
-0.011093002
-0.0050447005
-0.0012813779
0.0025243981
0.0064255588
0.010414432
0.014468691
0.018485708
0.0068211738
-0.0039163399
-0.0089204945
-0.0044363639
-0.00098479682
0.0027105174
0.0065865731
0.010621083
0.014861567
0.019496517
0.0073162627
-0.0072598369
-0.016212476
-0.0082919817
-0.0038008701
0.00038146322
0.0043801339
0.0081583471
0.011556512
0.014091018
0.0050171939
-0.0063066951
-0.01446754
-0.007842057
-0.0035758978
0.00056247953
0.0046014408
0.0085406859
0.012423779
0.016525287
0.006229714
-0.0060965466
-0.013928239
-0.0074555797
-0.0032773534
0.00083884012
0.0049180776
0.0089737284
0.013066711
0.017345051
0.0065186832
-0.0060067453
-0.013631138
-0.0071361111
-0.0029685032
0.0011484075
0.005254586
0.0093649659
0.01351916
0.01778119
0.0066494867
-0.005946565
-0.013404723
-0.0068481851
-0.00266063
0.001464879
0.0055830682
0.009707755
0.013858449
0.018056718
0.0067234363
-0.0058860678
-0.013173761
-0.0065501831
-0.0023424644
0.0017847413
0.0059011099
0.010019766
0.014144713
0.018271597
0.0067781488
-0.0057990271
-0.012866779
-0.00619504
-0.0019956394
0.0021114029
0.0062128112
0.01032061
0.014423493
0.018487984
0.0068350208
-0.0056311753
-0.01235838
-0.005725903
-0.0016084378
0.0024395417
0.006513965
0.010621401
0.014735043
0.018776632
0.0069218121
-0.0052208494
-0.011356581
-0.0050996589
-0.0012039009
0.0027369556
0.0067778543
0.010910941
0.015112965
0.019276549
0.0071087833
-0.0040083293
-0.0091043465
-0.0044699998
-0.00089677124
0.0029299488
0.006945231
0.011126436
0.015523609
0.020334146
0.0076268765
-0.0074132255
-0.016525945
-0.0083959076
-0.0037843247
0.00051127348
0.0046191833
0.0085013474
0.011993421
0.01459762
0.0051947734
-0.0064366281
-0.014738545
-0.0079355367
-0.0035539001
0.00069703942
0.0048466329
0.0088945791
0.012885684
0.017102569
0.0064425577
-0.0062216257
-0.014186814
-0.0075399902
-0.0032479388
0.00098069358
0.0051719917
0.0093397936
0.013546735
0.017944946
0.006739354
-0.0061297142
-0.013882628
-0.0072126438
-0.0029311306
0.0012985758
0.0055178169
0.0097420304
0.014011918
0.018393187
0.0068737348
-0.0060680093
-0.013650429
-0.0069172206
-0.0026150263
0.0016237417
0.0058555329
0.010094596
0.014360924
0.018676554
0.0069497697
-0.0060058703
-0.013413208
-0.0066111074
-0.0022880825
0.0019526048
0.0061827249
0.010415765
0.014655709
0.018897866
0.0070061195
-0.0059163763
-0.01309762
-0.0062460366
-0.0019314851
0.0022886497
0.0065036382
0.010725795
0.014943273
0.019121238
0.0070648508
-0.0057437157
-0.012574762
-0.0057636562
-0.0015332804
0.0026263393
0.0068139243
0.011036184
0.01526527
0.01941994
0.0071547213
-0.0053215341
-0.011544306
-0.0051198034
-0.0011172959
0.0029324411
0.0070859867
0.011335356
0.015656549
0.019938193
0.0073486343
-0.0040737498
-0.0092274355
-0.0044730378
-0.00080167231
0.0031310182
0.0072586084
0.011558259
0.016082225
0.021035532
0.0078862807
-0.0075181474
-0.016731132
-0.0084444052
-0.0037424563
0.00063821374
0.004828242
0.0087885623
0.012351176
0.015007441
0.0053378406
-0.006524436
-0.01491288
-0.0079765877
-0.0035080867
0.00082750979
0.0050603367
0.0091900933
0.013262546
0.017566529
0.0066126493
-0.0063059789
-0.014352314
-0.0075745568
-0.0031967127
0.0011165945
0.0053922757
0.0096445447
0.013937354
0.018425961
0.0069153142
-0.0062125576
-0.014043031
-0.0072414763
-0.0028740247
0.0014407027
0.0057451418
0.01005513
0.014412203
0.018883348
0.0070523862
-0.0061497325
-0.01380657
-0.0069404947
-0.0025517657
0.0017724249
0.006089869
0.01041515
0.014768627
0.019172686
0.0071300052
-0.0060863603
-0.01356465
-0.0066282834
-0.0022181942
0.0021081252
0.0064240577
0.010743362
0.015069992
0.019398973
0.0071876209
-0.0059950028
-0.013242536
-0.0062556896
-0.0018541725
0.0024513409
0.0067520703
0.011060538
0.015364445
0.019627859
0.0072478248
-0.0058186729
-0.012708668
-0.0057632463
-0.0014475888
0.0027963569
0.0070694452
0.01137848
0.015694768
0.019934648
0.0073401823
-0.0053874228
-0.011656359
-0.0051060324
-0.0010228993
0.0031091295
0.0073478885
0.011685313
0.016096828
0.020467821
0.0075397592
-0.0041126141
-0.0092901481
-0.004446427
-0.00070086289
0.0033119815
0.0075246178
0.011914155
0.016534729
0.02159767
0.008093415
-0.0075746071
-0.016828404
-0.0084383388
-0.0036763852
0.00076096369
0.0050058406
0.0090184262
0.012628173
0.015318912
0.0054458854
-0.0065701705
-0.01499099
-0.0079660874
-0.0034395847
0.00095256311
0.0052410723
0.009425644
0.013552716
0.017915473
0.0067394159
-0.0063496645
-0.0144252
-0.0075601668
-0.0031248117
0.0012452044
0.0055774356
0.0098863769
0.014236891
0.018786368
0.0070459808
-0.0062553362
-0.014112818
-0.0072235058
-0.0027983335
0.0015734364
0.0059350509
0.010302643
0.014718318
0.019249928
0.0071848527
-0.0061917974
-0.013873626
-0.0069189156
-0.0024720093
0.0019095623
0.0062845504
0.010667777
0.015079842
0.019543356
0.0072635509
-0.0061276032
-0.013628577
-0.0066026325
-0.0021339755
0.0022499196
0.0066235645
0.011000898
0.015385827
0.019773144
0.0073220578
-0.0060349763
-0.013302031
-0.006224937
-0.0017648946
0.002598076
0.0069565442
0.011323156
0.015685254
0.020006055
0.0073833421
-0.0058561247
-0.012760627
-0.0057256337
-0.0013525755
0.0029481753
0.0072789438
0.011646583
0.016021751
0.020318932
0.0074775847
-0.0054186143
-0.011693314
-0.0050593347
-0.00092194332
0.0032655844
0.0075619564
0.01195908
0.016431971
0.020863548
0.007681524
-0.0041250837
-0.0092931704
-0.0043911795
-0.00059558817
0.0034713921
0.0077416432
0.012192371
0.016879244
0.022018535
0.0082475764
-0.0075828973
-0.016818739
-0.0083788209
-0.0035872706
0.00087835195
0.0051508286
0.0091898443
0.012823405
0.015531144
0.0055186336
-0.0065741307
-0.014973862
-0.0079051429
-0.0033495503
0.0010710285
0.0053876887
0.0096001339
0.013755181
0.018148493
0.0068225731
-0.0063529793
-0.01440645
-0.0074979208
-0.0030333892
0.0013653531
0.0057263197
0.010064192
0.01444433
0.019025261
0.0071310709
-0.0062583454
-0.014092962
-0.0071598292
-0.0027052085
0.0016956071
0.0060863913
0.010483467
0.014929246
0.019492018
0.0072708517
-0.0061944991
-0.013852569
-0.0068535791
-0.0023769085
0.0020339827
0.0064384216
0.010851372
0.015293548
0.019787652
0.007350124
-0.0061298943
-0.013605961
-0.0065352507
-0.002036579
0.0023768144
0.0067800859
0.011187264
0.015602188
0.020019467
0.0074091461
-0.0060365924
-0.013277078
-0.0061548764
-0.0016648066
0.0027276773
0.0071158947
0.011512534
0.015904664
0.020254903
0.0074711165
-0.0058563679
-0.012731614
-0.005651918
-0.0012493985
0.0030806122
0.0074412477
0.011839365
0.016245168
0.02057185
0.0075666364
-0.0054154081
-0.011656153
-0.0049808115
-0.00081558785
0.0034006196
0.0077270102
0.012155514
0.016660902
0.021124393
0.0077736207
-0.0041114687
-0.0092374967
-0.0043083936
-0.00048700819
0.0036080613
0.0079084988
0.012391749
0.017114659
0.022297056
0.0083484116
-0.007543595
-0.016703727
-0.0082672238
-0.0034763319
0.00098932738
0.005262343
0.0093021603
0.012936433
0.015643906
0.0055560403
-0.0065368603
-0.014863018
-0.0077951025
-0.0032391912
0.0011818631
0.0054993313
0.0097129209
0.013869533
0.018265439
0.0068621165
-0.0063164561
-0.014297557
-0.0073891448
-0.0029236372
0.0014760101
0.005838086
0.010177363
0.014559288
0.019142527
0.0071705944
-0.0062221128
-0.013984939
-0.0070517558
-0.0025958275
0.0018061968
0.0061983339
0.010596991
0.01504462
0.019609524
0.0073103988
-0.0061583623
-0.013744863
-0.0067457811
-0.002267628
0.0021446803
0.0065506651
0.010965336
0.015409392
0.01990549
0.0073897429
-0.0060937557
-0.013498256
-0.006427422
-0.0019271572
0.0024878148
0.0068928137
0.011301868
0.015718728
0.020137859
0.0074489054
-0.0060003701
-0.01316912
-0.0060467785
-0.0015550488
0.0028391601
0.0072293211
0.011628083
0.016022329
0.020374323
0.0075111673
-0.0058199153
-0.012623054
-0.0055433524
-0.0011391845
0.0031926923
0.0075555614
0.01195624
0.016364671
0.020693319
0.0076073545
-0.0053783031
-0.011546264
-0.0048716913
-0.00070494481
0.003513268
0.0078422578
0.012274026
0.016783265
0.021250256
0.0078160598
-0.0040722268
-0.0091244329
-0.0041992678
-0.00037622206
0.003721028
0.0080243944
0.0125117
0.017240604
0.022433088
0.0083959093
-0.007457555
-0.016485553
-0.0081051856
-0.0033448649
0.0010929364
0.0053397806
0.0093551275
0.012967359
0.015657599
0.0055582827
-0.0064591418
-0.014660508
-0.0076375623
-0.0031097819
0.0012841285
0.0055754144
0.0097637877
0.01389594
0.018266896
0.0068583144
-0.006240858
-0.01410052
-0.0072353969
-0.002796803
0.0015762606
0.0059121742
0.010225708
0.014581986
0.01913882
0.0071648447
-0.006147393
-0.013790719
-0.0069008141
-0.0024714103
0.0019043166
0.0062703452
0.010643062
0.015064697
0.019603135
0.0073037987
-0.006084136
-0.013552458
-0.0065970254
-0.0021453621
0.0022407911
0.0066207722
0.011009541
0.015427654
0.01989758
0.0073827179
-0.0060199316
-0.013307395
-0.006280626
-0.0018068798
0.0025820807
0.0069612619
0.011344603
0.015735746
0.020129047
0.0074416498
-0.0059270467
-0.012980064
-0.0059020946
-0.0014367641
0.0029317078
0.0072963578
0.011669716
0.016038563
0.020365049
0.0075038109
-0.0057474915
-0.012436815
-0.0054013513
-0.001023047
0.0032836218
0.0076214375
0.011997134
0.016380584
0.020684078
0.0076000572
-0.0053079925
-0.011365437
-0.0047333381
-0.00059109632
0.0036027567
0.0079072664
0.012314554
0.016799392
0.021241881
0.0078091606
-0.0040079608
-0.0089555942
-0.0040651117
-0.0002642866
0.0038095332
0.0080889059
0.012552165
0.017257416
0.022427381
0.0083903903
-0.0073259023
-0.016166994
-0.0078946113
-0.0031942529
0.0011883031
0.0053827729
0.0093488812
0.012916798
0.015573233
0.0055257523
-0.00634199
-0.014368899
-0.0074343677
-0.0029626759
0.0013769716
0.0056155962
0.0097529141
0.013835118
0.018154152
0.0068116975
-0.0061271722
-0.013817833
-0.00703847
-0.0026542008
0.0016652858
0.0059482806
0.010209458
0.014513215
0.019015531
0.0071143896
-0.0060351609
-0.013512757
-0.0067087549
-0.0023332325
0.0019891854
0.0063021612
0.010621959
0.014990321
0.019474297
0.0072516353
-0.0059727875
-0.013277781
-0.0064090265
-0.0020113488
0.0023215716
0.0066485169
0.010984304
0.015349218
0.0197654
0.0073296416
-0.0059093819
-0.013035775
-0.0060965412
-0.0016769467
0.0026589054
0.0069852399
0.011315821
0.015654155
0.019994527
0.0073879773
-0.005817572
-0.012712273
-0.0057224615
-0.0013111124
0.0030046503
0.0073168473
0.011637812
0.015954305
0.020228598
0.0074496503
-0.0056400267
-0.012175198
-0.005227496
-0.000902101
0.0033527669
0.0076387488
0.011962453
0.01629387
0.020545665
0.0075453529
-0.0052053589
-0.011115856
-0.0045672582
-0.00047510971
0.0036684843
0.0079219342
0.012277527
0.01671027
0.021100835
0.0077535413
-0.0039194137
-0.0087329003
-0.0039073514
-0.00015223173
0.0038729972
0.0081019472
0.012513591