/*--------------------------------*- C++ -*----------------------------------*\
| =========                 |                                                 |
| \\      /  F ield         | OpenFOAM: The Open Source CFD Toolbox           |
|  \\    /   O peration     | Version:  v2106                                 |
|   \\  /    A nd           | Website:  www.openfoam.com                      |
|    \\/     M anipulation  |                                                 |
\*---------------------------------------------------------------------------*/
FoamFile
{
    version     2.0;
    format      ascii;
    arch        "LSB;label=32;scalar=64";
    class       volVectorField;
    location    "70";
    object      gradT;
}
// * * * * * * * * * * * * * * * * * * * * * * * * * * * * * * * * * * * * * //

dimensions      [0 -1 0 1 0 0 0];

internalField   nonuniform List<vector> 
4000
(
(-0.00027892601 -0.00027892601 566.41447)
(-0.00061285045 -0.00024730123 566.41242)
(-0.00030859575 -0.00023997014 566.41142)
(-0.00016719713 -0.00023712311 566.41083)
(-5.3426896e-05 -0.00023545295 566.41056)
(4.5536567e-05 -0.00023392411 566.41056)
(0.00012998224 -0.00023184209 566.4108)
(0.00019164455 -0.00022801479 566.41125)
(0.00020469594 -0.00021939567 566.41183)
(6.4755324e-05 -0.00019842936 566.41238)
(-0.00024730122 -0.00061285045 566.41242)
(-0.00055441665 -0.00055441665 566.41061)
(-0.00029332857 -0.00053606712 566.40967)
(-0.00016042135 -0.00052701041 566.40911)
(-4.8628397e-05 -0.00052084016 566.40884)
(5.0952857e-05 -0.00051500677 566.40886)
(0.00013884622 -0.00050759366 566.40912)
(0.00021031419 -0.00049573022 566.4096)
(0.00024907409 -0.00047360994 566.41025)
(8.5721636e-05 -0.00043074395 566.41099)
(-0.00023997014 -0.00030859575 566.41142)
(-0.00053606713 -0.00029332857 566.40967)
(-0.00028118951 -0.00028118952 566.40878)
(-0.00015197017 -0.0002720826 566.40823)
(-4.1423253e-05 -0.0002644678 566.40799)
(5.8783073e-05 -0.00025698449 566.40802)
(0.00014925879 -0.0002483375 566.40831)
(0.00022562828 -0.00023708687 566.40882)
(0.00026968221 -0.00022206998 566.40952)
(9.3332647e-05 -0.00020565382 566.41032)
(-0.00023712311 -0.00016719713 566.41083)
(-0.00052701041 -0.00016042135 566.40911)
(-0.0002720826 -0.00015197017 566.40823)
(-0.00014369963 -0.00014369964 566.40771)
(-3.3530284e-05 -0.00013580954 566.40749)
(6.7083158e-05 -0.00012792014 566.40754)
(0.00015874384 -0.00011950432 566.40785)
(0.00023658171 -0.0001102009 566.40839)
(0.00028050714 -0.00010043771 566.40912)
(9.6665741e-05 -9.273556e-05 566.40994)
(-0.00023545295 -5.3426887e-05 566.41056)
(-0.00052084016 -4.8628397e-05 566.40884)
(-0.0002644678 -4.1423248e-05 566.40799)
(-0.00013580954 -3.3530281e-05 566.40749)
(-2.5643758e-05 -2.5643758e-05 566.40729)
(7.5088289e-05 -1.7848689e-05 566.40736)
(0.00016697803 -1.0042575e-05 566.40769)
(0.00024469489 -2.3119505e-06 566.40825)
(0.00028714755 4.6543818e-06 566.409)
(9.8467412e-05 9.2154814e-06 566.40984)
(-0.00023392411 4.5536571e-05 566.41056)
(-0.00051500677 5.0952856e-05 566.40886)
(-0.00025698448 5.8783069e-05 566.40802)
(-0.00012792014 6.7083146e-05 566.40754)
(-1.7848692e-05 7.5088283e-05 566.40736)
(8.2684341e-05 8.2684335e-05 566.40746)
(0.00017428058 8.9932453e-05 566.4078)
(0.00025127866 9.6716443e-05 566.40838)
(0.00029203457 0.00010245404 566.40915)
(9.9706474e-05 0.00010597056 566.41)
(-0.0002318421 0.00012998224 566.4108)
(-0.00050759367 0.00013884622 566.40912)
(-0.00024833751 0.00014925879 566.40831)
(-0.00011950433 0.00015874384 566.40785)
(-1.0042569e-05 0.00016697804 566.40769)
(8.9932459e-05 0.00017428057 566.4078)
(0.00018101014 0.00018101014 566.40817)
(0.00025721648 0.00018729271 566.40876)
(0.00029640166 0.00019277616 566.40955)
(0.00010081176 0.00019635221 566.4104)
(-0.0002280148 0.00019164455 566.41125)
(-0.00049573023 0.00021031418 566.4096)
(-0.00023708686 0.00022562828 566.40882)
(-0.00011020089 0.00023658172 566.40839)
(-2.3119627e-06 0.0002446949 566.40825)
(9.6716443e-05 0.00025127866 566.40838)
(0.00018729272 0.00025721648 566.40876)
(0.00026304469 0.00026304469 566.40938)
(0.00030109407 0.00026882175 566.41017)
(0.0001020905 0.00027342017 566.41104)
(-0.00021939568 0.00020469594 566.41183)
(-0.00047360993 0.00024907408 566.41025)
(-0.00022206997 0.00026968221 566.40952)
(-0.00010043771 0.00028050713 566.40912)
(4.6543753e-06 0.00028714754 566.409)
(0.00010245404 0.00029203457 566.40915)
(0.00019277617 0.00029640166 566.40955)
(0.00026882175 0.00030109407 566.41017)
(0.00030677714 0.00030677714 566.41098)
(0.00010387737 0.0003129993 566.41187)
(-0.00019842936 6.4755325e-05 566.41238)
(-0.00043074396 8.5721636e-05 566.41099)
(-0.00020565382 9.3332643e-05 566.41032)
(-9.2735559e-05 9.6665735e-05 566.40994)
(9.2154835e-06 9.8467411e-05 566.40984)
(0.00010597056 9.9706474e-05 566.41)
(0.00019635221 0.00010081176 566.4104)
(0.00027342017 0.0001020905 566.41104)
(0.0003129993 0.00010387737 566.41187)
(0.00010623861 0.00010623862 566.41278)
(-0.0012172172 -0.0012172172 837.05119)
(-0.0027281983 -0.0010641126 837.04867)
(-0.0014455861 -0.0010301749 837.04735)
(-0.00079637013 -0.001016799 837.04654)
(-0.00025072786 -0.0010087405 837.04616)
(0.00023154897 -0.0010012885 837.04619)
(0.00064861588 -0.00099107532 837.04657)
(0.00096555568 -0.00097196578 837.04727)
(0.0010751746 -0.00092646516 837.04821)
(0.00035274305 -0.0007954226 837.04926)
(-0.0010641126 -0.0027281983 837.04867)
(-0.0024476349 -0.0024476349 837.04646)
(-0.0013746157 -0.0023624891 837.04522)
(-0.00076421858 -0.0023195327 837.04443)
(-0.00022746215 -0.002289683 837.04408)
(0.00025804681 -0.0022612535 837.04412)
(0.00069259993 -0.0022249653 837.04453)
(0.0010624709 -0.002166263 837.04527)
(0.0013399894 -0.0020526673 837.04633)
(0.00048378562 -0.0018015971 837.04771)
(-0.0010301749 -0.0014455861 837.04735)
(-0.0023624891 -0.0013746157 837.04522)
(-0.0013174839 -0.0013174839 837.04402)
(-0.00072356398 -0.0012736901 837.04327)
(-0.00019244867 -0.0012367187 837.04294)
(0.00029626671 -0.0012002402 837.04301)
(0.00074360639 -0.0011579981 837.04345)
(0.0011378536 -0.0011028982 837.04425)
(0.0014398406 -0.0010290813 837.04537)
(0.00052012324 -0.0009503136 837.04683)
(-0.001016799 -0.00079637012 837.04654)
(-0.0023195327 -0.00076421859 837.04443)
(-0.0012736901 -0.00072356398 837.04327)
(-0.00068345342 -0.00068345342 837.04256)
(-0.00015401227 -0.0006450419 837.04226)
(0.00033676744 -0.00060655973 837.04236)
(0.00078994199 -0.000565465 837.04283)
(0.0011913877 -0.00052000425 837.04366)
(0.001492574 -0.0004722943 837.04484)
(0.00053629742 -0.00043484575 837.04633)
(-0.0010087406 -0.00025072786 837.04616)
(-0.002289683 -0.00022746214 837.04408)
(-0.0012367187 -0.00019244867 837.04294)
(-0.0006450419 -0.00015401226 837.04226)
(-0.00011555498 -0.00011555498 837.04199)
(0.00037584361 -7.7505469e-05 837.04212)
(0.00083016187 -3.937028e-05 837.04263)
(0.0012310243 -1.5775719e-06 837.04349)
(0.0015249991 3.2492551e-05 837.04469)
(0.00054508894 5.4791399e-05 837.04621)
(-0.0010012885 0.00023154897 837.04619)
(-0.0022612535 0.00025804681 837.04412)
(-0.0012002402 0.00029626672 837.04301)
(-0.00060655974 0.00033676744 837.04236)
(-7.750547e-05 0.00037584361 837.04212)
(0.00041295215 0.00041295214 837.04228)
(0.00086586989 0.00044840517 837.04281)
(0.0012632505 0.00048165201 837.0437)
(0.001548943 0.00050985303 837.04493)
(0.00055116332 0.00052720407 837.04646)
(-0.00099107532 0.00064861588 837.04657)
(-0.0022249652 0.00069259993 837.04453)
(-0.0011579981 0.00074360639 837.04345)
(-0.000565465 0.00078994199 837.04283)
(-3.9370283e-05 0.00083016187 837.04263)
(0.00044840517 0.00086586989 837.04281)
(0.00089886174 0.00089886173 837.04337)
(0.0012924722 0.00092982906 837.04429)
(0.0015705511 0.00095714949 837.04554)
(0.0005566563 0.0009753167 837.04709)
(-0.00097196578 0.00096555568 837.04727)
(-0.002166263 0.0010624709 837.04527)
(-0.0011028982 0.0011378536 837.04425)
(-0.00052000425 0.0011913877 837.04366)
(-1.5775766e-06 0.0012310243 837.04349)
(0.00048165201 0.0012632505 837.0437)
(0.00092982906 0.0012924722 837.04429)
(0.0013215383 0.0013215383 837.04523)
(0.0015944306 0.0013512423 837.0465)
(0.0005632748 0.0013765125 837.04807)
(-0.00092646516 0.0010751746 837.04821)
(-0.0020526673 0.0013399894 837.04633)
(-0.0010290813 0.0014398406 837.04537)
(-0.0004722943 0.001492574 837.04484)
(3.2492544e-05 0.0015249991 837.04469)
(0.00050985303 0.001548943 837.04493)
(0.00095714949 0.0015705511 837.04554)
(0.0013512423 0.0015944306 837.0465)
(0.0016255254 0.0016255254 837.0478)
(0.00057350308 0.0016669464 837.0494)
(-0.0007954226 0.00035274306 837.04926)
(-0.0018015971 0.00048378562 837.04771)
(-0.00095031361 0.00052012324 837.04683)
(-0.00043484575 0.00053629742 837.04633)
(5.4791412e-05 0.00054508894 837.04621)
(0.00052720406 0.00055116333 837.04646)
(0.0009753167 0.0005566563 837.04709)
(0.0013765125 0.0005632748 837.04807)
(0.0016669464 0.00057350308 837.0494)
(0.00059088883 0.00059088883 837.0511)
(-0.0019637503 -0.0019637503 831.68449)
(-0.0044596618 -0.0017169856 831.68237)
(-0.0024394218 -0.0016613971 831.68122)
(-0.0013522662 -0.0016387398 831.6805)
(-0.0004038209 -0.0016247008 831.68019)
(0.00045280081 -0.0016115107 831.68025)
(0.0012129729 -0.0015932762 831.68067)
(0.0018337992 -0.0015588695 831.68143)
(0.0021947587 -0.0014760237 831.68247)
(0.00076279428 -0.0012342745 831.68375)
(-0.0017169856 -0.0044596618 831.68237)
(-0.0040061321 -0.0040061321 831.68052)
(-0.002322053 -0.0038651399 831.67943)
(-0.0012972217 -0.003791676 831.67874)
(-0.00036297728 -0.0037394642 831.67844)
(0.00049993769 -0.0036891237 831.67852)
(0.0012919347 -0.0036244418 831.67897)
(0.0020096779 -0.003519212 831.67976)
(0.0026816512 -0.0033140828 831.68092)
(0.0010045436 -0.0028566922 831.68252)
(-0.0016613971 -0.0024394218 831.68122)
(-0.0038651399 -0.002322053 831.67943)
(-0.0022249657 -0.0022249657 831.67838)
(-0.0012265905 -0.0021489463 831.67773)
(-0.00030126856 -0.0020839055 831.67745)
(0.00056782321 -0.0020192483 831.67756)
(0.0013828846 -0.0019440764 831.67804)
(0.0021441582 -0.0018458312 831.67888)
(0.0028572784 -0.0017143707 831.68011)
(0.0010677213 -0.001577026 831.68179)
(-0.0016387398 -0.0013522662 831.6805)
(-0.003791676 -0.0012972217 831.67874)
(-0.0021489463 -0.0012265905 831.67773)
(-0.0011561615 -0.0011561615 831.6771)
(-0.00023327931 -0.0010882582 831.67685)
(0.0006397668 -0.0010199471 831.67699)
(0.0014653519 -0.0009468219 831.6775)
(0.0022393836 -0.0008658487 831.67839)
(0.0029504563 -0.00078098877 831.67966)
(0.0010961067 -0.0007150184 831.68137)
(-0.0016247008 -0.00040382089 831.68019)
(-0.0037394642 -0.00036297728 831.67844)
(-0.0020839055 -0.00030126857 831.67745)
(-0.0010882582 -0.00023327931 831.67685)
(-0.0001650542 -0.0001650542 831.67664)
(0.00070925952 -9.7389582e-05 831.67681)
(0.001536983 -2.9433619e-05 831.67735)
(0.0023099914 3.802124e-05 831.67826)
(0.0030081088 9.8874692e-05 831.67956)
(0.0011117016 0.00013863204 831.6813)
(-0.0016115107 0.0004528008 831.68025)
(-0.0036891237 0.00049993771 831.67852)
(-0.0020192483 0.00056782321 831.67756)
(-0.0010199471 0.0006397668 831.67699)
(-9.7389578e-05 0.00070925952 831.67681)
(0.00077538738 0.00077538738 831.677)
(0.0016007627 0.00083876119 831.67757)
(0.002367692 0.00089846545 831.67851)
(0.0030510671 0.00094945025 831.67984)
(0.0011226116 0.00098109584 831.68159)
(-0.0015932762 0.0012129729 831.68067)
(-0.0036244418 0.0012919347 831.67897)
(-0.0019440765 0.0013828846 831.67804)
(-0.0009468219 0.0014653519 831.6775)
(-2.9433619e-05 0.001536983 831.67735)
(0.00083876119 0.0016007627 831.67757)
(0.0016600611 0.0016600611 831.67817)
(0.0024206804 0.0017164163 831.67914)
(0.0030907391 0.0017673314 831.68048)
(0.0011327986 0.0018026746 831.68225)
(-0.0015588695 0.0018337992 831.68143)
(-0.003519212 0.0020096779 831.67976)
(-0.0018458312 0.0021441582 831.67888)
(-0.0008658487 0.0022393836 831.67839)
(3.8021241e-05 0.0023099914 831.67826)
(0.00089846545 0.002367692 831.67851)
(0.0017164163 0.0024206804 831.67914)
(0.0024749622 0.0024749622 831.68013)
(0.0031373254 0.0025341136 831.6815)
(0.0011461737 0.0025916715 831.68329)
(-0.0014760237 0.0021947587 831.68247)
(-0.0033140828 0.0026816512 831.68092)
(-0.0017143707 0.0028572785 831.68011)
(-0.00078098877 0.0029504563 831.67966)
(9.887469e-05 0.0030081088 831.67956)
(0.00094945025 0.0030510671 831.67984)
(0.0017673314 0.0030907392 831.68048)
(0.0025341136 0.0031373254 831.6815)
(0.0032074484 0.0032074484 831.68291)
(0.0011711706 0.0033393845 831.68475)
(-0.0012342745 0.00076279429 831.68375)
(-0.0028566922 0.0010045436 831.68252)
(-0.001577026 0.0010677213 831.68179)
(-0.0007150184 0.0010961067 831.68137)
(0.00013863203 0.0011117016 831.6813)
(0.00098109585 0.0011226116 831.68159)
(0.0018026746 0.0011327986 831.68225)
(0.0025916715 0.0011461737 831.68329)
(0.0033393844 0.0011711706 831.68475)
(0.0012341311 0.0012341311 831.68672)
(-0.0026298489 -0.0026298489 826.44368)
(-0.0059965454 -0.0022998424 826.44175)
(-0.0033110993 -0.0022252313 826.44073)
(-0.0018278662 -0.0021942181 826.4401)
(-0.00050156363 -0.0021745938 826.43985)
(0.00071817573 -0.0021558845 826.43996)
(0.001823387 -0.0021298058 826.44042)
(0.0027638061 -0.0020803125 826.44121)
(0.0033927203 -0.0019604847 826.44231)
(0.0012007338 -0.0016089558 826.44363)
(-0.0022998424 -0.0059965454 826.44175)
(-0.0053896191 -0.005389619 826.44006)
(-0.0031526629 -0.005199223 826.43909)
(-0.0017519099 -0.0050980048 826.43849)
(-0.00044406326 -0.0050247817 826.43826)
(0.00078535773 -0.0049533543 826.43838)
(0.0019367451 -0.0048609728 826.43887)
(0.0030177878 -0.0047100348 826.43971)
(0.0040997552 -0.0044146862 826.44091)
(0.0015522627 -0.0037536738 826.44255)
(-0.0022252313 -0.0033110993 826.44073)
(-0.005199223 -0.0031526629 826.43909)
(-0.003019485 -0.003019485 826.43817)
(-0.0016534249 -0.0029135905 826.4376)
(-0.00035691321 -0.002821918 826.43738)
(0.00088198456 -0.0027300871 826.43754)
(0.0020667065 -0.0026228616 826.43805)
(0.0032100928 -0.0024824473 826.43893)
(0.0043490813 -0.0022946857 826.44021)
(0.0016414088 -0.0021007376 826.44193)
(-0.0021942181 -0.0018278662 826.4401)
(-0.0050980048 -0.0017519099 826.43849)
(-0.0029135905 -0.0016534249 826.4376)
(-0.0015543429 -0.0015543429 826.43705)
(-0.00026055988 -0.0014581789 826.43687)
(0.00098441416 -0.0013609952 826.43705)
(0.0021843848 -0.001256668 826.43759)
(0.0033459637 -0.0011410022 826.43852)
(0.004481465 -0.0010198947 826.43983)
(0.0016815614 -0.00092634334 826.44159)
(-0.0021745938 -0.00050156363 826.43985)
(-0.0050247817 -0.00044406326 826.43826)
(-0.002821918 -0.00035691321 826.43738)
(-0.0014581789 -0.00026055987 826.43687)
(-0.00016356557 -0.00016356559 826.43671)
(0.0010834954 -6.7094139e-05 826.43692)
(0.0022866996 3.0032434e-05 826.4375)
(0.0034468661 0.00012662704 826.43845)
(0.0045637402 0.00021384563 826.43979)
(0.0017037764 0.00027075347 826.44157)
(-0.0021558845 0.00071817573 826.43996)
(-0.0049533543 0.00078535773 826.43838)
(-0.0027300871 0.00088198457 826.43754)
(-0.0013609953 0.00098441417 826.43705)
(-6.7094143e-05 0.0010834954 826.43692)
(0.0011780122 0.0011780122 826.43716)
(0.002378106 0.0012689163 826.43776)
(0.0035297769 0.0013549697 826.43874)
(0.0046255914 0.0014289085 826.44011)
(0.0017195 0.001475116 826.4419)
(-0.0021298058 0.001823387 826.44042)
(-0.0048609728 0.001936745 826.43887)
(-0.0026228616 0.0020667065 826.43805)
(-0.001256668 0.0021843848 826.43759)
(3.0032431e-05 0.0022866996 826.4375)
(0.0012689163 0.002378106 826.43776)
(0.0024636571 0.0024636571 826.43839)
(0.0036068583 0.0025459039 826.4394)
(0.0046838865 0.0026215818 826.44079)
(0.0017345814 0.0026754805 826.44259)
(-0.0020803125 0.0027638061 826.44121)
(-0.0047100348 0.0030177878 826.43971)
(-0.0024824473 0.0032100928 826.43893)
(-0.0011410022 0.0033459637 826.43852)
(0.00012662704 0.0034468661 826.43845)
(0.0013549697 0.0035297769 826.43874)
(0.0025459039 0.0036068583 826.4394)
(0.0036877017 0.0036877017 826.44043)
(0.0047551679 0.0037792452 826.44184)
(0.0017554324 0.0038730783 826.44367)
(-0.0019604847 0.0033927203 826.44231)
(-0.0044146862 0.0040997552 826.44091)
(-0.0022946857 0.0043490813 826.44021)
(-0.0010198947 0.004481465 826.43983)
(0.00021384563 0.0045637402 826.43979)
(0.0014289085 0.0046255914 826.44011)
(0.0026215818 0.0046838865 826.44079)
(0.0037792452 0.0047551679 826.44184)
(0.0048692631 0.0048692631 826.4433)
(0.0017971368 0.0050992796 826.44518)
(-0.0016089558 0.0012007338 826.44363)
(-0.0037536738 0.0015522627 826.44255)
(-0.0021007375 0.0016414088 826.44193)
(-0.00092634334 0.0016815614 826.44159)
(0.00027075346 0.0017037764 826.44157)
(0.001475116 0.0017195 826.4419)
(0.0026754805 0.0017345814 826.44259)
(0.0038730783 0.0017554324 826.44367)
(0.0050992796 0.0017971368 826.44518)
(0.0019087767 0.0019087767 826.4472)
(-0.0032502779 -0.0032502779 821.32399)
(-0.0074107729 -0.0028412392 821.32219)
(-0.0040866985 -0.0027489665 821.32126)
(-0.0022307794 -0.0027102186 821.32072)
(-0.00054599143 -0.002685342 821.32052)
(0.0010237176 -0.0026613454 821.32067)
(0.002466855 -0.0026276673 821.32116)
(0.0037230236 -0.0025634951 821.32198)
(0.0046101279 -0.0024076673 821.32309)
(0.0016424582 -0.0019494285 821.3244)
(-0.0028412392 -0.0074107729 821.32219)
(-0.0066588058 -0.0066588058 821.32062)
(-0.0038901677 -0.0064226695 821.31974)
(-0.0021353427 -0.0062956908 821.31922)
(-0.00047268168 -0.006202656 821.31904)
(0.0011102297 -0.0061110264 821.3192)
(0.0026136305 -0.0059918451 821.31972)
(0.0040530235 -0.005796501 821.32057)
(0.0055312279 -0.0054134425 821.32179)
(0.0021006971 -0.004554716 821.32342)
(-0.0027489665 -0.0040866985 821.32126)
(-0.0064226695 -0.0038901677 821.31974)
(-0.0037235835 -0.0037235835 821.31891)
(-0.002010766 -0.0035897555 821.31841)
(-0.00036132707 -0.003472837 821.31825)
(0.0012345284 -0.0033549381 821.31844)
(0.0027813804 -0.0032167319 821.31899)
(0.0043014262 -0.0030354284 821.31989)
(0.0058519129 -0.0027930748 821.32117)
(0.0022149426 -0.0025444426 821.32287)
(-0.0027102186 -0.0022307794 821.32072)
(-0.0062956908 -0.0021353427 821.31922)
(-0.0035897555 -0.002010766 821.31841)
(-0.0018845962 -0.0018845962 821.31794)
(-0.0002378643 -0.0017614577 821.31781)
(0.0013663347 -0.0016364906 821.31803)
(0.0029331403 -0.0015019705 821.3186)
(0.0044766807 -0.0013526441 821.31954)
(0.0060222136 -0.0011963736 821.32086)
(0.0022664519 -0.0010761586 821.32259)
(-0.002685342 -0.00054599144 821.32052)
(-0.006202656 -0.00047268169 821.31904)
(-0.003472837 -0.00036132708 821.31825)
(-0.0017614577 -0.0002378643 821.31781)
(-0.00011322146 -0.00011322147 821.3177)
(0.0014940157 1.1092707e-05 821.31795)
(0.0030652269 0.00013655668 821.31855)
(0.0046070231 0.00026156193 821.31952)
(0.0061283984 0.0003745271 821.32087)
(0.0022950859 0.00044816382 821.32262)
(-0.0026613454 0.0010237176 821.32067)
(-0.0061110264 0.0011102296 821.3192)
(-0.0033549381 0.0012345284 821.31844)
(-0.0016364906 0.0013663347 821.31803)
(1.1092703e-05 0.0014940157 821.31795)
(0.0016161129 0.0016161129 821.31822)
(0.0031836095 0.0017339393 821.31885)
(0.0047146511 0.0018459427 821.31984)
(0.0062088155 0.0019426316 821.32122)
(0.002315543 0.0020033268 821.32299)
(-0.0026276673 0.002466855 821.32116)
(-0.0059918451 0.0026136305 821.31972)
(-0.0032167319 0.0027813804 821.31899)
(-0.0015019705 0.0029331403 821.3186)
(0.00013655668 0.0030652269 821.31855)
(0.0017339393 0.0031836095 821.31885)
(0.0032950568 0.0032950568 821.31951)
(0.0048157155 0.0034031665 821.32052)
(0.0062857826 0.0035038643 821.32192)
(0.0023355493 0.0035766037 821.3237)
(-0.0025634951 0.0037230236 821.32198)
(-0.005796501 0.0040530235 821.32057)
(-0.0030354284 0.0043014262 821.31989)
(-0.0013526441 0.0044766807 821.31954)
(0.00026156192 0.0046070231 821.31952)
(0.0018459427 0.0047146511 821.31984)
(0.0034031665 0.0048157155 821.32052)
(0.0049234586 0.0049234586 821.32157)
(0.0063822527 0.0050481071 821.32299)
(0.0023640359 0.0051786887 821.3248)
(-0.0024076673 0.0046101279 821.32309)
(-0.0054134425 0.0055312279 821.32179)
(-0.0027930748 0.0058519129 821.32117)
(-0.0011963736 0.0060222136 821.32086)
(0.00037452709 0.0061283984 821.32087)
(0.0019426316 0.0062088155 821.32122)
(0.0035038643 0.0062857826 821.32192)
(0.0050481071 0.0063822527 821.32299)
(0.0065410126 0.0065410126 821.32445)
(0.0024226038 0.0068676878 821.32631)
(-0.0019494285 0.0016424582 821.3244)
(-0.004554716 0.0021006971 821.32342)
(-0.0025444427 0.0022149426 821.32287)
(-0.0010761586 0.0022664519 821.32259)
(0.0004481638 0.0022950859 821.32262)
(0.0020033268 0.002315543 821.32299)
(0.0035766037 0.0023355493 821.3237)
(0.0051786887 0.0023640359 821.3248)
(0.0068676878 0.0024226038 821.32631)
(0.0025818194 0.0025818194 821.32831)
(-0.0038329842 -0.0038329842 816.32098)
(-0.0087249721 -0.0033484336 816.31929)
(-0.004783301 -0.0032394951 816.31845)
(-0.0025713024 -0.0031934907 816.31797)
(-0.00054477889 -0.0031636556 816.31782)
(0.0013599983 -0.0031346151 816.318)
(0.0031280787 -0.0030936374 816.31851)
(0.0046871104 -0.003015334 816.31933)
(0.0058162744 -0.002824853 816.32043)
(0.0020773085 -0.0022639763 816.32171)
(-0.0033484336 -0.0087249721 816.31929)
(-0.0078347385 -0.0078347385 816.31782)
(-0.0045508867 -0.007555574 816.31702)
(-0.0024575432 -0.0074044266 816.31656)
(-0.00045646545 -0.0072926724 816.31643)
(0.0014650257 -0.0071817733 816.31663)
(0.0033070003 -0.0070368678 816.31716)
(0.005090287 -0.0067987986 816.31802)
(0.006943311 -0.0063313461 816.31922)
(0.0026381852 -0.0052825394 816.3208)
(-0.0032394951 -0.004783301 816.31845)
(-0.007555574 -0.0045508867 816.31702)
(-0.0043529892 -0.0043529892 816.31627)
(-0.0023084008 -0.0041928942 816.31583)
(-0.00032212552 -0.0040520607 816.31572)
(0.0016158029 -0.0039092789 816.31594)
(0.0035110534 -0.0037413463 816.3165)
(0.0053926321 -0.0035207231 816.3174)
(0.0073325336 -0.0032258762 816.31866)
(0.0027765129 -0.0029247714 816.32032)
(-0.0031934907 -0.0025713024 816.31797)
(-0.0074044266 -0.0024575432 816.31656)
(-0.0041928942 -0.0023084008 816.31583)
(-0.0021566147 -0.0021566147 816.31542)
(-0.00017285013 -0.0020078165 816.31534)
(0.0017757401 -0.0018562694 816.31558)
(0.0036955561 -0.001692744 816.31617)
(0.0056057571 -0.001511016 816.31711)
(0.0075392627 -0.0013208974 816.31841)
(0.0028389217 -0.0011750632 816.3201)
(-0.0031636556 -0.0005447789 816.31782)
(-0.0072926724 -0.00045646545 816.31643)
(-0.0040520607 -0.00032212553 816.31572)
(-0.0020078165 -0.00017285013 816.31534)
(-2.1780197e-05 -2.1780197e-05 816.31528)
(0.0019308754 0.0001292616 816.31555)
(0.0038563068 0.00028203354 816.31617)
(0.0057644787 0.0004344893 816.31713)
(0.0076684864 0.00057235509 816.31846)
(0.0028737358 0.00066215561 816.32016)
(-0.0031346151 0.0013599983 816.318)
(-0.0071817733 0.0014650257 816.31663)
(-0.0039092789 0.0016158029 816.31594)
(-0.0018562694 0.0017757401 816.31558)
(0.00012926161 0.0019308754 816.31555)
(0.0020795539 0.0020795539 816.31585)
(0.0040007838 0.0022234504 816.31649)
(0.0058960786 0.0023606946 816.31748)
(0.007766929 0.0024795821 816.31883)
(0.0028987887 0.0025544265 816.32055)
(-0.0030936374 0.0031280787 816.31851)
(-0.0070368678 0.0033070003 816.31716)
(-0.0037413463 0.0035110534 816.3165)
(-0.001692744 0.0036955561 816.31617)
(0.00028203355 0.0038563068 816.31617)
(0.0022234504 0.0040007838 816.31649)
(0.0041374475 0.0041374476 816.31716)
(0.0060206104 0.0042709121 816.31817)
(0.0078622183 0.0043962468 816.31954)
(0.002923632 0.0044875397 816.32128)
(-0.003015334 0.0046871104 816.31933)
(-0.0067987986 0.005090287 816.31802)
(-0.0035207231 0.0053926321 816.3174)
(-0.001511016 0.0056057571 816.31711)
(0.00043448931 0.0057644787 816.31713)
(0.0023606946 0.0058960786 816.31748)
(0.0042709121 0.0060206104 816.31817)
(0.0061548778 0.0061548779 816.31921)
(0.0079835566 0.006312219 816.32061)
(0.0029596507 0.0064788839 816.32237)
(-0.002824853 0.0058162744 816.32043)
(-0.0063313461 0.006943311 816.31922)
(-0.0032258762 0.0073325336 816.31866)
(-0.0013208974 0.0075392627 816.31841)
(0.0005723551 0.0076684864 816.31846)
(0.0024795821 0.007766929 816.31883)
(0.0043962468 0.0078622183 816.31954)
(0.006312219 0.0079835567 816.32061)
(0.0081862243 0.0081862243 816.32205)
(0.0030347419 0.0086069932 816.32385)
(-0.0022639763 0.0020773085 816.32171)
(-0.0052825394 0.0026381852 816.3208)
(-0.0029247715 0.002776513 816.32032)
(-0.0011750632 0.0028389217 816.3201)
(0.0006621556 0.0028737358 816.32016)
(0.0025544265 0.0028987887 816.32055)
(0.0044875397 0.002923632 816.32128)
(0.0064788839 0.0029596507 816.32237)
(0.0086069932 0.0030347419 816.32385)
(0.0032401632 0.0032401632 816.32579)
(-0.0043791174 -0.0043791174 811.43032)
(-0.0099460637 -0.003822812 811.42874)
(-0.0054108807 -0.0036981444 811.42797)
(-0.002858487 -0.0036453175 811.42755)
(-0.00050681946 -0.0036108065 811.42744)
(0.0017164293 -0.0035769804 811.42765)
(0.0037930237 -0.0035290486 811.42817)
(0.0056380705 -0.0034372648 811.42897)
(0.0069919068 -0.0032137255 811.43004)
(0.0024990701 -0.0025549497 811.43128)
(-0.003822812 -0.0099460637 811.42874)
(-0.0089246044 -0.0089246044 811.42737)
(-0.0051446391 -0.0086049109 811.42664)
(-0.0027274801 -0.0084310494 811.42624)
(-0.00040431381 -0.0083016389 811.42615)
(0.0018390662 -0.0081724622 811.42637)
(0.0040025971 -0.0080030604 811.42691)
(0.0061110552 -0.0077242463 811.42775)
(0.0083153794 -0.0071763081 811.42892)
(0.0031578458 -0.005946279 811.43044)
(-0.0036981444 -0.0054108807 811.42797)
(-0.0086049109 -0.005144639 811.42664)
(-0.0049173258 -0.0049173258 811.42595)
(-0.0025552149 -0.0047325264 811.42557)
(-0.00024823221 -0.0045691083 811.4255)
(0.0020150077 -0.0044027149 811.42575)
(0.0042412395 -0.0042064782 811.42631)
(0.0064648228 -0.0039483642 811.4272)
(0.0087698741 -0.0036034728 811.42842)
(0.0033190895 -0.0032524261 811.43001)
(-0.0036453175 -0.002858487 811.42755)
(-0.0084310494 -0.0027274801 811.42624)
(-0.0047325264 -0.0025552149 811.42557)
(-0.0023792626 -0.0023792626 811.42522)
(-7.4502238e-05 -0.00220617 811.42517)
(0.0022016963 -0.0020293611 811.42544)
(0.0044569477 -0.0018381896 811.42603)
(0.0067140605 -0.0016255363 811.42695)
(0.0090113175 -0.0014031144 811.42821)
(0.003391877 -0.0012328639 811.42983)
(-0.0036108065 -0.00050681947 811.42744)
(-0.0083016389 -0.00040431382 811.42615)
(-0.0045691083 -0.00024823221 811.4255)
(-0.00220617 -7.4502238e-05 811.42517)
(0.00010166928 0.00010166928 811.42515)
(0.0023829881 0.00027817616 811.42544)
(0.0046450643 0.00045703805 811.42606)
(0.006899898 0.00063576663 811.427)
(0.0091625466 0.00079747715 811.42829)
(0.0034325899 0.00090274225 811.42993)
(-0.0035769804 0.0017164293 811.42765)
(-0.0081724621 0.0018390662 811.42637)
(-0.0044027149 0.0020150077 811.42575)
(-0.0020293611 0.0022016963 811.42544)
(0.00027817616 0.0023829881 811.42544)
(0.0025570651 0.0025570651 811.42576)
(0.0048145382 0.0027259542 811.4264)
(0.0070544996 0.0028874644 811.42737)
(0.0092782931 0.0030277298 811.42868)
(0.0034620537 0.0031162016 811.43033)
(-0.0035290486 0.0037930237 811.42817)
(-0.0080030604 0.0040025971 811.42691)
(-0.0042064782 0.0042412395 811.42631)
(-0.0018381896 0.0044569477 811.42603)
(0.00045703806 0.0046450643 811.42606)
(0.0027259542 0.0048145382 811.4264)
(0.0049754636 0.0049754636 811.42707)
(0.0072016736 0.0051334195 811.42806)
(0.0093912838 0.0052826051 811.42939)
(0.0034915711 0.005391857 811.43105)
(-0.0034372648 0.0056380705 811.42897)
(-0.0077242463 0.0061110552 811.42775)
(-0.0039483642 0.0064648228 811.4272)
(-0.0016255363 0.0067140605 811.42695)
(0.00063576664 0.006899898 811.427)
(0.0028874644 0.0070544996 811.42737)
(0.0051334195 0.0072016736 811.42806)
(0.0073616411 0.0073616411 811.42908)
(0.0095367306 0.0075506839 811.43043)
(0.0035348883 0.0077522631 811.43212)
(-0.0032137255 0.0069919068 811.43004)
(-0.0071763081 0.0083153794 811.42892)
(-0.0036034728 0.0087698741 811.42842)
(-0.0014031144 0.0090113175 811.42821)
(0.00079747715 0.0091625466 811.42829)
(0.0030277298 0.0092782931 811.42868)
(0.0052826051 0.0093912838 811.42939)
(0.0075506839 0.0095367306 811.43043)
(0.0097819059 0.0097819059 811.43182)
(0.0036259573 0.010293504 811.43356)
(-0.0025549497 0.0024990701 811.43128)
(-0.005946279 0.0031578458 811.43044)
(-0.0032524261 0.0033190895 811.43001)
(-0.0012328639 0.003391877 811.42983)
(0.00090274225 0.0034325899 811.42993)
(0.0031162016 0.0034620537 811.43033)
(0.005391857 0.0034915711 811.43105)
(0.0077522631 0.0035348883 811.43212)
(0.010293504 0.0036259573 811.43356)
(0.003875954 0.003875954 811.43542)
(-0.0048877325 -0.0048877325 806.64775)
(-0.011074973 -0.0042638064 806.64629)
(-0.0059750655 -0.0041243834 806.64559)
(-0.0030993881 -0.0040651697 806.64522)
(-0.00044030844 -0.0040262713 806.64515)
(0.0020831677 -0.003987937 806.64537)
(0.0044497215 -0.0039334365 806.64588)
(0.006562117 -0.0038289078 806.64667)
(0.0081232908 -0.0035741087 806.64769)
(0.0029034107 -0.0028227514 806.64888)
(-0.0042638064 -0.011074973 806.64629)
(-0.0099299495 -0.0099299495 806.64502)
(-0.0056771103 -0.0095722815 806.64436)
(-0.0029522199 -0.0093771608 806.64401)
(-0.00032445948 -0.0092311831 806.64395)
(0.00222242 -0.0090847922 806.64419)
(0.0046882654 -0.0088922594 806.64472)
(0.0071011087 -0.008574934 806.64554)
(0.0096325254 -0.0079509145 806.64666)
(0.0036547681 -0.0065495921 806.64811)
(-0.0041243834 -0.0059750655 806.64559)
(-0.0095722815 -0.0056771103 806.64436)
(-0.0054222768 -0.0054222768 806.64374)
(-0.0027582896 -0.0052143427 806.64341)
(-0.00014793983 -0.0050297171 806.64337)
(0.0024220914 -0.0048410803 806.64363)
(0.0049595797 -0.0046181185 806.64418)
(0.0075034619 -0.0043245735 806.64504)
(0.010148633 -0.0039323966 806.64622)
(0.0038376257 -0.0035342354 806.64773)
(-0.0040651697 -0.0030993881 806.64522)
(-0.0093771608 -0.0029522199 806.64401)
(-0.0052143427 -0.0027582896 806.64341)
(-0.0025596602 -0.0025596602 806.6431)
(4.8802899e-05 -0.002363715 806.64308)
(0.0026340186 -0.0021630812 806.64336)
(0.0052047722 -0.0019457839 806.64395)
(0.0077868305 -0.0017038799 806.64484)
(0.010422864 -0.0014509091 806.64604)
(0.0039202089 -0.001257597 806.64759)
(-0.0040262713 -0.00044030843 806.64515)