/*--------------------------------*- C++ -*----------------------------------*\
| =========                 |                                                 |
| \\      /  F ield         | OpenFOAM: The Open Source CFD Toolbox           |
|  \\    /   O peration     | Version:  v2106                                 |
|   \\  /    A nd           | Website:  www.openfoam.com                      |
|    \\/     M anipulation  |                                                 |
\*---------------------------------------------------------------------------*/
FoamFile
{
    version     2.0;
    format      ascii;
    arch        "LSB;label=32;scalar=64";
    class       volScalarField;
    location    "70";
    object      gradTz;
}
// * * * * * * * * * * * * * * * * * * * * * * * * * * * * * * * * * * * * * //

dimensions      [0 -1 0 1 0 0 0];

internalField   nonuniform List<scalar> 
4000
(
566.41447
566.41242
566.41142
566.41083
566.41056
566.41056
566.4108
566.41125
566.41183
566.41238
566.41242
566.41061
566.40967
566.40911
566.40884
566.40886
566.40912
566.4096
566.41025
566.41099
566.41142
566.40967
566.40878
566.40823
566.40799
566.40802
566.40831
566.40882
566.40952
566.41032
566.41083
566.40911
566.40823
566.40771
566.40749
566.40754
566.40785
566.40839
566.40912
566.40994
566.41056
566.40884
566.40799
566.40749
566.40729
566.40736
566.40769
566.40825
566.409
566.40984
566.41056
566.40886
566.40802
566.40754
566.40736
566.40746
566.4078
566.40838
566.40915
566.41
566.4108
566.40912
566.40831
566.40785
566.40769
566.4078
566.40817
566.40876
566.40955
566.4104
566.41125
566.4096
566.40882
566.40839
566.40825
566.40838
566.40876
566.40938
566.41017
566.41104
566.41183
566.41025
566.40952
566.40912
566.409
566.40915
566.40955
566.41017
566.41098
566.41187
566.41238
566.41099
566.41032
566.40994
566.40984
566.41
566.4104
566.41104
566.41187
566.41278
837.05119
837.04867
837.04735
837.04654
837.04616
837.04619
837.04657
837.04727
837.04821
837.04926
837.04867
837.04646
837.04522
837.04443
837.04408
837.04412
837.04453
837.04527
837.04633
837.04771
837.04735
837.04522
837.04402
837.04327
837.04294
837.04301
837.04345
837.04425
837.04537
837.04683
837.04654
837.04443
837.04327
837.04256
837.04226
837.04236
837.04283
837.04366
837.04484
837.04633
837.04616
837.04408
837.04294
837.04226
837.04199
837.04212
837.04263
837.04349
837.04469
837.04621
837.04619
837.04412
837.04301
837.04236
837.04212
837.04228
837.04281
837.0437
837.04493
837.04646
837.04657
837.04453
837.04345
837.04283
837.04263
837.04281
837.04337
837.04429
837.04554
837.04709
837.04727
837.04527
837.04425
837.04366
837.04349
837.0437
837.04429
837.04523
837.0465
837.04807
837.04821
837.04633
837.04537
837.04484
837.04469
837.04493
837.04554
837.0465
837.0478
837.0494
837.04926
837.04771
837.04683
837.04633
837.04621
837.04646
837.04709
837.04807
837.0494
837.0511
831.68449
831.68237
831.68122
831.6805
831.68019
831.68025
831.68067
831.68143
831.68247
831.68375
831.68237
831.68052
831.67943
831.67874
831.67844
831.67852
831.67897
831.67976
831.68092
831.68252
831.68122
831.67943
831.67838
831.67773
831.67745
831.67756
831.67804
831.67888
831.68011
831.68179
831.6805
831.67874
831.67773
831.6771
831.67685
831.67699
831.6775
831.67839
831.67966
831.68137
831.68019
831.67844
831.67745
831.67685
831.67664
831.67681
831.67735
831.67826
831.67956
831.6813
831.68025
831.67852
831.67756
831.67699
831.67681
831.677
831.67757
831.67851
831.67984
831.68159
831.68067
831.67897
831.67804
831.6775
831.67735
831.67757
831.67817
831.67914
831.68048
831.68225
831.68143
831.67976
831.67888
831.67839
831.67826
831.67851
831.67914
831.68013
831.6815
831.68329
831.68247
831.68092
831.68011
831.67966
831.67956
831.67984
831.68048
831.6815
831.68291
831.68475
831.68375
831.68252
831.68179
831.68137
831.6813
831.68159
831.68225
831.68329
831.68475
831.68672
826.44368
826.44175
826.44073
826.4401
826.43985
826.43996
826.44042
826.44121
826.44231
826.44363
826.44175
826.44006
826.43909
826.43849
826.43826
826.43838
826.43887
826.43971
826.44091
826.44255
826.44073
826.43909
826.43817
826.4376
826.43738
826.43754
826.43805
826.43893
826.44021
826.44193
826.4401
826.43849
826.4376
826.43705
826.43687
826.43705
826.43759
826.43852
826.43983
826.44159
826.43985
826.43826
826.43738
826.43687
826.43671
826.43692
826.4375
826.43845
826.43979
826.44157
826.43996
826.43838
826.43754
826.43705
826.43692
826.43716
826.43776
826.43874
826.44011
826.4419
826.44042
826.43887
826.43805
826.43759
826.4375
826.43776
826.43839
826.4394
826.44079
826.44259
826.44121
826.43971
826.43893
826.43852
826.43845
826.43874
826.4394
826.44043
826.44184
826.44367
826.44231
826.44091
826.44021
826.43983
826.43979
826.44011
826.44079
826.44184
826.4433
826.44518
826.44363
826.44255
826.44193
826.44159
826.44157
826.4419
826.44259
826.44367
826.44518
826.4472
821.32399
821.32219
821.32126
821.32072
821.32052
821.32067
821.32116
821.32198
821.32309
821.3244
821.32219
821.32062
821.31974
821.31922
821.31904
821.3192
821.31972
821.32057
821.32179
821.32342
821.32126
821.31974
821.31891
821.31841
821.31825
821.31844
821.31899
821.31989
821.32117
821.32287
821.32072
821.31922
821.31841
821.31794
821.31781
821.31803
821.3186
821.31954
821.32086
821.32259
821.32052
821.31904
821.31825
821.31781
821.3177
821.31795
821.31855
821.31952
821.32087
821.32262
821.32067
821.3192
821.31844
821.31803
821.31795
821.31822
821.31885
821.31984
821.32122
821.32299
821.32116
821.31972
821.31899
821.3186
821.31855
821.31885
821.31951
821.32052
821.32192
821.3237
821.32198
821.32057
821.31989
821.31954
821.31952
821.31984
821.32052
821.32157
821.32299
821.3248
821.32309
821.32179
821.32117
821.32086
821.32087
821.32122
821.32192
821.32299
821.32445
821.32631
821.3244
821.32342
821.32287
821.32259
821.32262
821.32299
821.3237
821.3248
821.32631
821.32831
816.32098
816.31929
816.31845
816.31797
816.31782
816.318
816.31851
816.31933
816.32043
816.32171
816.31929
816.31782
816.31702
816.31656
816.31643
816.31663
816.31716
816.31802
816.31922
816.3208
816.31845
816.31702
816.31627
816.31583
816.31572
816.31594
816.3165
816.3174
816.31866
816.32032
816.31797
816.31656
816.31583
816.31542
816.31534
816.31558
816.31617
816.31711
816.31841
816.3201
816.31782
816.31643
816.31572
816.31534
816.31528
816.31555
816.31617
816.31713
816.31846
816.32016
816.318
816.31663
816.31594
816.31558
816.31555
816.31585
816.31649
816.31748
816.31883
816.32055
816.31851
816.31716
816.3165
816.31617
816.31617
816.31649
816.31716
816.31817
816.31954
816.32128
816.31933
816.31802
816.3174
816.31711
816.31713
816.31748
816.31817
816.31921
816.32061
816.32237
816.32043
816.31922
816.31866
816.31841
816.31846
816.31883
816.31954
816.32061
816.32205
816.32385
816.32171
816.3208
816.32032
816.3201
816.32016
816.32055
816.32128
816.32237
816.32385
816.32579
811.43032
811.42874
811.42797
811.42755
811.42744
811.42765
811.42817
811.42897
811.43004
811.43128
811.42874
811.42737
811.42664
811.42624
811.42615
811.42637
811.42691
811.42775
811.42892
811.43044
811.42797
811.42664
811.42595
811.42557
811.4255
811.42575
811.42631
811.4272
811.42842
811.43001
811.42755
811.42624
811.42557
811.42522
811.42517
811.42544
811.42603
811.42695
811.42821
811.42983
811.42744
811.42615
811.4255
811.42517
811.42515
811.42544
811.42606
811.427
811.42829
811.42993
811.42765
811.42637
811.42575
811.42544
811.42544
811.42576
811.4264
811.42737
811.42868
811.43033
811.42817
811.42691
811.42631
811.42603
811.42606
811.4264
811.42707
811.42806
811.42939
811.43105
811.42897
811.42775
811.4272
811.42695
811.427
811.42737
811.42806
811.42908
811.43043
811.43212
811.43004
811.42892
811.42842
811.42821
811.42829
811.42868
811.42939
811.43043
811.43182
811.43356
811.43128
811.43044
811.43001
811.42983
811.42993
811.43033
811.43105
811.43212
811.43356
811.43542
806.64775
806.64629
806.64559
806.64522
806.64515
806.64537
806.64588
806.64667
806.64769
806.64888
806.64629
806.64502
806.64436
806.64401
806.64395
806.64419
806.64472
806.64554
806.64666
806.64811
806.64559
806.64436
806.64374
806.64341
806.64337
806.64363
806.64418
806.64504
806.64622
806.64773
806.64522
806.64401
806.64341
806.6431
806.64308
806.64336
806.64395
806.64484
806.64604
806.64759
806.64515
806.64395
806.64337
806.64308
806.64309
806.64339
806.644
806.64492
806.64615
806.64771
806.64537
806.64419
806.64363
806.64336
806.64339
806.64372
806.64435
806.64529
806.64654
806.64811
806.64588
806.64472
806.64418
806.64395
806.644
806.64435
806.645
806.64596
806.64724
806.64882
806.64667
806.64554
806.64504
806.64484
806.64492
806.64529
806.64596
806.64695
806.64824
806.64985
806.64769
806.64666
806.64622
806.64604
806.64615
806.64654
806.64724
806.64824
806.64957
806.65122
806.64888
806.64811
806.64773
806.64759
806.64771
806.64811
806.64882
806.64985
806.65122
806.653
801.96909
801.96775
801.96712
801.9668
801.96676
801.96699
801.96749
801.96824
801.96921
801.97033
801.96775
801.96658
801.96599
801.96569
801.96566
801.9659
801.96642
801.96721
801.96827
801.96963
801.96712
801.96599
801.96543
801.96515
801.96514
801.9654
801.96594
801.96676
801.96788
801.9693
801.9668
801.96569
801.96515
801.96489
801.9649
801.96518
801.96574
801.96659
801.96774
801.96919
801.96676
801.96566
801.96514
801.9649
801.96493
801.96523
801.96582
801.96669
801.96786
801.96933
801.96699
801.9659
801.9654
801.96518
801.96523
801.96556
801.96617
801.96706
801.96825
801.96973
801.96749
801.96642
801.96594
801.96574
801.96582
801.96617
801.9668
801.96772
801.96892
801.97041
801.96824
801.96721
801.96676
801.96659
801.96669
801.96706
801.96772
801.96865
801.96988
801.97139
801.96921
801.96827
801.96788
801.96774
801.96786
801.96825
801.96892
801.96988
801.97114
801.97269
801.97033
801.96963
801.9693
801.96919
801.96933
801.96973
801.97041
801.97139
801.97269
801.97436
797.39021
797.38899
797.38843
797.38816
797.38814
797.38838
797.38886
797.38957
797.39048
797.39152
797.38899
797.38794
797.38741
797.38715
797.38715
797.3874
797.38789
797.38863
797.38963
797.3909
797.38843
797.38741
797.38692
797.38668
797.38669
797.38695
797.38747
797.38825
797.38929
797.39061
797.38816
797.38715
797.38668
797.38646
797.38649
797.38677
797.38731
797.38811
797.38918
797.39053
797.38814
797.38715
797.38669
797.38649
797.38653
797.38684
797.3874
797.38822
797.38931
797.39068
797.38838
797.3874
797.38695
797.38677
797.38684
797.38716
797.38774
797.38859
797.38969
797.39107
797.38886
797.38789
797.38747
797.38731
797.3874
797.38774
797.38834
797.38921
797.39033
797.39172
797.38957
797.38863
797.38825
797.38811
797.38822
797.38859
797.38921
797.39009
797.39124
797.39264
797.39048
797.38963
797.38929
797.38918
797.38931
797.38969
797.39033
797.39124
797.39241
797.39385
797.39152
797.3909
797.39061
797.39053
797.39068
797.39107
797.39172
797.39264
797.39385
797.39541
792.90705
792.90596
792.90547
792.90524
792.90525
792.90548
792.90594
792.9066
792.90744
792.9084
792.90596
792.90502
792.90456
792.90435
792.90436
792.90461
792.90508
792.90577
792.90669
792.90785
792.90547
792.90456
792.90413
792.90393
792.90396
792.90422
792.90471
792.90543
792.90639
792.90761
792.90524
792.90435
792.90393
792.90375
792.9038
792.90407
792.90458
792.90533
792.90632
792.90756
792.90525
792.90436
792.90396
792.9038
792.90386
792.90416
792.90469
792.90545
792.90646
792.90771
792.90548
792.90461
792.90422
792.90407
792.90416
792.90447
792.90502
792.9058
792.90682
792.90809
792.90594
792.90508
792.90471
792.90458
792.90469
792.90502
792.90558
792.90638
792.90742
792.90869
792.9066
792.90577
792.90543
792.90533
792.90545
792.9058
792.90638
792.9072
792.90826
792.90955
792.90744
792.90669
792.90639
792.90632
792.90646
792.90682
792.90742
792.90826
792.90935
792.91067
792.9084
792.90785
792.90761
792.90756
792.90771
792.90809
792.90869
792.90955
792.91067
792.9121
788.51562
788.51466
788.51424
788.51406
788.51408
788.51431
788.51473
788.51534
788.51612
788.51699
788.51466
788.51384
788.51345
788.51328
788.51331
788.51355
788.51398
788.51462
788.51546
788.51652
788.51424
788.51345
788.51308
788.51292
788.51297
788.51322
788.51368
788.51434
788.51521
788.51632
788.51406
788.51328
788.51292
788.51278
788.51284
788.51311
788.51358
788.51426
788.51516
788.51629
788.51408
788.51331
788.51297
788.51284
788.51292
788.5132
788.51369
788.51439
788.51531
788.51644
788.51431
788.51355
788.51322
788.51311
788.5132
788.5135
788.51401
788.51472
788.51565
788.5168
788.51473
788.51398
788.51368
788.51358
788.51369
788.51401
788.51453
788.51526
788.51621
788.51736
788.51534
788.51462
788.51434
788.51426
788.51439
788.51472
788.51526
788.51601
788.51698
788.51814
788.51612
788.51546
788.51521
788.51516
788.51531
788.51565
788.51621
788.51698
788.51796
788.51916
788.51699
788.51652
788.51632
788.51629
788.51644
788.5168
788.51736
788.51814
788.51916
788.52046
784.21199
784.21117
784.21083
784.21068
784.21072
784.21094
784.21133
784.21189
784.21258
784.21336
784.21117
784.21047
784.21015
784.21002
784.21007
784.21029
784.21069
784.21127
784.21202
784.21296
784.21083
784.21015
784.20985
784.20973
784.20979
784.21003
784.21044
784.21104
784.21183
784.21281
784.21068
784.21002
784.20973
784.20962
784.20969
784.20995
784.21038
784.211
784.2118
784.2128
784.21072
784.21007
784.20979
784.20969
784.20978
784.21005
784.21049
784.21113
784.21195
784.21296
784.21094
784.21029
784.21003
784.20995
784.21005
784.21033
784.21079
784.21144
784.21227
784.21329
784.21133
784.21069
784.21044
784.21038
784.21049
784.21079
784.21127
784.21193
784.21277
784.2138
784.21189
784.21127
784.21104
784.211
784.21113
784.21144
784.21193
784.2126
784.21347
784.21451
784.21258
784.21202
784.21183
784.2118
784.21195
784.21227
784.21277
784.21347
784.21435
784.21542
784.21336
784.21296
784.21281
784.2128
784.21296
784.21329
784.2138
784.21451
784.21542
784.21657
779.99233
779.99165
779.99138
779.99128
779.99133
779.99154
779.99189
779.99238
779.99299
779.99368
779.99165
779.99108
779.99082
779.99073
779.99079
779.991
779.99137
779.99188
779.99254
779.99336
779.99138
779.99082
779.99058
779.9905
779.99057
779.9908
779.99117
779.9917
779.99239
779.99325
779.99128
779.99073
779.9905
779.99043
779.99051
779.99075
779.99114
779.99168
779.99239
779.99326
779.99133
779.99079
779.99057
779.99051
779.99061
779.99085
779.99126
779.99182
779.99254
779.99342
779.99154
779.991
779.9908
779.99075
779.99085
779.99111
779.99153
779.9921
779.99283
779.99372
779.99189
779.99137
779.99117
779.99114
779.99126
779.99153
779.99196
779.99254
779.99328
779.99418
779.99238
779.99188
779.9917
779.99168
779.99182
779.9921
779.99254
779.99314
779.99389
779.9948
779.99299
779.99254
779.99239
779.99239
779.99254
779.99283
779.99328
779.99389
779.99467
779.9956
779.99368
779.99336
779.99325
779.99326
779.99342
779.99372
779.99418
779.9948
779.9956
779.99661
775.85287
775.85234
775.85213
775.85207
775.85214
775.85233
775.85265
775.85307
775.8536
775.85418
775.85234
775.85188
775.8517
775.85164
775.85172
775.85192
775.85224
775.85268
775.85324
775.85395
775.85213
775.8517
775.85152
775.85148
775.85156
775.85177
775.8521
775.85256
775.85315
775.85387
775.85207
775.85164
775.85148
775.85144
775.85153
775.85175
775.85209
775.85257
775.85317
775.85391
775.85214
775.85172
775.85156
775.85153
775.85163
775.85186
775.85221
775.8527
775.85331
775.85406
775.85233
775.85192
775.85177
775.85175
775.85186
775.8521
775.85246
775.85295
775.85358
775.85433
775.85265
775.85224
775.8521
775.85209
775.85221
775.85246
775.85284
775.85334
775.85397
775.85473
775.85307
775.85268
775.85256
775.85257
775.8527
775.85295
775.85334
775.85385
775.8545
775.85527
775.8536
775.85324
775.85315
775.85317
775.85331
775.85358
775.85397
775.8545
775.85516
775.85595
775.85418
775.85395
775.85387
775.85391
775.85406
775.85433
775.85473
775.85527
775.85595
775.85681
771.78994
771.78955
771.78942
771.7894
771.78948
771.78965
771.78992
771.79028
771.79072
771.7912
771.78955
771.78922
771.7891
771.78909
771.78917
771.78935
771.78963
771.79
771.79047
771.79104
771.78942
771.7891
771.78899
771.78898
771.78907
771.78926
771.78955
771.78993
771.79042
771.79101
771.7894
771.78909
771.78898
771.78898
771.78908
771.78927
771.78957
771.78996
771.79046
771.79107
771.78948
771.78917
771.78907
771.78908
771.78918
771.78939
771.78969
771.79009
771.7906
771.79121
771.78965
771.78935
771.78926
771.78927
771.78939
771.7896
771.78991
771.79032
771.79083
771.79145
771.78992
771.78963
771.78955
771.78957
771.78969
771.78991
771.79023
771.79065
771.79117
771.79179
771.79028
771.79
771.78993
771.78996
771.79009
771.79032
771.79065
771.79108
771.79161
771.79224
771.79072
771.79047
771.79042
771.79046
771.7906
771.79083
771.79117
771.79161
771.79215
771.7928
771.7912
771.79104
771.79101
771.79107
771.79121
771.79145
771.79179
771.79224
771.7928
771.7935
767.79994
767.7997
767.79964
767.79966
767.79975
767.79991
767.80013
767.80042
767.80077
767.80115
767.7997
767.7995
767.79945
767.79947
767.79956
767.79973
767.79996
767.80026
767.80062
767.80107
767.79964
767.79945
767.7994
767.79943
767.79952
767.79969
767.79993
767.80024
767.80062
767.80108
767.79966
767.79947
767.79943
767.79946
767.79956
767.79973
767.79998
767.80029
767.80068
767.80115
767.79975
767.79956
767.79952
767.79956
767.79967
767.79985
767.8001
767.80042
767.80082
767.80129
767.79991
767.79973
767.79969
767.79973
767.79985
767.80003
767.80029
767.80062
767.80102
767.80149
767.80013
767.79996
767.79993
767.79998
767.8001
767.80029
767.80055
767.80088
767.80129
767.80177
767.80042
767.80026
767.80024
767.80029
767.80042
767.80062
767.80088
767.80123
767.80164
767.80213
767.80077
767.80062
767.80062
767.80068
767.80082
767.80102
767.80129
767.80164
767.80207
767.80257
767.80115
767.80107
767.80108
767.80115
767.80129
767.80149
767.80177
767.80213
767.80257
767.80311
763.8794
763.8793
763.87931
763.87937
763.87947
763.87961
763.87979
763.88001
763.88026
763.88053
763.8793
763.87923
763.87924
763.8793
763.8794
763.87954
763.87973
763.87995
763.88022
763.88054
763.87931
763.87924
763.87926
763.87932
763.87942
763.87957
763.87976
763.87999
763.88026
763.88059
763.87937
763.8793
763.87932
763.87938
763.87949
763.87964
763.87983
763.88007
763.88035
763.88067
763.87947
763.8794
763.87942
763.87949
763.8796
763.87975
763.87995
763.88019
763.88047
763.8808
763.87961
763.87954
763.87957
763.87964
763.87975
763.87991
763.88011
763.88035
763.88064
763.88097
763.87979
763.87973
763.87976
763.87983
763.87995
763.88011
763.88031
763.88056
763.88085
763.88119
763.88001
763.87995
763.87999
763.88007
763.88019
763.88035
763.88056
763.88081
763.88111
763.88145
763.88026
763.88022
763.88026
763.88035
763.88047
763.88064
763.88085
763.88111
763.88141
763.88176
763.88053
763.88054
763.88059
763.88067
763.8808
763.88097
763.88119
763.88145
763.88176
763.88215
760.02492
760.02497
760.02505
760.02514
760.02525
760.02537
760.0255
760.02565
760.02581
760.02598
760.02497
760.02502
760.0251
760.02519
760.0253
760.02542
760.02556
760.02571
760.02587
760.02606
760.02505
760.0251
760.02518
760.02527
760.02538
760.0255
760.02564
760.02579
760.02596
760.02615
760.02514
760.02519
760.02527
760.02536
760.02547
760.0256
760.02573
760.02589
760.02606
760.02625
760.02525
760.0253
760.02538
760.02547
760.02558
760.02571
760.02585
760.026
760.02618
760.02637
760.02537
760.02542
760.0255
760.0256
760.02571
760.02583
760.02598
760.02613
760.02631
760.0265
760.0255
760.02556
760.02564
760.02573
760.02585
760.02598
760.02612
760.02628
760.02646
760.02665
760.02565
760.02571
760.02579
760.02589
760.026
760.02613
760.02628
760.02644
760.02662
760.02682
760.02581
760.02587
760.02596
760.02606
760.02618
760.02631
760.02646
760.02662
760.02681
760.02701
760.02598
760.02606
760.02615
760.02625
760.02637
760.0265
760.02665
760.02682
760.02701
760.02723
756.23323
756.23341
756.23356
756.23369
756.2338
756.2339
756.23399
756.23407
756.23414
756.23419
756.23341
756.23359
756.23373
756.23385
756.23397
756.23407
756.23416
756.23423
756.2343
756.23435
756.23356
756.23373
756.23387
756.23399
756.2341
756.2342
756.23429
756.23436
756.23443
756.23448
756.23369
756.23385
756.23399
756.23411
756.23422
756.23432
756.23441
756.23448
756.23454
756.23459
756.2338
756.23397
756.2341
756.23422
756.23433
756.23443
756.23452
756.23459
756.23465
756.2347
756.2339
756.23407
756.2342
756.23432
756.23443
756.23453
756.23461
756.23469
756.23475
756.23479
756.23399
756.23416
756.23429
756.23441
756.23452
756.23461
756.2347
756.23477
756.23483
756.23488
756.23407
756.23423
756.23436
756.23448
756.23459
756.23469
756.23477
756.23484
756.23491
756.23496
756.23414
756.2343
756.23443
756.23454
756.23465
756.23475
756.23483
756.23491
756.23497
756.23502
756.23419
756.23435
756.23448
756.23459
756.2347
756.23479
756.23488
756.23496
756.23502
756.23509
752.50114
752.50147
752.50168
752.50184
752.50196
752.50204
752.50208
752.50208
752.50206
752.50201
752.50147
752.50176
752.50196
752.50212
752.50224
752.50231
752.50235
752.50235
752.50232
752.50224
752.50168
752.50196
752.50216
752.50231
752.50242
752.5025
752.50254
752.50253
752.50249
752.5024
752.50184
752.50212
752.50231
752.50246
752.50257
752.50264
752.50268
752.50267
752.50262
752.50253
752.50196
752.50224
752.50242
752.50257
752.50268
752.50275
752.50278
752.50277
752.50272
752.50263
752.50204
752.50231
752.5025
752.50264
752.50275
752.50282
752.50284
752.50283
752.50278
752.50269
752.50208
752.50235
752.50254
752.50268
752.50278
752.50284
752.50287
752.50285
752.5028
752.50271
752.50208
752.50235
752.50253
752.50267
752.50277
752.50283
752.50285
752.50284
752.50278
752.50269
752.50206
752.50232
752.50249
752.50262
752.50272
752.50278
752.5028
752.50278
752.50273
752.50263
752.50201
752.50224
752.5024
752.50253
752.50263
752.50269
752.50271
752.50269
752.50263
752.50254
748.8256
748.82606
748.82634
748.82653
748.82666
748.82671
748.82671
748.82664
748.82653
748.82638
748.82606
748.82647
748.82673
748.82692
748.82704
748.8271
748.82709
748.82702
748.82688
748.82668
748.82634
748.82673
748.82699
748.82717
748.82728
748.82733
748.82732
748.82724
748.82709
748.82687
748.82653
748.82692
748.82717
748.82735
748.82746
748.8275
748.82748
748.82739
748.82724
748.82702
748.82666
748.82704
748.82728
748.82746
748.82756
748.8276
748.82758
748.82748
748.82732
748.8271
748.82671
748.8271
748.82733
748.8275
748.8276
748.82764
748.82761
748.82751
748.82735
748.82712
748.82671
748.82709
748.82732
748.82748
748.82758
748.82761
748.82757
748.82747
748.8273
748.82707
748.82664
748.82702
748.82724
748.82739
748.82748
748.82751
748.82747
748.82737
748.8272
748.82696
748.82653
748.82688
748.82709
748.82724
748.82732
748.82735
748.8273
748.8272
748.82702
748.82678
748.82638
748.82668
748.82687
748.82702
748.8271
748.82712
748.82707
748.82696
748.82678
748.82653
745.20368
745.20427
745.2046
745.20483
745.20496
745.20499
745.20494
745.2048
745.2046
745.20435
745.20427
745.20479
745.20511
745.20533
745.20545
745.20548
745.20542
745.20528
745.20504
745.20472
745.2046
745.20511
745.20541
745.20562
745.20574
745.20576
745.2057
745.20554
745.20529
745.20494
745.20483
745.20533
745.20562
745.20583
745.20594
745.20595
745.20588
745.20571
745.20545
745.2051
745.20496
745.20545
745.20574
745.20594
745.20604
745.20605
745.20597
745.20579
745.20553
745.20517
745.20499
745.20548
745.20576
745.20595
745.20605
745.20605
745.20596
745.20578
745.20551
745.20515
745.20494
745.20542
745.2057
745.20588
745.20597
745.20596
745.20587
745.20568
745.20541
745.20504
745.2048
745.20528
745.20554
745.20571
745.20579
745.20578
745.20568
745.20549
745.20521
745.20484
745.2046
745.20504
745.20529
745.20545
745.20553
745.20551
745.20541
745.20521
745.20492
745.20454
745.20435
745.20472
745.20494
745.2051
745.20517
745.20515
745.20504
745.20484
745.20454
745.20414
741.63255
741.63327
741.63366
741.63391
741.63404
741.63405
741.63395
741.63375
741.63346
741.63311
741.63327
741.6339
741.63427
741.63451
741.63464
741.63464
741.63454
741.63432
741.63399
741.63354
741.63366
741.63427
741.63462
741.63486
741.63497
741.63497
741.63486
741.63462
741.63427
741.6338
741.63391
741.63451
741.63486
741.63508
741.63519
741.63518
741.63505
741.63481
741.63445
741.63396
741.63404
741.63464
741.63497
741.63519
741.63529
741.63527
741.63513
741.63488
741.63451
741.63402
741.63405
741.63464
741.63497
741.63518
741.63527
741.63524
741.6351
741.63483
741.63446
741.63396
741.63395
741.63454
741.63486
741.63505
741.63513
741.6351
741.63494
741.63467
741.63429
741.63379
741.63375
741.63432
741.63462
741.63481
741.63488
741.63483
741.63467
741.6344
741.634
741.6335
741.63346
741.63399
741.63427
741.63445
741.63451
741.63446
741.63429
741.634
741.6336
741.63308
741.63311
741.63354
741.6338
741.63396
741.63402
741.63396
741.63379
741.6335
741.63308
741.63253
738.10953
738.11036
738.11081
738.11109
738.11122
738.11121
738.11106
738.11079
738.11041
738.10997
738.11036
738.11109
738.11151
738.11178
738.11191
738.11189
738.11174
738.11145
738.11103
738.11047
738.11081
738.11151
738.11192
738.11217
738.11229
738.11226
738.1121
738.11179
738.11135
738.11075
738.11109
738.11178
738.11217
738.11242
738.11252
738.11249
738.11231
738.11199
738.11153
738.11092
738.11122
738.11191
738.11229
738.11252
738.11262
738.11257
738.11238
738.11205
738.11158
738.11096
738.11121
738.11189
738.11226
738.11249
738.11257
738.11251
738.11231
738.11197
738.11149
738.11087
738.11106
738.11174
738.1121
738.11231
738.11238
738.11231
738.1121
738.11175
738.11126
738.11063
738.11079
738.11145
738.11179
738.11199
738.11205
738.11197
738.11175
738.11139
738.11089
738.11026
738.11041
738.11103
738.11135
738.11153
738.11158
738.11149
738.11126
738.11089
738.11038
738.10973
738.10997
738.11047
738.11075
738.11092
738.11096
738.11087
738.11063
738.11026
738.10973
738.10903
734.63205
734.633
734.63349
734.63379
734.63392
734.63389
734.6337
734.63336
734.6329
734.63237
734.633
734.63382
734.63429
734.63458
734.6347
734.63466
734.63446
734.63411
734.6336
734.63292
734.63349
734.63429
734.63474
734.63501
734.63513
734.63507
734.63486
734.63449
734.63395
734.63323
734.63379
734.63458
734.63501
734.63528
734.63538
734.63531
734.63509
734.63469
734.63414
734.63341
734.63392
734.6347
734.63513
734.63538
734.63547
734.63539
734.63515
734.63474
734.63417
734.63343
734.63389
734.63466
734.63507
734.63531
734.63539
734.6353
734.63504
734.63463
734.63405
734.6333
734.6337
734.63446
734.63486
734.63509
734.63515
734.63504
734.63478
734.63435
734.63376
734.63301
734.63336
734.63411
734.63449
734.63469
734.63474
734.63463
734.63435
734.63391
734.63331
734.63255
734.6329
734.6336
734.63395
734.63414
734.63417
734.63405
734.63376
734.63331
734.63269
734.63191
734.63237
734.63292
734.63323
734.63341
734.63343
734.6333
734.63301
734.63255
734.63191
734.63108
731.19768
731.19873
731.19927
731.19959
731.19972
731.19967
731.19943
731.19904
731.1985
731.19787
731.19873
731.19965
731.20016
731.20047
731.20059
731.20053
731.20028
731.19986
731.19927
731.19848
731.19927
731.20016
731.20065
731.20094
731.20105
731.20097
731.20071
731.20027
731.19964
731.19882
731.19959
731.20047
731.20094
731.20122
731.20132
731.20122
731.20095
731.20049
731.19984
731.19899
731.19972
731.20059
731.20105
731.20132
731.2014
731.20129
731.201
731.20052
731.19986
731.199
731.19967
731.20053
731.20097
731.20122
731.20129
731.20117
731.20086
731.20037
731.1997
731.19884
731.19943
731.20028
731.20071
731.20095
731.201
731.20086
731.20054
731.20004
731.19935
731.19849
731.19904
731.19986
731.20027
731.20049
731.20052
731.20037
731.20004
731.19952
731.19882
731.19794
731.1985
731.19927
731.19964
731.19984
731.19986
731.1997
731.19935
731.19882
731.1981
731.1972
731.19787
731.19848
731.19882
731.19899
731.199
731.19884
731.19849
731.19794
731.1972
731.19624
727.80413
727.80528
727.80586
727.8062
727.80632
727.80624
727.80597
727.80551
727.8049
727.80419
727.80528
727.80628
727.80682
727.80715
727.80727
727.80718
727.80689
727.80641
727.80573
727.80485
727.80586
727.80682
727.80735
727.80766
727.80776
727.80766
727.80735
727.80684
727.80613
727.8052
727.8062
727.80715
727.80766
727.80795
727.80804
727.80792
727.8076
727.80707
727.80633
727.80538
727.80632
727.80727
727.80776
727.80804
727.80811
727.80797
727.80763
727.80709
727.80633
727.80537
727.80624
727.80718
727.80766
727.80792
727.80797
727.80782
727.80747
727.8069
727.80614
727.80517
727.80597
727.80689
727.80735
727.8076
727.80763
727.80747
727.80709
727.80652
727.80574
727.80476
727.80551
727.80641
727.80684
727.80707
727.80709
727.8069
727.80652
727.80593
727.80513
727.80415
727.8049
727.80573
727.80613
727.80633
727.80633
727.80614
727.80574
727.80513
727.80432
727.80331
727.80419
727.80485
727.8052
727.80538
727.80537
727.80517
727.80476
727.80415
727.80331
727.80222
724.44922
724.45046
724.45108
724.45144
724.45156
724.45145
724.45113
724.45062
724.44994
724.44915
724.45046
724.45154
724.45212
724.45246
724.45257
724.45246
724.45213
724.45158
724.45083
724.44985
724.45108
724.45212
724.45268
724.453
724.45309
724.45296
724.45261
724.45204
724.45125
724.45022
724.45144
724.45246
724.453
724.45331
724.45338
724.45324
724.45287
724.45227
724.45145
724.4504
724.45156
724.45257
724.45309
724.45338
724.45344
724.45328
724.45289
724.45228
724.45144
724.45038
724.45145
724.45246
724.45296
724.45324
724.45328
724.4531
724.45269
724.45206
724.45121
724.45014
724.45113
724.45213
724.45261
724.45287
724.45289
724.45269
724.45227
724.45162
724.45076
724.44968
724.45062
724.45158
724.45204
724.45227
724.45228
724.45206
724.45162
724.45096
724.45008
724.44899
724.44994
724.45083
724.45125
724.45145
724.45144
724.45121
724.45076
724.45008
724.44918
724.44805
724.44915
724.44985
724.45022
724.4504
724.45038
724.45014
724.44968
724.44899
724.44805
724.44685
721.13095
721.13227
721.13292
721.13328
721.1334
721.13327
721.13291
721.13234
721.13159
721.13073
721.13227
721.13341
721.13402
721.13438
721.13448
721.13434
721.13396
721.13336
721.13254
721.13147
721.13292
721.13402
721.13461
721.13494
721.13502
721.13487
721.13447
721.13384
721.13298
721.13185
721.13328
721.13438
721.13494
721.13525
721.13532
721.13514
721.13473
721.13407
721.13318
721.13203
721.1334