/*--------------------------------*- C++ -*----------------------------------*\
| =========                 |                                                 |
| \\      /  F ield         | OpenFOAM: The Open Source CFD Toolbox           |
|  \\    /   O peration     | Version:  v2106                                 |
|   \\  /    A nd           | Website:  www.openfoam.com                      |
|    \\/     M anipulation  |                                                 |
\*---------------------------------------------------------------------------*/
FoamFile
{
    version     2.0;
    format      ascii;
    arch        "LSB;label=32;scalar=64";
    class       volScalarField;
    location    "70";
    object      DT;
}
// * * * * * * * * * * * * * * * * * * * * * * * * * * * * * * * * * * * * * //

dimensions      [0 2 -1 0 0 0 0];

internalField   nonuniform List<scalar> 
4000
(
0.00054866952
0.0005486695
0.0005486695
0.0005486695
0.0005486695
0.0005486695
0.0005486695
0.0005486695
0.00054866951
0.00054866951
0.0005486695
0.00054866949
0.00054866949
0.00054866949
0.00054866949
0.00054866949
0.00054866949
0.00054866949
0.0005486695
0.0005486695
0.0005486695
0.00054866949
0.00054866949
0.00054866949
0.00054866949
0.00054866949
0.00054866949
0.00054866949
0.00054866949
0.0005486695
0.0005486695
0.00054866949
0.00054866949
0.00054866949
0.00054866949
0.00054866949
0.00054866949
0.00054866949
0.00054866949
0.0005486695
0.0005486695
0.00054866949
0.00054866949
0.00054866949
0.00054866949
0.00054866949
0.00054866949
0.00054866949
0.00054866949
0.0005486695
0.0005486695
0.00054866949
0.00054866949
0.00054866949
0.00054866949
0.00054866949
0.00054866949
0.00054866949
0.00054866949
0.0005486695
0.0005486695
0.00054866949
0.00054866949
0.00054866949
0.00054866949
0.00054866949
0.00054866949
0.00054866949
0.00054866949
0.0005486695
0.0005486695
0.00054866949
0.00054866949
0.00054866949
0.00054866949
0.00054866949
0.00054866949
0.00054866949
0.0005486695
0.0005486695
0.00054866951
0.0005486695
0.00054866949
0.00054866949
0.00054866949
0.00054866949
0.00054866949
0.0005486695
0.0005486695
0.0005486695
0.00054866951
0.0005486695
0.0005486695
0.0005486695
0.0005486695
0.0005486695
0.0005486695
0.0005486695
0.0005486695
0.00054866951
0.00057247917
0.00057247902
0.00057247901
0.000572479
0.000572479
0.000572479
0.00057247901
0.00057247903
0.00057247906
0.00057247909
0.00057247902
0.00057247892
0.00057247891
0.0005724789
0.0005724789
0.0005724789
0.00057247891
0.00057247893
0.00057247896
0.000572479
0.00057247901
0.00057247891
0.0005724789
0.00057247889
0.00057247889
0.0005724789
0.0005724789
0.00057247892
0.00057247894
0.00057247898
0.000572479
0.0005724789
0.00057247889
0.00057247889
0.00057247889
0.00057247889
0.0005724789
0.00057247891
0.00057247893
0.00057247897
0.000572479
0.0005724789
0.00057247889
0.00057247889
0.00057247888
0.00057247889
0.0005724789
0.00057247891
0.00057247893
0.00057247897
0.000572479
0.0005724789
0.0005724789
0.00057247889
0.00057247889
0.00057247889
0.0005724789
0.00057247891
0.00057247893
0.00057247897
0.00057247901
0.00057247891
0.0005724789
0.0005724789
0.0005724789
0.0005724789
0.00057247891
0.00057247892
0.00057247894
0.00057247898
0.00057247903
0.00057247893
0.00057247892
0.00057247891
0.00057247891
0.00057247891
0.00057247892
0.00057247893
0.00057247896
0.000572479
0.00057247906
0.00057247896
0.00057247894
0.00057247893
0.00057247893
0.00057247893
0.00057247894
0.00057247896
0.00057247898
0.00057247902
0.00057247909
0.000572479
0.00057247898
0.00057247897
0.00057247897
0.00057247897
0.00057247898
0.000572479
0.00057247902
0.00057247907
0.00059532911
0.00059532889
0.00059532886
0.00059532885
0.00059532884
0.00059532885
0.00059532887
0.0005953289
0.00059532895
0.00059532902
0.00059532889
0.00059532873
0.00059532871
0.00059532869
0.00059532869
0.0005953287
0.00059532871
0.00059532874
0.00059532879
0.00059532889
0.00059532886
0.00059532871
0.00059532869
0.00059532868
0.00059532868
0.00059532868
0.0005953287
0.00059532873
0.00059532877
0.00059532886
0.00059532885
0.00059532869
0.00059532868
0.00059532867
0.00059532867
0.00059532867
0.00059532869
0.00059532871
0.00059532875
0.00059532884
0.00059532884
0.00059532869
0.00059532868
0.00059532867
0.00059532867
0.00059532867
0.00059532868
0.00059532871
0.00059532875
0.00059532884
0.00059532885
0.0005953287
0.00059532868
0.00059532867
0.00059532867
0.00059532868
0.00059532869
0.00059532871
0.00059532875
0.00059532884
0.00059532887
0.00059532871
0.0005953287
0.00059532869
0.00059532868
0.00059532869
0.0005953287
0.00059532873
0.00059532876
0.00059532886
0.0005953289
0.00059532874
0.00059532873
0.00059532871
0.00059532871
0.00059532871
0.00059532873
0.00059532875
0.00059532879
0.00059532888
0.00059532895
0.00059532879
0.00059532877
0.00059532875
0.00059532875
0.00059532875
0.00059532876
0.00059532879
0.00059532883
0.00059532893
0.00059532902
0.00059532889
0.00059532886
0.00059532884
0.00059532884
0.00059532884
0.00059532886
0.00059532888
0.00059532893
0.00059532904
0.00061731962
0.00061731933
0.00061731931
0.00061731929
0.00061731928
0.00061731929
0.00061731932
0.00061731936
0.00061731942
0.00061731954
0.00061731933
0.00061731914
0.00061731911
0.0006173191
0.00061731909
0.0006173191
0.00061731913
0.00061731916
0.00061731923
0.00061731938
0.00061731931
0.00061731911
0.0006173191
0.00061731908
0.00061731908
0.00061731909
0.00061731911
0.00061731914
0.0006173192
0.00061731934
0.00061731929
0.0006173191
0.00061731908
0.00061731907
0.00061731907
0.00061731908
0.00061731909
0.00061731913
0.00061731918
0.00061731931
0.00061731928
0.00061731909
0.00061731908
0.00061731907
0.00061731907
0.00061731907
0.00061731909
0.00061731912
0.00061731917
0.00061731931
0.00061731929
0.0006173191
0.00061731909
0.00061731908
0.00061731907
0.00061731908
0.0006173191
0.00061731913
0.00061731918
0.00061731931
0.00061731932
0.00061731913
0.00061731911
0.00061731909
0.00061731909
0.0006173191
0.00061731911
0.00061731914
0.00061731919
0.00061731933
0.00061731936
0.00061731916
0.00061731914
0.00061731913
0.00061731912
0.00061731913
0.00061731914
0.00061731918
0.00061731923
0.00061731937
0.00061731942
0.00061731923
0.0006173192
0.00061731918
0.00061731917
0.00061731918
0.00061731919
0.00061731923
0.00061731929
0.00061731943
0.00061731954
0.00061731938
0.00061731934
0.00061731931
0.00061731931
0.00061731931
0.00061731933
0.00061731937
0.00061731943
0.00061731961
0.00063853392
0.00063853359
0.00063853356
0.00063853354
0.00063853354
0.00063853355
0.00063853358
0.00063853363
0.00063853371
0.00063853386
0.00063853359
0.00063853336
0.00063853334
0.00063853333
0.00063853333
0.00063853334
0.00063853336
0.00063853341
0.00063853348
0.00063853367
0.00063853356
0.00063853334
0.00063853333
0.00063853331
0.00063853331
0.00063853332
0.00063853335
0.00063853338
0.00063853345
0.00063853362
0.00063853354
0.00063853333
0.00063853331
0.0006385333
0.0006385333
0.00063853331
0.00063853333
0.00063853337
0.00063853342
0.0006385336
0.00063853354
0.00063853333
0.00063853331
0.0006385333
0.0006385333
0.00063853331
0.00063853333
0.00063853336
0.00063853342
0.00063853359
0.00063853355
0.00063853334
0.00063853332
0.00063853331
0.00063853331
0.00063853332
0.00063853334
0.00063853337
0.00063853342
0.0006385336
0.00063853358
0.00063853336
0.00063853335
0.00063853333
0.00063853333
0.00063853334
0.00063853336
0.00063853339
0.00063853345
0.00063853362
0.00063853363
0.00063853341
0.00063853338
0.00063853337
0.00063853336
0.00063853337
0.00063853339
0.00063853342
0.00063853348
0.00063853366
0.00063853371
0.00063853348
0.00063853345
0.00063853342
0.00063853342
0.00063853342
0.00063853345
0.00063853348
0.00063853355
0.00063853374
0.00063853386
0.00063853367
0.00063853362
0.0006385336
0.00063853359
0.0006385336
0.00063853362
0.00063853366
0.00063853374
0.00063853398
0.00065904209
0.00065904172
0.0006590417
0.00065904168
0.00065904168
0.0006590417
0.00065904173
0.00065904178
0.00065904187
0.00065904204
0.00065904172
0.00065904147
0.00065904146
0.00065904144
0.00065904144
0.00065904146
0.00065904148
0.00065904153
0.00065904161
0.00065904183
0.0006590417
0.00065904146
0.00065904145
0.00065904144
0.00065904144
0.00065904145
0.00065904147
0.00065904151
0.00065904158
0.00065904178
0.00065904168
0.00065904144
0.00065904144
0.00065904143
0.00065904143
0.00065904144
0.00065904146
0.0006590415
0.00065904155
0.00065904176
0.00065904168
0.00065904144
0.00065904144
0.00065904143
0.00065904143
0.00065904144
0.00065904146
0.00065904149
0.00065904155
0.00065904175
0.0006590417
0.00065904146
0.00065904145
0.00065904144
0.00065904144
0.00065904145
0.00065904147
0.0006590415
0.00065904155
0.00065904175
0.00065904173
0.00065904148
0.00065904147
0.00065904146
0.00065904146
0.00065904147
0.00065904149
0.00065904152
0.00065904158
0.00065904178
0.00065904178
0.00065904153
0.00065904151
0.0006590415
0.00065904149
0.0006590415
0.00065904152
0.00065904155
0.00065904162
0.00065904182
0.00065904187
0.00065904161
0.00065904158
0.00065904155
0.00065904155
0.00065904155
0.00065904158
0.00065904162
0.00065904169
0.00065904191
0.00065904204
0.00065904183
0.00065904178
0.00065904176
0.00065904175
0.00065904175
0.00065904178
0.00065904182
0.00065904191
0.00065904219
0.00067890383
0.00067890343
0.00067890342
0.00067890341
0.00067890341
0.00067890343
0.00067890346
0.00067890351
0.0006789036
0.0006789038
0.00067890343
0.00067890317
0.00067890316
0.00067890316
0.00067890316
0.00067890317
0.0006789032
0.00067890325
0.00067890332
0.00067890357
0.00067890342
0.00067890316
0.00067890316
0.00067890316
0.00067890316
0.00067890317
0.0006789032
0.00067890323
0.0006789033
0.00067890353
0.00067890341
0.00067890316
0.00067890316
0.00067890315
0.00067890316
0.00067890317
0.00067890319
0.00067890322
0.00067890327
0.0006789035
0.00067890341
0.00067890316
0.00067890316
0.00067890316
0.00067890316
0.00067890317
0.00067890319
0.00067890321
0.00067890327
0.00067890349
0.00067890343
0.00067890317
0.00067890317
0.00067890317
0.00067890317
0.00067890318
0.00067890319
0.00067890322
0.00067890327
0.0006789035
0.00067890346
0.0006789032
0.0006789032
0.00067890319
0.00067890319
0.00067890319
0.00067890321
0.00067890324
0.00067890329
0.00067890352
0.00067890351
0.00067890325
0.00067890323
0.00067890322
0.00067890321
0.00067890322
0.00067890324
0.00067890327
0.00067890333
0.00067890356
0.0006789036
0.00067890332
0.0006789033
0.00067890327
0.00067890327
0.00067890327
0.00067890329
0.00067890333
0.0006789034
0.00067890365
0.0006789038
0.00067890357
0.00067890353
0.0006789035
0.00067890349
0.0006789035
0.00067890352
0.00067890356
0.00067890365
0.00067890397
0.00069817059
0.00069817018
0.00069817017
0.00069817017
0.00069817017
0.00069817019
0.00069817022
0.00069817027
0.00069817036
0.00069817058
0.00069817018
0.00069816991
0.00069816991
0.00069816991
0.00069816991
0.00069816993
0.00069816995
0.00069816999
0.00069817007
0.00069817034
0.00069817017
0.00069816991
0.00069816992
0.00069816992
0.00069816992
0.00069816994
0.00069816996
0.00069816999
0.00069817005
0.00069817029
0.00069817017
0.00069816991
0.00069816992
0.00069816992
0.00069816992
0.00069816993
0.00069816995
0.00069816998
0.00069817003
0.00069817027
0.00069817017
0.00069816991
0.00069816992
0.00069816992
0.00069816993
0.00069816994
0.00069816995
0.00069816998
0.00069817002
0.00069817026
0.00069817019
0.00069816993
0.00069816994
0.00069816993
0.00069816994
0.00069816994
0.00069816996
0.00069816998
0.00069817002
0.00069817026
0.00069817022
0.00069816995
0.00069816996
0.00069816995
0.00069816995
0.00069816996
0.00069816997
0.00069817
0.00069817004
0.00069817028
0.00069817027
0.00069816999
0.00069816999
0.00069816998
0.00069816998
0.00069816998
0.00069817
0.00069817002
0.00069817007
0.00069817032
0.00069817036
0.00069817007
0.00069817005
0.00069817003
0.00069817002
0.00069817002
0.00069817004
0.00069817007
0.00069817014
0.00069817041
0.00069817058
0.00069817034
0.00069817029
0.00069817027
0.00069817026
0.00069817026
0.00069817028
0.00069817032
0.00069817041
0.00069817076
0.00071688713
0.0007168867
0.00071688671
0.00071688671
0.00071688672
0.00071688674
0.00071688676
0.00071688681
0.0007168869
0.00071688712
0.0007168867
0.00071688643
0.00071688644
0.00071688645
0.00071688645
0.00071688647
0.00071688649
0.00071688653
0.0007168866
0.00071688688
0.00071688671
0.00071688644
0.00071688646
0.00071688647
0.00071688648
0.00071688649
0.00071688651
0.00071688653
0.00071688658
0.00071688684
0.00071688671
0.00071688645
0.00071688647
0.00071688648
0.00071688648
0.00071688649
0.00071688651
0.00071688653
0.00071688656
0.00071688681
0.00071688672
0.00071688645
0.00071688648
0.00071688648
0.00071688649
0.0007168865
0.00071688651
0.00071688652
0.00071688656
0.0007168868
0.00071688674
0.00071688647
0.00071688649
0.00071688649
0.0007168865
0.0007168865
0.00071688651
0.00071688653
0.00071688656
0.00071688681
0.00071688676
0.00071688649
0.00071688651
0.00071688651
0.00071688651
0.00071688651
0.00071688652
0.00071688654
0.00071688657
0.00071688682
0.00071688681
0.00071688653
0.00071688653
0.00071688653
0.00071688652
0.00071688653
0.00071688654
0.00071688655
0.0007168866
0.00071688685
0.0007168869
0.0007168866
0.00071688658
0.00071688656
0.00071688656
0.00071688656
0.00071688657
0.0007168866
0.00071688665
0.00071688693
0.00071688712
0.00071688688
0.00071688684
0.00071688681
0.0007168868
0.00071688681
0.00071688682
0.00071688685
0.00071688693
0.00071688731
0.00073509272
0.00073509229
0.00073509231
0.00073509231
0.00073509233
0.00073509234
0.00073509237
0.00073509241
0.00073509249
0.00073509272
0.00073509229
0.00073509201
0.00073509204
0.00073509205
0.00073509206
0.00073509208
0.0007350921
0.00073509212
0.00073509218
0.00073509247
0.00073509231
0.00073509204
0.00073509207
0.00073509209
0.0007350921
0.00073509211
0.00073509212
0.00073509214
0.00073509217
0.00073509243
0.00073509231
0.00073509205
0.00073509209
0.0007350921
0.00073509211
0.00073509212
0.00073509213
0.00073509213
0.00073509216
0.00073509241
0.00073509233
0.00073509206
0.0007350921
0.00073509211
0.00073509212
0.00073509212
0.00073509213
0.00073509213
0.00073509215
0.0007350924
0.00073509234
0.00073509208
0.00073509211
0.00073509212
0.00073509212
0.00073509213
0.00073509213
0.00073509213
0.00073509215
0.0007350924
0.00073509237
0.0007350921
0.00073509212
0.00073509213
0.00073509213
0.00073509213
0.00073509213
0.00073509214
0.00073509216
0.00073509241
0.00073509241
0.00073509212
0.00073509214
0.00073509213
0.00073509213
0.00073509213
0.00073509214
0.00073509214
0.00073509217
0.00073509243
0.00073509249
0.00073509218
0.00073509217
0.00073509216
0.00073509215
0.00073509215
0.00073509216
0.00073509217
0.00073509222
0.0007350925
0.00073509272
0.00073509247
0.00073509243
0.00073509241
0.0007350924
0.0007350924
0.00073509241
0.00073509243
0.0007350925
0.0007350929
0.00075282211
0.00075282167
0.00075282171
0.00075282172
0.00075282174
0.00075282175
0.00075282177
0.00075282181
0.00075282188
0.00075282211
0.00075282167
0.0007528214
0.00075282144
0.00075282146
0.00075282148
0.00075282149
0.0007528215
0.00075282152
0.00075282157
0.00075282186
0.00075282171
0.00075282144
0.00075282149
0.00075282151
0.00075282152
0.00075282153
0.00075282154
0.00075282155
0.00075282157
0.00075282183
0.00075282172
0.00075282146
0.00075282151
0.00075282153
0.00075282154
0.00075282155
0.00075282155
0.00075282155
0.00075282156
0.00075282181
0.00075282174
0.00075282148
0.00075282152
0.00075282154
0.00075282155
0.00075282155
0.00075282155
0.00075282155
0.00075282155
0.0007528218
0.00075282175
0.00075282149
0.00075282153
0.00075282155
0.00075282155
0.00075282156
0.00075282155
0.00075282154
0.00075282155
0.00075282179
0.00075282177
0.0007528215
0.00075282154
0.00075282155
0.00075282155
0.00075282155
0.00075282155
0.00075282154
0.00075282154
0.00075282179
0.00075282181
0.00075282152
0.00075282155
0.00075282155
0.00075282155
0.00075282154
0.00075282154
0.00075282153
0.00075282155
0.00075282181
0.00075282188
0.00075282157
0.00075282157
0.00075282156
0.00075282155
0.00075282155
0.00075282154
0.00075282155
0.00075282158
0.00075282186
0.00075282211
0.00075282186
0.00075282183
0.00075282181
0.0007528218
0.00075282179
0.00075282179
0.00075282181
0.00075282186
0.00075282227
0.00077010625
0.00077010582
0.00077010587
0.00077010589
0.00077010591
0.00077010592
0.00077010594
0.00077010596
0.00077010603
0.00077010626
0.00077010582
0.00077010556
0.00077010561
0.00077010564
0.00077010565
0.00077010567
0.00077010567
0.00077010568
0.00077010572
0.00077010601
0.00077010587
0.00077010561
0.00077010567
0.0007701057
0.00077010571
0.00077010572
0.00077010572
0.00077010572
0.00077010572
0.00077010598
0.00077010589
0.00077010564
0.0007701057
0.00077010572
0.00077010574
0.00077010574
0.00077010574
0.00077010572
0.00077010572
0.00077010596
0.00077010591
0.00077010565
0.00077010571
0.00077010574
0.00077010575
0.00077010575
0.00077010574
0.00077010572
0.00077010571
0.00077010595
0.00077010592
0.00077010567
0.00077010572
0.00077010574
0.00077010575
0.00077010575
0.00077010574
0.00077010571
0.0007701057
0.00077010594
0.00077010594
0.00077010567
0.00077010572
0.00077010574
0.00077010574
0.00077010574
0.00077010572
0.0007701057
0.00077010569
0.00077010594
0.00077010596
0.00077010568
0.00077010572
0.00077010572
0.00077010572
0.00077010571
0.0007701057
0.00077010569
0.00077010568
0.00077010594
0.00077010603
0.00077010572
0.00077010572
0.00077010572
0.00077010571
0.0007701057
0.00077010569
0.00077010568
0.0007701057
0.00077010598
0.00077010626
0.00077010601
0.00077010598
0.00077010596
0.00077010595
0.00077010594
0.00077010594
0.00077010594
0.00077010598
0.00077010639
0.00078697293
0.00078697251
0.00078697257
0.0007869726
0.00078697262
0.00078697263
0.00078697264
0.00078697265
0.00078697271
0.00078697293
0.00078697251
0.00078697225
0.00078697232
0.00078697235
0.00078697237
0.00078697238
0.00078697238
0.00078697238
0.0007869724
0.00078697268
0.00078697257
0.00078697232
0.00078697239
0.00078697243
0.00078697244
0.00078697245
0.00078697244
0.00078697242
0.00078697241
0.00078697266
0.0007869726
0.00078697235
0.00078697243
0.00078697246
0.00078697247
0.00078697247
0.00078697246
0.00078697243
0.00078697241
0.00078697265
0.00078697262
0.00078697237
0.00078697244
0.00078697247
0.00078697249
0.00078697248
0.00078697246
0.00078697243
0.0007869724
0.00078697264
0.00078697263
0.00078697238
0.00078697245
0.00078697247
0.00078697248
0.00078697248
0.00078697245
0.00078697242
0.00078697239
0.00078697262
0.00078697264
0.00078697238
0.00078697244
0.00078697246
0.00078697246
0.00078697245
0.00078697243
0.0007869724
0.00078697237
0.00078697261
0.00078697265
0.00078697238
0.00078697242
0.00078697243
0.00078697243
0.00078697242
0.0007869724
0.00078697237
0.00078697235
0.00078697259
0.00078697271
0.0007869724
0.00078697241
0.00078697241
0.0007869724
0.00078697239
0.00078697237
0.00078697235
0.00078697235
0.00078697262
0.00078697293
0.00078697268
0.00078697266
0.00078697265
0.00078697264
0.00078697262
0.00078697261
0.00078697259
0.00078697262
0.00078697304
0.00080344721
0.00080344679
0.00080344687
0.0008034469
0.00080344693
0.00080344694
0.00080344694
0.00080344694
0.00080344698
0.0008034472
0.00080344679
0.00080344655
0.00080344663
0.00080344667
0.00080344669
0.0008034467
0.00080344669
0.00080344668
0.00080344668
0.00080344696
0.00080344687
0.00080344663
0.00080344671
0.00080344675
0.00080344677
0.00080344677
0.00080344676
0.00080344673
0.0008034467
0.00080344694
0.0008034469
0.00080344667
0.00080344675
0.00080344679
0.00080344681
0.00080344681
0.00080344678
0.00080344675
0.0008034467
0.00080344693
0.00080344693
0.00080344669
0.00080344677
0.00080344681
0.00080344682
0.00080344681
0.00080344679
0.00080344674
0.0008034467
0.00080344692
0.00080344694
0.0008034467
0.00080344677
0.00080344681
0.00080344681
0.0008034468
0.00080344677
0.00080344673
0.00080344668
0.0008034469
0.00080344694
0.00080344669
0.00080344676
0.00080344678
0.00080344679
0.00080344677
0.00080344674
0.0008034467
0.00080344665
0.00080344687
0.00080344694
0.00080344668
0.00080344673
0.00080344675
0.00080344674
0.00080344673
0.0008034467
0.00080344665
0.00080344661
0.00080344685
0.00080344698
0.00080344668
0.0008034467
0.0008034467
0.0008034467
0.00080344668
0.00080344665
0.00080344661
0.00080344659
0.00080344686
0.0008034472
0.00080344696
0.00080344694
0.00080344693
0.00080344692
0.0008034469
0.00080344687
0.00080344685
0.00080344686
0.00080344727
0.00081955183
0.00081955143
0.00081955152
0.00081955156
0.00081955159
0.00081955159
0.00081955159
0.00081955158
0.00081955161
0.00081955182
0.00081955143
0.00081955121
0.0008195513
0.00081955134
0.00081955136
0.00081955137
0.00081955135
0.00081955133
0.00081955132
0.00081955158
0.00081955152
0.0008195513
0.00081955139
0.00081955143
0.00081955145
0.00081955145
0.00081955143
0.00081955139
0.00081955135
0.00081955157
0.00081955156
0.00081955134
0.00081955143
0.00081955148
0.0008195515
0.00081955149
0.00081955146
0.00081955141
0.00081955135
0.00081955156
0.00081955159
0.00081955136
0.00081955145
0.0008195515
0.00081955151
0.0008195515
0.00081955146
0.0008195514
0.00081955134
0.00081955155
0.00081955159
0.00081955137
0.00081955145
0.00081955149
0.0008195515
0.00081955148
0.00081955144
0.00081955138
0.00081955131
0.00081955152
0.00081955159
0.00081955135
0.00081955143
0.00081955146
0.00081955146
0.00081955144
0.0008195514
0.00081955134
0.00081955128
0.00081955149
0.00081955158
0.00081955133
0.00081955139
0.00081955141
0.0008195514
0.00081955138
0.00081955134
0.00081955128
0.00081955123
0.00081955145
0.00081955161
0.00081955132
0.00081955135
0.00081955135
0.00081955134
0.00081955131
0.00081955128
0.00081955123
0.00081955119
0.00081955144
0.00081955182
0.00081955158
0.00081955157
0.00081955156
0.00081955155
0.00081955152
0.00081955149
0.00081955145
0.00081955144
0.00081955185
0.00083530757
0.00083530718
0.00083530728
0.00083530733
0.00083530735
0.00083530736
0.00083530734
0.00083530733
0.00083530734
0.00083530754
0.00083530718
0.00083530697
0.00083530707
0.00083530712
0.00083530714
0.00083530714
0.00083530712
0.00083530709
0.00083530706
0.00083530731
0.00083530728
0.00083530707
0.00083530717
0.00083530722
0.00083530725
0.00083530724
0.00083530721
0.00083530716
0.0008353071
0.00083530731
0.00083530733
0.00083530712
0.00083530722
0.00083530727
0.00083530729
0.00083530728
0.00083530724
0.00083530718
0.0008353071
0.0008353073
0.00083530735
0.00083530714
0.00083530725
0.00083530729
0.0008353073
0.00083530729
0.00083530724
0.00083530717
0.00083530709
0.00083530729
0.00083530736
0.00083530714
0.00083530724
0.00083530728
0.00083530729
0.00083530727
0.00083530722
0.00083530715
0.00083530706
0.00083530726
0.00083530734
0.00083530712
0.00083530721
0.00083530724
0.00083530724
0.00083530722
0.00083530717
0.0008353071
0.00083530701
0.00083530721
0.00083530733
0.00083530709
0.00083530716
0.00083530718
0.00083530717
0.00083530715
0.0008353071
0.00083530703
0.00083530695
0.00083530716
0.00083530734
0.00083530706
0.0008353071
0.0008353071
0.00083530709
0.00083530706
0.00083530701
0.00083530695
0.00083530689
0.00083530713
0.00083530754
0.00083530731
0.00083530731
0.0008353073
0.00083530729
0.00083530726
0.00083530721
0.00083530716
0.00083530713
0.00083530753
0.00085073344
0.00085073307
0.00085073318
0.00085073323
0.00085073326
0.00085073326
0.00085073324
0.00085073321
0.00085073321
0.0008507334
0.00085073307
0.00085073288
0.00085073299
0.00085073304
0.00085073306
0.00085073306
0.00085073303
0.00085073298
0.00085073294
0.00085073318
0.00085073318
0.00085073299
0.0008507331
0.00085073315
0.00085073317
0.00085073316
0.00085073313
0.00085073306
0.00085073298
0.00085073318
0.00085073323
0.00085073304
0.00085073315
0.00085073321
0.00085073322
0.00085073321
0.00085073316
0.00085073308
0.00085073299
0.00085073318
0.00085073326
0.00085073306
0.00085073317
0.00085073322
0.00085073324
0.00085073322
0.00085073316
0.00085073308
0.00085073298
0.00085073316
0.00085073326
0.00085073306
0.00085073316
0.00085073321
0.00085073322
0.00085073319
0.00085073314
0.00085073305
0.00085073295
0.00085073312
0.00085073324
0.00085073303
0.00085073313
0.00085073316
0.00085073316
0.00085073314
0.00085073308
0.00085073299
0.00085073289
0.00085073307
0.00085073321
0.00085073298
0.00085073306
0.00085073308
0.00085073308
0.00085073305
0.00085073299
0.00085073291
0.00085073281
0.000850733
0.00085073321
0.00085073294
0.00085073298
0.00085073299
0.00085073298
0.00085073295
0.00085073289
0.00085073281
0.00085073274
0.00085073296
0.0008507334
0.00085073318
0.00085073318
0.00085073318
0.00085073316
0.00085073312
0.00085073307
0.000850733
0.00085073296
0.00085073334
0.00086584698
0.00086584663
0.00086584675
0.0008658468
0.00086584683
0.00086584682
0.0008658468
0.00086584676
0.00086584675
0.00086584692
0.00086584663
0.00086584645
0.00086584657
0.00086584662
0.00086584665
0.00086584664
0.0008658466
0.00086584654
0.00086584649
0.00086584671
0.00086584675
0.00086584657
0.00086584669
0.00086584674
0.00086584676
0.00086584675
0.00086584671
0.00086584663
0.00086584654
0.00086584672
0.0008658468
0.00086584662
0.00086584674
0.0008658468
0.00086584682
0.0008658468
0.00086584674
0.00086584665
0.00086584655
0.00086584672
0.00086584683
0.00086584665
0.00086584676
0.00086584682
0.00086584683
0.0008658468
0.00086584674
0.00086584665
0.00086584653
0.0008658467
0.00086584682
0.00086584664
0.00086584675
0.0008658468
0.0008658468
0.00086584678
0.00086584671
0.00086584661
0.00086584649
0.00086584666
0.0008658468
0.0008658466
0.00086584671
0.00086584674
0.00086584674
0.00086584671
0.00086584665
0.00086584655
0.00086584643
0.00086584659
0.00086584676
0.00086584654
0.00086584663
0.00086584665
0.00086584665
0.00086584661
0.00086584655
0.00086584645
0.00086584634
0.00086584651
0.00086584675
0.00086584649
0.00086584654
0.00086584655
0.00086584653
0.00086584649
0.00086584643
0.00086584634
0.00086584625
0.00086584645
0.00086584692
0.00086584671
0.00086584672
0.00086584672
0.0008658467
0.00086584666
0.00086584659
0.00086584651
0.00086584645
0.00086584682
0.00088066438
0.00088066405
0.00088066417
0.00088066423
0.00088066426
0.00088066425
0.00088066422
0.00088066417
0.00088066414
0.00088066431
0.00088066405
0.00088066388
0.00088066401
0.00088066407
0.00088066409
0.00088066408
0.00088066404
0.00088066397
0.0008806639
0.00088066411
0.00088066417
0.00088066401
0.00088066414
0.0008806642
0.00088066422
0.0008806642
0.00088066415
0.00088066406
0.00088066395
0.00088066412
0.00088066423
0.00088066407
0.0008806642
0.00088066425
0.00088066427
0.00088066425
0.00088066419
0.00088066409
0.00088066397
0.00088066412
0.00088066426
0.00088066409
0.00088066422
0.00088066427
0.00088066428
0.00088066425
0.00088066419
0.00088066408
0.00088066395
0.0008806641
0.00088066425
0.00088066408
0.0008806642
0.00088066425
0.00088066425
0.00088066422
0.00088066415
0.00088066404
0.00088066391
0.00088066405
0.00088066422
0.00088066404
0.00088066415
0.00088066419
0.00088066419
0.00088066415
0.00088066408
0.00088066396
0.00088066383
0.00088066398
0.00088066417
0.00088066397
0.00088066406
0.00088066409
0.00088066408
0.00088066404
0.00088066396
0.00088066386
0.00088066373
0.00088066389
0.00088066414
0.0008806639
0.00088066395
0.00088066397
0.00088066395
0.00088066391
0.00088066383
0.00088066373
0.00088066363
0.00088066381
0.00088066431
0.00088066411
0.00088066412
0.00088066412
0.0008806641
0.00088066405
0.00088066398
0.00088066389
0.00088066381
0.00088066416
0.00089520068
0.00089520037
0.0008952005
0.00089520057
0.00089520059
0.00089520058
0.00089520054
0.00089520048
0.00089520044
0.00089520059
0.00089520037
0.00089520022
0.00089520035
0.00089520042
0.00089520044
0.00089520043
0.00089520038
0.0008952003
0.00089520022
0.0008952004
0.0008952005
0.00089520035
0.00089520048
0.00089520055
0.00089520057
0.00089520055
0.00089520049
0.00089520039
0.00089520027
0.00089520042
0.00089520057
0.00089520042
0.00089520055
0.00089520061
0.00089520062
0.0008952006
0.00089520053
0.00089520042
0.00089520029
0.00089520042
0.00089520059
0.00089520044
0.00089520057
0.00089520062
0.00089520063
0.0008952006
0.00089520053
0.00089520041
0.00089520027
0.0008952004
0.00089520058
0.00089520043
0.00089520055
0.0008952006
0.0008952006
0.00089520056
0.00089520049
0.00089520037
0.00089520022
0.00089520035
0.00089520054
0.00089520038
0.00089520049
0.00089520053
0.00089520053
0.00089520049
0.00089520041
0.00089520028
0.00089520014
0.00089520027
0.00089520048
0.0008952003
0.00089520039
0.00089520042
0.00089520041
0.00089520037
0.00089520028
0.00089520017
0.00089520003
0.00089520017
0.00089520044
0.00089520022
0.00089520027
0.00089520029
0.00089520027
0.00089520022
0.00089520014
0.00089520003
0.00089519991
0.00089520008
0.00089520059
0.0008952004
0.00089520042
0.00089520042
0.0008952004
0.00089520035
0.00089520027
0.00089520017
0.00089520008
0.00089520041
0.00090946989
0.0009094696
0.00090946974
0.0009094698
0.00090946982
0.00090946981
0.00090946976
0.0009094697
0.00090946965
0.00090946978
0.0009094696
0.00090946947
0.0009094696
0.00090946967
0.00090946969
0.00090946967
0.00090946962
0.00090946953
0.00090946943
0.00090946961
0.00090946974
0.0009094696
0.00090946974
0.0009094698
0.00090946982
0.00090946979
0.00090946973
0.00090946962
0.00090946949
0.00090946962
0.0009094698
0.00090946967
0.0009094698
0.00090946986
0.00090946988
0.00090946985
0.00090946977
0.00090946965
0.00090946951
0.00090946963
0.00090946982
0.00090946969
0.00090946982
0.00090946988
0.00090946988
0.00090946985
0.00090946977
0.00090946964
0.00090946949
0.0009094696
0.00090946981
0.00090946967
0.00090946979
0.00090946985
0.00090946985
0.00090946981
0.00090946972
0.00090946959
0.00090946944
0.00090946955
0.00090946976
0.00090946962
0.00090946973
0.00090946977
0.00090946977
0.00090946972
0.00090946964
0.00090946951
0.00090946935
0.00090946946
0.0009094697
0.00090946953
0.00090946962
0.00090946965
0.00090946964
0.00090946959
0.00090946951
0.00090946938
0.00090946923
0.00090946935
0.00090946965
0.00090946943
0.00090946949
0.00090946951
0.00090946949
0.00090946944
0.00090946935
0.00090946923
0.0009094691
0.00090946925
0.00090946978
0.00090946961
0.00090946962
0.00090946963
0.0009094696
0.00090946955
0.00090946946