/*--------------------------------*- C++ -*----------------------------------*\
| =========                 |                                                 |
| \\      /  F ield         | OpenFOAM: The Open Source CFD Toolbox           |
|  \\    /   O peration     | Version:  v2106                                 |
|   \\  /    A nd           | Website:  www.openfoam.com                      |
|    \\/     M anipulation  |                                                 |
\*---------------------------------------------------------------------------*/
FoamFile
{
    version     2.0;
    format      ascii;
    arch        "LSB;label=32;scalar=64";
    class       volVectorField;
    location    "70";
    object      flux;
}
// * * * * * * * * * * * * * * * * * * * * * * * * * * * * * * * * * * * * * //

dimensions      [0 1 -1 1 0 0 0];

internalField   nonuniform List<vector> 
4000
(
(2.9424567e-07 2.9424567e-07 0.72781235)
(6.4651324e-07 2.6088316e-07 0.72781452)
(3.2555017e-07 2.5314896e-07 0.72781557)
(1.7638442e-07 2.5014532e-07 0.7278162)
(5.63639e-08 2.4838332e-07 0.72781649)
(-4.8036938e-08 2.4677049e-07 0.72781648)
(-1.3712264e-07 2.4457418e-07 0.72781623)
(-2.0217321e-07 2.4053677e-07 0.72781575)
(-2.1594191e-07 2.3144433e-07 0.72781514)
(-6.8312988e-08 2.0932637e-07 0.72781456)
(2.6088316e-07 6.4651325e-07 0.72781452)
(5.8486818e-07 5.8486817e-07 0.72781643)
(3.0944341e-07 5.6550969e-07 0.72781742)
(1.6923596e-07 5.5595489e-07 0.72781802)
(5.1301659e-08 5.4944541e-07 0.7278183)
(-5.3750645e-08 5.432915e-07 0.72781828)
(-1.4647322e-07 5.3547127e-07 0.72781801)
(-2.2186799e-07 5.2295639e-07 0.7278175)
(-2.627575e-07 4.9962132e-07 0.72781682)
(-9.0430947e-08 4.5440093e-07 0.72781603)
(2.5314895e-07 3.2555018e-07 0.72781557)
(5.6550968e-07 3.0944341e-07 0.72781742)
(2.9663689e-07 2.9663689e-07 0.72781837)
(1.6032015e-07 2.8702925e-07 0.72781894)
(4.3700504e-08 2.7899585e-07 0.7278192)
(-6.2011075e-08 2.7110129e-07 0.72781917)
(-1.5745775e-07 2.6197922e-07 0.72781887)
(-2.3802316e-07 2.501106e-07 0.72781833)
(-2.8449736e-07 2.3426892e-07 0.72781759)
(-9.8459913e-08 2.1695126e-07 0.72781674)
(2.5014531e-07 1.7638442e-07 0.7278162)
(5.5595488e-07 1.6923597e-07 0.72781802)
(2.8702925e-07 1.6032014e-07 0.72781894)
(1.5159493e-07 1.5159492e-07 0.72781949)
(3.5373694e-08 1.4327111e-07 0.72781973)
(-7.0767273e-08 1.3494809e-07 0.72781967)
(-1.6746391e-07 1.260698e-07 0.72781935)
(-2.4957829e-07 1.1625523e-07 0.72781878)
(-2.9591684e-07 1.059557e-07 0.72781801)
(-1.0197606e-07 9.7830537e-08 0.72781714)
(2.4838332e-07 5.6363894e-08 0.72781649)
(5.494454e-07 5.1301667e-08 0.7278183)
(2.7899585e-07 4.3700507e-08 0.7278192)
(1.4327111e-07 3.5373698e-08 0.72781973)
(2.7053668e-08 2.7053672e-08 0.72781994)
(-7.9212378e-08 1.8830143e-08 0.72781986)
(-1.7615061e-07 1.0594969e-08 0.72781952)
(-2.5813727e-07 2.439477e-09 0.72781893)
(-3.0292205e-07 -4.9096858e-09 0.72781813)
(-1.0387669e-07 -9.7213712e-09 0.72781725)
(2.467705e-07 -4.8036945e-08 0.72781648)
(5.432915e-07 -5.3750639e-08 0.72781828)
(2.7110128e-07 -6.201107e-08 0.72781917)
(1.3494809e-07 -7.0767271e-08 0.72781967)
(1.8830139e-08 -7.9212374e-08 0.72781986)
(-8.7225976e-08 -8.7225962e-08 0.72781977)
(-1.8385457e-07 -9.4872556e-08 0.7278194)
(-2.6508294e-07 -1.0202952e-07 0.72781879)
(-3.0807769e-07 -1.0808255e-07 0.72781798)
(-1.0518385e-07 -1.1179243e-07 0.72781708)
(2.4457419e-07 -1.3712264e-07 0.72781623)
(5.3547128e-07 -1.4647323e-07 0.72781801)
(2.6197922e-07 -1.5745775e-07 0.72781887)
(1.2606981e-07 -1.6746392e-07 0.72781935)
(1.0594977e-08 -1.7615062e-07 0.72781952)
(-9.487256e-08 -1.8385457e-07 0.7278194)
(-1.9095416e-07 -1.9095414e-07 0.72781901)
(-2.7134726e-07 -1.9758224e-07 0.72781838)
(-3.1268496e-07 -2.0336731e-07 0.72781756)
(-1.0634994e-07 -2.0714014e-07 0.72781665)
(2.4053677e-07 -2.0217321e-07 0.72781575)
(5.2295639e-07 -2.2186799e-07 0.7278175)
(2.501106e-07 -2.3802316e-07 0.72781833)
(1.1625523e-07 -2.4957828e-07 0.72781878)
(2.4394868e-09 -2.5813726e-07 0.72781893)
(-1.020295e-07 -2.6508294e-07 0.72781879)
(-1.9758225e-07 -2.7134726e-07 0.72781838)
(-2.7749611e-07 -2.7749609e-07 0.72781774)
(-3.1763559e-07 -2.8359105e-07 0.7278169)
(-1.0769906e-07 -2.8844254e-07 0.72781598)
(2.3144433e-07 -2.1594191e-07 0.72781514)
(4.9962133e-07 -2.6275749e-07 0.72781682)
(2.3426892e-07 -2.8449737e-07 0.72781759)
(1.059557e-07 -2.9591684e-07 0.72781801)
(-4.909676e-09 -3.0292205e-07 0.72781813)
(-1.0808256e-07 -3.0807769e-07 0.72781798)
(-2.0336732e-07 -3.1268498e-07 0.72781756)
(-2.8359105e-07 -3.1763559e-07 0.7278169)
(-3.2363141e-07 -3.236314e-07 0.72781604)
(-1.0958427e-07 -3.3019596e-07 0.7278151)
(2.0932638e-07 -6.8312992e-08 0.72781456)
(4.5440094e-07 -9.0430945e-08 0.72781603)
(2.1695126e-07 -9.8459917e-08 0.72781674)
(9.7830542e-08 -1.0197606e-07 0.72781714)
(-9.7213686e-09 -1.0387669e-07 0.72781725)
(-1.1179244e-07 -1.0518385e-07 0.72781708)
(-2.0714014e-07 -1.0634994e-07 0.72781665)
(-2.8844253e-07 -1.0769907e-07 0.72781598)
(-3.3019596e-07 -1.0958426e-07 0.7278151)
(-1.1207544e-07 -1.1207543e-07 0.72781414)
(1.2925344e-06 1.2925344e-06 1.0826165)
(2.8970142e-06 1.1299518e-06 1.0826192)
(1.5350446e-06 1.0939123e-06 1.0826206)
(8.4565902e-07 1.0797078e-06 1.0826215)
(2.6625252e-07 1.0711504e-06 1.0826219)
(-2.4587e-07 1.0632372e-06 1.0826219)
(-6.887486e-07 1.0523925e-06 1.0826215)
(-1.0253041e-06 1.0321011e-06 1.0826207)
(-1.1417084e-06 9.8378594e-07 1.0826197)
(-3.7457164e-07 8.4463632e-07 1.0826186)
(1.1299518e-06 2.8970142e-06 1.0826192)
(2.5990812e-06 2.5990812e-06 1.0826216)
(1.4596786e-06 2.5086623e-06 1.0826229)
(8.1151609e-07 2.4630453e-06 1.0826237)
(2.4154667e-07 2.4313473e-06 1.0826241)
(-2.7400686e-07 2.4011584e-06 1.0826241)
(-7.3545277e-07 2.3626253e-06 1.0826236)
(-1.1282139e-06 2.300292e-06 1.0826229)
(-1.4229056e-06 2.1796693e-06 1.0826217)
(-5.1372126e-07 1.9130668e-06 1.0826202)
(1.0939123e-06 1.5350446e-06 1.0826206)
(2.5086623e-06 1.4596786e-06 1.0826229)
(1.3990087e-06 1.3990086e-06 1.0826242)
(7.6834404e-07 1.3525029e-06 1.082625)
(2.0436567e-07 1.3132424e-06 1.0826253)
(-3.1459199e-07 1.274506e-06 1.0826253)
(-7.8961505e-07 1.2296498e-06 1.0826248)
(-1.2082601e-06 1.1711408e-06 1.082624)
(-1.5289335e-06 1.0927572e-06 1.0826227)
(-5.5230662e-07 1.0091171e-06 1.0826212)
(1.0797078e-06 8.4565902e-07 1.0826215)
(2.4630453e-06 8.115161e-07 1.0826237)
(1.3525029e-06 7.6834403e-07 1.082625)
(7.2574989e-07 7.2574989e-07 1.0826258)
(1.6354976e-07 6.8496021e-07 1.0826261)
(-3.5759952e-07 6.4409583e-07 1.082626)
(-8.3881805e-07 6.0045755e-07 1.0826255)
(-1.2651065e-06 5.5218346e-07 1.0826246)
(-1.5849293e-06 5.0152142e-07 1.0826233)
(-5.6948131e-07 4.6175619e-07 1.0826217)
(1.0711504e-06 2.6625253e-07 1.0826219)
(2.4313473e-06 2.4154667e-07 1.0826241)
(1.3132424e-06 2.0436568e-07 1.0826253)
(6.8496021e-07 1.6354977e-07 1.0826261)
(1.2271162e-07 1.2271164e-07 1.0826264)
(-3.9909464e-07 8.2306534e-08 1.0826262)
(-8.8152741e-07 4.1810562e-08 1.0826257)
(-1.3071962e-06 1.6784103e-09 1.0826248)
(-1.6193608e-06 -3.4500523e-08 1.0826235)
(-5.7881678e-07 -5.8179392e-08 1.0826219)
(1.0632372e-06 -2.4587e-07 1.0826219)
(2.4011584e-06 -2.7400687e-07 1.0826241)
(1.274506e-06 -3.1459198e-07 1.0826253)
(6.4409584e-07 -3.5759952e-07 1.082626)
(8.2306529e-08 -3.9909463e-07 1.0826262)
(-4.3850059e-07 -4.3850058e-07 1.0826261)
(-9.1944618e-07 -4.7614876e-07 1.0826255)
(-1.3414176e-06 -5.1145427e-07 1.0826245)
(-1.6447871e-06 -5.4140164e-07 1.0826232)
(-5.8526723e-07 -5.5982726e-07 1.0826216)
(1.0523925e-06 -6.8874861e-07 1.0826215)
(2.3626253e-06 -7.3545276e-07 1.0826236)
(1.2296498e-06 -7.8961505e-07 1.0826248)
(6.0045756e-07 -8.3881805e-07 1.0826255)
(4.1810554e-08 -8.8152743e-07 1.0826257)
(-4.7614877e-07 -9.1944618e-07 1.0826255)
(-9.5448111e-07 -9.5448111e-07 1.0826249)
(-1.3724491e-06 -9.8736654e-07 1.0826239)
(-1.6677338e-06 -1.0163795e-06 1.0826226)
(-5.9110053e-07 -1.0356726e-06 1.0826209)
(1.0321011e-06 -1.0253041e-06 1.0826207)
(2.300292e-06 -1.1282139e-06 1.0826229)
(1.1711408e-06 -1.2082601e-06 1.082624)
(5.5218346e-07 -1.2651066e-06 1.0826246)
(1.6784079e-09 -1.3071962e-06 1.0826248)
(-5.1145427e-07 -1.3414176e-06 1.0826245)
(-9.8736654e-07 -1.3724491e-06 1.0826239)
(-1.4033161e-06 -1.4033161e-06 1.0826229)
(-1.6930932e-06 -1.4348609e-06 1.0826215)
(-5.9812928e-07 -1.4616974e-06 1.0826199)
(9.8378594e-07 -1.1417084e-06 1.0826197)
(2.1796693e-06 -1.4229056e-06 1.0826217)
(1.0927572e-06 -1.5289335e-06 1.0826227)
(5.0152142e-07 -1.5849293e-06 1.0826233)
(-3.4500514e-08 -1.6193608e-06 1.0826235)
(-5.4140164e-07 -1.6447871e-06 1.0826232)
(-1.0163795e-06 -1.6677338e-06 1.0826226)
(-1.4348609e-06 -1.6930932e-06 1.0826215)
(-1.7261151e-06 -1.7261151e-06 1.0826201)
(-6.0899152e-07 -1.7701029e-06 1.0826184)
(8.4463633e-07 -3.7457164e-07 1.0826186)
(1.9130668e-06 -5.1372125e-07 1.0826202)
(1.0091171e-06 -5.5230663e-07 1.0826212)
(4.6175619e-07 -5.6948132e-07 1.0826217)
(-5.8179372e-08 -5.7881678e-07 1.0826219)
(-5.5982726e-07 -5.8526723e-07 1.0826216)
(-1.0356726e-06 -5.9110053e-07 1.0826209)
(-1.4616974e-06 -5.9812929e-07 1.0826199)
(-1.7701028e-06 -6.0899153e-07 1.0826184)
(-6.2745444e-07 -6.2745444e-07 1.0826166)
(2.0988632e-06 2.0988632e-06 1.0825735)
(4.766498e-06 1.8351103e-06 1.0825758)
(2.6072611e-06 1.775694e-06 1.0825771)
(1.4453174e-06 1.7514763e-06 1.0825779)
(4.3162259e-07 1.7364709e-06 1.0825782)
(-4.8393533e-07 1.7223735e-06 1.0825781)
(-1.2964103e-06 1.7028852e-06 1.0825777)
(-1.9599531e-06 1.6661126e-06 1.0825769)
(-2.3457488e-06 1.5775692e-06 1.0825757)
(-8.1527159e-07 1.3191917e-06 1.0825744)
(1.8351103e-06 4.766498e-06 1.0825758)
(4.2817441e-06 4.2817441e-06 1.0825779)
(2.4818101e-06 4.1310438e-06 1.082579)
(1.3864828e-06 4.0525215e-06 1.0825798)
(3.8796836e-07 3.9967157e-06 1.0825801)
(-5.3431391e-07 3.9429117e-06 1.08258)
(-1.3808017e-06 3.873781e-06 1.0825795)
(-2.1479272e-06 3.7613142e-06 1.0825787)
(-2.8661301e-06 3.5420769e-06 1.0825774)
(-1.073649e-06 3.0532267e-06 1.0825757)
(1.775694e-06 2.6072611e-06 1.0825771)
(4.1310438e-06 2.4818101e-06 1.082579)
(2.3780385e-06 2.3780385e-06 1.0825802)
(1.3109893e-06 2.2967856e-06 1.0825809)
(3.2201275e-07 2.227268e-06 1.0825812)
(-6.0687002e-07 2.1581614e-06 1.0825811)
(-1.4780078e-06 2.0778178e-06 1.0825806)
(-2.2916572e-06 1.9728143e-06 1.0825796)
(-3.0538363e-06 1.8323118e-06 1.0825783)
(-1.1411718e-06 1.6855213e-06 1.0825765)
(1.7514763e-06 1.4453174e-06 1.0825779)
(4.0525215e-06 1.3864828e-06 1.0825798)
(2.2967856e-06 1.3109893e-06 1.0825809)
(1.2357123e-06 1.2357123e-06 1.0825816)
(2.4934417e-07 1.1631352e-06 1.0825818)
(-6.8376416e-07 1.0901229e-06 1.0825817)
(-1.5661488e-06 1.0119659e-06 1.0825811)
(-2.3934332e-06 9.2542159e-07 1.0825802)
(-3.1534231e-06 8.347239e-07 1.0825788)
(-1.1715093e-06 7.6421609e-07 1.0825769)
(1.7364709e-06 4.3162258e-07 1.0825782)
(3.9967157e-06 3.8796837e-07 1.0825801)
(2.227268e-06 3.2201274e-07 1.0825812)
(1.1631352e-06 2.4934416e-07 1.0825818)
(1.7642342e-07 1.7642343e-07 1.0825821)
(-7.5803938e-07 1.0410179e-07 1.0825819)
(-1.6427091e-06 3.1468926e-08 1.0825813)
(-2.4688992e-06 -4.0628105e-08 1.0825803)
(-3.2150418e-06 -1.0566914e-07 1.0825789)
(-1.188177e-06 -1.4816203e-07 1.082577)
(1.7223735e-06 -4.8393533e-07 1.0825781)
(3.9429117e-06 -5.343139e-07 1.08258)
(2.1581614e-06 -6.0687001e-07 1.0825811)
(1.090123e-06 -6.8376415e-07 1.0825817)
(1.041018e-07 -7.5803937e-07 1.0825819)
(-8.2871866e-07 -8.2871864e-07 1.0825817)
(-1.7108787e-06 -8.9645472e-07 1.0825811)
(-2.5305713e-06 -9.6026898e-07 1.08258)
(-3.260957e-06 -1.0147638e-06 1.0825786)
(-1.1998379e-06 -1.0485884e-06 1.0825767)
(1.7028852e-06 -1.2964103e-06 1.0825777)
(3.873781e-06 -1.3808017e-06 1.0825795)
(2.0778178e-06 -1.4780078e-06 1.0825806)
(1.0119659e-06 -1.5661488e-06 1.0825811)
(3.1468926e-08 -1.6427091e-06 1.0825813)
(-8.9645472e-07 -1.7108787e-06 1.0825811)
(-1.7742595e-06 -1.7742595e-06 1.0825804)
(-2.5872083e-06 -1.8344952e-06 1.0825794)
(-3.3033612e-06 -1.888917e-06 1.0825779)
(-1.2107267e-06 -1.9266953e-06 1.082576)
(1.6661126e-06 -1.9599531e-06 1.0825769)
(3.7613142e-06 -2.1479272e-06 1.0825787)
(1.9728143e-06 -2.2916572e-06 1.0825796)
(9.2542159e-07 -2.3934332e-06 1.0825802)
(-4.062811e-08 -2.4688992e-06 1.0825803)
(-9.6026898e-07 -2.5305713e-06 1.08258)
(-1.8344952e-06 -2.5872083e-06 1.0825794)
(-2.6452288e-06 -2.6452288e-06 1.0825783)
(-3.3531571e-06 -2.708455e-06 1.0825768)
(-1.2250234e-06 -2.7699785e-06 1.0825749)
(1.5775692e-06 -2.3457488e-06 1.0825757)
(3.5420769e-06 -2.8661301e-06 1.0825774)
(1.8323117e-06 -3.0538363e-06 1.0825783)
(8.347239e-07 -3.1534231e-06 1.0825788)
(-1.0566912e-07 -3.2150418e-06 1.0825789)
(-1.0147638e-06 -3.260957e-06 1.0825786)
(-1.888917e-06 -3.3033612e-06 1.0825779)
(-2.708455e-06 -3.3531571e-06 1.0825768)
(-3.4281109e-06 -3.4281109e-06 1.0825753)
(-1.2517423e-06 -3.5691329e-06 1.0825733)
(1.3191918e-06 -8.1527159e-07 1.0825744)
(3.0532267e-06 -1.073649e-06 1.0825757)
(1.6855213e-06 -1.1411718e-06 1.0825765)
(7.6421609e-07 -1.1715093e-06 1.0825769)
(-1.4816202e-07 -1.188177e-06 1.082577)
(-1.0485884e-06 -1.1998379e-06 1.0825767)
(-1.9266953e-06 -1.2107267e-06 1.082576)
(-2.7699785e-06 -1.2250234e-06 1.0825749)
(-3.5691329e-06 -1.2517423e-06 1.0825733)
(-1.3190381e-06 -1.3190381e-06 1.0825712)
(2.8289192e-06 2.8289192e-06 1.0825055)
(6.450443e-06 2.4739148e-06 1.0825077)
(3.5617127e-06 2.3936515e-06 1.0825088)
(1.9662324e-06 2.360289e-06 1.0825095)
(5.3955726e-07 2.3391788e-06 1.0825098)
(-7.7249461e-07 2.3190537e-06 1.0825096)
(-1.9613537e-06 2.2910024e-06 1.0825091)
(-2.9729494e-06 2.2377651e-06 1.0825083)
(-3.649463e-06 2.1088713e-06 1.0825071)
(-1.2915994e-06 1.7307436e-06 1.0825056)
(2.4739148e-06 6.450443e-06 1.0825077)
(5.7975414e-06 5.7975414e-06 1.0825095)
(3.391274e-06 5.592723e-06 1.0825106)
(1.8845233e-06 5.4838384e-06 1.0825113)
(4.7770435e-07 5.405071e-06 1.0825115)
(-8.447592e-07 5.3282378e-06 1.0825114)
(-2.0832866e-06 5.2288665e-06 1.0825109)
(-3.246146e-06 5.0665092e-06 1.0825099)
(-4.4099952e-06 4.7488145e-06 1.0825086)
(-1.6697271e-06 4.037787e-06 1.0825068)
(2.3936515e-06 3.5617127e-06 1.0825088)
(5.592723e-06 3.391274e-06 1.0825106)
(3.2480097e-06 3.2480097e-06 1.0825116)
(1.7785805e-06 3.1340958e-06 1.0825122)
(3.8395663e-07 3.0354824e-06 1.0825125)
(-9.4869908e-07 2.9367001e-06 1.0825123)
(-2.2230823e-06 2.8213596e-06 1.0825118)
(-3.4530014e-06 2.67032e-06 1.0825108)
(-4.6781852e-06 2.4683514e-06 1.0825094)
(-1.7656178e-06 2.2597296e-06 1.0825075)
(2.360289e-06 1.9662324e-06 1.0825095)
(5.4838384e-06 1.8845233e-06 1.0825113)
(3.1340958e-06 1.7785805e-06 1.0825122)
(1.671996e-06 1.6719961e-06 1.0825128)
(2.8030866e-07 1.5685513e-06 1.0825131)
(-1.058882e-06 1.4640105e-06 1.0825129)
(-2.3496668e-06 1.3517864e-06 1.0825123)
(-3.5991542e-06 1.2273665e-06 1.0825112)
(-4.8205856e-06 1.0970941e-06 1.0825098)
(-1.8088083e-06 9.9646421e-07 1.0825079)
(2.3391788e-06 5.3955726e-07 1.0825098)
(5.405071e-06 4.7770436e-07 1.0825115)
(3.0354824e-06 3.8395663e-07 1.0825125)
(1.5685513e-06 2.8030866e-07 1.0825131)
(1.7597111e-07 1.7597111e-07 1.0825132)
(-1.165464e-06 7.2196068e-08 1.082513)
(-2.4597263e-06 -3.2283507e-08 1.0825124)
(-3.7076938e-06 -1.3619054e-07 1.0825113)
(-4.9090875e-06 -2.3001142e-07 1.0825098)
(-1.8327044e-06 -2.9122671e-07 1.0825079)
(2.3190537e-06 -7.724946e-07 1.0825096)
(5.3282378e-06 -8.4475919e-07 1.0825114)
(2.9367001e-06 -9.4869909e-07 1.0825123)
(1.4640105e-06 -1.058882e-06 1.0825129)
(7.2196065e-08 -1.1654639e-06 1.082513)
(-1.2671366e-06 -1.2671366e-06 1.0825127)
(-2.5580534e-06 -1.3649237e-06 1.0825121)
(-3.7968821e-06 -1.4574934e-06 1.082511)
(-4.9756217e-06 -1.5370316e-06 1.0825095)
(-1.8496185e-06 -1.5867391e-06 1.0825075)
(2.2910024e-06 -1.9613537e-06 1.0825091)
(5.2288665e-06 -2.0832866e-06 1.0825109)
(2.8213596e-06 -2.2230823e-06 1.0825118)
(1.3517864e-06 -2.3496668e-06 1.0825123)
(-3.2283503e-08 -2.4597263e-06 1.0825124)
(-1.3649237e-06 -2.5580534e-06 1.0825121)
(-2.6500831e-06 -2.6500831e-06 1.0825114)
(-3.8798016e-06 -2.7385597e-06 1.0825103)
(-5.0383331e-06 -2.819971e-06 1.0825088)
(-1.8658427e-06 -2.8779544e-06 1.0825068)
(2.2377651e-06 -2.9729494e-06 1.0825083)
(5.0665092e-06 -3.246146e-06 1.0825099)
(2.67032e-06 -3.4530014e-06 1.0825108)
(1.2273665e-06 -3.5991542e-06 1.0825112)
(-1.3619054e-07 -3.7076938e-06 1.0825113)
(-1.4574934e-06 -3.7968821e-06 1.082511)
(-2.7385597e-06 -3.8798016e-06 1.0825103)
(-3.96677e-06 -3.96677e-06 1.0825092)
(-5.1150164e-06 -4.0652502e-06 1.0825076)
(-1.8882741e-06 -4.1661944e-06 1.0825056)
(2.1088714e-06 -3.649463e-06 1.0825071)
(4.7488145e-06 -4.4099952e-06 1.0825086)
(2.4683514e-06 -4.6781852e-06 1.0825094)
(1.0970941e-06 -4.8205856e-06 1.0825098)
(-2.300114e-07 -4.9090875e-06 1.0825098)
(-1.5370316e-06 -4.9756217e-06 1.0825095)
(-2.819971e-06 -5.0383331e-06 1.0825088)
(-4.0652502e-06 -5.1150164e-06 1.0825076)
(-5.2377576e-06 -5.2377576e-06 1.082506)
(-1.9331388e-06 -5.4851991e-06 1.0825039)
(1.7307436e-06 -1.2915994e-06 1.0825056)
(4.037787e-06 -1.6697272e-06 1.0825068)
(2.2597296e-06 -1.7656178e-06 1.0825075)
(9.964642e-07 -1.8088083e-06 1.0825079)
(-2.912267e-07 -1.8327044e-06 1.0825079)
(-1.5867391e-06 -1.8496185e-06 1.0825075)
(-2.8779544e-06 -1.8658427e-06 1.0825068)
(-4.1661944e-06 -1.8882741e-06 1.0825056)
(-5.4851991e-06 -1.9331388e-06 1.0825039)
(-2.0532351e-06 -2.0532351e-06 1.0825017)
(3.5186058e-06 3.5186058e-06 1.0824135)
(8.0225325e-06 3.0757721e-06 1.0824156)
(4.4240224e-06 2.975876e-06 1.0824166)
(2.4149378e-06 2.9339273e-06 1.0824172)
(5.9110953e-07 2.9069967e-06 1.0824174)
(-1.1081466e-06 2.88102e-06 1.0824173)
(-2.6703883e-06 2.8445637e-06 1.0824167)
(-4.0302313e-06 2.7750976e-06 1.0824158)
(-4.9905491e-06 2.6064129e-06 1.0824146)
(-1.7779926e-06 2.110362e-06 1.0824131)
(3.0757721e-06 8.0225325e-06 1.0824156)
(7.2084376e-06 7.2084377e-06 1.0824173)
(4.2112553e-06 6.9527942e-06 1.0824183)
(2.3116189e-06 6.8153278e-06 1.0824189)
(5.1174852e-07 6.7146114e-06 1.0824191)
(-1.2017962e-06 6.6154194e-06 1.0824189)
(-2.8292719e-06 6.4864044e-06 1.0824183)
(-4.3874575e-06 6.2749435e-06 1.0824174)
(-5.9876527e-06 5.8602792e-06 1.082416)
(-2.2740435e-06 4.9306957e-06 1.0824142)
(2.975876e-06 4.4240224e-06 1.0824166)
(6.9527942e-06 4.2112553e-06 1.0824183)
(4.0309126e-06 4.0309126e-06 1.0824192)
(2.176755e-06 3.886033e-06 1.0824198)
(3.912011e-07 3.7594611e-06 1.08242)
(-1.3363536e-06 3.6318302e-06 1.0824198)
(-3.0108643e-06 3.4822178e-06 1.0824192)
(-4.6563565e-06 3.2859531e-06 1.0824182)
(-6.3347969e-06 3.0236019e-06 1.0824167)
(-2.3977149e-06 2.7544559e-06 1.0824148)
(2.9339273e-06 2.4149378e-06 1.0824172)
(6.8153278e-06 2.3116189e-06 1.0824189)
(3.886033e-06 2.176755e-06 1.0824198)
(2.0401674e-06 2.0401674e-06 1.0824203)
(2.5754569e-07 1.9068624e-06 1.0824205)
(-1.4790395e-06 1.7715791e-06 1.0824202)
(-3.175149e-06 1.6259553e-06 1.0824196)
(-4.8460733e-06 1.4643045e-06 1.0824185)
(-6.5191499e-06 1.2951377e-06 1.0824171)
(-2.4534742e-06 1.1650032e-06 1.0824152)
(2.9069967e-06 5.9110953e-07 1.0824174)
(6.7146114e-06 5.1174852e-07 1.0824191)
(3.7594611e-06 3.9120111e-07 1.08242)
(1.9068624e-06 2.575457e-07 1.0824205)
(1.2261274e-07 1.2261274e-07 1.0824206)
(-1.6172607e-06 -1.1964327e-08 1.0824203)
(-3.3181388e-06 -1.477859e-07 1.0824196)
(-4.9871741e-06 -2.8311056e-07 1.0824186)
(-6.6340982e-06 -4.0540084e-07 1.0824171)
(-2.4844712e-06 -4.8511582e-07 1.0824151)
(2.88102e-06 -1.1081466e-06 1.0824173)
(6.6154194e-06 -1.2017961e-06 1.0824189)
(3.6318302e-06 -1.3363536e-06 1.0824198)
(1.7715791e-06 -1.4790395e-06 1.0824202)
(-1.1964332e-08 -1.6172607e-06 1.0824203)
(-1.7494382e-06 -1.7494382e-06 1.08242)
(-3.4462952e-06 -1.8769931e-06 1.0824193)
(-5.1036883e-06 -1.9982451e-06 1.0824182)
(-6.7211551e-06 -2.1029188e-06 1.0824167)
(-2.5066175e-06 -2.1686273e-06 1.0824147)
(2.8445637e-06 -2.6703883e-06 1.0824167)
(6.4864044e-06 -2.8292719e-06 1.0824183)
(3.4822178e-06 -3.0108642e-06 1.0824192)
(1.6259553e-06 -3.1751489e-06 1.0824196)
(-1.4778591e-07 -3.3181388e-06 1.0824196)
(-1.8769931e-06 -3.4462952e-06 1.0824193)
(-3.5669457e-06 -3.5669457e-06 1.0824186)
(-5.2130998e-06 -3.6839849e-06 1.0824175)
(-6.8044804e-06 -3.7930017e-06 1.0824159)
(-2.5282769e-06 -3.8717524e-06 1.0824139)
(2.7750976e-06 -4.0302313e-06 1.0824158)
(6.2749435e-06 -4.3874575e-06 1.0824174)
(3.2859531e-06 -4.6563565e-06 1.0824182)
(1.4643045e-06 -4.8460734e-06 1.0824185)
(-2.8311057e-07 -4.9871741e-06 1.0824186)
(-1.9982451e-06 -5.1036883e-06 1.0824182)
(-3.6839849e-06 -5.2130998e-06 1.0824175)
(-5.3297443e-06 -5.3297442e-06 1.0824163)
(-6.9089226e-06 -5.4646924e-06 1.0824147)
(-2.559118e-06 -5.6060652e-06 1.0824127)
(2.6064129e-06 -4.9905491e-06 1.0824146)
(5.8602792e-06 -5.9876527e-06 1.082416)
(3.0236019e-06 -6.3347969e-06 1.0824167)
(1.2951377e-06 -6.5191499e-06 1.0824171)
(-4.0540084e-07 -6.6340983e-06 1.0824171)
(-2.1029188e-06 -6.7211551e-06 1.0824167)
(-3.7930017e-06 -6.8044805e-06 1.0824159)
(-5.4646924e-06 -6.9089226e-06 1.0824147)
(-7.0808014e-06 -7.0808014e-06 1.0824131)
(-2.6225255e-06 -7.4344647e-06 1.082411)
(2.110362e-06 -1.7779926e-06 1.0824131)
(4.9306957e-06 -2.2740435e-06 1.0824142)
(2.7544559e-06 -2.3977149e-06 1.0824148)
(1.1650032e-06 -2.4534742e-06 1.0824152)
(-4.8511582e-07 -2.4844712e-06 1.0824151)
(-2.1686273e-06 -2.5066175e-06 1.0824147)
(-3.8717524e-06 -2.5282769e-06 1.0824139)
(-5.6060652e-06 -2.559118e-06 1.0824127)
(-7.4344647e-06 -2.6225255e-06 1.082411)
(-2.7948934e-06 -2.7948934e-06 1.0824088)
(4.1755789e-06 4.1755789e-06 1.0822984)
(9.5047544e-06 3.6476818e-06 1.0823004)
(5.2107489e-06 3.5289991e-06 1.0823013)
(2.8011186e-06 3.4788806e-06 1.0823019)
(5.9354223e-07 3.4463788e-06 1.082302)
(-1.4814138e-06 3.4147439e-06 1.0823018)
(-3.4074626e-06 3.3701066e-06 1.0823013)
(-5.105786e-06 3.28481e-06 1.0823004)
(-6.3358337e-06 3.0773145e-06 1.0822991)
(-2.2628732e-06 2.4663337e-06 1.0822977)
(3.6476818e-06 9.5047544e-06 1.0823004)
(8.5348846e-06 8.5348846e-06 1.082302)
(4.9575471e-06 8.2307527e-06 1.0823029)
(2.6771883e-06 8.0660906e-06 1.0823035)
(4.9733714e-07 7.9443473e-06 1.0823036)
(-1.5958221e-06 7.8235395e-06 1.0823034)
(-3.6023636e-06 7.6656903e-06 1.0823028)
(-5.5449742e-06 7.4063566e-06 1.0823018)
(-7.5635482e-06 6.897149e-06 1.0823005)
(-2.873854e-06 5.7546524e-06 1.0822987)
(3.5289991e-06 5.2107489e-06 1.0823013)
(8.2307527e-06 4.9575471e-06 1.0823029)
(4.7419549e-06 4.7419549e-06 1.0823038)
(2.5147132e-06 4.5675475e-06 1.0823043)
(3.5099114e-07 4.414126e-06 1.0823044)
(-1.7600708e-06 4.2585849e-06 1.0823042)
(-3.8246456e-06 4.0756483e-06 1.0823036)
(-5.8743273e-06 3.8353156e-06 1.0823025)
(-7.9875378e-06 3.5141301e-06 1.0823011)
(-3.0245375e-06 3.1861297e-06 1.0822993)
(3.4788807e-06 2.8011186e-06 1.0823019)
(8.0660906e-06 2.6771883e-06 1.0823035)
(4.5675475e-06 2.5147132e-06 1.0823043)
(2.3493594e-06 2.3493594e-06 1.0823048)
(1.8837463e-07 2.187262e-06 1.0823049)
(-1.9342998e-06 2.0221714e-06 1.0823046)
(-4.0256329e-06 1.8440337e-06 1.0823039)
(-6.1064924e-06 1.6460685e-06 1.0823029)
(-8.2127342e-06 1.4389644e-06 1.0823014)
(-3.092521e-06 1.2801025e-06 1.0822995)
(3.4463788e-06 5.9354224e-07 1.082302)
(7.9443473e-06 4.9733715e-07 1.0823036)
(4.414126e-06 3.5099115e-07 1.0823044)
(2.187262e-06 1.8837463e-07 1.0823049)
(2.3803167e-08 2.3803164e-08 1.0823049)
(-2.103299e-06 -1.4073753e-07 1.0823046)
(-4.2007485e-06 -3.0716276e-07 1.0823039)
(-6.2793966e-06 -4.732432e-07 1.0823029)
(-8.3535038e-06 -6.2342944e-07 1.0823014)
(-3.1304454e-06 -7.2125483e-07 1.0822995)
(3.4147439e-06 -1.4814138e-06 1.0823018)
(7.8235395e-06 -1.595822e-06 1.0823034)
(4.2585849e-06 -1.7600708e-06 1.0823042)
(2.0221715e-06 -1.9342997e-06 1.0823046)
(-1.4073754e-07 -2.103299e-06 1.0823046)
(-2.2652657e-06 -2.2652657e-06 1.0823043)
(-4.3581386e-06 -2.4220241e-06 1.0823036)
(-6.4227591e-06 -2.5715368e-06 1.0823025)
(-8.4607458e-06 -2.7010528e-06 1.082301)
(-3.1577379e-06 -2.7825897e-06 1.082299)
(3.3701066e-06 -3.4074626e-06 1.0823013)
(7.6656903e-06 -3.6023636e-06 1.0823028)
(4.0756483e-06 -3.8246456e-06 1.0823036)
(1.8440337e-06 -4.0256329e-06 1.0823039)
(-3.0716277e-07 -4.2007485e-06 1.0823039)
(-2.4220241e-06 -4.3581386e-06 1.0823036)
(-4.5070196e-06 -4.5070196e-06 1.0823028)
(-6.5584253e-06 -4.6524178e-06 1.0823017)
(-8.5645568e-06 -4.7889615e-06 1.0823002)
(-3.1848034e-06 -4.8884218e-06 1.0822982)
(3.28481e-06 -5.105786e-06 1.0823004)
(7.4063566e-06 -5.5449742e-06 1.0823018)
(3.8353156e-06 -5.8743273e-06 1.0823025)
(1.6460685e-06 -6.1064924e-06 1.0823029)
(-4.732432e-07 -6.2793966e-06 1.0823029)
(-2.5715368e-06 -6.4227591e-06 1.0823025)
(-4.6524178e-06 -6.5584253e-06 1.0823017)
(-6.7047009e-06 -6.7047009e-06 1.0823005)
(-8.6967498e-06 -6.8761164e-06 1.082299)
(-3.2240448e-06 -7.0576915e-06 1.082297)
(3.0773145e-06 -6.3358337e-06 1.0822991)
(6.897149e-06 -7.5635482e-06 1.0823005)
(3.5141301e-06 -7.9875378e-06 1.0823011)
(1.4389644e-06 -8.2127342e-06 1.0823014)
(-6.2342945e-07 -8.3535038e-06 1.0823014)
(-2.7010528e-06 -8.4607458e-06 1.082301)
(-4.7889615e-06 -8.5645568e-06 1.0823002)
(-6.8761164e-06 -8.6967498e-06 1.082299)
(-8.9175473e-06 -8.9175473e-06 1.0822973)
(-3.3058535e-06 -9.3759492e-06 1.0822953)
(2.4663337e-06 -2.2628732e-06 1.0822977)
(5.7546524e-06 -2.873854e-06 1.0822987)
(3.1861297e-06 -3.0245375e-06 1.0822993)
(1.2801025e-06 -3.092521e-06 1.0822995)
(-7.2125481e-07 -3.1304454e-06 1.0822995)
(-2.7825897e-06 -3.1577379e-06 1.082299)
(-4.8884218e-06 -3.1848034e-06 1.0822982)
(-7.0576915e-06 -3.2240448e-06 1.082297)
(-9.3759492e-06 -3.3058535e-06 1.0822953)
(-3.529646e-06 -3.529646e-06 1.0822931)
(4.80027e-06 4.80027e-06 1.0821612)
(1.0902522e-05 4.190415e-06 1.0821631)
(5.9311439e-06 4.053749e-06 1.0821639)
(3.1333904e-06 3.9958394e-06 1.0821644)
(5.5567232e-07 3.9580095e-06 1.0821646)
(-1.8812843e-06 3.9209322e-06 1.0821643)
(-4.1574914e-06 3.8683946e-06 1.0821638)
(-6.1798934e-06 3.7677909e-06 1.0821628)
(-7.6638656e-06 3.522768e-06 1.0821616)
(-2.7392466e-06 2.8006742e-06 1.0821602)
(4.190415e-06 1.0902522e-05 1.0821631)
(9.7827405e-06 9.7827405e-06 1.0821646)
(5.6392805e-06 9.432283e-06 1.0821655)
(2.9897812e-06 9.2416956e-06 1.0821659)
(4.4331147e-07 9.0998398e-06 1.0821661)
(-2.0157067e-06 8.9582451e-06 1.0821658)
(-4.3872033e-06 8.7725624e-06 1.0821652)
(-6.6983334e-06 8.4669532e-06 1.0821642)
(-9.1145408e-06 7.8663539e-06 1.0821629)
(-3.4613404e-06 6.5181031e-06 1.0821612)
(4.053749e-06 5.9311439e-06 1.0821639)
(9.432283e-06 5.6392805e-06 1.0821655)
(5.3900991e-06 5.390099e-06 1.0821663)
(2.8009472e-06 5.1875245e-06 1.0821667)
(2.7222182e-07 5.0083911e-06 1.0821668)
(-2.2085617e-06 4.8259997e-06 1.0821665)
(-4.6487832e-06 4.610899e-06 1.0821659)
(-7.0861019e-06 4.3279755e-06 1.0821649)
(-9.6127157e-06 3.9499356e-06 1.0821635)
(-3.6380804e-06 3.5651509e-06 1.0821617)
(3.9958394e-06 3.1333904e-06 1.0821644)
(9.2416956e-06 2.9897812e-06 1.0821659)
(5.1875245e-06 2.8009472e-06 1.0821667)
(2.6080732e-06 2.6080732e-06 1.0821671)
(8.1786608e-08 2.4183357e-06 1.0821672)
(-2.4131989e-06 2.2245265e-06 1.0821669)
(-4.8852274e-06 2.0149755e-06 1.0821662)
(-7.3592967e-06 1.7818793e-06 1.0821652)
(-9.8773653e-06 1.538077e-06 1.0821637)
(-3.7178635e-06 1.3514625e-06 1.0821619)
(3.9580095e-06 5.5567231e-07 1.0821646)
(9.0998398e-06 4.4331145e-07 1.0821661)
(5.0083911e-06 2.7222182e-07 1.0821668)
(2.4183357e-06 8.1786612e-08 1.0821672)
(-1.1132491e-07 -1.113249e-07 1.0821672)
(-2.6119219e-06 -3.0480385e-07 1.0821669)
(-5.0914304e-06 -5.0086399e-07 1.0821662)
(-7.5630004e-06 -6.9677766e-07 1.0821651)
(-1.0043133e-05 -8.7403666e-07 1.0821637)
(-3.7624901e-06 -9.8942294e-07 1.0821618)
(3.9209322e-06 -1.8812843e-06 1.0821643)
(8.9582451e-06 -2.0157068e-06 1.0821658)
(4.8259997e-06 -2.2085617e-06 1.0821665)
(2.2245265e-06 -2.4131989e-06 1.0821669)
(-3.0480386e-07 -2.6119219e-06 1.0821669)
(-2.802738e-06 -2.802738e-06 1.0821665)
(-5.2772012e-06 -2.9878686e-06 1.0821658)
(-7.7324694e-06 -3.1649122e-06 1.0821647)
(-1.0170011e-05 -3.3186691e-06 1.0821632)
(-3.7947876e-06 -3.4156525e-06 1.0821613)
(3.8683946e-06 -4.1574914e-06 1.0821638)
(8.7725624e-06 -4.3872033e-06 1.0821652)
(4.610899e-06 -4.6487832e-06 1.0821659)
(2.0149755e-06 -4.8852274e-06 1.0821662)
(-5.0086401e-07 -5.0914304e-06 1.0821662)
(-2.9878686e-06 -5.2772012e-06 1.0821658)
(-5.4536046e-06 -5.4536046e-06 1.0821651)
(-7.8938009e-06 -5.6267558e-06 1.0821639)
(-1.0293873e-05 -5.7902958e-06 1.0821624)
(-3.8271457e-06 -5.9100634e-06 1.0821605)
(3.7677909e-06 -6.1798934e-06 1.0821628)
(8.4669532e-06 -6.6983334e-06 1.0821642)
(4.3279755e-06 -7.0861019e-06 1.0821649)
(1.7818793e-06 -7.3592967e-06 1.0821652)
(-6.9677768e-07 -7.5630004e-06 1.0821651)
(-3.1649122e-06 -7.7324694e-06 1.0821647)
(-5.6267558e-06 -7.8938008e-06 1.0821639)
(-8.0691606e-06 -8.0691606e-06 1.0821628)
(-1.0453318e-05 -8.2763965e-06 1.0821612)
(-3.8746327e-06 -8.4973781e-06 1.0821593)
(3.522768e-06 -7.6638656e-06 1.0821616)
(7.8663539e-06 -9.1145408e-06 1.0821629)
(3.9499357e-06 -9.6127157e-06 1.0821635)
(1.538077e-06 -9.8773653e-06 1.0821637)
(-8.7403667e-07 -1.0043133e-05 1.0821637)
(-3.318669e-06 -1.0170011e-05 1.0821632)
(-5.7902958e-06 -1.0293873e-05 1.0821624)
(-8.2763965e-06 -1.0453318e-05 1.0821612)
(-1.072209e-05 -1.072209e-05 1.0821596)
(-3.9744667e-06 -1.128292e-05 1.0821577)
(2.8006742e-06 -2.7392466e-06 1.0821602)
(6.5181031e-06 -3.4613404e-06 1.0821612)
(3.565151e-06 -3.6380804e-06 1.0821617)
(1.3514625e-06 -3.7178635e-06 1.0821619)
(-9.8942294e-07 -3.7624901e-06 1.0821618)
(-3.4156525e-06 -3.7947876e-06 1.0821613)
(-5.9100634e-06 -3.8271457e-06 1.0821605)
(-8.4973781e-06 -3.8746327e-06 1.0821593)
(-1.128292e-05 -3.9744667e-06 1.0821577)
(-4.248519e-06 -4.248519e-06 1.0821555)
(5.3908409e-06 5.3908409e-06 1.082003)
(1.2214846e-05 4.7026327e-06 1.0820047)
(6.589952e-06 4.5488481e-06 1.0820055)
(3.4184226e-06 4.4835372e-06 1.082006)
(4.857949e-07 4.4406353e-06 1.0820061)
(-2.2972789e-06 4.3983577e-06 1.0820058)
(-4.907288e-06 4.3382522e-06 1.0820052)
(-7.2369925e-06 4.2229731e-06 1.0820043)
(-8.9587671e-06 3.9419661e-06 1.0820031)
(-3.202029e-06 3.1133202e-06 1.0820018)
(4.7026327e-06 1.2214846e-05 1.0820047)