/*--------------------------------*- C++ -*----------------------------------*\
| =========                 |                                                 |
| \\      /  F ield         | OpenFOAM: The Open Source CFD Toolbox           |
|  \\    /   O peration     | Version:  v2106                                 |
|   \\  /    A nd           | Website:  www.openfoam.com                      |
|    \\/     M anipulation  |                                                 |
\*---------------------------------------------------------------------------*/
FoamFile
{
    version     2.0;
    format      ascii;
    arch        "LSB;label=32;scalar=64";
    class       volVectorField;
    location    "70";
    object      gradT;
}
// * * * * * * * * * * * * * * * * * * * * * * * * * * * * * * * * * * * * * //

dimensions      [0 -1 0 1 0 0 0];

internalField   nonuniform List<vector> 
4000
(
(0.00023075101 0.00023075101 570.75925)
(0.0005070035 0.00020458773 570.76095)
(0.00025530038 0.00019852248 570.76177)
(0.0001383228 0.00019616698 570.76226)
(4.4201252e-05 0.0001947852 570.76249)
(-3.7671148e-05 0.0001935204 570.76249)
(-0.00010753323 0.00019179803 570.76229)
(-0.00015854667 0.00018863184 570.76191)
(-0.00016934425 0.00018150144 570.76144)
(-5.3571872e-05 0.00016415627 570.76098)
(0.00020458773 0.00050700351 570.76095)
(0.0004586607 0.00045866069 570.76245)
(0.00024266926 0.00044347953 570.76322)
(0.00013271689 0.00043598655 570.76369)
(4.0231381e-05 0.00043088173 570.76391)
(-4.2151906e-05 0.00042605576 570.7639)
(-0.00011486607 0.00041992305 570.76368)
(-0.00017399156 0.00041010872 570.76328)
(-0.00020605761 0.00039180908 570.76275)
(-7.0917042e-05 0.0003563467 570.76213)
(0.00019852247 0.00025530039 570.76177)
(0.00044347953 0.00024266926 570.76322)
(0.00023262624 0.00023262623 570.76396)
(0.000125725 0.00022509181 570.76441)
(3.4270464e-05 0.00021879192 570.76461)
(-4.8629834e-05 0.0002126009 570.76459)
(-0.00012348027 0.00020544727 570.76435)
(-0.00018666064 0.00019613975 570.76393)
(-0.00022310627 0.00018371652 570.76335)
(-7.7213454e-05 0.0001701358 570.76269)
(0.00019616698 0.0001383228 570.76226)
(0.00043598654 0.00013271689 570.76369)
(0.00022509181 0.00012572499 570.76441)
(0.00011888258 0.00011888257 570.76484)
(2.7740478e-05 0.00011235493 570.76503)
(-5.5496551e-05 0.00010582792 570.76498)
(-0.00013132722 9.8865465e-05 570.76473)
(-0.00019572231 9.1168754e-05 570.76429)
(-0.00023206156 8.309174e-05 570.76368)
(-7.9970855e-05 7.671989e-05 570.763)
(0.0001947852 4.4201247e-05 570.76249)
(0.00043088173 4.0231387e-05 570.76391)
(0.00021879192 3.4270466e-05 570.76461)
(0.00011235494 2.7740482e-05 570.76503)
(2.1215813e-05 2.1215816e-05 570.76519)
(-6.2119304e-05 1.4766826e-05 570.76513)
(-0.00013813943 8.308703e-06 570.76486)
(-0.00020243437 1.9130673e-06 570.7644)
(-0.00023755514 -3.850235e-06 570.76378)
(-8.1461354e-05 -7.6236169e-06 570.76308)
(0.00019352041 -3.7671153e-05 570.76249)
(0.00042605576 -4.2151901e-05 570.7639)
(0.0002126009 -4.862983e-05 570.76459)
(0.00010582793 -5.5496549e-05 570.76498)
(1.4766822e-05 -6.2119301e-05 570.76513)
(-6.8403664e-05 -6.8403654e-05 570.76506)
(-0.00014418098 -7.4400205e-05 570.76477)
(-0.00020788125 -8.0012779e-05 570.76429)
(-0.00024159825 -8.475964e-05 570.76366)
(-8.2486443e-05 -8.7668972e-05 570.76295)
(0.00019179803 -0.00010753324 570.76229)
(0.00041992305 -0.00011486608 570.76368)
(0.00020544727 -0.00012348027 570.76435)
(9.8865465e-05 -0.00013132723 570.76473)
(8.3087087e-06 -0.00013813944 570.76486)
(-7.4400208e-05 -0.00014418097 570.76477)
(-0.00014974856 -0.00014974855 570.76447)
(-0.0002127938 -0.00015494638 570.76397)
(-0.00024521133 -0.0001594831 570.76333)
(-8.3400909e-05 -0.0001624418 570.76262)
(0.00018863184 -0.00015854668 570.76191)
(0.00041010873 -0.00017399156 570.76328)
(0.00019613976 -0.00018666064 570.76393)
(9.1168753e-05 -0.00019572231 570.76429)
(1.913075e-06 -0.00020243436 570.7644)
(-8.001277e-05 -0.00020788124 570.76429)
(-0.00015494639 -0.0002127938 570.76397)
(-0.0002176158 -0.00021761579 570.76347)
(-0.00024909367 -0.00022239553 570.76281)
(-8.4458909e-05 -0.00022620013 570.76209)
(0.00018150145 -0.00016934426 570.76144)
(0.00039180908 -0.0002060576 570.76275)
(0.00018371652 -0.00022310627 570.76335)
(8.3091744e-05 -0.00023206156 570.76368)
(-3.8502272e-06 -0.00023755513 570.76378)
(-8.4759649e-05 -0.00024159825 570.76366)
(-0.00015948311 -0.00024521134 570.76333)
(-0.00022239553 -0.00024909367 570.76281)
(-0.00025379567 -0.00025379566 570.76214)
(-8.5937308e-05 -0.00025894367 570.7614)
(0.00016415628 -5.3571874e-05 570.76098)
(0.00035634671 -7.091704e-05 570.76213)
(0.0001701358 -7.7213458e-05 570.76269)
(7.6719894e-05 -7.9970857e-05 570.763)
(-7.6236148e-06 -8.1461358e-05 570.76308)
(-8.766898e-05 -8.2486449e-05 570.76295)
(-0.0001624418 -8.3400911e-05 570.76262)
(-0.00022620012 -8.4458911e-05 570.76209)
(-0.00025894367 -8.5937305e-05 570.7614)
(-8.7890913e-05 -8.789091e-05 570.76065)
(0.0010069391 0.0010069391 843.40422)
(0.002256897 0.00088028041 843.40631)
(0.0011958648 0.00085220413 843.4074)
(0.00065880425 0.00084113819 843.40807)
(0.00020742201 0.00083447159 843.40838)
(-0.00019154316 0.00082830692 843.40836)
(-0.00053656438 0.00081985839 843.40804)
(-0.00079875539 0.00080405057 843.40746)
(-0.00088943928 0.00076641099 843.40668)
(-0.0002918072 0.00065800754 843.40582)
(0.00088028041 0.002256897 843.40631)
(0.0020247945 0.0020247945 843.40813)
(0.0011371515 0.0019543543 843.40916)
(0.00063220544 0.0019188167 843.40981)
(0.0001881751 0.0018941227 843.4101)
(-0.00021346296 0.0018706042 843.41007)
(-0.00057294889 0.0018405853 843.40973)
(-0.0008789265 0.001792025 843.40911)
(-0.0011085038 0.0016980549 843.40824)
(-0.00040021065 0.0014903602 843.4071)
(0.00085220413 0.0011958648 843.4074)
(0.0019543543 0.0011371515 843.40916)
(0.0010898871 0.0010898871 843.41015)
(0.00059857258 0.0010536571 843.41077)
(0.00015920952 0.0010230715 843.41104)
(-0.0002450805 0.00099289423 843.41098)
(-0.0006151436 0.00095794932 843.41062)
(-0.00094128586 0.0009123683 843.40996)
(-0.0011911041 0.00085130419 843.40903)
(-0.00043027029 0.00078614502 843.40782)
(0.00084113819 0.00065880425 843.40807)
(0.0019188167 0.00063220545 843.40981)
(0.0010536571 0.00059857258 843.41077)
(0.00056538993 0.00056538993 843.41136)
(0.0001274122 0.00053361304 843.41161)
(-0.00027858518 0.00050177796 843.41153)
(-0.00065347483 0.00046778189 843.41113)
(-0.00098557163 0.00043017433 843.41045)
(-0.0012347271 0.00039070646 843.40948)
(-0.0004436501 0.00035972765 843.40824)
(0.00083447159 0.00020742201 843.40838)
(0.0018941226 0.00018817509 843.4101)
(0.0010230715 0.00015920953 843.41104)
(0.00053361304 0.0001274122 843.41161)
(9.5597551e-05 9.5597566e-05 843.41183)
(-0.00031091164 6.4120279e-05 843.41172)
(-0.00068674722 3.2572201e-05 843.4113)
(-0.0010183613 1.3075528e-06 843.41059)
(-0.0012615507 -2.687737e-05 843.4096)
(-0.00045092282 -4.5324214e-05 843.40834)
(0.00082830691 -0.00019154316 843.40836)
(0.0018706042 -0.00021346297 843.41007)
(0.00099289424 -0.00024508049 843.41098)
(0.00050177796 -0.00027858518 843.41153)
(6.4120275e-05 -0.00031091164 843.41172)
(-0.00034161055 -0.00034161054 843.41159)
(-0.00071628755 -0.00037094007 843.41115)
(-0.0010450212 -0.00039844456 843.41041)
(-0.0012813589 -0.00042177484 843.4094)
(-0.00045594799 -0.00043612918 843.40813)
(0.00081985839 -0.00053656438 843.40804)
(0.0018405853 -0.00057294889 843.40973)
(0.00095794933 -0.0006151436 843.41062)
(0.00046778189 -0.00065347483 843.41113)
(3.2572194e-05 -0.00068674724 843.4113)
(-0.00037094008 -0.00071628755 843.41115)
(-0.00074358125 -0.00074358125 843.41068)
(-0.0010691961 -0.0007692004 843.40993)
(-0.0012992354 -0.00079180277 843.4089)
(-0.00046049238 -0.00080683291 843.40761)
(0.00080405057 -0.0007987554 843.40746)
(0.001792025 -0.0008789265 843.40911)
(0.00091236831 -0.00094128586 843.40996)
(0.00043017433 -0.00098557165 843.41045)
(1.3075509e-06 -0.0010183613 843.41059)
(-0.00039844456 -0.0010450212 843.41041)
(-0.0007692004 -0.0010691961 843.40993)
(-0.0010932427 -0.0010932427 843.40915)
(-0.0013189914 -0.0011178175 843.4081)
(-0.00046596809 -0.0011387243 843.4068)
(0.00076641099 -0.00088943928 843.40668)
(0.0016980549 -0.0011085038 843.40824)
(0.00085130418 -0.0011911041 843.40903)
(0.00039070646 -0.0012347271 843.40948)
(-2.6877364e-05 -0.0012615507 843.4096)
(-0.00042177484 -0.0012813589 843.4094)
(-0.00079180277 -0.0012992354 843.4089)
(-0.0011178175 -0.0013189914 843.4081)
(-0.0013447169 -0.0013447169 843.40702)
(-0.00047443023 -0.0013789852 843.4057)
(0.00065800754 -0.0002918072 843.40582)
(0.0014903602 -0.00040021065 843.4071)
(0.00078614501 -0.00043027029 843.40782)
(0.00035972766 -0.0004436501 843.40824)
(-4.5324198e-05 -0.00045092282 843.40834)
(-0.00043612918 -0.00045594799 843.40813)
(-0.00080683292 -0.00046049239 843.40761)
(-0.0011387243 -0.00046596809 843.4068)
(-0.0013789852 -0.00047443024 843.4057)
(-0.00048881364 -0.00048881364 843.4043)
(0.0016244653 0.0016244653 837.88361)
(0.0036891447 0.0014203273 837.88536)
(0.0020179518 0.0013743406 837.88632)
(0.0011186378 0.0013555968 837.88691)
(0.00033406457 0.001343983 837.88717)
(-0.00037455326 0.001333072 837.88712)
(-0.0010033876 0.0013179885 837.88677)
(-0.0015169524 0.0012895275 837.88614)
(-0.0018155481 0.0012209972 837.88528)
(-0.00063099887 0.0010210199 837.88423)
(0.0014203273 0.0036891447 837.88536)
(0.0033139577 0.0033139577 837.8869)
(0.001920856 0.0031973196 837.8878)
(0.0010731013 0.0031365454 837.88837)
(0.00030027733 0.0030933531 837.88862)
(-0.00041354495 0.0030517102 837.88855)
(-0.0010687043 0.0029982049 837.88818)
(-0.0016624393 0.0029111586 837.88752)
(-0.0022183096 0.0027414747 837.88656)
(-0.00083097621 0.0023631175 837.88524)
(0.0013743406 0.0020179518 837.88632)
(0.0031973196 0.001920856 837.8878)
(0.0018405394 0.0018405394 837.88866)
(0.0010146713 0.0017776518 837.88921)
(0.00024922942 0.001723847 837.88943)
(-0.00046970147 0.0016703603 837.88934)
(-0.0011439392 0.0016081764 837.88895)
(-0.0017736826 0.0015269065 837.88825)
(-0.0023635893 0.0014181613 837.88723)
(-0.00088323704 0.0013045493 837.88584)
(0.0013555968 0.0011186378 837.88691)
(0.0031365454 0.0010731013 837.88837)
(0.0017776518 0.0010146713 837.88921)
(0.00095640887 0.00095640887 837.88973)
(0.00019298584 0.00090023614 837.88993)
(-0.00052921551 0.00084372655 837.88981)
(-0.0012121581 0.00078323503 837.88939)
(-0.0018524545 0.00071625203 837.88866)
(-0.0024406668 0.00064605441 837.88761)
(-0.0009067175 0.00059148323 837.88619)
(0.001343983 0.00033406457 837.88717)
(0.0030933531 0.00030027734 837.88862)
(0.001723847 0.00024922941 837.88943)
(0.00090023615 0.00019298583 837.88993)
(0.0001365471 0.0001365471 837.8901)
(-0.00058670258 8.0572053e-05 837.88997)
(-0.0012714137 2.4356123e-05 837.88952)
(-0.0019108632 -3.1445087e-05 837.88876)
(-0.0024883581 -8.1785141e-05 837.88769)
(-0.00091961783 -0.00011467353 837.88625)
(0.001333072 -0.00037455326 837.88712)
(0.0030517102 -0.00041354494 837.88855)
(0.0016703603 -0.00046970146 837.88934)
(0.00084372656 -0.0005292155 837.88981)
(8.057206e-05 -0.00058670257 837.88997)
(-0.00064140649 -0.00064140648 837.8898)
(-0.0013241752 -0.00069383243 837.88933)
(-0.0019585958 -0.000743223 837.88855)
(-0.0025238952 -0.00078540058 837.88746)
(-0.00092864309 -0.00081157993 837.88601)
(0.0013179885 -0.0010033876 837.88677)
(0.0029982049 -0.0010687043 837.88818)
(0.0016081764 -0.0011439392 837.88895)
(0.00078323504 -0.001212158 837.88939)
(2.4356123e-05 -0.0012714138 837.88952)
(-0.00069383243 -0.0013241752 837.88933)
(-0.0013732303 -0.0013732303 837.88884)
(-0.0020024313 -0.0014198512 837.88804)
(-0.002556715 -0.0014619722 837.88693)
(-0.00093707073 -0.0014912117 837.88546)
(0.0012895275 -0.0015169524 837.88614)
(0.0029111586 -0.0016624393 837.88752)
(0.0015269065 -0.0017736826 837.88825)
(0.00071625203 -0.0018524545 837.88866)
(-3.1445092e-05 -0.0019108632 837.88876)
(-0.000743223 -0.0019585958 837.88855)
(-0.0014198512 -0.0020024313 837.88804)
(-0.0020473377 -0.0020473377 837.88722)
(-0.0025952557 -0.0020962732 837.88608)
(-0.00094813607 -0.0021438908 837.8846)
(0.0012209972 -0.0018155481 837.88528)
(0.0027414747 -0.0022183096 837.88656)
(0.0014181613 -0.0023635893 837.88723)
(0.00064605441 -0.0024406668 837.88761)
(-8.1785129e-05 -0.0024883581 837.88769)
(-0.00078540058 -0.0025238952 837.88746)
(-0.0014619722 -0.002556715 837.88693)
(-0.0020962732 -0.0025952557 837.88608)
(-0.0026532681 -0.0026532681 837.88492)
(-0.0009688158 -0.0027624155 837.8834)
(0.0010210199 -0.00063099887 837.88423)
(0.0023631175 -0.00083097621 837.88524)
(0.0013045493 -0.00088323705 837.88584)
(0.00059148323 -0.0009067175 837.88619)
(-0.00011467352 -0.00091961784 837.88625)
(-0.00081157992 -0.0009286431 837.88601)
(-0.0014912117 -0.00093707074 837.88546)
(-0.0021438908 -0.00094813607 837.8846)
(-0.0027624155 -0.00096881581 837.8834)
(-0.001020901 -0.001020901 837.88176)
(0.0021754478 0.0021754478 832.45018)
(0.0049604108 0.0019024482 832.45178)
(0.0027389681 0.0018407254 832.45262)
(0.0015120388 0.0018150696 832.45314)
(0.0004149212 0.0017988357 832.45335)
(-0.00059405074 0.0017833595 832.45326)
(-0.001508287 0.0017617879 832.45288)
(-0.0022862073 0.0017208483 832.45222)
(-0.0028064484 0.0016217286 832.45131)
(-0.00099324402 0.0013309473 832.45022)
(0.0019024482 0.0049604108 832.45178)
(0.0044583273 0.0044583273 832.45317)
(0.0026079001 0.0043008211 832.45397)
(0.0014492042 0.0042170885 832.45447)
(0.00036735611 0.0041565161 832.45467)
(-0.00064962241 0.0040974311 832.45456)
(-0.0016020538 0.0040210144 832.45416)
(-0.0024962962 0.0038961611 832.45347)
(-0.0033913 0.0036518531 832.45247)
(-0.0012840254 0.0031050708 832.45111)
(0.0018407254 0.0027389681 832.45262)
(0.0043008211 0.0026079001 832.45397)
(0.0024977293 0.0024977293 832.45474)
(0.0013677338 0.0024101292 832.45521)
(0.00029526381 0.0023342952 832.45539)
(-0.00072955248 0.0022583313 832.45526)
(-0.001709557 0.0021696341 832.45484)
(-0.0026553687 0.0020534842 832.4541)
(-0.0035975388 0.0018981698 832.45305)
(-0.0013577656 0.0017377391 832.45163)
(0.0018150695 0.0015120388 832.45314)
(0.0042170885 0.0014492042 832.45447)
(0.0024101292 0.0013677338 832.45521)
(0.00128577 0.00128577 832.45566)
(0.00021555821 0.0012062207 832.45581)
(-0.00081428345 0.0011258285 832.45567)
(-0.0018069009 0.0010395279 832.45521)
(-0.0027677605 0.00094384858 832.45445)
(-0.0037070451 0.00084366872 832.45336)
(-0.0013909792 0.00076628406 832.45191)
(0.0017988357 0.0004149212 832.45335)
(0.0041565161 0.00036735611 832.45467)
(0.0023342952 0.00029526381 832.45539)
(0.0012062207 0.00021555821 832.45581)
(0.00013532231 0.00013532232 832.45594)
(-0.00089624531 5.5518994e-05 832.45577)
(-0.001891537 -2.4826115e-05 832.45529)
(-0.0028512278 -0.00010473094 832.45451)
(-0.0037751033 -0.00017687949 832.45339)
(-0.0014093553 -0.00022395424 832.45193)
(0.0017833595 -0.00059405074 832.45326)
(0.0040974311 -0.0006496224 832.45456)
(0.0022583313 -0.00072955248 832.45526)
(0.0011258285 -0.00081428345 832.45567)
(5.5518993e-05 -0.0008962453 832.45577)
(-0.00097443189 -0.00097443188 832.45558)
(-0.0019671508 -0.0010496305 832.45508)
(-0.0029198139 -0.0011208169 832.45427)
(-0.0038262684 -0.001181982 832.45313)
(-0.0014223624 -0.0012202073 832.45165)
(0.0017617879 -0.001508287 832.45288)
(0.0040210144 -0.0016020538 832.45416)
(0.0021696341 -0.001709557 832.45484)
(0.0010395279 -0.0018069009 832.45521)
(-2.4826112e-05 -0.001891537 832.45529)
(-0.0010496305 -0.0019671508 832.45508)
(-0.002037922 -0.002037922 832.45455)
(-0.0029835793 -0.0021059608 832.45372)
(-0.0038744937 -0.0021685664 832.45257)
(-0.0014348388 -0.0022131559 832.45108)
(0.0017208483 -0.0022862073 832.45222)
(0.0038961611 -0.0024962962 832.45347)
(0.0020534842 -0.0026553687 832.4541)
(0.00094384858 -0.0027677606 832.45445)
(-0.00010473094 -0.0028512278 832.45451)
(-0.0011208169 -0.0029198139 832.45427)
(-0.0021059608 -0.0029835793 832.45372)
(-0.0030504583 -0.0030504583 832.45287)
(-0.0039334635 -0.00312619 832.4517)
(-0.0014520887 -0.0032038165 832.45019)
(0.0016217287 -0.0028064484 832.45131)
(0.0036518531 -0.0033913 832.45247)
(0.0018981698 -0.0035975388 832.45305)
(0.00084366872 -0.0037070451 832.45336)
(-0.00017687947 -0.0037751033 832.45339)
(-0.001181982 -0.0038262684 832.45313)
(-0.0021685664 -0.0038744937 832.45257)
(-0.00312619 -0.0039334635 832.4517)
(-0.0040278519 -0.0040278519 832.45049)
(-0.0014865898 -0.0042181354 832.44894)
(0.0013309473 -0.00099324402 832.45022)
(0.0031050708 -0.0012840254 832.45111)
(0.0017377391 -0.0013577656 832.45163)
(0.00076628405 -0.0013909792 832.45191)
(-0.00022395423 -0.0014093553 832.45193)
(-0.0012202073 -0.0014223624 832.45165)
(-0.0022131559 -0.0014348388 832.45108)
(-0.0032038165 -0.0014520887 832.45019)
(-0.0042181354 -0.0014865898 832.44894)
(-0.0015789443 -0.0015789443 832.44727)
(0.002688663 0.002688663 827.10183)
(0.0061302364 0.0023502815 827.10332)
(0.0033805164 0.0022739481 827.10408)
(0.0018453199 0.002241894 827.10454)
(0.00045168293 0.0022213155 827.1047)
(-0.00084676505 0.002201466 827.10457)
(-0.0020405166 0.0021736088 827.10417)
(-0.0030796098 0.0021205279 827.10349)
(-0.003813415 0.0019916313 827.10258)
(-0.0013586128 0.0016125853 827.10149)
(0.0023502815 0.0061302364 827.10332)
(0.005508164 0.005508164 827.10462)
(0.003217935 0.0053128197 827.10534)
(0.001766371 0.0052077778 827.10578)
(0.00039104099 0.0051308176 827.10593)
(-0.0009183252 0.0050550223 827.10579)
(-0.0021619238 0.0049564385 827.10536)
(-0.003352576 0.0047948555 827.10465)
(-0.0045753289 0.0044779994 827.10365)
(-0.0017376588 0.0037676794 827.1023)
(0.0022739481 0.0033805164 827.10408)
(0.0053128197 0.003217935 827.10534)
(0.0030801302 0.0030801302 827.10603)
(0.0016633178 0.0029694237 827.10645)
(0.00029892742 0.0028727066 827.10657)
(-0.0010211442 0.0027751803 827.10642)
(-0.0023006834 0.0026608575 827.10597)
(-0.0035580489 0.0025108863 827.10522)
(-0.0048405912 0.0023104167 827.10416)
(-0.0018321595 0.002104755 827.10275)
(0.002241894 0.0018453199 827.10454)
(0.0052077778 0.001766371 827.10578)
(0.0029694237 0.0016633178 827.10645)
(0.0015589475 0.0015589475 827.10684)
(0.00019679767 0.0014570855 827.10694)
(-0.0011301744 0.0013537118 827.10676)
(-0.0024262178 0.0012424368 827.10629)
(-0.0037030167 0.001118915 827.10551)
(-0.0049814602 0.00098965002 827.10442)
(-0.0018747666 0.00089021075 827.10298)
(0.0022213155 0.00045168293 827.1047)
(0.0051308176 0.00039104099 827.10593)
(0.0028727066 0.00029892742 827.10657)
(0.0014570855 0.00019679768 827.10694)
(9.3691729e-05 9.3691733e-05 827.10703)
(-0.0012357929 -9.142268e-06 827.10683)
(-0.0025354802 -0.00011292723 827.10633)
(-0.0038108357 -0.0002163325 827.10553)
(-0.0050692954 -0.00030977784 827.10441)
(-0.0018984523 -0.00037069025 827.10296)
(0.002201466 -0.00084676505 827.10457)
(0.0050550223 -0.00091832519 827.10579)
(0.0027751803 -0.0010211442 827.10642)
(0.0013537118 -0.0011301744 827.10676)
(-9.142272e-06 -0.0012357929 827.10683)
(-0.0013367933 -0.0013367933 827.1066)
(-0.002633408 -0.0014342616 827.10608)
(-0.0038998673 -0.0015269135 827.10526)
(-0.005135818 -0.0016068976 827.10412)
(-0.0019153749 -0.0016571074 827.10266)
(0.0021736088 -0.0020405166 827.10417)
(0.0049564385 -0.0021619238 827.10536)
(0.0026608575 -0.0023006834 827.10597)
(0.0012424368 -0.0024262178 827.10629)
(-0.00011292724 -0.0025354802 827.10633)
(-0.0014342616 -0.002633408 827.10608)
(-0.0027256004 -0.0027256004 827.10554)
(-0.0039834717 -0.0028150333 827.1047)
(-0.0051994892 -0.0028983361 827.10354)
(-0.0019319255 -0.0029585118 827.10207)
(0.0021205279 -0.0030796098 827.10349)
(0.0047948555 -0.003352576 827.10465)
(0.0025108863 -0.0035580489 827.10522)
(0.001118915 -0.0037030167 827.10551)
(-0.0002163325 -0.0038108357 827.10553)
(-0.0015269135 -0.0038998673 827.10526)
(-0.0028150333 -0.0039834717 827.1047)
(-0.004072603 -0.004072603 827.10383)
(-0.0052792964 -0.0041757207 827.10266)
(-0.001955492 -0.0042837478 827.10116)
(0.0019916313 -0.003813415 827.10258)
(0.0044779994 -0.0045753289 827.10365)
(0.0023104167 -0.0048405912 827.10416)
(0.00098965003 -0.0049814603 827.10442)
(-0.00030977784 -0.0050692954 827.10441)
(-0.0016068976 -0.005135818 827.10412)
(-0.0028983361 -0.0051994893 827.10354)
(-0.0041757207 -0.0052792965 827.10266)
(-0.005410634 -0.005410634 827.10145)
(-0.0020039435 -0.005680878 827.09991)
(0.0016125853 -0.0013586128 827.10149)
(0.0037676794 -0.0017376588 827.1023)
(0.002104755 -0.0018321595 827.10275)
(0.00089021075 -0.0018747666 827.10298)
(-0.00037069025 -0.0018984523 827.10296)
(-0.0016571074 -0.0019153749 827.10266)
(-0.0029585118 -0.0019319255 827.10207)
(-0.0042837478 -0.001955492 827.10116)
(-0.005680878 -0.0020039435 827.09991)
(-0.0021356547 -0.0021356547 827.09826)
(0.0031706993 0.0031706993 821.83645)
(0.0072173744 0.0027698438 821.83785)
(0.0039567486 0.0026797227 821.83855)
(0.0021270114 0.0026416656 821.83894)
(0.00045070245 0.0026169855 821.83906)
(-0.001124902 0.0025929637 821.83891)
(-0.0025874348 0.0025590687 821.83849)
(-0.0038770458 0.0024942993 821.83781)
(-0.0048110747 0.0023367391 821.83691)
(-0.0017182983 0.0018727948 821.83584)
(0.0027698438 0.0072173744 821.83785)
(0.0064809095 0.0064809095 821.83907)
(0.0037644813 0.0062499687 821.83972)
(0.0020329055 0.0061249335 821.8401)
(0.00037764972 0.0060324884 821.84021)
(-0.0012117771 0.0059407538 821.84005)
(-0.0027354314 0.0058208922 821.83961)
(-0.0042105403 0.0056239689 821.8389)
(-0.0057433316 0.0052373056 821.83791)
(-0.0021822426 0.0043697585 821.8366)
(0.0026797227 0.0039567486 821.83855)
(0.0062499687 0.0037644813 821.83972)
(0.0036007726 0.0036007726 821.84035)
(0.001909531 0.0034683374 821.84071)
(0.00026652283 0.0033518378 821.8408)
(-0.0013364982 0.0032337287 821.84062)
(-0.0029042197 0.003094817 821.84016)
(-0.0044606323 0.002912322 821.83941)
(-0.0060652852 0.002668432 821.83837)
(-0.0022966631 0.0024193671 821.837)
(0.0026416656 0.0021270114 821.83894)
(0.0061249335 0.0020329055 821.8401)
(0.0034683374 0.001909531 821.84071)
(0.0017839707 0.0017839707 821.84105)
(0.00014304104 0.0016608831 821.84112)
(-0.0014687979 0.0015355227 821.84091)
(-0.0030568381 0.001400255 821.84043)
(-0.0046369253 0.0012499314 821.83965)
(-0.0062362865 0.0010926683 821.83858)
(-0.0023482859 0.00097203757 821.83718)
(0.0026169855 0.00045070246 821.83906)
(0.0060324884 0.00037764973 821.84021)
(0.0033518378 0.00026652284 821.8408)
(0.0016608831 0.00014304104 821.84112)
(1.8074779e-05 1.8074776e-05 821.84117)
(-0.0015971263 -0.00010686813 821.84094)
(-0.0031898109 -0.00023324204 821.84043)
(-0.0047682189 -0.00035935414 821.83964)
(-0.006343179 -0.00047339711 821.83854)
(-0.0023770836 -0.00054768021 821.83713)
(0.0025929637 -0.001124902 821.83891)
(0.0059407538 -0.0012117771 821.84005)
(0.0032337287 -0.0013364982 821.84062)
(0.0015355227 -0.0014687979 821.84091)
(-0.00010686813 -0.0015971263 821.84094)
(-0.0017201147 -0.0017201147 821.84069)
(-0.0033093241 -0.0018391482 821.84016)
(-0.0048770803 -0.0019526797 821.83934)
(-0.0064246126 -0.002051027 821.83823)
(-0.002397808 -0.0021129416 821.83681)
(0.0025590688 -0.0025874348 821.83849)
(0.0058208922 -0.0027354314 821.83961)
(0.003094817 -0.0029042197 821.84016)
(0.001400255 -0.0030568381 821.84043)
(-0.00023324204 -0.0031898109 821.84043)
(-0.0018391482 -0.0033093241 821.84016)
(-0.003422376 -0.003422376 821.83961)
(-0.0049800977 -0.0035327833 821.83877)
(-0.0065034409 -0.003636467 821.83764)
(-0.00241836 -0.0037119917 821.8362)
(0.0024942993 -0.0038770458 821.83781)
(0.0056239689 -0.0042105403 821.8389)
(0.002912322 -0.0044606323 821.83941)
(0.0012499314 -0.0046369253 821.83965)
(-0.00035935414 -0.0047682189 821.83964)
(-0.0019526797 -0.0048770803 821.83934)
(-0.0035327833 -0.0049800977 821.83877)
(-0.0050911713 -0.0050911713 821.83791)
(-0.006603821 -0.0052213348 821.83676)
(-0.0024481578 -0.005359213 821.8353)
(0.0023367391 -0.0048110747 821.83691)
(0.0052373056 -0.0057433316 821.83791)
(0.002668432 -0.0060652852 821.83837)
(0.0010926683 -0.0062362865 821.83858)
(-0.00047339711 -0.006343179 821.83854)
(-0.002051027 -0.0064246126 821.83823)
(-0.003636467 -0.0065034409 821.83764)
(-0.0052213348 -0.006603821 821.83676)
(-0.0067714825 -0.0067714825 821.83557)
(-0.0025102788 -0.0071195675 821.83408)
(0.0018727948 -0.0017182983 821.83584)
(0.0043697584 -0.0021822426 821.8366)
(0.0024193671 -0.0022966631 821.837)
(0.00097203757 -0.0023482859 821.83718)
(-0.0005476802 -0.0023770836 821.83713)
(-0.0021129416 -0.002397808 821.83681)
(-0.0037119917 -0.00241836 821.8362)
(-0.005359213 -0.0024481578 821.8353)
(-0.0071195675 -0.0025102788 821.83408)
(-0.0026802144 -0.0026802144 821.83247)
(0.0036225198 0.0036225198 816.65209)
(0.0082275787 0.003162293 816.6534)
(0.0044759323 0.003059158 816.65403)
(0.0023646101 0.0030154565 816.65439)
(0.00041933759 0.0029869082 816.65447)
(-0.0014197094 0.0029589278 816.6543)
(-0.003137447 0.0029192804 816.65387)
(-0.004663651 0.00284336 816.65321)
(-0.0057835295 0.0026584538 816.65232)
(-0.0020671701 0.0021135265 816.6513)
(0.003162293 0.0082275787 816.6534)
(0.0073825359 0.0073825359 816.65454)
(0.0042556776 0.0071180632 816.65513)
(0.0022562354 0.0069742365 816.65547)
(0.00033454456 0.0068671851 816.65554)
(-0.0015211511 0.0067603308 816.65536)
(-0.0033107987 0.0066202057 816.65492)
(-0.0050548909 0.0063895782 816.65422)
(-0.0068782798 0.0059363368 816.65325)
(-0.0026120975 0.0049188808 816.65199)
(0.003059158 0.0044759323 816.65403)
(0.0071180632 0.0042556776 816.65513)
(0.0040676329 0.0040676329 816.6557)
(0.002113732 0.0039147601 816.65602)
(0.00020543192 0.0037795772 816.65608)
(-0.0016666889 0.0036419357 816.65587)
(-0.0035081996 0.0034796103 816.65541)
(-0.0053475199 0.0032661025 816.65468)
(-0.0072542269 0.0029808152 816.65366)
(-0.0027454741 0.002690438 816.65235)
(0.0030154565 0.0023646101 816.65439)
(0.0069742365 0.0022562354 816.65547)
(0.0039147601 0.002113732 816.65602)
(0.0019681798 0.0019681798 816.65631)
(6.1720179e-05 0.0018249945 816.65635)
(-0.001821118 0.0016787366 816.65613)
(-0.0036866319 0.0015205992 816.65564)
(-0.005553686 0.0013446935 816.65488)
(-0.0074539443 0.0011607084 816.65384)
(-0.0028056823 0.0010198799 816.6525)
(0.0029869082 0.00041933759 816.65447)
(0.0068671851 0.00033454455 816.65554)
(0.0037795772 0.00020543192 816.65608)
(0.0018249945 6.1720182e-05 816.65635)
(-8.4011224e-05 -8.4011219e-05 816.65637)
(-0.0019710842 -0.00023001991 816.65613)
(-0.0038422428 -0.0003779765 816.65562)
(-0.0057074108 -0.00052582257 816.65483)
(-0.0075790405 -0.00065959093 816.65377)
(-0.0028393597 -0.00074666712 816.65241)
(0.0029589278 -0.0014197094 816.6543)
(0.0067603308 -0.0015211511 816.65536)
(0.0036419358 -0.0016666889 816.65587)
(0.0016787366 -0.001821118 816.65613)
(-0.00023001992 -0.0019710842 816.65613)
(-0.0021150833 -0.0021150833 816.65586)
(-0.0039824346 -0.002254792 816.65533)
(-0.0058353004 -0.0023883979 816.65453)
(-0.0076747889 -0.0025044305 816.65345)
(-0.0028637331 -0.0025776191 816.65208)
(0.0029192804 -0.003137447 816.65387)
(0.0066202057 -0.0033107987 816.65492)
(0.0034796103 -0.0035081996 816.65541)
(0.0015205992 -0.0036866319 816.65564)
(-0.00037797651 -0.0038422427 816.65562)
(-0.002254792 -0.0039824346 816.65533)
(-0.0041155573 -0.0041155573 816.65478)
(-0.0059570492 -0.0042462258 816.65396)
(-0.0077682617 -0.0043696414 816.65286)
(-0.0028881521 -0.0044600242 816.65149)
(0.00284336 -0.004663651 816.65321)
(0.0063895782 -0.0050548909 816.65422)
(0.0032661025 -0.0053475199 816.65468)
(0.0013446935 -0.005553686 816.65488)
(-0.00052582259 -0.0057074108 816.65483)
(-0.0023883979 -0.0058353004 816.65453)
(-0.0042462258 -0.0059570492 816.65396)
(-0.0060893845 -0.0060893845 816.65312)
(-0.0078885872 -0.0062457752 816.652)
(-0.0029239883 -0.0064125392 816.6506)
(0.0026584538 -0.0057835295 816.65232)
(0.0059363368 -0.0068782798 816.65325)
(0.0029808152 -0.0072542269 816.65366)
(0.0011607084 -0.0074539443 816.65384)
(-0.00065959094 -0.0075790405 816.65377)
(-0.0025044305 -0.0076747889 816.65345)
(-0.0043696414 -0.0077682617 816.65286)
(-0.0062457752 -0.0078885872 816.652)
(-0.0080914164 -0.0080914164 816.65085)
(-0.0029993281 -0.0085146465 816.64941)
(0.0021135265 -0.0020671701 816.6513)
(0.0049188808 -0.0026120975 816.65199)
(0.002690438 -0.0027454741 816.65235)
(0.0010198799 -0.0028056823 816.6525)
(-0.00074666713 -0.0028393597 816.65241)
(-0.0025776191 -0.0028637331 816.65208)
(-0.0044600242 -0.0028881521 816.65149)
(-0.0064125392 -0.0029239883 816.6506)
(-0.0085146465 -0.0029993281 816.64941)
(-0.0032061417 -0.0032061417 816.64787)
(0.0040433536 0.0040433536 811.54698)
(0.0091616388 0.0035271686 811.54819)
(0.0049427358 0.0034118236 811.54877)
(0.0025639578 0.0033628377 811.54907)
(0.00036436619 0.0033306595 811.54913)
(-0.0017230538 0.0032989495 811.54895)
(-0.0036806683 0.003253868 811.54852)
(-0.0054280429 0.0031674041 811.54787)
(-0.0067194452 0.0029566374 811.54702)
(-0.0024016541 0.0023351188 811.54605)
(0.0035271686 0.0091616388 811.54819)
(0.0082143439 0.0082143439 811.54924)
(0.0046962394 0.0079184489 811.54978)
(0.0024422116 0.0077570324 811.55007)
(0.00026853398 0.0076362742 811.55012)
(-0.0018382411 0.0075151785 811.54992)
(-0.0038779865 0.0073559174 811.54949)
(-0.0058738889 0.0070934303 811.54881)
(-0.0079678732 0.0065772484 811.54788)
(-0.0030231727 0.0054180844 811.54668)
(0.0034118236 0.0049427358 811.54877)
(0.0079184489 0.0046962394 811.54978)
(0.0044854242 0.0044854242 811.5503)
(0.0022817831 0.0043134104 811.55057)
(0.00012251235 0.0041606816 811.5506)
(-0.0020034106 0.0040046379 811.55039)
(-0.0041024165 0.0038202028 811.54993)
(-0.0062067119 0.0035773832 811.54922)
(-0.0083947912 0.0032529773 811.54825)
(-0.0031744301 0.0029236228 811.547)
(0.0033628377 0.0025639578 811.54907)
(0.0077570324 0.0024422116 811.55007)
(0.0043134104 0.0022817831 811.55057)
(0.002117469 0.002117469 811.55083)
(-4.0238466e-05 0.0019553771 811.55084)
(-0.0021787199 0.0017894083 811.55061)
(-0.0043052412 0.0016096568 811.55013)
(-0.0064411143 0.0014095519 811.54939)
(-0.0086216335 0.0012002937 811.54839)