/*--------------------------------*- C++ -*----------------------------------*\
| =========                 |                                                 |
| \\      /  F ield         | OpenFOAM: The Open Source CFD Toolbox           |
|  \\    /   O peration     | Version:  v2106                                 |
|   \\  /    A nd           | Website:  www.openfoam.com                      |
|    \\/     M anipulation  |                                                 |
\*---------------------------------------------------------------------------*/
FoamFile
{
    version     2.0;
    format      ascii;
    arch        "LSB;label=32;scalar=64";
    class       volScalarField;
    location    "70";
    object      gradTx;
}
// * * * * * * * * * * * * * * * * * * * * * * * * * * * * * * * * * * * * * //

dimensions      [0 -1 0 1 0 0 0];

internalField   nonuniform List<scalar> 
4000
(
0.00023075101
0.0005070035
0.00025530038
0.0001383228
4.4201252e-05
-3.7671148e-05
-0.00010753323
-0.00015854667
-0.00016934425
-5.3571872e-05
0.00020458773
0.0004586607
0.00024266926
0.00013271689
4.0231381e-05
-4.2151906e-05
-0.00011486607
-0.00017399156
-0.00020605761
-7.0917042e-05
0.00019852247
0.00044347953
0.00023262624
0.000125725
3.4270464e-05
-4.8629834e-05
-0.00012348027
-0.00018666064
-0.00022310627
-7.7213454e-05
0.00019616698
0.00043598654
0.00022509181
0.00011888258
2.7740478e-05
-5.5496551e-05
-0.00013132722
-0.00019572231
-0.00023206156
-7.9970855e-05
0.0001947852
0.00043088173
0.00021879192
0.00011235494
2.1215813e-05
-6.2119304e-05
-0.00013813943
-0.00020243437
-0.00023755514
-8.1461354e-05
0.00019352041
0.00042605576
0.0002126009
0.00010582793
1.4766822e-05
-6.8403664e-05
-0.00014418098
-0.00020788125
-0.00024159825
-8.2486443e-05
0.00019179803
0.00041992305
0.00020544727
9.8865465e-05
8.3087087e-06
-7.4400208e-05
-0.00014974856
-0.0002127938
-0.00024521133
-8.3400909e-05
0.00018863184
0.00041010873
0.00019613976
9.1168753e-05
1.913075e-06
-8.001277e-05
-0.00015494639
-0.0002176158
-0.00024909367
-8.4458909e-05
0.00018150145
0.00039180908
0.00018371652
8.3091744e-05
-3.8502272e-06
-8.4759649e-05
-0.00015948311
-0.00022239553
-0.00025379567
-8.5937308e-05
0.00016415628
0.00035634671
0.0001701358
7.6719894e-05
-7.6236148e-06
-8.766898e-05
-0.0001624418
-0.00022620012
-0.00025894367
-8.7890913e-05
0.0010069391
0.002256897
0.0011958648
0.00065880425
0.00020742201
-0.00019154316
-0.00053656438
-0.00079875539
-0.00088943928
-0.0002918072
0.00088028041
0.0020247945
0.0011371515
0.00063220544
0.0001881751
-0.00021346296
-0.00057294889
-0.0008789265
-0.0011085038
-0.00040021065
0.00085220413
0.0019543543
0.0010898871
0.00059857258
0.00015920952
-0.0002450805
-0.0006151436
-0.00094128586
-0.0011911041
-0.00043027029
0.00084113819
0.0019188167
0.0010536571
0.00056538993
0.0001274122
-0.00027858518
-0.00065347483
-0.00098557163
-0.0012347271
-0.0004436501
0.00083447159
0.0018941226
0.0010230715
0.00053361304
9.5597551e-05
-0.00031091164
-0.00068674722
-0.0010183613
-0.0012615507
-0.00045092282
0.00082830691
0.0018706042
0.00099289424
0.00050177796
6.4120275e-05
-0.00034161055
-0.00071628755
-0.0010450212
-0.0012813589
-0.00045594799
0.00081985839
0.0018405853
0.00095794933
0.00046778189
3.2572194e-05
-0.00037094008
-0.00074358125
-0.0010691961
-0.0012992354
-0.00046049238
0.00080405057
0.001792025
0.00091236831
0.00043017433
1.3075509e-06
-0.00039844456
-0.0007692004
-0.0010932427
-0.0013189914
-0.00046596809
0.00076641099
0.0016980549
0.00085130418
0.00039070646
-2.6877364e-05
-0.00042177484
-0.00079180277
-0.0011178175
-0.0013447169
-0.00047443023
0.00065800754
0.0014903602
0.00078614501
0.00035972766
-4.5324198e-05
-0.00043612918
-0.00080683292
-0.0011387243
-0.0013789852
-0.00048881364
0.0016244653
0.0036891447
0.0020179518
0.0011186378
0.00033406457
-0.00037455326
-0.0010033876
-0.0015169524
-0.0018155481
-0.00063099887
0.0014203273
0.0033139577
0.001920856
0.0010731013
0.00030027733
-0.00041354495
-0.0010687043
-0.0016624393
-0.0022183096
-0.00083097621
0.0013743406
0.0031973196
0.0018405394
0.0010146713
0.00024922942
-0.00046970147
-0.0011439392
-0.0017736826
-0.0023635893
-0.00088323704
0.0013555968
0.0031365454
0.0017776518
0.00095640887
0.00019298584
-0.00052921551
-0.0012121581
-0.0018524545
-0.0024406668
-0.0009067175
0.001343983
0.0030933531
0.001723847
0.00090023615
0.0001365471
-0.00058670258
-0.0012714137
-0.0019108632
-0.0024883581
-0.00091961783
0.001333072
0.0030517102
0.0016703603
0.00084372656
8.057206e-05
-0.00064140649
-0.0013241752
-0.0019585958
-0.0025238952
-0.00092864309
0.0013179885
0.0029982049
0.0016081764
0.00078323504
2.4356123e-05
-0.00069383243
-0.0013732303
-0.0020024313
-0.002556715
-0.00093707073
0.0012895275
0.0029111586
0.0015269065
0.00071625203
-3.1445092e-05
-0.000743223
-0.0014198512
-0.0020473377
-0.0025952557
-0.00094813607
0.0012209972
0.0027414747
0.0014181613
0.00064605441
-8.1785129e-05
-0.00078540058
-0.0014619722
-0.0020962732
-0.0026532681
-0.0009688158
0.0010210199
0.0023631175
0.0013045493
0.00059148323
-0.00011467352
-0.00081157992
-0.0014912117
-0.0021438908
-0.0027624155
-0.001020901
0.0021754478
0.0049604108
0.0027389681
0.0015120388
0.0004149212
-0.00059405074
-0.001508287
-0.0022862073
-0.0028064484
-0.00099324402
0.0019024482
0.0044583273
0.0026079001
0.0014492042
0.00036735611
-0.00064962241
-0.0016020538
-0.0024962962
-0.0033913
-0.0012840254
0.0018407254
0.0043008211
0.0024977293
0.0013677338
0.00029526381
-0.00072955248
-0.001709557
-0.0026553687
-0.0035975388
-0.0013577656
0.0018150695
0.0042170885
0.0024101292
0.00128577
0.00021555821
-0.00081428345
-0.0018069009
-0.0027677605
-0.0037070451
-0.0013909792
0.0017988357
0.0041565161
0.0023342952
0.0012062207
0.00013532231
-0.00089624531
-0.001891537
-0.0028512278
-0.0037751033
-0.0014093553
0.0017833595
0.0040974311
0.0022583313
0.0011258285
5.5518993e-05
-0.00097443189
-0.0019671508
-0.0029198139
-0.0038262684
-0.0014223624
0.0017617879
0.0040210144
0.0021696341
0.0010395279
-2.4826112e-05
-0.0010496305
-0.002037922
-0.0029835793
-0.0038744937
-0.0014348388
0.0017208483
0.0038961611
0.0020534842
0.00094384858
-0.00010473094
-0.0011208169
-0.0021059608
-0.0030504583
-0.0039334635
-0.0014520887
0.0016217287
0.0036518531
0.0018981698
0.00084366872
-0.00017687947
-0.001181982
-0.0021685664
-0.00312619
-0.0040278519
-0.0014865898
0.0013309473
0.0031050708
0.0017377391
0.00076628405
-0.00022395423
-0.0012202073
-0.0022131559
-0.0032038165
-0.0042181354
-0.0015789443
0.002688663
0.0061302364
0.0033805164
0.0018453199
0.00045168293
-0.00084676505
-0.0020405166
-0.0030796098
-0.003813415
-0.0013586128
0.0023502815
0.005508164
0.003217935
0.001766371
0.00039104099
-0.0009183252
-0.0021619238
-0.003352576
-0.0045753289
-0.0017376588
0.0022739481
0.0053128197
0.0030801302
0.0016633178
0.00029892742
-0.0010211442
-0.0023006834
-0.0035580489
-0.0048405912
-0.0018321595
0.002241894
0.0052077778
0.0029694237
0.0015589475
0.00019679767
-0.0011301744
-0.0024262178
-0.0037030167
-0.0049814602
-0.0018747666
0.0022213155
0.0051308176
0.0028727066
0.0014570855
9.3691729e-05
-0.0012357929
-0.0025354802
-0.0038108357
-0.0050692954
-0.0018984523
0.002201466
0.0050550223
0.0027751803
0.0013537118
-9.142272e-06
-0.0013367933
-0.002633408
-0.0038998673
-0.005135818
-0.0019153749
0.0021736088
0.0049564385
0.0026608575
0.0012424368
-0.00011292724
-0.0014342616
-0.0027256004
-0.0039834717
-0.0051994892
-0.0019319255
0.0021205279
0.0047948555
0.0025108863
0.001118915
-0.0002163325
-0.0015269135
-0.0028150333
-0.004072603
-0.0052792964
-0.001955492
0.0019916313
0.0044779994
0.0023104167
0.00098965003
-0.00030977784
-0.0016068976
-0.0028983361
-0.0041757207
-0.005410634
-0.0020039435
0.0016125853
0.0037676794
0.002104755
0.00089021075
-0.00037069025
-0.0016571074
-0.0029585118
-0.0042837478
-0.005680878
-0.0021356547
0.0031706993
0.0072173744
0.0039567486
0.0021270114
0.00045070245
-0.001124902
-0.0025874348
-0.0038770458
-0.0048110747
-0.0017182983
0.0027698438
0.0064809095
0.0037644813
0.0020329055
0.00037764972
-0.0012117771
-0.0027354314
-0.0042105403
-0.0057433316
-0.0021822426
0.0026797227
0.0062499687
0.0036007726
0.001909531
0.00026652283
-0.0013364982
-0.0029042197
-0.0044606323
-0.0060652852
-0.0022966631
0.0026416656
0.0061249335
0.0034683374
0.0017839707
0.00014304104
-0.0014687979
-0.0030568381
-0.0046369253
-0.0062362865
-0.0023482859
0.0026169855
0.0060324884
0.0033518378
0.0016608831
1.8074779e-05
-0.0015971263
-0.0031898109
-0.0047682189
-0.006343179
-0.0023770836
0.0025929637
0.0059407538
0.0032337287
0.0015355227
-0.00010686813
-0.0017201147
-0.0033093241
-0.0048770803
-0.0064246126
-0.002397808
0.0025590688
0.0058208922
0.003094817
0.001400255
-0.00023324204
-0.0018391482
-0.003422376
-0.0049800977
-0.0065034409
-0.00241836
0.0024942993
0.0056239689
0.002912322
0.0012499314
-0.00035935414
-0.0019526797
-0.0035327833
-0.0050911713
-0.006603821
-0.0024481578
0.0023367391
0.0052373056
0.002668432
0.0010926683
-0.00047339711
-0.002051027
-0.003636467
-0.0052213348
-0.0067714825
-0.0025102788
0.0018727948
0.0043697584
0.0024193671
0.00097203757
-0.0005476802
-0.0021129416
-0.0037119917
-0.005359213
-0.0071195675
-0.0026802144
0.0036225198
0.0082275787
0.0044759323
0.0023646101
0.00041933759
-0.0014197094
-0.003137447
-0.004663651
-0.0057835295
-0.0020671701
0.003162293
0.0073825359
0.0042556776
0.0022562354
0.00033454456
-0.0015211511
-0.0033107987
-0.0050548909
-0.0068782798
-0.0026120975
0.003059158
0.0071180632
0.0040676329
0.002113732
0.00020543192
-0.0016666889
-0.0035081996
-0.0053475199
-0.0072542269
-0.0027454741
0.0030154565
0.0069742365
0.0039147601
0.0019681798
6.1720179e-05
-0.001821118
-0.0036866319
-0.005553686
-0.0074539443
-0.0028056823
0.0029869082
0.0068671851
0.0037795772
0.0018249945
-8.4011224e-05
-0.0019710842
-0.0038422428
-0.0057074108
-0.0075790405
-0.0028393597
0.0029589278
0.0067603308
0.0036419358
0.0016787366
-0.00023001992
-0.0021150833
-0.0039824346
-0.0058353004
-0.0076747889
-0.0028637331
0.0029192804
0.0066202057
0.0034796103
0.0015205992
-0.00037797651
-0.002254792
-0.0041155573
-0.0059570492
-0.0077682617
-0.0028881521
0.00284336
0.0063895782
0.0032661025
0.0013446935
-0.00052582259
-0.0023883979
-0.0042462258
-0.0060893845
-0.0078885872
-0.0029239883
0.0026584538
0.0059363368
0.0029808152
0.0011607084
-0.00065959094
-0.0025044305
-0.0043696414
-0.0062457752
-0.0080914164
-0.0029993281
0.0021135265
0.0049188808
0.002690438
0.0010198799
-0.00074666713
-0.0025776191
-0.0044600242
-0.0064125392
-0.0085146465
-0.0032061417
0.0040433536
0.0091616388
0.0049427358
0.0025639578
0.00036436619
-0.0017230538
-0.0036806683
-0.0054280429
-0.0067194452
-0.0024016541
0.0035271686
0.0082143439
0.0046962394
0.0024422116
0.00026853398
-0.0018382411
-0.0038779865
-0.0058738889
-0.0079678732
-0.0030231727
0.0034118236
0.0079184489
0.0044854242
0.0022817831
0.00012251235
-0.0020034106
-0.0041024165
-0.0062067119
-0.0083947912
-0.0031744301
0.0033628377
0.0077570324
0.0043134104
0.002117469
-4.0238466e-05
-0.0021787199
-0.0043052412
-0.0064411143
-0.0086216335
-0.0032427423
0.0033306595
0.0076362742
0.0041606816
0.0019553771
-0.00020554835
-0.0023491309
-0.004482273
-0.0066160751
-0.0087639567
-0.003281035
0.0032989495
0.0075151785
0.004004638
0.0017894083
-0.00037146288
-0.0025130257
-0.0046420815
-0.0067620358
-0.0088733028
-0.0033088735
0.003253868
0.0073559173
0.0038202028
0.0016096568
-0.00053985407
-0.0026723589
-0.0047943038
-0.0069016447
-0.0089807519
-0.0033369838
0.0031674041
0.0070934303
0.0035773832
0.0014095519
-0.00070830313
-0.0028250565
-0.0049443073
-0.0070543171
-0.0091201719
-0.0033786011
0.0029566374
0.0065772484
0.0032529773
0.0012002937
-0.00086077552
-0.0029579284
-0.0050865851
-0.0072358271
-0.0093566855
-0.0034665995
0.0023351188
0.0054180844
0.0029236228
0.0010403864
-0.00095997237
-0.0030418517
-0.0051911764
-0.0074302506
-0.0098518545
-0.0037087138
0.0044318614
0.010018308
0.0053597471
0.0027294191
0.00029150503
-0.0020279253
-0.0042088597
-0.0061611601
-0.0076099623
-0.0027189463
0.0038634477
0.0089756408
0.005088859
0.002595241
0.00018537815
-0.0021559667
-0.0044286192
-0.0066581581
-0.0090023787
-0.0034122308
0.00373675
0.0086505526
0.0048569037
0.0024181433
2.3589729e-05
-0.0023394855
-0.0046783431
-0.0070286001
-0.0094769543
-0.0035801928
0.0036828557
0.0084727974
0.0046670972
0.0022363582
-0.00015692942
-0.0025343186
-0.0049039996
-0.0072894359
-0.009729172
-0.0036560811
0.003647298
0.0083392768
0.0044980209
0.0020566267
-0.00034053719
-0.0027238681
-0.0051011051
-0.0074843033
-0.0098876371
-0.0036986958
0.0036121044
0.0082048821
0.0043247896
0.0018722313
-0.00052508733
-0.0029064195
-0.0052793345
-0.0076472482
-0.010009765
-0.0037297908
0.003561937
0.0080277166
0.004119669
0.0016722441
-0.00071263807
-0.0030841899
-0.0054495384
-0.0078036996
-0.010130406
-0.0037613863
0.0034655981
0.0077353988
0.0038494091
0.0014494693
-0.00090042222
-0.0032548528
-0.0056177886
-0.0079756085
-0.01028791
-0.0038084812
0.003230605
0.0071602766
0.0034883912
0.0012165409
-0.0010704504
-0.0034035862
-0.0057778987
-0.0081809231
-0.010556377
-0.0039084903
0.0025373206
0.0058684068
0.0031226158
0.0010387865
-0.001181015
-0.0034976219
-0.0058959342
-0.0084015791
-0.011119819
-0.0041841092
0.0047865641
0.010795541
0.0057283641
0.00286422
0.00020540349
-0.0023284707
-0.0047151865
-0.006855579
-0.0084477766
-0.0030167069
0.0041699479
0.0096649121
0.0054350517
0.0027186034
8.9773903e-05
-0.0024684081
-0.0049557387
-0.0073999923
-0.0099737005
-0.0037765378
0.0040328118
0.0093129975
0.0051836739
0.0025261598
-8.6567997e-05
-0.0026689
-0.0052288836
-0.0078052704
-0.01049236
-0.0039599377
0.0039744064
0.0091202219
0.0049774935
0.0023282677
-0.00028350186
-0.0028817993
-0.0054756855
-0.0080905878
-0.010768061
-0.004042832
0.003935734
0.0089749374
0.0047933383
0.0021322443
-0.00048403522
-0.0030890765
-0.0056914012
-0.0083039147
-0.010941488
-0.0040894506
0.00389732
0.0088282504
0.0046042178
0.0019308005
-0.00068584888
-0.0032889354
-0.0058867407
-0.0084826474
-0.011075499
-0.0041235725
0.0038424424
0.008634508
0.0043799471
0.0017120679
-0.00089117139
-0.0034838388
-0.0060736863
-0.0086548061
-0.011208457
-0.0041584231
0.0037369519
0.0083145533
0.004084271
0.0014682829
-0.0010969041
-0.0036712206
-0.0062589659
-0.0088447125
-0.011382908
-0.004210655
0.0034795002
0.0076848166
0.0036893516
0.0012134236
-0.001283231
-0.0038347302
-0.0064357514
-0.0090723519
-0.011681388
-0.0043219508
0.0027196693
0.0062699704
0.0032899103
0.0010191542
-0.0014043417
-0.0039381889
-0.0065663752
-0.0093176435
-0.012309018
-0.0046290756
0.0051060238
0.011491072
0.0060493122
0.002970761
0.00010979955
-0.0026198583
-0.0051939711
-0.0075051115
-0.0092267085
-0.0032929306
0.0044455008
0.010280379
0.0057356566
0.0028147535
-1.4494393e-05
-0.0027706719
-0.0054535571
-0.0080929506
-0.010874948
-0.0041137344
0.0042988947
0.0099041391
0.0054666646
0.0026083581
-0.00020410669
-0.0029866745
-0.0057481263
-0.0085300964
-0.011433884
-0.0043112247
0.0042363971
0.0096977312
0.0052456033
0.0023957969
-0.00041602169
-0.0032160891
-0.0060142741
-0.0088378116
-0.011731053
-0.0044005181
0.0041948897
0.0095417363
0.0050477081
0.002184908
-0.00063202249
-0.0034395884
-0.0062470337
-0.0090680477
-0.011918179
-0.0044508003
0.0041535345
0.009383825
0.004844076
0.0019678811
-0.00084963526
-0.0036553089
-0.0064580727
-0.0092612781
-0.012063104
-0.0044877018
0.0040943472
0.00917492
0.0046022909
0.0017319941
-0.0010712423
-0.0038659401
-0.0066604179
-0.0094479108
-0.012207425
-0.0045255574
0.0039804772
0.0088296698
0.0042833591
0.0014689737
-0.0012934339
-0.0040686931
-0.0068614018
-0.009654461
-0.012397581
-0.004582554
0.0037024545
0.008149935
0.0038574299
0.0011940428
-0.0014947089
-0.0042458033
-0.0070536007
-0.0099028052
-0.01272395
-0.0047043446
0.0028816507
0.0066224938
0.0034272544
0.00098467945
-0.0016254845
-0.0043579389
-0.007195879
-0.010170986
-0.013411304
-0.0050407904
0.0053889303
0.012102718
0.0063229576
0.003050865
7.7040994e-06
-0.0028981074
-0.0056404866
-0.0081045575
-0.0099414833
-0.0035458872
0.004689036
0.010820288
0.005991143
0.002885565
-0.0001243731
-0.0030587225
-0.0059172496
-0.0087316099
-0.01170022
-0.0044217775
0.0045339773
0.010422347
0.0057064297
0.0026666779
-0.00032590831
-0.0032886953
-0.0062311372
-0.0091974923
-0.012295423
-0.00463194
0.0044678263
0.010203761
0.0054720507
0.0024409556
-0.0005512975
-0.003532991
-0.0065147317
-0.0095254058
-0.012611931
-0.0047269929
0.0044237773
0.01003816
0.0052618203
0.0022166999
-0.00078122996
-0.003771123
-0.006762879
-0.0097709108
-0.01281142
-0.0047805794
0.0043797749
0.0098701481
0.0050451263
0.0019856339
-0.0010130955
-0.004001174
-0.0069881211
-0.0099772689
-0.01296623
-0.0048199981
0.0043167005
0.0096475721
0.0047875518
0.0017342723
-0.001249413
-0.0042260411
-0.0072044358
-0.010177059
-0.013120896
-0.0048605914
0.0041952662
0.0092794976
0.0044476443
0.0014538922
-0.0014864849
-0.0044427309
-0.0074197078
-0.010398801
-0.013325422
-0.0049219526
0.0038986656
0.0085546374
0.0039937559
0.0011608538
-0.0017012761
-0.0046321889
-0.0076259678
-0.010666108
-0.013677395
-0.0050533854
0.0030227754
0.0069255583
0.0035359328
0.00093789466
-0.001840784
-0.004752207
-0.0077788995
-0.010955299
-0.014419663
-0.0054167981
0.0056341488
0.012628541
0.0065495058
0.0031059644
-9.8434373e-05
-0.0031599324
-0.0060507959
-0.0086495464
-0.010587609
-0.0037740914
0.0048996265
0.01128308
0.0062018063
0.0029325148
-0.00023737612
-0.0033292261
-0.0063427946
-0.0093114066
-0.012444479
-0.0046989106
0.0047371748
0.010866167
0.0059033387
0.0027026548
-0.0004494299
-0.0035715611
-0.0066738002
-0.0098027539
-0.013071764
-0.0049202666
0.0046678268
0.010636913
0.0056572677
0.0024653414
-0.00068672168
-0.0038290308
-0.006972856
-0.010148567
-0.013405391
-0.0050204115
0.0046215417
0.010462858
0.0054361653
0.0022292816
-0.00092898207
-0.0040801332
-0.0072346574
-0.010407624
-0.013615846
-0.0050769267
0.004575199
0.010285917
0.0052079221
0.0019857892
-0.001173483
-0.004322911
-0.0074725325
-0.010625671
-0.013779461
-0.0051185874
0.0045086792
0.010051229
0.0049363606
0.0017207095
-0.0014228623
-0.0045604479
-0.0077013126
-0.010837229
-0.013943398
-0.0051616363
0.0043805332
0.0096629132
0.0045778607
0.001424932
-0.0016731594
-0.0047895662
-0.0079293784
-0.011072628
-0.014160878
-0.0052269377
0.0040674391
0.0088980214
0.0040992005
0.0011158398
-0.0018999661
-0.0049900535
-0.0081482698
-0.011357051
-0.014536025
-0.0053671058
0.0031426199
0.0071787587
0.003616949
0.00088084952
-0.0020472298
-0.0051171179
-0.0083107953
-0.011665255
-0.015328089
-0.0057549798
0.0058407473
0.013066958
0.0067291322
0.0031372375
-0.00020659713
-0.0034026158
-0.00642163
-0.0091364285
-0.011161303
-0.0039762851
0.0050765152
0.011667485
0.0063678965
0.0029568186
-0.00035145297
-0.0035794248
-0.0067268522
-0.0098285291
-0.013103486
-0.0049436476
0.0049077654
0.011234419
0.006057704
0.0027175543
-0.00057257286
-0.0038324567
-0.0070726957
-0.010341952
-0.013758521
-0.005174668
0.0048356914
0.010996057
0.0058016194
0.0024702725
-0.00082014091
-0.0041013321
-0.0073851557
-0.010703282
-0.014106967
-0.0052792144
0.0047874862
0.010814736
0.0055711579
0.0022240256
-0.0010730681
-0.0043636816
-0.0076588124
-0.010974109
-0.01432694
-0.0053382691
0.0047391209
0.010630081
0.0053329315
0.0019697773
-0.0013285272
-0.0046175208
-0.0079076889
-0.011202349
-0.014498236
-0.0053818854
0.0046696135
0.010384895
0.0050492506
0.0016928007
-0.0015892568
-0.0048660991
-0.0081473673
-0.011424229
-0.014670322
-0.0054270953
0.0045356394
0.0099790153
0.004674628
0.0013836606
-0.0018510605
-0.0051060757
-0.0083866671
-0.011671676
-0.014899273
-0.0054958915
0.0042082131
0.0091793713
0.0041744976
0.0010606434
-0.0020883238
-0.0053162186
-0.0086166942
-0.011971276
-0.01529504
-0.0056438406
0.0032408506
0.0073817969
0.0036711474
0.00081524188
-0.0022423302
-0.0054494579
-0.0087877034
-0.012296394
-0.016131507
-0.0060535364
0.0060080132
0.0134168
0.0068620703
0.0031457089
-0.00031509346
-0.0036239094
-0.0067502971
-0.0095622005
-0.011659441
-0.0041514272
0.0052191317
0.01197259
0.0064897066
0.0029595307
-0.00046488743
-0.0038070377
-0.007066673
-0.010279843
-0.013673748
-0.0051547629
0.0050452066
0.01152626
0.0061698677
0.0027124704
-0.00069358221
-0.0040690551
-0.0074250107
-0.010811858
-0.014352085
-0.0053938786
0.0049708892
0.011280388
0.0059054903
0.0024568852
-0.00094975601
-0.0043475185
-0.0077487591
-0.011186256
-0.014712986
-0.0055021172
0.0049210878
0.011093021
0.0056672223
0.0022021121
-0.0012116424
-0.0046193422
-0.0080324202
-0.01146702
-0.014940987
-0.0055633111
0.0048710265
0.010901899
0.0054206217
0.001938825
-0.0014763341
-0.0048825279
-0.0082906164
-0.01170391
-0.015118807
-0.0056085879
0.0047990023
0.010647875
0.0051267414
0.001651825
-0.0017466518
-0.0051404685
-0.0085395751
-0.011934613
-0.01529788
-0.0056556538
0.0046601092
0.010227185
0.0047385357
0.0013314156
-0.0020181914
-0.0053896828
-0.0087884945
-0.012192441
-0.015536759
-0.0057274816
0.004320574
0.0093982181
0.0042203286
0.00099666284
-0.0022643059
-0.0056080617
-0.0090281067
-0.012505201
-0.015950484
-0.0058822167
0.0033172383
0.0075345411
0.0036992972
0.00074251404
-0.002424012
-0.0057465758
-0.0092064473
-0.012845045
-0.016825731
-0.0063109795
0.0061354639
0.013677359
0.0069486724
0.0031323213
-0.00042248433
-0.0038219592
-0.0070346147
-0.0099244502
-0.012079527
-0.0042986861
0.0053271013
0.01219788
0.0065676323
0.0029416156
-0.00057622132
-0.0040101861
-0.007360031
-0.010662836
-0.014152484
-0.0053312838
0.0051491445
0.011741225
0.0062402615
0.0026883969
-0.0008109707
-0.0042794428
-0.0077284706
-0.011209888
-0.014849589
-0.0055768959
0.0050730745
0.011489469
0.0059693429
0.002426205
-0.0010740464
-0.004565639
-0.0080613475
-0.011594854
-0.015220535
-0.0056881038
0.0050220074
0.011297301
0.005724851
0.0021645994
-0.0013431492
-0.0048451261
-0.008353122
-0.011883682
-0.015455041
-0.0057510283
0.0049705832
0.011100983
0.0054715179
0.0018940266
-0.001615311
-0.0051159055
-0.0086189175
-0.012127643
-0.015638199
-0.0057976637
0.0048965228
0.010839817
0.0051693981
0.0015989161
-0.0018934156
-0.0053814903
-0.0088754985
-0.012365634
-0.015823067
-0.0058462721
0.004753639
0.010407127
0.0047702014
0.0012693751
-0.002172881
-0.0056382819
-0.0091323803
-0.012632127
-0.016070286
-0.0059206536
0.0044042654
0.0095543794
0.0042373805
0.0009251219
-0.0024262049
-0.0058634419
-0.0093799826
-0.012955966
-0.016499216
-0.0060811456
0.0033716677
0.0076370647
0.0037021506
0.00066392324
-0.0025905449
-0.0060063075
-0.0095644675
-0.013308276
-0.017407422
-0.0065261242
0.0062228523
0.013848411
0.0069894503
0.0030979865
-0.00052752591
-0.0039952494
-0.0072728579
-0.010221316
-0.012419663
-0.0044174337
0.0054002513
0.012343262
0.0066022132
0.0029039991
-0.00068419815
-0.0041873375
-0.0076051716
-0.010975579
-0.014537603
-0.005472485
0.0052194195
0.011879254
0.006269447
0.0026462785
-0.00092346254
-0.0044620637
-0.0079812878
-0.011534063
-0.015248883
-0.0057229753
0.0051420933
0.011623259
0.005993759
0.0023791974
-0.0011917139
-0.0047541119
-0.0083211035
-0.011927063
-0.01562743
-0.0058364202
0.0050900945
0.011427546
0.0057446453
0.0021124752
-0.0014662663
-0.0050394259
-0.0086190726
-0.012222055
-0.015866899
-0.0059006612
0.0050376451
0.011227322
0.0054862432
0.0018363936
-0.0017441102
-0.0053160192
-0.0088907198
-0.012471482
-0.016054189
-0.0059483483
0.0049620358
0.010960732
0.0051778709
0.001535113
-0.0020281736
-0.0055875023
-0.0091532361
-0.012715195
-0.016243637
-0.0059981793
0.0048161027
0.010518892
0.0047703113
0.0011986089
-0.0023137265
-0.0058501827
-0.009416391
-0.012988601
-0.016497568
-0.0060746253
0.0044591939
0.0096479843
0.0042263866
0.00084712154
-0.0025725931
-0.0060806428
-0.0096703549
-0.013321389
-0.016938883
-0.0062398183
0.0034041426
0.0076896719
0.0036804838
0.00058059263
-0.0027404853
-0.0062269199
-0.0098597704
-0.013683847
-0.017874071
-0.0066980843
0.006270169
0.013930229
0.0069851026
0.0030436225
-0.00062912781
-0.0041425595
-0.0074637207
-0.010451453
-0.012678529
-0.0045072407
0.005438613
0.012409079
0.0065941598
0.0028476051
-0.00078772125
-0.0043372624
-0.0078007724
-0.011216688
-0.014827677
-0.0055778832
0.0052560685
0.011940703
0.0062581434
0.0025870476
-0.0010299515
-0.004615676
-0.0081821225
-0.011782977
-0.015548511
-0.0058316244
0.0051779845
0.01168212
0.0059794664
0.0023168047
-0.0013016409
-0.0049116821
-0.0085266708
-0.012181457
-0.015932201
-0.0059465696
0.0051253902
0.011484128
0.005727343
0.0020466932
-0.0015798635
-0.0052009722
-0.0088289003
-0.012480697
-0.016175077
-0.0060117098
0.0050722555
0.011281296
0.0054655467
0.0017668927
-0.0018615874
-0.0054815847
-0.0091046357
-0.012733972
-0.016365283
-0.0060601387
0.0049955884
0.011011012
0.0051529233
0.001461397
-0.0021497661
-0.0057572036
-0.0093713822
-0.012981823
-0.016558077
-0.0061108683
0.0048475544
0.010562894
0.0047396483
0.001120115
-0.0024395523
-0.0060240666
-0.0096391001
-0.013260363
-0.01681707
-0.0061888811
0.0044854314
0.009679488
0.0041881541
0.00076367662
-0.0027022802
-0.0062583292
-0.0098977741
-0.013599934
-0.017267894
-0.0063576991
0.0034147889
0.0076929124
0.0036351245
0.00049354852
-0.0028726339
-0.006407067
-0.010090888
-0.01397018
-0.018223972
-0.0068262663
0.0062776415
0.013923591
0.0069365321
0.0029701795
-0.00072632193
-0.0042629314
-0.0076062833
-0.010614008
-0.012855365
-0.0045678712
0.0054424213
0.012396116
0.0065443713
0.002773382
-0.0008858226
-0.0044590016
-0.0079459111
-0.011385305
-0.015021926
-0.0056472317
0.0052593251
0.011926354
0.0062072454
0.0025116503
-0.0011294697
-0.0047393193
-0.0083300503
-0.011955766
-0.01574769
-0.0059025974
0.0051809807
0.011666829
0.0059273575
0.0022399723
-0.001402859
-0.0050373872
-0.0086771226
-0.012357173
-0.016134064
-0.0060183061
0.0051281268
0.011467825
0.0056738357
0.0019681992
-0.0016829705
-0.0053288001
-0.0089816751
-0.012658741
-0.01637879
-0.0060839279
0.0050746469
0.011263682
0.0054103211
0.0016864715
-0.0019667697
-0.005611633
-0.0092597303
-0.012914237
-0.01657069
-0.0061327877
0.0049974134
0.010991437
0.00509545
0.0013787185
-0.0022572163
-0.0058896199
-0.0095289948
-0.013164635
-0.016765593
-0.0061840897
0.0048482284
0.010539915
0.0046791096
0.0010348466
-0.0025493774
-0.0061589526
-0.0097995554
-0.013446518
-0.017027979
-0.0062631667
0.0044832154
0.0096496792
0.0041235827
0.00067574295
-0.0028142809
-0.0063955133
-0.010061276
-0.013790684
-0.017485405
-0.0064345204
0.0034038549
0.0076475898
0.003566971
0.00040374732
-0.0029860034
-0.0065457561
-0.010256844
-0.01416633
-0.018456201
-0.0069103641
0.0062457318
0.013829775
0.0068448563
0.0028786576
-0.00081823871
-0.0043556427
-0.0076999869
-0.010708596
-0.012949952
-0.0045992779
0.0054121123
0.012305602
0.0064539461
0.0026823204
-0.00097763897
-0.0045518392
-0.0080400393
-0.011481067
-0.015120191
-0.0056805143
0.0052296169
0.01183741
0.0061178338
0.0024210654
-0.0012211635
-0.0048322876
-0.0084245354
-0.012052087
-0.015846294
-0.0059358892
0.0051515054
0.01157858
0.0058384998
0.0021496674
-0.0014945244
-0.0051305313
-0.0087719346
-0.012453878
-0.016232905
-0.0060516291
0.0050987254
0.011379818
0.0055851807
0.0018779505
-0.0017747531
-0.0054222223
-0.0090768813
-0.012755866
-0.01647793
-0.0061173168
0.0050452386
0.011175655
0.0053216143
0.0015960778
-0.0020588312
-0.0057054842
-0.0093554936
-0.013011963
-0.016670308
-0.0061662976
0.0049679277
0.010903173
0.0050064886
0.0012880158
-0.0023497059
-0.0059840767
-0.0096255673
-0.013263316
-0.01686608
-0.0062178456
0.004818537
0.010451107
0.0045897191
0.00094373191
-0.0026423903
-0.0062541701
-0.009897251
-0.013546747
-0.017130185
-0.0062974822
0.0044529472
0.0095596817
0.0040336774
0.0005842372
-0.0029077904
-0.0064915267
-0.010160351
-0.013893312
-0.017591291
-0.0064702764
0.0033717108
0.0075547649
0.0034770052
0.00031209579
-0.0030797933
-0.00664232
-0.010357128
-0.014271959
-0.018570597
-0.0069503529
0.0061751311
0.013650556
0.006711412
0.0027701205
-0.00090408817
-0.0044201844
-0.0077446091
-0.010735276
-0.01296259
-0.0046015964
0.0053483197
0.012139202
0.0063241872
0.0025754671
-0.0010623927
-0.0046152805
-0.0080829585
-0.011504085
-0.015122921
-0.0056779392
0.0051675619
0.011675494
0.005991181
0.0023163175
-0.0013042741
-0.0048941063
-0.0084654066
-0.012072093
-0.015844823
-0.0059317281
0.0050901698
0.011418971
0.0057141421
0.002046893
-0.001575899
-0.0051906612
-0.0088109596
-0.012471756
-0.016229255
-0.0060467759
0.005037793
0.011221691
0.005462607
0.0017769294
-0.0018544931
-0.0054808055
-0.0091143919
-0.012772272
-0.016473045
-0.0061121185
0.0049846334
0.011018785
0.0052006358
0.001496674
-0.0021370728
-0.0057627227
-0.0093918158
-0.013027364
-0.016664695
-0.0061609132
0.0049077288
0.010747769
0.0048872263
0.0011902303
-0.0024265546
-0.0060401747
-0.0096610035
-0.013278093
-0.016860103
-0.0062123827
0.0047590671
0.010297988
0.0044726347
0.00084768869
-0.002717929
-0.0063093343
-0.0099321018
-0.013561285
-0.017124261
-0.0062920755
0.0043951891
0.0094109515
0.0039195557
0.00049005208
-0.002982163
-0.006545996
-0.010194925
-0.013908061
-0.017586128
-0.0064652157
0.0033188464
0.0074157541
0.0033663006
0.00021946641
-0.003153369
-0.0066963922
-0.010391668
-0.01428731
-0.018567737
-0.0069464811
0.0060667543
0.013388194
0.0065377575
0.0026457049
-0.0009831439
-0.0044562407
-0.0077402422
-0.010694527
-0.01289408
-0.0045751389
0.005251869
0.011899007
0.0061566047
0.0024539347
-0.0011393758
-0.004649031
-0.0080747968
-0.011454922
-0.015031143
-0.0056399308
0.0050739633
0.011442641
0.0058287545
0.0021984875
-0.0013781213
-0.0049245119
-0.0084528338
-0.012016409
-0.015744389
-0.0058905686
0.0049977671
0.011190004
0.0055557177
0.0019326985
-0.001646333
-0.0052175455
-0.0087944049
-0.012411472
-0.016124267
-0.0060042142
0.0049461165
0.010995423
0.0053075183
0.0016661551
-0.001921571
-0.005504349
-0.0090944459
-0.012708658
-0.016365316
-0.0060688077
0.0048936125
0.010795027
0.0050487605
0.0013892488
-0.0022009047
-0.0057831766
-0.0093689625
-0.012961164
-0.016555048