/*--------------------------------*- C++ -*----------------------------------*\
| =========                 |                                                 |
| \\      /  F ield         | OpenFOAM: The Open Source CFD Toolbox           |
|  \\    /   O peration     | Version:  v2106                                 |
|   \\  /    A nd           | Website:  www.openfoam.com                      |
|    \\/     M anipulation  |                                                 |
\*---------------------------------------------------------------------------*/
FoamFile
{
    version     2.0;
    format      ascii;
    arch        "LSB;label=32;scalar=64";
    class       volScalarField;
    location    "70";
    object      gradTy;
}
// * * * * * * * * * * * * * * * * * * * * * * * * * * * * * * * * * * * * * //

dimensions      [0 -1 0 1 0 0 0];

internalField   nonuniform List<scalar> 
4000
(
-0.00031749949
-0.00020453388
-0.00020319979
-0.00020131119
-0.00020068795
-0.00020082482
-0.00020158953
-0.00020277828
-0.00020160566
-0.00018392525
-0.0004947948
-0.00032334525
-0.00031584239
-0.00031016921
-0.00030830589
-0.00030887573
-0.00031164939
-0.00031702339
-0.00032292528
-0.00031030533
-4.2916074e-05
-3.8082044e-05
-2.974004e-05
-2.5302413e-05
-2.3905228e-05
-2.4717635e-05
-2.7633527e-05
-3.3366842e-05
-4.3906661e-05
-6.0508893e-05
-3.0871246e-05
-2.7103489e-05
-2.3334741e-05
-2.1268671e-05
-2.0839019e-05
-2.1774733e-05
-2.3955039e-05
-2.7338385e-05
-3.1619524e-05
-3.5356744e-05
3.0806782e-06
3.8102343e-06
4.3741673e-06
4.3950089e-06
3.8681029e-06
2.9017059e-06
1.5702255e-06
-4.8053355e-08
-1.7335765e-06
-2.9164446e-06
3.5188968e-05
3.3836592e-05
3.1845461e-05
3.0108293e-05
2.8729446e-05
2.7810412e-05
2.7386648e-05
2.7471864e-05
2.7970665e-05
2.8525243e-05
6.9311589e-05
6.6381403e-05
6.1163925e-05
5.7732194e-05
5.5600278e-05
5.4782435e-05
5.5261733e-05
5.7056333e-05
5.9898062e-05
6.2554076e-05
0.00010759246
0.00010756827
9.6316565e-05
9.1295127e-05
8.8652086e-05
8.799133e-05
8.9236106e-05
9.2627664e-05
9.8234232e-05
0.00010430246
0.0001366722
0.00016495174
0.00014339026
0.0001378097
0.0001353719
0.0001349413
0.00013642527
0.00014043905
0.00014810008
0.00015887661
4.8522521e-05
6.6202924e-05
5.6935823e-05
5.5134777e-05
5.4444341e-05
5.4346193e-05
5.4814055e-05
5.6116875e-05
5.8859548e-05
6.3301227e-05
-0.002493914
-0.0017228606
-0.0016773564
-0.0016582822
-0.0016524035
-0.0016538441
-0.0016615554
-0.0016740156
-0.0016610818
-0.001410099
-0.0040917534
-0.002866917
-0.0027453243
-0.0026900205
-0.0026724813
-0.0026783282
-0.002705889
-0.0027600838
-0.0028169485
-0.0025548036
-0.00058177475
-0.00048490706
-0.00040487818
-0.00036308725
-0.00034999811
-0.00035814041
-0.00038675599
-0.00044331902
-0.00054886501
-0.00069152696
-0.00029100507
-0.00025357577
-0.00021816206
-0.0001986957
-0.00019481844
-0.00020408228
-0.00022539984
-0.00025851671
-0.00030145416
-0.00033993644
3.2985087e-05
3.9642258e-05
4.4677338e-05
4.4589103e-05
3.9290755e-05
2.979278e-05
1.6801561e-05
1.0899774e-06
-1.5275037e-05
-2.6780776e-05
0.00034019097
0.00032646319
0.00030678334
0.00028970531
0.00027620194
0.00026721611
0.00026310369
0.00026402449
0.00026907987
0.00027475677
0.00067027594
0.00064001869
0.00058852038
0.00055484008
0.00053408596
0.00052613728
0.00053089433
0.00054864827
0.00057699279
0.0006039708
0.0010529235
0.0010536339
0.00094186401
0.0008915249
0.0008658097
0.0008594483
0.00087178587
0.00090554676
0.00096241372
0.0010268448
0.0013980671
0.0017939419
0.0016033472
0.001545734
0.0015219275
0.0015178632
0.0015326598
0.0015731857
0.0016539578
0.0017821847
0.00051221756
0.00076320034
0.00068698082
0.00066809238
0.00066132596
0.00066042189
0.00066511056
0.00067840723
0.00070806459
0.00076389182
-0.0037755731
-0.002635205
-0.002553858
-0.0025213965
-0.0025117514
-0.0025153167
-0.0025321494
-0.0025670349
-0.002588841
-0.0021748007
-0.0062778989
-0.0044453263
-0.0042329589
-0.0041392298
-0.0041106789
-0.0041240253
-0.0041799353
-0.0042994247
-0.0044758944
-0.0040467614
-0.00099479412
-0.00082408136
-0.00068869763
-0.00061844868
-0.00059784501
-0.00061508323
-0.0006699799
-0.00077721264
-0.00097703612
-0.0012214837
-0.00047128261
-0.00040812267
-0.00034900257
-0.00031727006
-0.00031268366
-0.00033148146
-0.00037226799
-0.00043499507
-0.00051664094
-0.00058801779
8.0147998e-05
8.9267607e-05
9.535248e-05
9.2633051e-05
8.1141081e-05
6.2508363e-05
3.7839982e-05
8.4881448e-06
-2.1815934e-05
-4.2805276e-05
0.0006106457
0.00058004871
0.00054138925
0.00050791384
0.00048180492
0.00046461273
0.00045700085
0.000459447
0.00047047353
0.00048305581
0.0012001978
0.0011226206
0.0010247985
0.0009604912
0.00092128486
0.00090647098
0.00091611914
0.00095167446
0.0010102556
0.0010695878
0.0019698473
0.0018848098
0.0016738882
0.0015777536
0.0015295152
0.0015180977
0.0015429879
0.0016122341
0.0017373052
0.0019023443
0.0031039132
0.0036922645
0.0033565764
0.0032479935
0.0032035537
0.0031967
0.0032271625
0.0033146134
0.0035172727
0.0039882364
0.0012631958
0.0016772362
0.0015492845
0.0015142712
0.0015017
0.0015002783
0.0015100882
0.0015398331
0.0016201142
0.0018538089
-0.0047329526
-0.0032983316
-0.0031953849
-0.0031540448
-0.0031423234
-0.0031487943
-0.0031754111
-0.0032343979
-0.0032983497
-0.0027348049
-0.0078221996
-0.0055158481
-0.0052464148
-0.0051270876
-0.0050929691
-0.0051164921
-0.0052027893
-0.0053911399
-0.0056993989
-0.0051163135
-0.0011748013
-0.00095837126
-0.00078604084
-0.0006973173
-0.00067435819
-0.00070344891
-0.00078641254
-0.0009458483
-0.0012413729
-0.001579012
-0.00054382635
-0.00046423403
-0.00039038069
-0.00035255137
-0.00035097439
-0.00038142709
-0.00044289931
-0.00053591417
-0.00065662085
-0.00075929381
0.00015130709
0.00015918288
0.00016190256
0.00015305128
0.00013302685
0.00010385574
6.6775128e-05
2.356761e-05
-2.0499671e-05
-5.0424825e-05
0.00083511728
0.0007854857
0.00072529709
0.00067343135
0.00063337218
0.00060717963
0.0005957767
0.00060001534
0.0006178463
0.00063829708
0.0016121613
0.0014837559
0.0013375135
0.0012413565
0.0011830265
0.0011610684
0.0011758622
0.001230443
0.0013219658
0.0014171544
0.0026812293
0.0024968215
0.0021846197
0.0020418612
0.0019708982
0.0019545864
0.0019929678
0.00210069
0.0023019273
0.0025851064
0.0045667134
0.005316103
0.0048415398
0.0046829393
0.0046181602
0.0046089468
0.0046564419
0.0047956582
0.0051408583
0.0060810738
0.0019370873
0.002500632
0.0023258108
0.0022755393
0.0022573622
0.0022555892
0.0022709961
0.0023190483
0.0024597821
0.0029458586
-0.0054882737
-0.0037932753
-0.0036774569
-0.0036306037
-0.0036182509
-0.0036283828
-0.0036654533
-0.0037498707
-0.0038610492
-0.0031713956
-0.0089314527
-0.0062152275
-0.0059108803
-0.0057760058
-0.00574113
-0.0057774337
-0.005896118
-0.0061562048
-0.0066047671
-0.0059022947
-0.0011498532
-0.00090584575
-0.00071063144
-0.000611957
-0.00059148395
-0.00063523834
-0.00074812972
-0.00096125051
-0.0013538305
-0.0017839385
-0.00051463188
-0.0004258228
-0.00034488164
-0.00030667528
-0.0003118678
-0.00035635314
-0.00044005654
-0.00056439357
-0.00072487805
-0.0008586523
0.00024291686
0.00024624822
0.00024148897
0.00022296689
0.00019181113
0.00015031931
9.9632859e-05
4.1808011e-05
-1.6454405e-05
-5.5361635e-05
0.0010079774
0.00093717372
0.00085298944
0.00078052795
0.00072480071
0.00068834969
0.00067227282
0.00067774618
0.00070209954
0.00073031688
0.0019001276
0.0017178958
0.0015213566
0.0013918837
0.0013133162
0.0012833724
0.0013027127
0.0013759823
0.0015003077
0.0016310559
0.0031868997
0.0028935059
0.0024782507
0.0022878051
0.0021934292
0.0021717178
0.0022232559
0.0023693129
0.0026465011
0.0030468457
0.0057367684
0.0066044809
0.0059906784
0.0057817929
0.0056964197
0.0056846232
0.0057489904
0.0059396968
0.0064265232
0.0078528146
0.0024991711
0.0031888247
0.002967486
0.002902086
0.0028783031
0.0028761478
0.0028971147
0.0029633133
0.0031640111
0.0039141742
-0.0060792536
-0.0041514196
-0.0040285105
-0.0039785542
-0.0039666877
-0.0039810724
-0.0040290583
-0.0041397968
-0.0043022444
-0.0035123977
-0.0096920094
-0.0066158948
-0.0062917265
-0.006148738
-0.0061169343
-0.0061681402
-0.0063206683
-0.0066543208
-0.0072494519
-0.0064675781
-0.00096292332
-0.00070362533
-0.00049576653
-0.0003938185
-0.00037987843
-0.00044074112
-0.00058511583
-0.00085294909
-0.0013431799
-0.0018671684
-0.0004030309
-0.00031029672
-0.00022823867
-0.00019440861
-0.00020969495
-0.00027044434
-0.00037789972
-0.00053462035
-0.00073565539
-0.00090103017
0.00034579171
0.00034201448
0.00032638952
0.00029509187
0.00025035379
0.00019469677
0.00012899508
5.544408e-05
-1.7878124e-05
-6.6270297e-05
0.0011248774
0.0010313215
0.00092114339
0.00082608415
0.00075293863
0.00070472546
0.00068261156
0.0006880003
0.00071760419
0.00075264455
0.0020638038
0.0018257173
0.0015776232
0.0014135093
0.0013134472
0.0012742566
0.0012967221
0.0013868959
0.0015417325
0.0017056687
0.0034938358
0.0030840566
0.0025650522
0.0023259926
0.0022072965
0.0021791193
0.0022422892
0.0024241298
0.0027726686
0.0032829586
0.0066219246
0.0075630233
0.0068086673
0.0065488039
0.0064422575
0.0064270895
0.0065069017
0.0067458623
0.0073657306
0.0092610238
0.0029506958
0.0037405424
0.0034719449
0.0033912167
0.0033616951
0.0033589553
0.0033850553
0.0034682461
0.0037252487
0.0047317749
-0.0065280274
-0.0043937334
-0.0042681207
-0.0042168918
-0.004206369
-0.0042254318
-0.0042845676
-0.0044219992
-0.0046383924
-0.0037724894
-0.010161862
-0.0067720018
-0.006439461
-0.0062940519
-0.006268297
-0.0063359838
-0.0065231699
-0.0069309567
-0.0076759215
-0.0068513361
-0.00065283698
-0.00038757465
-0.00017488708
-7.4875579e-05
-7.0693707e-05
-0.00015058949
-0.00032751284
-0.00065039354
-0.0012376451
-0.0018562204
-0.00023030251
-0.00013767497
-5.9138529e-05
-3.3481601e-05
-6.1600068e-05
-0.00014049224
-0.0002729657
-0.00046288752
-0.00070495164
-0.00090237911
0.00045003603
0.00043722615
0.00040810414
0.00036151224
0.00030109349
0.00022958095
0.00014746292
5.6979727e-05
-3.2418581e-05
-9.0973919e-05
0.001184248
0.0010669502
0.00092937506
0.0008101311
0.00071800943
0.00065650054
0.00062673481
0.00063024802
0.00066321501
0.00070362357
0.0021092692
0.001814418
0.0015142963
0.001314614
0.001191901
0.0011420127
0.0011656485
0.0012699846
0.0014517089
0.0016452776
0.0036167507
0.0030860135
0.0024639991
0.0021758812
0.0020320132
0.0019959997
0.0020684934
0.0022820601
0.0026949628
0.0033053389
0.0072431498
0.0082174146
0.0073227704
0.0070115877
0.0068832788
0.006863634
0.0069566544
0.0072389271
0.0079799331
0.010316099
0.0032991617
0.0041650647
0.0038488853
0.0037526812
0.003717267
0.0037136443
0.003744206
0.0038426901
0.0041511234
0.0054001342
-0.0068517344
-0.0045369851
-0.0044122377
-0.0043612
-0.0043526824
-0.0043766972
-0.0044469985
-0.0046109903
-0.00488266
-0.0039622308
-0.01038707
-0.0067278253
-0.0063961744
-0.0062528796
-0.0062354715
-0.0063206972
-0.0065426963
-0.0070238983
-0.0079189188
-0.0070831577
-0.00025254942
1.1128231e-05
0.00022239638
0.00031634827
0.0003082719
0.00020797243
-1.9843019e-06
-0.00037942046
-0.0010616465
-0.0017739409
-1.5706017e-05
7.362686e-05
0.00014499689
0.00015950241
0.00011640994
1.7942194e-05
-0.00014041937
-0.00036392969
-0.00064697741
-0.00087649467
0.00054727276
0.00052402701
0.00047945515
0.00041565117
0.00033789494
0.00024912931
0.00014938123
4.0884337e-05
-6.5509943e-05
-0.00013485796
0.0011871944
0.0010457203
0.0008799695
0.00073546406
0.0006231402
0.00054695037
0.00050789936
0.00050758705
0.00054179166
0.00058591607
0.00204687
0.0016954303
0.0013436688
0.0011080374
0.00096179696
0.00089979245
0.00092243364
0.0010377429
0.0012421242
0.0014612606
0.0035755288
0.0029220366
0.0021993064
0.0018623744
0.0016927483
0.0016474832
0.0017266406
0.0019671737
0.0024364228
0.0031359718
0.007627147
0.0086002862
0.0075678877
0.0072057658
0.0070553227
0.0070300235
0.0071336517
0.0074535413
0.0083024497
0.011046791
0.003554128
0.0044745572
0.0041113021
0.0039996943
0.0039582906
0.0039534623
0.0039877069
0.0040995532
0.0044540728
0.0059291141
-0.0070651282
-0.004595575
-0.0044746538
-0.0044250059
-0.0044190002
-0.0044481058
-0.0045293839
-0.004719337
-0.0050463865
-0.0040903736
-0.010406785
-0.0065210733
-0.006197977
-0.006060477
-0.0060531608
-0.0061565047
-0.0064128363
-0.0069655135
-0.0080079979
-0.0071874419
0.00021017718
0.00046603079
0.00067077349
0.00075538633
0.00073317994
0.00061164679
0.0003687752
-6.1870276e-05
-0.00083562558
-0.0016391041
0.00022451084
0.00030799118
0.00036932703
0.00037039764
0.00031075473
0.00019175766
7.1061237e-06
-0.00024985412
-0.00057321764
-0.00083432817
0.00063129675
0.00059664693
0.00053526898
0.00045290739
0.00035662901
0.0002495857
0.00013130185
3.9864688e-06
-0.00012006705
-0.0002006621
0.0011369926
0.00097141703
0.00077731705
0.00060701227
0.00047366845
0.00038168513
0.00033187484
0.00032586257
0.00035920478
0.00040539721
0.001889332
0.0014824852
0.0010803233
0.00080896809
0.00063871151
0.00056336886
0.00058288895
0.00070589783
0.00092855724
0.0011690805
0.0033922455
0.0026167417
0.0017970839
0.0014123409
0.0012167602
0.001160972
0.0012440901
0.0015066403
0.0020239382
0.0028014455
0.0078021949
0.00874564
0.0075802664
0.0071684062
0.0069957924
0.0069637576
0.007075327
0.0074269403
0.0083701322
0.011487562
0.003725563
0.0046815758
0.0042726003
0.0041459235
0.0040985266
0.0040921935
0.0041293216
0.0042525423
0.0046476598
0.0063308288
-0.0071813853
-0.0045822037
-0.0044675539
-0.0044202787
-0.0044171619
-0.004451377
-0.0045432594
-0.0047581615
-0.0051396117
-0.0041645551
-0.010255162
-0.0061844145
-0.005876207
-0.0057474865
-0.0057515371
-0.0058731459
-0.0061627451
-0.0067838585
-0.0079687304
-0.0071850168
0.00071197606
0.00095486362
0.0011489041
0.0012215985
0.0011839433
0.0010408545
0.00076576869
0.00028406904
-0.00057649788
-0.0014671074
0.00047707237
0.00055266035
0.00060174231
0.0005876996
0.00051045598
0.00037045473
0.00015960092
-0.00013011932
-0.00049249963
-0.00078417141
0.00069799491
0.00065134742
0.00057233548
0.00047060339
0.00035509062
0.00022915522
9.1803982e-05
-5.4774591e-05
-0.00019681284
-0.00028887843
0.0010384858
0.00084933962
0.00062727772
0.000431165
0.00027642267
0.00016787836
0.00010610718
9.2743022e-05
0.00012330395
0.00017003246
0.0016504673
0.0011902906
0.00073975476
0.00043350515
0.00023918071
0.00014957533
0.00016404537
0.00029161794
0.00052828747
0.00078610616
0.0030893402
0.0021948117
0.001283355
0.00085254508
0.0006312544
0.00056392827
0.00064845118
0.00092817036
0.0014853257
0.0023296456
0.0077961683
0.008686578
0.0073950101
0.0069354016
0.006740958
0.0067012977
0.0068182474
0.007195786
0.0082197226
0.011673749
0.0038231946
0.0047982512
0.0043456703
0.0042045116
0.0041512225
0.0041431345
0.0041823748
0.0043150137
0.0047452548
0.0066176978
-0.0072124329
-0.004508187
-0.0044017917
-0.0043576845
-0.0043577207
-0.004396958
-0.0044989105
-0.0047373927
-0.0051713275
-0.0041915684
-0.009962306
-0.0057463442
-0.0054581816
-0.0053406217
-0.0053569017
-0.0054965348
-0.0058178173
-0.006503373
-0.0078234168
-0.0070939115
0.001233209
0.0014589628
0.0016389315
0.0016977379
0.0016438092
0.0014793094
0.0011732464
0.00064337446
-0.00029818217
-0.0012705597
0.00073132416
0.0007974306
0.00083260411
0.00080230831
0.00070689932
0.0005458778
0.00030938693
-1.1871258e-05
-0.00041137884
-0.00073208947
0.00074500721
0.00068609693
0.00058909409
0.00046766842
0.0003326636
0.00018763834
3.1086051e-05
-0.00013480895
-0.00029479324
-0.00039830776
0.00089752647
0.00068574182
0.00043661083
0.00021517909
3.9098442e-05
-8.639846e-05
-0.00016100108
-0.00018306843
-0.00015694615
-0.00011104284
0.0013443302
0.00083367818
0.000337492
-2.256786e-06
-0.00022025706
-0.00032470407
-0.00031692703
-0.00018766632
5.8993593e-05
0.0003302111
0.0026886062
0.0016799806
0.00068300673
0.00020855204
-3.7759031e-05
-0.00011732724
-3.3704103e-05
0.00025859338
0.00084772085
0.0017479743
0.0076356374
0.0084543738
0.0070450989
0.0065404397
0.0063248807
0.0062769409
0.0063969063
0.0067948183
0.0078862872
0.011639615
0.0038562557
0.0048360149
0.0043425926
0.0041877632
0.0041287855
0.0041187535
0.0041593877
0.0042995652
0.0047595567
0.0068017835
-0.0071691282
-0.0043836485
-0.0042870696
-0.0042467579
-0.0042501111
-0.0042941902
-0.0044055403
-0.0046659317
-0.0051496341
-0.0041775074
-0.0095548654
-0.0052317776
-0.0049677481
-0.0048631912
-0.0048921964
-0.0050492707
-0.0054002015
-0.0061453966
-0.0075915884
-0.0069298361
0.0017574171
0.0019627531
0.0021260034
0.0021694962
0.0020989129
0.0019135683
0.0015782437
0.0010037112
-1.2085006e-05
-0.0010597684
0.00097882605
0.0010342638
0.0010543778
0.0010071732
0.0008934783
0.00071184704
0.00045072923
9.9643146e-05
-0.00033457557
-0.00068237399
0.00077134496
0.00070019646
0.0005852655
0.00044426857
0.00028993932
0.00012602858
-4.9465381e-05
-0.00023434137
-0.00041187544
-0.00052658023
0.00072052606
0.00048738223
0.00021252097
-3.3286933e-05
-0.00023022809
-0.00037269163
-0.00046064503
-0.00049243441
-0.00047211323
-0.00042820314
0.00098468355
0.00042707123
-0.00011144241
-0.0004827859
-0.00072364631
-0.00084315585
-0.00084338909
-0.0007149948
-0.00046204694
-0.00018107931
0.0022106607
0.00109452
1.9273774e-05
-0.00049580877
-0.00076603103
-0.00085821884
-0.00077749924
-0.0004768767
0.0001367491
0.00108244
0.0073454778
0.0080781142
0.0065610383
0.0060146346
0.0057790212
0.0057223958
0.0058432524
0.0062563113
0.0074025691
0.011417546
0.0038333892
0.0048055159
0.0042745574
0.0041070603
0.0040426917
0.0040305904
0.0040719651
0.0042179022
0.0047024257
0.0068945537
-0.0070613826
-0.0042176619
-0.0041320763
-0.0040960356
-0.0041027807
-0.0041514405
-0.0042713992
-0.0045517783
-0.0050818543
-0.0041278651
-0.0090564689
-0.0046625093
-0.0044257277
-0.0043355299
-0.0043774291
-0.0045510616
-0.0049292231
-0.0057285844
-0.0072903958
-0.006706533
0.0022708634
0.002453303
0.0025978429
0.0026250856
0.0025378642
0.0023326152
0.0019701609
0.0013550103
0.00027248373
-0.00084314098
0.0012129741
0.0012569174
0.0012612727
0.0011969388
0.0010652388
0.00086379551
0.00057946227
0.00020069021
-0.00026536946
-0.00063794106
0.0007770485
0.00069394113
0.00056151675
0.00040147077
0.00022837349
4.6156131e-05
-0.00014765004
-0.00035080581
-0.00054516057
-0.00067057902
0.00051411522
0.00026118749
-3.7678777e-05
-0.00030651578
-0.00052345533
-0.00068253932
-0.00078401628
-0.00082621082
-0.0008127521
-0.00077180528
0.00058467039
-1.5836289e-05
-0.00059285233
-0.00099344119
-0.0012559576
-0.0013904031
-0.0013996291
-0.0012743114
-0.0010184301
-0.00073108728
0.0016746818
0.00045899921
-0.00068649094
-0.001238678
-0.0015313227
-0.0016361885
-0.0015600585
-0.0012549895
-0.00062387153
0.00035721717
0.006948728
0.0075845977
0.0059707793
0.0053864464
0.005132148
0.0050666732
0.0051865536
0.0056098973
0.0067987602
0.011037741
0.0037626227
0.0047166119
0.0041518646
0.0039728621
0.0039034835
0.0038892498
0.0039307814
0.0040808117
0.0045848405
0.0069067991
-0.0068982596
-0.0040183653
-0.0039445983
-0.0039131665
-0.0039232993
-0.0039762094
-0.0041038916
-0.0044021329
-0.0049746241
-0.0040476091
-0.0084880816
-0.0040575896
-0.0038502834
-0.0037753614
-0.0038300329
-0.0040190823
-0.0044217387
-0.0052692507
-0.006934925
-0.0064360554
0.0027621499
0.002919948
0.0030443781
0.0030548742
0.0029513848
0.002727499
0.002340401
0.00168911
0.00054796465
-0.00062751307
0.0014286765
0.001460625
0.0014489269
0.0013676317
0.001218566
0.00099845257
0.00069266798
0.00028872344
-0.00020592642
-0.00060065618
0.0007629062
0.00066834192
0.00051918529
0.00034096673
0.00015000615
-4.9599765e-05
-0.00026075173
-0.00048115405
-0.00069130113
-0.00082676266
0.00028489959
1.4011169e-05
-0.0003068062
-0.00059697269
-0.00083270424
-0.0010077306
-0.0011225767
-0.0011755372
-0.0011697103
-0.0011325038
0.00015661991
-0.0004822654
-0.0010935485
-0.0015206545
-0.0018032776
-0.0019522088
-0.0019710842
-0.0018507066
-0.0015948893
-0.0013042621
0.0010982968
-0.00020780197
-0.0014148895
-0.0020002383
-0.0023134839
-0.0024307877
-0.0023606175
-0.0020545928
-0.0014124927
-0.00040554074
0.0064665671
0.0069983528
0.0052997623
0.0046817298
0.0044103826
0.0043361212
0.004453416
0.0048825657
0.0061024681
0.010528117
0.0036513749
0.0045783899
0.0039839546
0.003794738
0.0037208014
0.0037044304
0.0037456057
0.0038981818
0.0044169071
0.0068486147
-0.006688054
-0.0037930559
-0.0037316138
-0.0037050046
-0.0037184508
-0.0037752224
-0.0039096657
-0.0042234828
-0.0048339676
-0.0039412433
-0.0078682989
-0.0034336385
-0.0032572302
-0.0031981051
-0.0032651713
-0.0034682762
-0.0038924344
-0.0047816562
-0.0065384569
-0.0061289938
0.0032218971
0.0033539739
0.0034574305
0.0034510769
0.0033320007
0.003091027
0.0026820649
0.001999457
0.00080826458
-0.00041841524
0.0016220856
0.0016418301
0.0016141445
0.0015164003
0.0013509235
0.001113582
0.00078841264
0.00036212042
-0.00015755891
-0.0005715905
0.00073023387
0.00062490713
0.00046006278
0.00026485727
5.7244426e-05
-0.00015853175
-0.00038576416
-0.00062208644
-0.00084673541
-0.00099140093
3.928937e-05
-0.00024753309
-0.00058797379
-0.00089746887
-0.0011504846
-0.0013404775
-0.0014682387
-0.0015320258
-0.0015343257
-0.0015014536
-0.00028806029
-0.00096045077
-0.0016014403
-0.0020520208
-0.0023529019
-0.0025155755
-0.0025444502
-0.0024305405
-0.0021774308
-0.001886324
0.00049755402
-0.00088889882
-0.0021484685
-0.0027626992
-0.00309444
-0.0032236704
-0.0031605271
-0.002856651
-0.0022095705
-0.0011857523
0.005918353
0.0063417121
0.0045710154
0.0039238398
0.0036373045
0.0035545253
0.0036678767
0.0040987418
0.0053387754
0.0099143256
0.003506475
0.0043991993
0.0037794505
0.0035814128
0.0035034294
0.0034849691
0.0035253441
0.0036790402
0.0042078896
0.0067294071
-0.0064383595
-0.003548271
-0.0034993716
-0.0034776871
-0.0034943112
-0.0035545074
-0.0036946895
-0.0040216727
-0.0046653589
-0.0038128579
-0.0072135944
-0.0028051125
-0.0026602976
-0.0026171362
-0.0026959955
-0.0029116117
-0.0033540765
-0.004278248
-0.0061126834
-0.005794661
0.0036424758
0.0037483516
0.0038304521
0.0038074952
0.0036737843
0.0034175088
0.0029896997
0.0022808619
0.001048525
-0.00022028813
0.0017903795
0.0017979699
0.0017546816
0.0016413022
0.0014606423
0.0012077713
0.00086553716
0.00041997535
-0.00012092887
-0.0005512188
0.0006807056
0.00056547525
0.00038623012
0.00017548891
-4.7300762e-05
-0.00027776871
-0.0005195571
-0.00077021952
-0.0010078557
-0.0011607429
-0.00021661563
-0.00051718299
-0.00087469657
-0.0012012676
-0.0014698017
-0.0016735239
-0.0018134776
-0.0018878793
-0.0018985476
-0.0018704337
-0.00073893532
-0.0014396834
-0.0021055716
-0.0025763303
-0.0028933675
-0.0030687811
-0.0031077229
-0.0030014898
-0.0027533876
-0.0024643243
-0.00011305665
-0.0015690608
-0.0028716636
-0.0035102355
-0.0038581297
-0.0039985341
-0.0039431996
-0.0036441988
-0.0029976297
-0.0019653844
0.0053216897
0.005634912
0.0038052767
0.0031337619
0.0028340825
0.0027432386
0.0028515281
0.003280404
0.0045303425
0.0092198179
0.0033341892
0.0041866902
0.0035462041
0.0033408148
0.0032593442
0.00323889
0.0032780868
0.0034315989
0.0039662503
0.0065579158
-0.0061561261
-0.0032898571
-0.0032534594
-0.0032367021
-0.0032563157
-0.0033194601
-0.0034643145
-0.0038019665
-0.0044737737
-0.003666171
-0.0065385305
-0.0021845303
-0.0020713523
-0.0020440063
-0.0021338643
-0.0023602983
-0.0028177233
-0.0037698606
-0.0056678864
-0.0054412459
0.004017783
0.0040975156
0.004158307
0.0041193007
0.0039721397
0.0037025441
0.0032590894
0.0025292974
0.0012649339
-3.6655612e-05
0.0019315858
0.0019273013
0.0018690738
0.001741134
0.0015467521
0.0012802649
0.00092349225
0.00046193778
-9.6203803e-05
-0.0005395708
0.00061622613
0.00049208912
0.00029993417
7.5332517e-05
-0.00016093489
-0.00040439546
-0.00065899573
-0.00092220498
-0.0011711261
-0.0013311338
-0.00047710021
-0.0007890984
-0.0011609592
-0.0015021487
-0.0017842191
-0.0020002095
-0.0021513974
-0.002235957
-0.0022550059
-0.0022319174
-0.0011865575
-0.0019103171
-0.0025961198
-0.0030835638
-0.003414447
-0.0036013733
-0.0036501945
-0.0035525486
-0.0033114255
-0.0030266535
-0.00072055664
-0.0022347454
-0.0035707198
-0.0042289009
-0.0045904159
-0.0047410313
-0.0046940244
-0.0044022622
-0.0037611916
-0.002728388
0.0046925087
0.0048962019
0.0030211235
0.0023302488
0.0020196149
0.00192132
0.0020236545
0.0024472151
0.0036975287
0.0084659357
0.0031402484
0.0039478511
0.0032913421
0.0030801247
0.0029957641
0.0029734529
0.0030111564
0.0031633009
0.0036996921
0.0063422389
-0.0058477094
-0.0030230295
-0.002998862
-0.0029869459
-0.0030093153
-0.0030749012
-0.0032233315
-0.0035690979
-0.0042637337
-0.003504564
-0.0058559387
-0.0015826676
-0.001500589
-0.0014886321
-0.00158853
-0.0018239709
-0.002292905
-0.0032658868
-0.0052130884
-0.0050759397
0.0043430529
0.0043971783
0.0044370884
0.0043828547
0.0042236241
0.0039428469
0.003487084
0.0027417341
0.001454573
0.00012973549
0.0020444402
0.0020287602
0.0019564992
0.0018152959
0.0016088481
0.0013308326
0.00096220965
0.0004880878
-8.3176405e-05
-0.00053634599
0.0005388356
0.00040690265
0.00020349686
-3.3105206e-05
-0.00028096645
-0.00053553792
-0.00080102452
-0.0010748119
-0.0013331631
-0.0014990942
-0.00073687862
-0.0010579029
-0.0014412536
-0.001794443
-0.0020878921
-0.0023145011
-0.0024757617
-0.0025698076
-0.0025970431
-0.002579105
-0.0016224566
-0.0023637517
-0.0030643725
-0.0035648645
-0.0039071173
-0.0041041385
-0.0041624237
-0.0040740004
-0.0038415157
-0.0035630178
-0.0013134156
-0.0028740189
-0.0042335991
-0.0049065299
-0.0052789851
-0.0054386684
-0.0054002665
-0.0051177603
-0.0044866811
-0.0034606124
0.0040451554
0.0041419563
0.0022351025
0.0015299577
0.0012106687
0.0011056754
0.0012013713
0.0016166581
0.0028585192
0.0076720108
0.0029298773
0.0036890471
0.0030213098
0.002805822
0.0027191967
0.0026952013
0.0027311555
0.0028808665
0.0034152013
0.0060898609
-0.0055189132
-0.002752424
-0.0027400121
-0.0027327736
-0.002757627
-0.0028251249
-0.0029760177
-0.003327316
-0.0040393441
-0.0033311104
-0.0051770751
-0.0010087235
-0.00095669403
-0.00095945703
-0.0010682988
-0.001310847
-0.0017877767
-0.0027744215
-0.0047561793
-0.0047050421
0.0046146982
0.0046441739
0.0046639646
0.0045955563
0.004425799
0.004136099
0.0036714566
0.0029160044
0.0016152928
0.00027680255
0.0021282716
0.0021018493
0.0020166669
0.0018636836
0.0016469847
0.0013596663
0.00098200213
0.00049883997
-8.1355515e-05
-0.00054100031
0.00045063956
0.00031211255
9.9249581e-05
-0.0001473448
-0.00040476777
-0.00066842196
-0.00094272407
-0.0012249814
-0.0014907881
-0.0016613707
-0.00099111766
-0.0013187038
-0.0017105956
-0.0020730462
-0.0023755782
-0.0026110024
-0.0027810025
-0.0028836763
-0.002918722
-0.002905931
-0.0020391139
-0.0027924005
-0.0035026884
-0.0040124951
-0.0043635147
-0.0045690545
-0.0046361885
-0.004557371
-0.0043348907
-0.0040643952
-0.0018814805
-0.0034764701
-0.0048498831
-0.0055326338
-0.0059132407
-0.0060806978
-0.0060509603
-0.0057793999
-0.0051623242
-0.0041497077
0.0033924771
0.0033867854
0.0014618564
0.0007475836
0.00042201614
0.00031119426
0.00039976142
0.00080416999
0.0020294536
0.0068554698
0.0027078219
0.0034160556
0.0027419133
0.0025237287
0.0024354834
0.002410007
0.0024440108
0.0025903372
0.0031190884
0.0058076813
-0.0051750271
-0.0024821431
-0.0024808343
-0.0024780423
-0.0025050763
-0.0025739416
-0.0027261781
-0.0030804228
-0.0038043253
-0.0031486012
-0.0045117554
-0.00047046622
-0.0004469873
-0.00046359099
-0.00058016812
-0.00082786266
-0.0013092498
-0.0023023862
-0.0043040238
-0.0043340501
0.0048301749
0.0048363261
0.0048370501
0.0047557156
0.0045771047
0.0042808281
0.0038107857
0.0030506907
0.0017456101
0.00040303558
0.0021829109
0.002146548
0.00204973
0.0018866026
0.0016615926
0.0013672993
0.00098348579
0.00049486968
-9.0034996e-05
-0.0005528109
0.00035375866
0.00020990978
-1.0513017e-05
-0.00026497771
-0.00052981633
-0.00080041236
-0.0010813478
-0.0013698612
-0.0016410595
-0.0018149667
-0.001235444
-0.0015670968
-0.0019645257
-0.0023334158
-0.0026426325
-0.0028849473
-0.003062212
-0.0031724962
-0.0032148159
-0.0032070545
-0.0024299261
-0.0031896479
-0.0039044496
-0.0044197853
-0.0047768792
-0.0049892341
-0.0050644281
-0.0049953706
-0.0047839867
-0.0045229797
-0.0024158998
-0.0040331206
-0.0054106738
-0.0060982963
-0.0064841946
-0.0066580079
-0.0066367985
-0.0063775666
-0.0057780421
-0.0047850234
0.00274591
0.0026436423
0.00071424608
-4.0128441e-06
-0.00033343451
-0.00044911837
-0.00036799285
2.3272514e-05
0.0012245503
0.0060319382
0.0024783768
0.0031341008
0.0024583592
0.0022390512
0.0021498419
0.002123113
0.0021550162
0.0022971177
0.0028170287
0.0055020429
-0.0048208594
-0.0022157959
-0.0022247847
-0.00222615
-0.0022550359
-0.002324715
-0.0024771818
-0.0028318075
-0.0035620415
-0.0029595662
-0.0038684721
2.5639989e-05
2.2454253e-05
-6.9319441e-06
-0.00012994709
-0.00038078951
-0.00086310606
-0.0018556351
-0.0038625538
-0.0039677327
0.0049878674
0.0049723362
0.0049552955
0.0048624461
0.004676756
0.0043763054
0.0039043562
0.0031450322
0.0018446238
0.0005074227
0.0022086165
0.0021632397
0.0020562152
0.0018847003
0.0016534133
0.0013545436
0.00096752039
0.00047705727
-0.00010834528
-0.00057092403
0.00025029362
0.00010244613
-0.00012356395
-0.00038369467
-0.00065372065
-0.00092903643
-0.0012143434
-0.0015068245
-0.0017812895
-0.0019571574
-0.0014659398
-0.0017991587
-0.0021990988
-0.0025715585
-0.0028849917
-0.0031321813
-0.0033151226
-0.0034318665
-0.0034807863
-0.0034778359
-0.0027891615
-0.0035498004
-0.0042640071
-0.0047810735
-0.0051414934
-0.0053588616
-0.0054411786
-0.0053818299
-0.0051823795
-0.0049321173
-0.0029090465
-0.0045363361
-0.0059084942
-0.0065960685
-0.0069843599
-0.0071630145
-0.0071500235
-0.0069042154
-0.0063253435
-0.0053575041
0.0021155643
0.0019239263
3.4667209e-06
-0.00071368316
-0.0010445146
-0.001164016
-0.001090484
-0.00071430338
0.00045622732
0.0052153421
0.002245411
0.0028478864
0.0021752918
0.001956419
0.0018669059
0.0018391738
0.0018688729
0.0020060152
0.0025140991
0.0051787584
-0.0044607662
-0.0019565338
-0.0019748848
-0.0019800691
-0.0020104589
-0.0020803953
-0.0022319938
-0.002584476
-0.0033155246
-0.0027662918
-0.0032544988
0.0004743234
0.0004466884
0.00040572779
0.00027763947
2.5662433e-05
-0.00045409661
-0.001439048
-0.0034368475