/*--------------------------------*- C++ -*----------------------------------*\
| =========                 |                                                 |
| \\      /  F ield         | OpenFOAM: The Open Source CFD Toolbox           |
|  \\    /   O peration     | Version:  v2106                                 |
|   \\  /    A nd           | Website:  www.openfoam.com                      |
|    \\/     M anipulation  |                                                 |
\*---------------------------------------------------------------------------*/
FoamFile
{
    version     2.0;
    format      ascii;
    arch        "LSB;label=32;scalar=64";
    class       volScalarField;
    location    "70";
    object      gradTz;
}
// * * * * * * * * * * * * * * * * * * * * * * * * * * * * * * * * * * * * * //

dimensions      [0 -1 0 1 0 0 0];

internalField   nonuniform List<scalar> 
4000
(
574.7957
574.79226
574.79198
574.79178
574.79173
574.79181
574.79203
574.7924
574.79294
574.7936
574.79226
574.78992
574.7897
574.78952
574.78947
574.78955
574.78976
574.79011
574.79068
574.79164
574.79198
574.7897
574.78952
574.78937
574.78933
574.78941
574.7896
574.78992
574.79042
574.79128
574.79178
574.78952
574.78937
574.78923
574.78919
574.78927
574.78945
574.78975
574.79022
574.79106
574.79173
574.78947
574.78933
574.78919
574.78916
574.78923
574.7894
574.78969
574.79015
574.79098
574.79181
574.78955
574.78941
574.78927
574.78923
574.78929
574.78946
574.78975
574.79021
574.79103
574.79203
574.78976
574.7896
574.78945
574.7894
574.78946
574.78963
574.78992
574.79039
574.79122
574.7924
574.79011
574.78992
574.78975
574.78969
574.78975
574.78992
574.79023
574.79071
574.79156
574.79294
574.79068
574.79042
574.79022
574.79015
574.79021
574.79039
574.79071
574.79123
574.79211
574.7936
574.79164
574.79128
574.79106
574.79098
574.79103
574.79122
574.79156
574.79211
574.79307
1166.4897
1166.4846
1166.484
1166.4836
1166.4835
1166.4837
1166.4841
1166.4848
1166.486
1166.4878
1166.4846
1166.4809
1166.4804
1166.4801
1166.4801
1166.4802
1166.4806
1166.4813
1166.4824
1166.4848
1166.484
1166.4804
1166.48
1166.4798
1166.4797
1166.4799
1166.4802
1166.4808
1166.4818
1166.484
1166.4836
1166.4801
1166.4798
1166.4795
1166.4795
1166.4796
1166.48
1166.4805
1166.4814
1166.4836
1166.4835
1166.4801
1166.4797
1166.4795
1166.4794
1166.4796
1166.4799
1166.4804
1166.4813
1166.4835
1166.4837
1166.4802
1166.4799
1166.4796
1166.4796
1166.4797
1166.48
1166.4805
1166.4814
1166.4836
1166.4841
1166.4806
1166.4802
1166.48
1166.4799
1166.48
1166.4803
1166.4809
1166.4818
1166.4839
1166.4848
1166.4813
1166.4808
1166.4805
1166.4804
1166.4805
1166.4809
1166.4814
1166.4824
1166.4846
1166.486
1166.4824
1166.4818
1166.4814
1166.4813
1166.4814
1166.4818
1166.4824
1166.4834
1166.4857
1166.4878
1166.4848
1166.484
1166.4836
1166.4835
1166.4836
1166.4839
1166.4846
1166.4857
1166.4884
1121.0111
1121.0077
1121.0074
1121.0071
1121.0071
1121.0073
1121.0076
1121.0082
1121.0092
1121.0114
1121.0077
1121.0054
1121.0051
1121.0049
1121.0049
1121.005
1121.0053
1121.0059
1121.0068
1121.0094
1121.0074
1121.0051
1121.0049
1121.0047
1121.0047
1121.0048
1121.0051
1121.0056
1121.0063
1121.0088
1121.0071
1121.0049
1121.0047
1121.0046
1121.0045
1121.0047
1121.0049
1121.0054
1121.0061
1121.0085
1121.0071
1121.0049
1121.0047
1121.0045
1121.0045
1121.0046
1121.0049
1121.0053
1121.006
1121.0084
1121.0073
1121.005
1121.0048
1121.0047
1121.0046
1121.0047
1121.005
1121.0054
1121.0061
1121.0085
1121.0076
1121.0053
1121.0051
1121.0049
1121.0049
1121.005
1121.0052
1121.0056
1121.0063
1121.0087
1121.0082
1121.0059
1121.0056
1121.0054
1121.0053
1121.0054
1121.0056
1121.0061
1121.0068
1121.0093
1121.0092
1121.0068
1121.0063
1121.0061
1121.006
1121.0061
1121.0063
1121.0068
1121.0077
1121.0103
1121.0114
1121.0094
1121.0088
1121.0085
1121.0084
1121.0085
1121.0087
1121.0093
1121.0103
1121.0136
1080.1202
1080.1176
1080.1175
1080.1175
1080.1175
1080.1176
1080.1179
1080.1183
1080.1191
1080.121
1080.1176
1080.1159
1080.1159
1080.1158
1080.1158
1080.116
1080.1162
1080.1166
1080.1172
1080.1195
1080.1175
1080.1159
1080.1159
1080.1158
1080.1159
1080.116
1080.1162
1080.1165
1080.117
1080.1191
1080.1175
1080.1158
1080.1158
1080.1158
1080.1158
1080.1159
1080.1161
1080.1164
1080.1168
1080.1189
1080.1175
1080.1158
1080.1159
1080.1158
1080.1159
1080.116
1080.1161
1080.1164
1080.1168
1080.1188
1080.1176
1080.116
1080.116
1080.1159
1080.116
1080.116
1080.1162
1080.1164
1080.1168
1080.1189
1080.1179
1080.1162
1080.1162
1080.1161
1080.1161
1080.1162
1080.1163
1080.1166
1080.117
1080.1191
1080.1183
1080.1166
1080.1165
1080.1164
1080.1164
1080.1164
1080.1166
1080.1168
1080.1173
1080.1195
1080.1191
1080.1172
1080.117
1080.1168
1080.1168
1080.1168
1080.117
1080.1173
1080.1179
1080.1202
1080.121
1080.1195
1080.1191
1080.1189
1080.1188
1080.1189
1080.1191
1080.1195
1080.1202
1080.1233
1043.0617
1043.0597
1043.0598
1043.0599
1043.0599
1043.0601
1043.0602
1043.0605
1043.061
1043.0626
1043.0597
1043.0584
1043.0586
1043.0586
1043.0587
1043.0588
1043.059
1043.0592
1043.0595
1043.0614
1043.0598
1043.0586
1043.0588
1043.0588
1043.0589
1043.059
1043.0591
1043.0592
1043.0595
1043.0612
1043.0599
1043.0586
1043.0588
1043.0589
1043.059
1043.0591
1043.0592
1043.0592
1043.0594
1043.0611
1043.0599
1043.0587
1043.0589
1043.059
1043.0591
1043.0591
1043.0592
1043.0592
1043.0594
1043.0611
1043.0601
1043.0588
1043.059
1043.0591
1043.0591
1043.0592
1043.0592
1043.0593
1043.0594
1043.0611
1043.0602
1043.059
1043.0591
1043.0592
1043.0592
1043.0592
1043.0593
1043.0593
1043.0595
1043.0612
1043.0605
1043.0592
1043.0592
1043.0592
1043.0592
1043.0593
1043.0593
1043.0594
1043.0597
1043.0614
1043.061
1043.0595
1043.0595
1043.0594
1043.0594
1043.0594
1043.0595
1043.0597
1043.06
1043.0619
1043.0626
1043.0614
1043.0612
1043.0611
1043.0611
1043.0611
1043.0612
1043.0614
1043.0619
1043.0646
1009.2476
1009.2461
1009.2464
1009.2466
1009.2467
1009.2468
1009.2469
1009.247
1009.2473
1009.2485
1009.2461
1009.2452
1009.2455
1009.2457
1009.2458
1009.2459
1009.2459
1009.246
1009.2461
1009.2476
1009.2464
1009.2455
1009.2459
1009.2461
1009.2462
1009.2462
1009.2462
1009.2462
1009.2462
1009.2476
1009.2466
1009.2457
1009.2461
1009.2462
1009.2463
1009.2464
1009.2464
1009.2463
1009.2463
1009.2475
1009.2467
1009.2458
1009.2462
1009.2463
1009.2464
1009.2464
1009.2464
1009.2463
1009.2463
1009.2475
1009.2468
1009.2459
1009.2462
1009.2464
1009.2464
1009.2465
1009.2464
1009.2463
1009.2462
1009.2475
1009.2469
1009.2459
1009.2462
1009.2464
1009.2464
1009.2464
1009.2464
1009.2463
1009.2462
1009.2475
1009.247
1009.246
1009.2462
1009.2463
1009.2463
1009.2463
1009.2463
1009.2462
1009.2462
1009.2475
1009.2473
1009.2461
1009.2462
1009.2463
1009.2463
1009.2462
1009.2462
1009.2462
1009.2463
1009.2477
1009.2485
1009.2476
1009.2476
1009.2475
1009.2475
1009.2475
1009.2475
1009.2475
1009.2477
1009.25
978.21259
978.21143
978.21189
978.21214
978.21228
978.21234
978.21234
978.21232
978.21242
978.21333
978.21143
978.21085
978.21132
978.21156
978.2117
978.21175
978.21171
978.21162
978.21155
978.21265
978.21189
978.21132
978.21179
978.21203
978.21216
978.21219
978.21212
978.21195
978.21175
978.21271
978.21214
978.21156
978.21203
978.21227
978.21239
978.21239
978.2123
978.21209
978.21183
978.21275
978.21228
978.2117
978.21216
978.21239
978.21249
978.21247
978.21236
978.21212
978.21184
978.21274
978.21234
978.21175
978.21219
978.21239
978.21247
978.21245
978.21232
978.21207
978.21179
978.21268
978.21234
978.21171
978.21212
978.2123
978.21236
978.21232
978.21218
978.21194
978.21167
978.21257
978.21232
978.21162
978.21195
978.21209
978.21212
978.21207
978.21194
978.21173
978.21149
978.21243
978.21242
978.21155
978.21175
978.21183
978.21184
978.21179
978.21167
978.21149
978.21133
978.21242
978.21333
978.21265
978.21271
978.21275
978.21274
978.21268
978.21257
978.21243
978.21242
978.21422
949.58251
949.58171
949.58227
949.58257
949.58272
949.58275
949.58268
949.58253
949.58245
949.58309
949.58171
949.58141
949.58196
949.58226
949.5824
949.58242
949.58231
949.58209
949.58184
949.58261
949.58227
949.58196
949.58251
949.5828
949.58294
949.58293
949.58279
949.5825
949.58212
949.58276
949.58257
949.58226
949.5828
949.58309
949.58321
949.58318
949.58301
949.58268
949.58224
949.58283
949.58272
949.5824
949.58294
949.58321
949.58331
949.58326
949.58307
949.58271
949.58225
949.58282
949.58275
949.58242
949.58293
949.58318
949.58326
949.5832
949.58299
949.58262
949.58215
949.58272
949.58268
949.58231
949.58279
949.58301
949.58307
949.58299
949.58277
949.58241
949.58195
949.58253
949.58253
949.58209
949.5825
949.58268
949.58271
949.58262
949.58241
949.58206
949.58163
949.58225
949.58245
949.58184
949.58212
949.58224
949.58225
949.58215
949.58195
949.58163
949.58128
949.58202
949.58309
949.58261
949.58276
949.58283
949.58282
949.58272
949.58253
949.58225
949.58202
949.58342
923.05322
923.05273
923.05335
923.05369
923.05385
923.05384
923.0537
923.05345
923.05321
923.05361
923.05273
923.05266
923.05327
923.0536
923.05375
923.05373
923.05355
923.05322
923.05283
923.05331
923.05335
923.05327
923.05387
923.0542
923.05433
923.05429
923.05408
923.05369
923.05316
923.05351
923.05369
923.0536
923.0542
923.05451
923.05462
923.05456
923.05432
923.05389
923.05331
923.05362
923.05385
923.05375
923.05433
923.05462
923.05472
923.05464
923.05438
923.05392
923.05332
923.0536
923.05384
923.05373
923.05429
923.05456
923.05464
923.05454
923.05426
923.05379
923.05318
923.05346
923.0537
923.05355
923.05408
923.05432
923.05438
923.05426
923.05398
923.0535
923.0529
923.05319
923.05345
923.05322
923.05369
923.05389
923.05392
923.05379
923.0535
923.05305
923.05247
923.05279
923.05321
923.05283
923.05316
923.05331
923.05332
923.05318
923.0529
923.05247
923.05195
923.05238
923.05361
923.05331
923.05351
923.05362
923.0536
923.05346
923.05319
923.05279
923.05238
923.05342
898.37448
898.37426
898.37492
898.37528
898.37543
898.37539
898.37519
898.37485
898.37449
898.37468
898.37426
898.37439
898.37503
898.37538
898.37552
898.37547
898.37523
898.37482
898.3743
898.37453
898.37492
898.37503
898.37566
898.376
898.37613
898.37605
898.37578
898.37531
898.37467
898.37478
898.37528
898.37538
898.376
898.37632
898.37643
898.37634
898.37604
898.37553
898.37484
898.3749
898.37543
898.37552
898.37613
898.37643
898.37652
898.37641
898.37609
898.37555
898.37483
898.37488
898.37539
898.37547
898.37605
898.37634
898.37641
898.37628
898.37594
898.37539
898.37466
898.3747
898.37519
898.37523
898.37578
898.37604
898.37609
898.37594
898.37559
898.37504
898.37432
898.37436
898.37485
898.37482
898.37531
898.37553
898.37555
898.37539
898.37504
898.37449
898.37379
898.37386
898.37449
898.3743
898.37467
898.37484
898.37483
898.37466
898.37432
898.37379
898.37314
898.37331
898.37468
898.37453
898.37478
898.3749
898.37488
898.3747
898.37436
898.37386
898.37331
898.37401
875.33839
875.3384
875.33909
875.33945
875.33959
875.33952
875.33927
875.33886
875.33839
875.33841
875.3384
875.3387
875.33936
875.33971
875.33984
875.33976
875.33948
875.339
875.33838
875.33839
875.33909
875.33936
875.33999
875.34033
875.34045
875.34035
875.34003
875.3395
875.33877
875.33866
875.33945
875.33971
875.34033
875.34066
875.34075
875.34063
875.34029
875.33971
875.33894
875.33879
875.33959
875.33984
875.34045
875.34075
875.34083
875.34069
875.34032
875.33973
875.33893
875.33876
875.33952
875.33976
875.34035
875.34063
875.34069
875.34053
875.34015
875.33954
875.33873
875.33856
875.33927
875.33948
875.34003
875.34029
875.34032
875.34015
875.33976
875.33914
875.33833
875.33816
875.33886
875.339
875.3395
875.33971
875.33973
875.33954
875.33914
875.33853
875.33773
875.33759
875.33839
875.33838
875.33877
875.33894
875.33893
875.33873
875.33833
875.33773
875.33698
875.33692
875.33841
875.33839
875.33866
875.33879
875.33876
875.33856
875.33816
875.33759
875.33692
875.33733
853.77064
853.77087
853.77155
853.77191
853.77203
853.77194
853.77164
853.77118
853.77063
853.77049
853.77087
853.7713
853.77195
853.7723
853.77241
853.77231
853.77199
853.77146
853.77077
853.77059
853.77155
853.77195
853.77258
853.77291
853.77301
853.77288
853.77253
853.77195
853.77116
853.77088
853.77191
853.7723
853.77291
853.77322
853.7733
853.77316
853.77278
853.77217
853.77134
853.77101
853.77203
853.77241
853.77301
853.7733
853.77337
853.7732
853.7728
853.77216
853.77131
853.77097
853.77194
853.77231
853.77288
853.77316
853.7732
853.77302
853.7726
853.77195
853.77109
853.77074
853.77164
853.77199
853.77253
853.77278
853.7728
853.7726
853.77218
853.77152
853.77065
853.77031
853.77118
853.77146
853.77195
853.77217
853.77216
853.77195
853.77152
853.77086
853.77001
853.76968
853.77063
853.77077
853.77116
853.77134
853.77131
853.77109
853.77065
853.77001
853.76918
853.76892
853.77049
853.77059
853.77088
853.77101
853.77097
853.77074
853.77031
853.76968
853.76892
853.76908
833.52389
833.52429
833.52495
833.5253
833.5254
833.52529
833.52497
833.52446
833.52385
833.52358
833.52429
833.52484
833.52547
833.5258
833.52589
833.52577
833.52542
833.52486
833.52412
833.52378
833.52495
833.52547
833.52607
833.52639
833.52647
833.52632
833.52595
833.52534
833.52451
833.52408
833.5253
833.5258
833.52639
833.52668
833.52675
833.52658
833.52618
833.52554
833.52468
833.52421
833.5254
833.52589
833.52647
833.52675
833.52679
833.52661
833.52619
833.52553
833.52464
833.52416
833.52529
833.52577
833.52632
833.52658
833.52661
833.5264
833.52597
833.5253
833.5244
833.52391
833.52497
833.52542
833.52595
833.52618
833.52619
833.52597
833.52553
833.52484
833.52394
833.52345
833.52446
833.52486
833.52534
833.52554
833.52553
833.5253
833.52484
833.52416
833.52327
833.52279
833.52385
833.52412
833.52451
833.52468
833.52464
833.5244
833.52394
833.52327
833.52239
833.52197
833.52358
833.52378
833.52408
833.52421
833.52416
833.52391
833.52345
833.52279
833.52197
833.5219
814.47259
814.47315
814.47378
814.4741
814.47419
814.47405
814.47371
814.47318
814.47253
814.47215
814.47315
814.47378
814.47438
814.47469
814.47476
814.47462
814.47425
814.47367
814.47291
814.47243
814.47378
814.47438
814.47494
814.47524
814.4753
814.47513
814.47475
814.47413
814.47329
814.47273
814.4741
814.47469
814.47524
814.47551
814.47556
814.47537
814.47496
814.47432
814.47344
814.47285
814.47419
814.47476
814.4753
814.47556
814.47558
814.47538
814.47496
814.47429
814.47339
814.47279
814.47405
814.47462
814.47513
814.47537
814.47538
814.47517
814.47473
814.47404
814.47314
814.47253
814.47371
814.47425
814.47475
814.47496
814.47496
814.47473
814.47427
814.47358
814.47267
814.47206
814.47318
814.47367
814.47413
814.47432
814.47429
814.47404
814.47358
814.47289
814.47198
814.47138
814.47253
814.47291
814.47329
814.47344
814.47339
814.47314
814.47267
814.47198
814.47109
814.47052
814.47215
814.47243
814.47273
814.47285
814.47279
814.47253
814.47206
814.47138
814.47052
814.47025
796.50904
796.50973
796.51031
796.51061
796.51068
796.51053
796.51017
796.50963
796.50896
796.50849
796.50973
796.51043
796.51098
796.51126
796.51132
796.51116
796.51079
796.5102
796.50943
796.50884
796.51031
796.51098
796.5115
796.51177
796.51181
796.51163
796.51124
796.51062
796.50978
796.50913
796.51061
796.51126
796.51177
796.51202
796.51204
796.51185
796.51144
796.51079
796.50993
796.50925
796.51068
796.51132
796.51181
796.51204
796.51205
796.51184
796.51141
796.51075
796.50987
796.50918
796.51053
796.51116
796.51163
796.51185
796.51184
796.51162
796.51118
796.51051
796.50961
796.50891
796.51017
796.51079
796.51124
796.51144
796.51141
796.51118
796.51072
796.51004
796.50914
796.50844
796.50963
796.5102
796.51062
796.51079
796.51075
796.51051
796.51004
796.50935
796.50845
796.50775
796.50896
796.50943
796.50978
796.50993
796.50987
796.50961
796.50914
796.50845
796.50756
796.50688
796.50849
796.50884
796.50913
796.50925
796.50918
796.50891
796.50844
796.50775
796.50688
796.50644
779.54021
779.54101
779.54154
779.5418
779.54185
779.54169
779.54133
779.54079
779.54012
779.53957
779.54101
779.54176
779.54226
779.54251
779.54254
779.54237
779.542
779.54142
779.54066
779.53998
779.54154
779.54226
779.54273
779.54296
779.54298
779.5428
779.54241
779.5418
779.54099
779.54025
779.5418
779.54251
779.54296
779.54318
779.54318
779.54299
779.54258
779.54195
779.54111
779.54036
779.54185
779.54254
779.54298
779.54318
779.54318
779.54297
779.54254
779.5419
779.54105
779.54029
779.54169
779.54237
779.5428
779.54299
779.54297
779.54274
779.54231
779.54165
779.54079
779.54002
779.54133
779.542
779.54241
779.54258
779.54254
779.54231
779.54186
779.5412
779.54033
779.53956
779.54079
779.54142
779.5418
779.54195
779.5419
779.54165
779.5412
779.54053
779.53965
779.53888
779.54012
779.54066
779.54099
779.54111
779.54105
779.54079
779.54033
779.53965
779.53878
779.53801
779.53957
779.53998
779.54025
779.54036
779.54029
779.54002
779.53956
779.53888
779.53801
779.53743
763.48524
763.48613
763.4866
763.48683
763.48686
763.48669
763.48633
763.4858
763.48513
763.48453
763.48613
763.48692
763.48735
763.48757
763.48758
763.48741
763.48704
763.48648
763.48574
763.48499
763.4866
763.48735
763.48776
763.48796
763.48796
763.48778
763.4874
763.48682
763.48603
763.48525
763.48683
763.48757
763.48796
763.48814
763.48813
763.48793
763.48754
763.48694
763.48614
763.48534
763.48686
763.48758
763.48796
763.48813
763.48811
763.4879
763.48749
763.48688
763.48607
763.48526
763.48669
763.48741
763.48778
763.48793
763.4879
763.48767
763.48726
763.48664
763.48582
763.485
763.48633
763.48704
763.4874
763.48754
763.48749
763.48726
763.48683
763.4862
763.48537
763.48455
763.4858
763.48648
763.48682
763.48694
763.48688
763.48664
763.4862
763.48557
763.48473
763.4839
763.48513
763.48574
763.48603
763.48614
763.48607
763.48582
763.48537
763.48473
763.48388
763.48306
763.48453
763.48499
763.48525
763.48534
763.48526
763.485
763.48455
763.4839
763.48306
763.48236
748.27343
748.27439
748.27479
748.27498
748.27499
748.27482
748.27447
748.27397
748.27331
748.27267
748.27439
748.27519
748.27556
748.27574
748.27574
748.27556
748.27521
748.27468
748.27397
748.27317
748.27479
748.27556
748.27591
748.27607
748.27605
748.27587
748.2755
748.27496
748.27423
748.2734
748.27498
748.27574
748.27607
748.27622
748.27619
748.27599
748.27562
748.27506
748.27432
748.27348
748.27499
748.27574
748.27605
748.27619
748.27615
748.27595
748.27556
748.275
748.27424
748.2734
748.27482
748.27556
748.27587
748.27599
748.27595
748.27573
748.27534
748.27476
748.274
748.27315
748.27447
748.27521
748.2755
748.27562
748.27556
748.27534
748.27493
748.27435
748.27358
748.27273
748.27397
748.27468
748.27496
748.27506
748.275
748.27476
748.27435
748.27376
748.27297
748.27211
748.27331
748.27397
748.27423
748.27432
748.27424
748.274
748.27358
748.27297
748.27218
748.2713
748.27267
748.27317
748.2734
748.27348
748.2734
748.27315
748.27273
748.27211
748.2713
748.2705
733.84259
733.8436
733.84393
733.84409
733.84407
733.8439
733.84357
733.84309
733.84247
733.84179
733.8436
733.84441
733.84471
733.84485
733.84483
733.84465
733.84432
733.84383
733.84316
733.84233
733.84393
733.84471
733.84499
733.84511
733.84508
733.8449
733.84456
733.84406
733.84338
733.84254
733.84409
733.84485
733.84511
733.84522
733.84518
733.84499
733.84464
733.84414
733.84345
733.8426
733.84407
733.84483
733.84508
733.84518
733.84513
733.84493
733.84458
733.84406
733.84337
733.84252
733.8439
733.84465
733.8449
733.84499
733.84493
733.84473
733.84436
733.84384
733.84314
733.84229
733.84357
733.84432
733.84456
733.84464
733.84458
733.84436
733.84399
733.84346
733.84276
733.84189
733.84309
733.84383
733.84406
733.84414
733.84406
733.84384
733.84346
733.84292
733.8422
733.84133
733.84247
733.84316
733.84338
733.84345
733.84337
733.84314
733.84276
733.8422
733.84146
733.84057
733.84179
733.84233
733.84254
733.8426
733.84252
733.84229
733.84189
733.84133
733.84057
733.83969
720.13773
720.13878
720.13904
720.13915
720.13912
720.13895
720.13865
720.1382
720.13762
720.13692
720.13878
720.13958
720.13981
720.13991
720.13987
720.1397
720.13939
720.13894
720.13833
720.13748
720.13904
720.13981
720.14002
720.1401
720.14006
720.13988
720.13957
720.13912
720.13851
720.13766
720.13915
720.13991
720.1401
720.14018
720.14013
720.13994
720.13963
720.13917
720.13856
720.13771
720.13912
720.13987
720.14006
720.14013
720.14007
720.13988
720.13956
720.1391
720.13848
720.13763
720.13895
720.1397
720.13988
720.13994
720.13988
720.13968
720.13936
720.13889
720.13827
720.13742
720.13865
720.13939
720.13957
720.13963
720.13956
720.13936
720.13902
720.13855
720.13792
720.13706
720.1382
720.13894
720.13912
720.13917
720.1391
720.13889
720.13855
720.13807
720.13743
720.13655
720.13762
720.13833
720.13851
720.13856
720.13848
720.13827
720.13792
720.13743
720.13676
720.13585
720.13692
720.13748
720.13766
720.13771
720.13763
720.13742
720.13706
720.13655
720.13585
720.13491
707.10996
707.11103
707.11122
707.11129
707.11124
707.11108
707.1108
707.1104
707.10986
707.10916
707.11103
707.11182
707.11198
707.11204
707.11198
707.11182
707.11154
707.11114
707.11059
707.10973
707.11122
707.11198
707.11211
707.11216
707.1121
707.11193
707.11165
707.11126
707.11073
707.10988
707.11129
707.11204
707.11216
707.1122
707.11213
707.11196
707.11168
707.11129
707.11076
707.10992
707.11124
707.11198
707.1121
707.11213
707.11206
707.11189
707.11161
707.11121
707.11068
707.10984
707.11108
707.11182
707.11193
707.11196
707.11189
707.11171
707.11142
707.11102
707.11049
707.10965
707.1108
707.11154
707.11165
707.11168
707.11161
707.11142
707.11113
707.11073
707.11018
707.10934
707.1104
707.11114
707.11126
707.11129
707.11121
707.11102
707.11073
707.11031
707.10975
707.10889
707.10986
707.11059
707.11073
707.11076
707.11068
707.11049
707.11018
707.10975
707.10916
707.10826
707.10916
707.10973
707.10988
707.10992
707.10984
707.10965
707.10934
707.10889
707.10826
707.10727
694.71558
694.71666
694.71677
694.7168
694.71674
694.71658
694.71633
694.71598
694.7155
694.7148
694.71666
694.71743
694.71751
694.71753
694.71746
694.71731
694.71706
694.71672
694.71624
694.71538
694.71677
694.71751
694.71757
694.71758
694.71751
694.71735
694.71711
694.71678
694.71633
694.7155
694.7168
694.71753
694.71758
694.71758
694.71751
694.71735
694.71711
694.71678
694.71634
694.71553
694.71674
694.71746
694.71751
694.71751
694.71743
694.71727
694.71703
694.71671
694.71627
694.71545
694.71658
694.71731
694.71735
694.71735
694.71727
694.71711
694.71687
694.71654
694.7161
694.71529
694.71633
694.71706
694.71711
694.71711
694.71703
694.71687
694.71662
694.71629
694.71584
694.71502
694.71598
694.71672
694.71678
694.71678
694.71671
694.71654
694.71629
694.71594
694.71548
694.71464
694.7155
694.71624
694.71633
694.71634
694.71627
694.7161
694.71584
694.71548
694.71498
694.71409
694.7148
694.71538
694.7155
694.71553
694.71545
694.71529
694.71502
694.71464
694.71409
694.71307
682.91533
682.91641
682.91644
682.91643
682.91636
682.91621
682.91599
682.91569
682.91527
682.91459
682.91641
682.91714
682.91715
682.91713
682.91705
682.91691
682.9167
682.91641
682.91601
682.91517
682.91644
682.91715
682.91714
682.91711
682.91703
682.91689
682.91669
682.91642
682.91605
682.91526
682.91643
682.91713
682.91711
682.91708
682.91699
682.91685
682.91666
682.9164
682.91605
682.91527
682.91636
682.91705
682.91703
682.91699
682.91691
682.91677
682.91658
682.91632
682.91598
682.9152
682.91621
682.91691
682.91689
682.91685
682.91677
682.91663
682.91644
682.91619
682.91584
682.91506
682.91599
682.9167
682.91669
682.91666
682.91658
682.91644
682.91624
682.91598
682.91563
682.91484
682.91569
682.91641
682.91642
682.9164
682.91632
682.91619
682.91598
682.91571
682.91534
682.91454
682.91527
682.91601
682.91605
682.91605
682.91598
682.91584
682.91563
682.91534
682.91493
682.91408
682.91459
682.91517
682.91526
682.91527
682.9152
682.91506
682.91484
682.91454
682.91408
682.91304
671.67375
671.67483
671.67478
671.67473
671.67465
671.67451
671.67433
671.67408
671.67372
671.67306
671.67483
671.67552
671.67545
671.6754
671.67531
671.67518
671.67501
671.67478
671.67446
671.67365
671.67478
671.67545
671.67537
671.67531
671.67522
671.67509
671.67493
671.67473
671.67446
671.67371
671.67473
671.6754
671.67531
671.67524
671.67515
671.67503
671.67488
671.67469
671.67444
671.6737
671.67465
671.67531
671.67522
671.67515
671.67506
671.67494
671.6748
671.67462
671.67437
671.67364
671.67451
671.67518
671.67509
671.67503
671.67494
671.67483
671.67469
671.67451
671.67426
671.67353
671.67433
671.67501
671.67493
671.67488
671.6748
671.67469
671.67454
671.67436
671.67411
671.67337
671.67408
671.67478
671.67473
671.67469
671.67462
671.67451
671.67436
671.67417
671.67389
671.67313
671.67372
671.67446
671.67446
671.67444
671.67437
671.67426
671.67411
671.67389
671.67358
671.67276
671.67306
671.67365
671.67371
671.6737
671.67364
671.67353
671.67337
671.67313
671.67276
671.67173
660.95869
660.95975
660.95963
660.95954
660.95944
660.95933
660.95918
660.95899
660.9587
660.95807
660.95975
660.96039
660.96026
660.96017
660.96007
660.95995
660.95982
660.95966
660.95942
660.95865
660.95963
660.96026
660.96011
660.96001
660.95991
660.95981
660.95969
660.95956
660.95938
660.95867
660.95954
660.96017
660.96001
660.95991
660.95982
660.95972
660.95961
660.9595
660.95934
660.95865
660.95944
660.96007
660.95991
660.95982
660.95972
660.95963
660.95953
660.95943
660.95929
660.9586
660.95933
660.95995
660.95981
660.95972
660.95963
660.95954
660.95945
660.95935
660.95921
660.95853
660.95918
660.95982
660.95969
660.95961
660.95953
660.95945
660.95936
660.95925
660.9591
660.95842
660.95899
660.95966
660.95956
660.9595
660.95943
660.95935
660.95925
660.95914
660.95897
660.95826
660.9587
660.95942
660.95938
660.95934
660.95929
660.95921
660.9591
660.95897
660.95876
660.95799
660.95807
660.95865
660.95867
660.95865
660.9586
660.95853
660.95842
660.95826
660.95799
660.95696
650.74081
650.74184
650.74165
650.74153
650.74142
650.74132
650.74122
650.74109
650.74086
650.74026
650.74184
650.74244
650.74224
650.74211
650.742
650.74191
650.74182
650.74173
650.74157
650.74083
650.74165
650.74224
650.74202
650.74189
650.74179
650.7417
650.74163
650.74157
650.74149
650.74083
650.74153
650.74211
650.74189
650.74176
650.74166
650.74158
650.74153
650.74149
650.74143
650.7408
650.74142
650.742
650.74179
650.74166
650.74157
650.7415
650.74145
650.74143
650.74138
650.74076
650.74132
650.74191
650.7417
650.74158
650.7415
650.74144
650.7414
650.74138
650.74134
650.74072
650.74122
650.74182
650.74163
650.74153
650.74145
650.7414
650.74136
650.74134
650.74129
650.74066
650.74109
650.74173
650.74157
650.74149
650.74143
650.74138
650.74134
650.74131
650.74124
650.74059
650.74086
650.74157
650.74149
650.74143
650.74138
650.74134
650.74129
650.74124
650.74113
650.74041
650.74026
650.74083
650.74083
650.7408
650.74076
650.74072
650.74066
650.74059
650.74041
650.7394
640.99324
640.99424
640.99398
640.99382
640.99371
640.99363
640.99357
640.9935
640.99334
640.99278
640.99424
640.99478
640.99452
640.99436
640.99424
640.99417
640.99413
640.9941
640.99403
640.99334
640.99398
640.99452
640.99424
640.99408
640.99397
640.99391
640.99388
640.9939
640.99391
640.99331
640.99382
640.99436
640.99408
640.99392
640.99382
640.99376
640.99376
640.9938
640.99384
640.99327
640.99371
640.99424
640.99397
640.99382
640.99372
640.99368
640.99369
640.99374
640.9938
640.99324
640.99363
640.99417
640.99391
640.99376
640.99368
640.99365
640.99366
640.99373
640.99379
640.99323
640.99357
640.99413
640.99388
640.99376
640.99369
640.99366
640.99368
640.99374
640.9938
640.99324
640.9935
640.9941
640.9939
640.9938
640.99374
640.99373
640.99374
640.99379
640.99383
640.99324
640.99334
640.99403
640.99391
640.99384
640.9938
640.99379
640.9938
640.99383
640.99382
640.99316
640.99278
640.99334
640.99331
640.99327
640.99324
640.99323
640.99324
640.99324
640.99316
640.99218
631.69125
631.6922
631.69188
631.69169
631.69158
631.69151
631.69149
631.69149
631.69141
631.69089
631.6922
631.69269
631.69236
631.69218
631.69206
631.69201
631.69201
631.69205
631.69207
631.69143
631.69188
631.69236
631.69203
631.69184
631.69173
631.69169
631.69172
631.6918
631.69191
631.69137
631.69169
631.69218
631.69184
631.69166
631.69156
631.69153
631.69157
631.69169
631.69183
631.69132
631.69158
631.69206
631.69173
631.69156
631.69146
631.69145
631.69151
631.69164
631.6918
631.69131
631.69151
631.69201
631.69169
631.69153
631.69145
631.69145
631.69152
631.69166
631.69182
631.69133
631.69149
631.69201
631.69172
631.69157
631.69151
631.69152
631.69159
631.69173
631.69189
631.6914
631.69149
631.69205
631.6918
631.69169
631.69164
631.69166
631.69173
631.69186
631.692
631.69149
631.69141
631.69207
631.69191
631.69183
631.6918
631.69182
631.69189
631.692
631.6921
631.6915
631.69089
631.69143
631.69137
631.69132
631.69131
631.69133
631.6914
631.69149
631.6915
631.69055
622.81195
622.81287
622.81248
622.81227
622.81215
622.81211
622.81213
622.81219
622.81218
622.81171
622.81287
622.8133
622.81291
622.8127
622.81258
622.81255
622.8126
622.81271
622.81281
622.81223
622.81248
622.81291
622.81252
622.81231
622.8122
622.81218
622.81226
622.81242
622.81261
622.81214
622.81227
622.8127
622.81231
622.8121
622.812
622.812
622.8121
622.81229
622.81253
622.81209
622.81215
622.81258
622.8122
622.812
622.81192
622.81193
622.81204
622.81225
622.81251
622.81209
622.81211
622.81255
622.81218
622.812
622.81193
622.81196
622.81208
622.8123
622.81257
622.81215
622.81213
622.8126
622.81226
622.8121
622.81204
622.81208
622.81221
622.81244
622.8127
622.81227
622.81219
622.81271
622.81242
622.81229
622.81225
622.8123
622.81244
622.81265
622.81289
622.81244
622.81218
622.81281
622.81261
622.81253
622.81251
622.81257
622.8127
622.81289
622.81309
622.81256
622.81171
622.81223
622.81214
622.81209
622.81209
622.81215
622.81227
622.81244
622.81256
622.81165
614.33411
614.33498
614.33453
614.3343
614.33418
614.33416
614.33423
614.33435
614.33442
614.33399
614.33498
614.33535
614.33491
614.33468
614.33456
614.33456
614.33465
614.33483
614.33501
614.33449
614.33453
614.33491
614.33447
614.33424
614.33413
614.33414
614.33427
614.3345
614.33479
614.33438
614.3343
614.33468
614.33424
614.33401
614.33392
614.33395
614.33409
614.33436
614.33469
614.33432