/*--------------------------------*- C++ -*----------------------------------*\
| =========                 |                                                 |
| \\      /  F ield         | OpenFOAM: The Open Source CFD Toolbox           |
|  \\    /   O peration     | Version:  v2106                                 |
|   \\  /    A nd           | Website:  www.openfoam.com                      |
|    \\/     M anipulation  |                                                 |
\*---------------------------------------------------------------------------*/
FoamFile
{
    version     2.0;
    format      ascii;
    arch        "LSB;label=32;scalar=64";
    class       volScalarField;
    location    "70";
    object      T;
}
// * * * * * * * * * * * * * * * * * * * * * * * * * * * * * * * * * * * * * //

dimensions      [0 0 0 1 0 0 0];

internalField   nonuniform List<scalar> 
4000
(
274.33476
274.33475
274.33475
274.33475
274.33475
274.33475
274.33475
274.33475
274.33475
274.33476
274.33475
274.33475
274.33475
274.33474
274.33474
274.33474
274.33475
274.33475
274.33475
274.33475
274.33475
274.33475
274.33475
274.33474
274.33474
274.33474
274.33475
274.33475
274.33475
274.33475
274.33475
274.33474
274.33474
274.33474
274.33474
274.33474
274.33474
274.33475
274.33475
274.33475
274.33475
274.33474
274.33474
274.33474
274.33474
274.33474
274.33474
274.33475
274.33475
274.33475
274.33475
274.33474
274.33474
274.33474
274.33474
274.33474
274.33474
274.33475
274.33475
274.33475
274.33475
274.33475
274.33475
274.33474
274.33474
274.33474
274.33475
274.33475
274.33475
274.33475
274.33475
274.33475
274.33475
274.33475
274.33475
274.33475
274.33475
274.33475
274.33475
274.33475
274.33475
274.33475
274.33475
274.33475
274.33475
274.33475
274.33475
274.33475
274.33475
274.33475
274.33476
274.33475
274.33475
274.33475
274.33475
274.33475
274.33475
274.33475
274.33475
274.33475
286.23959
286.23951
286.23951
286.2395
286.2395
286.2395
286.23951
286.23951
286.23953
286.23954
286.23951
286.23946
286.23946
286.23945
286.23945
286.23945
286.23946
286.23946
286.23948
286.2395
286.23951
286.23946
286.23945
286.23945
286.23945
286.23945
286.23945
286.23946
286.23947
286.23949
286.2395
286.23945
286.23945
286.23944
286.23944
286.23944
286.23945
286.23946
286.23947
286.23949
286.2395
286.23945
286.23945
286.23944
286.23944
286.23944
286.23945
286.23945
286.23947
286.23948
286.2395
286.23945
286.23945
286.23944
286.23944
286.23945
286.23945
286.23946
286.23947
286.23949
286.23951
286.23946
286.23945
286.23945
286.23945
286.23945
286.23945
286.23946
286.23947
286.23949
286.23951
286.23946
286.23946
286.23946
286.23945
286.23946
286.23946
286.23947
286.23948
286.2395
286.23953
286.23948
286.23947
286.23947
286.23947
286.23947
286.23947
286.23948
286.23949
286.23951
286.23954
286.2395
286.23949
286.23949
286.23948
286.23949
286.23949
286.2395
286.23951
286.23953
297.66456
297.66444
297.66443
297.66442
297.66442
297.66442
297.66443
297.66445
297.66447
297.66451
297.66444
297.66436
297.66435
297.66435
297.66435
297.66435
297.66436
297.66437
297.6644
297.66445
297.66443
297.66435
297.66435
297.66434
297.66434
297.66434
297.66435
297.66436
297.66438
297.66443
297.66442
297.66435
297.66434
297.66433
297.66433
297.66434
297.66434
297.66436
297.66438
297.66442
297.66442
297.66435
297.66434
297.66433
297.66433
297.66434
297.66434
297.66435
297.66437
297.66442
297.66442
297.66435
297.66434
297.66434
297.66434
297.66434
297.66434
297.66436
297.66438
297.66442
297.66443
297.66436
297.66435
297.66434
297.66434
297.66434
297.66435
297.66436
297.66438
297.66443
297.66445
297.66437
297.66436
297.66436
297.66435
297.66436
297.66436
297.66438
297.6644
297.66444
297.66447
297.6644
297.66438
297.66438
297.66437
297.66438
297.66438
297.6644
297.66442
297.66447
297.66451
297.66445
297.66443
297.66442
297.66442
297.66442
297.66443
297.66444
297.66447
297.66452
308.65981
308.65967
308.65965
308.65964
308.65964
308.65965
308.65966
308.65968
308.65971
308.65977
308.65967
308.65957
308.65956
308.65955
308.65955
308.65955
308.65956
308.65958
308.65961
308.65969
308.65965
308.65956
308.65955
308.65954
308.65954
308.65954
308.65955
308.65957
308.6596
308.65967
308.65964
308.65955
308.65954
308.65954
308.65953
308.65954
308.65955
308.65956
308.65959
308.65966
308.65964
308.65955
308.65954
308.65953
308.65953
308.65954
308.65955
308.65956
308.65958
308.65965
308.65965
308.65955
308.65954
308.65954
308.65954
308.65954
308.65955
308.65956
308.65959
308.65966
308.65966
308.65956
308.65955
308.65955
308.65955
308.65955
308.65956
308.65957
308.6596
308.65967
308.65968
308.65958
308.65957
308.65956
308.65956
308.65956
308.65957
308.65959
308.65961
308.65968
308.65971
308.65961
308.6596
308.65959
308.65958
308.65959
308.6596
308.65961
308.65964
308.65972
308.65977
308.65969
308.65967
308.65966
308.65965
308.65966
308.65967
308.65968
308.65972
308.65981
319.26696
319.2668
319.26678
319.26677
319.26677
319.26678
319.26679
319.26682
319.26686
319.26693
319.2668
319.26668
319.26667
319.26666
319.26666
319.26667
319.26668
319.2667
319.26674
319.26683
319.26678
319.26667
319.26666
319.26666
319.26666
319.26666
319.26667
319.26669
319.26672
319.26681
319.26677
319.26666
319.26666
319.26665
319.26665
319.26666
319.26667
319.26668
319.26671
319.2668
319.26677
319.26666
319.26666
319.26665
319.26665
319.26665
319.26666
319.26668
319.26671
319.26679
319.26678
319.26667
319.26666
319.26666
319.26665
319.26666
319.26667
319.26668
319.26671
319.2668
319.26679
319.26668
319.26667
319.26667
319.26666
319.26667
319.26668
319.26669
319.26672
319.26681
319.26682
319.2667
319.26669
319.26668
319.26668
319.26668
319.26669
319.26671
319.26674
319.26683
319.26686
319.26674
319.26672
319.26671
319.26671
319.26671
319.26672
319.26674
319.26678
319.26687
319.26693
319.26683
319.26681
319.2668
319.26679
319.2668
319.26681
319.26683
319.26687
319.26699
329.52104
329.52086
329.52085
329.52084
329.52084
329.52085
329.52086
329.52089
329.52093
329.52102
329.52086
329.52074
329.52073
329.52072
329.52072
329.52073
329.52074
329.52076
329.5208
329.52092
329.52085
329.52073
329.52072
329.52072
329.52072
329.52072
329.52074
329.52076
329.52079
329.52089
329.52084
329.52072
329.52072
329.52071
329.52071
329.52072
329.52073
329.52075
329.52078
329.52088
329.52084
329.52072
329.52072
329.52071
329.52071
329.52072
329.52073
329.52075
329.52077
329.52087
329.52085
329.52073
329.52072
329.52072
329.52072
329.52072
329.52073
329.52075
329.52078
329.52088
329.52086
329.52074
329.52074
329.52073
329.52073
329.52073
329.52074
329.52076
329.52079
329.52089
329.52089
329.52076
329.52076
329.52075
329.52075
329.52075
329.52076
329.52078
329.52081
329.52091
329.52093
329.5208
329.52079
329.52078
329.52077
329.52078
329.52079
329.52081
329.52084
329.52095
329.52102
329.52092
329.52089
329.52088
329.52087
329.52088
329.52089
329.52091
329.52095
329.5211
339.45191
339.45172
339.45171
339.4517
339.45171
339.45171
339.45173
339.45176
339.4518
339.4519
339.45172
339.45159
339.45158
339.45158
339.45158
339.45159
339.4516
339.45162
339.45166
339.45179
339.45171
339.45158
339.45158
339.45158
339.45158
339.45159
339.4516
339.45162
339.45165
339.45176
339.4517
339.45158
339.45158
339.45158
339.45158
339.45158
339.45159
339.45161
339.45164
339.45175
339.45171
339.45158
339.45158
339.45158
339.45158
339.45158
339.45159
339.45161
339.45163
339.45175
339.45171
339.45159
339.45159
339.45158
339.45158
339.45159
339.4516
339.45161
339.45164
339.45175
339.45173
339.4516
339.4516
339.45159
339.45159
339.4516
339.45161
339.45162
339.45165
339.45176
339.45176
339.45162
339.45162
339.45161
339.45161
339.45161
339.45162
339.45164
339.45167
339.45178
339.4518
339.45166
339.45165
339.45164
339.45163
339.45164
339.45165
339.45167
339.4517
339.45183
339.4519
339.45179
339.45176
339.45175
339.45175
339.45175
339.45176
339.45178
339.45183
339.45199
349.08529
349.08509
349.08509
349.08508
349.08509
349.08509
349.08511
349.08514
349.08518
349.08529
349.08509
349.08495
349.08495
349.08495
349.08496
349.08496
349.08498
349.085
349.08503
349.08517
349.08509
349.08495
349.08496
349.08496
349.08496
349.08497
349.08498
349.085
349.08502
349.08515
349.08508
349.08495
349.08496
349.08496
349.08496
349.08497
349.08498
349.08499
349.08501
349.08513
349.08509
349.08496
349.08496
349.08496
349.08496
349.08497
349.08498
349.08499
349.08501
349.08513
349.08509
349.08496
349.08497
349.08497
349.08497
349.08497
349.08498
349.08499
349.08501
349.08513
349.08511
349.08498
349.08498
349.08498
349.08498
349.08498
349.08499
349.085
349.08502
349.08514
349.08514
349.085
349.085
349.08499
349.08499
349.08499
349.085
349.08501
349.08504
349.08516
349.08518
349.08503
349.08502
349.08501
349.08501
349.08501
349.08502
349.08504
349.08507
349.0852
349.08529
349.08517
349.08515
349.08513
349.08513
349.08513
349.08514
349.08516
349.0852
349.08538
358.44356
358.44335
358.44336
358.44336
358.44336
358.44337
358.44338
358.44341
358.44345
358.44356
358.44335
358.44321
358.44322
358.44322
358.44323
358.44323
358.44325
358.44326
358.4433
358.44344
358.44336
358.44322
358.44323
358.44323
358.44324
358.44325
358.44325
358.44327
358.44329
358.44342
358.44336
358.44322
358.44323
358.44324
358.44324
358.44325
358.44325
358.44326
358.44328
358.44341
358.44336
358.44323
358.44324
358.44324
358.44324
358.44325
358.44325
358.44326
358.44328
358.4434
358.44337
358.44323
358.44325
358.44325
358.44325
358.44325
358.44326
358.44326
358.44328
358.4434
358.44338
358.44325
358.44325
358.44325
358.44325
358.44326
358.44326
358.44327
358.44329
358.44341
358.44341
358.44326
358.44327
358.44326
358.44326
358.44326
358.44327
358.44328
358.4433
358.44343
358.44345
358.4433
358.44329
358.44328
358.44328
358.44328
358.44329
358.4433
358.44333
358.44347
358.44356
358.44344
358.44342
358.44341
358.4434
358.4434
358.44341
358.44343
358.44347
358.44366
367.54636
367.54614
367.54615
367.54616
367.54616
367.54617
367.54618
367.5462
367.54625
367.54636
367.54614
367.54601
367.54602
367.54602
367.54603
367.54604
367.54605
367.54606
367.54609
367.54624
367.54615
367.54602
367.54604
367.54604
367.54605
367.54605
367.54606
367.54607
367.54609
367.54622
367.54616
367.54602
367.54604
367.54605
367.54605
367.54606
367.54606
367.54607
367.54608
367.54621
367.54616
367.54603
367.54605
367.54605
367.54606
367.54606
367.54606
367.54607
367.54608
367.5462
367.54617
367.54604
367.54605
367.54606
367.54606
367.54606
367.54606
367.54607
367.54608
367.5462
367.54618
367.54605
367.54606
367.54606
367.54606
367.54606
367.54607
367.54607
367.54608
367.5462
367.5462
367.54606
367.54607
367.54607
367.54607
367.54607
367.54607
367.54607
367.54609
367.54622
367.54625
367.54609
367.54609
367.54608
367.54608
367.54608
367.54608
367.54609
367.54611
367.54625
367.54636
367.54624
367.54622
367.54621
367.5462
367.5462
367.5462
367.54622
367.54625
367.54645
376.41105
376.41084
376.41085
376.41086
376.41087
376.41088
376.41089
376.4109
376.41094
376.41106
376.41084
376.4107
376.41072
376.41073
376.41074
376.41074
376.41075
376.41076
376.41078
376.41093
376.41085
376.41072
376.41074
376.41075
376.41076
376.41077
376.41077
376.41077
376.41078
376.41091
376.41086
376.41073
376.41075
376.41076
376.41077
376.41077
376.41077
376.41077
376.41078
376.4109
376.41087
376.41074
376.41076
376.41077
376.41078
376.41078
376.41078
376.41077
376.41078
376.4109
376.41088
376.41074
376.41077
376.41077
376.41078
376.41078
376.41078
376.41077
376.41077
376.4109
376.41089
376.41075
376.41077
376.41077
376.41078
376.41078
376.41077
376.41077
376.41077
376.4109
376.4109
376.41076
376.41077
376.41077
376.41077
376.41077
376.41077
376.41077
376.41077
376.4109
376.41094
376.41078
376.41078
376.41078
376.41078
376.41077
376.41077
376.41077
376.41079
376.41093
376.41106
376.41093
376.41091
376.4109
376.4109
376.4109
376.4109
376.4109
376.41093
376.41114
385.05313
385.05291
385.05294
385.05295
385.05295
385.05296
385.05297
385.05298
385.05301
385.05313
385.05291
385.05278
385.05281
385.05282
385.05283
385.05283
385.05284
385.05284
385.05286
385.053
385.05294
385.05281
385.05284
385.05285
385.05286
385.05286
385.05286
385.05286
385.05286
385.05299
385.05295
385.05282
385.05285
385.05286
385.05287
385.05287
385.05287
385.05286
385.05286
385.05298
385.05295
385.05283
385.05286
385.05287
385.05287
385.05288
385.05287
385.05286
385.05285
385.05298
385.05296
385.05283
385.05286
385.05287
385.05288
385.05287
385.05287
385.05286
385.05285
385.05297
385.05297
385.05284
385.05286
385.05287
385.05287
385.05287
385.05286
385.05285
385.05285
385.05297
385.05298
385.05284
385.05286
385.05286
385.05286
385.05286
385.05285
385.05284
385.05284
385.05297
385.05301
385.05286
385.05286
385.05286
385.05285
385.05285
385.05285
385.05284
385.05285
385.05299
385.05313
385.053
385.05299
385.05298
385.05298
385.05297
385.05297
385.05297
385.05299
385.0532
393.48647
393.48625
393.48628
393.4863
393.48631
393.48631
393.48632
393.48633
393.48635
393.48647
393.48625
393.48613
393.48616
393.48618
393.48619
393.48619
393.48619
393.48619
393.4862
393.48634
393.48628
393.48616
393.4862
393.48621
393.48622
393.48622
393.48622
393.48621
393.48621
393.48633
393.4863
393.48618
393.48621
393.48623
393.48624
393.48624
393.48623
393.48622
393.48621
393.48632
393.48631
393.48619
393.48622
393.48624
393.48624
393.48624
393.48623
393.48622
393.4862
393.48632
393.48631
393.48619
393.48622
393.48624
393.48624
393.48624
393.48623
393.48621
393.48619
393.48631
393.48632
393.48619
393.48622
393.48623
393.48623
393.48623
393.48622
393.4862
393.48619
393.4863
393.48633
393.48619
393.48621
393.48622
393.48622
393.48621
393.4862
393.48618
393.48617
393.4863
393.48635
393.4862
393.48621
393.48621
393.4862
393.48619
393.48619
393.48617
393.48617
393.48631
393.48647
393.48634
393.48633
393.48632
393.48632
393.48631
393.4863
393.4863
393.48631
393.48652
401.7236
401.7234
401.72343
401.72345
401.72346
401.72347
401.72347
401.72347
401.72349
401.7236
401.7234
401.72328
401.72332
401.72334
401.72335
401.72335
401.72335
401.72334
401.72334
401.72348
401.72343
401.72332
401.72336
401.72338
401.72339
401.72339
401.72338
401.72337
401.72335
401.72347
401.72345
401.72334
401.72338
401.7234
401.7234
401.7234
401.72339
401.72337
401.72335
401.72347
401.72346
401.72335
401.72339
401.7234
401.72341
401.72341
401.72339
401.72337
401.72335
401.72346
401.72347
401.72335
401.72339
401.7234
401.72341
401.7234
401.72339
401.72336
401.72334
401.72345
401.72347
401.72335
401.72338
401.72339
401.72339
401.72339
401.72337
401.72335
401.72332
401.72344
401.72347
401.72334
401.72337
401.72337
401.72337
401.72336
401.72335
401.72333
401.72331
401.72342
401.72349
401.72334
401.72335
401.72335
401.72335
401.72334
401.72332
401.72331
401.7233
401.72343
401.7236
401.72348
401.72347
401.72347
401.72346
401.72345
401.72344
401.72342
401.72343
401.72363
409.77592
409.77572
409.77576
409.77578
409.77579
409.7758
409.77579
409.77579
409.7758
409.77591
409.77572
409.7756
409.77565
409.77567
409.77568
409.77568
409.77568
409.77566
409.77566
409.77579
409.77576
409.77565
409.77569
409.77572
409.77573
409.77573
409.77572
409.77569
409.77567
409.77579
409.77578
409.77567
409.77572
409.77574
409.77575
409.77574
409.77573
409.7757
409.77567
409.77578
409.77579
409.77568
409.77573
409.77575
409.77575
409.77575
409.77573
409.7757
409.77567
409.77577
409.7758
409.77568
409.77573
409.77574
409.77575
409.77574
409.77572
409.77569
409.77566
409.77576
409.77579
409.77568
409.77572
409.77573
409.77573
409.77572
409.7757
409.77567
409.77564
409.77574
409.77579
409.77566
409.77569
409.7757
409.7757
409.77569
409.77567
409.77564
409.77561
409.77572
409.7758
409.77566
409.77567
409.77567
409.77567
409.77566
409.77564
409.77561
409.77559
409.77572
409.77591
409.77579
409.77579
409.77578
409.77577
409.77576
409.77574
409.77572
409.77572
409.77592
417.65378
417.65359
417.65364
417.65366
417.65368
417.65368
417.65367
417.65366
417.65367
417.65377
417.65359
417.65349
417.65354
417.65356
417.65357
417.65357
417.65356
417.65354
417.65353
417.65366
417.65364
417.65354
417.65359
417.65361
417.65362
417.65362
417.65361
417.65358
417.65355
417.65365
417.65366
417.65356
417.65361
417.65364
417.65365
417.65364
417.65362
417.65359
417.65355
417.65365
417.65368
417.65357
417.65362
417.65365
417.65365
417.65364
417.65362
417.65359
417.65355
417.65364
417.65368
417.65357
417.65362
417.65364
417.65364
417.65363
417.65361
417.65357
417.65353
417.65363
417.65367
417.65356
417.65361
417.65362
417.65362
417.65361
417.65359
417.65355
417.65351
417.65361
417.65366
417.65354
417.65358
417.65359
417.65359
417.65357
417.65355
417.65351
417.65348
417.65358
417.65367
417.65353
417.65355
417.65355
417.65355
417.65353
417.65351
417.65348
417.65345
417.65357
417.65377
417.65366
417.65365
417.65365
417.65364
417.65363
417.65361
417.65358
417.65357
417.65376
425.36672
425.36654
425.36659
425.36662
425.36663
425.36663
425.36662
425.36661
425.36661
425.3667
425.36654
425.36644
425.36649
425.36652
425.36653
425.36653
425.36652
425.36649
425.36647
425.36659
425.36659
425.36649
425.36655
425.36658
425.36659
425.36658
425.36656
425.36653
425.36649
425.36659
425.36662
425.36652
425.36658
425.3666
425.36661
425.3666
425.36658
425.36654
425.3665
425.36659
425.36663
425.36653
425.36659
425.36661
425.36662
425.36661
425.36658
425.36654
425.36649
425.36658
425.36663
425.36653
425.36658
425.3666
425.36661
425.3666
425.36657
425.36652
425.36647
425.36656
425.36662
425.36652
425.36656
425.36658
425.36658
425.36657
425.36654
425.3665
425.36645
425.36654
425.36661
425.36649
425.36653
425.36654
425.36654
425.36652
425.3665
425.36645
425.36641
425.3665
425.36661
425.36647
425.36649
425.3665
425.36649
425.36647
425.36645
425.36641
425.36637
425.36648
425.3667
425.36659
425.36659
425.36659
425.36658
425.36656
425.36654
425.3665
425.36648
425.36667
432.92349
432.92331
432.92337
432.9234
432.92341
432.92341
432.9234
432.92338
432.92337
432.92346
432.92331
432.92322
432.92328
432.92331
432.92332
432.92332
432.9233
432.92327
432.92324
432.92336
432.92337
432.92328
432.92334
432.92337
432.92338
432.92338
432.92335
432.92331
432.92327
432.92336
432.9234
432.92331
432.92337
432.9234
432.92341
432.9234
432.92337
432.92333
432.92327
432.92336
432.92341
432.92332
432.92338
432.92341
432.92341
432.9234
432.92337
432.92332
432.92327
432.92335
432.92341
432.92332
432.92338
432.9234
432.9234
432.92339
432.92336
432.92331
432.92325
432.92333
432.9234
432.9233
432.92335
432.92337
432.92337
432.92336
432.92332
432.92327
432.92321
432.9233
432.92338
432.92327
432.92331
432.92333
432.92332
432.92331
432.92327
432.92322
432.92317
432.92326
432.92337
432.92324
432.92327
432.92327
432.92327
432.92325
432.92321
432.92317
432.92312
432.92323
432.92346
432.92336
432.92336
432.92336
432.92335
432.92333
432.9233
432.92326
432.92323
432.92341
440.33219
440.33202
440.33209
440.33212
440.33213
440.33213
440.33211
440.33209
440.33207
440.33215
440.33202
440.33194
440.332
440.33204
440.33205
440.33204
440.33202
440.33199
440.33195
440.33205
440.33209
440.332
440.33207
440.3321
440.33211
440.3321
440.33207
440.33203
440.33198
440.33206
440.33212
440.33204
440.3321
440.33213
440.33214
440.33212
440.33209
440.33204
440.33198
440.33206
440.33213
440.33205
440.33211
440.33214
440.33214
440.33213
440.33209
440.33204
440.33198
440.33205
440.33213
440.33204
440.3321
440.33212
440.33213
440.33211
440.33207
440.33202
440.33195
440.33203
440.33211
440.33202
440.33207
440.33209
440.33209
440.33207
440.33204
440.33198
440.33192
440.33199
440.33209
440.33199
440.33203
440.33204
440.33204
440.33202
440.33198
440.33193
440.33187
440.33194
440.33207
440.33195
440.33198
440.33198
440.33198
440.33195
440.33192
440.33187
440.33181
440.33191
440.33215
440.33205
440.33206
440.33206
440.33205
440.33203
440.33199
440.33194
440.33191
440.33208
447.60034
447.60019
447.60025
447.60028
447.60029
447.60029
447.60027
447.60024
447.60022
447.6003
447.60019
447.60011
447.60018
447.60021
447.60022
447.60021
447.60019
447.60015
447.60011
447.6002
447.60025
447.60018
447.60024
447.60027
447.60028
447.60027
447.60024
447.6002
447.60014
447.60021
447.60028
447.60021
447.60027
447.6003
447.60031
447.6003
447.60026
447.60021
447.60014
447.60021
447.60029
447.60022
447.60028
447.60031
447.60032
447.6003
447.60026
447.60021
447.60013
447.6002
447.60029
447.60021
447.60027
447.6003
447.6003
447.60028
447.60024
447.60018
447.60011
447.60017
447.60027
447.60019
447.60024
447.60026
447.60026
447.60024
447.6002
447.60014
447.60007
447.60013
447.60024
447.60015
447.6002
447.60021
447.60021
447.60018
447.60014
447.60008
447.60001
447.60008
447.60022
447.60011
447.60014
447.60014
447.60013
447.60011
447.60007
447.60001
447.59995
447.60004
447.6003
447.6002
447.60021
447.60021
447.6002
447.60017
447.60013
447.60008
447.60004
447.6002
454.73494
454.7348
454.73487
454.7349
454.73491
454.73491
454.73488
454.73485
454.73482
454.73489
454.7348
454.73473
454.7348
454.73483
454.73484
454.73484
454.73481
454.73476
454.73472
454.7348
454.73487
454.7348
454.73487
454.7349
454.73491
454.7349
454.73487
454.73481
454.73475
454.73481
454.7349
454.73483
454.7349
454.73493
454.73494
454.73492
454.73489
454.73483
454.73475
454.73481
454.73491
454.73484
454.73491
454.73494
454.73494
454.73492
454.73488
454.73482
454.73474
454.7348
454.73491
454.73484
454.7349
454.73492
454.73492
454.7349
454.73486
454.7348
454.73472
454.73477
454.73488
454.73481
454.73487
454.73489
454.73488
454.73486
454.73482
454.73475
454.73468
454.73473
454.73485
454.73476
454.73481
454.73483
454.73482
454.7348
454.73475
454.73469
454.73461
454.73468
454.73482
454.73472
454.73475
454.73475
454.73474
454.73472
454.73468
454.73461
454.73455
454.73462
454.73489
454.7348
454.73481
454.73481
454.7348
454.73477
454.73473
454.73468
454.73462
454.73478
461.74254
461.74241
461.74248
461.74251
461.74252
461.74251
461.74249
461.74245
461.74242
461.74248
461.74241
461.74235
461.74242
461.74245
461.74246
461.74245
461.74242
461.74237
461.74232
461.7424
461.74248
461.74242
461.74248
461.74252
461.74253
461.74251
461.74248
461.74242
461.74235
461.74241
461.74251
461.74245
461.74252
461.74255
461.74255
461.74254
461.7425
461.74244
461.74236
461.74241
461.74252
461.74246
461.74253
461.74255
461.74256
461.74254
461.7425
461.74243
461.74235
461.7424
461.74251
461.74245
461.74251
461.74254
461.74254
461.74252
461.74247
461.7424
461.74232
461.74237
461.74249
461.74242
461.74248
461.7425
461.7425
461.74247
461.74243
461.74236
461.74227
461.74232
461.74245
461.74237
461.74242
461.74244
461.74243
461.7424
461.74236
461.74229
461.74221
461.74226
461.74242
461.74232
461.74235
461.74236
461.74235
461.74232
461.74227
461.74221
461.74214
461.7422
461.74248
461.7424
461.74241
461.74241
461.7424
461.74237
461.74232
461.74226
461.7422
461.74235
468.62926
468.62913
468.6292
468.62924
468.62925
468.62924
468.62921
468.62917
468.62913
468.62919
468.62913
468.62908
468.62915
468.62918
468.62919
468.62918
468.62915
468.6291
468.62904
468.62911
468.6292
468.62915
468.62922
468.62925
468.62926
468.62924
468.62921
468.62915
468.62907
468.62912
468.62924
468.62918
468.62925
468.62928
468.62929
468.62927
468.62923
468.62916
468.62908
468.62912
468.62925
468.62919
468.62926
468.62929
468.62929
468.62927
468.62923
468.62916
468.62907
468.62911
468.62924
468.62918
468.62924
468.62927
468.62927
468.62925
468.6292
468.62913
468.62904
468.62908
468.62921
468.62915
468.62921
468.62923
468.62923
468.6292
468.62915
468.62908
468.62899
468.62903
468.62917
468.6291
468.62915
468.62916
468.62916
468.62913
468.62908
468.62901
468.62892
468.62897
468.62913
468.62904
468.62907
468.62908
468.62907
468.62904
468.62899
468.62892
468.62885
468.62891
468.62919
468.62911
468.62912
468.62912
468.62911
468.62908
468.62903
468.62897
468.62891
468.62904
475.40085
475.40074
475.4008
475.40084
475.40085
475.40084
475.40081
475.40076
475.40072
475.40077
475.40074
475.40069
475.40076
475.40079
475.4008
475.40079
475.40075
475.4007
475.40064
475.4007
475.4008
475.40076
475.40083
475.40086
475.40087
475.40085
475.40081
475.40075
475.40067
475.40071
475.40084
475.40079
475.40086
475.40089
475.40089
475.40087
475.40083
475.40076
475.40068
475.40071
475.40085
475.4008
475.40087
475.40089
475.4009
475.40087
475.40083
475.40076
475.40067
475.4007
475.40084
475.40079
475.40085
475.40087
475.40087
475.40085
475.4008
475.40073
475.40064
475.40067
475.40081
475.40075
475.40081
475.40083
475.40083
475.4008
475.40075
475.40068
475.40059
475.40062
475.40076
475.4007
475.40075
475.40076
475.40076
475.40073
475.40068
475.4006
475.40052
475.40055
475.40072
475.40064
475.40067
475.40068
475.40067
475.40064
475.40059
475.40052
475.40044
475.40049
475.40077
475.4007
475.40071
475.40071
475.4007
475.40067
475.40062
475.40055
475.40049
475.40061
482.06273
482.06263
482.0627
482.06273
482.06274
482.06273
482.0627
482.06265
482.06261
482.06265
482.06263
482.06259
482.06266
482.06269
482.0627
482.06268
482.06265
482.06259
482.06253
482.06258
482.0627
482.06266
482.06273
482.06276
482.06276
482.06275
482.06271
482.06264
482.06256
482.0626
482.06273
482.06269
482.06276
482.06279
482.06279
482.06277
482.06273
482.06266
482.06257
482.0626
482.06274
482.0627
482.06276
482.06279
482.06279
482.06277
482.06272
482.06265
482.06256
482.06258
482.06273
482.06268
482.06275
482.06277
482.06277
482.06274
482.06269
482.06262
482.06253
482.06255
482.0627
482.06265
482.06271
482.06273
482.06272
482.06269
482.06264
482.06257
482.06247
482.0625
482.06265
482.06259
482.06264
482.06266
482.06265
482.06262
482.06257
482.06249
482.0624
482.06243
482.06261
482.06253
482.06256
482.06257
482.06256
482.06253
482.06247
482.0624
482.06232
482.06236
482.06265
482.06258
482.0626
482.0626
482.06258
482.06255
482.0625
482.06243
482.06236
482.06248
488.62002
488.61993
488.62
488.62003
488.62004
488.62002
488.61999
488.61994
488.6199
488.61993
488.61993
488.6199
488.61996
488.62
488.62
488.61999
488.61995
488.61989
488.61983
488.61987
488.62
488.61996
488.62003
488.62006
488.62006
488.62005
488.62
488.61994
488.61986
488.61989
488.62003
488.62
488.62006
488.62009
488.62009
488.62007
488.62002
488.61995
488.61987
488.61989
488.62004
488.62
488.62006
488.62009
488.62009
488.62007
488.62002
488.61994
488.61985
488.61987
488.62002
488.61999
488.62005
488.62007
488.62007
488.62004
488.61999
488.61991
488.61982
488.61984
488.61999
488.61995
488.62
488.62002
488.62002
488.61999
488.61994
488.61986
488.61977
488.61979
488.61994
488.61989
488.61994
488.61995
488.61994
488.61991
488.61986
488.61979
488.6197
488.61972
488.6199
488.61983
488.61986
488.61987
488.61985
488.61982
488.61977
488.6197
488.61961
488.61965
488.61993
488.61987
488.61989
488.61989
488.61987
488.61984
488.61979
488.61972
488.61965
488.61975
495.07755
495.07747
495.07753
495.07756
495.07757
495.07755
495.07752
495.07747
495.07743
495.07745
495.07747
495.07744
495.0775
495.07753
495.07754
495.07752
495.07749
495.07743
495.07736
495.0774
495.07753
495.0775
495.07757
495.0776
495.0776
495.07758
495.07754
495.07747
495.07739
495.07741
495.07756
495.07753
495.0776
495.07762
495.07762
495.0776
495.07756
495.07749
495.0774
495.07741
495.07757
495.07754
495.0776
495.07762
495.07762
495.0776
495.07755
495.07748
495.07739
495.0774
495.07755
495.07752
495.07758
495.0776
495.0776
495.07757
495.07752
495.07745
495.07735
495.07736
495.07752
495.07749
495.07754
495.07756
495.07755
495.07752
495.07747
495.07739
495.0773
495.07731
495.07747
495.07743
495.07747
495.07749
495.07748
495.07745
495.07739
495.07732
495.07723
495.07724
495.07743
495.07736
495.07739
495.0774
495.07739
495.07735
495.0773
495.07723
495.07714
495.07717
495.07745
495.0774
495.07741
495.07741
495.0774
495.07736
495.07731
495.07724
495.07717
495.07726
501.43989
501.43981
501.43988
501.4399
501.43991
501.43989
501.43986
501.43981
501.43977
501.43979
501.43981
501.43979
501.43985
501.43988
501.43989
501.43987
501.43983
501.43978
501.43971
501.43974
501.43988
501.43985
501.43991
501.43994
501.43994
501.43992
501.43988
501.43982
501.43974
501.43975
501.4399
501.43988
501.43994
501.43997
501.43997
501.43994
501.4399
501.43983
501.43974
501.43975
501.43991
501.43989
501.43994
501.43997
501.43996
501.43994
501.43989
501.43982
501.43973
501.43974
501.43989
501.43987
501.43992
501.43994
501.43994
501.43991
501.43986
501.43979
501.4397
501.4397
501.43986
501.43983
501.43988
501.4399
501.43989
501.43986
501.43981
501.43974
501.43964
501.43965
501.43981
501.43978
501.43982
501.43983
501.43982
501.43979
501.43974
501.43966
501.43957
501.43958
501.43977
501.43971
501.43974
501.43974
501.43973
501.4397
501.43964
501.43957
501.43949
501.43951
501.43979
501.43974
501.43975
501.43975
501.43974
501.4397
501.43965
501.43958
501.43951
501.43959
507.71137
507.71131
507.71137
507.7114
507.7114
507.71138
507.71135
507.7113
507.71125
507.71127
507.71131
507.7113
507.71135
507.71138
507.71138
507.71136
507.71133
507.71127
507.7112
507.71123
507.71137
507.71135
507.71141
507.71143
507.71143
507.71141
507.71137
507.71131
507.71123
507.71124
507.7114
507.71138
507.71143
507.71146
507.71146
507.71143
507.71139
507.71132
507.71124
507.71124
507.7114
507.71138
507.71143
507.71146
507.71145
507.71143
507.71138
507.71131
507.71122
507.71122
507.71138
507.71136
507.71141
507.71143
507.71143
507.7114
507.71135
507.71128
507.71119
507.71119
507.71135
507.71133
507.71137
507.71139
507.71138
507.71135
507.7113
507.71123
507.71114
507.71114
507.7113
507.71127
507.71131
507.71132
507.71131
507.71128
507.71123
507.71116
507.71107
507.71107
507.71125
507.7112
507.71123
507.71124
507.71122
507.71119
507.71114
507.71107
507.71098
507.711
507.71127
507.71123
507.71124
507.71124
507.71122
507.71119
507.71114
507.71107
507.711
507.71107
513.89612
513.89607
513.89613
513.89615
513.89615
513.89614
513.8961
513.89606
513.89601
513.89602
513.89607
513.89606
513.89611
513.89614
513.89614
513.89612
513.89608
513.89603
513.89597
513.89598
513.89613
513.89611
513.89616
513.89619
513.89619
513.89617
513.89613
513.89607
513.89599
513.89599
513.89615
513.89614
513.89619
513.89621
513.89621
513.89618
513.89614
513.89608
513.89599
513.89599
513.89615