/*--------------------------------*- C++ -*----------------------------------*\
| =========                 |                                                 |
| \\      /  F ield         | OpenFOAM: The Open Source CFD Toolbox           |
|  \\    /   O peration     | Version:  v2106                                 |
|   \\  /    A nd           | Website:  www.openfoam.com                      |
|    \\/     M anipulation  |                                                 |
\*---------------------------------------------------------------------------*/
FoamFile
{
    version     2.0;
    format      ascii;
    arch        "LSB;label=32;scalar=64";
    class       volScalarField;
    location    "70";
    object      T;
}
// * * * * * * * * * * * * * * * * * * * * * * * * * * * * * * * * * * * * * //

dimensions      [0 0 0 1 0 0 0];

internalField   nonuniform List<scalar> 
4000
(
275.16523
275.16523
275.16524
275.16524
275.16524
275.16524
275.16524
275.16524
275.16524
275.16524
275.16523
275.16524
275.16524
275.16525
275.16525
275.16525
275.16525
275.16524
275.16524
275.16524
275.16524
275.16524
275.16525
275.16525
275.16525
275.16525
275.16525
275.16525
275.16524
275.16524
275.16524
275.16525
275.16525
275.16525
275.16525
275.16525
275.16525
275.16525
275.16525
275.16524
275.16524
275.16525
275.16525
275.16525
275.16525
275.16525
275.16525
275.16525
275.16525
275.16524
275.16524
275.16525
275.16525
275.16525
275.16525
275.16525
275.16525
275.16525
275.16525
275.16524
275.16524
275.16525
275.16525
275.16525
275.16525
275.16525
275.16525
275.16525
275.16524
275.16524
275.16524
275.16524
275.16525
275.16525
275.16525
275.16525
275.16525
275.16525
275.16524
275.16524
275.16524
275.16524
275.16524
275.16525
275.16525
275.16525
275.16524
275.16524
275.16524
275.16524
275.16524
275.16524
275.16524
275.16524
275.16524
275.16524
275.16524
275.16524
275.16524
275.16524
283.62709
283.62712
283.62714
283.62715
283.62715
283.62715
283.62715
283.62714
283.62713
283.62712
283.62712
283.62715
283.62716
283.62717
283.62718
283.62718
283.62717
283.62717
283.62716
283.62714
283.62714
283.62716
283.62718
283.62719
283.62719
283.62719
283.62718
283.62718
283.62717
283.62715
283.62715
283.62717
283.62719
283.62719
283.6272
283.6272
283.62719
283.62718
283.62717
283.62716
283.62715
283.62718
283.62719
283.6272
283.6272
283.6272
283.62719
283.62719
283.62717
283.62716
283.62715
283.62718
283.62719
283.6272
283.6272
283.6272
283.62719
283.62718
283.62717
283.62716
283.62715
283.62717
283.62718
283.62719
283.62719
283.62719
283.62719
283.62718
283.62717
283.62715
283.62714
283.62717
283.62718
283.62718
283.62719
283.62718
283.62718
283.62717
283.62716
283.62714
283.62713
283.62716
283.62717
283.62717
283.62717
283.62717
283.62717
283.62716
283.62714
283.62713
283.62712
283.62714
283.62715
283.62716
283.62716
283.62716
283.62715
283.62714
283.62713
283.62711
292.03331
292.03336
292.03339
292.0334
292.03341
292.03341
292.0334
292.03339
292.03337
292.03335
292.03336
292.0334
292.03343
292.03344
292.03345
292.03345
292.03344
292.03343
292.03341
292.03338
292.03339
292.03343
292.03345
292.03346
292.03347
292.03347
292.03346
292.03345
292.03343
292.0334
292.0334
292.03344
292.03346
292.03348
292.03348
292.03348
292.03347
292.03346
292.03344
292.03341
292.03341
292.03345
292.03347
292.03348
292.03349
292.03349
292.03348
292.03346
292.03344
292.03341
292.03341
292.03345
292.03347
292.03348
292.03349
292.03348
292.03347
292.03346
292.03343
292.03341
292.0334
292.03344
292.03346
292.03347
292.03348
292.03347
292.03346
292.03345
292.03342
292.03339
292.03339
292.03343
292.03345
292.03346
292.03346
292.03346
292.03345
292.03343
292.0334
292.03338
292.03337
292.03341
292.03343
292.03344
292.03344
292.03343
292.03342
292.0334
292.03338
292.03335
292.03335
292.03338
292.0334
292.03341
292.03341
292.03341
292.03339
292.03338
292.03335
292.03332
300.38477
300.38483
300.38487
300.38489
300.3849
300.38489
300.38488
300.38486
300.38484
300.38481
300.38483
300.38489
300.38492
300.38494
300.38495
300.38495
300.38494
300.38492
300.38489
300.38485
300.38487
300.38492
300.38495
300.38497
300.38498
300.38498
300.38496
300.38494
300.38491
300.38487
300.38489
300.38494
300.38497
300.38499
300.385
300.38499
300.38498
300.38496
300.38492
300.38488
300.3849
300.38495
300.38498
300.385
300.385
300.385
300.38498
300.38496
300.38493
300.38489
300.38489
300.38495
300.38498
300.38499
300.385
300.38499
300.38498
300.38495
300.38492
300.38488
300.38488
300.38494
300.38496
300.38498
300.38498
300.38498
300.38496
300.38494
300.3849
300.38486
300.38486
300.38492
300.38494
300.38496
300.38496
300.38495
300.38494
300.38491
300.38488
300.38483
300.38484
300.38489
300.38491
300.38492
300.38493
300.38492
300.3849
300.38488
300.38484
300.3848
300.38481
300.38485
300.38487
300.38488
300.38489
300.38488
300.38486
300.38483
300.3848
300.38475
308.68232
308.6824
308.68244
308.68246
308.68248
308.68247
308.68246
308.68243
308.6824
308.68236
308.6824
308.68247
308.68251
308.68253
308.68254
308.68254
308.68252
308.6825
308.68246
308.6824
308.68244
308.68251
308.68254
308.68257
308.68258
308.68257
308.68256
308.68253
308.68249
308.68243
308.68246
308.68253
308.68257
308.68259
308.6826
308.68259
308.68258
308.68255
308.6825
308.68245
308.68248
308.68254
308.68258
308.6826
308.68261
308.6826
308.68258
308.68255
308.68251
308.68245
308.68247
308.68254
308.68257
308.68259
308.6826
308.68259
308.68257
308.68254
308.6825
308.68244
308.68246
308.68252
308.68256
308.68258
308.68258
308.68257
308.68255
308.68252
308.68247
308.68242
308.68243
308.6825
308.68253
308.68255
308.68255
308.68254
308.68252
308.68249
308.68244
308.68238
308.6824
308.68246
308.68249
308.6825
308.68251
308.6825
308.68247
308.68244
308.68239
308.68233
308.68236
308.6824
308.68243
308.68245
308.68245
308.68244
308.68242
308.68238
308.68233
308.68227
316.9268
316.9269
316.92695
316.92698
316.92699
316.92699
316.92697
316.92693
316.92689
316.92684
316.9269
316.92698
316.92703
316.92706
316.92707
316.92706
316.92704
316.92701
316.92696
316.92689
316.92695
316.92703
316.92707
316.9271
316.92711
316.9271
316.92708
316.92705
316.92699
316.92693
316.92698
316.92706
316.9271
316.92713
316.92713
316.92713
316.92711
316.92707
316.92701
316.92694
316.92699
316.92707
316.92711
316.92713
316.92714
316.92714
316.92711
316.92707
316.92702
316.92694
316.92699
316.92706
316.9271
316.92713
316.92714
316.92713
316.9271
316.92706
316.927
316.92693
316.92697
316.92704
316.92708
316.92711
316.92711
316.9271
316.92707
316.92703
316.92697
316.9269
316.92693
316.92701
316.92705
316.92707
316.92707
316.92706
316.92703
316.92699
316.92693
316.92686
316.92689
316.92696
316.92699
316.92701
316.92702
316.927
316.92697
316.92693
316.92687
316.9268
316.92684
316.92689
316.92693
316.92694
316.92694
316.92693
316.9269
316.92686
316.9268
316.92671
325.11904
325.11915
325.11921
325.11924
325.11926
325.11925
325.11923
325.11919
325.11914
325.11907
325.11915
325.11925
325.1193
325.11933
325.11935
325.11934
325.11932
325.11927
325.11921
325.11914
325.11921
325.1193
325.11935
325.11938
325.11939
325.11939
325.11936
325.11932
325.11925
325.11917
325.11924
325.11933
325.11938
325.11941
325.11942
325.11941
325.11939
325.11934
325.11927
325.11919
325.11926
325.11935
325.11939
325.11942
325.11943
325.11942
325.11939
325.11934
325.11928
325.11919
325.11925
325.11934
325.11939
325.11941
325.11942
325.11941
325.11938
325.11933
325.11926
325.11918
325.11923
325.11932
325.11936
325.11939
325.11939
325.11938
325.11935
325.1193
325.11923
325.11914
325.11919
325.11927
325.11932
325.11934
325.11934
325.11933
325.1193
325.11924
325.11917
325.11909
325.11914
325.11921
325.11925
325.11927
325.11928
325.11926
325.11923
325.11917
325.1191
325.11901
325.11907
325.11914
325.11917
325.11919
325.11919
325.11918
325.11914
325.11909
325.11901
325.11892
333.25984
333.25997
333.26003
333.26006
333.26008
333.26007
333.26004
333.26
333.25994
333.25986
333.25997
333.26007
333.26013
333.26017
333.26018
333.26017
333.26014
333.26009
333.26002
333.25993
333.26003
333.26013
333.26019
333.26022
333.26023
333.26022
333.26019
333.26014
333.26007
333.25997
333.26006
333.26017
333.26022
333.26025
333.26026
333.26025
333.26022
333.26016
333.26009
333.25999
333.26008
333.26018
333.26023
333.26026
333.26027
333.26026
333.26022
333.26017
333.26009
333.25999
333.26007
333.26017
333.26022
333.26025
333.26026
333.26024
333.26021
333.26015
333.26007
333.25997
333.26004
333.26014
333.26019
333.26022
333.26022
333.26021
333.26017
333.26011
333.26003
333.25993
333.26
333.26009
333.26014
333.26016
333.26017
333.26015
333.26011
333.26005
333.25997
333.25987
333.25994
333.26002
333.26007
333.26009
333.26009
333.26007
333.26003
333.25997
333.25989
333.25978
333.25986
333.25993
333.25997
333.25999
333.25999
333.25997
333.25993
333.25987
333.25978
333.25967
341.34998
341.35012
341.35018
341.35022
341.35024
341.35023
341.3502
341.35015
341.35008
341.34999
341.35012
341.35023
341.3503
341.35034
341.35035
341.35034
341.35031
341.35025
341.35017
341.35007
341.35018
341.3503
341.35036
341.35039
341.35041
341.35039
341.35036
341.3503
341.35022
341.35011
341.35022
341.35034
341.35039
341.35043
341.35044
341.35043
341.35039
341.35033
341.35024
341.35013
341.35024
341.35035
341.35041
341.35044
341.35045
341.35043
341.35039
341.35033
341.35024
341.35013
341.35023
341.35034
341.35039
341.35043
341.35043
341.35041
341.35037
341.35031
341.35022
341.35011
341.3502
341.35031
341.35036
341.35039
341.35039
341.35037
341.35033
341.35026
341.35018
341.35006
341.35015
341.35025
341.3503
341.35033
341.35033
341.35031
341.35026
341.3502
341.35011
341.34999
341.35008
341.35017
341.35022
341.35024
341.35024
341.35022
341.35018
341.35011
341.35001
341.34989
341.34999
341.35007
341.35011
341.35013
341.35013
341.35011
341.35006
341.34999
341.34989
341.34977
349.39023
349.39038
349.39045
349.39049
349.39051
349.3905
349.39046
349.3904
349.39032
349.39023
349.39038
349.3905
349.39057
349.39061
349.39063
349.39061
349.39058
349.39051
349.39043
349.39031
349.39045
349.39057
349.39064
349.39067
349.39069
349.39067
349.39063
349.39057
349.39048
349.39036
349.39049
349.39061
349.39067
349.39071
349.39072
349.39071
349.39066
349.3906
349.3905
349.39038
349.39051
349.39063
349.39069
349.39072
349.39073
349.39071
349.39067
349.3906
349.3905
349.39038
349.3905
349.39061
349.39067
349.39071
349.39071
349.39069
349.39065
349.39057
349.39048
349.39035
349.39046
349.39058
349.39063
349.39066
349.39067
349.39065
349.3906
349.39052
349.39042
349.3903
349.3904
349.39051
349.39057
349.3906
349.3906
349.39057
349.39052
349.39045
349.39035
349.39022
349.39032
349.39043
349.39048
349.3905
349.3905
349.39048
349.39042
349.39035
349.39024
349.39011
349.39023
349.39031
349.39036
349.39038
349.39038
349.39035
349.3903
349.39022
349.39011
349.38997
357.38135
357.3815
357.38158
357.38162
357.38164
357.38162
357.38158
357.38152
357.38143
357.38134
357.3815
357.38163
357.38171
357.38175
357.38176
357.38175
357.38171
357.38164
357.38155
357.38142
357.38158
357.38171
357.38178
357.38182
357.38183
357.38181
357.38177
357.3817
357.3816
357.38147
357.38162
357.38175
357.38182
357.38185
357.38186
357.38185
357.3818
357.38173
357.38162
357.38149
357.38164
357.38176
357.38183
357.38186
357.38187
357.38185
357.3818
357.38173
357.38162
357.38149
357.38162
357.38175
357.38181
357.38185
357.38185
357.38183
357.38178
357.3817
357.38159
357.38146
357.38158
357.38171
357.38177
357.3818
357.3818
357.38178
357.38173
357.38165
357.38154
357.3814
357.38152
357.38164
357.3817
357.38173
357.38173
357.3817
357.38165
357.38156
357.38145
357.38131
357.38143
357.38155
357.3816
357.38162
357.38162
357.38159
357.38154
357.38145
357.38134
357.3812
357.38134
357.38142
357.38147
357.38149
357.38149
357.38146
357.3814
357.38131
357.3812
357.38105
365.32407
365.32423
365.32431
365.32436
365.32437
365.32436
365.32431
365.32424
365.32415
365.32405
365.32423
365.32437
365.32445
365.32449
365.3245
365.32449
365.32444
365.32437
365.32427
365.32414
365.32431
365.32445
365.32452
365.32456
365.32457
365.32455
365.32451
365.32443
365.32432
365.32418
365.32436
365.32449
365.32456
365.3246
365.32461
365.32459
365.32454
365.32446
365.32435
365.32421
365.32437
365.3245
365.32457
365.32461
365.32462
365.32459
365.32454
365.32446
365.32435
365.3242
365.32436
365.32449
365.32455
365.32459
365.32459
365.32457
365.32451
365.32443
365.32432
365.32417
365.32431
365.32444
365.32451
365.32454
365.32454
365.32451
365.32446
365.32437
365.32425
365.32411
365.32424
365.32437
365.32443
365.32446
365.32446
365.32443
365.32437
365.32428
365.32416
365.32401
365.32415
365.32427
365.32432
365.32435
365.32435
365.32432
365.32425
365.32416
365.32404
365.32389
365.32405
365.32414
365.32418
365.32421
365.3242
365.32417
365.32411
365.32401
365.32389
365.32373
373.21913
373.2193
373.21938
373.21943
373.21944
373.21943
373.21938
373.21931
373.21921
373.21909
373.2193
373.21944
373.21952
373.21957
373.21958
373.21956
373.21952
373.21944
373.21933
373.21919
373.21938
373.21952
373.2196
373.21964
373.21965
373.21963
373.21958
373.2195
373.21939
373.21924
373.21943
373.21957
373.21964
373.21968
373.21969
373.21967
373.21961
373.21953
373.21941
373.21926
373.21944
373.21958
373.21965
373.21969
373.2197
373.21967
373.21962
373.21953
373.21941
373.21926
373.21943
373.21956
373.21963
373.21967
373.21967
373.21964
373.21959
373.2195
373.21937
373.21922
373.21938
373.21952
373.21958
373.21961
373.21962
373.21959
373.21952
373.21943
373.21931
373.21915
373.21931
373.21944
373.2195
373.21953
373.21953
373.2195
373.21943
373.21934
373.21921
373.21905
373.21921
373.21933
373.21939
373.21941
373.21941
373.21937
373.21931
373.21921
373.21908
373.21892
373.21909
373.21919
373.21924
373.21926
373.21926
373.21922
373.21915
373.21905
373.21892
373.21875
381.06725
381.06742
381.06751
381.06756
381.06757
381.06755
381.0675
381.06743
381.06732
381.0672
381.06742
381.06758
381.06766
381.0677
381.06772
381.0677
381.06764
381.06756
381.06745
381.0673
381.06751
381.06766
381.06773
381.06778
381.06779
381.06777
381.06771
381.06762
381.0675
381.06735
381.06756
381.0677
381.06778
381.06782
381.06783
381.0678
381.06774
381.06765
381.06753
381.06737
381.06757
381.06772
381.06779
381.06783
381.06783
381.06781
381.06775
381.06765
381.06753
381.06737
381.06755
381.0677
381.06777
381.0678
381.06781
381.06778
381.06771
381.06762
381.06749
381.06733
381.0675
381.06764
381.06771
381.06774
381.06775
381.06771
381.06765
381.06755
381.06742
381.06726
381.06743
381.06756
381.06762
381.06765
381.06765
381.06762
381.06755
381.06745
381.06732
381.06715
381.06732
381.06745
381.0675
381.06753
381.06753
381.06749
381.06742
381.06732
381.06718
381.06701
381.0672
381.0673
381.06735
381.06737
381.06737
381.06733
381.06726
381.06715
381.06701
381.06683
388.86914
388.86932
388.86941
388.86946
388.86947
388.86945
388.8694
388.86932
388.86921
388.86908
388.86932
388.86948
388.86956
388.86961
388.86962
388.8696
388.86954
388.86946
388.86934
388.86918
388.86941
388.86956
388.86964
388.86968
388.86969
388.86967
388.86961
388.86952
388.86939
388.86923
388.86946
388.86961
388.86968
388.86972
388.86973
388.86971
388.86964
388.86955
388.86942
388.86926
388.86947
388.86962
388.86969
388.86973
388.86974
388.86971
388.86964
388.86955
388.86941
388.86925
388.86945
388.8696
388.86967
388.86971
388.86971
388.86968
388.86961
388.86951
388.86938
388.86921
388.8694
388.86954
388.86961
388.86964
388.86964
388.86961
388.86954
388.86944
388.8693
388.86913
388.86932
388.86946
388.86952
388.86955
388.86955
388.86951
388.86944
388.86933
388.8692
388.86902
388.86921
388.86934
388.86939
388.86942
388.86941
388.86938
388.8693
388.8692
388.86905
388.86888
388.86908
388.86918
388.86923
388.86926
388.86925
388.86921
388.86913
388.86902
388.86888
388.86869
396.62551
396.62569
396.62578
396.62583
396.62584
396.62582
396.62577
396.62568
396.62557
396.62544
396.62569
396.62585
396.62594
396.62598
396.62599
396.62597
396.62591
396.62582
396.6257
396.62554
396.62578
396.62594
396.62602
396.62606
396.62607
396.62604
396.62598
396.62589
396.62576
396.62559
396.62583
396.62598
396.62606
396.6261
396.62611
396.62608
396.62602
396.62592
396.62579
396.62562
396.62584
396.62599
396.62607
396.62611
396.62611
396.62608
396.62602
396.62592
396.62578
396.62561
396.62582
396.62597
396.62604
396.62608
396.62608
396.62605
396.62598
396.62588
396.62574
396.62556
396.62577
396.62591
396.62598
396.62602
396.62602
396.62598
396.62591
396.6258
396.62566
396.62549
396.62568
396.62582
396.62589
396.62592
396.62592
396.62588
396.6258
396.62569
396.62555
396.62537
396.62557
396.6257
396.62576
396.62579
396.62578
396.62574
396.62566
396.62555
396.6254
396.62522
396.62544
396.62554
396.62559
396.62562
396.62561
396.62556
396.62549
396.62537
396.62522
396.62502
404.33705
404.33724
404.33733
404.33738
404.33739
404.33737
404.33731
404.33722
404.3371
404.33697
404.33724
404.3374
404.33748
404.33753
404.33754
404.33752
404.33746
404.33736
404.33724
404.33707
404.33733
404.33748
404.33756
404.33761
404.33762
404.33759
404.33753
404.33743
404.3373
404.33713
404.33738
404.33753
404.33761
404.33765
404.33766
404.33763
404.33756
404.33746
404.33732
404.33715
404.33739
404.33754
404.33762
404.33766
404.33766
404.33763
404.33756
404.33745
404.33731
404.33714
404.33737
404.33752
404.33759
404.33763
404.33763
404.33759
404.33752
404.33741
404.33727
404.33709
404.33731
404.33746
404.33753
404.33756
404.33756
404.33752
404.33745
404.33734
404.33719
404.33701
404.33722
404.33736
404.33743
404.33746
404.33745
404.33741
404.33734
404.33723
404.33708
404.3369
404.3371
404.33724
404.3373
404.33732
404.33731
404.33727
404.33719
404.33708
404.33693
404.33674
404.33697
404.33707
404.33713
404.33715
404.33714
404.33709
404.33701
404.3369
404.33674
404.33654
412.00446
412.00464
412.00473
412.00478
412.0048
412.00477
412.00471
412.00462
412.0045
412.00437
412.00464
412.00481
412.00489
412.00494
412.00495
412.00492
412.00486
412.00477
412.00464
412.00447
412.00473
412.00489
412.00497
412.00502
412.00503
412.005
412.00493
412.00483
412.0047
412.00452
412.00478
412.00494
412.00502
412.00506
412.00506
412.00503
412.00497
412.00486
412.00472
412.00454
412.0048
412.00495
412.00503
412.00506
412.00507
412.00503
412.00496
412.00486
412.00471
412.00453
412.00477
412.00492
412.005
412.00503
412.00503
412.005
412.00492
412.00481
412.00467
412.00449
412.00471
412.00486
412.00493
412.00497
412.00496
412.00492
412.00485
412.00474
412.00459
412.0044
412.00462
412.00477
412.00483
412.00486
412.00486
412.00481
412.00474
412.00462
412.00447
412.00428
412.0045
412.00464
412.0047
412.00472
412.00471
412.00467
412.00459
412.00447
412.00432
412.00412
412.00437
412.00447
412.00452
412.00454
412.00453
412.00449
412.0044
412.00428
412.00412
412.00392
419.62841
419.6286
419.62869
419.62874
419.62875
419.62872
419.62866
419.62857
419.62845
419.62831
419.6286
419.62876
419.62885
419.62889
419.6289
419.62888
419.62881
419.62872
419.62859
419.62842
419.62869
419.62885
419.62893
419.62897
419.62898
419.62895
419.62888
419.62878
419.62864
419.62847
419.62874
419.62889
419.62897
419.62901
419.62902
419.62898
419.62892
419.62881
419.62867
419.62849
419.62875
419.6289
419.62898
419.62902
419.62902
419.62898
419.62891
419.6288
419.62866
419.62848
419.62872
419.62888
419.62895
419.62898
419.62898
419.62894
419.62887
419.62876
419.62861
419.62843
419.62866
419.62881
419.62888
419.62892
419.62891
419.62887
419.62879
419.62868
419.62853
419.62834
419.62857
419.62872
419.62878
419.62881
419.6288
419.62876
419.62868
419.62856
419.62841
419.62822
419.62845
419.62859
419.62864
419.62867
419.62866
419.62861
419.62853
419.62841
419.62825
419.62806
419.62831
419.62842
419.62847
419.62849
419.62848
419.62843
419.62834
419.62822
419.62806
419.62785
427.20959
427.20978
427.20987
427.20992
427.20993
427.2099
427.20984
427.20975
427.20963
427.20949
427.20978
427.20994
427.21003
427.21007
427.21008
427.21005
427.20999
427.20989
427.20976
427.20959
427.20987
427.21003
427.21011
427.21015
427.21015
427.21012
427.21006
427.20996
427.20982
427.20964
427.20992
427.21007
427.21015
427.21019
427.21019
427.21016
427.21009
427.20998
427.20984
427.20966
427.20993
427.21008
427.21015
427.21019
427.21019
427.21016
427.21008
427.20997
427.20983
427.20964
427.2099
427.21005
427.21012
427.21016
427.21016
427.21012
427.21004
427.20993
427.20978
427.2096
427.20984
427.20999
427.21006
427.21009
427.21008
427.21004
427.20996
427.20985
427.2097
427.20951
427.20975
427.20989
427.20996
427.20998
427.20997
427.20993
427.20985
427.20973
427.20958
427.20939
427.20963
427.20976
427.20982
427.20984
427.20983
427.20978
427.2097
427.20958
427.20942
427.20923
427.20949
427.20959
427.20964
427.20966
427.20964
427.2096
427.20951
427.20939
427.20923
427.20902
434.74868
434.74886
434.74895
434.74899
434.749
434.74898
434.74892
434.74882
434.7487
434.74856
434.74886
434.74902
434.7491
434.74915
434.74915
434.74913
434.74906
434.74896
434.74883
434.74866
434.74895
434.7491
434.74918
434.74922
434.74923
434.7492
434.74913
434.74903
434.74889
434.74871
434.74899
434.74915
434.74922
434.74926
434.74926
434.74923
434.74916
434.74905
434.74891
434.74873
434.749
434.74915
434.74923
434.74926
434.74926
434.74923
434.74915
434.74904
434.7489
434.74872
434.74898
434.74913
434.7492
434.74923
434.74923
434.74919
434.74911
434.749
434.74885
434.74867
434.74892
434.74906
434.74913
434.74916
434.74915
434.74911
434.74903
434.74892
434.74877
434.74858
434.74882
434.74896
434.74903
434.74905
434.74904
434.749
434.74892
434.7488
434.74865
434.74846
434.7487
434.74883
434.74889
434.74891
434.7489
434.74885
434.74877
434.74865
434.74849
434.7483
434.74856
434.74866
434.74871
434.74873
434.74872
434.74867
434.74858
434.74846
434.7483
434.74809
442.24633
442.24651
442.24659
442.24664
442.24665
442.24662
442.24656
442.24646
442.24634
442.24621
442.24651
442.24667
442.24675
442.24679
442.2468
442.24677
442.2467
442.2466
442.24647
442.2463
442.24659
442.24675
442.24682
442.24686
442.24687
442.24684
442.24677
442.24667
442.24653
442.24635
442.24664
442.24679
442.24686
442.2469
442.2469
442.24687
442.2468
442.24669
442.24655
442.24637
442.24665
442.2468
442.24687
442.2469
442.2469
442.24686
442.24679
442.24668
442.24654
442.24635
442.24662
442.24677
442.24684
442.24687
442.24686
442.24682
442.24675
442.24664
442.24649
442.2463
442.24656
442.2467
442.24677
442.2468
442.24679
442.24675
442.24667
442.24655
442.2464
442.24622
442.24646
442.2466
442.24667
442.24669
442.24668
442.24664
442.24655
442.24644
442.24628
442.2461
442.24634
442.24647
442.24653
442.24655
442.24654
442.24649
442.2464
442.24628
442.24613
442.24594
442.24621
442.2463
442.24635
442.24637
442.24635
442.2463
442.24622
442.2461
442.24594
442.24573
449.70321
449.70339
449.70347
449.70351
449.70352
449.70349
449.70343
449.70334
449.70322
449.70308
449.70339
449.70354
449.70362
449.70366
449.70366
449.70364
449.70357
449.70348
449.70335
449.70318
449.70347
449.70362
449.70369
449.70373
449.70373
449.7037
449.70364
449.70353
449.7034
449.70322
449.70351
449.70366
449.70373
449.70377
449.70377
449.70373
449.70366
449.70356
449.70342
449.70324
449.70352
449.70366
449.70373
449.70377
449.70377
449.70373
449.70366
449.70355
449.7034
449.70322
449.70349
449.70364
449.7037
449.70373
449.70373
449.70369
449.70361
449.7035
449.70336
449.70318
449.70343
449.70357
449.70364
449.70366
449.70366
449.70361
449.70353
449.70342
449.70327
449.70309
449.70334
449.70348
449.70353
449.70356
449.70355
449.7035
449.70342
449.70331
449.70315
449.70297
449.70322
449.70335
449.7034
449.70342
449.7034
449.70336
449.70327
449.70315
449.703
449.70281
449.70308
449.70318
449.70322
449.70324
449.70322
449.70318
449.70309
449.70297
449.70281
449.70261
457.11998
457.12015
457.12024
457.12028
457.12028
457.12025
457.12019
457.1201
457.11999
457.11985
457.12015
457.1203
457.12038
457.12042
457.12042
457.12039
457.12033
457.12023
457.12011
457.11994
457.12024
457.12038
457.12045
457.12049
457.12049
457.12046
457.12039
457.12029
457.12016
457.11999
457.12028
457.12042
457.12049
457.12052
457.12052
457.12049
457.12042
457.12031
457.12018
457.12
457.12028
457.12042
457.12049
457.12052
457.12052
457.12048
457.12041
457.1203
457.12016
457.11999
457.12025
457.12039
457.12046
457.12049
457.12048
457.12044
457.12037
457.12026
457.12011
457.11994
457.12019
457.12033
457.12039
457.12042
457.12041
457.12037
457.12029
457.12018
457.12003
457.11985
457.1201
457.12023
457.12029
457.12031
457.1203
457.12026
457.12018
457.12006
457.11992
457.11973
457.11999
457.12011
457.12016
457.12018
457.12016
457.12011
457.12003
457.11992
457.11976
457.11958
457.11985
457.11994
457.11999
457.12
457.11999
457.11994
457.11985
457.11973
457.11958
457.11938
464.4973
464.49747
464.49754
464.49758
464.49759
464.49756
464.4975
464.49741
464.4973
464.49717
464.49747
464.49761
464.49768
464.49772
464.49772
464.49769
464.49763
464.49754
464.49741
464.49725
464.49754
464.49768
464.49775
464.49778
464.49779
464.49775
464.49769
464.49759
464.49746
464.49729
464.49758
464.49772
464.49778
464.49782
464.49781
464.49778
464.49771
464.49761
464.49748
464.49731
464.49759
464.49772
464.49779
464.49781
464.49781
464.49777
464.4977
464.4976
464.49746
464.49729
464.49756
464.49769
464.49775
464.49778
464.49777
464.49773
464.49766
464.49756
464.49742
464.49724
464.4975
464.49763
464.49769
464.49771
464.4977
464.49766
464.49759
464.49748
464.49734
464.49716
464.49741
464.49754
464.49759
464.49761
464.4976
464.49756
464.49748
464.49737
464.49722
464.49705
464.4973
464.49741
464.49746
464.49748
464.49746
464.49742
464.49734
464.49722
464.49707
464.49689
464.49717
464.49725
464.49729
464.49731
464.49729
464.49724
464.49716
464.49705
464.49689
464.4967
471.83581
471.83597
471.83604
471.83608
471.83608
471.83605
471.836
471.83591
471.8358
471.83567
471.83597
471.83611
471.83617
471.83621
471.83621
471.83618
471.83612
471.83603
471.83591
471.83576
471.83604
471.83617
471.83624
471.83627
471.83627
471.83624
471.83618
471.83608
471.83596
471.83579
471.83608
471.83621
471.83627
471.8363
471.8363
471.83626
471.8362
471.8361
471.83597
471.83581
471.83608
471.83621
471.83627
471.8363
471.83629
471.83626
471.83619
471.83609
471.83596
471.83579
471.83605
471.83618
471.83624
471.83626
471.83626
471.83622
471.83615
471.83604
471.83591
471.83574
471.836
471.83612
471.83618
471.8362
471.83619
471.83615
471.83607
471.83597
471.83583
471.83566
471.83591
471.83603
471.83608
471.8361
471.83609
471.83604
471.83597
471.83586
471.83572
471.83555
471.8358
471.83591
471.83596
471.83597
471.83596
471.83591
471.83583
471.83572
471.83558
471.8354
471.83567
471.83576
471.83579
471.83581
471.83579
471.83574
471.83566
471.83555
471.8354
471.83521
479.13616
479.13631
479.13638
479.13641
479.13641
479.13639
479.13633
479.13624
479.13614
479.13602
479.13631
479.13644
479.1365
479.13653
479.13653
479.13651
479.13645
479.13636
479.13624
479.1361
479.13638
479.1365
479.13656
479.13659
479.13659
479.13656
479.1365
479.13641
479.13629
479.13613
479.13641
479.13653
479.13659
479.13662
479.13662
479.13658
479.13652
479.13643
479.1363
479.13614
479.13641
479.13653
479.13659
479.13662
479.13661
479.13658
479.13651
479.13641
479.13628
479.13613
479.13639
479.13651
479.13656
479.13658
479.13658
479.13654
479.13647
479.13637
479.13624
479.13608
479.13633
479.13645
479.1365
479.13652
479.13651
479.13647
479.1364
479.1363
479.13616
479.136
479.13624
479.13636
479.13641
479.13643
479.13641
479.13637
479.1363
479.13619
479.13606
479.13589
479.13614
479.13624
479.13629
479.1363
479.13628
479.13624
479.13616
479.13606
479.13592
479.13575
479.13602
479.1361
479.13613
479.13614
479.13613
479.13608
479.136
479.13589
479.13575
479.13557
486.39898
486.39912
486.39918
486.39922
486.39922
486.39919
486.39914
486.39905
486.39895
486.39884
486.39912
486.39924
486.3993
486.39933
486.39933
486.3993
486.39925
486.39916
486.39905
486.39891
486.39918
486.3993
486.39936
486.39939
486.39938
486.39935
486.39929
486.39921
486.39909
486.39894
486.39922
486.39933
486.39939
486.39941
486.39941
486.39937
486.39931
486.39922
486.3991
486.39895
486.39922
486.39933
486.39938
486.39941
486.3994
486.39937
486.3993
486.39921
486.39909
486.39894
486.39919
486.3993
486.39935
486.39937
486.39937
486.39933
486.39926
486.39917
486.39904
486.39889
486.39914
486.39925
486.39929
486.39931
486.3993
486.39926
486.3992
486.3991
486.39897
486.39882
486.39905
486.39916
486.39921
486.39922
486.39921
486.39917
486.3991
486.399
486.39887
486.39871
486.39895
486.39905
486.39909
486.3991
486.39909
486.39904
486.39897
486.39887
486.39874
486.39858
486.39884
486.39891
486.39894
486.39895
486.39894
486.39889
486.39882
486.39871
486.39858
486.3984
493.62491
493.62504
493.6251
493.62513
493.62513
493.6251
493.62505
493.62497
493.62488
493.62477
493.62504
493.62515
493.62521
493.62523
493.62523
493.62521
493.62515
493.62507
493.62497
493.62483
493.6251
493.62521
493.62526
493.62528
493.62528
493.62525
493.6252
493.62511
493.625
493.62486
493.62513
493.62523
493.62528
493.62531
493.6253
493.62527
493.62521
493.62513
493.62501
493.62487
493.62513
493.62523
493.62528
493.6253
493.6253
493.62526
493.6252
493.62511
493.625
493.62485
493.6251
493.62521
493.62525
493.62527
493.62526
493.62523
493.62516
493.62507
493.62496
493.62481
493.62505
493.62515
493.6252
493.62521
493.6252
493.62516
493.6251
493.62501
493.62489
493.62474
493.62497
493.62507
493.62511
493.62513
493.62511
493.62507
493.62501
493.62491
493.62479
493.62464
493.62488
493.62497
493.625
493.62501
493.625
493.62496
493.62489
493.62479
493.62467
493.62452
493.62477
493.62483
493.62486
493.62487
493.62485
493.62481
493.62474
493.62464
493.62452
493.62435
500.81457
500.81469
500.81475
500.81477
500.81477
500.81475
500.8147
500.81462
500.81453
500.81443
500.81469
500.8148
500.81485
500.81487
500.81487
500.81484
500.81479
500.81472
500.81462
500.81449
500.81475
500.81485
500.81489
500.81492
500.81491
500.81488
500.81483
500.81475
500.81465
500.81452
500.81477
500.81487
500.81492
500.81494
500.81493
500.8149
500.81485
500.81476
500.81466
500.81453
500.81477
500.81487
500.81491