/*--------------------------------*- C++ -*----------------------------------*\
| =========                 |                                                 |
| \\      /  F ield         | OpenFOAM: The Open Source CFD Toolbox           |
|  \\    /   O peration     | Version:  v2106                                 |
|   \\  /    A nd           | Website:  www.openfoam.com                      |
|    \\/     M anipulation  |                                                 |
\*---------------------------------------------------------------------------*/
FoamFile
{
    version     2.0;
    format      ascii;
    arch        "LSB;label=32;scalar=64";
    class       volVectorField;
    location    "12.5";
    object      gradT;
}
// * * * * * * * * * * * * * * * * * * * * * * * * * * * * * * * * * * * * * //

dimensions      [0 -1 0 1 0 0 0];

internalField   nonuniform List<vector> 
4000
(
(3.7492196e-05 3.7492197e-05 937.45344)
(0.00038987585 0.00032772088 937.45369)
(-0.00024459352 -4.8160101e-05 937.45483)
(-0.00065373501 2.9180512e-05 937.45226)
(-1.8069264e-05 5.7657259e-05 937.45186)
(0.00014548669 6.4640387e-05 937.45214)
(0.00018391086 6.9664103e-05 937.4526)
(0.00017871222 7.6933738e-05 937.4531)
(0.00013010323 7.4456766e-05 937.45355)
(3.14999e-05 4.300134e-05 937.45382)
(0.00032772088 0.00038987586 937.45369)
(0.00026139741 0.00026139741 937.45528)
(-0.00069240407 -0.00020490625 937.4543)
(-0.00049500897 -3.8176143e-05 937.45219)
(3.5120549e-05 1.8832336e-05 937.45199)
(0.00016349695 3.444614e-05 937.45231)
(0.00020235088 5.3531788e-05 937.45281)
(0.00018590122 9.4876525e-05 937.45337)
(7.920463e-05 0.00012967401 937.45377)
(4.4474291e-08 6.7154675e-05 937.45381)
(-4.8160101e-05 -0.00024459351 937.45483)
(-0.00020490625 -0.00069240408 937.4543)
(-0.00054416707 -0.00054416706 937.45365)
(-0.00042999643 -0.00047585819 937.45176)
(5.4553019e-05 -0.0004578091 937.45162)
(0.00018018614 -0.0004535574 937.45197)
(0.00024434124 -0.00044013663 937.45253)
(0.00025485445 -0.00039035552 937.45326)
(0.00010238138 -0.00029441117 937.45385)
(-1.0179658e-05 -0.00022510782 937.45379)
(2.9180507e-05 -0.00065373501 937.45226)
(-3.8176144e-05 -0.00049500897 937.45219)
(-0.00047585819 -0.00042999643 937.45176)
(-0.00040865101 -0.00040865101 937.44995)
(5.7421343e-05 -0.00040623262 937.44983)
(0.00018116943 -0.00041138391 937.45018)
(0.00026555276 -0.00041630752 937.45075)
(0.00033162667 -0.00040499661 937.45158)
(0.00024445233 -0.00035308325 937.45245)
(4.6246707e-05 -0.00027035364 937.45279)
(5.765726e-05 -1.8069262e-05 937.45186)
(1.8832329e-05 3.5120561e-05 937.45199)
(-0.0004578091 5.4553017e-05 937.45162)
(-0.00040623261 5.7421339e-05 937.44983)
(5.1820119e-05 5.1820125e-05 937.44971)
(0.00017011123 4.2800909e-05 937.45003)
(0.00025072854 3.0532578e-05 937.45057)
(0.00031807871 1.5941466e-05 937.45137)
(0.00023702434 3.0027848e-06 937.45222)
(4.4973416e-05 -6.3606863e-06 937.45256)
(6.464039e-05 0.00014548668 937.45214)
(3.4446135e-05 0.00016349694 937.45231)
(-0.00045355741 0.00018018614 937.45197)
(-0.00041138391 0.00018116942 937.45018)
(4.2800913e-05 0.00017011123 937.45003)
(0.00015988189 0.00015988189 937.45033)
(0.00023869332 0.00015042353 937.45084)
(0.00030409688 0.00014071788 937.45161)
(0.00022215018 0.00013066623 937.45243)
(4.0004393e-05 0.00012131861 937.45274)
(6.9664101e-05 0.00018391085 937.4526)
(5.3531785e-05 0.00020235087 937.45281)
(-0.00044013663 0.00024434125 937.45253)
(-0.00041630752 0.00026555277 937.45075)
(3.0532584e-05 0.00025072854 937.45057)
(0.00015042353 0.00023869332 937.45084)
(0.00023156453 0.00023156453 937.45133)
(0.00029832142 0.00022728733 937.45208)
(0.00021762507 0.00022429294 937.45288)
(3.8741666e-05 0.00022258508 937.45319)
(7.6933736e-05 0.00017871222 937.4531)
(9.4876526e-05 0.00018590122 937.45337)
(-0.00039035552 0.00025485444 937.45326)
(-0.00040499661 0.00033162668 937.45158)
(1.594147e-05 0.00031807871 937.45137)
(0.00014071788 0.00030409688 937.45161)
(0.00022728733 0.00029832142 937.45208)
(0.00029682528 0.00029682528 937.45282)
(0.00021744793 0.0002950617 937.45362)
(3.8865823e-05 0.00029147108 937.45393)
(7.4456764e-05 0.00013010323 937.45355)
(0.00012967401 7.9204629e-05 937.45377)
(-0.00029441117 0.00010238138 937.45385)
(-0.00035308325 0.00024445233 937.45245)
(3.0027864e-06 0.00023702434 937.45222)
(0.00013066623 0.00022215018 937.45243)
(0.00022429293 0.00021762506 937.45288)
(0.0002950617 0.00021744793 937.45362)
(0.00021227087 0.00021227087 937.45442)
(3.6347919e-05 0.00019654301 937.45469)
(4.3001338e-05 3.1499901e-05 937.45382)
(6.7154676e-05 4.4474187e-08 937.45381)
(-0.00022510781 -1.0179653e-05 937.45379)
(-0.00027035365 4.624671e-05 937.45279)
(-6.3606876e-06 4.4973419e-05 937.45256)
(0.0001213186 4.0004394e-05 937.45274)
(0.00022258508 3.8741664e-05 937.45319)
(0.00029147109 3.8865826e-05 937.45393)
(0.00019654301 3.634792e-05 937.45469)
(2.8380583e-05 2.8380584e-05 937.45488)
(0.00014149207 0.00014149207 1376.9859)
(0.00092085197 0.00060173894 1376.9855)
(-0.0014202802 -0.00038448415 1376.9855)
(-0.0024884491 -0.00014889424 1376.983)
(-0.00011668319 -5.2017994e-05 1376.9826)
(0.00066295017 -2.4194239e-05 1376.9829)
(0.00089293259 2.2012468e-06 1376.9836)
(0.00088507604 3.8889908e-05 1376.9844)
(0.00067611924 5.3368214e-06 1376.985)
(0.00017593162 -0.00013421321 1376.9856)
(0.00060173894 0.00092085197 1376.9855)
(0.00013188764 0.00013188764 1376.9858)
(-0.00254623 -0.0011517038 1376.9846)
(-0.0019897499 -0.00062951776 1376.9825)
(7.0366809e-05 -0.00042384894 1376.9822)
(0.00074427903 -0.00035661161 1376.9826)
(0.00098755881 -0.0002577698 1376.9833)
(0.0008897794 -4.9086528e-05 1376.9842)
(0.00041646456 6.1524177e-05 1376.9847)
(3.6381588e-05 -0.00023792674 1376.9849)
(-0.00038448415 -0.0014202802 1376.9855)
(-0.0011517038 -0.00254623 1376.9846)
(-0.0021816856 -0.0021816856 1376.9835)
(-0.0017605942 -0.0019392877 1376.9816)
(0.00015622295 -0.0018597044 1376.9814)
(0.00082902931 -0.0018374491 1376.9818)
(0.0012004577 -0.0017673115 1376.9827)
(0.00120437 -0.0015156737 1376.9838)
(0.00048727903 -0.001096769 1376.9846)
(-2.3702324e-05 -0.00085341447 1376.9847)
(-0.00014889424 -0.0024884491 1376.983)
(-0.00062951776 -0.0019897498 1376.9825)
(-0.0019392877 -0.0017605942 1376.9816)
(-0.0016677686 -0.0016677686 1376.9797)
(0.00017220546 -0.0016536937 1376.9795)
(0.00083667186 -0.0016771044 1376.98)
(0.0013093342 -0.0016972961 1376.9808)
(0.0015603219 -0.0016293726 1376.9821)
(0.0010787238 -0.0013790094 1376.9832)
(0.00019861794 -0.0010314135 1376.9837)
(-5.2017994e-05 -0.00011668319 1376.9826)
(-0.00042384894 7.036682e-05 1376.9822)
(-0.0018597044 0.00015622296 1376.9814)
(-0.0016536937 0.00017220546 1376.9795)
(0.00014688715 0.00014688715 1376.9793)
(0.00078542692 0.00010351833 1376.9797)
(0.0012481895 4.601562e-05 1376.9805)
(0.0015226567 -1.3886364e-05 1376.9818)
(0.0010852381 -5.1720832e-05 1376.9829)
(0.0002080283 -6.4253844e-05 1376.9834)
(-2.4194237e-05 0.00066295017 1376.9829)
(-0.00035661161 0.00074427903 1376.9826)
(-0.0018374491 0.0008290293 1376.9818)
(-0.0016771044 0.00083667186 1376.98)
(0.00010351833 0.00078542691 1376.9797)
(0.00073580034 0.00073580033 1376.9801)
(0.0011919295 0.00069022367 1376.9808)
(0.0014625855 0.00064583272 1376.9821)
(0.0010283563 0.00060438564 1376.9832)
(0.0001902626 0.00057151967 1376.9836)
(2.2012431e-06 0.00089293258 1376.9836)
(-0.00025776981 0.00098755881 1376.9833)
(-0.0017673115 0.0012004577 1376.9827)
(-0.0016972961 0.0013093342 1376.9808)
(4.6015623e-05 0.0012481895 1376.9805)
(0.00069022367 0.0011919295 1376.9808)
(0.0011582219 0.0011582219 1376.9816)
(0.0014368187 0.0011387326 1376.9828)
(0.0010109251 0.0011255813 1376.9839)
(0.00018611766 0.001119432 1376.9843)
(3.8889916e-05 0.00088507604 1376.9844)
(-4.9086521e-05 0.0008897794 1376.9842)
(-0.0015156737 0.00120437 1376.9838)
(-0.0016293726 0.001560322 1376.9821)
(-1.3886363e-05 0.0015226567 1376.9818)
(0.00064583272 0.0014625855 1376.9821)
(0.0011387326 0.0014368187 1376.9828)
(0.0014299448 0.0014299448 1376.984)
(0.0010090557 0.001415968 1376.9851)
(0.00018616311 0.0013823741 1376.9855)
(5.3368183e-06 0.00067611925 1376.985)
(6.1524173e-05 0.00041646456 1376.9847)
(-0.001096769 0.00048727903 1376.9846)
(-0.0013790094 0.0010787238 1376.9832)
(-5.1720839e-05 0.0010852381 1376.9829)
(0.00060438565 0.0010283563 1376.9832)
(0.0011255813 0.0010109251 1376.9839)
(0.001415968 0.0010090557 1376.9851)
(0.00096335431 0.00096335431 1376.9861)
(0.00016372169 0.00083417528 1376.9864)
(-0.00013421321 0.00017593162 1376.9856)
(-0.00023792674 3.6381591e-05 1376.9849)
(-0.00085341447 -2.370232e-05 1376.9847)
(-0.0010314135 0.00019861794 1376.9837)
(-6.4253846e-05 0.0002080283 1376.9834)
(0.00057151968 0.0001902626 1376.9836)
(0.001119432 0.00018611766 1376.9843)
(0.0013823741 0.00018616311 1376.9855)
(0.00083417528 0.0001637217 1376.9864)
(0.00010004375 0.00010004375 1376.9866)
(-0.00019090363 -0.00019090363 1355.2301)
(6.4656245e-05 0.00053242031 1355.2291)
(-0.0027489 -0.00066836724 1355.2285)
(-0.0036229403 -0.00034303728 1355.2268)
(-9.3189787e-05 -0.00020896035 1355.2265)
(0.0011903195 -0.00016775944 1355.2269)
(0.0016382988 -0.00011173903 1355.2276)
(0.0016163902 -2.3098241e-05 1355.2285)
(0.0013593821 -0.00014411254 1355.229)
(0.00041387326 -0.00046944183 1355.2297)
(0.00053242031 6.4656239e-05 1355.2291)
(-0.00065153918 -0.00065153918 1355.2288)
(-0.0040620864 -0.0021951797 1355.2276)
(-0.0029338299 -0.0014701209 1355.2261)
(0.00016972699 -0.0011832993 1355.226)
(0.0013361515 -0.0010875056 1355.2264)
(0.0018552906 -0.00089976343 1355.2272)
(0.00156783 -0.00045491798 1355.2283)
(0.0006898667 -0.00029826237 1355.2287)
(8.8543974e-05 -0.00088656542 1355.2288)
(-0.00066836724 -0.0027489 1355.2285)
(-0.0021951797 -0.0040620864 1355.2276)
(-0.0035674818 -0.0035674818 1355.2265)
(-0.0026110599 -0.0032225414 1355.2252)
(0.00028942553 -0.0031111519 1355.2251)
(0.0014738554 -0.0030909729 1355.2255)
(0.0022708864 -0.0029813879 1355.2264)
(0.0022178913 -0.002514788 1355.2277)
(0.00092773463 -0.0017709816 1355.2285)
(2.1671225e-05 -0.0013826858 1355.2286)
(-0.00034303729 -0.0036229402 1355.2268)
(-0.0014701209 -0.0029338299 1355.2261)
(-0.0032225414 -0.0026110599 1355.2252)
(-0.0024775 -0.0024775 1355.2239)
(0.00030129544 -0.0024641058 1355.2238)
(0.0014659155 -0.0025158281 1355.2242)
(0.0024314756 -0.0025662564 1355.225)
(0.0027782362 -0.0024610444 1355.2265)
(0.0018219689 -0.0020618749 1355.2275)
(0.0003474079 -0.0015462043 1355.2279)
(-0.00020896035 -9.3189787e-05 1355.2265)
(-0.0011832993 0.00016972698 1355.226)
(-0.0031111519 0.00028942554 1355.2251)
(-0.0024641058 0.00030129545 1355.2238)
(0.00025109748 0.00025109747 1355.2236)
(0.0013717048 0.00017125122 1355.224)
(0.0023256701 6.8696981e-05 1355.2248)
(0.0027222728 -2.9896633e-05 1355.2262)
(0.0018425747 -8.1722157e-05 1355.2272)
(0.00036545164 -9.0111663e-05 1355.2276)
(-0.00016775944 0.0011903195 1355.2269)
(-0.0010875056 0.0013361515 1355.2264)
(-0.0030909729 0.0014738554 1355.2255)
(-0.0025158281 0.0014659155 1355.2242)
(0.00017125121 0.0013717048 1355.224)
(0.001283515 0.001283515 1355.2243)
(0.0022303277 0.0012054088 1355.2251)
(0.0026278171 0.0011347403 1355.2265)
(0.0017617539 0.0010763189 1355.2275)
(0.00034181489 0.0010411184 1355.2279)
(-0.00011173904 0.0016382988 1355.2276)
(-0.00089976343 0.0018552906 1355.2272)
(-0.0029813879 0.0022708864 1355.2264)
(-0.0025662564 0.0024314756 1355.225)
(6.8696986e-05 0.0023256701 1355.2248)
(0.0012054088 0.0022303277 1355.2251)
(0.0021768954 0.0021768954 1355.2258)
(0.0025931828 0.002150978 1355.2272)
(0.0017489528 0.0021357753 1355.2282)
(0.00034198464 0.0021335292 1355.2286)
(-2.3098241e-05 0.0016163902 1355.2285)
(-0.00045491799 0.00156783 1355.2283)
(-0.002514788 0.0022178913 1355.2277)
(-0.0024610444 0.0027782362 1355.2265)
(-2.9896626e-05 0.0027222728 1355.2262)
(0.0011347403 0.0026278171 1355.2265)
(0.002150978 0.0025931828 1355.2272)
(0.002586697 0.002586697 1355.2286)
(0.001744305 0.0025412908 1355.2296)
(0.00034031746 0.0024158764 1355.23)
(-0.00014411254 0.0013593821 1355.229)
(-0.00029826238 0.0006898667 1355.2287)
(-0.0017709816 0.00092773464 1355.2285)
(-0.0020618749 0.0018219689 1355.2275)
(-8.1722158e-05 0.0018425747 1355.2272)
(0.0010763189 0.0017617539 1355.2275)
(0.0021357753 0.0017489528 1355.2282)
(0.0025412908 0.001744305 1355.2296)
(0.0015781322 0.0015781322 1355.2305)
(0.00025837506 0.0013084214 1355.2306)
(-0.00046944182 0.00041387325 1355.2297)
(-0.00088656542 8.854397e-05 1355.2288)
(-0.0013826857 2.1671224e-05 1355.2286)
(-0.0015462043 0.0003474079 1355.2279)
(-9.0111668e-05 0.00036545164 1355.2276)
(0.0010411184 0.00034181489 1355.2279)
(0.0021335292 0.00034198465 1355.2286)
(0.0024158764 0.00034031746 1355.23)
(0.0013084214 0.00025837506 1355.2306)
(0.00016051026 0.00016051026 1355.2308)
(-0.00050735237 -0.00050735237 1330.231)
(-0.00068222001 0.00039626691 1330.2302)
(-0.0037719552 -0.00096614495 1330.2298)
(-0.0044626243 -0.00056537163 1330.2284)
(2.0626142e-05 -0.00040550292 1330.2283)
(0.0017562113 -0.00035780702 1330.2287)
(0.0024513571 -0.00026796013 1330.2294)
(0.0023332251 -8.6436057e-05 1330.2304)
(0.0019388417 -0.00024735799 1330.231)
(0.00062216615 -0.00072236519 1330.2316)
(0.00039626691 -0.00068222002 1330.2302)
(-0.0013704089 -0.0013704089 1330.2299)
(-0.005214413 -0.003091736 1330.229)
(-0.0036216613 -0.0022006621 1330.2278)
(0.00033197305 -0.0018625218 1330.2278)
(0.0019625255 -0.0017614079 1330.2282)
(0.0028584136 -0.0014957534 1330.229)
(0.0023641283 -0.00076965627 1330.2302)
(0.00098494802 -0.00053385813 1330.2307)
(0.00014715895 -0.0013957114 1330.2309)
(-0.00096614494 -0.0037719552 1330.2298)
(-0.003091736 -0.005214413 1330.229)
(-0.0046022084 -0.0046022084 1330.2282)
(-0.0032334101 -0.0041819183 1330.2271)
(0.00045988035 -0.0040593571 1330.2271)
(0.0021229796 -0.004060862 1330.2275)
(0.0034431088 -0.0039368009 1330.2284)
(0.0032951204 -0.0032794205 1330.2299)
(0.0013127865 -0.0022710925 1330.2306)
(4.7597272e-05 -0.0018127832 1330.2307)
(-0.00056537163 -0.0044626243 1330.2284)
(-0.0022006621 -0.0036216613 1330.2278)
(-0.0041819183 -0.0032334101 1330.2271)
(-0.00307881 -0.00307881 1330.2261)
(0.00045302936 -0.0030788242 1330.2261)
(0.0020850817 -0.0031686811 1330.2264)
(0.0036398551 -0.0032588382 1330.2273)
(0.0040298367 -0.0031230407 1330.2288)
(0.0024515853 -0.0025957365 1330.2298)
(0.00045269848 -0.0019484821 1330.2302)
(-0.00040550292 2.0626135e-05 1330.2283)
(-0.0018625218 0.00033197305 1330.2278)
(-0.0040593571 0.00045988034 1330.2271)
(-0.0030788242 0.00045302935 1330.2261)
(0.0003700092 0.0003700092 1330.226)
(0.0019429656 0.00024943089 1330.2263)
(0.0034887492 0.00010072621 1330.2271)
(0.0039582221 -3.1873092e-05 1330.2286)
(0.0024873452 -8.9776843e-05 1330.2296)
(0.00047910022 -8.5751701e-05 1330.23)
(-0.00035780702 0.0017562113 1330.2287)
(-0.0017614079 0.0019625255 1330.2282)
(-0.004060862 0.0021229796 1330.2275)
(-0.0031686811 0.0020850817 1330.2264)
(0.00024943089 0.0019429656 1330.2263)
(0.0018157987 0.0018157987 1330.2266)
(0.0033585511 0.0017088065 1330.2273)
(0.0038393336 0.0016208748 1330.2288)
(0.0023977067 0.0015597841 1330.2298)
(0.0004553819 0.0015415194 1330.2302)
(-0.00026796013 0.0024513572 1330.2294)
(-0.0014957534 0.0028584136 1330.229)
(-0.0039368009 0.0034431088 1330.2284)
(-0.0032588382 0.0036398551 1330.2273)
(0.00010072622 0.0034887492 1330.2271)
(0.0017088065 0.0033585511 1330.2273)
(0.0032938252 0.0032938252 1330.228)
(0.0038091996 0.003273038 1330.2296)
(0.0024079897 0.0032637676 1330.2306)
(0.00046692376 0.0032648681 1330.231)
(-8.6436058e-05 0.0023332251 1330.2304)
(-0.00076965628 0.0023641283 1330.2302)
(-0.0032794205 0.0032951204 1330.2299)
(-0.0031230407 0.0040298367 1330.2288)
(-3.1873089e-05 0.0039582221 1330.2286)
(0.0016208748 0.0038393336 1330.2288)
(0.003273038 0.0038091996 1330.2296)
(0.003809276 0.003809276 1330.2311)
(0.0023895367 0.003691286 1330.2321)
(0.00045611556 0.0033473726 1330.2325)
(-0.00024735799 0.0019388417 1330.231)
(-0.00053385813 0.00098494802 1330.2307)
(-0.0022710925 0.0013127865 1330.2306)
(-0.0025957365 0.0024515853 1330.2298)
(-8.9776847e-05 0.0024873451 1330.2296)
(0.0015597841 0.0023977067 1330.2298)
(0.0032637676 0.0024079897 1330.2306)
(0.003691286 0.0023895367 1330.2321)
(0.0019460864 0.0019460864 1330.233)
(0.00023764816 0.0016452778 1330.2328)
(-0.00072236519 0.00062216615 1330.2316)
(-0.0013957115 0.00014715895 1330.2309)
(-0.0018127832 4.7597267e-05 1330.2307)
(-0.0019484821 0.00045269847 1330.2302)
(-8.5751697e-05 0.00047910021 1330.23)
(0.0015415194 0.0004553819 1330.2302)
(0.0032648681 0.00046692376 1330.231)
(0.0033473726 0.00045611557 1330.2325)
(0.0016452778 0.00023764817 1330.2328)
(0.0002555765 0.00025557651 1330.2331)
(-0.00071447929 -0.00071447928 1302.286)
(-0.0011567832 0.00031843741 1302.2855)
(-0.0045550342 -0.0011935391 1302.2852)
(-0.0051204144 -0.00072460845 1302.2841)
(0.00019213861 -0.00054564245 1302.284)
(0.0023411326 -0.00050000778 1302.2844)
(0.0033420658 -0.00038899083 1302.2852)
(0.003197516 -0.00012343574 1302.2862)
(0.00260387 -0.0003262161 1302.2869)
(0.00083324672 -0.00092639679 1302.2875)
(0.00031843741 -0.0011567832 1302.2855)
(-0.0018753729 -0.0018753728 1302.2853)
(-0.006119603 -0.0037608963 1302.2846)
(-0.0041485694 -0.0027232937 1302.2837)
(0.00052903961 -0.002351672 1302.2837)
(0.0025761101 -0.0022665598 1302.2841)
(0.0039069239 -0.0019539497 1302.2848)
(0.0032916781 -0.00097491523 1302.2861)
(0.0013994284 -0.00068916487 1302.2867)
(0.00023306603 -0.0017956059 1302.2869)
(-0.0011935391 -0.0045550342 1302.2852)
(-0.0037608963 -0.006119603 1302.2846)
(-0.0054029551 -0.0054029551 1302.284)
(-0.0037111901 -0.0049233661 1302.2832)
(0.00064887255 -0.0048034937 1302.2832)
(0.002738855 -0.0048406155 1302.2835)
(0.0046337104 -0.0047199762 1302.2843)
(0.0044623009 -0.0038934874 1302.2858)
(0.0017831793 -0.0026617721 1302.2866)
(9.561936e-05 -0.0021581215 1302.2868)
(-0.00072460845 -0.0051204144 1302.2841)
(-0.0027232937 -0.0041485694 1302.2837)
(-0.0049233661 -0.0037111901 1302.2832)
(-0.003549108 -0.003549108 1302.2823)
(0.00061179021 -0.0035730049 1302.2823)
(0.0026596275 -0.0037095884 1302.2826)
(0.004854052 -0.003847424 1302.2834)
(0.0053498822 -0.0036878481 1302.285)
(0.0031347943 -0.0030475898 1302.286)
(0.00056883311 -0.0022865783 1302.2863)
(-0.00054564245 0.00019213861 1302.284)
(-0.002351672 0.00052903961 1302.2837)
(-0.0048034937 0.00064887255 1302.2832)
(-0.0035730049 0.00061179021 1302.2823)
(0.00048839213 0.00048839213 1302.2823)
(0.0024644359 0.00032255274 1302.2825)
(0.0046554506 0.00012609158 1302.2832)
(0.005262135 -3.7805142e-05 1302.2848)
(0.0031844491 -9.6864849e-05 1302.2858)
(0.00060296038 -7.481109e-05 1302.2861)
(-0.00050000778 0.0023411326 1302.2844)
(-0.0022665598 0.0025761101 1302.2841)
(-0.0048406155 0.002738855 1302.2835)
(-0.0037095884 0.0026596275 1302.2826)
(0.00032255275 0.0024644359 1302.2825)
(0.002297327 0.002297327 1302.2828)
(0.0044936941 0.0021649136 1302.2834)
(0.0051269258 0.0020691117 1302.2849)
(0.0030977883 0.0020208031 1302.2859)
(0.00058353561 0.0020390456 1302.2863)
(-0.00038899082 0.0033420658 1302.2852)
(-0.0019539497 0.0039069239 1302.2848)
(-0.0047199762 0.0046337104 1302.2843)
(-0.003847424 0.004854052 1302.2834)
(0.00012609159 0.0046554506 1302.2832)
(0.0021649136 0.0044936941 1302.2834)
(0.0044272354 0.0044272354 1302.2841)
(0.0051180245 0.0044290239 1302.2856)
(0.003154383 0.0044474802 1302.2866)
(0.00061512206 0.0044686577 1302.2871)
(-0.00012343574 0.003197516 1302.2862)
(-0.00097491523 0.0032916781 1302.2861)
(-0.0038934874 0.0044623009 1302.2858)
(-0.0036878482 0.0053498822 1302.285)
(-3.7805149e-05 0.005262135 1302.2848)
(0.0020691118 0.0051269258 1302.2849)
(0.0044290239 0.0051180245 1302.2856)
(0.0051471706 0.0051471706 1302.2872)
(0.0031374221 0.0049504496 1302.2882)
(0.00059765394 0.0042823885 1302.2887)
(-0.00032621611 0.00260387 1302.2869)
(-0.00068916487 0.0013994284 1302.2867)
(-0.0026617721 0.0017831793 1302.2866)
(-0.0030475898 0.0031347943 1302.286)
(-9.6864845e-05 0.0031844491 1302.2858)
(0.0020208031 0.0030977884 1302.2859)
(0.0044474802 0.003154383 1302.2866)
(0.0049504496 0.0031374222 1302.2882)
(0.0022896009 0.0022896009 1302.2891)
(0.00016974803 0.0019126051 1302.2889)
(-0.00092639679 0.00083324672 1302.2875)
(-0.0017956059 0.00023306603 1302.2869)
(-0.0021581215 9.5619359e-05 1302.2868)
(-0.0022865783 0.00056883311 1302.2863)
(-7.4811086e-05 0.00060296038 1302.2861)
(0.0020390456 0.00058353561 1302.2863)
(0.0044686577 0.00061512206 1302.2871)
(0.0042823885 0.00059765394 1302.2887)
(0.0019126051 0.00016974803 1302.2889)
(0.00034632338 0.00034632338 1302.2892)
(-0.00087203383 -0.00087203382 1271.696)
(-0.0014963102 0.00027014686 1271.6955)
(-0.0051784254 -0.0013767082 1271.6954)
(-0.0056451863 -0.00084474919 1271.6944)
(0.00038787139 -0.00065079545 1271.6944)
(0.0028862871 -0.00061198369 1271.6948)
(0.0041861871 -0.00048772833 1271.6954)
(0.0040591596 -0.00014748093 1271.6964)
(0.0032734716 -0.00039438407 1271.6971)
(0.0010380691 -0.0011066428 1271.6977)
(0.00027014686 -0.0014963102 1271.6955)
(-0.0022533218 -0.0022533217 1271.6954)
(-0.0068507694 -0.0042856121 1271.6949)
(-0.0045563172 -0.0031155754 1271.6941)
(0.00073701963 -0.0027221535 1271.6941)
(0.0031308878 -0.0026661721 1271.6945)
(0.0048829412 -0.002327308 1271.6952)
(0.004199176 -0.0011222694 1271.6963)
(0.0018347287 -0.00080527995 1271.6969)
(0.00032581033 -0.0021349531 1271.6972)
(-0.0013767082 -0.0051784254 1271.6954)
(-0.0042856121 -0.0068507694 1271.6949)
(-0.006040679 -0.006040679 1271.6944)
(-0.0040817276 -0.0055137377 1271.6937)
(0.0008372747 -0.0054067529 1271.6938)
(0.0032811326 -0.0054898835 1271.6941)
(0.0057300898 -0.0053866596 1271.6948)
(0.0055811877 -0.0044113545 1271.6961)
(0.0022607878 -0.0029843338 1271.6969)
(0.00015162034 -0.0024450201 1271.697)
(-0.00084474919 -0.0056451863 1271.6944)
(-0.0031155754 -0.0045563172 1271.6941)
(-0.0055137377 -0.0040817276 1271.6937)
(-0.003922391 -0.003922391 1271.693)
(0.00076087379 -0.0039785228 1271.693)
(0.0031509811 -0.0041690395 1271.6933)
(0.0059614702 -0.0043618289 1271.6939)
(0.0066015018 -0.0041871779 1271.6954)
(0.0038010632 -0.0034484757 1271.6963)
(0.00068535282 -0.0025866672 1271.6966)
(-0.00065079545 0.00038787139 1271.6944)
(-0.0027221535 0.00073701963 1271.6941)
(-0.0054067529 0.00083727469 1271.6938)
(-0.0039785228 0.00076087379 1271.693)
(0.00059062628 0.00059062628 1271.693)
(0.0028978265 0.00037526799 1271.6932)
(0.0057119514 0.00012887984 1271.6938)
(0.0064945409 -6.6062832e-05 1271.6952)
(0.0038612985 -0.00012491366 1271.6961)
(0.00072615935 -8.2456023e-05 1271.6965)
(-0.0006119837 0.0028862872 1271.6948)
(-0.0026661721 0.0031308878 1271.6945)
(-0.0054898835 0.0032811326 1271.6941)
(-0.0041690395 0.0031509811 1271.6933)
(0.00037526799 0.0028978265 1271.6932)
(0.0026892347 0.0026892347 1271.6934)
(0.0055201394 0.0025333558 1271.6939)
(0.0063477083 0.0024361366 1271.6953)
(0.00378467 0.0024119679 1271.6962)
(0.00071365791 0.0024816724 1271.6966)
(-0.00048772833 0.0041861871 1271.6954)
(-0.002327308 0.0048829412 1271.6952)
(-0.0053866596 0.0057300898 1271.6948)
(-0.0043618289 0.0059614702 1271.6939)
(0.00012887984 0.0057119514 1271.6938)
(0.0025333558 0.0055201394 1271.6939)
(0.0054588533 0.0054588533 1271.6944)
(0.006373153 0.0054979151 1271.6958)
(0.0039068343 0.0055676765 1271.6968)
(0.00077262899 0.0056374825 1271.6973)
(-0.00014748093 0.0040591596 1271.6964)
(-0.0011222694 0.004199176 1271.6963)
(-0.0044113545 0.0055811877 1271.6961)
(-0.0041871779 0.0066015018 1271.6954)
(-6.6062827e-05 0.0064945409 1271.6952)
(0.0024361366 0.0063477083 1271.6953)
(0.0054979151 0.006373153 1271.6958)
(0.0064565315 0.0064565315 1271.6973)
(0.0039242373 0.0062088039 1271.6983)
(0.00076019523 0.0052036688 1271.6988)
(-0.00039438407 0.0032734715 1271.6971)
(-0.00080527995 0.0018347287 1271.6969)
(-0.0029843338 0.0022607878 1271.6969)
(-0.0034484757 0.0038010632 1271.6963)
(-0.00012491365 0.0038612985 1271.6961)
(0.0024119679 0.00378467 1271.6962)
(0.0055676765 0.0039068343 1271.6968)
(0.0062088039 0.0039242373 1271.6983)
(0.0026539717 0.0026539716 1271.6992)
(0.0001025389 0.0021682076 1271.6991)
(-0.0011066428 0.0010380691 1271.6977)
(-0.0021349531 0.00032581034 1271.6972)
(-0.0024450201 0.00015162033 1271.697)
(-0.0025866671 0.00068535282 1271.6966)
(-8.2456026e-05 0.00072615935 1271.6965)
(0.0024816724 0.0007136579 1271.6966)
(0.0056374825 0.00077262898 1271.6973)
(0.0052036688 0.00076019523 1271.6988)
(0.0021682076 0.0001025389 1271.6991)
(0.00043635254 0.00043635255 1271.6993)
(-0.0010048497 -0.0010048497 1238.7617)
(-0.0017600504 0.00023562502 1238.7613)
(-0.0056774169 -0.0015288671 1238.7612)
(-0.0060594914 -0.00093848331 1238.7605)
(0.00059037708 -0.00073277824 1238.7605)
(0.0033677344 -0.00070399121 1238.7609)
(0.0049322645 -0.00057211411 1238.7614)
(0.0048406454 -0.00016520375 1238.7622)
(0.0038945095 -0.00045538385 1238.7628)
(0.001229081 -0.0012702127 1238.7634)
(0.00023562502 -0.0017600504 1238.7613)
(-0.0025460765 -0.0025460765 1238.7613)
(-0.0074385794 -0.0047030364 1238.7608)
(-0.0048653582 -0.0034128748 1238.7602)
(0.00094211523 -0.0030068279 1238.7603)
(0.0036087306 -0.0029894614 1238.7606)
(0.0057404457 -0.002640456 1238.7612)
(0.0050157408 -0.0012347682 1238.7622)
(0.002236996 -0.0008970753 1238.7627)
(0.00041425214 -0.0024331503 1238.7629)
(-0.0015288671 -0.0056774169 1238.7612)
(-0.0047030364 -0.0074385794 1238.7608)
(-0.0065442152 -0.0065442152 1238.7605)
(-0.0043632829 -0.0059797931 1238.7599)
(0.0010137904 -0.0058937107 1238.76)
(0.0037341063 -0.0060310782 1238.7603)
(0.0066869577 -0.005957639 1238.7608)
(0.0065840262 -0.0048549768 1238.762)
(0.0026961274 -0.0032570096 1238.7627)
(0.00020503103 -0.0026903111 1238.7628)
(-0.00093848331 -0.0060594914 1238.7605)
(-0.0034128748 -0.0048653582 1238.7602)
(-0.0059797931 -0.0043632829 1238.7599)
(-0.0042148537 -0.0042148537 1238.7594)
(0.00089083016 -0.0043098704 1238.7594)
(0.0035448024 -0.0045602037 1238.7596)
(0.006916547 -0.0048145778 1238.7601)
(0.0077163702 -0.0046349887 1238.7614)
(0.0044016618 -0.0038130207 1238.7622)
(0.00079205117 -0.0028635315 1238.7625)
(-0.00073277824 0.00059037709 1238.7605)
(-0.0030068279 0.00094211522 1238.7603)
(-0.0058937107 0.0010137904 1238.76)
(-0.0043098704 0.00089083017 1238.7594)
(0.0006684404 0.00066844041 1238.7594)
(0.0032293988 0.00039987302 1238.7596)
(0.0066121727 0.00010121402 1238.76)
(0.0075855834 -0.00012617631 1238.7612)
(0.0044675847 -0.00018607168 1238.762)
(0.00083802383 -0.00012376101 1238.7623)
(-0.00070399123 0.0033677344 1238.7609)
(-0.0029894614 0.0036087306 1238.7606)
(-0.0060310781 0.0037341063 1238.7603)
(-0.0045602037 0.0035448024 1238.7596)
(0.00039987301 0.0032293988 1238.7596)
(0.002977576 0.002977576 1238.7596)
(0.0063904977 0.0027989492 1238.76)
(0.0074290845 0.0027038377 1238.7612)
(0.0044040771 0.0027101461 1238.762)
(0.00083359162 0.002839307 1238.7623)
(-0.00057211411 0.0049322645 1238.7614)
(-0.002640456 0.0057404457 1238.7612)
(-0.005957639 0.0066869577 1238.7608)
(-0.0048145778 0.006916547 1238.7601)
(0.00010121402 0.0066121726 1238.76)
(0.0027989492 0.0063904977 1238.76)
(0.0063384343 0.0063384343 1238.7604)
(0.0074967802 0.0064241374 1238.7616)
(0.004603054 0.0065613034 1238.7625)
(0.00092413108 0.0067010265 1238.7629)
(-0.00016520376 0.0048406454 1238.7622)
(-0.0012347682 0.0050157408 1238.7622)
(-0.0048549768 0.0065840262 1238.762)
(-0.0046349887 0.0077163702 1238.7614)
(-0.0001261763 0.0075855834 1238.7612)
(0.0027038377 0.0074290845 1238.7612)
(0.0064241374 0.0074967802 1238.7616)
(0.0076519536 0.0076519536 1238.7629)
(0.0046809661 0.0073817446 1238.7638)
(0.00092674033 0.0060630934 1238.7643)
(-0.00045538384 0.0038945095 1238.7628)
(-0.0008970753 0.002236996 1238.7627)
(-0.0032570096 0.0026961274 1238.7627)
(-0.0038130206 0.0044016618 1238.7622)
(-0.00018607168 0.0044675847 1238.762)
(0.0027101461 0.0044040771 1238.762)
(0.0065613034 0.004603054 1238.7625)
(0.0073817446 0.0046809661 1238.7638)
(0.0030141938 0.0030141938 1238.7647)
(4.5030268e-05 0.0024155993 1238.7645)
(-0.0012702127 0.001229081 1238.7634)
(-0.0024331503 0.00041425214 1238.7629)
(-0.0026903111 0.00020503104 1238.7628)
(-0.0028635315 0.00079205117 1238.7625)
(-0.00012376102 0.00083802383 1238.7623)
(0.002839307 0.00083359161 1238.7623)
(0.0067010265 0.00092413108 1238.7629)
(0.0060630934 0.00092674034 1238.7643)
(0.0024155993 4.503027e-05 1238.7645)
(0.00052767732 0.00052767732 1238.7648)
(-0.0011172575 -0.0011172575 1203.7825)
(-0.0019620612 0.00021205153 1203.7822)
(-0.0060661399 -0.0016521868 1203.7822)
(-0.0063766125 -0.0010081463 1203.7815)
(0.00078758583 -0.00079361023 1203.7816)
(0.0037734458 -0.00077737997 1203.7819)
(0.0055598684 -0.00064271916 1203.7823)
(0.005509641 -0.00017717209 1203.783)
(0.0044399477 -0.00050898709 1203.7836)
(0.0014006418 -0.0014180171 1203.784)
(0.00021205153 -0.0019620612 1203.7822)
(-0.0027644551 -0.0027644551 1203.7821)
(-0.0078964367 -0.0050229537 1203.7818)
(-0.0050887477 -0.0036248152 1203.7814)
(0.0011337354 -0.0032141062 1203.7815)
(0.0039997824 -0.003242928 1203.7817)
(0.0064601802 -0.0028980501 1203.7822)
(0.0057102391 -0.0013176966 1203.783)
(0.0025786802 -0.00096824229 1203.7834)
(0.00049161181 -0.0026960038 1203.7836)
(-0.0016521868 -0.0060661399 1203.7822)
(-0.0050229537 -0.0078964367 1203.7818)
(-0.0069265 -0.0069265 1203.7816)
(-0.004567765 -0.0063334113 1203.7812)
(0.0011694731 -0.0062747636 1203.7813)
(0.0040895019 -0.0064729235 1203.7815)
(0.0074850998 -0.0064403711 1203.7819)
(0.0074394488 -0.0052327132 1203.7829)
(0.0030616405 -0.0034879862 1203.7834)
(0.00024880082 -0.0029029792 1203.7835)
(-0.0010081463 -0.0063766125 1203.7815)
(-0.0036248152 -0.0050887477 1203.7814)
(-0.0063334113 -0.004567765 1203.7812)
(-0.0044370113 -0.0044370113 1203.7807)
(0.00099422319 -0.0045761808 1203.7808)
(0.0038341749 -0.0048909395 1203.7809)
(0.0077003905 -0.0052126155 1203.7813)
(0.008662624 -0.0050386402 1203.7823)
(0.0049084142 -0.0041491661 1203.783)