/*--------------------------------*- C++ -*----------------------------------*\
| =========                 |                                                 |
| \\      /  F ield         | OpenFOAM: The Open Source CFD Toolbox           |
|  \\    /   O peration     | Version:  v2106                                 |
|   \\  /    A nd           | Website:  www.openfoam.com                      |
|    \\/     M anipulation  |                                                 |
\*---------------------------------------------------------------------------*/
FoamFile
{
    version     2.0;
    format      ascii;
    arch        "LSB;label=32;scalar=64";
    class       volScalarField;
    location    "12.5";
    object      gradTy;
}
// * * * * * * * * * * * * * * * * * * * * * * * * * * * * * * * * * * * * * //

dimensions      [0 -1 0 1 0 0 0];

internalField   nonuniform List<scalar> 
4000
(
3.7492197e-05
0.00032772088
-4.8160101e-05
2.9180512e-05
5.7657259e-05
6.4640387e-05
6.9664103e-05
7.6933738e-05
7.4456766e-05
4.300134e-05
0.00038987586
0.00026139741
-0.00020490625
-3.8176143e-05
1.8832336e-05
3.444614e-05
5.3531788e-05
9.4876525e-05
0.00012967401
6.7154675e-05
-0.00024459351
-0.00069240408
-0.00054416706
-0.00047585819
-0.0004578091
-0.0004535574
-0.00044013663
-0.00039035552
-0.00029441117
-0.00022510782
-0.00065373501
-0.00049500897
-0.00042999643
-0.00040865101
-0.00040623262
-0.00041138391
-0.00041630752
-0.00040499661
-0.00035308325
-0.00027035364
-1.8069262e-05
3.5120561e-05
5.4553017e-05
5.7421339e-05
5.1820125e-05
4.2800909e-05
3.0532578e-05
1.5941466e-05
3.0027848e-06
-6.3606863e-06
0.00014548668
0.00016349694
0.00018018614
0.00018116942
0.00017011123
0.00015988189
0.00015042353
0.00014071788
0.00013066623
0.00012131861
0.00018391085
0.00020235087
0.00024434125
0.00026555277
0.00025072854
0.00023869332
0.00023156453
0.00022728733
0.00022429294
0.00022258508
0.00017871222
0.00018590122
0.00025485444
0.00033162668
0.00031807871
0.00030409688
0.00029832142
0.00029682528
0.0002950617
0.00029147108
0.00013010323
7.9204629e-05
0.00010238138
0.00024445233
0.00023702434
0.00022215018
0.00021762506
0.00021744793
0.00021227087
0.00019654301
3.1499901e-05
4.4474187e-08
-1.0179653e-05
4.624671e-05
4.4973419e-05
4.0004394e-05
3.8741664e-05
3.8865826e-05
3.634792e-05
2.8380584e-05
0.00014149207
0.00060173894
-0.00038448415
-0.00014889424
-5.2017994e-05
-2.4194239e-05
2.2012468e-06
3.8889908e-05
5.3368214e-06
-0.00013421321
0.00092085197
0.00013188764
-0.0011517038
-0.00062951776
-0.00042384894
-0.00035661161
-0.0002577698
-4.9086528e-05
6.1524177e-05
-0.00023792674
-0.0014202802
-0.00254623
-0.0021816856
-0.0019392877
-0.0018597044
-0.0018374491
-0.0017673115
-0.0015156737
-0.001096769
-0.00085341447
-0.0024884491
-0.0019897498
-0.0017605942
-0.0016677686
-0.0016536937
-0.0016771044
-0.0016972961
-0.0016293726
-0.0013790094
-0.0010314135
-0.00011668319
7.036682e-05
0.00015622296
0.00017220546
0.00014688715
0.00010351833
4.601562e-05
-1.3886364e-05
-5.1720832e-05
-6.4253844e-05
0.00066295017
0.00074427903
0.0008290293
0.00083667186
0.00078542691
0.00073580033
0.00069022367
0.00064583272
0.00060438564
0.00057151967
0.00089293258
0.00098755881
0.0012004577
0.0013093342
0.0012481895
0.0011919295
0.0011582219
0.0011387326
0.0011255813
0.001119432
0.00088507604
0.0008897794
0.00120437
0.001560322
0.0015226567
0.0014625855
0.0014368187
0.0014299448
0.001415968
0.0013823741
0.00067611925
0.00041646456
0.00048727903
0.0010787238
0.0010852381
0.0010283563
0.0010109251
0.0010090557
0.00096335431
0.00083417528
0.00017593162
3.6381591e-05
-2.370232e-05
0.00019861794
0.0002080283
0.0001902626
0.00018611766
0.00018616311
0.0001637217
0.00010004375
-0.00019090363
0.00053242031
-0.00066836724
-0.00034303728
-0.00020896035
-0.00016775944
-0.00011173903
-2.3098241e-05
-0.00014411254
-0.00046944183
6.4656239e-05
-0.00065153918
-0.0021951797
-0.0014701209
-0.0011832993
-0.0010875056
-0.00089976343
-0.00045491798
-0.00029826237
-0.00088656542
-0.0027489
-0.0040620864
-0.0035674818
-0.0032225414
-0.0031111519
-0.0030909729
-0.0029813879
-0.002514788
-0.0017709816
-0.0013826858
-0.0036229402
-0.0029338299
-0.0026110599
-0.0024775
-0.0024641058
-0.0025158281
-0.0025662564
-0.0024610444
-0.0020618749
-0.0015462043
-9.3189787e-05
0.00016972698
0.00028942554
0.00030129545
0.00025109747
0.00017125122
6.8696981e-05
-2.9896633e-05
-8.1722157e-05
-9.0111663e-05
0.0011903195
0.0013361515
0.0014738554
0.0014659155
0.0013717048
0.001283515
0.0012054088
0.0011347403
0.0010763189
0.0010411184
0.0016382988
0.0018552906
0.0022708864
0.0024314756
0.0023256701
0.0022303277
0.0021768954
0.002150978
0.0021357753
0.0021335292
0.0016163902
0.00156783
0.0022178913
0.0027782362
0.0027222728
0.0026278171
0.0025931828
0.002586697
0.0025412908
0.0024158764
0.0013593821
0.0006898667
0.00092773464
0.0018219689
0.0018425747
0.0017617539
0.0017489528
0.001744305
0.0015781322
0.0013084214
0.00041387325
8.854397e-05
2.1671224e-05
0.0003474079
0.00036545164
0.00034181489
0.00034198465
0.00034031746
0.00025837506
0.00016051026
-0.00050735237
0.00039626691
-0.00096614495
-0.00056537163
-0.00040550292
-0.00035780702
-0.00026796013
-8.6436057e-05
-0.00024735799
-0.00072236519
-0.00068222002
-0.0013704089
-0.003091736
-0.0022006621
-0.0018625218
-0.0017614079
-0.0014957534
-0.00076965627
-0.00053385813
-0.0013957114
-0.0037719552
-0.005214413
-0.0046022084
-0.0041819183
-0.0040593571
-0.004060862
-0.0039368009
-0.0032794205
-0.0022710925
-0.0018127832
-0.0044626243
-0.0036216613
-0.0032334101
-0.00307881
-0.0030788242
-0.0031686811
-0.0032588382
-0.0031230407
-0.0025957365
-0.0019484821
2.0626135e-05
0.00033197305
0.00045988034
0.00045302935
0.0003700092
0.00024943089
0.00010072621
-3.1873092e-05
-8.9776843e-05
-8.5751701e-05
0.0017562113
0.0019625255
0.0021229796
0.0020850817
0.0019429656
0.0018157987
0.0017088065
0.0016208748
0.0015597841
0.0015415194
0.0024513572
0.0028584136
0.0034431088
0.0036398551
0.0034887492
0.0033585511
0.0032938252
0.003273038
0.0032637676
0.0032648681
0.0023332251
0.0023641283
0.0032951204
0.0040298367
0.0039582221
0.0038393336
0.0038091996
0.003809276
0.003691286
0.0033473726
0.0019388417
0.00098494802
0.0013127865
0.0024515853
0.0024873451
0.0023977067
0.0024079897
0.0023895367
0.0019460864
0.0016452778
0.00062216615
0.00014715895
4.7597267e-05
0.00045269847
0.00047910021
0.0004553819
0.00046692376
0.00045611557
0.00023764817
0.00025557651
-0.00071447928
0.00031843741
-0.0011935391
-0.00072460845
-0.00054564245
-0.00050000778
-0.00038899083
-0.00012343574
-0.0003262161
-0.00092639679
-0.0011567832
-0.0018753728
-0.0037608963
-0.0027232937
-0.002351672
-0.0022665598
-0.0019539497
-0.00097491523
-0.00068916487
-0.0017956059
-0.0045550342
-0.006119603
-0.0054029551
-0.0049233661
-0.0048034937
-0.0048406155
-0.0047199762
-0.0038934874
-0.0026617721
-0.0021581215
-0.0051204144
-0.0041485694
-0.0037111901
-0.003549108
-0.0035730049
-0.0037095884
-0.003847424
-0.0036878481
-0.0030475898
-0.0022865783
0.00019213861
0.00052903961
0.00064887255
0.00061179021
0.00048839213
0.00032255274
0.00012609158
-3.7805142e-05
-9.6864849e-05
-7.481109e-05
0.0023411326
0.0025761101
0.002738855
0.0026596275
0.0024644359
0.002297327
0.0021649136
0.0020691117
0.0020208031
0.0020390456
0.0033420658
0.0039069239
0.0046337104
0.004854052
0.0046554506
0.0044936941
0.0044272354
0.0044290239
0.0044474802
0.0044686577
0.003197516
0.0032916781
0.0044623009
0.0053498822
0.005262135
0.0051269258
0.0051180245
0.0051471706
0.0049504496
0.0042823885
0.00260387
0.0013994284
0.0017831793
0.0031347943
0.0031844491
0.0030977884
0.003154383
0.0031374222
0.0022896009
0.0019126051
0.00083324672
0.00023306603
9.5619359e-05
0.00056883311
0.00060296038
0.00058353561
0.00061512206
0.00059765394
0.00016974803
0.00034632338
-0.00087203382
0.00027014686
-0.0013767082
-0.00084474919
-0.00065079545
-0.00061198369
-0.00048772833
-0.00014748093
-0.00039438407
-0.0011066428
-0.0014963102
-0.0022533217
-0.0042856121
-0.0031155754
-0.0027221535
-0.0026661721
-0.002327308
-0.0011222694
-0.00080527995
-0.0021349531
-0.0051784254
-0.0068507694
-0.006040679
-0.0055137377
-0.0054067529
-0.0054898835
-0.0053866596
-0.0044113545
-0.0029843338
-0.0024450201
-0.0056451863
-0.0045563172
-0.0040817276
-0.003922391
-0.0039785228
-0.0041690395
-0.0043618289
-0.0041871779
-0.0034484757
-0.0025866672
0.00038787139
0.00073701963
0.00083727469
0.00076087379
0.00059062628
0.00037526799
0.00012887984
-6.6062832e-05
-0.00012491366
-8.2456023e-05
0.0028862872
0.0031308878
0.0032811326
0.0031509811
0.0028978265
0.0026892347
0.0025333558
0.0024361366
0.0024119679
0.0024816724
0.0041861871
0.0048829412
0.0057300898
0.0059614702
0.0057119514
0.0055201394
0.0054588533
0.0054979151
0.0055676765
0.0056374825
0.0040591596
0.004199176
0.0055811877
0.0066015018
0.0064945409
0.0063477083
0.006373153
0.0064565315
0.0062088039
0.0052036688
0.0032734715
0.0018347287
0.0022607878
0.0038010632
0.0038612985
0.00378467
0.0039068343
0.0039242373
0.0026539716
0.0021682076
0.0010380691
0.00032581034
0.00015162033
0.00068535282
0.00072615935
0.0007136579
0.00077262898
0.00076019523
0.0001025389
0.00043635255
-0.0010048497
0.00023562502
-0.0015288671
-0.00093848331
-0.00073277824
-0.00070399121
-0.00057211411
-0.00016520375
-0.00045538385
-0.0012702127
-0.0017600504
-0.0025460765
-0.0047030364
-0.0034128748
-0.0030068279
-0.0029894614
-0.002640456
-0.0012347682
-0.0008970753
-0.0024331503
-0.0056774169
-0.0074385794
-0.0065442152
-0.0059797931
-0.0058937107
-0.0060310782
-0.005957639
-0.0048549768
-0.0032570096
-0.0026903111
-0.0060594914
-0.0048653582
-0.0043632829
-0.0042148537
-0.0043098704
-0.0045602037
-0.0048145778
-0.0046349887
-0.0038130207
-0.0028635315
0.00059037709
0.00094211522
0.0010137904
0.00089083017
0.00066844041
0.00039987302
0.00010121402
-0.00012617631
-0.00018607168
-0.00012376101
0.0033677344
0.0036087306
0.0037341063
0.0035448024
0.0032293988
0.002977576
0.0027989492
0.0027038377
0.0027101461
0.002839307
0.0049322645
0.0057404457
0.0066869577
0.006916547
0.0066121726
0.0063904977
0.0063384343
0.0064241374
0.0065613034
0.0067010265
0.0048406454
0.0050157408
0.0065840262
0.0077163702
0.0075855834
0.0074290845
0.0074967802
0.0076519536
0.0073817446
0.0060630934
0.0038945095
0.002236996
0.0026961274
0.0044016618
0.0044675847
0.0044040771
0.004603054
0.0046809661
0.0030141938
0.0024155993
0.001229081
0.00041425214
0.00020503104
0.00079205117
0.00083802383
0.00083359161
0.00092413108
0.00092674034
4.503027e-05
0.00052767732
-0.0011172575
0.00021205153
-0.0016521868
-0.0010081463
-0.00079361023
-0.00077737997
-0.00064271916
-0.00017717209
-0.00050898709
-0.0014180171
-0.0019620612
-0.0027644551
-0.0050229537
-0.0036248152
-0.0032141062
-0.003242928
-0.0028980501
-0.0013176966
-0.00096824229
-0.0026960038
-0.0060661399
-0.0078964367
-0.0069265
-0.0063334113
-0.0062747636
-0.0064729235
-0.0064403711
-0.0052327132
-0.0034879862
-0.0029029792
-0.0063766125
-0.0050887477
-0.004567765
-0.0044370113
-0.0045761808
-0.0048909395
-0.0052126155
-0.0050386402
-0.0041491661
-0.0031259057
0.00078758582
0.0011337354
0.0011694731
0.0009942232
0.00071554491
0.00039080911
3.7769173e-05
-0.00022415266
-0.00028767397
-0.00020768837
0.0037734458
0.0039997824
0.0040895019
0.0038341749
0.0034530673
0.0031563991
0.0029550706
0.0028637879
0.0029037708
0.0030960138
0.0055598684
0.0064601802
0.0074850998
0.0077003905
0.0073373991
0.0070854288
0.0070447878
0.0071828376
0.0073977153
0.0076211713
0.005509641
0.0057102391
0.0074394488
0.008662624
0.0085028982
0.0083371808
0.0084515983
0.0086901084
0.008420939
0.0068214923
0.0044399477
0.0025786802
0.0030616405
0.0049084142
0.004974375
0.0049248785
0.0052066009
0.0053632122
0.0033379848
0.0026365238
0.0014006418
0.00049161181
0.00024880082
0.0008816165
0.00093097443
0.00093494024
0.0010591364
0.0010839109
-7.1613922e-06
0.00061627027
-0.0012088117
0.00019971055
-0.0017465417
-0.0010539863
-0.00083337826
-0.00083178235
-0.00069871258
-0.00018268732
-0.00055438183
-0.001549601
-0.0021049888
-0.0029115839
-0.0052491038
-0.0037555598
-0.0033473679
-0.0034284861
-0.003100598
-0.0013719563
-0.0010197241
-0.0029252147
-0.0063527273
-0.0082332725
-0.0071967032
-0.0065831856
-0.00655735
-0.006821345
-0.0068393501
-0.0055490335
-0.0036820008
-0.0030882121
-0.006607053
-0.0052373079
-0.0047053172
-0.0045979547
-0.0047853466
-0.0051678742
-0.0055613895
-0.0054031488
-0.0044619617
-0.0033791541
0.00096964133
0.0013029472
0.001296715
0.0010647878
0.00072679554
0.00034377141
-6.5230699e-05
-0.00036378364
-0.00043398539
-0.00033921469
0.0040955559
0.0042975544
0.0043423258
0.0040155544
0.0035662829
0.0032235281
0.002999258
0.0029124525
0.0029874352
0.0032439351
0.0060589751
0.0070326176
0.0081155049
0.0083049291
0.0078802303
0.0075973741
0.0075691547
0.0077627861
0.0080618985
0.0083781113
0.0060508225
0.0062673186
0.0081316964
0.009424668
0.0092311242
0.0090559133
0.0092193014
0.0095486571
0.0092997761
0.0074536461
0.0048940369
0.0028436664
0.0033407784
0.0053044878
0.0053647731
0.0053290567
0.0056962557
0.0059443819
0.0036012446
0.0028118041
0.001548248
0.00055302884
0.00027792085
0.00094888797
0.0009997926
0.0010120684
0.0011707925
0.0012228769
-5.9960809e-05
0.00069658322
-0.0012787603
0.00019894167
-0.0018120677
-0.0010765225
-0.00085246785
-0.0008671696
-0.00073961183
-0.00018124331
-0.00059098051
-0.0016644502
-0.0021903973
-0.0029903585
-0.0053855839
-0.0038097256
-0.0034105614
-0.0035487128
-0.0032491869
-0.0013983829
-0.0010523042
-0.003121637
-0.0065445778
-0.008457774
-0.0073639449
-0.0067378261
-0.0067491585
-0.0070825611
-0.0071591705
-0.0058077658
-0.0038427114
-0.0032495546
-0.0067605607
-0.005321161
-0.0047855383
-0.0047063746
-0.004944942
-0.0053973033
-0.0058658255
-0.005732455
-0.0047548308
-0.0036264892
0.0011284221
0.0014424513
0.0013894348
0.0010977163
0.00069850611
0.00025600286
-0.00020979956
-0.00054666935
-0.00062654629
-0.00052006762
0.0043292188
0.0044985028
0.0044905933
0.0040884908
0.0035697098
0.0031801851
0.0029327353
0.0028504533
0.0029605878
0.0032809966
0.0064251148
0.0074540043
0.0085754447
0.0087287996
0.0082402929
0.0079261274
0.0079105611
0.0081612226
0.0085483923
0.0089631721
0.0064572326
0.0066801796
0.0086541153
0.0099966388
0.00976511
0.009579892
0.0097929625
0.010217723
0.010005032
0.0079458366
0.0052479453
0.003023135
0.0035246913
0.0055813462
0.0056306571
0.0056079479
0.0060612004
0.0064098974
0.0037893137
0.0029279172
0.001668847
0.00059537736
0.00028929187
0.00099081523
0.0010415196
0.001061801
0.0012551255
0.0013383209
-0.00011767147
0.00076405657
-0.0013269206
0.00020955115
-0.0018495902
-0.0010769047
-0.00085188384
-0.00088413488
-0.00076551817
-0.00017275831
-0.00061854598
-0.0017622882
-0.0022209947
-0.0030049991
-0.0054380195
-0.0037933627
-0.0034090712
-0.0036076334
-0.0033462203
-0.0013985992
-0.0010671893
-0.0032862105
-0.0066496456
-0.0085793294
-0.0074380092
-0.0068067207
-0.0068585974
-0.007263522
-0.0074050282
-0.0060128507
-0.003973384
-0.0033897542
-0.0068465402
-0.0053499807
-0.0048175919
-0.0047705689
-0.0050621794
-0.0055851451
-0.0061303607
-0.006029687
-0.0050299787
-0.0038695339
0.0012575768
0.0015467316
0.001443306
0.0010899303
0.00062872982
0.00012655062
-0.000396008
-0.00077221038
-0.0008643815
-0.00074917357
0.0044725191
0.0046020676
0.0045353701
0.0040556368
0.0034671888
0.003030899
0.0027602372
0.0026822264
0.002826885
0.003209766
0.0066582003
0.0077252651
0.0088672345
0.0089759364
0.0084226926
0.0080771754
0.00807402
0.0083817898
0.0088586952
0.0093753532
0.0067275837
0.006948042
0.0090066147
0.010379686
0.010106997
0.0099113127
0.010173644
0.010695988
0.010532539
0.008292885
0.0054980049
0.0031137101
0.0036103936
0.0057368067
0.0057705467
0.0057598435
0.0062980863
0.0067534068
0.0038949835
0.0029774224
0.0017607917
0.00061704952
0.00028144427
0.0010061361
0.0010550741
0.0010829413
0.0013103282
0.00142738
-0.00018277423
0.00081567264
-0.0013537539
0.00023079165
-0.0018605834
-0.0010568521
-0.00083318034
-0.00088382083
-0.00077705037
-0.00015754201
-0.00063717072
-0.0018431208
-0.0022008564
-0.0029611008
-0.0054134705
-0.003713794
-0.0033495259
-0.003610526
-0.0033952629
-0.0013750007
-0.0010660502
-0.0034201748
-0.006676537
-0.0086080026
-0.0074292303
-0.0067997592
-0.0068945874
-0.0073717062
-0.0075825841
-0.0061683806
-0.0040770386
-0.0035110522
-0.0068740128
-0.0053329082
-0.0048100682
-0.0047982654
-0.0051437148
-0.0057367641
-0.0063588341
-0.0062971997
-0.0052885724
-0.0041086348
0.0013525354
0.0016120823
0.0014558035
0.0010401353
0.00051730478
-4.3719738e-05
-0.00062203351
-0.0010377763
-0.0011443089
-0.0010230993
0.0045263073
0.0046105023
0.0044805703
0.0039225056
0.003265451
0.0027831674
0.0024895998
0.0024155017
0.0025935096
0.0030365658
0.0067619065
0.0078513247
0.0089974317
0.0090546503
0.0084369962
0.0080605937
0.0080693305
0.0084331869
0.008999681
0.0096193639
0.0068650085
0.007074828
0.0091942211
0.010580373
0.010264483
0.010058098
0.010368393
0.010988449
0.010884693
0.0084959159
0.005644595
0.0031162268
0.0035994208
0.0057735551
0.0057879857
0.0057882322
0.0064090499
0.0069744092
0.0039165172
0.0029578392
0.001823615
0.00061766494
0.00025419863
0.00099498916
0.0010408237
0.0010757956
0.0013361945
0.0014889176
-0.00025632347
0.00084979888
-0.0013602895
0.00026144986
-0.0018470513
-0.0010185291
-0.00079833791
-0.00086780284
-0.0007752429
-0.00013622397
-0.00064722806
-0.0019072171
-0.0021352178
-0.0028653605
-0.0053200931
-0.0035792623
-0.0032394442
-0.0035635863
-0.0034007584
-0.0013305806
-0.0010509326
-0.0035250688
-0.0066343046
-0.0085542731
-0.0073482063
-0.006727031
-0.0068662575
-0.0074148387
-0.0076977408
-0.0062784935
-0.0041564535
-0.0036152852
-0.0068514914
-0.0052784213
-0.0047708425
-0.0047964725
-0.0051955056
-0.0058568541
-0.0065544258
-0.0065366135
-0.0055308848
-0.0043430961
0.0014104274
0.0016365168
0.0014261034
0.00094870914
0.00036572171
-0.00025229029
-0.00088437955
-0.0013390041
-0.0014613257
-0.0013365103
0.0044938837
0.0045285262
0.0043325694
0.0036970429
0.0029736491
0.0024469416
0.0021311901
0.0020606595
0.0022704433
0.0027706617
0.0067430696
0.0078404379
0.0089760753
0.0089767831
0.0082963159
0.0078900692
0.0079100338
0.0083280468
0.0089823759
0.0097042666
0.0068761859
0.0070682082
0.0092260118
0.010609495
0.010249553
0.010032549
0.010388806
0.011104891
0.011068829
0.0085607737
0.0056913158
0.0030348261
0.0034968276
0.0056980344
0.005690345
0.0057005283
0.0064003472
0.0070767481
0.0038562295
0.0028704939
0.001857809
0.00059782003
0.00020838492
0.00095859891
0.001000244
0.0010418092
0.0013337229
0.0015230697
-0.00033831384
0.00086591263
-0.001348021
0.00029995223
-0.0018113994
-0.00096442019
-0.00074964207
-0.00083797536
-0.00076144764
-0.00010968044
-0.00064931799
-0.0019550712
-0.0020301815
-0.0027252491
-0.0051667771
-0.0033985719
-0.0030868893
-0.0034736067
-0.0033677575
-0.0012687405
-0.0010241408
-0.0036026679
-0.0065321855
-0.0084287442
-0.0072055083
-0.0065985394
-0.0067826714
-0.0074006429
-0.0077564457
-0.0063472617
-0.0042141436
-0.0037039284
-0.0067868641
-0.0051942281
-0.0047069763
-0.0047713912
-0.0052227382
-0.0059493947
-0.006719659
-0.0067488858
-0.0057564423
-0.0045713883
0.0014299362
0.0016196035
0.0013549013
0.00081749994
0.0001768978
-0.00049524908
-0.0011781763
-0.001670153
-0.0018090189
-0.0016826235
0.0043806045
0.0043628961
0.0040997363
0.0033891217
0.0026028155
0.0020340476
0.0016972837
0.0016300625
0.0018697522
0.0024235143
0.0066110698
0.0077035122
0.0088159361
0.0087568934
0.0080164449
0.0075819894
0.0076124598
0.0080819391
0.0088209212
0.0096424028
0.0067705942
0.0069387887
0.0091142108
0.010481091
0.010077428
0.0098502482
0.010249896
0.01105871
0.011096012
0.0084968469
0.0056443226
0.0028762364
0.0033103951
0.0055195697
0.0054878927
0.0055070992
0.0062813445
0.0070675629
0.0037194817
0.002719605
0.001864639
0.00055888578
0.00014562097
0.00089902924
0.00093565696
0.00098329284
0.0013048317
0.0015309472
-0.0004279454
0.00086436272
-0.0013187974
0.00034447163
-0.0017563111
-0.00089721122
-0.00068957029
-0.00079644629
-0.00073724189
-7.8964238e-05
-0.00064421235
-0.0019873599
-0.0018924169
-0.0025486875
-0.0049628022
-0.0031807613
-0.002900157
-0.0033476874
-0.0033016714
-0.0011931149
-0.00098812205
-0.0036549072
-0.0063793498
-0.0082418741
-0.0070114236
-0.0064239598
-0.0066526025
-0.0073366415
-0.0077645334
-0.0063786014
-0.004252341
-0.0037781264
-0.0066873066
-0.0050871954
-0.0046246614
-0.0047283744
-0.0052298075
-0.0060176558
-0.0068564414
-0.0069344038
-0.0059641747
-0.0047913419
0.0014111204
0.0015622678
0.0012441942
0.00064958606
-4.5087239e-05
-0.00076758159
-0.0014975052
-0.0020244673
-0.0021799658
-0.0020536326
0.0041934666
0.0041219592
0.0037919522
0.0030100283
0.0021653182
0.0015576103
0.0012014594
0.0011374182
0.0014049233
0.002008101
0.006377228
0.0074534511
0.0085318005
0.0084114911
0.0076150526
0.0071546054
0.0071948604
0.00771248
0.0085316696
0.0094484877
0.0065598313
0.0066993756
0.0088733807
0.010211568
0.0097656474
0.0095291075
0.0099691113
0.010865917
0.010980063
0.0083161309
0.0055117459
0.0026491523
0.0030499536
0.0052496274
0.0051930155
0.0052204621
0.0060636983
0.0069564697
0.0035139125
0.0025115612
0.0018459827
0.0005028351
6.812589e-05
0.00081897815
0.00085001445
0.00090320025
0.0012521329
0.0015144123
-0.00052382194
0.00084617812
-0.0012747163
0.00039302888
-0.0016846324
-0.00081968145
-0.00062068904
-0.00074544035
-0.00070434326
-4.5238931e-05
-0.00063280203
-0.0020048991
-0.0017288753
-0.0023437494
-0.0047175282
-0.0029348132
-0.0026875016
-0.0031929833
-0.0032080549
-0.001107413
-0.00094535864
-0.0036838047
-0.0061846793
-0.0080037448
-0.0067757431
-0.0062124439
-0.0064843556
-0.0072299987
-0.0077276016
-0.0063762029
-0.0042729853
-0.003838722
-0.0065592261
-0.0049633111
-0.0045291996
-0.0046719236
-0.0052203306
-0.0060642337
-0.0069661295
-0.0070930868
-0.0061525613
-0.0050003276
0.0013552187
0.0014665803
0.0010970485
0.00044902556
-0.00029526159
-0.0010634632
-0.0018357158
-0.0023945203
-0.0025661028
-0.0024410947
0.0039407002
0.0038152188
0.0034201469
0.0025719728
0.0016743479
0.0010315186
0.00065804031
0.00059719992
0.00089026965
0.0015383133
0.0060542355
0.0071045376
0.0081398058
0.0079583335
0.0071109528
0.0066272764
0.0066766341
0.0072385424
0.0081323909
0.009138824
0.0062569923
0.0063643041
0.0085196886
0.0098189204
0.0093332568
0.0090885334
0.0095654861
0.01054429
0.010736717
0.0080324392
0.0053031669
0.0023636767
0.0027267752
0.0049011575
0.0048195344
0.0048545831
0.0057606478
0.0067548647
0.0032487967
0.0022543227
0.0018041842
0.00043208717
-2.1446457e-05
0.00072159603
0.00074670935
0.00080493479
0.0011787384
0.0014758902
-0.00062411352
0.00081290746
-0.0012180246
0.00044358557
-0.0015992677
-0.00073460741
-0.00054556273
-0.00068721299
-0.00066453285
-9.7187033e-06
-0.0006160478
-0.0020086034
-0.0015465338
-0.0021183986
-0.0044401264
-0.0026694069
-0.002456904
-0.003016487
-0.0030924169
-0.0010152805
-0.00089827334
-0.0036913921
-0.0059565843
-0.0077238738
-0.0065075926
-0.0059724692
-0.00628563
-0.0070874006
-0.0076509165
-0.0063434795
-0.004277722
-0.0038862865
-0.0064082331
-0.0048276755
-0.0044250106
-0.0046057129
-0.0051971856
-0.0060911054
-0.0070496028
-0.0072244895
-0.0063197676
-0.0051954201
0.0012644513
0.0013355429
0.00091737114
0.00022061149
-0.0005680214
-0.0013765353
-0.0021857195
-0.0027725264
-0.0029590562
-0.0028362725
0.0036313851
0.00345293
0.0029958722
0.0020876434
0.0011434551
0.00046994534
8.1598233e-05
2.4136426e-05
0.00034040879
0.0010284308
0.0056556316
0.006671873
0.0076568381
0.0074157941
0.0065234539
0.006019803
0.006077645
0.0066795653
0.0076415805
0.0087306193
0.0058761021
0.0059488296
0.0080702456
0.0093220241
0.0088000808
0.0085486874
0.0090588913
0.010112623
0.010382898
0.0076607208
0.0050291391
0.002030812
0.0023530275
0.004488005
0.0043820969
0.0044242589
0.0053863913
0.0064753129
0.0029344893
0.0019569024
0.0017419203
0.00034936465
-0.00012015886
0.00061032161
0.00062940614
0.00069217744
0.0010880874
0.0014182033
-0.0007266975
0.00076647877
-0.0011510277
0.00049412556
-0.0015030897
-0.00064468062
-0.00046667579
-0.00062397601
-0.00061958807
2.638464e-05
-0.00059493638
-0.0019994495
-0.0013521734
-0.0018802664
-0.0041393549
-0.0023927152
-0.0022158799
-0.0028248489
-0.0029600618
-0.00092018378
-0.00084914918
-0.0036796559
-0.0057028593
-0.0074110686
-0.0062153081
-0.0057117291
-0.0060634218
-0.0069149681
-0.007539344
-0.0062835337
-0.0042679086
-0.0039211518
-0.0062391388
-0.0046845179
-0.0043156639
-0.0045326316
-0.0051625661
-0.0060996934
-0.007107342
-0.0073279004
-0.0064637696
-0.0053735434
0.0011418245
0.0011728814
0.00070969077
-3.0357691e-05
-0.00085737102
-0.0017001565
-0.0025402518
-0.0031506161
-0.0033504286
-0.0032304301
0.0032751024
0.003045734
0.0025309206
0.0015698118
0.00058614459
-0.00011306892
-0.00051347358
-0.0005672257
-0.00023018223
0.00049267153
0.0051953366
0.0061708776
0.0071000017
0.006802312
0.0058717947
0.0053518524
0.0054176379
0.0060549615
0.0070778654
0.0082413981
0.0054316105
0.005468588
0.0075425231
0.0087400234
0.0081860956
0.0079298466
0.0084693869
0.009590074
0.009936086
0.0072164716
0.0047007564
0.0016620051
0.0019412843
0.004024387
0.0038956414
0.003944573
0.0049555386
0.0061310096
0.0025819361
0.0016289134
0.0016620772
0.00025756409
-0.00022492724
0.00048873526
0.00050189025
0.0005687343
0.00098379275
0.0013444228
-0.00082928354
0.00070907434
-0.0010760117
0.00054272375
-0.0013988629
-0.00055244003
-0.00038636865
-0.00055783571
-0.00057122581
6.1906697e-05
-0.00057044245
-0.0019784433
-0.0011521954
-0.0016364722
-0.0038233787
-0.0021122454
-0.0019713314
-0.0026242347
-0.0028159613
-0.0008253159
-0.00080006491
-0.0036504883
-0.0054305769
-0.0070733226
-0.00590635
-0.0054370617
-0.0058239604
-0.0067182
-0.0073973031
-0.0061991364
-0.0042446278
-0.0039434434
-0.0060559745
-0.0045372332
-0.0042039273
-0.0044548435
-0.0051180453
-0.006090937
-0.0071395072
-0.0074024325
-0.0065824635
-0.0055315969
0.00099094518
0.00098285167
0.0004789558
-0.00029828666
-0.0011571377
-0.0020276234
-0.0028920991
-0.00352107
-0.0037320409
-0.0036150805
0.0028816242
0.0026043385
0.0020369944
0.0010309958
1.553251e-05
-0.00070396562
-0.0011133174
-0.0011628859
-0.00080753721
-5.5182366e-05
0.0046872461
0.0056168597
0.006486165
0.0061359233
0.0051746695
0.0046424767
0.0047157492
0.0053836219
0.006459505
0.0076885044
0.0049379534
0.0049391284
0.0069538498
0.0080918037
0.0075108935
0.007251862
0.0078166736
0.0089956178
0.0094137742
0.0067152292
0.0043292733
0.0012687483
0.0015041008
0.0035244414
0.0033749364
0.0034304309
0.00448264
0.0057353134
0.0022022514
0.001280176
0.0015676417
0.00015964083
-0.00033264064
0.0003604304
0.00036793714
0.00043840401
0.00086950703
0.0012577369
-0.00092952299
0.00064301997
-0.00099517731
0.00058760142
-0.0012891828
-0.00046021906
-0.00030678757
-0.00049074377
-0.00052105654
9.5767028e-05
-0.00054349711
-0.0019465924
-0.00095247686
-0.0013934851
-0.0034996346
-0.0018347227
-0.0017294367
-0.0024202186
-0.0026646558
-0.00073352534
-0.0007528464
-0.0036056499
-0.0051460171
-0.0067177478
-0.0055872546
-0.0051544115
-0.0055726746
-0.0065019408
-0.0072287387
-0.0060927189
-0.0042087049
-0.0039531131
-0.0058620261
-0.0043884333
-0.0040918283
-0.0043738532
-0.0050646476
-0.0060653639
-0.0071460109
-0.0074471037
-0.0066737597
-0.0056665613
0.00081584964
0.00077006258
0.00023035366
-0.0005774667
-0.001461157
-0.0023523578
-0.0032342889
-0.0038765111
-0.0040961289
-0.0039821864
0.0024606487
0.0021392453
0.0015254296
0.00048318114
-0.00055593365
-0.0012899507
-0.0017048972
-0.001749681
-0.0013784973
-0.00060208634
0.0041448896
0.0050246558
0.0058315829
0.0054338776
0.004449843
0.0039097243
0.0039901127
0.0046835139
0.0058039848
0.0070886936
0.0044091824
0.0043755216
0.0063209918
0.0073955553
0.006793243
0.0065337153
0.0071196429
0.0083475873
0.0088330213
0.0061721539
0.00392578
0.00086224086
0.0010536554
0.0030018467
0.0028341978
0.0028961714
0.0039817925
0.0053013511
0.0018063591
0.00092038396
0.0014616053
5.8510057e-05
-0.00044026366
0.00022890461
0.00023120192
0.00030486626
0.00074880923
0.0011613388
-0.0010251024
0.00057068874
-0.00091058736
0.0006271685
-0.0011764296
-0.00037010666
-0.00022984797
-0.00042446038
-0.00047054883
0.00012699736
-0.00051496291
-0.0019048832
-0.00075826302
-0.0011570263
-0.0031747366
-0.0015660133
-0.0014955782
-0.0022177095
-0.0025101841
-0.00064726573
-0.00070903277
-0.003546741
-0.0048546285
-0.0063505412
-0.0052636154
-0.0048688198
-0.0053141848
-0.0062703707
-0.0070371113
-0.0059663744
-0.0041607288
-0.00394997
-0.0056598809
-0.0042400085
-0.0039807226
-0.0042905779
-0.0050029191
-0.0060231592
-0.0071265848
-0.0074609058
-0.0067356587
-0.0057755834
0.00062085075
0.00053932016
-3.0845473e-05
-0.00086223075
-0.0017634268
-0.0026680596
-0.0035602398
-0.0042100561
-0.004435496
-0.0043243147
0.0020215803
0.001660529
0.0010069744
-6.2397513e-05
-0.0011166913
-0.0018592105
-0.0022762161
-0.0023155056
-0.0019309362
-0.0011359637
0.003581155
0.0044083416
0.0051515988
0.004712338
0.0037138522
0.0031703415
0.0032575571
0.0039713729
0.0051276991
0.0064578106
0.0038586663
0.0037920452
0.0056598177
0.0066684277
0.0060507438
0.0057931715
0.0063960237
0.0076633135
0.008210089
0.0056016906
0.0035009341
0.00045311323
0.00060145891
0.0024695176
0.0022867814
0.002355259
0.0034663233
0.0048416967
0.0014047003
0.00055883161
0.0013468851
-4.303518e-05
-0.00054492031
9.7470706e-05
9.5129898e-05
0.00017159156
0.00062511155
0.0010583325
-0.0011138207
0.00049442002
-0.0008241265
0.0006600534
-0.0010627348
-0.00028392161
-0.00015721009
-0.00036052886
-0.00042100399
0.00015476186
-0.00048561502
-0.0018542626
-0.00057409442
-0.00093200683
-0.0028544184
-0.0013110824
-0.0012743024
-0.0020209072
-0.0023560377
-0.00056856431
-0.00066985543
-0.0034751826
-0.0045610148
-0.0059769773
-0.0049400904
-0.0045844376
-0.0050523152
-0.0060270126
-0.0068253986
-0.0058218659
-0.0041010733
-0.0039337081
-0.0054514813
-0.0040931943
-0.0038713654
-0.0042054191
-0.0049329967
-0.0059642296