/*--------------------------------*- C++ -*----------------------------------*\
| =========                 |                                                 |
| \\      /  F ield         | OpenFOAM: The Open Source CFD Toolbox           |
|  \\    /   O peration     | Version:  v2106                                 |
|   \\  /    A nd           | Website:  www.openfoam.com                      |
|    \\/     M anipulation  |                                                 |
\*---------------------------------------------------------------------------*/
FoamFile
{
    version     2.0;
    format      ascii;
    arch        "LSB;label=32;scalar=64";
    class       volScalarField;
    location    "12.5";
    object      T;
}
// * * * * * * * * * * * * * * * * * * * * * * * * * * * * * * * * * * * * * //

dimensions      [0 0 0 1 0 0 0];

internalField   nonuniform List<scalar> 
4000
(
276.56336
276.56336
276.56337
276.56336
276.56336
276.56336
276.56336
276.56336
276.56336
276.56336
276.56336
276.56337
276.56337
276.56336
276.56336
276.56336
276.56336
276.56336
276.56336
276.56336
276.56337
276.56337
276.56336
276.56336
276.56336
276.56336
276.56336
276.56336
276.56336
276.56336
276.56336
276.56336
276.56336
276.56335
276.56335
276.56335
276.56335
276.56335
276.56336
276.56336
276.56336
276.56336
276.56336
276.56335
276.56335
276.56335
276.56335
276.56335
276.56336
276.56336
276.56336
276.56336
276.56336
276.56335
276.56335
276.56335
276.56335
276.56335
276.56336
276.56336
276.56336
276.56336
276.56336
276.56335
276.56335
276.56335
276.56335
276.56336
276.56336
276.56336
276.56336
276.56336
276.56336
276.56335
276.56335
276.56335
276.56336
276.56336
276.56336
276.56336
276.56336
276.56336
276.56336
276.56336
276.56336
276.56336
276.56336
276.56336
276.56337
276.56337
276.56336
276.56336
276.56336
276.56336
276.56336
276.56336
276.56336
276.56336
276.56337
276.56337
290.43352
290.43353
290.43354
290.4335
290.43349
290.43349
290.4335
290.43351
290.43352
290.43353
290.43353
290.43354
290.43353
290.43349
290.43349
290.43349
290.4335
290.43351
290.43352
290.43352
290.43354
290.43353
290.43352
290.43348
290.43348
290.43349
290.4335
290.43351
290.43352
290.43352
290.4335
290.43349
290.43348
290.43345
290.43345
290.43346
290.43347
290.43348
290.4335
290.43351
290.43349
290.43349
290.43348
290.43345
290.43345
290.43345
290.43346
290.43348
290.43349
290.4335
290.43349
290.43349
290.43349
290.43346
290.43345
290.43346
290.43347
290.43348
290.4335
290.4335
290.4335
290.4335
290.4335
290.43347
290.43346
290.43347
290.43348
290.43349
290.43351
290.43351
290.43351
290.43351
290.43351
290.43348
290.43348
290.43348
290.43349
290.43351
290.43352
290.43353
290.43352
290.43352
290.43352
290.4335
290.43349
290.4335
290.43351
290.43352
290.43354
290.43354
290.43353
290.43352
290.43352
290.43351
290.4335
290.4335
290.43351
290.43353
290.43354
290.43354
304.10308
304.10307
304.10308
304.10302
304.10301
304.10302
304.10303
304.10305
304.10306
304.10308
304.10307
304.10309
304.10306
304.10301
304.103
304.10301
304.10303
304.10305
304.10306
304.10306
304.10308
304.10306
304.10304
304.10299
304.10298
304.10299
304.10301
304.10304
304.10306
304.10306
304.10302
304.10301
304.10299
304.10294
304.10294
304.10295
304.10297
304.103
304.10302
304.10303
304.10301
304.103
304.10298
304.10294
304.10293
304.10294
304.10296
304.10299
304.10302
304.10303
304.10302
304.10301
304.10299
304.10295
304.10294
304.10295
304.10297
304.103
304.10302
304.10303
304.10303
304.10303
304.10301
304.10297
304.10296
304.10297
304.10299
304.10301
304.10304
304.10305
304.10305
304.10305
304.10304
304.103
304.10299
304.103
304.10301
304.10304
304.10306
304.10307
304.10306
304.10306
304.10306
304.10302
304.10302
304.10302
304.10304
304.10306
304.10309
304.1031
304.10308
304.10306
304.10306
304.10303
304.10303
304.10303
304.10305
304.10307
304.1031
304.1031
317.53812
317.53811
317.53811
317.53803
317.53802
317.53803
317.53806
317.53808
317.5381
317.53812
317.53811
317.53812
317.53808
317.53802
317.53801
317.53802
317.53805
317.53808
317.53809
317.5381
317.53811
317.53808
317.53805
317.53799
317.53798
317.538
317.53803
317.53807
317.53809
317.53809
317.53803
317.53802
317.53799
317.53793
317.53793
317.53794
317.53797
317.53801
317.53805
317.53806
317.53802
317.53801
317.53798
317.53793
317.53792
317.53793
317.53796
317.538
317.53804
317.53805
317.53803
317.53802
317.538
317.53794
317.53793
317.53795
317.53797
317.53801
317.53805
317.53806
317.53806
317.53805
317.53803
317.53797
317.53796
317.53797
317.53799
317.53804
317.53807
317.53808
317.53808
317.53808
317.53807
317.53801
317.538
317.53801
317.53804
317.53808
317.53811
317.53813
317.5381
317.53809
317.53809
317.53805
317.53804
317.53805
317.53807
317.53811
317.53814
317.53815
317.53812
317.5381
317.53809
317.53806
317.53805
317.53806
317.53808
317.53813
317.53815
317.53816
330.7077
330.70768
330.70767
330.70758
330.70757
330.70759
330.70762
330.70766
330.70768
330.70771
330.70768
330.70769
330.70764
330.70756
330.70756
330.70757
330.70761
330.70765
330.70767
330.70768
330.70767
330.70764
330.7076
330.70753
330.70752
330.70754
330.70758
330.70764
330.70767
330.70767
330.70758
330.70756
330.70753
330.70746
330.70746
330.70748
330.70751
330.70757
330.70762
330.70764
330.70757
330.70756
330.70752
330.70746
330.70745
330.70747
330.7075
330.70756
330.70761
330.70763
330.70759
330.70757
330.70754
330.70748
330.70747
330.70748
330.70752
330.70757
330.70762
330.70764
330.70762
330.70761
330.70758
330.70751
330.7075
330.70752
330.70755
330.7076
330.70765
330.70767
330.70766
330.70765
330.70764
330.70757
330.70756
330.70757
330.7076
330.70766
330.70771
330.70772
330.70768
330.70767
330.70767
330.70762
330.70761
330.70762
330.70765
330.70771
330.70775
330.70775
330.70771
330.70768
330.70767
330.70764
330.70763
330.70764
330.70767
330.70772
330.70775
330.70776
343.58384
343.58382
343.58381
343.58371
343.5837
343.58372
343.58376
343.58381
343.58384
343.58387
343.58382
343.58383
343.58377
343.58369
343.58368
343.5837
343.58374
343.5838
343.58383
343.58384
343.58381
343.58377
343.58373
343.58365
343.58365
343.58367
343.58371
343.58378
343.58382
343.58383
343.58371
343.58369
343.58365
343.58358
343.58357
343.58359
343.58364
343.58371
343.58377
343.58379
343.5837
343.58368
343.58365
343.58357
343.58357
343.58359
343.58362
343.5837
343.58375
343.58378
343.58372
343.5837
343.58367
343.58359
343.58359
343.5836
343.58364
343.58371
343.58377
343.58379
343.58376
343.58374
343.58371
343.58364
343.58362
343.58364
343.58368
343.58375
343.5838
343.58383
343.58381
343.5838
343.58378
343.58371
343.5837
343.58371
343.58375
343.58382
343.58388
343.5839
343.58384
343.58383
343.58382
343.58377
343.58375
343.58377
343.5838
343.58388
343.58393
343.58393
343.58387
343.58384
343.58383
343.58379
343.58378
343.58379
343.58383
343.5839
343.58393
343.58394
356.14162
356.14159
356.14158
356.14147
356.14146
356.14148
356.14153
356.14158
356.14162
356.14166
356.14159
356.14159
356.14154
356.14144
356.14144
356.14146
356.14151
356.14158
356.14161
356.14162
356.14158
356.14154
356.14149
356.1414
356.1414
356.14142
356.14147
356.14156
356.14161
356.14161
356.14147
356.14144
356.1414
356.14133
356.14132
356.14134
356.14139
356.14148
356.14155
356.14157
356.14146
356.14144
356.1414
356.14132
356.14131
356.14133
356.14138
356.14147
356.14153
356.14156
356.14148
356.14146
356.14142
356.14134
356.14133
356.14135
356.14139
356.14148
356.14154
356.14157
356.14153
356.14151
356.14147
356.14139
356.14138
356.14139
356.14143
356.14152
356.14158
356.14161
356.14158
356.14158
356.14156
356.14148
356.14147
356.14148
356.14152
356.14161
356.14167
356.1417
356.14162
356.14161
356.14161
356.14155
356.14153
356.14154
356.14158
356.14167
356.14173
356.14173
356.14166
356.14162
356.14161
356.14157
356.14156
356.14157
356.14161
356.1417
356.14173
356.14175
368.35908
368.35904
368.35904
368.35892
368.35891
368.35894
368.35899
368.35905
368.3591
368.35914
368.35904
368.35905
368.35899
368.35889
368.35889
368.35892
368.35897
368.35904
368.35908
368.3591
368.35904
368.35899
368.35894
368.35885
368.35885
368.35887
368.35893
368.35902
368.35908
368.35908
368.35892
368.35889
368.35885
368.35877
368.35876
368.35879
368.35884
368.35894
368.35901
368.35904
368.35891
368.35889
368.35885
368.35876
368.35876
368.35878
368.35882
368.35892
368.35899
368.35902
368.35894
368.35892
368.35887
368.35879
368.35878
368.35879
368.35884
368.35894
368.35901
368.35903
368.35899
368.35897
368.35893
368.35884
368.35882
368.35884
368.35888
368.35898
368.35905
368.35908
368.35905
368.35904
368.35902
368.35894
368.35892
368.35894
368.35898
368.35908
368.35915
368.35919
368.3591
368.35908
368.35908
368.35901
368.35899
368.35901
368.35905
368.35915
368.35922
368.35922
368.35914
368.3591
368.35908
368.35904
368.35902
368.35903
368.35908
368.35919
368.35922
368.35924
380.21727
380.21723
380.21722
380.2171
380.21709
380.21712
380.21717
380.21724
380.2173
380.21734
380.21723
380.21724
380.21717
380.21707
380.21707
380.2171
380.21715
380.21724
380.21728
380.2173
380.21722
380.21717
380.21712
380.21703
380.21703
380.21705
380.21711
380.21722
380.21728
380.21728
380.2171
380.21707
380.21703
380.21694
380.21694
380.21696
380.21702
380.21713
380.21721
380.21723
380.21709
380.21707
380.21703
380.21694
380.21693
380.21695
380.217
380.21711
380.21719
380.21722
380.21712
380.2171
380.21705
380.21696
380.21695
380.21697
380.21702
380.21712
380.2172
380.21723
380.21717
380.21715
380.21711
380.21702
380.217
380.21702
380.21706
380.21717
380.21725
380.21728
380.21724
380.21724
380.21722
380.21713
380.21711
380.21712
380.21717
380.21728
380.21736
380.21739
380.2173
380.21728
380.21728
380.21721
380.21719
380.2172
380.21725
380.21736
380.21743
380.21743
380.21734
380.2173
380.21728
380.21723
380.21722
380.21723
380.21728
380.21739
380.21743
380.21745
391.70014
391.70011
391.7001
391.69997
391.69996
391.7
391.70005
391.70013
391.70018
391.70023
391.70011
391.70011
391.70005
391.69994
391.69994
391.69997
391.70003
391.70012
391.70016
391.70018
391.7001
391.70005
391.69999
391.6999
391.6999
391.69993
391.69999
391.7001
391.70016
391.70017
391.69997
391.69994
391.6999
391.69981
391.6998
391.69983
391.69989
391.7
391.70009
391.70012
391.69996
391.69994
391.6999
391.6998
391.6998
391.69982
391.69987
391.69998
391.70006
391.7001
391.7
391.69997
391.69993
391.69983
391.69982
391.69983
391.69988
391.69999
391.70007
391.70011
391.70005
391.70003
391.69999
391.69989
391.69987
391.69988
391.69993
391.70004
391.70012
391.70016
391.70013
391.70012
391.7001
391.7
391.69998
391.69999
391.70004
391.70016
391.70024
391.70028
391.70018
391.70016
391.70016
391.70009
391.70006
391.70007
391.70012
391.70024
391.70032
391.70032
391.70023
391.70018
391.70017
391.70012
391.7001
391.70011
391.70016
391.70028
391.70032
391.70034
402.79452
402.79448
402.79447
402.79434
402.79434
402.79437
402.79442
402.7945
402.79456
402.79461
402.79448
402.79448
402.79442
402.79431
402.79431
402.79434
402.7944
402.7945
402.79454
402.79456
402.79447
402.79442
402.79436
402.79427
402.79427
402.7943
402.79436
402.79447
402.79454
402.79455
402.79434
402.79431
402.79427
402.79418
402.79417
402.7942
402.79425
402.79438
402.79446
402.79449
402.79434
402.79431
402.79427
402.79417
402.79417
402.79419
402.79424
402.79435
402.79444
402.79447
402.79437
402.79434
402.7943
402.7942
402.79419
402.7942
402.79425
402.79436
402.79444
402.79448
402.79442
402.7944
402.79436
402.79425
402.79424
402.79425
402.79429
402.79441
402.79449
402.79453
402.7945
402.7945
402.79447
402.79438
402.79435
402.79436
402.79441
402.79453
402.79462
402.79466
402.79456
402.79454
402.79454
402.79446
402.79444
402.79444
402.79449
402.79462
402.7947
402.7947
402.79461
402.79456
402.79455
402.79449
402.79447
402.79448
402.79453
402.79466
402.7947
402.79472
413.48995
413.48991
413.48991
413.48978
413.48977
413.48981
413.48986
413.48994
413.49
413.49005
413.48991
413.48992
413.48985
413.48975
413.48975
413.48978
413.48984
413.48994
413.48998
413.49
413.48991
413.48985
413.4898
413.4897
413.4897
413.48973
413.48979
413.48991
413.48998
413.48999
413.48978
413.48975
413.4897
413.48961
413.48961
413.48963
413.48969
413.48981
413.4899
413.48993
413.48977
413.48975
413.4897
413.48961
413.4896
413.48962
413.48967
413.48979
413.48987
413.4899
413.48981
413.48978
413.48973
413.48963
413.48962
413.48963
413.48967
413.48979
413.48988
413.48991
413.48986
413.48984
413.48979
413.48969
413.48967
413.48967
413.48972
413.48984
413.48992
413.48996
413.48994
413.48994
413.48991
413.48981
413.48979
413.48979
413.48984
413.48996
413.49006
413.4901
413.49
413.48998
413.48998
413.4899
413.48987
413.48988
413.48992
413.49006
413.49014
413.49013
413.49005
413.49
413.48999
413.48993
413.4899
413.48991
413.48996
413.4901
413.49013
413.49016
423.77868
423.77864
423.77863
423.7785
423.7785
423.77853
423.77859
423.77867
423.77872
423.77878
423.77864
423.77864
423.77858
423.77847
423.77847
423.7785
423.77856
423.77866
423.7787
423.77872
423.77863
423.77858
423.77853
423.77843
423.77843
423.77846
423.77852
423.77864
423.7787
423.77871
423.7785
423.77847
423.77843
423.77834
423.77834
423.77836
423.77841
423.77854
423.77862
423.77865
423.7785
423.77847
423.77843
423.77834
423.77833
423.77834
423.77839
423.77851
423.77859
423.77862
423.77853
423.7785
423.77846
423.77836
423.77834
423.77835
423.77839
423.77851
423.77859
423.77862
423.77859
423.77856
423.77852
423.77841
423.77839
423.77839
423.77843
423.77855
423.77864
423.77868
423.77867
423.77866
423.77864
423.77854
423.77851
423.77851
423.77855
423.77868
423.77877
423.77882
423.77872
423.7787
423.7787
423.77862
423.77859
423.77859
423.77864
423.77877
423.77886
423.77885
423.77878
423.77872
423.77871
423.77865
423.77862
423.77862
423.77868
423.77882
423.77885
423.77887
433.65546
433.65542
433.65542
433.65529
433.65528
433.65531
433.65537
433.65545
433.6555
433.65556
433.65542
433.65543
433.65536
433.65526
433.65526
433.65529
433.65535
433.65544
433.65548
433.6555
433.65542
433.65536
433.65531
433.65522
433.65522
433.65525
433.6553
433.65542
433.65548
433.65549
433.65529
433.65526
433.65522
433.65513
433.65512
433.65514
433.65519
433.65532
433.6554
433.65543
433.65528
433.65526
433.65522
433.65512
433.65511
433.65513
433.65517
433.65529
433.65537
433.6554
433.65531
433.65529
433.65525
433.65514
433.65513
433.65513
433.65517
433.65528
433.65536
433.65539
433.65537
433.65535
433.6553
433.65519
433.65517
433.65517
433.6552
433.65532
433.65541
433.65544
433.65545
433.65544
433.65542
433.65532
433.65529
433.65528
433.65532
433.65544
433.65554
433.65559
433.6555
433.65548
433.65548
433.6554
433.65537
433.65536
433.65541
433.65554
433.65563
433.65561
433.65556
433.6555
433.65549
433.65543
433.6554
433.65539
433.65544
433.65559
433.65561
433.65564
443.1175
443.11746
443.11746
443.11733
443.11732
443.11736
443.11741
443.11749
443.11754
443.1176
443.11746
443.11747
443.11741
443.1173
443.1173
443.11733
443.11739
443.11748
443.11752
443.11754
443.11746
443.11741
443.11736
443.11727
443.11727
443.11729
443.11734
443.11746
443.11752
443.11752
443.11733
443.1173
443.11727
443.11717
443.11717
443.11719
443.11723
443.11736
443.11744
443.11746
443.11732
443.1173
443.11727
443.11717
443.11716
443.11717
443.11721
443.11732
443.1174
443.11743
443.11736
443.11733
443.11729
443.11719
443.11717
443.11717
443.1172
443.11731
443.11739
443.11742
443.11741
443.11739
443.11734
443.11723
443.11721
443.1172
443.11723
443.11735
443.11743
443.11747
443.11749
443.11748
443.11746
443.11736
443.11732
443.11731
443.11735
443.11747
443.11756
443.11761
443.11754
443.11752
443.11752
443.11744
443.1174
443.11739
443.11743
443.11756
443.11765
443.11763
443.1176
443.11754
443.11752
443.11746
443.11743
443.11742
443.11747
443.11761
443.11763
443.11766
452.1643
452.16426
452.16427
452.16414
452.16414
452.16417
452.16422
452.16429
452.16434
452.16439
452.16426
452.16428
452.16422
452.16412
452.16412
452.16415
452.16419
452.16429
452.16432
452.16433
452.16427
452.16422
452.16417
452.16408
452.16408
452.1641
452.16415
452.16427
452.16432
452.16432
452.16414
452.16412
452.16408
452.16399
452.16399
452.164
452.16404
452.16416
452.16424
452.16426
452.16414
452.16412
452.16408
452.16399
452.16398
452.16398
452.16401
452.16412
452.1642
452.16422
452.16417
452.16415
452.1641
452.164
452.16398
452.16398
452.164
452.16411
452.16418
452.16421
452.16422
452.16419
452.16415
452.16404
452.16401
452.164
452.16403
452.16414
452.16422
452.16425
452.16429
452.16429
452.16427
452.16416
452.16412
452.16411
452.16414
452.16426
452.16435
452.16439
452.16434
452.16432
452.16432
452.16424
452.1642
452.16418
452.16422
452.16435
452.16443
452.16441
452.16439
452.16433
452.16432
452.16426
452.16422
452.16421
452.16425
452.16439
452.16441
452.16444
460.79757
460.79753
460.79754
460.79741
460.79741
460.79744
460.79748
460.79755
460.7976
460.79765
460.79753
460.79754
460.79749
460.79739
460.79739
460.79742
460.79746
460.79755
460.79758
460.79759
460.79754
460.79749
460.79745
460.79736
460.79736
460.79738
460.79742
460.79753
460.79758
460.79758
460.79741
460.79739
460.79736
460.79727
460.79727
460.79727
460.79731
460.79742
460.79749
460.79751
460.79741
460.79739
460.79736
460.79727
460.79725
460.79725
460.79728
460.79738
460.79745
460.79747
460.79744
460.79742
460.79738
460.79727
460.79725
460.79725
460.79726
460.79737
460.79743
460.79745
460.79748
460.79746
460.79742
460.79731
460.79728
460.79726
460.79728
460.79738
460.79746
460.79749
460.79755
460.79755
460.79753
460.79742
460.79738
460.79737
460.79738
460.7975
460.79759
460.79763
460.7976
460.79758
460.79758
460.79749
460.79745
460.79743
460.79746
460.79759
460.79767
460.79765
460.79765
460.79759
460.79758
460.79751
460.79747
460.79745
460.79749
460.79763
460.79765
460.79767
469.02104
469.021
469.02101
469.02089
469.02088
469.02091
469.02095
469.02101
469.02106
469.02111
469.021
469.02102
469.02096
469.02087
469.02087
469.02089
469.02093
469.02101
469.02104
469.02105
469.02101
469.02096
469.02093
469.02084
469.02084
469.02085
469.02089
469.021
469.02104
469.02103
469.02089
469.02087
469.02084
469.02075
469.02075
469.02075
469.02078
469.02089
469.02096
469.02097
469.02088
469.02087
469.02084
469.02075
469.02074
469.02073
469.02075
469.02085
469.02091
469.02093
469.02091
469.02089
469.02085
469.02075
469.02073
469.02072
469.02073
469.02083
469.02089
469.02091
469.02095
469.02093
469.02089
469.02078
469.02075
469.02073
469.02074
469.02084
469.02091
469.02094
469.02101
469.02101
469.021
469.02089
469.02085
469.02083
469.02084
469.02095
469.02103
469.02107
469.02106
469.02104
469.02104
469.02096
469.02091
469.02089
469.02091
469.02103
469.02111
469.02108
469.02111
469.02105
469.02103
469.02097
469.02093
469.02091
469.02094
469.02107
469.02108
469.0211
476.84039
476.84036
476.84037
476.84025
476.84025
476.84027
476.8403
476.84036
476.8404
476.84045
476.84036
476.84037
476.84032
476.84023
476.84023
476.84025
476.84029
476.84036
476.84039
476.84039
476.84037
476.84032
476.84029
476.84021
476.84021
476.84022
476.84025
476.84035
476.84039
476.84038
476.84025
476.84023
476.84021
476.84012
476.84012
476.84012
476.84014
476.84024
476.8403
476.84031
476.84025
476.84023
476.84021
476.84012
476.8401
476.84009
476.8401
476.8402
476.84025
476.84027
476.84027
476.84025
476.84022
476.84012
476.84009
476.84008
476.84008
476.84017
476.84023
476.84024
476.8403
476.84029
476.84025
476.84014
476.8401
476.84008
476.84008
476.84017
476.84024
476.84026
476.84036
476.84036
476.84035
476.84024
476.8402
476.84017
476.84017
476.84028
476.84035
476.84039
476.8404
476.84039
476.84039
476.8403
476.84025
476.84023
476.84024
476.84035
476.84043
476.8404
476.84045
476.84039
476.84038
476.84031
476.84027
476.84024
476.84026
476.84039
476.8404
476.84042
484.26311
484.26308
484.26309
484.26298
484.26297
484.26299
484.26302
484.26308
484.26311
484.26316
484.26308
484.2631
484.26305
484.26296
484.26297
484.26298
484.26301
484.26308
484.2631
484.2631
484.26309
484.26305
484.26302
484.26294
484.26294
484.26295
484.26297
484.26306
484.2631
484.26308
484.26298
484.26296
484.26294
484.26286
484.26285
484.26285
484.26286
484.26296
484.26301
484.26302
484.26297
484.26297
484.26294
484.26285
484.26284
484.26282
484.26283
484.26291
484.26296
484.26297
484.26299
484.26298
484.26295
484.26285
484.26282
484.2628
484.2628
484.26288
484.26293
484.26294
484.26302
484.26301
484.26297
484.26286
484.26283
484.2628
484.26279
484.26288
484.26294
484.26296
484.26308
484.26308
484.26306
484.26296
484.26291
484.26288
484.26288
484.26297
484.26305
484.26308
484.26311
484.2631
484.2631
484.26301
484.26296
484.26293
484.26294
484.26305
484.26311
484.26308
484.26316
484.2631
484.26308
484.26302
484.26297
484.26294
484.26296
484.26308
484.26308
484.2631
491.29836
491.29833
491.29835
491.29824
491.29823
491.29825
491.29827
491.29832
491.29835
491.29839
491.29833
491.29835
491.29831
491.29823
491.29823
491.29824
491.29826
491.29833
491.29834
491.29833
491.29835
491.29831
491.29828
491.29821
491.2982
491.29821
491.29822
491.29831
491.29834
491.29832
491.29824
491.29823
491.29821
491.29813
491.29812
491.29811
491.29812
491.29821
491.29825
491.29826
491.29823
491.29823
491.2982
491.29812
491.2981
491.29809
491.29808
491.29816
491.2982
491.29821
491.29825
491.29824
491.29821
491.29811
491.29809
491.29806
491.29805
491.29812
491.29816
491.29817
491.29827
491.29826
491.29822
491.29812
491.29808
491.29805
491.29804
491.29811
491.29816
491.29818
491.29832
491.29833
491.29831
491.29821
491.29816
491.29812
491.29811
491.2982
491.29827
491.2983
491.29835
491.29834
491.29834
491.29825
491.2982
491.29816
491.29816
491.29827
491.29833
491.29829
491.29839
491.29833
491.29832
491.29826
491.29821
491.29817
491.29818
491.2983
491.29829
491.29831
497.95687
497.95684
497.95685
497.95675
497.95675
497.95676
497.95678
497.95682
497.95684
497.95688
497.95684
497.95686
497.95682
497.95674
497.95674
497.95675
497.95676
497.95682
497.95683
497.95682
497.95685
497.95682
497.9568
497.95672
497.95672
497.95672
497.95673
497.95681
497.95683
497.95681
497.95675
497.95674
497.95672
497.95665
497.95664
497.95663
497.95663
497.95671
497.95675
497.95675
497.95675
497.95674
497.95672
497.95664
497.95662
497.9566
497.95659
497.95666
497.95669
497.95669
497.95676
497.95675
497.95672
497.95663
497.9566
497.95657
497.95655
497.95662
497.95665
497.95665
497.95678
497.95676
497.95673
497.95663
497.95659
497.95655
497.95653
497.9566
497.95664
497.95666
497.95682
497.95682
497.95681
497.95671
497.95666
497.95662
497.9566
497.95668
497.95674
497.95677
497.95684
497.95683
497.95683
497.95675
497.95669
497.95665
497.95664
497.95674
497.9568
497.95676
497.95688
497.95682
497.95681
497.95675
497.95669
497.95665
497.95666
497.95677
497.95676
497.95677
504.25078
504.25076
504.25078
504.25068
504.25067
504.25068
504.25069
504.25073
504.25075
504.25078
504.25076
504.25078
504.25075
504.25067
504.25067
504.25067
504.25068
504.25074
504.25074
504.25073
504.25078
504.25075
504.25073
504.25066
504.25065
504.25064
504.25065
504.25072
504.25074
504.25071
504.25068
504.25067
504.25066
504.25059
504.25057
504.25056
504.25055
504.25062
504.25066
504.25065
504.25067
504.25067
504.25065
504.25057
504.25055
504.25053
504.25051
504.25057
504.2506
504.2506
504.25068
504.25067
504.25064
504.25056
504.25053
504.25049
504.25047
504.25053
504.25055
504.25055
504.25069
504.25068
504.25065
504.25055
504.25051
504.25047
504.25044
504.25051
504.25054
504.25055
504.25073
504.25074
504.25072
504.25062
504.25057
504.25053
504.25051
504.25058
504.25063
504.25066
504.25075
504.25074
504.25074
504.25066
504.2506
504.25055
504.25054
504.25063
504.25068
504.25064
504.25078
504.25073
504.25071
504.25065
504.2506
504.25055
504.25055
504.25066
504.25064
504.25065
510.19361
510.19359
510.1936
510.19351
510.1935
510.19351
510.19352
510.19355
510.19356
510.19359
510.19359
510.19361
510.19358
510.19351
510.1935
510.1935
510.19351
510.19355
510.19355
510.19354
510.1936
510.19358
510.19356
510.19349
510.19349
510.19348
510.19348
510.19354
510.19355
510.19352
510.19351
510.19351
510.19349
510.19342
510.19341
510.19339
510.19338
510.19344
510.19347
510.19346
510.1935
510.1935
510.19349
510.19341
510.19339
510.19336
510.19334
510.19339
510.19341
510.19341
510.19351
510.1935
510.19348
510.19339
510.19336
510.19332
510.19329
510.19334
510.19336
510.19336
510.19352
510.19351
510.19348
510.19338
510.19334
510.19329
510.19326
510.19332
510.19335
510.19335
510.19355
510.19355
510.19354
510.19344
510.19339
510.19334
510.19332
510.19338
510.19343
510.19345
510.19356
510.19355
510.19355
510.19347
510.19341
510.19336
510.19335
510.19343
510.19347
510.19343
510.19359
510.19354
510.19352
510.19346
510.19341
510.19336
510.19335
510.19345
510.19343
510.19344
515.80004
515.80002
515.80004
515.79995
515.79994
515.79994
515.79994
515.79997
515.79998
515.8
515.80002
515.80004
515.80001
515.79995
515.79994
515.79994
515.79994
515.79997
515.79997
515.79995
515.80004
515.80001
515.8
515.79993
515.79993
515.79991
515.79991
515.79996
515.79997
515.79994
515.79995
515.79995
515.79993
515.79987
515.79986
515.79983
515.79981
515.79987
515.79989
515.79988
515.79994
515.79994
515.79993
515.79986
515.79983
515.7998
515.79977
515.79982
515.79983
515.79982
515.79994
515.79994
515.79991
515.79983
515.7998
515.79976
515.79972
515.79976
515.79978
515.79977
515.79994
515.79994
515.79991
515.79981
515.79977
515.79972
515.79969
515.79973
515.79976
515.79976
515.79997
515.79997
515.79996
515.79987
515.79982
515.79976
515.79973
515.79979
515.79983
515.79985
515.79998
515.79997
515.79997
515.79989
515.79983
515.79978
515.79976
515.79983
515.79987
515.79983
515.8
515.79995
515.79994
515.79988
515.79982
515.79977
515.79976
515.79985
515.79983
515.79983
521.08589
521.08587
521.08588
521.0858
521.08579
521.08579
521.08579
521.08581
521.08581
521.08584
521.08587
521.08589
521.08587
521.0858
521.0858
521.08579
521.08578
521.08581
521.0858
521.08579
521.08588
521.08587
521.08585
521.08579
521.08578
521.08576
521.08575
521.0858
521.0858
521.08577
521.0858
521.0858
521.08579
521.08573
521.08572
521.08569
521.08567
521.08571
521.08573
521.08571
521.08579
521.0858
521.08578
521.08572
521.08569
521.08565
521.08562
521.08566
521.08567
521.08566
521.08579
521.08579
521.08576
521.08569
521.08565
521.08561
521.08557
521.08561
521.08562
521.0856
521.08579
521.08578
521.08575
521.08567
521.08562
521.08557
521.08553
521.08557
521.08559
521.08559
521.08581
521.08581
521.0858
521.08571
521.08566
521.08561
521.08557
521.08562
521.08565
521.08567
521.08581
521.0858
521.0858
521.08573
521.08567
521.08562
521.08559
521.08565
521.08569
521.08565
521.08584
521.08579
521.08577
521.08571
521.08566
521.0856
521.08559
521.08567
521.08565
521.08565
526.06796
526.06795
526.06796
526.06789
526.06788
526.06787
526.06787
526.06788
526.06788
526.0679
526.06795
526.06797
526.06795
526.06789
526.06788
526.06787
526.06786
526.06789
526.06787
526.06785
526.06796
526.06795
526.06794
526.06788
526.06787
526.06785
526.06783
526.06787
526.06787
526.06784
526.06789
526.06789
526.06788
526.06782
526.0678
526.06777
526.06775
526.06779
526.0678
526.06778
526.06788
526.06788
526.06787
526.0678
526.06778
526.06774
526.0677
526.06774
526.06774
526.06773
526.06787
526.06787
526.06785
526.06777
526.06774
526.06769
526.06765
526.06768
526.06769
526.06767
526.06787
526.06786
526.06783
526.06775
526.0677
526.06765
526.06761
526.06764
526.06766
526.06765
526.06788
526.06789
526.06787
526.06779
526.06774
526.06768
526.06764
526.06768
526.06771
526.06773
526.06788
526.06787
526.06787
526.0678
526.06774
526.06769
526.06766
526.06771
526.06774
526.0677
526.0679
526.06785
526.06784
526.06778
526.06773
526.06767
526.06765
526.06773
526.0677
526.0677
530.76399
530.76398
530.76399
530.76392
530.76391
530.7639
530.76389
530.7639
530.7639
530.76391
530.76398
530.764
530.76398
530.76392
530.76391
530.7639
530.76389
530.76391
530.76389
530.76387
530.76399
530.76398
530.76397
530.76392
530.7639
530.76388
530.76386
530.76389
530.76389
530.76386
530.76392
530.76392
530.76392
530.76386
530.76384
530.76381
530.76378
530.76382
530.76382
530.7638
530.76391
530.76391
530.7639
530.76384
530.76382
530.76378
530.76374
530.76376
530.76376
530.76375
530.7639
530.7639
530.76388
530.76381
530.76378
530.76373
530.76368
530.76371
530.76371
530.76369
530.76389
530.76389
530.76386
530.76378
530.76374
530.76368
530.76364
530.76366
530.76367
530.76367
530.7639
530.76391
530.76389
530.76382
530.76376
530.76371
530.76366
530.7637
530.76372
530.76374
530.7639
530.76389
530.76389
530.76382
530.76376
530.76371
530.76367
530.76372
530.76375
530.76371
530.76391
530.76387
530.76386
530.7638
530.76375
530.76369
530.76367
530.76374
530.76371
530.76371
535.1925
535.19249
535.1925
535.19244
535.19242
535.19241
535.1924
535.1924
535.1924
535.19241
535.19249
535.19251
535.19249
535.19244
535.19243
535.19241
535.19239
535.19241
535.19239
535.19237
535.1925
535.19249
535.19248
535.19243
535.19242
535.19239
535.19237
535.1924
535.19239
535.19236
535.19244
535.19244
535.19243
535.19238
535.19236
535.19233
535.1923
535.19232
535.19232
535.1923
535.19242
535.19243
535.19242
535.19236
535.19233
535.19229
535.19225
535.19227
535.19227
535.19225
535.19241
535.19241
535.19239
535.19233
535.19229
535.19224
535.1922
535.19221
535.19221
535.19219
535.1924
535.19239
535.19237
535.1923
535.19225
535.1922
535.19215
535.19217
535.19217
535.19217
535.1924
535.19241
535.1924
535.19232
535.19227
535.19221
535.19217
535.1922
535.19222
535.19223
535.1924
535.19239
535.19239
535.19232
535.19227
535.19221
535.19217
535.19222
535.19224
535.1922
535.19241
535.19237
535.19236
535.1923
535.19225
535.19219
535.19217
535.19223
535.1922
535.1922
539.37273
539.37273
539.37274
539.37268
539.37267
539.37265
539.37264
539.37264
539.37263
539.37264
539.37273
539.37275
539.37273
539.37268
539.37267
539.37265
539.37263
539.37264
539.37262
539.3726
539.37274
539.37273
539.37272
539.37268
539.37266
539.37263
539.37261
539.37263
539.37262
539.37259
539.37268
539.37268
539.37268
539.37263
539.37261
539.37257
539.37254
539.37256
539.37256
539.37254
539.37267
539.37267
539.37266