/*--------------------------------*- C++ -*----------------------------------*\
| =========                 |                                                 |
| \\      /  F ield         | OpenFOAM: The Open Source CFD Toolbox           |
|  \\    /   O peration     | Version:  v2106                                 |
|   \\  /    A nd           | Website:  www.openfoam.com                      |
|    \\/     M anipulation  |                                                 |
\*---------------------------------------------------------------------------*/
FoamFile
{
    version     2.0;
    format      ascii;
    arch        "LSB;label=32;scalar=64";
    class       volVectorField;
    location    "40";
    object      flux;
}
// * * * * * * * * * * * * * * * * * * * * * * * * * * * * * * * * * * * * * //

dimensions      [0 1 -1 1 0 0 0];

internalField   nonuniform List<vector> 
4000
(
(1.5374495e-06 1.5374494e-06 0.6801705)
(8.4576596e-07 2.7664446e-07 0.68018066)
(-1.968312e-06 4.1889026e-07 0.68017394)
(-7.8421507e-07 4.2573317e-07 0.68017128)
(-3.6470755e-07 4.3125194e-07 0.68016984)
(-2.5650906e-08 4.4187161e-07 0.68016939)
(2.153274e-07 4.6343927e-07 0.68016973)
(2.8771344e-07 5.0747819e-07 0.68017056)
(1.2709509e-07 5.780367e-07 0.68017126)
(-5.3575441e-09 5.9526293e-07 0.68017099)
(2.7664446e-07 8.4576596e-07 0.68018066)
(-8.3207287e-07 -8.3207288e-07 0.68018292)
(-1.744679e-06 -6.0068014e-07 0.68017697)
(-7.6567256e-07 -5.8174371e-07 0.68017435)
(-3.404999e-07 -5.5986573e-07 0.68017295)
(2.2630097e-08 -5.2299918e-07 0.68017259)
(3.1373728e-07 -4.5670975e-07 0.68017311)
(4.5960959e-07 -3.2928572e-07 0.68017429)
(2.587722e-07 -1.0050552e-07 0.68017556)
(1.1868687e-08 1.4253887e-07 0.68017516)
(4.1889027e-07 -1.968312e-06 0.68017394)
(-6.0068014e-07 -1.744679e-06 0.68017697)
(-1.7179829e-06 -1.7179829e-06 0.68017112)
(-7.4340066e-07 -1.6963827e-06 0.68016855)
(-3.0596302e-07 -1.6653948e-06 0.68016722)
(7.7505074e-08 -1.6216134e-06 0.68016697)
(4.0904086e-07 -1.5574968e-06 0.68016767)
(6.4391766e-07 -1.45763e-06 0.68016918)
(5.9891968e-07 -1.2909469e-06 0.68017111)
(1.5667205e-07 -1.0377287e-06 0.68017181)
(4.2573318e-07 -7.8421506e-07 0.68017128)
(-5.8174372e-07 -7.6567255e-07 0.68017435)
(-1.6963827e-06 -7.4340066e-07 0.68016855)
(-7.1308445e-07 -7.1308446e-07 0.68016605)
(-2.6573056e-07 -6.7585862e-07 0.68016481)
(1.3052813e-07 -6.3068128e-07 0.68016468)
(4.7772064e-07 -5.7489334e-07 0.68016554)
(7.2615942e-07 -5.0751806e-07 0.68016725)
(6.7867353e-07 -4.350075e-07 0.68016942)
(1.8068083e-07 -3.7967918e-07 0.68017033)
(4.3125194e-07 -3.6470755e-07 0.68016984)
(-5.5986573e-07 -3.4049991e-07 0.68017295)
(-1.6653948e-06 -3.0596302e-07 0.68016722)
(-6.7585862e-07 -2.6573056e-07 0.68016481)
(-2.2355985e-07 -2.2355985e-07 0.68016369)
(1.7847035e-07 -1.801903e-07 0.68016367)
(5.3220408e-07 -1.3461593e-07 0.68016466)
(7.8380351e-07 -8.7126459e-08 0.68016653)
(7.2675856e-07 -4.2681616e-08 0.68016885)
(1.9355759e-07 -1.3915381e-08 0.68016986)
(4.4187161e-07 -2.5650906e-08 0.68016939)
(-5.2299919e-07 2.2630088e-08 0.68017259)
(-1.6216134e-06 7.7505072e-08 0.68016697)
(-6.3068128e-07 1.3052813e-07 0.68016468)
(-1.801903e-07 1.7847035e-07 0.68016367)
(2.1947205e-07 2.1947205e-07 0.68016376)
(5.7078448e-07 2.5453724e-07 0.68016486)
(8.1809373e-07 2.8357913e-07 0.68016682)
(7.5188461e-07 3.0497672e-07 0.68016923)
(1.9985832e-07 3.1626365e-07 0.68017029)
(4.6343927e-07 2.153274e-07 0.68016973)
(-4.5670976e-07 3.1373728e-07 0.68017311)
(-1.5574968e-06 4.0904086e-07 0.68016767)
(-5.7489334e-07 4.7772064e-07 0.68016554)
(-1.3461593e-07 5.3220408e-07 0.68016466)
(2.5453724e-07 5.7078447e-07 0.68016486)
(5.9631116e-07 5.9631116e-07 0.68016604)
(8.3424299e-07 6.0954757e-07 0.68016806)
(7.5944308e-07 6.1095386e-07 0.68017049)
(2.0108221e-07 6.0541208e-07 0.68017156)
(5.0747819e-07 2.8771343e-07 0.68017056)
(-3.2928572e-07 4.5960959e-07 0.68017429)
(-1.45763e-06 6.4391766e-07 0.68016918)
(-5.0751806e-07 7.2615942e-07 0.68016725)
(-8.7126463e-08 7.8380351e-07 0.68016653)
(2.8357913e-07 8.1809373e-07 0.68016682)
(6.0954758e-07 8.34243e-07 0.68016806)
(8.3273643e-07 8.3273644e-07 0.68017009)
(7.4774911e-07 8.1227047e-07 0.6801725)
(1.9616379e-07 7.8134042e-07 0.68017352)
(5.7803671e-07 1.2709509e-07 0.68017126)
(-1.0050552e-07 2.5877221e-07 0.68017556)
(-1.2909469e-06 5.9891967e-07 0.68017111)
(-4.3500749e-07 6.7867354e-07 0.68016942)
(-4.2681609e-08 7.2675857e-07 0.68016885)
(3.0497672e-07 7.5188462e-07 0.68016923)
(6.1095387e-07 7.5944308e-07 0.68017049)
(8.1227047e-07 7.4774912e-07 0.6801725)
(7.0804706e-07 7.0804707e-07 0.68017481)
(1.8046218e-07 6.3883155e-07 0.68017568)
(5.9526294e-07 -5.3575399e-09 0.68017099)
(1.4253887e-07 1.186869e-08 0.68017516)
(-1.0377287e-06 1.5667205e-07 0.68017181)
(-3.7967917e-07 1.8068083e-07 0.68017033)
(-1.3915385e-08 1.935576e-07 0.68016986)
(3.1626364e-07 1.9985832e-07 0.68017029)
(6.0541208e-07 2.0108221e-07 0.68017156)
(7.8134042e-07 1.9616379e-07 0.68017352)
(6.3883155e-07 1.8046218e-07 0.68017568)
(1.5002012e-07 1.5002012e-07 0.68017621)
(5.5694056e-06 5.5694056e-06 1.0120681)
(2.6389259e-06 1.4316589e-06 1.0120771)
(-8.202743e-06 1.7738633e-06 1.0120697)
(-3.8252949e-06 1.8028366e-06 1.0120659)
(-1.7490472e-06 1.830607e-06 1.0120639)
(-7.3492833e-08 1.882782e-06 1.0120634)
(1.1234675e-06 1.9899885e-06 1.0120641)
(1.433352e-06 2.2147892e-06 1.0120655)
(2.5914039e-07 2.5743587e-06 1.0120667)
(-2.5904242e-07 2.3901363e-06 1.0120649)
(1.4316589e-06 2.6389259e-06 1.0120771)
(-3.0543883e-06 -3.0543883e-06 1.0120793)
(-7.6459765e-06 -2.4488838e-06 1.0120722)
(-3.7401793e-06 -2.355946e-06 1.0120685)
(-1.6291291e-06 -2.2462685e-06 1.0120666)
(1.6557945e-07 -2.0648158e-06 1.0120662)
(1.6214783e-06 -1.7365139e-06 1.0120671)
(2.3099074e-06 -1.0928345e-06 1.0120692)
(5.2216113e-07 7.5130103e-08 1.0120715)
(-4.4326483e-07 8.1095256e-07 1.0120695)
(1.7738633e-06 -8.202743e-06 1.0120697)
(-2.4488838e-06 -7.6459765e-06 1.0120722)
(-7.5043007e-06 -7.5043007e-06 1.0120653)
(-3.6226797e-06 -7.3892421e-06 1.0120617)
(-1.4579171e-06 -7.2354245e-06 1.0120599)
(4.3626178e-07 -7.019934e-06 1.0120596)
(2.0954487e-06 -6.70411e-06 1.0120608)
(3.2449959e-06 -6.2071741e-06 1.0120634)
(2.1629274e-06 -5.3513838e-06 1.0120667)
(2.3150587e-07 -4.1343073e-06 1.0120661)
(1.8028366e-06 -3.8252949e-06 1.0120659)
(-2.355946e-06 -3.7401793e-06 1.0120685)
(-7.3892421e-06 -3.6226797e-06 1.0120617)
(-3.4713031e-06 -3.4713031e-06 1.0120582)
(-1.2598211e-06 -3.2879429e-06 1.0120565)
(6.9689388e-07 -3.0659011e-06 1.0120564)
(2.4342382e-06 -2.7919649e-06 1.0120579)
(3.6626337e-06 -2.4607191e-06 1.0120607)
(2.5950281e-06 -2.0940053e-06 1.0120644)
(3.6811954e-07 -1.7966856e-06 1.0120642)
(1.830607e-06 -1.7490472e-06 1.0120639)
(-2.2462685e-06 -1.6291291e-06 1.0120666)
(-7.2354245e-06 -1.4579171e-06 1.0120599)
(-3.2879429e-06 -1.2598211e-06 1.0120565)
(-1.0525152e-06 -1.0525152e-06 1.012055)
(9.3223981e-07 -8.3937267e-07 1.0120551)
(2.7006307e-06 -6.1567432e-07 1.0120567)
(3.9429556e-06 -3.835679e-07 1.0120598)
(2.826961e-06 -1.6756766e-07 1.0120637)
(4.29719e-07 -3.0440144e-08 1.0120636)
(1.882782e-06 -7.3492832e-08 1.0120634)
(-2.0648158e-06 1.6557944e-07 1.0120662)
(-7.019934e-06 4.3626178e-07 1.0120596)
(-3.0659011e-06 6.9689387e-07 1.0120564)
(-8.3937267e-07 9.3223981e-07 1.0120551)
(1.1337347e-06 1.1337347e-06 1.0120553)
(2.890043e-06 1.3058542e-06 1.0120571)
(4.1107403e-06 1.4479858e-06 1.0120603)
(2.9481558e-06 1.551671e-06 1.0120643)
(4.5953788e-07 1.6038693e-06 1.0120643)
(1.9899885e-06 1.1234675e-06 1.0120641)
(-1.7365139e-06 1.6214783e-06 1.0120671)
(-6.70411e-06 2.0954487e-06 1.0120608)
(-2.7919649e-06 2.4342382e-06 1.0120579)
(-6.1567432e-07 2.7006307e-06 1.0120567)
(1.3058542e-06 2.890043e-06 1.0120571)
(3.0148818e-06 3.0148818e-06 1.012059)
(4.1887723e-06 3.0781521e-06 1.0120623)
(2.9828444e-06 3.0803972e-06 1.0120664)
(4.6451787e-07 3.0443563e-06 1.0120664)
(2.2147892e-06 1.433352e-06 1.0120655)
(-1.0928345e-06 2.3099074e-06 1.0120692)
(-6.2071741e-06 3.2449959e-06 1.0120634)
(-2.4607191e-06 3.6626337e-06 1.0120607)
(-3.835679e-07 3.9429556e-06 1.0120598)
(1.4479858e-06 4.1107403e-06 1.0120603)
(3.0781521e-06 4.1887723e-06 1.0120623)
(4.1762557e-06 4.1762557e-06 1.0120656)
(2.91436e-06 4.0575947e-06 1.0120696)
(4.3551061e-07 3.8594337e-06 1.0120695)
(2.5743587e-06 2.591404e-07 1.0120667)
(7.5130108e-08 5.2216112e-07 1.0120715)
(-5.3513838e-06 2.1629274e-06 1.0120667)
(-2.0940053e-06 2.5950281e-06 1.0120644)
(-1.6756767e-07 2.826961e-06 1.0120637)
(1.551671e-06 2.9481558e-06 1.0120643)
(3.0803972e-06 2.9828444e-06 1.0120664)
(4.0575946e-06 2.91436e-06 1.0120696)
(2.6660224e-06 2.6660224e-06 1.0120734)
(3.3241057e-07 2.1182646e-06 1.0120729)
(2.3901363e-06 -2.5904241e-07 1.0120649)
(8.1095256e-07 -4.4326483e-07 1.0120695)
(-4.1343073e-06 2.3150587e-07 1.0120661)
(-1.7966856e-06 3.6811954e-07 1.0120642)
(-3.0440153e-08 4.29719e-07 1.0120636)
(1.6038693e-06 4.5953788e-07 1.0120643)
(3.0443563e-06 4.6451786e-07 1.0120664)
(3.8594337e-06 4.3551061e-07 1.0120695)
(2.1182646e-06 3.3241057e-07 1.0120729)
(7.0338746e-08 7.0338748e-08 1.0120708)
(7.5158483e-06 7.5158483e-06 1.0128825)
(2.3547687e-06 1.7058978e-06 1.0128879)
(-1.3165885e-05 2.1235245e-06 1.0128818)
(-6.5233191e-06 2.166979e-06 1.0128785)
(-2.9036958e-06 2.2156115e-06 1.0128768)
(1.2341978e-07 2.3074179e-06 1.0128765)
(2.377857e-06 2.5002218e-06 1.0128775)
(2.9477818e-06 2.9367982e-06 1.0128794)
(-4.9728589e-07 3.766112e-06 1.0128813)
(-1.2119254e-06 3.6198e-06 1.0128788)
(1.7058978e-06 2.3547687e-06 1.0128879)
(-5.7337185e-06 -5.7337185e-06 1.0128887)
(-1.2474264e-05 -4.9707255e-06 1.0128829)
(-6.3851885e-06 -4.8182069e-06 1.0128796)
(-2.6930374e-06 -4.6232027e-06 1.0128779)
(5.5033523e-07 -4.3007503e-06 1.0128777)
(3.3219275e-06 -3.7146419e-06 1.012879)
(4.8466173e-06 -2.5240648e-06 1.0128815)
(5.2721689e-07 -1.7389115e-07 1.0128847)
(-1.3582374e-06 1.2956752e-06 1.0128822)
(2.1235245e-06 -1.3165885e-05 1.0128818)
(-4.9707255e-06 -1.2474264e-05 1.0128829)
(-1.2250374e-05 -1.2250374e-05 1.0128771)
(-6.1757963e-06 -1.2045309e-05 1.0128739)
(-2.3862393e-06 -1.1769355e-05 1.0128723)
(1.0319805e-06 -1.1383004e-05 1.0128723)
(4.1545423e-06 -1.0819129e-05 1.0128738)
(6.4885323e-06 -9.9395306e-06 1.0128768)
(3.322454e-06 -8.4150577e-06 1.012881)
(-2.3221455e-07 -6.34382e-06 1.0128797)
(2.166979e-06 -6.523319e-06 1.0128785)
(-4.8182069e-06 -6.3851885e-06 1.0128796)
(-1.2045309e-05 -6.1757963e-06 1.0128739)
(-5.9041697e-06 -5.9041697e-06 1.0128708)
(-2.0307331e-06 -5.5755548e-06 1.0128694)
(1.5005616e-06 -5.1775736e-06 1.0128695)
(4.7654013e-06 -4.6861111e-06 1.0128713)
(7.2506884e-06 -4.0913091e-06 1.0128746)
(4.1229277e-06 -3.4241649e-06 1.0128791)
(2.2587732e-08 -2.8763585e-06 1.0128782)
(2.2156115e-06 -2.9036958e-06 1.0128768)
(-4.6232027e-06 -2.6930374e-06 1.0128779)
(-1.1769355e-05 -2.3862392e-06 1.0128723)
(-5.5755548e-06 -2.030733e-06 1.0128694)
(-1.6596431e-06 -1.6596431e-06 1.0128681)
(1.9214242e-06 -1.2783093e-06 1.0128684)
(5.2408067e-06 -8.7858804e-07 1.0128704)
(7.7504785e-06 -4.6501052e-07 1.0128739)
(4.5374047e-06 -8.0570722e-08 1.0128786)
(1.3298975e-07 1.633908e-07 1.0128779)
(2.3074179e-06 1.2341978e-07 1.0128765)
(-4.3007503e-06 5.5033523e-07 1.0128777)
(-1.1383004e-05 1.0319805e-06 1.0128723)
(-5.1775736e-06 1.5005616e-06 1.0128695)
(-1.2783093e-06 1.9214242e-06 1.0128684)
(2.2816167e-06 2.2816167e-06 1.0128689)
(5.5787001e-06 2.5885964e-06 1.012871)
(8.0487057e-06 2.8406878e-06 1.0128747)
(4.7513291e-06 3.022123e-06 1.0128795)
(1.8522875e-07 3.1101166e-06 1.0128788)
(2.5002218e-06 2.377857e-06 1.0128775)
(-3.7146419e-06 3.3219275e-06 1.012879)
(-1.0819129e-05 4.1545423e-06 1.0128738)
(-4.6861112e-06 4.7654013e-06 1.0128713)
(-8.7858804e-07 5.2408067e-06 1.0128704)
(2.5885964e-06 5.5787001e-06 1.012871)
(5.7998778e-06 5.7998778e-06 1.0128732)
(8.184005e-06 5.9074988e-06 1.012877)
(4.8068334e-06 5.8972241e-06 1.0128819)
(1.9165218e-07 5.8068213e-06 1.0128812)
(2.9367982e-06 2.9477818e-06 1.0128794)
(-2.5240648e-06 4.8466173e-06 1.0128815)
(-9.9395306e-06 6.4885323e-06 1.0128768)
(-4.0913092e-06 7.2506884e-06 1.0128746)
(-4.6501051e-07 7.7504785e-06 1.0128739)
(2.8406878e-06 8.0487057e-06 1.0128747)
(5.9074988e-06 8.184005e-06 1.012877)
(8.1460519e-06 8.1460519e-06 1.0128807)
(4.6506516e-06 7.8734153e-06 1.0128856)
(1.2496023e-07 7.3435627e-06 1.0128847)
(3.766112e-06 -4.972859e-07 1.0128813)
(-1.7389114e-07 5.272169e-07 1.0128847)
(-8.4150577e-06 3.322454e-06 1.012881)
(-3.4241649e-06 4.1229277e-06 1.0128791)
(-8.0570731e-08 4.5374047e-06 1.0128786)
(3.0221229e-06 4.7513291e-06 1.0128795)
(5.8972241e-06 4.8068334e-06 1.0128819)
(7.8734153e-06 4.6506516e-06 1.0128856)
(4.0043442e-06 4.0043442e-06 1.0128901)
(-1.6158284e-07 1.918153e-06 1.0128887)
(3.6198e-06 -1.2119254e-06 1.0128788)
(1.2956752e-06 -1.3582374e-06 1.0128822)
(-6.34382e-06 -2.3221455e-07 1.0128797)
(-2.8763585e-06 2.2587731e-08 1.0128782)
(1.633908e-07 1.3298975e-07 1.0128779)
(3.1101166e-06 1.8522876e-07 1.0128788)
(5.8068213e-06 1.9165218e-07 1.0128812)
(7.3435627e-06 1.2496022e-07 1.0128847)
(1.918153e-06 -1.6158284e-07 1.0128887)
(-1.2658339e-06 -1.2658339e-06 1.0128842)
(9.1566564e-06 9.1566564e-06 1.0141433)
(1.9345691e-06 1.9501465e-06 1.0141481)
(-1.7606839e-05 2.446963e-06 1.0141425)
(-8.8728799e-06 2.505905e-06 1.0141395)
(-3.7721105e-06 2.5753641e-06 1.014138)
(6.2570625e-07 2.7053177e-06 1.014138)
(4.0689154e-06 2.9775243e-06 1.0141393)
(5.2123366e-06 3.6081549e-06 1.0141417)
(-4.1209793e-07 4.8834644e-06 1.0141443)
(-1.9245859e-06 4.6665937e-06 1.0141424)
(1.9501465e-06 1.9345691e-06 1.0141481)
(-8.129973e-06 -8.129973e-06 1.0141488)
(-1.6773202e-05 -7.204165e-06 1.0141434)
(-8.6802782e-06 -6.9902086e-06 1.0141405)
(-3.4729915e-06 -6.7099758e-06 1.0141391)
(1.2289466e-06 -6.2491917e-06 1.0141392)
(5.4231712e-06 -5.4156762e-06 1.0141407)
(8.0712469e-06 -3.7092838e-06 1.0141437)
(1.1755605e-06 -2.2084247e-07 1.0141476)
(-2.1414566e-06 1.7548124e-06 1.0141454)
(2.446963e-06 -1.7606839e-05 1.0141425)
(-7.204165e-06 -1.6773202e-05 1.0141434)
(-1.6467075e-05 -1.6467075e-05 1.0141381)
(-8.3786908e-06 -1.6171634e-05 1.0141353)
(-3.0310937e-06 -1.5774072e-05 1.014134)
(1.9200058e-06 -1.5218345e-05 1.0141343)
(6.6088229e-06 -1.4409139e-05 1.0141361)
(1.040717e-05 -1.3154114e-05 1.0141395)
(5.0519981e-06 -1.0970778e-05 1.0141443)
(-6.0748276e-07 -8.116828e-06 1.0141433)
(2.505905e-06 -8.8728799e-06 1.0141395)
(-6.9902086e-06 -8.6802783e-06 1.0141405)
(-1.6171634e-05 -8.3786908e-06 1.0141353)
(-7.9872755e-06 -7.9872755e-06 1.0141326)
(-2.5197022e-06 -7.5147181e-06 1.0141314)
(2.5938804e-06 -6.9430682e-06 1.0141319)
(7.487402e-06 -6.2373895e-06 1.0141339)
(1.1509607e-05 -5.3842198e-06 1.0141376)
(6.2128473e-06 -4.4205221e-06 1.0141428)
(-2.3882308e-07 -3.6303375e-06 1.0141421)
(2.5753641e-06 -3.7721105e-06 1.014138)
(-6.7099758e-06 -3.4729915e-06 1.0141391)
(-1.5774072e-05 -3.0310936e-06 1.014134)
(-7.5147181e-06 -2.5197022e-06 1.0141314)
(-1.9868864e-06 -1.9868864e-06 1.0141305)
(3.1973343e-06 -1.4399922e-06 1.014131)
(8.1676714e-06 -8.6759336e-07 1.0141333)
(1.2224037e-05 -2.7697341e-07 1.0141372)
(6.8058805e-06 2.7155593e-07 1.0141426)
(-8.0693008e-08 6.1949229e-07 1.0141421)
(2.7053177e-06 6.2570625e-07 1.014138)
(-6.2491916e-06 1.2289466e-06 1.0141392)
(-1.5218345e-05 1.9200058e-06 1.0141343)
(-6.9430682e-06 2.5938804e-06 1.0141319)
(-1.4399922e-06 3.1973343e-06 1.014131)
(3.7131734e-06 3.7131734e-06 1.0141318)
(8.6504208e-06 4.1515897e-06 1.0141342)
(1.2648757e-05 4.5097394e-06 1.0141382)
(7.1093131e-06 4.7652811e-06 1.0141437)
(-6.8655051e-09 4.8873561e-06 1.0141433)
(2.9775243e-06 4.0689154e-06 1.0141393)
(-5.4156762e-06 5.4231712e-06 1.0141407)
(-1.4409139e-05 6.6088229e-06 1.0141361)
(-6.2373896e-06 7.487402e-06 1.0141339)
(-8.6759337e-07 8.1676714e-06 1.0141333)
(4.1515897e-06 8.6504208e-06 1.0141342)
(8.9642373e-06 8.9642373e-06 1.0141366)
(1.2837729e-05 9.1124142e-06 1.0141408)
(7.1834972e-06 9.0867619e-06 1.0141463)
(6.9031808e-10 8.9423749e-06 1.0141459)
(3.6081549e-06 5.2123366e-06 1.0141417)
(-3.7092838e-06 8.0712469e-06 1.0141437)
(-1.3154114e-05 1.040717e-05 1.0141395)
(-5.3842198e-06 1.1509607e-05 1.0141376)
(-2.7697342e-07 1.2224037e-05 1.0141372)
(4.5097394e-06 1.2648757e-05 1.0141382)
(9.1124142e-06 1.2837729e-05 1.0141408)
(1.2771281e-05 1.2771281e-05 1.0141449)
(6.9392737e-06 1.2339121e-05 1.0141504)
(-1.0312351e-07 1.1442108e-05 1.0141498)
(4.8834644e-06 -4.1209792e-07 1.0141443)
(-2.2084246e-07 1.1755605e-06 1.0141476)
(-1.0970778e-05 5.0519981e-06 1.0141443)
(-4.4205221e-06 6.2128473e-06 1.0141428)
(2.7155591e-07 6.8058805e-06 1.0141426)
(4.7652811e-06 7.1093131e-06 1.0141437)
(9.0867619e-06 7.1834972e-06 1.0141463)
(1.2339121e-05 6.9392737e-06 1.0141504)
(5.8543236e-06 5.8543236e-06 1.0141556)
(-5.9731846e-07 1.5333242e-06 1.0141544)
(4.6665937e-06 -1.9245859e-06 1.0141424)
(1.7548124e-06 -2.1414566e-06 1.0141454)
(-8.116828e-06 -6.0748276e-07 1.0141433)
(-3.6303375e-06 -2.3882308e-07 1.0141421)
(6.1949227e-07 -8.0693008e-08 1.0141421)
(4.8873561e-06 -6.8655005e-09 1.0141433)
(8.9423749e-06 6.9032207e-10 1.0141459)
(1.1442108e-05 -1.0312351e-07 1.0141498)
(1.5333242e-06 -5.9731846e-07 1.0141544)
(-2.9837896e-06 -2.9837896e-06 1.0141493)
(1.0676602e-05 1.0676602e-05 1.0158411)
(1.4973449e-06 2.1697604e-06 1.0158455)
(-2.1732093e-05 2.7540304e-06 1.0158402)
(-1.0933139e-05 2.8311063e-06 1.0158375)
(-4.3691853e-06 2.9219858e-06 1.0158363)
(1.4056809e-06 3.0898894e-06 1.0158365)
(6.0785228e-06 3.440194e-06 1.0158381)
(7.8899268e-06 4.2594709e-06 1.0158408)
(1.6409895e-07 5.9698188e-06 1.0158437)
(-2.469044e-06 5.6466392e-06 1.0158423)
(2.1697604e-06 1.4973449e-06 1.0158455)
(-1.0386515e-05 -1.0386515e-05 1.0158461)
(-2.0740074e-05 -9.2789726e-06 1.0158411)
(-1.0681206e-05 -8.9971972e-06 1.0158384)
(-3.9810105e-06 -8.6306286e-06 1.0158373)
(2.1829933e-06 -8.032966e-06 1.0158376)
(7.8328951e-06 -6.9565367e-06 1.0158394)
(1.1684364e-05 -4.7479375e-06 1.0158427)
(2.2448517e-06 -1.4741271e-07 1.0158469)
(-2.7922236e-06 2.2424982e-06 1.0158451)
(2.7540304e-06 -2.1732093e-05 1.0158402)
(-9.2789727e-06 -2.0740074e-05 1.0158411)
(-2.0342776e-05 -2.0342776e-05 1.0158361)
(-1.0284795e-05 -1.995377e-05 1.0158336)
(-3.4049542e-06 -1.9434841e-05 1.0158325)
(3.0797726e-06 -1.8712385e-05 1.015833)
(9.3635509e-06 -1.7662938e-05 1.0158351)
(1.469905e-05 -1.6042046e-05 1.0158388)
(7.1545344e-06 -1.3213909e-05 1.0158439)
(-8.7577021e-07 -9.6237695e-06 1.0158433)
(2.8311063e-06 -1.0933139e-05 1.0158375)
(-8.9971972e-06 -1.0681206e-05 1.0158384)
(-1.995377e-05 -1.0284795e-05 1.0158336)
(-9.773272e-06 -9.773272e-06 1.0158311)
(-2.7396259e-06 -9.1582961e-06 1.0158302)
(3.9548964e-06 -8.4161194e-06 1.0158309)
(1.0503235e-05 -7.5010555e-06 1.0158332)
(1.6133394e-05 -6.3966314e-06 1.0158372)
(8.6631286e-06 -5.1438019e-06 1.0158426)
(-3.9879749e-07 -4.1222273e-06 1.0158423)
(2.9219858e-06 -4.3691853e-06 1.0158363)
(-8.6306286e-06 -3.9810105e-06 1.0158373)
(-1.9434841e-05 -3.4049542e-06 1.0158325)
(-9.1582961e-06 -2.7396259e-06 1.0158302)
(-2.0478015e-06 -2.0478015e-06 1.0158295)
(4.7370132e-06 -1.3388324e-06 1.0158303)
(1.1383039e-05 -5.9811691e-07 1.0158328)
(1.7056303e-05 1.6410607e-07 1.015837)
(9.4289387e-06 8.7126838e-07 1.0158427)
(-1.9472044e-07 1.3188701e-06 1.0158425)
(3.0898894e-06 1.4056809e-06 1.0158365)
(-8.032966e-06 2.1829933e-06 1.0158376)
(-1.8712385e-05 3.0797726e-06 1.015833)
(-8.4161194e-06 3.9548964e-06 1.0158309)
(-1.3388324e-06 4.7370132e-06 1.0158303)
(5.404581e-06 5.404581e-06 1.0158313)
(1.2006173e-05 5.970238e-06 1.0158339)
(1.7602779e-05 6.4297904e-06 1.0158382)
(9.8178928e-06 6.7549157e-06 1.015844)
(-1.0039633e-07 6.908079e-06 1.0158439)
(3.440194e-06 6.0785228e-06 1.0158381)
(-6.9565367e-06 7.8328951e-06 1.0158394)
(-1.7662938e-05 9.3635509e-06 1.0158351)
(-7.5010555e-06 1.0503235e-05 1.0158332)
(-5.981169e-07 1.1383039e-05 1.0158328)
(5.970238e-06 1.2006173e-05 1.0158339)
(1.2408248e-05 1.2408248e-05 1.0158366)
(1.7840981e-05 1.2592351e-05 1.015841)
(9.9072273e-06 1.254761e-05 1.0158469)
(-9.2611584e-08 1.2349655e-05 1.0158467)
(4.2594709e-06 7.8899268e-06 1.0158408)
(-4.7479375e-06 1.1684364e-05 1.0158427)
(-1.6042046e-05 1.469905e-05 1.0158388)
(-6.3966314e-06 1.6133394e-05 1.0158372)
(1.6410606e-07 1.7056303e-05 1.015837)
(6.4297904e-06 1.7602779e-05 1.0158382)
(1.2592351e-05 1.7840981e-05 1.015841)
(1.7742141e-05 1.7742141e-05 1.0158454)
(9.575196e-06 1.7152291e-05 1.0158512)
(-2.3236689e-07 1.590361e-05 1.0158509)
(5.9698188e-06 1.6409895e-07 1.0158437)
(-1.4741271e-07 2.2448517e-06 1.0158469)
(-1.3213909e-05 7.1545344e-06 1.0158439)
(-5.1438019e-06 8.6631286e-06 1.0158426)
(8.7126837e-07 9.4289387e-06 1.0158427)
(6.7549157e-06 9.8178928e-06 1.015844)
(1.254761e-05 9.9072273e-06 1.0158469)
(1.7152291e-05 9.575196e-06 1.0158512)
(8.0686952e-06 8.0686952e-06 1.0158567)
(-9.2506593e-07 1.3433186e-06 1.0158559)
(5.6466392e-06 -2.469044e-06 1.0158423)
(2.2424982e-06 -2.7922236e-06 1.0158451)
(-9.6237695e-06 -8.7577021e-07 1.0158433)
(-4.1222273e-06 -3.9879749e-07 1.0158423)
(1.3188701e-06 -1.9472044e-07 1.0158425)
(6.908079e-06 -1.0039633e-07 1.0158439)
(1.2349655e-05 -9.2611582e-08 1.0158467)
(1.590361e-05 -2.323669e-07 1.0158509)
(1.3433186e-06 -9.2506593e-07 1.0158559)
(-4.7159509e-06 -4.7159509e-06 1.0158508)
(1.2076921e-05 1.2076921e-05 1.0179594)
(1.0087203e-06 2.342929e-06 1.0179634)
(-2.5608472e-05 3.0175194e-06 1.0179583)
(-1.2753976e-05 3.1144492e-06 1.0179559)
(-4.7310089e-06 3.2270095e-06 1.0179549)
(2.4219277e-06 3.4321524e-06 1.0179553)
(8.3353022e-06 3.8585966e-06 1.0179571)
(1.0840167e-05 4.8615692e-06 1.01796)
(1.0646719e-06 6.9982066e-06 1.0179632)
(-2.8939749e-06 6.5715557e-06 1.0179621)
(2.342929e-06 1.0087203e-06 1.0179634)
(-1.2580385e-05 -1.2580385e-05 1.0179638)
(-2.4451191e-05 -1.128228e-05 1.017959)
(-1.2439741e-05 -1.0928137e-05 1.0179566)
(-4.2544541e-06 -1.0474889e-05 1.0179557)
(3.3693085e-06 -9.7430555e-06 1.0179563)
(1.0479428e-05 -8.4301475e-06 1.0179583)
(1.5549582e-05 -5.7336682e-06 1.0179617)
(3.6296521e-06 -4.7095564e-08 1.0179662)
(-3.3206257e-06 2.7360479e-06 1.0179648)
(3.0175194e-06 -2.5608472e-05 1.0179583)
(-1.128228e-05 -2.4451191e-05 1.017959)
(-2.3956223e-05 -2.3956223e-05 1.0179544)
(-1.1946586e-05 -2.3471126e-05 1.017952)
(-3.5459278e-06 -2.283161e-05 1.0179512)
(4.4666688e-06 -2.1945968e-05 1.0179519)
(1.2344689e-05 -2.0662931e-05 1.0179542)
(1.9223218e-05 -1.868776e-05 1.0179581)
(9.5343877e-06 -1.5233302e-05 1.0179634)
(-1.0385461e-06 -1.0939255e-05 1.017963)
(3.1144492e-06 -1.2753976e-05 1.0179559)
(-1.0928137e-05 -1.2439741e-05 1.0179566)
(-2.3471126e-05 -1.1946586e-05 1.017952)
(-1.1315128e-05 -1.1315128e-05 1.0179498)
(-2.7292957e-06 -1.0559857e-05 1.0179492)
(5.5379881e-06 -9.6510828e-06 1.01795)
(1.3737636e-05 -8.5324789e-06 1.0179525)
(2.0979211e-05 -7.1848795e-06 1.0179566)
(1.1378158e-05 -5.6519468e-06 1.0179623)
(-4.579275e-07 -4.4087445e-06 1.0179623)
(3.2270095e-06 -4.7310089e-06 1.0179549)
(-1.0474889e-05 -4.2544541e-06 1.0179557)
(-2.283161e-05 -3.5459278e-06 1.0179512)
(-1.0559857e-05 -2.7292957e-06 1.0179492)
(-1.8818823e-06 -1.8818823e-06 1.0179486)
(6.4940467e-06 -1.0150039e-06 1.0179497)
(1.4810892e-05 -1.1094632e-07 1.0179523)
(2.210375e-05 8.1707798e-07 1.0179567)
(1.2310523e-05 1.677185e-06 1.0179625)
(-2.0974454e-07 2.2201876e-06 1.0179626)
(3.4321524e-06 2.4219277e-06 1.0179553)
(-9.7430555e-06 3.3693085e-06 1.0179563)
(-2.1945968e-05 4.4666688e-06 1.0179519)
(-9.6510828e-06 5.5379881e-06 1.01795)
(-1.0150039e-06 6.4940467e-06 1.0179497)
(7.3089241e-06 7.3089241e-06 1.0179509)
(1.5569718e-05 7.9975185e-06 1.0179536)
(2.2767342e-05 8.5542117e-06 1.0179581)
(1.2781268e-05 8.9450913e-06 1.0179641)
(-9.5925802e-08 9.1266721e-06 1.0179642)
(3.8585966e-06 8.3353022e-06 1.0179571)
(-8.4301475e-06 1.0479428e-05 1.0179583)
(-2.0662931e-05 1.2344689e-05 1.0179542)
(-8.5324789e-06 1.3737636e-05 1.0179525)
(-1.1094633e-07 1.4810892e-05 1.0179523)
(7.9975185e-06 1.5569718e-05 1.0179536)
(1.605618e-05 1.605618e-05 1.0179565)
(2.3051322e-05 1.6272823e-05 1.0179611)
(1.2882984e-05 1.620635e-05 1.0179671)
(-8.869065e-08 1.5953743e-05 1.0179672)
(4.8615692e-06 1.0840167e-05 1.01796)
(-5.7336682e-06 1.5549582e-05 1.0179617)
(-1.868776e-05 1.9223218e-05 1.0179581)
(-7.1848796e-06 2.0979211e-05 1.0179566)
(8.1707797e-07 2.210375e-05 1.0179567)
(8.5542117e-06 2.2767342e-05 1.0179581)
(1.6272823e-05 2.3051322e-05 1.0179611)
(2.2917513e-05 2.2917513e-05 1.0179656)
(1.2462187e-05 2.217119e-05 1.0179715)
(-2.6433076e-07 2.0584939e-05 1.0179716)
(6.9982066e-06 1.0646719e-06 1.0179632)
(-4.7095559e-08 3.6296521e-06 1.0179662)
(-1.5233302e-05 9.5343877e-06 1.0179634)
(-5.6519468e-06 1.1378158e-05 1.0179623)
(1.677185e-06 1.2310523e-05 1.0179625)
(8.9450913e-06 1.2781268e-05 1.0179641)
(1.620635e-05 1.2882984e-05 1.0179671)
(2.217119e-05 1.2462187e-05 1.0179715)
(1.055041e-05 1.055041e-05 1.0179772)
(-1.1461913e-06 1.4207068e-06 1.0179767)
(6.5715557e-06 -2.8939749e-06 1.0179621)
(2.7360479e-06 -3.3206257e-06 1.0179648)
(-1.0939255e-05 -1.0385461e-06 1.017963)
(-4.4087445e-06 -4.579275e-07 1.0179623)
(2.2201876e-06 -2.0974454e-07 1.0179626)
(9.1266721e-06 -9.5925804e-08 1.0179642)
(1.5953743e-05 -8.8690653e-08 1.0179672)
(2.0584939e-05 -2.6433076e-07 1.0179716)
(1.4207068e-06 -1.1461913e-06 1.0179767)
(-6.3507985e-06 -6.3507985e-06 1.017972)
(1.3346765e-05 1.3346765e-05 1.020479)
(4.4494855e-07 2.4605739e-06 1.0204826)
(-2.9261343e-05 3.2253719e-06 1.0204777)
(-1.4372162e-05 3.3430541e-06 1.0204755)
(-4.898157e-06 3.4772454e-06 1.0204747)
(3.6240572e-06 3.7186237e-06 1.0204753)
(1.0771978e-05 4.2186797e-06 1.0204772)
(1.3975609e-05 5.3993591e-06 1.0204803)
(2.2119623e-06 7.9512009e-06 1.0204836)
(-3.2185755e-06 7.4341027e-06 1.0204828)
(2.4605739e-06 4.4494855e-07 1.0204826)
(-1.4737146e-05 -1.4737146e-05 1.0204828)
(-2.7937623e-05 -1.324633e-05 1.0204783)
(-1.3994352e-05 -1.2817451e-05 1.0204761)
(-4.3348026e-06 -1.2278157e-05 1.0204753)
(4.7362088e-06 -1.1415757e-05 1.0204761)
(1.3293081e-05 -9.8742816e-06 1.0204782)
(1.9574392e-05 -6.7067664e-06 1.0204818)
(5.2640784e-06 3.3549913e-08 1.0204863)
(-3.7356737e-06 3.2068361e-06 1.0204853)
(3.2253719e-06 -2.9261343e-05 1.0204777)
(-1.324633e-05 -2.7937623e-05 1.0204783)
(-2.7341649e-05 -2.7341649e-05 1.0204738)
(-1.340399e-05 -2.6759493e-05 1.0204717)
(-3.4964624e-06 -2.600114e-05 1.0204711)
(6.0279327e-06 -2.4956758e-05 1.020472)
(1.5480968e-05 -2.3447902e-05 1.0204744)
(2.3883439e-05 -2.113147e-05 1.0204783)
(1.2125564e-05 -1.7072766e-05 1.0204837)
(-1.1030517e-06 -1.2103783e-05 1.0204837)
(3.3430541e-06 -1.4372162e-05 1.0204755)
(-1.2817451e-05 -1.3994352e-05 1.0204761)
(-2.6759493e-05 -1.340399e-05 1.0204717)
(-1.2653843e-05 -1.2653843e-05 1.0204697)
(-2.5320675e-06 -1.1761267e-05 1.0204692)
(7.2894464e-06 -1.0690649e-05 1.0204702)
(1.711837e-05 -9.3752063e-06 1.0204728)
(2.5949528e-05 -7.7932421e-06 1.0204771)
(1.4291766e-05 -5.9903172e-06 1.0204828)
(-4.2301837e-07 -4.5345259e-06 1.0204831)
(3.4772454e-06 -4.898157e-06 1.0204747)
(-1.2278157e-05 -4.3348026e-06 1.0204753)
(-2.600114e-05 -3.4964624e-06 1.0204711)
(-1.1761267e-05 -2.5320675e-06 1.0204692)
(-1.5332687e-06 -1.5332687e-06 1.0204689)
(8.4139934e-06 -5.1329344e-07 1.0204701)
(1.8378375e-05 5.4863635e-07 1.0204728)
(2.7268328e-05 1.6364366e-06 1.0204773)
(1.5384281e-05 2.643748e-06 1.0204832)
(-1.3252413e-07 3.2782305e-06 1.0204836)
(3.7186237e-06 3.6240572e-06 1.0204753)
(-1.1415757e-05 4.7362087e-06 1.0204761)
(-2.4956758e-05 6.0279327e-06 1.020472)
(-1.0690649e-05 7.2894464e-06 1.0204702)
(-5.1329346e-07 8.4139934e-06 1.0204701)
(9.3713515e-06 9.3713515e-06 1.0204714)
(1.92681e-05 1.0178592e-05 1.0204743)
(2.804464e-05 1.0828745e-05 1.0204789)
(1.593356e-05 1.1282663e-05 1.0204849)
(-3.008027e-11 1.1491212e-05 1.0204853)
(4.2186797e-06 1.0771978e-05 1.0204772)
(-9.8742817e-06 1.3293081e-05 1.0204782)
(-2.3447902e-05 1.5480968e-05 1.0204744)
(-9.3752063e-06 1.711837e-05 1.0204728)
(5.4863633e-07 1.8378375e-05 1.0204728)
(1.0178592e-05 1.92681e-05 1.0204743)
(1.9835769e-05 1.9835769e-05 1.0204773)
(2.8372399e-05 2.0083397e-05 1.0204819)
(1.6046748e-05 1.999546e-05 1.020488)
(6.5087585e-09 1.9689604e-05 1.0204884)
(5.3993591e-06 1.3975609e-05 1.0204803)
(-6.7067664e-06 1.9574392e-05 1.0204818)
(-2.113147e-05 2.3883439e-05 1.0204783)
(-7.7932421e-06 2.5949528e-05 1.0204771)
(1.6364366e-06 2.7268328e-05 1.0204773)
(1.0828745e-05 2.804464e-05 1.0204789)
(2.0083397e-05 2.8372399e-05 1.0204819)
(2.8204331e-05 2.8204331e-05 1.0204865)
(1.5539767e-05 2.7307143e-05 1.0204925)
(-2.0393393e-07 2.5398641e-05 1.0204928)
(7.9512009e-06 2.2119623e-06 1.0204836)
(3.3549918e-08 5.2640784e-06 1.0204863)
(-1.7072766e-05 1.2125564e-05 1.0204837)
(-5.9903172e-06 1.4291766e-05 1.0204828)
(2.643748e-06 1.5384281e-05 1.0204832)
(1.1282663e-05 1.593356e-05 1.0204849)
(1.999546e-05 1.6046748e-05 1.020488)
(2.7307143e-05 1.5539767e-05 1.0204925)
(1.3241058e-05 1.3241058e-05 1.0204983)
(-1.2658259e-06 1.763852e-06 1.0204981)
(7.4341027e-06 -3.2185755e-06 1.0204828)
(3.2068361e-06 -3.7356737e-06 1.0204853)
(-1.2103783e-05 -1.1030517e-06 1.0204837)
(-4.5345259e-06 -4.2301838e-07 1.0204831)
(3.2782305e-06 -1.3252413e-07 1.0204836)
(1.1491212e-05 -3.008372e-11 1.0204853)
(1.9689604e-05 6.508762e-09 1.0204884)
(2.5398641e-05 -2.0393393e-07 1.0204928)
(1.763852e-06 -1.2658259e-06 1.0204981)
(-7.8554032e-06 -7.8554032e-06 1.0204938)
(1.4476551e-05 1.4476551e-05 1.0233784)
(-2.0565867e-07 2.5189974e-06 1.0233816)
(-3.2698034e-05 3.3723277e-06 1.023377)
(-1.5813178e-05 3.5111479e-06 1.0233749)
(-4.9065968e-06 3.6666571e-06 1.0233743)
(4.9649057e-06 3.9430202e-06 1.023375)
(1.3329224e-05 4.513715e-06 1.0233771)
(1.7229137e-05 5.8650506e-06 1.0233802)
(3.5565283e-06 8.8182542e-06 1.0233836)
(-3.4528383e-06 8.2259898e-06 1.0233831)
(2.5189974e-06 -2.0565867e-07 1.0233816)
(-1.6861998e-05 -1.6861998e-05 1.0233817)
(-3.1209809e-05 -1.5180074e-05 1.0233774)
(-1.5371684e-05 -1.4675647e-05 1.0233753)
(-4.2587882e-06 -1.4051859e-05 1.0233748)