/*--------------------------------*- C++ -*----------------------------------*\
| =========                 |                                                 |
| \\      /  F ield         | OpenFOAM: The Open Source CFD Toolbox           |
|  \\    /   O peration     | Version:  v2106                                 |
|   \\  /    A nd           | Website:  www.openfoam.com                      |
|    \\/     M anipulation  |                                                 |
\*---------------------------------------------------------------------------*/
FoamFile
{
    version     2.0;
    format      ascii;
    arch        "LSB;label=32;scalar=64";
    class       volVectorField;
    location    "40";
    object      gradT;
}
// * * * * * * * * * * * * * * * * * * * * * * * * * * * * * * * * * * * * * //

dimensions      [0 -1 0 1 0 0 0];

internalField   nonuniform List<vector> 
4000
(
(0.0012058207 0.0012058207 533.45732)
(0.00066333373 0.00021697208 533.46528)
(-0.001543746 0.00032853538 533.46002)
(-0.00061505941 0.00033390228 533.45793)
(-0.00028603992 0.00033823064 533.4568)
(-2.0117991e-05 0.00034655964 533.45645)
(0.00016888116 0.00036347515 533.45672)
(0.00022565348 0.00039801485 533.45737)
(9.9680603e-05 0.00045335384 533.45792)
(-4.2019186e-06 0.00046686437 533.4577)
(0.00021697208 0.00066333373 533.46528)
(-0.00065259424 -0.00065259425 533.46705)
(-0.0013683507 -0.00047111307 533.46239)
(-0.00060051653 -0.00045626125 533.46034)
(-0.00026705387 -0.00043910236 533.45924)
(1.7748771e-05 -0.00041018795 533.45896)
(0.00024606396 -0.00035819718 533.45936)
(0.00036047153 -0.00025825859 533.46029)
(0.00020295488 -7.8826421e-05 533.46129)
(9.3086044e-06 0.00011179315 533.46097)
(0.00032853539 -0.001543746 533.46002)
(-0.00047111307 -0.0013683507 533.46239)
(-0.001347413 -0.001347413 533.4578)
(-0.0005830487 -0.001330472 533.45579)
(-0.00023996662 -0.0013061682 533.45476)
(6.0787184e-05 -0.0012718304 533.45456)
(0.00032081051 -0.0012215438 533.4551)
(0.00050502424 -0.0011432184 533.45629)
(0.00046973235 -0.0010124889 533.4578)
(0.0001228778 -0.00081389002 533.45835)
(0.00033390228 -0.00061505941 533.45793)
(-0.00045626125 -0.00060051653 533.46034)
(-0.001330472 -0.0005830487 533.45579)
(-0.00055927172 -0.00055927173 533.45384)
(-0.00020841233 -0.00053007553 533.45287)
(0.00010237314 -0.00049464297 533.45276)
(0.00037467602 -0.00045088852 533.45344)
(0.00056952641 -0.00039804612 533.45478)
(0.00053228325 -0.00034117612 533.45648)
(0.00014170787 -0.00029778216 533.45719)
(0.00033823064 -0.00028603992 533.4568)
(-0.00043910236 -0.00026705387 533.45924)
(-0.0013061682 -0.00023996662 533.45476)
(-0.00053007553 -0.00020841233 533.45287)
(-0.00017533786 -0.00017533786 533.45199)
(0.0001399742 -0.00014132315 533.45197)
(0.00041740736 -0.0001055792 533.45275)
(0.00061473664 -6.8333231e-05 533.45421)
(0.00056999631 -3.3475166e-05 533.45603)
(0.00015180711 -1.0913825e-05 533.45682)
(0.00034655964 -2.011799e-05 533.45645)
(-0.00041018795 1.7748764e-05 533.45896)
(-0.0012718304 6.0787183e-05 533.45456)
(-0.00049464297 0.00010237314 533.45276)
(-0.00014132315 0.0001399742 533.45197)
(0.0001721318 0.00017213181 533.45205)
(0.00044766594 0.00019963341 533.45291)
(0.00064163044 0.00022241094 533.45444)
(0.00058970266 0.00023919306 533.45633)
(0.00015674876 0.00024804539 533.45715)
(0.00036347514 0.00016888115 533.45672)
(-0.00035819719 0.00024606396 533.45936)
(-0.0012215438 0.00032081051 533.4551)
(-0.00045088851 0.00037467602 533.45344)
(-0.00010557919 0.00041740735 533.45275)
(0.00019963341 0.00044766593 533.45291)
(0.00046768649 0.0004676865 533.45383)
(0.00065429629 0.00047806781 533.45541)
(0.00059563076 0.00047917075 533.45731)
(0.00015770866 0.00047482433 533.45815)
(0.00039801485 0.00022565347 533.45737)
(-0.00025825859 0.00036047153 533.46029)
(-0.0011432184 0.00050502424 533.45629)
(-0.00039804612 0.00056952641 533.45478)
(-6.8333235e-05 0.00061473664 533.45421)
(0.00022241094 0.00064163044 533.45444)
(0.00047806781 0.0006542963 533.45541)
(0.0006531147 0.0006531147 533.457)
(0.00058645919 0.00063706325 533.45889)
(0.00015385115 0.00061280483 533.45969)
(0.00045335385 9.9680607e-05 533.45792)
(-7.882642e-05 0.00020295489 533.46129)
(-0.0010124889 0.00046973235 533.4578)
(-0.00034117612 0.00053228326 533.45648)
(-3.3475161e-05 0.00056999632 533.45603)
(0.00023919307 0.00058970266 533.45633)
(0.00047917076 0.00059563076 533.45731)
(0.00063706325 0.00058645919 533.45889)
(0.00055532088 0.00055532089 533.4607)
(0.00014153638 0.0005010352 533.46138)
(0.00046686437 -4.2019154e-06 533.4577)
(0.00011179315 9.3086062e-06 533.46097)
(-0.00081389002 0.0001228778 533.45835)
(-0.00029778215 0.00014170787 533.45719)
(-1.0913828e-05 0.00015180711 533.45682)
(0.00024804539 0.00015674876 533.45715)
(0.00047482434 0.00015770866 533.45815)
(0.00061280482 0.00015385115 533.45969)
(0.0005010352 0.00014153638 533.46138)
(0.00011766069 0.00011766069 533.46179)
(0.0043411477 0.0043411477 788.87005)
(0.0020569458 0.0011159256 788.87697)
(-0.0063937375 0.0013826614 788.87121)
(-0.0029816773 0.0014052451 788.86832)
(-0.0013633183 0.0014268911 788.86677)
(-5.7284973e-05 0.0014675596 788.86635)
(0.00087570176 0.0015511232 788.86689)
(0.0011172454 0.0017263471 788.86803)
(0.00020199045 0.0020066183 788.86894)
(-0.00020191408 0.0018630237 788.86754)
(0.0011159256 0.0020569458 788.87697)
(-0.0023807835 -0.0023807835 788.87863)
(-0.0059597583 -0.0019088151 788.87318)
(-0.0029153327 -0.0018363735 788.87034)
(-0.0012698465 -0.001750884 788.86884)
(0.00012906311 -0.0016094483 788.86852)
(0.0012638829 -0.001353549 788.86925)
(0.0018004881 -0.00085182444 788.87084)
(0.00040700546 5.8561161e-05 788.87264)
(-0.00034550868 0.0006321078 788.87105)
(0.0013826614 -0.0063937375 788.87121)
(-0.0019088151 -0.0059597583 788.87318)
(-0.0058493275 -0.0058493275 788.86783)
(-0.0028237462 -0.0057596437 788.86504)
(-0.001136393 -0.0056397486 788.86363)
(0.0003400501 -0.0054717817 788.86343)
(0.0016333256 -0.0052256084 788.86437)
(0.0025293555 -0.004838265 788.86633)
(0.0016859227 -0.0041712077 788.86889)
(0.00018045035 -0.0032225411 788.86843)
(0.0014052451 -0.0029816773 788.86832)
(-0.0018363735 -0.0029153327 788.87034)
(-0.0057596437 -0.0028237462 788.86504)
(-0.0027057538 -0.0027057538 788.86233)
(-0.00098198447 -0.0025628313 788.86103)
(0.00054320329 -0.0023897578 788.86097)
(0.0018973996 -0.0021762345 788.86209)
(0.0028548889 -0.0019180405 788.86429)
(0.0020227294 -0.0016322004 788.86713)
(0.0002869357 -0.0014004506 788.86695)
(0.0014268911 -0.0013633183 788.86677)
(-0.001750884 -0.0012698465 788.86884)
(-0.0056397486 -0.001136393 788.86363)
(-0.0025628313 -0.00098198446 788.86103)
(-0.00082039709 -0.00082039709 788.85984)
(0.00072664685 -0.00065426031 788.85992)
(0.0021050429 -0.00047989562 788.86119)
(0.0030733896 -0.00029897715 788.86356)
(0.0022035126 -0.00013061286 788.86658)
(0.00033495023 -2.3726978e-05 788.8665)
(0.0014675596 -5.7284972e-05 788.86635)
(-0.0016094483 0.00012906311 788.86852)
(-0.0054717817 0.0003400501 788.86343)
(-0.0023897578 0.00054320329 788.86097)
(-0.00065426031 0.00072664685 788.85992)
(0.00088370476 0.00088370477 788.86012)
(0.0022526828 0.0010178656 788.86151)
(0.0032041717 0.001128652 788.86399)
(0.0022979795 0.0012094707 788.86711)
(0.00035819295 0.0012501574 788.86709)
(0.0015511232 0.00087570175 788.86689)
(-0.001353549 0.0012638829 788.86925)
(-0.0052256084 0.0016333256 788.86437)
(-0.0021762345 0.0018973996 788.86209)
(-0.00047989562 0.0021050429 788.86119)
(0.0010178656 0.0022526828 788.86151)
(0.0023499901 0.0023499901 788.86299)
(0.0032649947 0.0023993069 788.86554)
(0.002325018 0.0024010568 788.86868)
(0.00036207466 0.0023729642 788.86867)
(0.0017263471 0.0011172454 788.86803)
(-0.00085182444 0.0018004881 788.87084)
(-0.004838265 0.0025293555 788.86633)
(-0.0019180405 0.0028548889 788.86429)
(-0.00029897715 0.0030733896 788.86356)
(0.001128652 0.0032041717 788.86399)
(0.0023993069 0.0032649947 788.86554)
(0.0032552384 0.0032552384 788.86809)
(0.0022716369 0.0031627464 788.87119)
(0.00033946456 0.0030082871 788.87111)
(0.0020066183 0.00020199045 788.86894)
(5.8561164e-05 0.00040700545 788.87264)
(-0.0041712077 0.0016859227 788.86889)
(-0.0016322004 0.0020227294 788.86713)
(-0.00013061286 0.0022035126 788.86658)
(0.0012094707 0.0022979795 788.86711)
(0.0024010568 0.002325018 788.86868)
(0.0031627464 0.0022716369 788.87119)
(0.0020780667 0.0020780667 788.87414)
(0.00025910185 0.0016511096 788.87374)
(0.0018630237 -0.00020191408 788.86754)
(0.0006321078 -0.00034550869 788.87105)
(-0.0032225411 0.00018045035 788.86843)
(-0.0014004506 0.0002869357 788.86695)
(-2.3726985e-05 0.00033495023 788.8665)
(0.0012501574 0.00035819295 788.86709)
(0.0023729642 0.00036207466 788.86867)
(0.0030082871 0.00033946456 788.87111)
(0.0016511096 0.00025910185 788.87374)
(5.4826474e-05 5.4826475e-05 788.87209)
(0.0058226251 0.0058226251 784.69323)
(0.0018242695 0.001321581 784.6973)
(-0.010199782 0.0016451219 784.69266)
(-0.0050536999 0.0016787867 784.69013)
(-0.0022495309 0.001716463 784.68881)
(9.5614911e-05 0.0017875866 784.68859)
(0.0018421567 0.0019369543 784.68935)
(0.0022836848 0.0022751757 784.69085)
(-0.00038525383 0.0029176558 784.69225)
(-0.00093889433 0.0028043061 784.69033)
(0.001321581 0.0018242695 784.6973)
(-0.0044419852 -0.0044419852 784.69788)
(-0.009663973 -0.0038508852 784.69342)
(-0.0049466881 -0.0037327272 784.69092)
(-0.002086331 -0.0035816551 784.68965)
(0.00042635184 -0.003331847 784.68951)
(0.0025735403 -0.0028777812 784.69047)
(0.0037547371 -0.0019554256 784.69243)
(0.00040844173 -0.00013471572 784.69488)
(-0.0010522441 0.0010037764 784.69292)
(0.0016451219 -0.010199782 784.69266)
(-0.0038508852 -0.009663973 784.69342)
(-0.0094905237 -0.0094905237 784.68903)
(-0.0047844698 -0.0093316575 784.68659)
(-0.0018486507 -0.0091178728 784.6854)
(0.00079948877 -0.008818562 784.68539)
(0.003218578 -0.0083817199 784.68654)
(0.0050267503 -0.0077002836 784.68884)
(0.0025739482 -0.0065192543 784.69202)
(-0.00017989962 -0.0049146397 784.69105)
(0.0016787867 -0.0050536999 784.69013)
(-0.0037327272 -0.0049466881 784.69092)
(-0.0093316575 -0.0047844698 784.68659)
(-0.0045740373 -0.0045740373 784.68423)
(-0.0015732354 -0.0043194552 784.68314)
(0.0011625047 -0.0040111339 784.68327)
(0.0036918186 -0.0036303915 784.6846)
(0.0056172027 -0.0031695905 784.68714)
(0.0031940857 -0.0026527451 784.6906)
(1.749901e-05 -0.0022283523 784.6899)
(0.001716463 -0.0022495309 784.68881)
(-0.0035816551 -0.002086331 784.68965)
(-0.0091178728 -0.0018486507 784.6854)
(-0.0043194552 -0.0015732354 784.68314)
(-0.0012857473 -0.0012857473 784.68217)
(0.0014885524 -0.00099032297 784.68243)
(0.0040601215 -0.00068065364 784.68391)
(0.0060043968 -0.00036024971 784.68662)
(0.0035151864 -6.2419185e-05 784.69025)
(0.00010302889 0.00012658098 784.68965)
(0.0017875866 9.5614911e-05 784.68859)
(-0.003331847 0.00042635184 784.68951)
(-0.008818562 0.00079948878 784.68539)
(-0.0040111339 0.0011625047 784.68327)
(-0.00099032297 0.0014885524 784.68243)
(0.0017675983 0.0017675983 784.68281)
(0.0043218919 0.0020054195 784.68441)
(0.0062354372 0.0022007179 784.68722)
(0.0036809164 0.0023412779 784.69094)
(0.00014349912 0.0024094477 784.6904)
(0.0019369543 0.0018421567 784.68935)
(-0.0028777812 0.0025735403 784.69047)
(-0.0083817199 0.003218578 784.68654)
(-0.0036303915 0.0036918186 784.6846)
(-0.00068065364 0.0040601215 784.68391)
(0.0020054195 0.0043218919 784.68441)
(0.004493241 0.004493241 784.68609)
(0.0063402552 0.0045766162 784.68896)
(0.0037239162 0.004568656 784.69271)
(0.00014847543 0.0044986198 784.69217)
(0.0022751757 0.0022836848 784.69085)
(-0.0019554256 0.0037547371 784.69243)
(-0.0077002836 0.0050267503 784.68884)
(-0.0031695905 0.0056172027 784.68714)
(-0.00036024971 0.0060043968 784.68662)
(0.0022007179 0.0062354372 784.68722)
(0.0045766162 0.0063402552 784.68896)
(0.0063108522 0.0063108522 784.69184)
(0.00360292 0.0060996367 784.69554)
(9.6808305e-05 0.005689153 784.69491)
(0.0029176558 -0.00038525383 784.69225)
(-0.00013471571 0.00040844174 784.69488)
(-0.0065192543 0.0025739482 784.69202)
(-0.0026527451 0.0031940857 784.6906)
(-6.2419193e-05 0.0035151864 784.69025)
(0.0023412779 0.0036809164 784.69094)
(0.004568656 0.0037239162 784.69271)
(0.0060996367 0.00360292 784.69554)
(0.0031022171 0.0031022171 784.69905)
(-0.00012518031 0.0014860178 784.69797)
(0.0028043061 -0.00093889434 784.69033)
(0.0010037764 -0.0010522441 784.69292)
(-0.0049146397 -0.00017989962 784.69105)
(-0.0022283523 1.7499009e-05 784.6899)
(0.00012658098 0.00010302889 784.68965)
(0.0024094477 0.00014349912 784.6904)
(0.0044986198 0.00014847543 784.69217)
(0.005689153 9.6808301e-05 784.69491)
(0.0014860178 -0.00012518031 784.69797)
(-0.00098065787 -0.00098065787 784.69444)
(0.0070510246 0.0070510246 780.93456)
(0.0014897023 0.0015016976 780.93809)
(-0.013558033 0.0018842681 780.93388)
(-0.0068325046 0.0019296562 780.93165)
(-0.0029046898 0.0019831428 780.93057)
(0.00048182113 0.0020832127 780.93056)
(0.0031332424 0.0022928237 780.93155)
(0.0040137266 0.0027784367 780.93337)
(-0.00031733337 0.0037604805 780.9353)
(-0.0014820151 0.0035934807 780.93388)
(0.0015016976 0.0014897023 780.93809)
(-0.0062604324 -0.0062604324 780.9386)
(-0.012916096 -0.0055475207 780.93458)
(-0.0066841927 -0.0053827653 780.93238)
(-0.002674355 -0.0051669741 780.93135)
(0.00094634249 -0.0048121502 780.93142)
(0.0041760783 -0.0041703068 780.93259)
(0.0062152119 -0.0028563102 780.93485)
(0.00090523277 -0.00017005832 780.93778)
(-0.0016490149 0.001351282 780.93615)
(0.0018842681 -0.013558033 780.93388)
(-0.0055475207 -0.012916096 780.93458)
(-0.012680366 -0.012680366 780.93063)
(-0.006451958 -0.012452865 780.9285)
(-0.0023340746 -0.012146725 780.92754)
(0.0014784884 -0.011718791 780.92774)
(0.0050890825 -0.011095666 780.9291)
(0.0080139751 -0.010129242 780.93169)
(0.0038902588 -0.0084479776 780.93533)
(-0.00046778822 -0.0062503115 780.93459)
(0.0019296562 -0.0068325046 780.93165)
(-0.0053827653 -0.0066841927 780.93238)
(-0.012452865 -0.006451958 780.9285)
(-0.0061505515 -0.0061505515 780.92644)
(-0.001940281 -0.0057866618 780.92559)
(0.0019974014 -0.0053464664 780.92592)
(0.005765627 -0.0048030628 780.92746)
(0.0088629006 -0.0041460845 780.93027)
(0.0047841635 -0.0034039949 780.93419)
(-0.00018390419 -0.0027955183 780.9337)
(0.0019831428 -0.0029046898 780.93057)
(-0.0051669741 -0.002674355 780.93135)
(-0.012146725 -0.0023340746 780.92754)
(-0.0057866618 -0.001940281 780.92559)
(-0.0015299895 -0.0015299895 780.92485)
(0.0024620874 -0.0011088571 780.92531)
(0.0062894644 -0.00066808485 780.92699)
(0.009413043 -0.00021328163 780.92996)
(0.005240825 0.00020910992 780.93404)
(-6.2137138e-05 0.0004770361 780.93366)
(0.0020832127 0.00048182113 780.93056)
(-0.0048121502 0.0009463425 780.93142)
(-0.011718791 0.0014784884 780.92774)
(-0.0053464664 0.0019974014 780.92592)
(-0.0011088571 0.0024620874 780.92531)
(0.0028593061 0.0028593061 780.92588)
(0.0066612024 0.0031969057 780.92768)
(0.0097400953 0.0034726964 780.93075)
(0.0054744813 0.0036694744 780.93492)
(-5.2867385e-06 0.0037634774 780.93459)
(0.0022928237 0.0031332424 780.93155)
(-0.0041703068 0.0041760783 780.93259)
(-0.011095666 0.0050890825 780.9291)
(-0.0048030628 0.005765627 780.92746)
(-0.00066808486 0.0062894644 780.92699)
(0.0031969057 0.0066612024 780.92768)
(0.0069028546 0.0069028546 780.92955)
(0.0098856116 0.0070169569 780.93268)
(0.0055316061 0.0069972029 780.93687)
(5.3157502e-07 0.0068860186 780.93654)
(0.0027784367 0.0040137266 780.93337)
(-0.0028563102 0.0062152119 780.93485)
(-0.010129242 0.0080139751 780.93169)
(-0.0041460845 0.0088629006 780.93027)
(-0.00021328164 0.009413043 780.92996)
(0.0034726964 0.0097400953 780.93075)
(0.0070169569 0.0098856116 780.93268)
(0.0098344436 0.0098344436 780.93581)
(0.005343543 0.0095016604 780.93995)
(-7.9409597e-05 0.0088109213 780.93954)
(0.0037604805 -0.00031733337 780.9353)
(-0.00017005831 0.00090523276 780.93778)
(-0.0084479776 0.0038902588 780.93533)
(-0.0034039949 0.0047841635 780.93419)
(0.0002091099 0.005240825 780.93404)
(0.0036694744 0.0054744813 780.93492)
(0.0069972029 0.0055316061 780.93687)
(0.0095016604 0.005343543 780.93995)
(0.0045080838 0.0045080838 780.9439)
(-0.00045996119 0.0011807263 780.94303)
(0.0035934807 -0.0014820151 780.93388)
(0.001351282 -0.0016490149 780.93615)
(-0.0062503115 -0.00046778822 780.93459)
(-0.0027955183 -0.00018390419 780.9337)
(0.00047703609 -6.2137138e-05 780.93366)
(0.0037634774 -5.286735e-06 780.93459)
(0.0068860186 5.3157809e-07 780.93654)
(0.0088109213 -7.9409597e-05 780.93954)
(0.0011807263 -0.00045996119 780.94303)
(-0.0022976479 -0.0022976479 780.93908)
(0.0081724154 0.0081724154 777.5766)
(0.0011461439 0.0016608449 777.57981)
(-0.016634852 0.0021080753 777.57588)
(-0.008368783 0.0021670732 777.57388)
(-0.0033443976 0.0022366372 777.573)
(0.00107598 0.0023651592 777.57318)
(0.0046528118 0.0026333002 777.57437)
(0.0060393526 0.0032604164 777.57639)
(0.00012560971 0.0045696037 777.5786)
(-0.0018899322 0.0043222258 777.57752)
(0.0016608449 0.001146144 777.57981)
(-0.0079503663 -0.0079503663 777.58023)
(-0.015875509 -0.0071025984 777.57649)
(-0.0081759401 -0.0068869137 777.57454)
(-0.0030472686 -0.0066063237 777.57371)
(0.0016709745 -0.0061488422 777.57398)
(0.0059956975 -0.0053248881 777.57533)
(0.0089438079 -0.0036343134 777.57777)
(0.0017183238 -0.0001128372 777.58095)
(-0.0021373102 0.0017165224 777.57963)
(0.0021080753 -0.016634852 777.57588)
(-0.0071025984 -0.015875509 777.57649)
(-0.015571399 -0.015571399 777.57284)
(-0.0078725082 -0.015273636 777.57095)
(-0.0026063261 -0.014876422 777.5702)
(0.0023574155 -0.014323417 777.57058)
(0.0071673406 -0.013520116 777.57212)
(0.011251404 -0.012279401 777.57489)
(0.0054764455 -0.0101146 777.57873)
(-0.00067035919 -0.0073665241 777.57825)
(0.0021670732 -0.008368783 777.57388)
(-0.0068869137 -0.0081759401 777.57454)
(-0.015273636 -0.0078725082 777.57095)
(-0.0074809627 -0.0074809627 777.56913)
(-0.00209705 -0.0070102289 777.56849)
(0.0030272802 -0.0064421288 777.569)
(0.0080397133 -0.0057416918 777.5707)
(0.012349325 -0.0048963087 777.57368)
(0.0066312008 -0.0039373285 777.5778)
(-0.00030525995 -0.0031553632 777.57756)
(0.0022366372 -0.0033443976 777.573)
(-0.0066063236 -0.0030472686 777.57371)
(-0.014876422 -0.0026063261 777.5702)
(-0.0070102289 -0.00209705 777.56849)
(-0.0015674922 -0.0015674922 777.56795)
(0.0036259526 -0.0010248109 777.56858)
(0.0087131607 -0.0004578293 777.57043)
(0.013055767 0.00012561518 777.57357)
(0.007217391 0.00066691329 777.57784)
(-0.00014904897 0.0010095305 777.57769)
(0.0023651592 0.00107598 777.57318)
(-0.0061488422 0.0016709745 777.57398)
(-0.014323417 0.0023574155 777.57058)
(-0.0064421288 0.0030272802 777.569)
(-0.0010248109 0.0036259526 777.56858)
(0.0041369431 0.0041369431 777.56933)
(0.0091901394 0.0045699258 777.57129)
(0.013474067 0.0049216903 777.57452)
(0.0075151161 0.0051705572 777.57887)
(-7.6848474e-05 0.0052877962 777.57877)
(0.0026333002 0.0046528118 777.57437)
(-0.0053248881 0.0059956975 777.57533)
(-0.013520116 0.0071673406 777.57212)
(-0.0057416918 0.0080397133 777.5707)
(-0.0004578293 0.0087131607 777.57043)
(0.0045699258 0.0091901394 777.57129)
(0.0094979079 0.0094979078 777.57332)
(0.013656398 0.0096388288 777.5766)
(0.0075834969 0.0096045807 777.58098)
(-7.0889629e-05 0.0094530552 777.58087)
(0.0032604164 0.0060393526 777.57639)
(-0.0036343134 0.0089438079 777.57777)
(-0.012279401 0.011251404 777.57489)
(-0.0048963087 0.012349325 777.57368)
(0.00012561517 0.013055767 777.57357)
(0.0049216903 0.013474067 777.57452)
(0.0096388288 0.013656398 777.5766)
(0.01358074 0.01358074 777.57988)
(0.0073293426 0.013129237 777.58421)
(-0.00017786545 0.012173433 777.58402)
(0.0045696037 0.0001256097 777.5786)
(-0.0001128372 0.0017183238 777.58095)
(-0.0101146 0.0054764455 777.57873)
(-0.0039373285 0.0066312008 777.5778)
(0.00066691328 0.007217391 777.57784)
(0.0051705571 0.0075151161 777.57887)
(0.0096045807 0.0075834969 777.58098)
(0.013129237 0.0073293426 777.58421)
(0.0061761894 0.0061761894 777.58834)
(-0.0007080925 0.0010282443 777.58773)
(0.0043222258 -0.0018899322 777.57752)
(0.0017165224 -0.0021373102 777.57963)
(-0.0073665241 -0.00067035919 777.57825)
(-0.0031553632 -0.00030525995 777.57756)
(0.0010095305 -0.00014904897 777.57769)
(0.0052877962 -7.6848474e-05 777.57877)
(0.0094530552 -7.0889627e-05 777.58087)
(0.012173433 -0.00017786545 777.58402)
(0.0010282443 -0.0007080925 777.58773)
(-0.0036098289 -0.0036098289 777.58392)
(0.0091897056 0.0091897056 774.59702)
(0.00076756658 0.0017828073 774.59991)
(-0.019486284 0.0022961245 774.59622)
(-0.009704899 0.0023698817 774.59441)
(-0.0035999726 0.0024555324 774.59371)
(0.0018429205 0.0026116321 774.59405)
(0.0063425919 0.0029361268 774.59538)
(0.0082486213 0.0036993197 774.59755)
(0.00081014204 0.0053251534 774.59991)
(-0.0022021157 0.0050005017 774.59909)
(0.0017828073 0.00076756659 774.59991)
(-0.009572805 -0.009572805 774.60021)
(-0.018605672 -0.0085850377 774.59671)
(-0.0094657871 -0.0083155601 774.59495)
(-0.003237347 -0.0079706701 774.5943)
(0.002563812 -0.0074137952 774.59472)
(0.0079741234 -0.0064147623 774.59621)
(0.011832161 -0.0043629267 774.59878)
(0.0027619151 -3.5836478e-05 774.60208)
(-0.0025267674 0.002081944 774.60105)
(0.0022961245 -0.019486284 774.59622)
(-0.0085850377 -0.018605672 774.59671)
(-0.018229039 -0.018229039 774.5933)
(-0.0090905314 -0.017859916 774.5916)
(-0.0026982077 -0.017373288 774.59103)
(0.0033988284 -0.016699375 774.59156)
(0.0093934605 -0.015723071 774.59323)
(0.014627547 -0.014220101 774.59611)
(0.0072550127 -0.011591494 774.60005)
(-0.00079026211 -0.0083240199 774.5998)
(0.0023698817 -0.009704899 774.59441)
(-0.0083155601 -0.0094657871 774.59495)
(-0.017859916 -0.0090905314 774.5916)
(-0.0086100365 -0.0086100364 774.58998)
(-0.0020768069 -0.0080353269 774.58951)
(0.0042140292 -0.0073438122 774.59017)
(0.010453398 -0.006492631 774.592)
(0.015963738 -0.0054671998 774.59508)
(0.0086579957 -0.0043007427 774.59928)
(-0.00034845132 -0.0033547512 774.59926)
(0.0024555324 -0.0035999726 774.59371)
(-0.0079706701 -0.003237347 774.5943)
(-0.017373288 -0.0026982077 774.59103)
(-0.0080353269 -0.0020768069 774.58951)
(-0.0014319835 -0.0014319835 774.58914)
(0.0049415243 -0.00077234835 774.58992)
(0.011270073 -8.442254e-05 774.59188)
(0.016819435 0.00062174022 774.59511)
(0.0093674612 0.0012762224 774.59945)
(-0.00015960117 0.00168941 774.59953)
(0.0026116321 0.0018429205 774.59405)
(-0.0074137952 0.002563812 774.59472)
(-0.016699375 0.0033988284 774.59156)
(-0.0073438122 0.0042140292 774.59017)
(-0.00077234835 0.0049415243 774.58992)
(0.0055615901 0.0055615901 774.5908)
(0.011847487 0.0060855628 774.59287)
(0.017324383 0.0065091674 774.59619)
(0.0097256655 0.0068065989 774.60061)
(-7.2992934e-05 0.0069447694 774.60073)
(0.0029361267 0.0063425919 774.59538)
(-0.0064147623 0.0079741234 774.59621)
(-0.015723071 0.0093934605 774.59323)
(-0.006492631 0.010453398 774.592)
(-8.4422548e-05 0.011270073 774.59188)
(0.0060855628 0.011847487 774.59287)
(0.01221765 0.01221765 774.59501)
(0.017540471 0.0123825 774.59838)
(0.0098030632 0.012331916 774.60282)
(-6.7487477e-05 0.0121397 774.60293)
(0.0036993197 0.0082486213 774.59755)
(-0.0043629267 0.011832161 774.59878)
(-0.014220101 0.014627547 774.59611)
(-0.0054671998 0.015963738 774.59508)
(0.00062174022 0.016819435 774.59511)
(0.0065091674 0.017324383 774.59619)
(0.0123825 0.017540471 774.59838)
(0.017438649 0.017438649 774.60174)
(0.0094828653 0.016870747 774.60613)
(-0.00020113748 0.015663719 774.60617)
(0.0053251534 0.00081014203 774.59991)
(-3.5836474e-05 0.002761915 774.60208)
(-0.011591494 0.0072550127 774.60005)
(-0.0043007427 0.0086579957 774.59928)
(0.0012762224 0.0093674612 774.59945)
(0.0068065989 0.0097256655 774.60061)
(0.012331916 0.0098030632 774.60282)
(0.016870747 0.0094828653 774.60613)
(0.008028133 0.008028133 774.61035)
(-0.00087217245 0.0010810598 774.60997)
(0.0050005017 -0.0022021157 774.59909)
(0.002081944 -0.0025267674 774.60105)
(-0.0083240199 -0.00079026211 774.5998)
(-0.0033547512 -0.00034845132 774.59926)
(0.00168941 -0.00015960117 774.59953)
(0.0069447694 -7.2992935e-05 774.60073)
(0.0121397 -6.7487479e-05 774.60293)
(0.015663719 -0.00020113748 774.60617)
(0.0010810598 -0.00087217245 774.60997)
(-0.0048325196 -0.0048325196 774.60647)
(0.010096566 0.010096566 771.97234)
(0.00033659478 0.0018613755 771.97489)
(-0.022135633 0.0024399306 771.97142)
(-0.01087226 0.0025289552 771.96978)
(-0.0037053604 0.0026304684 771.96923)
(0.0027415287 0.0028130664 771.96969)
(0.0081487914 0.0031913489 771.97112)
(0.010572275 0.0040845095 771.97337)
(0.0016733061 0.0060149274 771.97583)
(-0.0024347893 0.0056237531 771.97524)
(0.0018613755 0.00033659478 771.97489)
(-0.011148359 -0.011148359 771.97506)
(-0.021134263 -0.010020588 771.97178)
(-0.010586454 -0.0096961513 771.97019)
(-0.0032791936 -0.0092881865 771.96968)
(0.0035828495 -0.008635797 771.97022)
(0.010055956 -0.0074697009 771.97181)
(0.014807643 -0.0050735371 771.97444)
(0.0039821715 2.5379848e-05 771.97779)
(-0.0028259637 0.0024259084 771.97702)
(0.0024399306 -0.022135633 771.97142)
(-0.010020588 -0.021134263 771.97178)
(-0.020683425 -0.020683425 771.96859)
(-0.010139858 -0.020243038 771.96706)
(-0.0026450061 -0.019669359 771.96663)
(0.0045600143 -0.018879304 771.96728)
(0.011711051 -0.017737883 771.96904)
(0.018067356 -0.015985545 771.97196)
(0.0091727515 -0.012915212 771.97592)
(-0.00083443699 -0.0091562747 771.97589)
(0.0025289552 -0.01087226 771.96978)
(-0.0096961513 -0.010586454 771.97019)
(-0.020243038 -0.010139858 771.96706)
(-0.0095723876 -0.0095723876 771.96561)
(-0.0019154602 -0.0088971716 771.96528)
(0.0055143255 -0.0080872698 771.96604)
(0.012949716 -0.0070921621 771.96795)
(0.019630313 -0.0058954361 771.97107)
(0.010811441 -0.0045315577 771.97528)
(-0.00032000512 -0.00343028 771.97546)
(0.0026304684 -0.0037053604 771.96923)
(-0.0092881865 -0.0032791936 771.96968)
(-0.019669359 -0.0026450061 771.96663)
(-0.0088971716 -0.0019154602 771.96528)
(-0.0011598883 -0.0011598883 771.96505)
(0.0063650238 -0.0003882966 771.96593)
(0.013902885 0.00041503279 771.96796)
(0.02062796 0.0012379325 771.97122)
(0.011637908 0.0019999436 771.97556)
(-0.00010025191 0.0024799172 771.97584)
(0.0028130664 0.0027415287 771.96969)
(-0.008635797 0.0035828495 771.97022)
(-0.018879304 0.0045600143 771.96728)
(-0.0080872698 0.0055143255 771.96604)
(-0.0003882966 0.0063650238 771.96593)
(0.0070892466 0.0070892466 771.96691)
(0.014575945 0.0076999081 771.96904)
(0.021215224 0.0081917351 771.97239)
(0.012053426 0.0085351132 771.97681)
(-2.2755135e-08 0.0086928767 771.97712)
(0.0031913489 0.0081487914 771.97112)
(-0.007469701 0.010055956 771.97181)
(-0.017737883 0.011711051 771.96904)
(-0.0070921621 0.012949716 771.96795)
(0.00041503278 0.013902885 771.96796)
(0.0076999081 0.014575945 771.96904)
(0.015005374 0.015005374 771.97125)
(0.021463165 0.015192698 771.97464)
(0.012139049 0.015126172 771.97907)
(4.9237478e-06 0.014894798 771.97938)
(0.0040845095 0.010572275 771.97337)
(-0.0050735371 0.014807643 771.97444)
(-0.015985545 0.018067356 771.97196)
(-0.0058954361 0.019630313 771.97107)
(0.0012379325 0.02062796 771.97122)
(0.0081917351 0.021215224 771.97239)
(0.015192698 0.021463165 771.97464)
(0.021336022 0.021336022 771.97803)
(0.011755526 0.020657314 771.98242)
(-0.00015427199 0.01921357 771.98265)
(0.0060149274 0.0016733061 771.97583)
(2.5379851e-05 0.0039821715 771.97779)
(-0.012915212 0.0091727515 771.97592)
(-0.0045315577 0.010811441 771.97528)
(0.0019999436 0.011637908 771.97556)
(0.0085351132 0.012053426 771.97681)
(0.015126172 0.012139049 771.97907)
(0.020657314 0.011755526 771.98242)
(0.010016597 0.010016597 771.98664)
(-0.00095757211 0.001334319 771.98649)
(0.0056237531 -0.0024347893 771.97524)
(0.0024259084 -0.0028259637 771.97702)
(-0.0091562747 -0.000834437 771.97589)
(-0.00343028 -0.00032000513 771.97546)
(0.0024799172 -0.00010025191 771.97584)
(0.0086928767 -2.2757745e-08 771.97712)
(0.014894798 4.9237504e-06 771.97938)
(0.01921357 -0.00015427198 771.98265)
(0.001334319 -0.00095757211 771.98649)
(-0.0059424571 -0.0059424571 771.98334)
(0.010887746 0.010887746 769.67807)
(-0.00015467488 0.0018945256 769.68027)
(-0.024592038 0.0025363118 769.67703)
(-0.011893018 0.0026407181 769.67555)
(-0.003690229 0.002757676 769.67512)
(0.0037340828 0.0029655275 769.67567)
(0.010024848 0.0033947442 769.67717)
(0.012957953 0.004411077 769.67946)
(0.002674848 0.006632167 769.68196)
(-0.0025968634 0.0061867281 769.68157)
(0.0018945256 -0.00015467488 769.68027)
(-0.012681826 -0.012681826 769.6803)
(-0.023472749 -0.011416862 769.67725)
(-0.011560972 -0.011037486 769.67581)
(-0.0032030149 -0.010568338 769.67543)
(0.0046896851 -0.0098248807 769.67606)
(0.012193172 -0.0085005506 769.6777)
(0.017814088 -0.0057786118 769.68035)
(0.0053383246 5.3905204e-05 769.6837)
(-0.0030423023 0.0027329873 769.68316)
(0.0025363118 -0.024592038 769.67703)
(-0.011416862 -0.023472749 769.67725)
(-0.022947698 -0.022947698 769.67428)
(-0.011044495 -0.022437194 769.6729)
(-0.0024776236 -0.021779551 769.6726)
(0.0058018705 -0.020878751 769.67333)
(0.014071117 -0.019580801 769.67513)
(0.021512409 -0.017592885 769.67805)
(0.011186447 -0.014105061 769.68197)
(-0.00081080868 -0.0098834153 769.68214)
(0.0026407181 -0.011893018 769.67555)
(-0.011037486 -0.011560972 769.67581)
(-0.022437194 -0.011044495 769.6729)
(-0.010392825 -0.010392825 769.67161)
(-0.0016445721 -0.0096212149 769.67139)
(0.0068884353 -0.0086985132 769.67223)
(0.015479038 -0.0075668368 769.67418)
(0.023289827 -0.0062080503 769.67728)
(0.013047795 -0.0046574591 769.68144)
(-0.00022787164 -0.0034096825 769.6818)
(0.002757676 -0.003690229 769.67512)
(-0.010568338 -0.0032030149 769.67543)
(-0.021779551 -0.0024776236 769.6726)
(-0.0096212149 -0.0016445721 769.67139)
(-0.00078331192 -0.00078331191 769.67127)
(0.0078562486 9.4821568e-05 769.67222)
(0.01656158 0.0010077131 769.67428)
(0.024421787 0.0019412131 769.67752)
(0.013984815 0.0028050184 769.68181)
(2.1042365e-05 0.003348095 769.68225)