/*--------------------------------*- C++ -*----------------------------------*\
| =========                 |                                                 |
| \\      /  F ield         | OpenFOAM: The Open Source CFD Toolbox           |
|  \\    /   O peration     | Version:  v2106                                 |
|   \\  /    A nd           | Website:  www.openfoam.com                      |
|    \\/     M anipulation  |                                                 |
\*---------------------------------------------------------------------------*/
FoamFile
{
    version     2.0;
    format      ascii;
    arch        "LSB;label=32;scalar=64";
    class       volScalarField;
    location    "40";
    object      gradTz;
}
// * * * * * * * * * * * * * * * * * * * * * * * * * * * * * * * * * * * * * //

dimensions      [0 -1 0 1 0 0 0];

internalField   nonuniform List<scalar> 
4000
(
533.45732
533.46528
533.46002
533.45793
533.4568
533.45645
533.45672
533.45737
533.45792
533.4577
533.46528
533.46705
533.46239
533.46034
533.45924
533.45896
533.45936
533.46029
533.46129
533.46097
533.46002
533.46239
533.4578
533.45579
533.45476
533.45456
533.4551
533.45629
533.4578
533.45835
533.45793
533.46034
533.45579
533.45384
533.45287
533.45276
533.45344
533.45478
533.45648
533.45719
533.4568
533.45924
533.45476
533.45287
533.45199
533.45197
533.45275
533.45421
533.45603
533.45682
533.45645
533.45896
533.45456
533.45276
533.45197
533.45205
533.45291
533.45444
533.45633
533.45715
533.45672
533.45936
533.4551
533.45344
533.45275
533.45291
533.45383
533.45541
533.45731
533.45815
533.45737
533.46029
533.45629
533.45478
533.45421
533.45444
533.45541
533.457
533.45889
533.45969
533.45792
533.46129
533.4578
533.45648
533.45603
533.45633
533.45731
533.45889
533.4607
533.46138
533.4577
533.46097
533.45835
533.45719
533.45682
533.45715
533.45815
533.45969
533.46138
533.46179
788.87005
788.87697
788.87121
788.86832
788.86677
788.86635
788.86689
788.86803
788.86894
788.86754
788.87697
788.87863
788.87318
788.87034
788.86884
788.86852
788.86925
788.87084
788.87264
788.87105
788.87121
788.87318
788.86783
788.86504
788.86363
788.86343
788.86437
788.86633
788.86889
788.86843
788.86832
788.87034
788.86504
788.86233
788.86103
788.86097
788.86209
788.86429
788.86713
788.86695
788.86677
788.86884
788.86363
788.86103
788.85984
788.85992
788.86119
788.86356
788.86658
788.8665
788.86635
788.86852
788.86343
788.86097
788.85992
788.86012
788.86151
788.86399
788.86711
788.86709
788.86689
788.86925
788.86437
788.86209
788.86119
788.86151
788.86299
788.86554
788.86868
788.86867
788.86803
788.87084
788.86633
788.86429
788.86356
788.86399
788.86554
788.86809
788.87119
788.87111
788.86894
788.87264
788.86889
788.86713
788.86658
788.86711
788.86868
788.87119
788.87414
788.87374
788.86754
788.87105
788.86843
788.86695
788.8665
788.86709
788.86867
788.87111
788.87374
788.87209
784.69323
784.6973
784.69266
784.69013
784.68881
784.68859
784.68935
784.69085
784.69225
784.69033
784.6973
784.69788
784.69342
784.69092
784.68965
784.68951
784.69047
784.69243
784.69488
784.69292
784.69266
784.69342
784.68903
784.68659
784.6854
784.68539
784.68654
784.68884
784.69202
784.69105
784.69013
784.69092
784.68659
784.68423
784.68314
784.68327
784.6846
784.68714
784.6906
784.6899
784.68881
784.68965
784.6854
784.68314
784.68217
784.68243
784.68391
784.68662
784.69025
784.68965
784.68859
784.68951
784.68539
784.68327
784.68243
784.68281
784.68441
784.68722
784.69094
784.6904
784.68935
784.69047
784.68654
784.6846
784.68391
784.68441
784.68609
784.68896
784.69271
784.69217
784.69085
784.69243
784.68884
784.68714
784.68662
784.68722
784.68896
784.69184
784.69554
784.69491
784.69225
784.69488
784.69202
784.6906
784.69025
784.69094
784.69271
784.69554
784.69905
784.69797
784.69033
784.69292
784.69105
784.6899
784.68965
784.6904
784.69217
784.69491
784.69797
784.69444
780.93456
780.93809
780.93388
780.93165
780.93057
780.93056
780.93155
780.93337
780.9353
780.93388
780.93809
780.9386
780.93458
780.93238
780.93135
780.93142
780.93259
780.93485
780.93778
780.93615
780.93388
780.93458
780.93063
780.9285
780.92754
780.92774
780.9291
780.93169
780.93533
780.93459
780.93165
780.93238
780.9285
780.92644
780.92559
780.92592
780.92746
780.93027
780.93419
780.9337
780.93057
780.93135
780.92754
780.92559
780.92485
780.92531
780.92699
780.92996
780.93404
780.93366
780.93056
780.93142
780.92774
780.92592
780.92531
780.92588
780.92768
780.93075
780.93492
780.93459
780.93155
780.93259
780.9291
780.92746
780.92699
780.92768
780.92955
780.93268
780.93687
780.93654
780.93337
780.93485
780.93169
780.93027
780.92996
780.93075
780.93268
780.93581
780.93995
780.93954
780.9353
780.93778
780.93533
780.93419
780.93404
780.93492
780.93687
780.93995
780.9439
780.94303
780.93388
780.93615
780.93459
780.9337
780.93366
780.93459
780.93654
780.93954
780.94303
780.93908
777.5766
777.57981
777.57588
777.57388
777.573
777.57318
777.57437
777.57639
777.5786
777.57752
777.57981
777.58023
777.57649
777.57454
777.57371
777.57398
777.57533
777.57777
777.58095
777.57963
777.57588
777.57649
777.57284
777.57095
777.5702
777.57058
777.57212
777.57489
777.57873
777.57825
777.57388
777.57454
777.57095
777.56913
777.56849
777.569
777.5707
777.57368
777.5778
777.57756
777.573
777.57371
777.5702
777.56849
777.56795
777.56858
777.57043
777.57357
777.57784
777.57769
777.57318
777.57398
777.57058
777.569
777.56858
777.56933
777.57129
777.57452
777.57887
777.57877
777.57437
777.57533
777.57212
777.5707
777.57043
777.57129
777.57332
777.5766
777.58098
777.58087
777.57639
777.57777
777.57489
777.57368
777.57357
777.57452
777.5766
777.57988
777.58421
777.58402
777.5786
777.58095
777.57873
777.5778
777.57784
777.57887
777.58098
777.58421
777.58834
777.58773
777.57752
777.57963
777.57825
777.57756
777.57769
777.57877
777.58087
777.58402
777.58773
777.58392
774.59702
774.59991
774.59622
774.59441
774.59371
774.59405
774.59538
774.59755
774.59991
774.59909
774.59991
774.60021
774.59671
774.59495
774.5943
774.59472
774.59621
774.59878
774.60208
774.60105
774.59622
774.59671
774.5933
774.5916
774.59103
774.59156
774.59323
774.59611
774.60005
774.5998
774.59441
774.59495
774.5916
774.58998
774.58951
774.59017
774.592
774.59508
774.59928
774.59926
774.59371
774.5943
774.59103
774.58951
774.58914
774.58992
774.59188
774.59511
774.59945
774.59953
774.59405
774.59472
774.59156
774.59017
774.58992
774.5908
774.59287
774.59619
774.60061
774.60073
774.59538
774.59621
774.59323
774.592
774.59188
774.59287
774.59501
774.59838
774.60282
774.60293
774.59755
774.59878
774.59611
774.59508
774.59511
774.59619
774.59838
774.60174
774.60613
774.60617
774.59991
774.60208
774.60005
774.59928
774.59945
774.60061
774.60282
774.60613
774.61035
774.60997
774.59909
774.60105
774.5998
774.59926
774.59953
774.60073
774.60293
774.60617
774.60997
774.60647
771.97234
771.97489
771.97142
771.96978
771.96923
771.96969
771.97112
771.97337
771.97583
771.97524
771.97489
771.97506
771.97178
771.97019
771.96968
771.97022
771.97181
771.97444
771.97779
771.97702
771.97142
771.97178
771.96859
771.96706
771.96663
771.96728
771.96904
771.97196
771.97592
771.97589
771.96978
771.97019
771.96706
771.96561
771.96528
771.96604
771.96795
771.97107
771.97528
771.97546
771.96923
771.96968
771.96663
771.96528
771.96505
771.96593
771.96796
771.97122
771.97556
771.97584
771.96969
771.97022
771.96728
771.96604
771.96593
771.96691
771.96904
771.97239
771.97681
771.97712
771.97112
771.97181
771.96904
771.96795
771.96796
771.96904
771.97125
771.97464
771.97907
771.97938
771.97337
771.97444
771.97196
771.97107
771.97122
771.97239
771.97464
771.97803
771.98242
771.98265
771.97583
771.97779
771.97592
771.97528
771.97556
771.97681
771.97907
771.98242
771.98664
771.98649
771.97524
771.97702
771.97589
771.97546
771.97584
771.97712
771.97938
771.98265
771.98649
771.98334
769.67807
769.68027
769.67703
769.67555
769.67512
769.67567
769.67717
769.67946
769.68196
769.68157
769.68027
769.6803
769.67725
769.67581
769.67543
769.67606
769.6777
769.68035
769.6837
769.68316
769.67703
769.67725
769.67428
769.6729
769.6726
769.67333
769.67513
769.67805
769.68197
769.68214
769.67555
769.67581
769.6729
769.67161
769.67139
769.67223
769.67418
769.67728
769.68144
769.6818
769.67512
769.67543
769.6726
769.67139
769.67127
769.67222
769.67428
769.67752
769.68181
769.68225
769.67567
769.67606
769.67333
769.67223
769.67222
769.67327
769.67543
769.67875
769.6831
769.68359
769.67717
769.6777
769.67513
769.67418
769.67428
769.67543
769.67765
769.68102
769.68539
769.68587
769.67946
769.68035
769.67805
769.67728
769.67752
769.67875
769.68102
769.68438
769.68871
769.68912
769.68196
769.6837
769.68197
769.68144
769.68181
769.6831
769.68539
769.68871
769.69289
769.69294
769.68157
769.68316
769.68214
769.6818
769.68225
769.68359
769.68587
769.68912
769.69294
769.69015
767.68889
767.69073
767.68773
767.6864
767.68608
767.6867
767.68822
767.69051
767.69301
767.69281
767.69073
767.69063
767.68781
767.68652
767.68624
767.68693
767.68859
767.69122
767.69452
767.69421
767.68773
767.68781
767.68507
767.68384
767.68363
767.68442
767.68623
767.68911
767.69295
767.69328
767.6864
767.68652
767.68384
767.68268
767.68256
767.68346
767.6854
767.68845
767.69251
767.69302
767.68608
767.68624
767.68363
767.68256
767.68253
767.68353
767.68558
767.68876
767.69294
767.69353
767.6867
767.68693
767.68442
767.68346
767.68353
767.68462
767.68676
767.69001
767.69426
767.69489
767.68822
767.68859
767.68623
767.6854
767.68558
767.68676
767.68897
767.69226
767.69652
767.69716
767.69051
767.69122
767.68911
767.68845
767.68876
767.69001
767.69226
767.69556
767.69978
767.70035
767.69301
767.69452
767.69295
767.69251
767.69294
767.69426
767.69652
767.69978
767.70386
767.70411
767.69281
767.69421
767.69328
767.69302
767.69353
767.69489
767.69716
767.70035
767.70411
767.70167
765.97878
765.98026
765.97751
765.97632
765.97609
765.97676
765.97829
765.98054
765.98302
765.98298
765.98026
765.98004
765.97745
765.97631
765.97612
765.97685
765.9785
765.98107
765.98429
765.98418
765.97751
765.97745
765.97495
765.97386
765.97374
765.97457
765.97636
765.97915
765.98287
765.98335
765.97632
765.97631
765.97386
765.97284
765.9728
765.97373
765.97564
765.9786
765.98251
765.98317
765.97609
765.97612
765.97374
765.9728
765.97285
765.97387
765.97589
765.97896
765.98298
765.98371
765.97676
765.97685
765.97457
765.97373
765.97387
765.97497
765.97707
765.98022
765.9843
765.98506
765.97829
765.9785
765.97636
765.97564
765.97589
765.97707
765.97923
765.98242
765.98652
765.98728
765.98054
765.98107
765.97915
765.9786
765.97896
765.98022
765.98242
765.9856
765.98968
765.99038
765.98302
765.98429
765.98287
765.98251
765.98298
765.9843
765.98652
765.98968
765.99363
765.99404
765.98298
765.98418
765.98335
765.98317
765.98371
765.98506
765.98728
765.99038
765.99404
765.99195
764.52118
764.52231
764.51983
764.51878
764.51864
764.51933
764.52084
764.52303
764.52544
764.52557
764.52231
764.52197
764.51964
764.51864
764.51853
764.51929
764.52091
764.52338
764.52648
764.52656
764.51983
764.51964
764.51739
764.51644
764.5164
764.51724
764.51898
764.52167
764.52522
764.52583
764.51878
764.51864
764.51644
764.51555
764.51559
764.51652
764.51838
764.52121
764.52494
764.52571
764.51864
764.51853
764.5164
764.51559
764.5157
764.51672
764.51867
764.52161
764.52544
764.52628
764.51933
764.51929
764.51724
764.51652
764.51672
764.51782
764.51985
764.52285
764.52674
764.52761
764.52084
764.52091
764.51898
764.51838
764.51867
764.51985
764.52193
764.52497
764.52888
764.52975
764.52303
764.52338
764.52167
764.52121
764.52161
764.52285
764.52497
764.52802
764.5319
764.53273
764.52544
764.52648
764.52522
764.52494
764.52544
764.52674
764.52888
764.5319
764.53568
764.53624
764.52557
764.52656
764.52583
764.52571
764.52628
764.52761
764.52975
764.53273
764.53624
764.5345
763.28919
763.28997
763.28777
763.28686
763.2868
763.28751
763.28897
763.29107
763.2934
763.29367
763.28997
763.28953
763.28746
763.2866
763.28657
763.28734
763.2889
763.29126
763.29421
763.29446
763.28777
763.28746
763.28547
763.28466
763.28469
763.28553
763.28721
763.28976
763.29311
763.29383
763.28686
763.2866
763.28466
763.28391
763.28401
763.28493
763.28671
763.28939
763.29291
763.29377
763.2868
763.28657
763.28469
763.28401
763.28418
763.28518
763.28705
763.28982
763.29343
763.29435
763.28751
763.28734
763.28553
763.28493
763.28518
763.28626
763.28819
763.29103
763.29469
763.29564
763.28897
763.2889
763.28721
763.28671
763.28705
763.28819
763.29018
763.29305
763.29673
763.29768
763.29107
763.29126
763.28976
763.28939
763.28982
763.29103
763.29305
763.29593
763.29958
763.3005
763.2934
763.29421
763.29311
763.29291
763.29343
763.29469
763.29673
763.29958
763.30315
763.30384
763.29367
763.29446
763.29383
763.29377
763.29435
763.29564
763.29768
763.3005
763.30384
763.30243
762.25569
762.25613
762.25422
762.25346
762.25347
762.25419
762.25559
762.25758
762.2598
762.26019
762.25613
762.2556
762.25382
762.2531
762.25314
762.2539
762.25539
762.25761
762.26038
762.26078
762.25422
762.25382
762.25209
762.25143
762.25152
762.25235
762.25394
762.25632
762.25945
762.26026
762.25346
762.2531
762.25143
762.25081
762.25096
762.25187
762.25355
762.25605
762.25932
762.26026
762.25347
762.25314
762.25152
762.25096
762.25118
762.25216
762.25392
762.2565
762.25985
762.26084
762.25419
762.2539
762.25235
762.25187
762.25216
762.2532
762.25502
762.25766
762.26105
762.26207
762.25559
762.25539
762.25394
762.25355
762.25392
762.25502
762.25689
762.25956
762.26297
762.26399
762.25758
762.25761
762.25632
762.25605
762.2565
762.25766
762.25956
762.26224
762.26564
762.26663
762.2598
762.26038
762.25945
762.25932
762.25985
762.26105
762.26297
762.26564
762.26896
762.26976
762.26019
762.26078
762.26026
762.26026
762.26084
762.26207
762.26399
762.26663
762.26976
762.26867
761.39353
761.39365
761.39205
761.39144
761.39151
761.39223
761.39355
761.39541
761.39749
761.39799
761.39365
761.39305
761.39155
761.39098
761.39108
761.39184
761.39324
761.39529
761.39786
761.3984
761.39205
761.39155
761.39011
761.38958
761.38973
761.39055
761.39203
761.39423
761.3971
761.39798
761.39144
761.39098
761.38958
761.38911
761.38931
761.39019
761.39175
761.39405
761.39704
761.39803
761.39151
761.39108
761.38973
761.38931
761.38957
761.39051
761.39214
761.39451
761.39757
761.39861
761.39223
761.39184
761.39055
761.39019
761.39051
761.3915
761.39319
761.39561
761.39871
761.39977
761.39355
761.39324
761.39203
761.39175
761.39214
761.39319
761.39492
761.39737
761.40049
761.40155
761.39541
761.39529
761.39423
761.39405
761.39451
761.39561
761.39737
761.39983
761.40294
761.40398
761.39749
761.39786
761.3971
761.39704
761.39757
761.39871
761.40049
761.40294
761.40599
761.40687
761.39799
761.3984
761.39798
761.39803
761.39861
761.39977
761.40155
761.40398
761.40687
761.4061
760.67569
760.67551
760.67422
760.67376
760.6739
760.6746
760.67583
760.67755
760.67947
760.68007
760.67551
760.67485
760.67365
760.67322
760.67339
760.67412
760.67542
760.67729
760.67963
760.68029
760.67422
760.67365
760.6725
760.67212
760.67232
760.6731
760.67447
760.67646
760.67905
760.67999
760.67376
760.67322
760.67212
760.67178
760.67203
760.67286
760.6743
760.67637
760.67906
760.68009
760.6739
760.67339
760.67232
760.67203
760.67233
760.67322
760.67471
760.67684
760.67959
760.68066
760.6746
760.67412
760.6731
760.67286
760.67322
760.67415
760.67569
760.67787
760.68065
760.68173
760.67583
760.67542
760.67447
760.6743
760.67471
760.67569
760.67727
760.67947
760.68227
760.68336
760.67755
760.67729
760.67646
760.67637
760.67684
760.67787
760.67947
760.68168
760.68448
760.68555
760.67947
760.67963
760.67905
760.67906
760.67959
760.68065
760.68227
760.68448
760.68723
760.68818
760.68007
760.68029
760.67999
760.68009
760.68066
760.68173
760.68336
760.68555
760.68818
760.68771
760.07543
760.07497
760.07399
760.07369
760.0739
760.07457
760.0757
760.07725
760.079
760.07968
760.07497
760.07426
760.07336
760.07309
760.07331
760.07401
760.0752
760.07687
760.07896
760.07972
760.07399
760.07336
760.07251
760.07227
760.07253
760.07327
760.07451
760.07628
760.07856
760.07953
760.07369
760.07309
760.07227
760.07207
760.07237
760.07315
760.07445
760.07628
760.07864
760.07968
760.0739
760.07331
760.07253
760.07237
760.0727
760.07353
760.07487
760.07675
760.07916
760.08023
760.07457
760.07401
760.07327
760.07315
760.07353
760.0744
760.07578
760.07769
760.08013
760.08122
760.0757
760.0752
760.07451
760.07445
760.07487
760.07578
760.07719
760.07912
760.08158
760.08267
760.07725
760.07687
760.07628
760.07628
760.07675
760.07769
760.07912
760.08107
760.08353
760.08461
760.079
760.07896
760.07856
760.07864
760.07916
760.08013
760.08158
760.08353
760.08596
760.08695
760.07968
760.07972
760.07953
760.07968
760.08023
760.08122
760.08267
760.08461
760.08695
760.08676
759.56643
759.5657
759.56505
759.56491
759.56517
759.56581
759.56683
759.5682
759.56976
759.5705
759.5657
759.56497
759.56437
759.56425
759.56453
759.5652
759.56625
759.56771
759.56953
759.57037
759.56505
759.56437
759.56382
759.56373
759.56404
759.56473
759.56583
759.56736
759.56931
759.5703
759.56491
759.56425
759.56373
759.56367
759.56401
759.56474
759.56587
759.56745
759.56947
759.5705
759.56517
759.56453
759.56404
759.56401
759.56437
759.56513
759.56631
759.56792
759.56997
759.57103
759.56581
759.5652
759.56473
759.56474
759.56513
759.56593
759.56713
759.56877
759.57085
759.57192
759.56683
759.56625
759.56583
759.56587
759.56631
759.56713
759.56836
759.57002
759.57211
759.57318
759.5682
759.56771
759.56736
759.56745
759.56792
759.56877
759.57002
759.57168
759.57378
759.57485
759.56976
759.56953
759.56931
759.56947
759.56997
759.57085
759.57211
759.57378
759.57586
759.57688
759.5705
759.57037
759.5703
759.5705
759.57103
759.57192
759.57318
759.57485
759.57688
759.57696
759.12294
759.12195
759.12164
759.12165
759.12197
759.12258
759.12347
759.12464
759.126
759.12679
759.12195
759.12121
759.12093
759.12096
759.12129
759.12191
759.12283
759.12406
759.1256
759.1265
759.12164
759.12093
759.12069
759.12074
759.12109
759.12173
759.12268
759.12395
759.12557
759.12655
759.12165
759.12096
759.12074
759.12082
759.12119
759.12185
759.12283
759.12413
759.12579
759.1268
759.12197
759.12129
759.12109
759.12119
759.12158
759.12227
759.12327
759.12459
759.12628
759.1273
759.12258
759.12191
759.12173
759.12185
759.12227
759.12298
759.124
759.12534
759.12704
759.12808
759.12347
759.12283
759.12268
759.12283
759.12327
759.124
759.12503
759.1264
759.1281
759.12915
759.12464
759.12406
759.12395
759.12413
759.12459
759.12534
759.1264
759.12777
759.12949
759.13053
759.126
759.1256
759.12557
759.12579
759.12628
759.12704
759.1281
759.12949
759.13121
759.13223
759.12679
759.1265
759.12655
759.1268
759.1273
759.12808
759.12915
759.13053
759.13223
759.13255
758.71989
758.71869
758.71871
758.71887
758.71924
758.71981
758.72057
758.72154
758.72267
758.7235
758.71869
758.71795
758.71798
758.71816
758.71854
758.71911
758.71989
758.72088
758.72211
758.72306
758.71871
758.71798
758.71804
758.71824
758.71863
758.71921
758.72
758.72101
758.72227
758.72323
758.71887
758.71816
758.71824
758.71845
758.71886
758.71945
758.72025
758.72127
758.72256
758.72353
758.71924
758.71854
758.71863
758.71886
758.71927
758.71988
758.72069
758.72173
758.72302
758.724
758.71981
758.71911
758.71921
758.71945
758.71988
758.7205
758.72133
758.72237
758.72367
758.72465
758.72057
758.71989
758.72
758.72025
758.72069
758.72133
758.72216
758.72322
758.72453
758.72552
758.72154
758.72088
758.72101
758.72127
758.72173
758.72237
758.72322
758.72428
758.72561
758.72661
758.72267
758.72211
758.72227
758.72256
758.72302
758.72367
758.72453
758.72561
758.72695
758.72795
758.7235
758.72306
758.72323
758.72353
758.724
758.72465
758.72552
758.72661
758.72795
758.72851
758.33308
758.33167
758.33202
758.33235
758.33276
758.33328
758.3339
758.33466
758.33556
758.33641
758.33167
758.33095
758.3313
758.33163
758.33205
758.33257
758.33319
758.33393
758.33485
758.33583
758.33202
758.3313
758.33166
758.332
758.33243
758.33295
758.33357
758.3343
758.3352
758.33611
758.33235
758.33163
758.332
758.33235
758.33278
758.3333
758.33392
758.33465
758.33555
758.33646
758.33276
758.33205
758.33243
758.33278
758.33322
758.33374
758.33436
758.33509
758.33598
758.33689
758.33328
758.33257
758.33295
758.3333
758.33374
758.33426
758.33489
758.33562
758.33652
758.33743
758.3339
758.33319
758.33357
758.33392
758.33436
758.33489
758.33552
758.33625
758.33716
758.33807
758.33466
758.33393
758.3343
758.33465
758.33509
758.33562
758.33625
758.33701
758.33792
758.33886
758.33556
758.33485
758.3352
758.33555
758.33598
758.33652
758.33716
758.33792
758.33887
758.33984
758.33641
758.33583
758.33611
758.33646
758.33689
758.33743
758.33807
758.33886
758.33984
758.3406
757.93921
757.93762
757.93831
757.93878
757.93924
757.9397
757.94018
757.94072
757.94137
757.94223
757.93762
757.93694
757.93759
757.93807
757.93853
757.93899
757.93945
757.93994
757.94054
757.94153
757.93831
757.93759
757.93826
757.93874
757.9392
757.93964
757.94009
757.94054
757.94107
757.94193
757.93878
757.93807
757.93874
757.93922
757.93967
757.94011
757.94055
757.94098
757.94148
757.94231
757.93924
757.93853
757.9392
757.93967
757.94012
757.94055
757.94098
757.9414
757.94188
757.9427
757.9397
757.93899
757.93964
757.94011
757.94055
757.94098
757.94139
757.94181
757.94229
757.94311
757.94018
757.93945
757.94009
757.94055
757.94098
757.94139
757.94181
757.94223
757.94271
757.94354
757.94072
757.93994
757.94054
757.94098
757.9414
757.94181
757.94223
757.94265
757.94316
757.94401
757.94137
757.94054
757.94107
757.94148
757.94188
757.94229
757.94271
757.94316
757.9437
757.94462
757.94223
757.94153
757.94193
757.94231
757.9427
757.94311
757.94354
757.94401
757.94462
757.94556
757.51605
757.51431
757.51532
757.51594
757.51644
757.51684
757.51718
757.51748
757.51788
757.51873
757.51431
757.51367
757.51463
757.51525
757.51574
757.51614
757.51644
757.51666
757.51694
757.51791
757.51532
757.51463
757.51559
757.5162
757.51669
757.51707
757.51733
757.5175
757.51764
757.51843
757.51594
757.51525
757.5162
757.51681
757.51729
757.51764
757.51788
757.51801
757.51811
757.51885
757.51644
757.51574
757.51669
757.51729
757.51775
757.51808
757.5183
757.51841
757.51848
757.5192
757.51684
757.51614
757.51707
757.51764
757.51808
757.51841
757.51861
757.5187
757.51876
757.51948
757.51718
757.51644
757.51733
757.51788
757.5183
757.51861
757.5188
757.51889
757.51896
757.51968
757.51748
757.51666
757.5175
757.51801
757.51841
757.5187
757.51889
757.51899
757.51908
757.51982
757.51788
757.51694
757.51764
757.51811
757.51848
757.51876
757.51896
757.51908
757.51921
757.52005
757.51873
757.51791
757.51843
757.51885
757.5192
757.51948
757.51968
757.51982
757.52005
757.52116
757.04251
757.04064
757.04196
757.04273
757.04326
757.04361
757.04378
757.04385
757.044
757.04483
757.04064
757.04005
757.04131
757.04207
757.0426
757.04292
757.04305
757.04302
757.04295
757.04391
757.04196
757.04131
757.04256
757.04331
757.04382
757.04411
757.0442
757.04408
757.04384
757.04454
757.04273
757.04207
757.04331
757.04404
757.04453
757.0448
757.04484
757.04467
757.04436
757.04499
757.04326
757.0426
757.04382
757.04453
757.04499
757.04523
757.04524
757.04503
757.04469
757.0453
757.04361
757.04292
757.04411
757.0448
757.04523
757.04544
757.04543
757.0452
757.04484
757.04544
757.04378
757.04305
757.0442
757.04484
757.04524
757.04543
757.04541
757.04517
757.0448
757.04541
757.04385
757.04302
757.04408
757.04467
757.04503
757.0452
757.04517
757.04493
757.04459
757.04523
757.044
757.04295
757.04384
757.04436
757.04469
757.04484
757.0448
757.04459
757.04431
757.04507
757.04483
757.04391
757.04454
757.04499
757.0453
757.04544
757.04541
757.04523
757.04507
757.04632
756.49872
756.49674
756.49838
756.49928
756.49985
756.50012
756.50014
756.49998
756.49986
756.50065
756.49674
756.49623
756.49778
756.49866
756.49922
756.49947
756.49943
756.49913
756.49873
756.49964
756.49838
756.49778
756.4993
756.50017
756.50071
756.50092
756.50082
756.50041
756.49979
756.50038
756.49928
756.49866
756.50017
756.50102
756.50153
756.5017
756.50155
756.50107
756.50035
756.50087
756.49985
756.49922
756.50071
756.50153
756.50199
756.50213
756.50193
756.5014
756.50064
756.50113
756.50012
756.49947
756.50092
756.5017
756.50213
756.50223
756.502
756.50144
756.50066
756.50113
756.50014
756.49943
756.50082
756.50155
756.50193
756.502
756.50175
756.50118
756.50039
756.50087
756.49998
756.49913
756.50041
756.50107
756.5014
756.50144
756.50118
756.50061
756.49985
756.50036
756.49986
756.49873
756.49979
756.50035
756.50064
756.50066
756.50039
756.49985
756.49916
756.49981
756.50065
756.49964
756.50038
756.50087
756.50113
756.50113
756.50087
756.50036
756.49981
756.50118
755.86614
755.86407
755.86601
755.86703
755.86763
755.86783
755.86769
755.86729
755.86691
755.86765
755.86407
755.86364
755.86546
755.86647
755.86705
755.86722
755.86701
755.86644
755.86571
755.86657
755.86601
755.86546
755.86726
755.86824
755.86879
755.86892
755.86863
755.86793
755.86693
755.86741
755.86703
755.86647
755.86824
755.8692
755.86971
755.86979
755.86944
755.86865
755.86754
755.86793
755.86763
755.86705
755.86879
755.86971
755.87018
755.87021
755.8698
755.86896
755.86778
755.86813
755.86783
755.86722
755.86892
755.86979
755.87021
755.87019
755.86975
755.86886
755.86766
755.86799
755.86769
755.86701
755.86863
755.86944
755.8698
755.86975
755.86927
755.86837
755.86716
755.86749
755.86729
755.86644
755.86793
755.86865
755.86896
755.86886
755.86837
755.86748
755.86629
755.86666
755.86691
755.86571
755.86693
755.86754
755.86778
755.86766
755.86716
755.86629
755.86519
755.86572
755.86765
755.86657
755.86741
755.86793
755.86813
755.86799
755.86749
755.86666
755.86572
755.86719
755.12756
755.12543
755.12765
755.1288
755.12941
755.12954
755.12924
755.1286
755.12796
755.12864
755.12543
755.12509
755.12717
755.1283
755.12889
755.12898
755.1286
755.12777
755.1267
755.12748
755.12765
755.12717
755.12922
755.13032
755.13087
755.13091
755.13044
755.12945
755.12807
755.12842
755.1288
755.1283
755.13032
755.13138
755.13189
755.13187
755.13132
755.13023
755.12872
755.12897
755.12941
755.12889
755.13087
755.13189
755.13234
755.13227
755.13165
755.1305
755.12891
755.12911
755.12954
755.12898
755.13091
755.13187
755.13227
755.13214
755.13147
755.13027
755.12865
755.12883
755.12924
755.1286
755.13044
755.13132
755.13165
755.13147
755.13078
755.12955
755.12792
755.1281
755.1286
755.12777
755.12945
755.13023
755.1305
755.13027
755.12955
755.12833
755.12673
755.12695
755.12796
755.1267
755.12807
755.12872
755.12891
755.12865
755.12792
755.12673
755.12521
755.12562
755.12864
755.12748
755.12842
755.12897
755.12911
755.12883
755.1281
755.12695
755.12562
755.12716
754.26722
754.26505
754.26754
754.2688
754.26942
754.26948
754.26901
754.26814
754.26722
754.26783
754.26505
754.2648
754.26714
754.26837
754.26897
754.26898
754.26842
754.26732
754.26592
754.26663
754.26754
754.26714
754.26942
754.27062
754.27118
754.27112
754.27047
754.2692
754.26744
754.26766
754.2688
754.26837
754.27062
754.27178
754.27228
754.27216
754.27141
754.27003
754.26812
754.26822
754.26942
754.26897
754.27118
754.27228
754.27272
754.27253
754.27171
754.27025
754.26826
754.26831
754.26948
754.26898
754.27112
754.27216
754.27253
754.27228
754.27141
754.26989
754.26786
754.26788
754.26901
754.26842
754.27047
754.27141
754.27171
754.27141
754.27048
754.26894
754.2669
754.26692
754.26814
754.26732
754.2692
754.27003
754.27025
754.26989
754.26894
754.2674
754.26539
754.26545
754.26722
754.26592
754.26744
754.26812
754.26826
754.26786
754.2669
754.26539
754.26347
754.26374
754.26783
754.26663
754.26766
754.26822
754.26831
754.26788
754.26692
754.26545
754.26374
754.26533
753.27082
753.26863
753.27136
753.27272
753.27335
753.27332
753.27269
753.27158
753.27041
753.27094
753.26863
753.26847
753.27104
753.27237
753.27297
753.27289
753.27215
753.2708
753.26908
753.26968
753.27136
753.27104
753.27355
753.27483
753.27538
753.27524
753.27439
753.27284
753.27072
753.2708
753.27272
753.27237
753.27483
753.27607
753.27656
753.27633
753.27539
753.27372
753.27143
753.27137
753.27335
753.27297
753.27538
753.27656
753.27698
753.27668
753.27565
753.27389
753.27152
753.27139
753.27332
753.27289
753.27524
753.27633
753.27668
753.27631
753.27522
753.27339
753.27097
753.27083
753.27269
753.27215
753.27439
753.27539
753.27565
753.27522
753.27408
753.27222
753.26979
753.26964
753.27158
753.2708
753.27284
753.27372
753.27389
753.27339
753.27222
753.27036
753.26795
753.26785
753.27041
753.26908
753.27072
753.27143
753.27152
753.27097
753.26979
753.26795
753.26565
753.26577
753.27094
753.26968
753.2708
753.27137
753.27139
753.27083
753.26964
753.26785
753.26577
753.26738
752.12553
752.12334
752.1263
752.12774
752.12837
752.12826
752.12746
752.12612
752.12468
752.12512
752.12334
752.12329
752.12606
752.12747
752.12807
752.1279
752.12699
752.12537
752.12333
752.12384
752.1263
752.12606
752.12877
752.13014
752.13067
752.13043
752.1294
752.12757
752.1251
752.12503
752.12774
752.12747
752.13014
752.13145
752.13191
752.13158
752.13044
752.12848
752.12583
752.1256
752.12837
752.12807
752.13067
752.13191
752.13231
752.13189
752.13066
752.1286
752.12585
752.12556
752.12826
752.1279
752.13043
752.13158
752.13189
752.1314
752.13009
752.12797
752.12516
752.12484
752.12746
752.12699
752.1294
752.13044
752.13066
752.13009
752.12874
752.12657
752.12375
752.12343
752.12612
752.12537
752.12757
752.12848
752.1286
752.12797
752.12657
752.1244
752.12161
752.12133
752.12468
752.12333
752.1251
752.12583
752.12585
752.12516
752.12375
752.12161
752.11892
752.11888
752.12512
752.12384
752.12503
752.1256
752.12556
752.12484
752.12343
752.12133
752.11888
752.12051
750.82007
750.81789
750.82105
750.82257
750.82318
750.82297
750.82201
750.82044
750.81875
750.81908
750.81789
750.81794
750.82091
750.82238
750.82296
750.82269
750.8216
750.81974
750.81739
750.81777
750.82105
750.82091
750.8238
750.82522
750.82574
750.82538
750.82416
750.82208
750.81926
750.81903
750.82257
750.82238
750.82522
750.82659
750.82702
750.82658
750.82524
750.823
750.81999
750.8196