/*--------------------------------*- C++ -*----------------------------------*\
| =========                 |                                                 |
| \\      /  F ield         | OpenFOAM: The Open Source CFD Toolbox           |
|  \\    /   O peration     | Version:  v2106                                 |
|   \\  /    A nd           | Website:  www.openfoam.com                      |
|    \\/     M anipulation  |                                                 |
\*---------------------------------------------------------------------------*/
FoamFile
{
    version     2.0;
    format      ascii;
    arch        "LSB;label=32;scalar=64";
    class       volScalarField;
    location    "40";
    object      laplacianT;
}
// * * * * * * * * * * * * * * * * * * * * * * * * * * * * * * * * * * * * * //

dimensions      [0 -2 0 1 0 0 0];

internalField   nonuniform List<scalar> 
4000
(
38641.822
38640.79
38641.36
38641.1
38641.016
38640.99
38641.009
38641.053
38641.087
38641.058
38640.79
38640.934
38641.058
38640.829
38640.749
38640.727
38640.753
38640.809
38640.845
38640.795
38641.36
38641.058
38641.245
38641.023
38640.947
38640.933
38640.97
38641.047
38641.113
38641.012
38641.1
38640.829
38641.023
38640.806
38640.735
38640.727
38640.774
38640.864
38640.953
38640.887
38641.016
38640.749
38640.947
38640.735
38640.67
38640.668
38640.723
38640.82
38640.916
38640.856
38640.99
38640.727
38640.933
38640.727
38640.668
38640.673
38640.733
38640.837
38640.937
38640.879
38641.009
38640.753
38640.97
38640.774
38640.723
38640.733
38640.798
38640.904
38641.007
38640.949
38641.053
38640.809
38641.047
38640.864
38640.82
38640.837
38640.904
38641.012
38641.112
38641.052
38641.087
38640.845
38641.113
38640.953
38640.916
38640.937
38641.007
38641.112
38641.207
38641.138
38641.058
38640.795
38641.012
38640.887
38640.856
38640.879
38640.949
38641.052
38641.138
38641.05
-436.31501
-441.27437
-438.32699
-438.60624
-438.61355
-438.6118
-438.61287
-438.62052
-438.65261
-438.63535
-441.27437
-441.91526
-440.2639
-440.47786
-440.48194
-440.48191
-440.49264
-440.54694
-440.76669
-440.27904
-438.32699
-440.2639
-438.49931
-438.70268
-438.70568
-438.70384
-438.70785
-438.74982
-439.04179
-439.11823
-438.60624
-440.47786
-438.70268
-438.90495
-438.90808
-438.90677
-438.91053
-438.94305
-439.19447
-439.19011
-438.61355
-440.48194
-438.70568
-438.90808
-438.91132
-438.91031
-438.91528
-438.95083
-439.206
-439.1987
-438.6118
-440.48191
-438.70384
-438.90677
-438.91031
-438.90925
-438.91422
-438.94998
-439.206
-439.19943
-438.61287
-440.49264
-438.70785
-438.91053
-438.91528
-438.91422
-438.91922
-438.95505
-439.21142
-439.20562
-438.62052
-440.54694
-438.74982
-438.94305
-438.95083
-438.94998
-438.95505
-438.99122
-439.24881
-439.24581
-438.65261
-440.76669
-439.04179
-439.19447
-439.206
-439.206
-439.21142
-439.24881
-439.51085
-439.51615
-438.63535
-440.27904
-439.11823
-439.19011
-439.1987
-439.19943
-439.20562
-439.24581
-439.51615
-439.46579
-392.95012
-399.25186
-395.24662
-395.62111
-395.63496
-395.63407
-395.64187
-395.68387
-395.85703
-395.06493
-399.25186
-399.88997
-397.59136
-397.88417
-397.89294
-397.89311
-397.91302
-398.045
-398.75708
-397.39967
-395.24662
-397.59136
-395.15634
-395.43487
-395.44209
-395.43949
-395.44602
-395.53899
-396.33656
-395.8406
-395.62111
-397.88417
-395.43487
-395.71171
-395.71905
-395.71747
-395.72461
-395.80336
-396.53829
-395.92837
-395.63496
-397.89294
-395.44209
-395.71905
-395.7264
-395.72512
-395.73402
-395.81704
-396.55642
-395.9396
-395.63407
-397.89311
-395.43949
-395.71747
-395.72512
-395.72369
-395.73253
-395.8159
-396.55671
-395.94055
-395.64187
-397.91302
-395.44602
-395.72461
-395.73402
-395.73253
-395.74139
-395.82502
-396.56689
-395.95303
-395.68387
-398.045
-395.53899
-395.80336
-395.81704
-395.8159
-395.82502
-395.9099
-396.65622
-396.05393
-395.85703
-398.75708
-396.33656
-396.53829
-396.55642
-396.55671
-396.56689
-396.65622
-397.4194
-396.86149
-395.06493
-397.39967
-395.8406
-395.92837
-395.9396
-395.94055
-395.95303
-396.05393
-396.86149
-395.5095
-351.05967
-358.80455
-353.80367
-354.26522
-354.28505
-354.28433
-354.29757
-354.38425
-354.84047
-353.57966
-358.80455
-359.63489
-356.71478
-357.08007
-357.09325
-357.09289
-357.11699
-357.31356
-358.61373
-356.51156
-353.80367
-356.71478
-353.63678
-353.98441
-353.99566
-353.99213
-353.99872
-354.13502
-355.54836
-354.59291
-354.26522
-357.08007
-353.98441
-354.32978
-354.3411
-354.33894
-354.34684
-354.46361
-355.79365
-354.69593
-354.28505
-357.09325
-353.99566
-354.3411
-354.35235
-354.3505
-354.36072
-354.48281
-355.81768
-354.70959
-354.28433
-357.09289
-353.99213
-354.33894
-354.3505
-354.34838
-354.35849
-354.48108
-355.81784
-354.71033
-354.29757
-357.11699
-353.99872
-354.34684
-354.36072
-354.35849
-354.36858
-354.49155
-355.83018
-354.72711
-354.38425
-357.31356
-354.13502
-354.46361
-354.48281
-354.48108
-354.49155
-354.6169
-355.96501
-354.89169
-354.84047
-358.61373
-355.54836
-355.79365
-355.81768
-355.81784
-355.83018
-355.96501
-357.35627
-356.45184
-353.57966
-356.51156
-354.59291
-354.69593
-354.70959
-354.71033
-354.72711
-354.89169
-356.45184
-353.59506
-311.39877
-320.50942
-314.55878
-315.10306
-315.12852
-315.12761
-315.14367
-315.26305
-315.98611
-314.30554
-320.50942
-321.51777
-318.00377
-318.43802
-318.45545
-318.45478
-318.48222
-318.73259
-320.60436
-317.79317
-314.55878
-318.00377
-314.31149
-314.72482
-314.7399
-314.73557
-314.74148
-314.91102
-316.92748
-315.53462
-315.10306
-318.43802
-314.72482
-315.13536
-315.15047
-315.14781
-315.15571
-315.30024
-317.21395
-315.6522
-315.12852
-318.45545
-314.7399
-315.15047
-315.16543
-315.1631
-315.17387
-315.32467
-317.24351
-315.66818
-315.12761
-318.45478
-314.73557
-315.14781
-315.1631
-315.16038
-315.17101
-315.3224
-317.24351
-315.66857
-315.14367
-318.48222
-314.74148
-315.15571
-315.17387
-315.17101
-315.18154
-315.33334
-317.25676
-315.6877
-315.26305
-318.73259
-314.91102
-315.30024
-315.32467
-315.3224
-315.33334
-315.48812
-317.42485
-315.90332
-315.98611
-320.60436
-316.92748
-317.21395
-317.24351
-317.24351
-317.25676
-317.42485
-319.43038
-318.24409
-314.30554
-317.79317
-315.53462
-315.6522
-315.66818
-315.66857
-315.6877
-315.90332
-318.24409
-313.89223
-274.09883
-284.47125
-277.62476
-278.24767
-278.27848
-278.27751
-278.29661
-278.44665
-279.42592
-277.35553
-284.47125
-285.62729
-281.55342
-282.05322
-282.07464
-282.07373
-282.10475
-282.40594
-284.83061
-281.35871
-277.62476
-281.55342
-277.28199
-277.75777
-277.77644
-277.77136
-277.77693
-277.97705
-280.57736
-278.78081
-278.24767
-282.05322
-277.75777
-278.23024
-278.24891
-278.24582
-278.25403
-278.42375
-280.90292
-278.91211
-278.27848
-282.07464
-277.77644
-278.24891
-278.26735
-278.2646
-278.27625
-278.45311
-280.93769
-278.93026
-278.27751
-282.07373
-277.77136
-278.24582
-278.2646
-278.26135
-278.27282
-278.45038
-280.93761
-278.93038
-278.29661
-282.10475
-277.77693
-278.25403
-278.27625
-278.27282
-278.28416
-278.46214
-280.95206
-278.95175
-278.44665
-282.40594
-277.97705
-278.42375
-278.45311
-278.45038
-278.46214
-278.64359
-281.14985
-279.21243
-279.42592
-284.83061
-280.57736
-280.90292
-280.93769
-280.93761
-280.95206
-281.14985
-283.74716
-282.31977
-277.35553
-281.35871
-278.78081
-278.91211
-278.93026
-278.93038
-278.95175
-279.21243
-282.31977
-276.53236
-239.26612
-250.79097
-243.10796
-243.80499
-243.84077
-243.83965
-243.86165
-244.041
-245.26666
-242.83686
-250.79097
-252.06538
-247.4691
-248.03072
-248.05583
-248.05456
-248.08888
-248.43818
-251.39325
-247.31379
-243.10796
-247.4691
-242.65724
-243.19189
-243.21387
-243.20795
-243.21311
-243.44169
-246.60159
-244.43883
-243.80499
-248.03072
-243.19189
-243.72276
-243.7447
-243.74108
-243.74954
-243.94254
-246.96391
-244.58291
-243.84077
-248.05583
-243.21387
-243.7447
-243.76636
-243.76308
-243.77552
-243.97648
-247.00356
-244.60302
-243.83965
-248.05456
-243.20795
-243.74108
-243.76308
-243.7592
-243.77145
-243.97321
-247.00331
-244.60282
-243.86165
-248.08888
-243.21311
-243.74954
-243.77552
-243.77145
-243.78351
-243.98575
-247.01894
-244.62638
-244.041
-248.43818
-243.44169
-243.94254
-243.97648
-243.97321
-243.98575
-244.19197
-247.24437
-244.92867
-245.26666
-251.39325
-246.60159
-246.96391
-247.00356
-247.00331
-247.01894
-247.24437
-250.40823
-248.77588
-242.83686
-247.31379
-244.43883
-244.58291
-244.60302
-244.60282
-244.62638
-244.92867
-248.77588
-241.62984
-206.99684
-219.56031
-211.10469
-211.87086
-211.91122
-211.90982
-211.93444
-212.14154
-213.60252
-210.8447
-219.56031
-220.92476
-215.8463
-216.46562
-216.49408
-216.49233
-216.52959
-216.92396
-220.38353
-215.75173
-211.10469
-215.8463
-210.53559
-211.12518
-211.15016
-211.14332
-211.14789
-211.40275
-215.09416
-212.6036
-211.87086
-216.46562
-211.12518
-211.71054
-211.73546
-211.73121
-211.73975
-211.95412
-215.49069
-212.75944
-211.91122
-216.49408
-211.15016
-211.73546
-211.76003
-211.75613
-211.76917
-211.99229
-215.53483
-212.78127
-211.90982
-216.49233
-211.14332
-211.73121
-211.75613
-211.75155
-211.76437
-211.98839
-215.53432
-212.78066
-211.93444
-216.52959
-211.14789
-211.73975
-211.76917
-211.76437
-211.77699
-212.00153
-215.55094
-212.80619
-212.14154
-216.92396
-211.40275
-211.95412
-211.99229
-211.98839
-212.00153
-212.23056
-215.80194
-213.14717
-213.60252
-220.38353
-215.09416
-215.49069
-215.53483
-215.53432
-215.55094
-215.80194
-219.50399
-217.7011
-210.8447
-215.75173
-212.6036
-212.75944
-212.78127
-212.78066
-212.80619
-213.14717
-217.7011
-209.28209
-177.37032
-190.85513
-181.69479
-182.52469
-182.5692
-182.56741
-182.59435
-182.82745
-184.51133
-181.45787
-190.85513
-192.28247
-186.76442
-187.43697
-187.46846
-187.46612
-187.50591
-187.94208
-191.87717
-186.74983
-181.69479
-186.76442
-180.99892
-181.63919
-181.66687
-181.65903
-181.66286
-181.94169
-186.13333
-183.35375
-182.52469
-187.43697
-181.63919
-182.27482
-182.3024
-182.29744
-182.30589
-182.53966
-186.56128
-183.52026
-182.5692
-187.46846
-181.66687
-182.3024
-182.32958
-182.32499
-182.33843
-182.58167
-186.60951
-183.54358
-182.56741
-187.46612
-181.65903
-182.29744
-182.32499
-182.31961
-182.33283
-182.57707
-186.60864
-183.54246
-182.59435
-187.50591
-181.66286
-182.30589
-182.33843
-182.33283
-182.3458
-182.59062
-186.62606
-183.56971
-182.82745
-187.94208
-181.94169
-182.53966
-182.58167
-182.57707
-182.59062
-182.8404
-186.90043
-183.94642
-184.51133
-191.87717
-186.13333
-186.56128
-186.60951
-186.60864
-186.62606
-186.90043
-191.10925
-189.16922
-181.45787
-186.74983
-183.35375
-183.52026
-183.54358
-183.54246
-183.56971
-183.94642
-189.16922
-179.56918
-150.44831
-164.73468
-154.94093
-155.82879
-155.87702
-155.87475
-155.90371
-156.16089
-158.05393
-154.73802
-164.73468
-166.19923
-160.28616
-161.00718
-161.04135
-161.03834
-161.08026
-161.55472
-165.9336
-160.36858
-154.94093
-160.28616
-154.11205
-154.79844
-154.82851
-154.81963
-154.82257
-155.12298
-159.78068
-156.75094
-155.82879
-161.00718
-154.79844
-155.47982
-155.50976
-155.50402
-155.51221
-155.76334
-160.2371
-156.92698
-155.87702
-161.04135
-154.82851
-155.50976
-155.53924
-155.53388
-155.54753
-155.8088
-160.28902
-156.95154
-155.87475
-161.03834
-154.81963
-155.50402
-155.53388
-155.52767
-155.54107
-155.80344
-160.28771
-156.94984
-155.90371
-161.08026
-154.82257
-155.51221
-155.54753
-155.54107
-155.55422
-155.81721
-160.3057
-156.97854
-156.16089
-161.55472
-155.12298
-155.76334
-155.8088
-155.80344
-155.81721
-156.08561
-160.60113
-157.38786
-158.05393
-165.9336
-159.78068
-160.2371
-160.28902
-160.28771
-160.3057
-160.60113
-165.28243
-163.23764
-154.73802
-160.36858
-156.75094
-156.92698
-156.95154
-156.94984
-156.97854
-157.38786
-163.23764
-152.5537
-126.27498
-141.24162
-130.88864
-131.82834
-131.87985
-131.87702
-131.9077
-132.18694
-134.27421
-130.72955
-141.24162
-142.71931
-136.45748
-137.22192
-137.25843
-137.25468
-137.29833
-137.80739
-142.59586
-136.65159
-130.88864
-136.45748
-129.92266
-130.65038
-130.68251
-130.67256
-130.6745
-130.99399
-136.08106
-132.83975
-131.82834
-137.22192
-130.65038
-131.37272
-131.40471
-131.39815
-131.40593
-131.67232
-136.56284
-133.02412
-131.87985
-137.25843
-130.68251
-131.40471
-131.4362
-131.43003
-131.4437
-131.72083
-136.618
-133.04969
-131.87702
-137.25468
-130.67256
-131.39815
-131.43003
-131.42293
-131.43636
-131.71467
-136.6162
-133.04736
-131.9077
-137.29833
-130.6745
-131.40593
-131.4437
-131.43636
-131.44951
-131.72849
-136.63456
-133.07722
-132.18694
-137.80739
-130.99399
-131.67232
-131.72083
-131.71467
-131.72849
-132.0133
-136.94867
-133.51592
-134.27421
-142.59586
-136.08106
-136.56284
-136.618
-136.6162
-136.63456
-136.94867
-142.06555
-139.94718
-130.72955
-136.65159
-132.83975
-133.02412
-133.04969
-133.04736
-133.07722
-133.51592
-139.94718
-128.28074
-104.87713
-120.40211
-109.56636
-110.55151
-110.60587
-110.60242
-110.63455
-110.93371
-113.1992
-109.45973
-120.40211
-121.87071
-115.30766
-116.11024
-116.14877
-116.14423
-116.18922
-116.72903
-121.89068
-115.62571
-109.56636
-115.30766
-108.46141
-109.22541
-109.25931
-109.2483
-109.24913
-109.58518
-115.06266
-111.64778
-110.55151
-116.11024
-109.22541
-109.98374
-110.01748
-110.01009
-110.01734
-110.29684
-115.56654
-111.83924
-110.60587
-116.14877
-109.25931
-110.01748
-110.05069
-110.04368
-110.05722
-110.34801
-115.62453
-111.8656
-110.60242
-116.14423
-109.2483
-110.01009
-110.04368
-110.03569
-110.04898
-110.34103
-115.6222
-111.8626
-110.63455
-116.18922
-109.24913
-110.01734
-110.05722
-110.04898
-110.06198
-110.35474
-115.64075
-111.89336
-110.93371
-116.72903
-109.58518
-110.29684
-110.34801
-110.34103
-110.35474
-110.6537
-115.97105
-112.35807
-113.1992
-121.89068
-115.06266
-115.56654
-115.62453
-115.6222
-115.64075
-115.97105
-121.48434
-119.32209
-109.45973
-115.62571
-111.64778
-111.83924
-111.8656
-111.8626
-111.89336
-112.35807
-119.32209
-106.77796
-86.264432
-102.22612
-90.985757
-92.009736
-92.066514
-92.062431
-92.095716
-92.412567
-94.839339
-90.938994
-102.22612
-103.66534
-96.84953
-97.684808
-97.725029
-97.719684
-97.765648
-98.332217
-103.82875
-97.301294
-90.985757
-96.84953
-89.742127
-90.537226
-90.572603
-90.560551
-90.560211
-90.910226
-96.737226
-93.185894
-92.009736
-97.684808
-90.537226
-91.32638
-91.361585
-91.353351
-91.359974
-91.650413
-97.259849
-93.383188
-92.066514
-97.725029
-90.572603
-91.361585
-91.396212
-91.388382
-91.401636
-91.703839
-97.320245
-93.410142
-92.062431
-97.719684
-90.560551
-91.353351
-91.388382
-91.379505
-91.392518
-91.696059
-97.317357
-93.406456
-92.095716
-97.765648
-90.560211
-91.359974
-91.401636
-91.392518
-91.40523
-91.70952
-97.335935
-93.43786
-92.412567
-98.332217
-90.910226
-91.650413
-91.703839
-91.696059
-91.70952
-92.020341
-97.679932
-93.925094
-94.839339
-103.82875
-96.737226
-97.259849
-97.320245
-97.317357
-97.335935
-97.679932
-103.54847
-101.37038
-90.938994
-97.301294
-93.185894
-93.383188
-93.410142
-93.406456
-93.43786
-93.925094
-101.37038
-88.055923
-70.429873
-86.707744
-75.142086
-76.198079
-76.256849
-76.252121
-76.2863
-76.618544
-79.18885
-75.161295
-86.707744
-88.099404
-81.079878
-81.942246
-81.983842
-81.977691
-82.02427
-82.613521
-88.405038
-81.67253
-75.142086
-81.079878
-73.762222
-74.583074
-74.619647
-74.6066
-74.605052
-74.966425
-81.100453
-77.448632
-76.198079
-81.942246
-74.583074
-75.397752
-75.434141
-75.425096
-75.431009
-75.730204
-81.638371
-77.650476
-76.256849
-81.983842
-74.619647
-75.434141
-75.469921
-75.461286
-75.474139
-75.785501
-81.700746
-77.677821
-76.252121
-81.977691
-74.6066
-75.425096
-75.461286
-75.451555
-75.464172
-75.776941
-81.697301
-77.673456
-76.2863
-82.02427
-74.605052
-75.431009
-75.474139
-75.464172
-75.476483
-75.790036
-81.715752
-77.705264
-76.618544
-82.613521
-74.966425
-75.730204
-75.785501
-75.776941
-75.790036
-76.110409
-82.070902
-78.211473
-79.18885
-88.405038
-81.100453
-81.638371
-81.700746
-81.697301
-81.715752
-82.070902
-88.251878
-86.084112
-75.161295
-81.67253
-77.448632
-77.650476
-77.677821
-77.673456
-77.705264
-78.211473
-86.084112
-72.108406
-57.350256
-73.825717
-62.014653
-63.095708
-63.156053
-63.150689
-63.185505
-63.530785
-66.226213
-62.104599
-73.825717
-75.153808
-67.979844
-68.863584
-68.906251
-68.899314
-68.946165
-69.553945
-75.599242
-68.717954
-62.014653
-67.979844
-60.503107
-61.344266
-61.381764
-61.367791
-61.365016
-61.735132
-68.132401
-64.414645
-63.095708
-68.863584
-61.344266
-62.179063
-62.216367
-62.206553
-62.211696
-62.517469
-68.682102
-64.619744
-63.156053
-68.906251
-61.381764
-62.216367
-62.253037
-62.243636
-62.255984
-62.57425
-68.746033
-64.647292
-63.150689
-68.899314
-61.367791
-62.206553
-62.243636
-62.233101
-62.24522
-62.564953
-68.742045
-64.642269
-63.185505
-68.946165
-61.365016
-62.211696
-62.255984
-62.24522
-62.257029
-62.577579
-68.760229
-64.674251
-63.530785
-69.553945
-61.735132
-62.517469
-62.57425
-62.564953
-62.577579
-62.905191
-69.123983
-65.195831
-66.226213
-75.599242
-68.132401
-68.682102
-68.746033
-68.742045
-68.760229
-69.123983
-75.573257
-73.439924
-62.104599
-68.717954
-64.414645
-64.619744
-64.647292
-64.642269
-64.674251
-65.195831
-73.439924
-58.912962
-46.986814
-63.543957
-51.567415
-52.666484
-52.727992
-52.722018
-52.757226
-53.113141
-55.914745
-51.731488
-63.543957
-64.794727
-57.515499
-58.414819
-58.45826
-58.450573
-58.497369
-59.119481
-65.376364
-58.401011
-51.567415
-57.515499
-49.930772
-50.786723
-50.824884
-50.810069
-50.806073
-51.182325
-57.798075
-54.047306
-52.666484
-58.414819
-50.786723
-51.636166
-51.674126
-51.6636
-51.667929
-51.978115
-58.356005
-54.254355
-52.727992
-58.45826
-50.824884
-51.674126
-51.711429
-51.701318
-51.713072
-52.035999
-58.421071
-54.281928
-52.722018
-58.450573
-50.810069
-51.6636
-51.701318
-51.690043
-51.701576
-52.026023
-58.416566
-54.276281
-52.757226
-58.497369
-50.806073
-51.667929
-51.713072
-51.701576
-51.7128
-52.03809
-58.434359
-54.308219
-53.113141
-59.119481
-51.182325
-51.978115
-52.035999
-52.026023
-52.03809
-52.370639
-58.804168
-54.841536
-55.914745
-65.376364
-57.798075
-58.356005
-58.421071
-58.416566
-58.434359
-58.804168
-65.476593
-63.399612
-51.731488
-58.401011
-54.047306
-54.254355
-54.281928
-54.276281
-54.308219
-54.841536
-63.399612
-48.431503
-39.285923
-55.81224
-43.749652
-44.859637
-44.921903
-44.915358
-44.950718
-45.314843
-48.203282
-43.989851
-55.81224
-56.974234
-49.638484
-50.547556
-50.591483
-50.583096
-50.629522
-51.261753
-57.687334
-50.670733
-43.749652
-49.638484
-41.996443
-42.861636
-42.900207
-42.884646
-42.879452
-43.259259
-50.048078
-46.295382
-44.859637
-50.547556
-42.861636
-43.720218
-43.75858
-43.747414
-43.7509
-44.063362
-50.61066
-46.503075
-44.921903
-50.591483
-42.900207
-43.75858
-43.79627
-43.785518
-43.7966
-44.121973
-50.676445
-46.530503
-44.915358
-50.583096
-42.884646
-43.747414
-43.785518
-43.773578
-43.78445
-44.111386
-50.671456
-46.524273
-44.950718
-50.629522
-42.879452
-43.7509
-43.7966
-43.78445
-43.795016
-44.122817
-50.688743
-46.555958
-45.314843
-51.261753
-43.259259
-44.063362
-44.121973
-44.111386
-44.122817
-44.458025
-51.06208
-47.097375
-48.203282
-57.687334
-50.048078
-50.61066
-50.676445
-50.671456
-50.688743
-51.06208
-57.911824
-55.910806
-43.989851
-50.670733
-46.295382
-46.503075
-46.530503
-46.524273
-46.555958
-47.097375
-55.910806
-40.611014
-34.179897
-50.566935
-38.496725
-39.610524
-39.673153
-39.666084
-39.701364
-40.071259
-43.026935
-38.813657
-50.566935
-51.631017
-44.286747
-45.199741
-45.243875
-45.234847
-45.280603
-45.918748
-52.469743
-45.462498
-38.496725
-44.286747
-36.637321
-37.506208
-37.544942
-37.528744
-37.522391
-37.90321
-44.819344
-41.093799
-39.610524
-45.199741
-37.506208
-38.368422
-38.406945
-38.395216
-38.397843
-38.710486
-45.383006
-41.300836
-39.673153
-45.243875
-37.544942
-38.406945
-38.444781
-38.433464
-38.443809
-38.769452
-45.449096
-41.327955
-39.666084
-45.234847
-37.528744
-38.395216
-38.433464
-38.420943
-38.431092
-38.75833
-45.443664
-41.321193
-39.701364
-45.280603
-37.522391
-38.397843
-38.443809
-38.431092
-38.440938
-38.769058
-45.460341
-41.352425
-40.071259
-45.918748
-37.90321
-38.710486
-38.769452
-38.75833
-38.769058
-39.104684
-45.834712
-41.898321
-43.026935
-52.469743
-44.819344
-45.383006
-45.449096
-45.443664
-45.460341
-45.834712
-52.815573
-50.907731
-38.813657
-45.462497
-41.093799
-41.300836
-41.327955
-41.321193
-41.352425
-41.898321
-50.907731
-35.384356
-31.587861
-47.731824
-35.730919
-36.841473
-36.904074
-36.896537
-36.931515
-37.304743
-40.307932
-36.123819
-47.731824
-48.691172
-41.385343
-42.296469
-42.340535
-42.330935
-42.375734
-43.015627
-49.648648
-42.698864
-35.730919
-41.385343
-33.777411
-34.64448
-34.68314
-34.666419
-34.658958
-35.038302
-42.035966
-38.364492
-36.841473
-42.296469
-34.64448
-35.504857
-35.543301
-35.531096
-35.53286
-35.843639
-42.597156
-38.569585
-36.904074
-42.340535
-34.68314
-35.543301
-35.581052
-35.569253
-35.578807
-35.902593
-42.663141
-38.596235
-36.896537
-42.330935
-34.666418
-35.531096
-35.569253
-35.556243
-35.565614
-35.891019
-42.657314
-38.588998
-36.931515
-42.375734
-34.658958
-35.53286
-35.578807
-35.565614
-35.57469
-35.900987
-42.673284
-38.619587
-37.304743
-43.015627
-35.038302
-35.843639
-35.902593
-35.891019
-35.900987
-36.234841
-43.046243
-39.166379
-40.307932
-49.648648
-42.035966
-42.597156
-42.663141
-42.657314
-42.673284
-43.046243
-50.111965
-48.312051
-36.123819
-42.698864
-38.364492
-38.569585
-38.596235
-38.588998
-38.619587
-39.166379
-48.312051
-32.67114
-31.416691
-47.218986
-35.36235
-36.462686
-36.524878
-36.516933
-36.551395
-36.925536
-39.956522
-35.82911
-47.218986
-48.069061
-40.847318
-41.750856
-41.79459
-41.784493
-41.828064
-42.465598
-49.137438
-42.290474
-35.36235
-40.847318
-33.328414
-34.188222
-34.226577
-34.209453
-34.20095
-34.576399
-41.610072
-38.017313
-36.462686
-41.750856
-34.188222
-35.041362
-35.079499
-35.066908
-35.067812
-35.374747
-42.165285
-38.219193
-36.524878
-41.79459
-34.226577
-35.079499
-35.116939
-35.104746
-35.113463
-35.43333
-42.230762
-38.245222
-36.516933
-41.784493
-34.209453
-35.066908
-35.104746
-35.091342
-35.099891
-35.421389
-42.224588
-38.237568
-36.551395
-41.828064
-34.20095
-35.067812
-35.113463
-35.099891
-35.108153
-35.430549
-42.239764
-38.267332
-36.925536
-42.465598
-34.576399
-35.374747
-35.43333
-35.421389
-35.430549
-35.760503
-42.608931
-38.811502
-39.956522
-49.137438
-41.610072
-42.165285
-42.230762
-42.224588
-42.239764
-42.608931
-49.713501
-48.033772
-35.82911
-42.290474
-38.017313
-38.219193
-38.245222
-38.237568
-38.267332
-38.811502
-48.033772
-32.378678
-33.562019
-48.929737
-37.289938
-38.373209
-38.434623
-38.426335
-38.460073
-38.83274
-41.87194
-37.827155
-48.929737
-49.668234
-42.574642
-43.464982
-43.508127
-43.497612
-43.539699
-44.170855
-50.838765
-44.137019
-37.289938
-42.574642
-35.190684
-36.037892
-36.07572
-36.058316
-36.048844
-36.418062
-43.44278
-39.951008
-38.373209
-43.464982
-36.037892
-36.878495
-36.916104
-36.903222
-36.903279
-37.204463
-43.988574
-40.148432
-38.434623
-43.508127
-36.07572
-36.916104
-36.953016
-36.94052
-36.948363
-37.262323
-44.053148
-40.173692
-38.426335
-43.497612
-36.058316
-36.903222
-36.94052
-36.926822
-36.934512
-37.250105
-44.046681
-40.165683
-38.460073
-43.539699
-36.048844
-36.903279
-36.948363
-36.934512
-36.941925
-37.258415
-44.060983
-40.194449
-38.83274
-44.170855
-36.418062
-37.204463
-37.262323
-37.250105
-37.258415
-37.582415
-44.424051
-40.732561
-41.87194
-50.838765
-43.44278
-43.988574
-44.053148
-44.046681
-44.060983
-44.424051
-51.521996
-49.972206
-37.827155
-44.137019
-39.951008
-40.148432
-40.173692
-40.165683
-40.194449
-40.732561
-49.972206
-34.402988
-37.909283
-52.755621
-41.40242
-42.461949
-42.522227
-42.513665
-42.546482
-42.915336
-45.943426
-42.005459
-52.755621
-53.382398
-46.459199
-47.33087
-47.373182
-47.362331
-47.402694
-48.023564
-54.645521
-48.128246
-41.40242
-46.459199
-39.254234
-40.083638
-40.120725
-40.103168
-40.092812
-40.453557
-47.425187
-44.054234
-42.461949
-47.33087
-40.083638
-40.906542
-40.943409
-40.930332
-40.929562
-41.223174
-47.95821
-44.245995
-42.522227
-47.373182
-40.120725
-40.943409
-40.979584
-40.96688
-40.97382
-41.279969
-48.021495
-44.270345
-42.513665
-47.362331
-40.103168
-40.930332
-40.96688
-40.952987
-40.959791
-41.267565
-48.014787
-44.262045
-42.546482
-47.402694
-40.092812
-40.929562
-40.97382
-40.959791
-40.966328
-41.274992
-48.028143
-44.289649
-42.915336
-48.023564
-40.453557
-41.223174
-41.279969
-41.267565
-41.274992
-41.59107
-48.382896
-44.818369
-45.943426
-54.645521
-47.425187
-47.95821
-48.021495
-48.014787
-48.028143
-48.382896
-55.429566
-54.016982
-42.005459
-48.128246
-44.054234
-44.245995
-44.270345
-44.262045
-44.289649
-44.818369
-54.016982
-38.629857
-44.334815
-58.579436
-47.579412
-48.608733
-48.667531
-48.658766
-48.690474
-49.053238
-52.051274
-48.242483
-58.579436
-59.096419
-52.383816
-53.231522
-53.272764
-53.261665
-53.300081
-53.90689
-60.441849
-54.145008
-47.579412
-52.383816
-45.399787
-46.20635
-46.242494
-46.22491
-46.213762
-46.5639
-53.439408
-50.206628
-48.608733
-53.231522
-46.20635
-47.006556
-47.042479
-47.029305
-47.027737
-47.312047
-53.956412
-50.391558
-48.667531
-53.272764
-46.242494
-47.042479
-47.077718
-47.0649
-47.070916
-47.367449
-54.018035
-50.414861
-48.658766
-53.261665
-46.22491
-47.029305
-47.0649
-47.050914
-47.056811
-47.354949
-54.011142
-50.406335
-48.690474
-53.300081
-46.213762
-47.027737
-47.070916
-47.056811
-47.062454
-47.361467
-54.023489
-50.432626
-49.053238
-53.90689
-46.5639
-47.312047
-47.367449
-47.354949
-47.361467
-47.667753
-54.367812
-50.948743
-52.051274
-60.441849
-53.439408
-53.956412
-54.018035
-54.011142
-54.023489
-54.367812
-61.319645
-60.049091
-48.242483
-54.145008
-50.206628
-50.391558
-50.414861
-50.406335
-50.432626
-50.948743
-60.049091
-44.935931
-52.706962
-66.276292
-55.692501
-56.685394
-56.742385
-56.73349
-56.763915
-57.118385
-60.067915
-56.408744
-66.276292
-66.687364
-60.223316
-61.041966
-61.081916
-61.070658
-61.106924
-61.696051
-68.10419
-62.060343
-55.692501
-60.223316
-53.499859
-54.278737
-54.313745
-54.296264
-54.284425
-54.621939
-61.359639
-58.27989
-56.685394
-61.041966
-54.278737
-55.051441
-55.086228
-55.073056
-55.070725
-55.34411
-61.857503
-58.456868
-56.742385
-61.081916
-54.313745
-55.086228
-55.120343
-55.107507
-55.112589
-55.397802
-61.917104
-58.478999
-56.73349
-61.070658
-54.296264
-55.073056
-55.107507
-55.093532
-55.098511
-55.3853
-61.910083
-58.470312
-56.763915
-61.106924
-54.284425
-55.070725
-55.112589
-55.098511
-55.103247
-55.390892
-61.921365
-58.495149
-57.118385
-61.696051
-54.621939
-55.34411
-55.397802
-55.3853
-55.390892
-55.68562
-62.253258
-58.995594
-60.067915
-68.10419
-61.359639
-61.857503
-61.917104
-61.910083
-61.921365
-62.253258
-69.068036
-67.941955
-56.408744
-62.060343
-58.27989
-58.456868
-58.478999
-58.470312
-58.495149
-58.995594
-67.941955
-53.189844
-62.887218
-75.71468
-65.606345
-66.556875
-66.611749
-66.602801
-66.63178
-66.975843
-69.859013
-66.367931
-75.71468
-76.025554
-69.845605
-70.63034
-70.66879
-70.657465
-70.691396
-71.259398
-77.50234
-71.740565
-65.606345
-69.845605
-63.419853
-64.166428
-64.200121
-64.182871
-64.170449
-64.493454
-71.053238
-68.138891
-66.556875
-70.63034
-64.166428
-64.907046
-64.940518
-64.927448
-64.924399
-65.185345
-71.528986
-68.306853
-66.611749
-70.66879
-64.200121
-64.940518
-64.973334
-64.960578
-64.964722
-65.237028
-71.586223
-68.327693
-66.602801
-70.657465
-64.182871
-64.927448
-64.960578
-64.946718
-64.950775
-65.224617
-71.579131
-68.318914
-66.63178
-70.691396
-64.170449
-64.924399
-64.964722
-64.950775
-64.954602
-65.229274
-71.589305
-68.34217
-66.975843
-71.259398
-64.493454
-65.185345
-65.237028
-65.224617
-65.229274
-65.510795
-71.90689
-68.82403
-69.859013
-77.50234
-71.053238
-71.528986
-71.586223
-71.579131
-71.589305
-71.90689
-78.543975
-77.56252
-66.367931
-71.740565
-68.138891
-68.306853
-68.327693
-68.318914
-68.34217
-68.82403
-77.56252
-63.253355
-74.731372
-86.757555
-77.179798
-78.082345
-78.134814
-78.125892
-78.153276
-78.484918
-81.284578
-77.978034
-86.757555
-86.975634
-81.112754
-81.858975
-81.895732
-81.884434
-81.91587
-82.459496
-88.500521
-83.04637
-77.179798
-81.112754
-75.01918
-75.729081
-75.761293
-75.744403
-75.731514
-76.038261
-82.381823
-79.642793
-78.082345
-81.858975
-75.729081
-76.433275
-76.465268
-76.452402
-76.448686
-76.695798
-82.832637
-79.800735
-78.134814
-81.895732
-75.761293
-76.465268
-76.496623
-76.484046
-76.487259
-76.745191
-82.887189
-79.820177
-78.125892
-81.884434
-75.744403
-76.452402
-76.484046
-76.470405
-76.473547
-76.732967
-82.880087
-79.811376
-78.153276
-81.91587
-75.731514
-76.448686
-76.487259
-76.473547
-76.476473
-76.736689
-82.889118
-79.832937
-78.484918
-82.459496
-76.038261
-76.695798
-76.745191
-76.732967
-76.736689
-77.003478
-83.190651
-80.293475
-81.284578
-88.500521
-82.381823
-82.832637
-82.887189
-82.880087
-82.889118
-83.190651
-89.611208
-88.772345
-77.978034
-83.04637
-79.642793
-79.800735
-79.820177
-79.811376
-79.832937
-80.293475
-88.772345
-74.982496
-88.090643
-99.263418
-90.267019
-91.116309
-91.166107
-91.157293
-91.182953
-91.500273
-94.200063
-91.092461
-99.263418
-99.397636
-93.882089
-94.585485
-94.620373
-94.6092
-94.638002
-95.15421
-100.95845
-95.833934
-90.267019
-93.882089
-88.152364
-88.821491
-88.852075
-88.835674
-88.822443
-89.111329
-95.202358
-92.646159
-91.116309
-94.585485
-88.821491
-89.485197
-89.51556
-89.503002
-89.498679
-89.730687
-95.625599
-92.793145
-91.166107
-94.620373
-88.852075
-89.51556
-89.545308
-89.533011
-89.535311
-89.777531
-95.677164
-92.811094
-91.157293
-94.6092
-88.835674
-89.503002
-89.533011
-89.519696
-89.52194
-89.765588
-95.670115
-92.802341
-91.182953
-94.638002
-88.822443
-89.498679
-89.535311
-89.52194
-89.52398
-89.768386
-95.67798
-92.822111
-91.500273
-95.15421
-89.111329
-89.730687
-89.777531
-89.765588
-89.768386
-90.019048
-95.961858