/*--------------------------------*- C++ -*----------------------------------*\
| =========                 |                                                 |
| \\      /  F ield         | OpenFOAM: The Open Source CFD Toolbox           |
|  \\    /   O peration     | Version:  v2106                                 |
|   \\  /    A nd           | Website:  www.openfoam.com                      |
|    \\/     M anipulation  |                                                 |
\*---------------------------------------------------------------------------*/
FoamFile
{
    version     2.0;
    format      ascii;
    arch        "LSB;label=32;scalar=64";
    class       volScalarField;
    location    "40";
    object      T;
}
// * * * * * * * * * * * * * * * * * * * * * * * * * * * * * * * * * * * * * //

dimensions      [0 0 0 1 0 0 0];

internalField   nonuniform List<scalar> 
4000
(
275.02327
275.0233
275.02328
275.02327
275.02327
275.02327
275.02327
275.02327
275.02327
275.02327
275.0233
275.02331
275.02329
275.02328
275.02328
275.02328
275.02328
275.02328
275.02329
275.02329
275.02328
275.02329
275.02327
275.02326
275.02326
275.02326
275.02326
275.02327
275.02327
275.02328
275.02327
275.02328
275.02326
275.02326
275.02325
275.02325
275.02326
275.02326
275.02327
275.02327
275.02327
275.02328
275.02326
275.02325
275.02325
275.02325
275.02325
275.02326
275.02326
275.02327
275.02327
275.02328
275.02326
275.02325
275.02325
275.02325
275.02325
275.02326
275.02327
275.02327
275.02327
275.02328
275.02326
275.02326
275.02325
275.02325
275.02326
275.02326
275.02327
275.02327
275.02327
275.02328
275.02327
275.02326
275.02326
275.02326
275.02326
275.02327
275.02328
275.02328
275.02327
275.02329
275.02327
275.02327
275.02326
275.02327
275.02327
275.02328
275.02328
275.02329
275.02327
275.02329
275.02328
275.02327
275.02327
275.02327
275.02327
275.02328
275.02329
275.02329
282.93391
282.93404
282.93396
282.93392
282.9339
282.93389
282.9339
282.93391
282.93392
282.93391
282.93404
282.93408
282.934
282.93396
282.93394
282.93393
282.93394
282.93396
282.93398
282.93397
282.93396
282.934
282.93392
282.93388
282.93386
282.93386
282.93387
282.93389
282.93392
282.93392
282.93392
282.93396
282.93388
282.93384
282.93383
282.93382
282.93384
282.93386
282.93389
282.9339
282.9339
282.93394
282.93386
282.93383
282.93381
282.93381
282.93382
282.93385
282.93389
282.9339
282.93389
282.93393
282.93386
282.93382
282.93381
282.93381
282.93383
282.93386
282.93389
282.9339
282.9339
282.93394
282.93387
282.93384
282.93382
282.93383
282.93384
282.93387
282.93391
282.93392
282.93391
282.93396
282.93389
282.93386
282.93385
282.93386
282.93387
282.9339
282.93394
282.93395
282.93392
282.93398
282.93392
282.93389
282.93389
282.93389
282.93391
282.93394
282.93397
282.93398
282.93391
282.93397
282.93392
282.9339
282.9339
282.9339
282.93392
282.93395
282.93398
282.93398
290.80067
290.80084
290.80071
290.80064
290.8006
290.80059
290.80061
290.80063
290.80065
290.80062
290.80084
290.80088
290.80076
290.80069
290.80066
290.80065
290.80066
290.8007
290.80074
290.80071
290.80071
290.80076
290.80063
290.80057
290.80053
290.80053
290.80055
290.80059
290.80065
290.80064
290.80064
290.80069
290.80057
290.8005
290.80047
290.80047
290.8005
290.80055
290.80061
290.80061
290.8006
290.80066
290.80053
290.80047
290.80045
290.80045
290.80048
290.80053
290.8006
290.8006
290.80059
290.80065
290.80053
290.80047
290.80045
290.80045
290.80048
290.80054
290.80061
290.80061
290.80061
290.80066
290.80055
290.8005
290.80048
290.80048
290.80052
290.80057
290.80064
290.80065
290.80063
290.8007
290.80059
290.80055
290.80053
290.80054
290.80057
290.80063
290.8007
290.8007
290.80065
290.80074
290.80065
290.80061
290.8006
290.80061
290.80064
290.8007
290.80077
290.80076
290.80062
290.80071
290.80064
290.80061
290.8006
290.80061
290.80065
290.8007
290.80076
290.80073
298.62778
298.62799
298.62781
298.62772
298.62767
298.62766
298.62768
298.62772
298.62776
298.62772
298.62799
298.62804
298.62787
298.62778
298.62773
298.62772
298.62775
298.62781
298.62788
298.62783
298.62781
298.62787
298.6277
298.62761
298.62757
298.62757
298.6276
298.62767
298.62776
298.62775
298.62772
298.62778
298.62761
298.62753
298.62749
298.62749
298.62753
298.62761
298.62771
298.6277
298.62767
298.62773
298.62757
298.62749
298.62745
298.62746
298.6275
298.62758
298.62769
298.62769
298.62766
298.62772
298.62757
298.62749
298.62746
298.62747
298.62752
298.6276
298.62771
298.62771
298.62768
298.62775
298.6276
298.62753
298.6275
298.62752
298.62757
298.62765
298.62776
298.62776
298.62772
298.62781
298.62767
298.62761
298.62758
298.6276
298.62765
298.62774
298.62785
298.62785
298.62776
298.62788
298.62776
298.62771
298.62769
298.62771
298.62776
298.62785
298.62795
298.62794
298.62772
298.62783
298.62775
298.6277
298.62769
298.62771
298.62776
298.62785
298.62794
298.62787
306.41936
306.41961
306.41938
306.41927
306.41922
306.41921
306.41924
306.4193
306.41936
306.4193
306.41961
306.41966
306.41945
306.41934
306.41928
306.41928
306.41932
306.4194
306.4195
306.41943
306.41938
306.41945
306.41924
306.41914
306.41908
306.41908
306.41913
306.41923
306.41936
306.41934
306.41927
306.41934
306.41914
306.41903
306.41899
306.41899
306.41905
306.41915
306.41929
306.41928
306.41922
306.41928
306.41908
306.41899
306.41894
306.41895
306.41902
306.41913
306.41928
306.41927
306.41921
306.41928
306.41908
306.41899
306.41895
306.41897
306.41904
306.41915
306.41931
306.4193
306.41924
306.41932
306.41913
306.41905
306.41902
306.41904
306.41911
306.41923
306.41938
306.41938
306.4193
306.4194
306.41923
306.41915
306.41913
306.41915
306.41923
306.41935
306.4195
306.41949
306.41936
306.4195
306.41936
306.41929
306.41928
306.41931
306.41938
306.4195
306.41964
306.41962
306.4193
306.41943
306.41934
306.41928
306.41927
306.4193
306.41938
306.41949
306.41962
306.41951
314.17931
314.17959
314.17933
314.1792
314.17913
314.17913
314.17917
314.17925
314.17933
314.17927
314.17959
314.17964
314.1794
314.17927
314.17921
314.1792
314.17926
314.17936
314.17949
314.17942
314.17933
314.1794
314.17916
314.17903
314.17897
314.17898
314.17904
314.17916
314.17933
314.17931
314.1792
314.17927
314.17903
314.17891
314.17886
314.17887
314.17894
314.17908
314.17926
314.17925
314.17913
314.17921
314.17897
314.17886
314.17881
314.17883
314.17891
314.17906
314.17925
314.17924
314.17913
314.1792
314.17898
314.17887
314.17883
314.17885
314.17894
314.17909
314.17929
314.17929
314.17917
314.17926
314.17904
314.17894
314.17891
314.17894
314.17903
314.17919
314.17938
314.17938
314.17925
314.17936
314.17916
314.17908
314.17906
314.17909
314.17919
314.17934
314.17953
314.17953
314.17933
314.17949
314.17933
314.17926
314.17925
314.17929
314.17938
314.17953
314.17972
314.1797
314.17927
314.17942
314.17931
314.17925
314.17924
314.17929
314.17938
314.17953
314.1797
314.17955
321.9113
321.9116
321.91131
321.91116
321.91109
321.91109
321.91115
321.91125
321.91136
321.91128
321.9116
321.91166
321.91138
321.91124
321.91117
321.91117
321.91124
321.91137
321.91154
321.91145
321.91131
321.91138
321.91111
321.91097
321.9109
321.91091
321.911
321.91115
321.91136
321.91133
321.91116
321.91124
321.91097
321.91083
321.91078
321.91079
321.91089
321.91105
321.91128
321.91127
321.91109
321.91117
321.9109
321.91078
321.91073
321.91075
321.91085
321.91103
321.91127
321.91126
321.91109
321.91117
321.91091
321.91079
321.91075
321.91079
321.91089
321.91108
321.91132
321.91132
321.91115
321.91124
321.911
321.91089
321.91085
321.91089
321.91101
321.91119
321.91144
321.91144
321.91125
321.91137
321.91115
321.91105
321.91103
321.91108
321.91119
321.91138
321.91162
321.91162
321.91136
321.91154
321.91136
321.91128
321.91127
321.91132
321.91144
321.91162
321.91185
321.91182
321.91128
321.91145
321.91133
321.91127
321.91126
321.91132
321.91144
321.91162
321.91182
321.91164
329.61876
329.61908
329.61876
329.61859
329.61852
329.61852
329.61859
329.61872
329.61885
329.61877
329.61908
329.61914
329.61883
329.61867
329.6186
329.61861
329.61869
329.61885
329.61905
329.61896
329.61876
329.61883
329.61853
329.61837
329.61831
329.61832
329.61842
329.6186
329.61885
329.61883
329.61859
329.61867
329.61837
329.61822
329.61816
329.61819
329.6183
329.6185
329.61877
329.61876
329.61852
329.6186
329.61831
329.61816
329.61811
329.61815
329.61827
329.61848
329.61876
329.61876
329.61852
329.61861
329.61832
329.61819
329.61815
329.61819
329.61832
329.61854
329.61882
329.61883
329.61859
329.61869
329.61842
329.6183
329.61827
329.61832
329.61846
329.61868
329.61897
329.61897
329.61872
329.61885
329.6186
329.6185
329.61848
329.61854
329.61868
329.6189
329.61918
329.61918
329.61885
329.61905
329.61885
329.61877
329.61876
329.61882
329.61897
329.61918
329.61945
329.61942
329.61877
329.61896
329.61883
329.61876
329.61876
329.61883
329.61897
329.61918
329.61942
329.61922
337.30486
337.30521
337.30485
337.30467
337.30459
337.3046
337.30469
337.30484
337.305
337.30491
337.30521
337.30527
337.30493
337.30475
337.30468
337.30469
337.30479
337.30498
337.30521
337.30512
337.30485
337.30493
337.30459
337.30443
337.30436
337.30438
337.3045
337.30471
337.305
337.30497
337.30467
337.30475
337.30443
337.30426
337.3042
337.30424
337.30437
337.3046
337.30491
337.30491
337.30459
337.30468
337.30436
337.3042
337.30415
337.3042
337.30434
337.30458
337.3049
337.30491
337.3046
337.30469
337.30438
337.30424
337.3042
337.30425
337.3044
337.30465
337.30498
337.30499
337.30469
337.30479
337.3045
337.30437
337.30434
337.3044
337.30456
337.30481
337.30514
337.30515
337.30484
337.30498
337.30471
337.3046
337.30458
337.30465
337.30481
337.30507
337.3054
337.3054
337.305
337.30521
337.305
337.30491
337.3049
337.30498
337.30514
337.3054
337.30571
337.30568
337.30491
337.30512
337.30497
337.30491
337.30491
337.30499
337.30515
337.3054
337.30568
337.30545
344.97254
344.9729
344.97251
344.97232
344.97224
344.97225
344.97236
344.97253
344.97271
344.97263
344.9729
344.97295
344.97259
344.9724
344.97232
344.97235
344.97247
344.97268
344.97294
344.97284
344.97251
344.97259
344.97223
344.97205
344.97198
344.97201
344.97215
344.97239
344.97271
344.97269
344.97232
344.9724
344.97205
344.97188
344.97182
344.97186
344.97201
344.97227
344.97262
344.97262
344.97224
344.97232
344.97198
344.97182
344.97176
344.97182
344.97198
344.97226
344.97262
344.97263
344.97225
344.97235
344.97201
344.97186
344.97182
344.97188
344.97206
344.97234
344.97271
344.97273
344.97236
344.97247
344.97215
344.97201
344.97198
344.97206
344.97224
344.97252
344.9729
344.97291
344.97253
344.97268
344.97239
344.97227
344.97226
344.97234
344.97252
344.97281
344.97318
344.97319
344.97271
344.97294
344.97271
344.97262
344.97262
344.97271
344.9729
344.97318
344.97353
344.97351
344.97263
344.97284
344.97269
344.97262
344.97263
344.97273
344.97291
344.97319
344.97351
344.97325
352.62444
352.62481
352.6244
352.6242
352.62411
352.62414
352.62425
352.62445
352.62466
352.62457
352.62481
352.62487
352.62447
352.62428
352.6242
352.62423
352.62436
352.6246
352.6249
352.6248
352.6244
352.62447
352.62409
352.6239
352.62383
352.62387
352.62403
352.62429
352.62465
352.62464
352.6242
352.62428
352.6239
352.62372
352.62366
352.62371
352.62388
352.62417
352.62456
352.62457
352.62411
352.6242
352.62383
352.62366
352.62361
352.62367
352.62386
352.62416
352.62456
352.62458
352.62414
352.62423
352.62387
352.62371
352.62367
352.62375
352.62394
352.62426
352.62467
352.62469
352.62425
352.62436
352.62403
352.62388
352.62386
352.62394
352.62415
352.62446
352.62488
352.6249
352.62445
352.6246
352.62429
352.62417
352.62416
352.62426
352.62446
352.62478
352.62519
352.62521
352.62466
352.6249
352.62465
352.62456
352.62456
352.62467
352.62488
352.62519
352.62558
352.62556
352.62457
352.6248
352.62464
352.62457
352.62458
352.62469
352.6249
352.62521
352.62556
352.62529
360.26296
360.26335
360.26291
360.2627
360.26261
360.26264
360.26277
360.26299
360.26322
360.26314
360.26335
360.26339
360.26298
360.26278
360.2627
360.26273
360.26288
360.26314
360.26347
360.26337
360.26291
360.26298
360.26258
360.26238
360.26231
360.26236
360.26253
360.26282
360.26322
360.26321
360.2627
360.26278
360.26238
360.26219
360.26213
360.26219
360.26238
360.26269
360.26312
360.26314
360.26261
360.2627
360.26231
360.26213
360.26208
360.26215
360.26236
360.26269
360.26313
360.26316
360.26264
360.26273
360.26236
360.26219
360.26215
360.26224
360.26245
360.2628
360.26324
360.26328
360.26277
360.26288
360.26253
360.26238
360.26236
360.26245
360.26268
360.26302
360.26347
360.26351
360.26299
360.26314
360.26282
360.26269
360.26269
360.2628
360.26302
360.26337
360.26382
360.26384
360.26322
360.26347
360.26322
360.26312
360.26313
360.26324
360.26347
360.26382
360.26424
360.26423
360.26314
360.26337
360.26321
360.26314
360.26316
360.26328
360.26351
360.26384
360.26423
360.26394
367.89022
367.89061
367.89015
367.88994
367.88985
367.88989
367.89003
367.89027
367.89052
367.89045
367.89061
367.89066
367.89022
367.89001
367.88993
367.88998
367.89014
367.89043
367.89078
367.89069
367.89015
367.89022
367.8898
367.8896
367.88953
367.88958
367.88977
367.89009
367.89052
367.89052
367.88994
367.89001
367.8896
367.8894
367.88934
367.88941
367.88962
367.88996
367.89042
367.89044
367.88985
367.88993
367.88953
367.88934
367.88929
367.88938
367.8896
367.88996
367.89043
367.89047
367.88989
367.88998
367.88958
367.88941
367.88938
367.88948
367.88971
367.89008
367.89056
367.8906
367.89003
367.89014
367.88977
367.88962
367.8896
367.88971
367.88995
367.89032
367.89081
367.89085
367.89027
367.89043
367.89009
367.88996
367.88996
367.89008
367.89032
367.8907
367.89118
367.89122
367.89052
367.89078
367.89052
367.89042
367.89043
367.89056
367.89081
367.89118
367.89164
367.89164
367.89045
367.89069
367.89052
367.89044
367.89047
367.8906
367.89085
367.89122
367.89164
367.89133
375.50807
375.50847
375.50799
375.50777
375.50768
375.50772
375.50788
375.50814
375.50842
375.50834
375.50847
375.50851
375.50806
375.50784
375.50776
375.50781
375.50799
375.5083
375.50868
375.50859
375.50799
375.50806
375.50762
375.50741
375.50734
375.5074
375.5076
375.50795
375.5084
375.50842
375.50777
375.50784
375.50741
375.5072
375.50715
375.50723
375.50745
375.50781
375.5083
375.50834
375.50768
375.50776
375.50734
375.50715
375.5071
375.5072
375.50743
375.50782
375.50832
375.50837
375.50772
375.50781
375.5074
375.50723
375.5072
375.50731
375.50755
375.50795
375.50847
375.50852
375.50788
375.50799
375.5076
375.50745
375.50743
375.50755
375.50781
375.50821
375.50873
375.50879
375.50814
375.5083
375.50795
375.50781
375.50782
375.50795
375.50821
375.50862
375.50913
375.50918
375.50842
375.50868
375.5084
375.5083
375.50832
375.50847
375.50873
375.50913
375.50962
375.50963
375.50834
375.50859
375.50842
375.50834
375.50837
375.50852
375.50879
375.50918
375.50963
375.50931
383.11809
383.11849
383.11799
383.11776
383.11768
383.11773
383.1179
383.11818
383.11847
383.11841
383.11849
383.11852
383.11806
383.11783
383.11775
383.11781
383.11801
383.11833
383.11874
383.11866
383.11799
383.11806
383.1176
383.11739
383.11732
383.11739
383.11761
383.11797
383.11846
383.11848
383.11776
383.11783
383.11739
383.11718
383.11713
383.11722
383.11745
383.11784
383.11836
383.1184
383.11768
383.11775
383.11732
383.11713
383.11708
383.11719
383.11744
383.11785
383.11838
383.11844
383.11773
383.11781
383.11739
383.11722
383.11719
383.11731
383.11757
383.11799
383.11853
383.1186
383.1179
383.11801
383.11761
383.11745
383.11744
383.11757
383.11785
383.11827
383.11882
383.11889
383.11818
383.11833
383.11797
383.11784
383.11785
383.11799
383.11827
383.1187
383.11924
383.1193
383.11847
383.11874
383.11846
383.11836
383.11838
383.11853
383.11882
383.11924
383.11976
383.11978
383.11841
383.11866
383.11848
383.1184
383.11844
383.1186
383.11889
383.1193
383.11978
383.11946
390.72159
390.72198
390.72148
390.72124
390.72116
390.72122
390.7214
390.72169
390.72201
390.72195
390.72198
390.722
390.72153
390.7213
390.72123
390.72129
390.7215
390.72184
390.72227
390.7222
390.72148
390.72153
390.72107
390.72085
390.72078
390.72086
390.72109
390.72148
390.72199
390.72202
390.72124
390.7213
390.72085
390.72064
390.72059
390.72068
390.72093
390.72134
390.72188
390.72194
390.72116
390.72123
390.72078
390.72059
390.72055
390.72066
390.72093
390.72135
390.72192
390.72199
390.72122
390.72129
390.72086
390.72068
390.72066
390.72079
390.72107
390.72151
390.72208
390.72215
390.7214
390.7215
390.72109
390.72093
390.72093
390.72107
390.72136
390.7218
390.72238
390.72245
390.72169
390.72184
390.72148
390.72134
390.72135
390.72151
390.7218
390.72225
390.72282
390.72289
390.72201
390.72227
390.72199
390.72188
390.72192
390.72208
390.72238
390.72282
390.72337
390.72339
390.72195
390.7222
390.72202
390.72194
390.72199
390.72215
390.72245
390.72289
390.72339
390.72307
398.3196
398.31999
398.31947
398.31924
398.31916
398.31922
398.31942
398.31972
398.32005
398.32
398.31999
398.32
398.31952
398.31929
398.31922
398.31929
398.31951
398.31987
398.32032
398.32025
398.31947
398.31952
398.31905
398.31883
398.31877
398.31886
398.3191
398.3195
398.32003
398.32007
398.31924
398.31929
398.31883
398.31862
398.31857
398.31868
398.31894
398.31936
398.31993
398.32
398.31916
398.31922
398.31877
398.31857
398.31854
398.31866
398.31894
398.31938
398.31997
398.32005
398.31922
398.31929
398.31886
398.31868
398.31866
398.31879
398.31909
398.31954
398.32014
398.32022
398.31942
398.31951
398.3191
398.31894
398.31894
398.31909
398.31939
398.31985
398.32045
398.32054
398.31972
398.31987
398.3195
398.31936
398.31938
398.31954
398.31985
398.32032
398.32091
398.32099
398.32005
398.32032
398.32003
398.31993
398.31997
398.32014
398.32045
398.32091
398.32148
398.32151
398.32
398.32025
398.32007
398.32
398.32005
398.32022
398.32054
398.32099
398.32151
398.32119
405.91292
405.91329
405.91278
405.91254
405.91246
405.91253
405.91274
405.91306
405.9134
405.91336
405.91329
405.9133
405.91282
405.91259
405.91252
405.9126
405.91282
405.9132
405.91366
405.9136
405.91278
405.91282
405.91234
405.91212
405.91206
405.91216
405.91241
405.91282
405.91337
405.91342
405.91254
405.91259
405.91212
405.91191
405.91187
405.91198
405.91225
405.91269
405.91327
405.91335
405.91246
405.91252
405.91206
405.91187
405.91184
405.91196
405.91225
405.91271
405.91331
405.91341
405.91253
405.9126
405.91216
405.91198
405.91196
405.91211
405.91241
405.91288
405.91349
405.91359
405.91274
405.91282
405.91241
405.91225
405.91225
405.91241
405.91273
405.9132
405.91382
405.91392
405.91306
405.9132
405.91282
405.91269
405.91271
405.91288
405.9132
405.91368
405.91429
405.91438
405.9134
405.91366
405.91337
405.91327
405.91331
405.91349
405.91382
405.91429
405.91489
405.91493
405.91336
405.9136
405.91342
405.91335
405.91341
405.91359
405.91392
405.91438
405.91493
405.91461
413.50206
413.50243
413.50191
413.50167
413.5016
413.50167
413.50189
413.50222
413.50257
413.50254
413.50243
413.50243
413.50194
413.50171
413.50165
413.50173
413.50197
413.50235
413.50283
413.50278
413.50191
413.50194
413.50147
413.50125
413.50119
413.50129
413.50155
413.50198
413.50254
413.5026
413.50167
413.50171
413.50125
413.50104
413.501
413.50112
413.5014
413.50185
413.50245
413.50253
413.5016
413.50165
413.50119
413.501
413.50097
413.5011
413.5014
413.50187
413.50249
413.50259
413.50167
413.50173
413.50129
413.50112
413.5011
413.50125
413.50157
413.50205
413.50268
413.50279
413.50189
413.50197
413.50155
413.5014
413.5014
413.50157
413.50189
413.50238
413.50301
413.50312
413.50222
413.50235
413.50198
413.50185
413.50187
413.50205
413.50238
413.50287
413.5035
413.5036
413.50257
413.50283
413.50254
413.50245
413.50249
413.50268
413.50301
413.5035
413.50411
413.50416
413.50254
413.50278
413.5026
413.50253
413.50259
413.50279
413.50312
413.5036
413.50416
413.50384
421.08731
421.08767
421.08715
421.08692
421.08685
421.08693
421.08715
421.08749
421.08785
421.08783
421.08767
421.08766
421.08718
421.08695
421.08689
421.08698
421.08722
421.08761
421.0881
421.08806
421.08715
421.08718
421.08671
421.08649
421.08644
421.08654
421.08681
421.08724
421.08782
421.08789
421.08692
421.08695
421.08649
421.08628
421.08624
421.08637
421.08666
421.08712
421.08772
421.08782
421.08685
421.08689
421.08644
421.08624
421.08622
421.08636
421.08667
421.08715
421.08778
421.08789
421.08693
421.08698
421.08654
421.08637
421.08636
421.08652
421.08684
421.08733
421.08797
421.08809
421.08715
421.08722
421.08681
421.08666
421.08667
421.08684
421.08717
421.08767
421.08831
421.08843
421.08749
421.08761
421.08724
421.08712
421.08715
421.08733
421.08767
421.08817
421.08881
421.08892
421.08785
421.0881
421.08782
421.08772
421.08778
421.08797
421.08831
421.08881
421.08942
421.08949
421.08783
421.08806
421.08789
421.08782
421.08789
421.08809
421.08843
421.08892
421.08949
421.08918
428.66872
428.66906
428.66855
428.66832
428.66825
428.66834
428.66857
428.66891
428.66929
428.66927
428.66906
428.66905
428.66857
428.66834
428.66829
428.66838
428.66863
428.66903
428.66953
428.6695
428.66855
428.66857
428.6681
428.66789
428.66784
428.66795
428.66823
428.66866
428.66924
428.66932
428.66832
428.66834
428.66789
428.66769
428.66765
428.66778
428.66808
428.66854
428.66916
428.66926
428.66825
428.66829
428.66784
428.66765
428.66763
428.66778
428.66809
428.66858
428.66921
428.66933
428.66834
428.66838
428.66795
428.66778
428.66778
428.66794
428.66827
428.66876
428.66941
428.66953
428.66857
428.66863
428.66823
428.66808
428.66809
428.66827
428.6686
428.66911
428.66976
428.66988
428.66891
428.66903
428.66866
428.66854
428.66858
428.66876
428.66911
428.66961
428.67026
428.67038
428.66929
428.66953
428.66924
428.66916
428.66921
428.66941
428.66976
428.67026
428.67088
428.67096
428.66927
428.6695
428.66932
428.66926
428.66933
428.66953
428.66988
428.67038
428.67096
428.67065
436.2461
436.24642
436.24592
436.24569
436.24563
436.24572
436.24595
436.2463
436.24668
436.24667
436.24642
436.2464
436.24593
436.24571
436.24566
436.24576
436.24601
436.24641
436.24691
436.24689
436.24592
436.24593
436.24547
436.24526
436.24522
436.24534
436.24561
436.24605
436.24664
436.24672
436.24569
436.24571
436.24526
436.24507
436.24504
436.24517
436.24547
436.24594
436.24655
436.24667
436.24563
436.24566
436.24522
436.24504
436.24502
436.24517
436.24549
436.24597
436.24661
436.24674
436.24572
436.24576
436.24534
436.24517
436.24517
436.24534
436.24567
436.24617
436.24681
436.24695
436.24595
436.24601
436.24561
436.24547
436.24549
436.24567
436.24601
436.24651
436.24717
436.2473
436.2463
436.24641
436.24605
436.24594
436.24597
436.24617
436.24651
436.24702
436.24767
436.2478
436.24668
436.24691
436.24664
436.24655
436.24661
436.24681
436.24717
436.24767
436.2483
436.24838
436.24667
436.24689
436.24672
436.24667
436.24674
436.24695
436.2473
436.2478
436.24838
436.24809
443.81904
443.81935
443.81885
443.81864
443.81858
443.81868
443.81891
443.81926
443.81964
443.81964
443.81935
443.81932
443.81886
443.81865
443.8186
443.81871
443.81896
443.81936
443.81986
443.81986
443.81885
443.81886
443.81841
443.81821
443.81817
443.81829
443.81857
443.81901
443.8196
443.81969
443.81864
443.81865
443.81821
443.81802
443.818
443.81813
443.81843
443.8189
443.81952
443.81964
443.81858
443.8186
443.81817
443.818
443.81799
443.81814
443.81846
443.81894
443.81958
443.81971
443.81868
443.81871
443.81829
443.81813
443.81814
443.81831
443.81864
443.81914
443.81978
443.81992
443.81891
443.81896
443.81857
443.81843
443.81846
443.81864
443.81898
443.81948
443.82014
443.82028
443.81926
443.81936
443.81901
443.8189
443.81894
443.81914
443.81948
443.81999
443.82064
443.82077
443.81964
443.81986
443.8196
443.81952
443.81958
443.81978
443.82014
443.82064
443.82127
443.82136
443.81964
443.81986
443.81969
443.81964
443.81971
443.81992
443.82028
443.82077
443.82136
443.82108
451.38695
451.38723
451.38676
451.38655
451.3865
451.38659
451.38683
451.38718
451.38756
451.38757
451.38723
451.3872
451.38675
451.38655
451.38651
451.38662
451.38687
451.38727
451.38777
451.38777
451.38676
451.38675
451.38632
451.38613
451.3861
451.38622
451.3865
451.38693
451.38752
451.38761
451.38655
451.38655
451.38613
451.38595
451.38593
451.38607
451.38636
451.38683
451.38744
451.38757
451.3865
451.38651
451.3861
451.38593
451.38592
451.38608
451.38639
451.38688
451.38751
451.38765
451.38659
451.38662
451.38622
451.38607
451.38608
451.38625
451.38657
451.38707
451.38771
451.38786
451.38683
451.38687
451.3865
451.38636
451.38639
451.38657
451.38691
451.38742
451.38806
451.38821
451.38718
451.38727
451.38693
451.38683
451.38688
451.38707
451.38742
451.38792
451.38856
451.3887
451.38756
451.38777
451.38752
451.38744
451.38751
451.38771
451.38806
451.38856
451.38919
451.38928
451.38757
451.38777
451.38761
451.38757
451.38765
451.38786
451.38821
451.3887
451.38928
451.38901
458.94902
458.94928
458.94882
458.94862
458.94858
458.94868
458.94891
458.94926
458.94964
458.94965
458.94928
458.94924
458.94882
458.94862
458.94859
458.9487
458.94895
458.94934
458.94984
458.94985
458.94882
458.94882
458.9484
458.94822
458.94819
458.94831
458.94859
458.94902
458.94959
458.9497
458.94862
458.94862
458.94822
458.94804
458.94803
458.94817
458.94846
458.94892
458.94953
458.94966
458.94858
458.94859
458.94819
458.94803
458.94803
458.94818
458.9485
458.94897
458.94959
458.94974
458.94868
458.9487
458.94831
458.94817
458.94818
458.94835
458.94868
458.94917
458.9498
458.94995
458.94891
458.94895
458.94859
458.94846
458.9485
458.94868
458.94901
458.94951
458.95014
458.95029
458.94926
458.94934
458.94902
458.94892
458.94897
458.94917
458.94951
458.95001
458.95064
458.95078
458.94964
458.94984
458.94959
458.94953
458.94959
458.9498
458.95014
458.95064
458.95125
458.95135
458.94965
458.94985
458.9497
458.94966
458.94974
458.94995
458.95029
458.95078
458.95135
458.9511
466.50427
466.50451
466.50408
466.50389
466.50385
466.50395
466.50418
466.50452
466.5049
466.50492
466.50451
466.50447
466.50406
466.50388
466.50385
466.50396
466.50421
466.5046
466.50509
466.5051
466.50408
466.50406
466.50367
466.50349
466.50347
466.5036
466.50387
466.50429
466.50485
466.50496
466.50389
466.50388
466.50349
466.50333
466.50332
466.50346
466.50375
466.5042
466.50479
466.50493
466.50385
466.50385
466.50347
466.50332
466.50333
466.50348
466.50379
466.50425
466.50486
466.50501
466.50395
466.50396
466.5036
466.50346
466.50348
466.50365
466.50397
466.50445
466.50506
466.50522
466.50418
466.50421
466.50387
466.50375
466.50379
466.50397
466.5043
466.50478
466.5054
466.50556
466.50452
466.5046
466.50429
466.5042
466.50425
466.50445
466.50478
466.50527
466.50589
466.50603
466.5049
466.50509
466.50485
466.50479
466.50486
466.50506
466.5054
466.50589
466.50649
466.5066
466.50492
466.5051
466.50496
466.50493
466.50501
466.50522
466.50556
466.50603
466.5066
466.50636
474.05157
474.05179
474.05138
474.0512
474.05117
474.05127
474.0515
474.05183
474.0522
474.05223
474.05179
474.05175
474.05136
474.05119
474.05116
474.05127
474.05152
474.0519
474.05237
474.0524
474.05138
474.05136
474.05098
474.05082
474.05081
474.05093
474.0512
474.05161
474.05215
474.05227
474.0512
474.05119
474.05082
474.05067
474.05067
474.05081
474.05109
474.05153
474.0521
474.05224
474.05117
474.05116
474.05081
474.05067
474.05068
474.05083
474.05113
474.05158
474.05217
474.05232
474.05127
474.05127
474.05093
474.05081
474.05083
474.05099
474.05131
474.05177
474.05237
474.05252
474.0515
474.05152
474.0512
474.05109
474.05113
474.05131
474.05163
474.0521
474.0527
474.05286
474.05183
474.0519
474.05161
474.05153
474.05158
474.05177
474.0521
474.05257
474.05317
474.05332
474.0522
474.05237
474.05215
474.0521
474.05217
474.05237
474.0527
474.05317
474.05376
474.05387
474.05223
474.0524
474.05227
474.05224
474.05232
474.05252
474.05286
474.05332
474.05387
474.05364
481.58962
481.58981
481.58943
481.58926
481.58924
481.58934
481.58956
481.58989
481.59024
481.59028
481.58981
481.58977
481.58941
481.58925
481.58923
481.58934
481.58958
481.58995
481.59041
481.59044
481.58943
481.58941
481.58905
481.58891
481.5889
481.58902
481.58928
481.58968
481.5902
481.59032
481.58926
481.58925
481.58891
481.58877
481.58877
481.58891
481.58918
481.5896
481.59015
481.59029
481.58924
481.58923
481.5889
481.58877
481.58878
481.58893
481.58922
481.58966
481.59023
481.59038
481.58934
481.58934
481.58902
481.58891
481.58893
481.58909
481.5894
481.58984
481.59042
481.59057
481.58956
481.58958
481.58928
481.58918
481.58922
481.5894
481.58971
481.59016
481.59074
481.5909
481.58989
481.58995
481.58968
481.5896
481.58966
481.58984
481.59016
481.59062
481.5912
481.59134
481.59024
481.59041
481.5902
481.59015
481.59023
481.59042
481.59074
481.5912
481.59176
481.59187
481.59028
481.59044
481.59032
481.59029
481.59038
481.59057
481.5909
481.59134
481.59187
481.59167
489.11698
489.11716
489.1168
489.11665
489.11663
489.11674
489.11695
489.11726
489.11761
489.11764
489.11716
489.11712
489.11678
489.11664
489.11662
489.11673
489.11696
489.11732
489.11775
489.11779
489.1168
489.11678
489.11645
489.11632
489.11631
489.11644
489.11669
489.11707
489.11757
489.11768
489.11665
489.11664
489.11632
489.11619
489.1162
489.11633
489.1166
489.117
489.11753
489.11766
489.11663
489.11662
489.11631
489.1162
489.11622
489.11636
489.11664
489.11706
489.1176
489.11775
489.11674
489.11673
489.11644
489.11633
489.11636
489.11652
489.11681
489.11724
489.11779
489.11794
489.11695
489.11696
489.11669
489.1166
489.11664
489.11681
489.11711
489.11754
489.1181
489.11825
489.11726
489.11732
489.11707
489.117
489.11706
489.11724
489.11754
489.11798
489.11853
489.11868
489.11761
489.11775
489.11757
489.11753
489.1176
489.11779
489.1181
489.11853
489.11907
489.11918
489.11764
489.11779
489.11768
489.11766
489.11775
489.11794
489.11825
489.11868
489.11918
489.11899
496.63213
496.63228
496.63195
496.63182
496.63181
496.63191
496.63211
496.63241
496.63274
496.63278
496.63228
496.63224
496.63193
496.6318
496.63179
496.6319
496.63212
496.63246
496.63287
496.63291
496.63195
496.63193
496.63163
496.63151
496.63151
496.63163
496.63187
496.63223
496.6327
496.63282
496.63182
496.6318
496.63151
496.6314
496.63141
496.63154
496.63179
496.63217
496.63267
496.6328
496.63181
496.63179
496.63151
496.63141