/*--------------------------------*- C++ -*----------------------------------*\
| =========                 |                                                 |
| \\      /  F ield         | OpenFOAM: The Open Source CFD Toolbox           |
|  \\    /   O peration     | Version:  v2106                                 |
|   \\  /    A nd           | Website:  www.openfoam.com                      |
|    \\/     M anipulation  |                                                 |
\*---------------------------------------------------------------------------*/
FoamFile
{
    version     2.0;
    format      ascii;
    arch        "LSB;label=32;scalar=64";
    class       volScalarField;
    location    "30";
    object      gradTy;
}
// * * * * * * * * * * * * * * * * * * * * * * * * * * * * * * * * * * * * * //

dimensions      [0 -1 0 1 0 0 0];

internalField   nonuniform List<scalar> 
30000
(
0.22611819
0.22609796
0.22597315
0.22638771
0.22602356
0.22610095
0.22656327
0.22625487
0.22595586
0.22635384
1.0160821
1.0158622
1.0160602
1.0162684
1.0156764
1.016508
1.0166788
1.0160255
1.0162762
1.0165994
1.6879179
1.6882974
1.6882377
1.6875727
1.688409
1.688418
1.6878161
1.6878815
1.6880069
1.6877535
2.3524865
2.3524041
2.351868
2.3524809
2.3527163
2.3520657
2.3522149
2.3519051
2.3514099
2.3517851
3.0055537
3.0049195
3.005512
3.0056579
3.0050294
3.0053094
3.0052176
3.0049862
3.0053683
3.0057394
3.6427265
3.6433859
3.6435275
3.6427657
3.6429879
3.6427589
3.6426082
3.6431869
3.6438297
3.6440742
4.2629732
4.2631348
4.2623431
4.2626961
4.2624327
4.2620975
4.2623754
4.2628109
4.2633383
4.2634356
4.8598328
4.8589437
4.8592126
4.8590858
4.858846
4.8591863
4.859452
4.8598043
4.8598274
4.859983
5.4269175
5.4272575
5.4272049
5.4267902
5.4272347
5.4276294
5.4280059
5.4281291
5.4282887
5.4289658
5.9636921
5.9638204
5.9632341
5.963691
5.9637238
5.9638963
5.9639257
5.9639657
5.9644027
5.9645668
6.4620541
6.4612826
6.4619312
6.4618621
6.461807
6.4617971
6.461828
6.4618786
6.461639
6.4613626
6.9136732
6.9143779
6.9144982
6.9142284
6.9145946
6.9149668
6.9152588
6.9149058
6.9145954
6.914672
7.3169705
7.3171052
7.3163802
7.3167732
7.3171717
7.3176008
7.3172457
7.3171256
7.3174126
7.3174996
7.6615059
7.6606185
7.6609419
7.6612035
7.6615153
7.6611581
7.6609443
7.6616226
7.6618138
7.6617165
7.938529
7.9390743
7.9393635
7.9395047
7.9394206
7.9391794
7.9398597
7.9401438
7.9399133
7.9398392
8.1442938
8.1445715
8.1442821
8.1443721
8.1442074
8.1448122
8.1449649
8.14444
8.1442834
8.1442626
8.2675963
8.2670703
8.2672948
8.2672415
8.2675801
8.2677649
8.2671533
8.2669727
8.267053
8.2669729
8.2997829
8.3001313
8.3003498
8.3001598
8.3000724
8.2996111
8.2996385
8.2999764
8.299958
8.2997848
8.2355786
8.2360843
8.2354769
8.2347623
8.2342789
8.2344834
8.2350177
8.2351127
8.2349911
8.2349426
8.0663106
8.0659162
8.0649468
8.0644673
8.0648223
8.065426
8.0654761
8.065313
8.0653898
8.0655232
7.7852754
7.784371
7.7842516
7.784897
7.7855646
7.7856188
7.7853478
7.7852926
7.7854716
7.7854985
7.3895228
7.3894884
7.3903019
7.3910103
7.3911218
7.390954
7.3908081
7.3907498
7.3907095
7.3905856
6.8783929
6.879202
6.8796108
6.8796624
6.8796425
6.8796035
6.8794687
6.8792615
6.879082
6.8790106
6.2522503
6.2522519
6.2521663
6.2522116
6.2522525
6.2521491
6.25203
6.251844
6.2516403
6.2515813
5.5135078
5.5130853
5.5133507
5.51344
5.513294
5.5131845
5.5132153
5.5129547
5.5125153
5.5124635
4.6709882
4.6714373
4.6716056
4.6713684
4.671166
4.6710949
4.6709483
4.6703148
4.6697707
4.6699964
3.7378787
3.7383263
3.7379643
3.7376827
3.7375287
3.7371295
3.7365537
3.7358688
3.7357237
3.736151
2.7282796
2.7279313
2.7277079
2.7276434
2.7273044
2.7265668
2.7260708
2.7258478
2.7260457
2.7263981
1.6604027
1.6599895
1.6601392
1.6602078
1.6598063
1.6593006
1.6591191
1.6591791
1.6596161
1.6601758
0.37153212
0.37147088
0.37154502
0.37158385
0.37148567
0.37140931
0.37136627
0.37138566
0.37160076
0.37187499
0.6789196
0.67934337
0.67909562
0.67959691
0.67958347
0.67948356
0.67986674
0.68006641
0.67932554
0.67929499
3.051659
3.051893
3.0520102
3.0530941
3.0525996
3.0534931
3.0536454
3.0531868
3.0529456
3.0530437
5.0714218
5.0716109
5.0723602
5.0718142
5.0727912
5.0731963
5.0721561
5.0717539
5.0723344
5.0726067
7.0679326
7.068267
7.0679593
7.0684621
7.0691008
7.0682547
7.0680851
7.0677504
7.0677469
7.0685976
9.0308413
9.0302491
9.0306362
9.0312702
9.0300997
9.030211
9.0302353
9.0304684
9.031626
9.0323381
10.94904
10.94914
10.949613
10.948247
10.948241
10.947814
10.948048
10.949708
10.95083
10.951218
12.811713
12.812292
12.810986
12.810885
12.810667
12.810308
12.811598
12.812466
12.813311
12.81407
14.605572
14.604502
14.604231
14.604372
14.604265
14.60531
14.606031
14.606682
14.607757
14.608369
16.315689
16.315177
16.315292
16.31503
16.315748
16.316441
16.317
16.31806
16.319001
16.319338
17.929114
17.92977
17.929371
17.929894
17.929751
17.930046
17.930696
17.931306
17.931701
17.931533
19.429264
19.428739
19.429511
19.429256
19.429398
19.430024
19.430282
19.430126
19.429639
19.429559
20.794526
20.794818
20.794732
20.794661
20.796005
20.796585
20.79669
20.796265
20.796044
20.79652
22.008437
22.008515
22.007888
22.009198
22.00975
22.009881
22.009946
22.010269
22.01089
22.01123
23.048727
23.047883
23.048786
23.04899
23.048649
23.048651
23.049263
23.050343
23.050779
23.050932
23.890916
23.891646
23.891543
23.891091
23.891283
23.89172
23.892603
23.892918
23.892903
23.893201
24.514235
24.514039
24.513382
24.513974
24.514415
24.514865
24.514742
24.514324
24.514417
24.514548
24.891072
24.890263
24.89121
24.891442
24.891501
24.891264
24.890777
24.890866
24.890827
24.890486
24.997434
24.998863
24.998816
24.997759
24.997239
24.996925
24.997314
24.997571
24.997069
24.996606
24.812303
24.812546
24.810572
24.809401
24.809003
24.80949
24.81004
24.809844
24.80945
24.809292
24.308864
24.306921
24.305763
24.305723
24.306364
24.30702
24.306929
24.306671
24.30671
24.306743
23.469096
23.468423
23.46906
23.470228
23.471286
23.471354
23.470854
23.470617
23.470705
23.470693
22.285791
22.286584
22.287897
22.289242
22.289774
22.289345
22.288609
22.288236
22.288203
22.288125
20.752257
20.752741
20.753817
20.754556
20.754485
20.753811
20.753207
20.752966
20.752778
20.752527
18.867167
18.867421
18.868056
18.868112
18.8677
18.867358
18.86735
18.86706
18.866322
18.865858
16.643346
16.644025
16.644064
16.643654
16.643447
16.643741
16.64361
16.64251
16.641258
16.641087
14.106293
14.106797
14.106287
14.105951
14.106136
14.106059
14.104649
14.102973
14.102177
14.102653
11.290266
11.289987
11.289744
11.289656
11.289381
11.288016
11.286024
11.285132
11.2851
11.285622
8.2406569
8.2402586
8.2406386
8.2403581
8.2392504
8.2375444
8.2365359
8.23645
8.2365841
8.2375289
5.0161943
5.0160283
5.0164396
5.0162799
5.015307
5.0141791
5.0138917
5.0142876
5.0152368
5.0162828
1.1227902
1.1227336
1.1228166
1.1228787
1.122689
1.1223942
1.1222928
1.1225717
1.1231732
1.1233341
1.1352505
1.1353962
1.1352871
1.1356363
1.1357435
1.1359146
1.1360508
1.1363931
1.1357508
1.1358171
5.1022686
5.1022499
5.1020098
5.1033862
5.1029452
5.1044563
5.1043762
5.1038499
5.1040836
5.1042693
8.4787615
8.4788358
8.4795265
8.4796807
8.4805094
8.4812467
8.480202
8.4798731
8.4810963
8.4811537
11.81724
11.81747
11.817475
11.818037
11.818827
11.817916
11.818046
11.818493
11.818725
11.819475
15.100658
15.100625
15.100887
15.101352
15.100051
15.100173
15.101066
15.101812
15.10306
15.104128
18.310873
18.310868
18.311382
18.309814
18.309773
18.309944
18.31068
18.31277
18.314486
18.315219
21.429543
21.429718
21.428005
21.428077
21.428353
21.428311
21.429928
21.431607
21.432956
21.433456
24.434135
24.432937
24.432874
24.43335
24.43329
24.434408
24.43583
24.437117
24.438075
24.438137
27.301964
27.301337
27.302163
27.301628
27.302237
27.303268
27.304356
27.305566
27.306239
27.30624
30.010094
30.011432
30.010397
30.010859
30.010835
30.011212
30.011867
30.012467
30.012897
30.012672
32.529952
32.529304
32.530028
32.530271
32.530234
32.530692
32.53096
32.531002
32.530844
32.530823
34.827785
34.827348
34.828353
34.828107
34.829138
34.829893
34.830471
34.830538
34.830712
34.831241
36.874004
36.874917
36.873809
36.874545
36.875238
36.875993
36.876831
36.877609
36.878632
36.879155
38.633226
38.632322
38.632377
38.63285
38.632826
38.633405
38.634474
38.635889
38.636909
38.637298
40.06412
40.063486
40.064163
40.064028
40.064288
40.064891
40.065928
40.066754
40.067274
40.067578
41.12835
41.12864
41.128586
41.128821
41.129233
41.129705
41.129961
41.129979
41.130134
41.13014
41.784368
41.784402
41.784627
41.784706
41.784701
41.784641
41.784509
41.784456
41.784139
41.783812
41.989835
41.99057
41.989994
41.989097
41.988388
41.988129
41.988354
41.988135
41.987389
41.986985
41.703433
41.703315
41.701577
41.700224
41.699633
41.699944
41.700133
41.699569
41.698934
41.698723
40.883687
40.882221
40.881294
40.881164
40.881858
40.882353
40.881914
40.881303
40.88111
40.881167
39.500626
39.499932
39.500891
39.502606
39.503809
39.503471
39.502421
39.501957
39.502136
39.502268
37.535526
37.53629
37.538433
37.540296
37.540503
37.539292
37.538242
37.538097
37.538303
37.538204
34.975536
34.976949
34.978552
34.979042
34.978327
34.977345
34.977049
34.97699
34.976607
34.976253
31.820304
31.821313
31.821463
31.821077
31.820674
31.820831
31.820925
31.820045
31.818825
31.818543
28.088786
28.08892
28.08848
28.088401
28.08896
28.089415
28.088407
28.086412
28.085162
28.08539
23.820018
23.819906
23.819912
23.820457
23.820992
23.819958
23.81754
23.815759
23.815219
23.81552
19.072911
19.073256
19.073722
19.073991
19.073132
19.070828
19.068867
19.068126
19.06745
19.0676
13.92691
13.927345
13.927737
13.927225
13.925553
13.923765
13.922884
13.922206
13.922006
13.92283
8.4808805
8.48074
8.4809038
8.480458
8.4790263
8.4779216
8.4777117
8.4777141
8.4784181
8.477608
1.8987772
1.8986135
1.8986512
1.8986154
1.8981848
1.8978294
1.8979203
1.8982591
1.898467
1.8974748
1.5964815
1.596386
1.5965683
1.5971265
1.5970355
1.5974824
1.5974683
1.5978544
1.5974427
1.5972974
7.1754052
7.175433
7.1749937
7.1769082
7.1763422
7.1780606
7.1781518
7.1781812
7.1785675
7.1781658
11.924679
11.925488
11.925752
11.926021
11.926969
11.927843
11.927488
11.927591
11.928498
11.928411
16.621954
16.622223
16.622513
16.622902
16.623856
16.623531
16.62401
16.624579
16.625015
16.626018
21.243694
21.243652
21.243614
21.244181
21.243387
21.243852
21.245059
21.24636
21.248091
21.24919
25.76492
25.764727
25.765248
25.764101
25.764252
25.764669
25.765991
25.76864
25.770454
25.770911
30.160271
30.159961
30.158868
30.159208
30.159406
30.159713
30.161864
30.163697
30.16473
30.164967
34.398976
34.398474
34.398297
34.398628
34.398605
34.399987
34.401651
34.402677
34.403151
34.403274
38.450368
38.449974
38.450694
38.450167
38.450648
38.451753
38.45273
38.453613
38.454046
38.454261
42.280987
42.281653
42.281241
42.281697
42.281261
42.281414
42.28184
42.282536
42.282971
42.282943
45.850209
45.850224
45.851145
45.850769
45.850288
45.850474
45.850893
45.851318
45.851388
45.851739
49.113875
49.11413
49.114493
49.11367
49.114561
49.115583
49.116572
49.117117
49.117868
49.118788
52.029481
52.029471
52.027844
52.028483
52.029409
52.030653
52.031828
52.033295
52.034929
52.035576
54.544696
54.543108
54.543415
54.543889
54.544173
54.545127
54.546704
54.548758
54.550022
54.550216
56.603533
56.603446
56.604394
56.604318
56.604866
56.606013
56.607598
56.608589
56.608977
56.608923
58.152227
58.152986
58.152659
58.1532
58.154061
58.155011
58.155351
58.155156
58.155072
58.15482
59.129641
59.129372
59.129512
59.12989
59.130129
59.130076
59.129705
59.129397
59.128915
59.128511
59.47331
59.473748
59.473584
59.472593
59.471699
59.471302
59.471258
59.470746
59.469834
59.469431
59.123409
59.12347
59.121913
59.120348
59.119686
59.119869
59.119593
59.118614
59.117819
59.117697
58.020339
58.019091
58.018224
58.018276
58.018979
58.018936
58.017892
58.017048
58.016925
58.01713
56.11728
56.116959
56.118389
56.1202
56.120824
56.119712
56.118522
56.118309
56.118721
56.118858
53.38264
53.384166
53.386379
53.387654
53.387023
53.385672
53.385084
53.385263
53.385555
53.385476
49.794857
49.796384
49.797268
49.797178
49.796372
49.795929
49.795867
49.795709
49.795405
49.795346
45.34943
45.34958
45.349481
45.349355
45.349561
45.349916
45.349484
45.348421
45.347604
45.347781
40.069639
40.06946
40.069793
40.070468
40.071383
40.071159
40.069513
40.067933
40.067133
40.067312
34.009759
34.010449
34.011297
34.012237
34.012447
34.010766
34.008602
34.007305
34.006173
34.00563
27.253192
27.254294
27.254968
27.255115
27.253987
27.251961
27.250498
27.248888
27.247047
27.246886
19.912612
19.913112
19.913468
19.912834
19.9114
19.909958
19.908717
19.907149
19.906276
19.905358
12.131154
12.130899
12.130873
12.130061
12.128875
12.128337
12.127655
12.126908
12.125551
12.122944
2.7166647
2.7165039
2.7163916
2.7161029
2.7157082
2.7157567
2.7158045
2.715619
2.7146178
2.7137486
2.0648831
2.0645681
2.0648727
2.0656939
2.0652124
2.065583
2.0659197
2.0662801
2.0654912
2.0653737
9.2804903
9.2803553
9.2800245
9.2820078
9.2810523
9.2830675
9.2834542
9.2832094
9.2832175
9.283183
15.423826
15.425219
15.425086
15.424996
15.426554
15.427836
15.427206
15.427379
15.428785
15.429062
21.502651
21.502752
21.502885
21.503659
21.504786
21.504574
21.505399
21.506438
21.507197
21.508064
27.487036
27.486235
27.486666
27.487652
27.486745
27.487625
27.489407
27.490895
27.492608
27.493498
33.345114
33.34533
33.346047
33.344831
33.345268
33.346044
33.347558
33.350116
33.351974
33.352434
39.046498
39.046634
39.045451
39.045903
39.046194
39.046602
39.048621
39.050207
39.051366
39.05167
44.551976
44.551168
44.551204
44.55173
44.551574
44.552847
44.554199
44.554962
44.555456
44.555692
49.821245
49.821222
49.822276
49.821521
49.821735
49.822609
49.823352
49.824002
49.82441
49.824705
54.812686
54.813995
54.813591
54.81356
54.812801
54.812802
54.813131
54.813829
54.814354
54.814389
59.475102
59.475067
59.475624
59.474874
59.474278
59.474267
59.47476
59.475567
59.475936
59.476399
63.751052
63.751116
63.751135
63.750206
63.751087
63.75201
63.753327
63.754409
63.755488
63.756395
67.585568
67.585401
67.583588
67.584288
67.585288
67.586745
67.588317
67.590106
67.591749
67.592294
70.911667
70.909902
70.910081
70.910775
70.911558
70.912932
70.914701
70.916613
70.917604
70.917776
73.656715
73.656622
73.657699
73.658188
73.659516
73.660977
73.66236
73.662898
73.662958
73.662911
75.74948
75.750241
75.750439
75.751629
75.752982
75.753936
75.753856
75.753257
75.752841
75.75249
77.108519
77.108152
77.108723
77.109496
77.109941
77.1098
77.109145
77.108555
77.107733
77.107148
77.649579
77.64996
77.649969
77.649269
77.648637
77.648193
77.647897
77.64712
77.645966
77.645468
77.291697
77.291958
77.290732
77.289488
77.288908
77.288694
77.288061
77.28695
77.286119
77.286032
75.954235
75.953681
75.953103
75.953085
75.953152
75.952464
75.95136
75.950656
75.950583
75.950754
73.569523
73.569824
73.570866
73.571882
73.57161
73.570455
73.569681
73.56964
73.570012
73.57012
70.086982
70.088055
70.089393
70.089874
70.089158
70.088404
70.088103
70.088297
70.088771
70.088942
65.470594
65.471062
65.4716
65.47158
65.471345
65.471156
65.470947
65.471004
65.471349
65.471631
59.709412
59.70939
59.709738
59.710118
59.710514
59.710487
59.710038
59.709673
59.709549
59.709785
52.829378
52.829902
52.830661
52.831502
52.83201
52.83148
52.830452
52.829598
52.828676
52.828242
44.896003
44.896997
44.89784
44.898602
44.898603
44.897385
44.895867
44.894163
44.891976
44.890907
36.015175
36.015966
36.01656
36.016697
36.015956
36.014616
36.012751
36.010056
36.007819
36.006713
26.336557
26.336941
26.337256
26.336777
26.335737
26.334497
26.332911
26.33083
26.328356
26.326512
16.054054
16.053848
16.053488
16.052673
16.052208
16.051841
16.050657
16.04876
16.04552
16.044949
3.5962485
3.596054
3.5957501
3.5954365
3.5954634
3.5956248
3.5951965
3.5943102
3.5932947
3.5937612
2.5417698
2.5418709
2.5418791
2.5426431
2.5422974
2.5425405
2.5426458
2.5428898
2.542051
2.5421565
11.424702
11.424718
11.424164
11.426154
11.425132
11.427036
11.42702
11.426642
11.426943
11.427398
18.989684
18.990495
18.990681
18.990608
18.991919
18.993273
18.992697
18.993236
18.995142
18.995461
26.477929
26.478142
26.478208
26.478934
26.48001
26.479955
26.481156
26.48251
26.483292
26.483947
33.855416
33.854761
33.855126
33.856103
33.855156
33.856339
33.858367
33.859801
33.861437
33.862238
41.084443
41.08459
41.085295
41.084086
41.084747
41.085549
41.086871
41.089392
41.091467
41.091767
48.127936
48.128279
48.127122
48.127748
48.128125
48.128197
48.12983
48.131456
48.132839
48.132753
54.939861
54.939273
54.939698
54.940237
54.939834
54.940698
54.941721
54.942418
54.942934
54.942855
61.472045
61.472321
61.473435
61.472394
61.472421
61.473091
61.47367
61.474139
61.474536
61.474584
67.673753
67.675364
67.67452
67.674363
67.673564
67.673491
67.673832
67.674489
67.674904
67.674578
73.483615
73.48336
73.483824
73.483229
73.482512
73.482417
73.48309
73.483954
73.484053
73.48397
78.832137
78.832123
78.832369
78.831593
78.832362
78.833263
78.834677
78.83567
78.836369
78.836574
83.651483
83.651575
83.649851
83.650695
83.651838
83.653217
83.654605
83.656065
83.657252
83.657294
87.859796
87.857851
87.858243
87.859335
87.860322
87.861509
87.862904
87.864333
87.865049
87.865192
91.366911
91.366564
91.368071
91.369105
91.370578
91.371898
91.372806
91.372917
91.372979
91.373158
94.082719
94.08373
94.084289
94.085918
94.087536
94.088339
94.087778
94.086915
94.086485
94.086225
95.904538
95.904337
95.905245
95.906562
95.907349
95.906968
95.906013
95.905202
95.904164
95.903506
96.724051
96.724496
96.725043
96.724977
96.724427
96.723741
96.723334
96.722365
96.720991
96.720475
96.435811
96.436618
96.435823
96.434677
96.433699
96.433287
96.432718
96.431583
96.430667
96.430565
94.933734
94.933626
94.932811
94.932096
94.93155
94.930943
94.930135
94.929452
94.929235
94.929271
92.122471
92.122296
92.122558
92.122747
92.122393
92.121751
92.121195
92.121022
92.12129
92.121408
87.925737
87.92591
87.92671
87.92711
87.926954
87.926594
87.926205
87.926507
87.927311
87.927582
82.288392
82.288552
82.289222
82.289656
82.289728
82.289477
82.289402
82.290111
82.290937
82.291182
75.187284
75.187561
75.18814
75.188577
75.188763
75.188777
75.189035
75.189375
75.189255
75.18908
66.643254
66.643831
66.644365
66.644794
66.64526
66.645316
66.645034
66.644068
66.642527
66.64163
56.728014
56.728515
56.728979
56.729549
56.730086
56.729524
56.727944
56.725447
56.722999
56.722213
45.570492
45.570763
45.571318
45.571656
45.571506
45.570299
45.56799
45.565442
45.563013
45.561705
33.361674
33.361805
33.362137
33.361831
33.360984
33.359942
33.358414
33.356003
33.352899
33.35233
20.35266
20.35237
20.351819
20.351201
20.350654
20.349874
20.34852
20.3457
20.343976
20.345085
4.561019
4.5608166
4.5604472
4.5602521
4.5602079
4.5599046
4.5592526
4.5583423
4.5585036
4.5588586
3.0289309
3.0289606
3.0290851
3.0298658
3.0293696
3.0294794
3.029514
3.029708
3.0288344
3.0291148
13.614948
13.614964
13.614513
13.616354
13.614784
13.616547
13.616415
13.616075
13.616687
13.617455
22.633491
22.634423
22.634392
22.63388
22.634837
22.636236
22.635673
22.636556
22.638951
22.639331
31.565515
31.565645
31.565191
31.565585
31.56655
31.56648
31.567819
31.569601
31.570496
31.571065
40.372183
40.371394
40.371394
40.372239
40.37117
40.372289
40.374559
40.376367
40.377744
40.378472
49.011132
49.011201
49.011958
49.010597
49.011208
49.01191
49.013442
49.016075
49.017769
49.018136
57.440015
57.440515
57.43928
57.439886
57.440286
57.440252
57.441798
57.443418
57.444541
57.444651
65.60621
65.605726
65.606096
65.60678
65.606444
65.607048
65.607849
65.608609
65.608939
65.609151
73.45452
73.454664
73.455963
73.455035
73.454964
73.455543
73.45606
73.456512
73.456659
73.456793
80.926073
80.927853
80.92697
80.926722
80.925803
80.925946
80.926303
80.926742
80.926549
80.92608
87.949935
87.949775
87.950095
87.949331
87.948629
87.948654
87.949237
87.949572
87.948871
87.948589
94.444914
94.444647
94.445153
94.444404
94.445023
94.445721
94.446745
94.447116
94.447105
94.447091
100.33013
100.33049
100.32911
100.32995
100.33069
100.33155
100.3324
100.33333
100.33393
100.33384
105.50911
105.5079
105.50827
105.50917
105.50971
105.51037
105.51131
105.51233
105.51277
105.51293
109.87395
109.87372
109.87512
109.87604
109.8773
109.87828
109.87881
109.8788
109.87896
109.87918
113.31354
113.31439
113.31511
113.31687
113.31849
113.31893
113.31812
113.31738
113.31711
113.31684
115.70248
115.70256
115.70379
115.7054
115.70606
115.7053
115.70429
115.70354
115.70252
115.7019
116.90687
116.90758
116.90847
116.90853
116.90768
116.90692
116.90656
116.90555
116.90415
116.90373
116.7917
116.7925
116.79182
116.79035
116.78922
116.78907
116.78864
116.78746
116.78647
116.78632
115.21893
115.21865
115.2174
115.2162
115.21585
115.21565
115.21498
115.2141
115.21371
115.21363
112.0597
112.0591
112.0588
112.05892
112.05904
112.0587
112.05807
112.05774
112.05796
112.05803
107.20485
107.20465
107.20542
107.20622
107.20639
107.20607
107.20571
107.20628
107.20711
107.20719
100.57026
100.57044
100.57139
100.572
100.57205
100.57205
100.57246
100.57345
100.57403
100.57388
92.109392
92.109675
92.110117
92.110327
92.11068
92.111384
92.112149
92.112207
92.111514
92.111012
81.828482
81.828626
81.828674
81.829036
81.830181
81.83087
81.830442
81.828866
81.827131
81.826691
69.799828
69.799757
69.799988
69.800874
69.802063
69.801635
69.799663
69.797287
69.795479
69.795158
56.17367
56.173643
56.174348
56.174965
56.175016
56.173722
56.171885
56.169865
56.16744
56.167933
41.185191
41.185206
41.185758
41.185406
41.184413
41.183355
41.181985
41.179637
41.178458
41.179929
25.152134
25.152009
25.151491
25.150478
25.149035
25.148254
25.146881
25.145769
25.147016
25.147098
5.6396996
5.6396491
5.6392503
5.6388505
5.6383026
5.6380099
5.6376178
5.6378665
5.6384139
5.6379852
3.5275247
3.5274297
3.5276409
3.5283963
3.5276774
3.5277912
3.5278001
3.5279557
3.5271466
3.5275598
15.857481
15.857415
15.856631
15.85813
15.856005
15.857769
15.857555
15.857434
15.858378
15.85942
26.365927
26.366937
26.366115
26.36499
26.365733
26.367017
26.366472
26.367795
26.370507
26.371189
36.779799
36.779636
36.778576
36.778545
36.779277
36.779076
36.780665
36.782702
36.783708
36.784668
47.056603
47.055545
47.055143
47.055723
47.054293
47.055385
47.058023
47.060002
47.061231
47.062447
57.149985
57.14995
57.150471
57.148815
57.149266
57.150048
57.151979
57.15461
57.156186
57.157013
67.013372
67.013616
67.012211
67.01268
67.013161
67.013403
67.015239
67.016925
67.018085
67.018292
76.588454
76.587761
76.588061
76.588926
76.588953
76.589772
76.590771
76.591638
76.592017
76.592123
85.814419
85.81456
85.815945
85.81535
85.815601
85.816423
85.816984
85.817246
85.817399
85.817325
94.625468
94.627301
94.626513
94.626352
94.625662
94.62609
94.626164
94.626148
94.625653
94.624965
102.94105
102.94094
102.94121
102.94026
102.93974
102.93966
102.93975
102.93938
102.93827
102.93799
110.66903
110.66901
110.66941
110.66846
110.66877
110.66893
110.66931
110.66903
110.66876
110.66904
117.71698
117.7178
117.71624
117.71658
117.71654
117.71666
117.71694
117.71741
117.71787
117.71815
123.97339
123.97257
123.9725
123.97267
123.97242
123.97246
123.97305
123.97374
123.97407
123.97441
129.31143
129.31108
129.31206
129.3125
129.3132
129.31382
129.31422
129.31414
129.31426
129.31444
133.59859
133.59921
133.59987
133.60137
133.6026
133.60286
133.60218
133.60165
133.60142
133.60107
136.68571
136.68596
136.68719
136.68855
136.68889
136.68812
136.68737
136.68684
136.6859
136.6853
138.41002
138.41078
138.41156
138.41138
138.4105
138.40998
138.40978
138.40886
138.40753
138.40718
138.60196
138.6025
138.60161
138.60014
138.59944
138.59957
138.59915
138.59792
138.59693
138.5968
137.08563
137.08502
137.08357
137.08271
137.08285
137.08273
137.08195
137.08095
137.08055
137.08043
133.69094
133.69012
133.68991
133.69041
133.69065
133.69022
133.68962
133.68935
133.68942
133.68925
128.26499
128.26494
128.26595
128.26674
128.26676
128.26666
128.26665
128.26718
128.26746
128.26711
120.68083
120.68123
120.68206
120.68241
120.68268
120.68337
120.68392
120.68427
120.68412
120.6835
110.85357
110.85358
110.85368
110.85405
110.85516
110.85635
110.8566
110.8558
110.85472
110.8544
98.761633
98.761299
98.761352
98.762368
98.76419
98.764692
98.763636
98.761872
98.760574
98.76125
84.467987
84.467785
84.468362
84.469699
84.47101
84.470268
84.468313
84.466685
84.465659
84.466436
68.138246
68.138415
68.139425
68.139974
68.139664
68.138407
68.137122
68.135573
68.135095
68.136828
50.05327
50.053579
50.054217
50.053369
50.051816
50.050788
50.050084
50.049513
50.050564
50.051803
30.609954
30.610061
30.609251
30.607567
30.606118
30.606033
30.605751
30.607169
30.607616
30.60867
6.8684487
6.8684526
6.867864
6.8672528
6.8669093
6.867122
6.8672184
6.8679168
6.8675521
6.8684765
4.0385816
4.0385142
4.038552
4.0392988
4.038481
4.038602
4.0386302
4.038935
4.0381559
4.0385868
18.156944
18.156773
18.155404
18.156669
18.154202
18.155997
18.155965
18.15615
18.157046
18.158227
30.195019
30.195903
30.194453
30.192816
30.193345
30.194681
30.194336
30.195447
30.198159
30.199213
42.132404
42.132067
42.130439
42.13002
42.130576
42.130471
42.131922
42.133504
42.134909
42.136191
53.924259
53.922804
53.922116
53.922456
53.920782
53.921791
53.92425
53.926108
53.927802
53.929042
65.520979
65.52066
65.521042
65.519125
65.519358
65.52009
65.522285
65.524913
65.526861
65.527583
76.873064
76.873216
76.87151
76.871776
76.872321
76.872984
76.875286
76.876949
76.878336
76.878364
87.91834
87.91741
87.917414
87.918481
87.91906
87.920249
87.921525
87.922396
87.922852
87.922692
98.591009
98.590816
98.592299
98.592335
98.593104
98.593994
98.594522
98.59469
98.594816
98.594344
108.81921
108.82117
108.82073
108.82094
108.82046
108.82085
108.8206
108.82029
108.81957
108.81836
118.51468
118.51507
118.51536
118.51427
118.51375
118.51341
118.51295
118.51211
118.51086
118.51015
127.57544
127.57557
127.57565
127.57444
127.57438
127.57399
127.57375
127.57314
127.57298
127.57309
135.89728
135.89785
135.89599
135.89584
135.8951
135.89459
135.89443
135.8948
135.89546
135.89575
143.35443
143.35352
143.35304
143.35254
143.35159
143.35123
143.35159
143.35215
143.35255
143.35289
149.8023
149.80185
149.80241
149.80237
149.80258
149.80309
149.8034
149.80321
149.80325
149.8034
155.08659
155.08703
155.08754
155.08861
155.08963
155.09005
155.08953
155.08902
155.08878
155.08844
159.03251
159.03284
159.03375
159.03473
159.03517
159.03476
159.03425
159.03381
159.03299
159.03248
161.4456
161.44617
161.44649
161.44637
161.44593
161.44569
161.44552
161.4447
161.44357
161.4434
162.11711
162.11703
162.11615
162.11532
162.1151
162.11517
162.11463
162.11354
162.11283
162.11285
160.82647
160.82556
160.82463
160.82437
160.82448
160.82409
160.8234
160.82262
160.8223
160.82208
157.35287
157.35242
157.3526
157.35296
157.35277
157.35243
157.35224
157.35198
157.3515
157.35103
151.48588
151.4863
151.48704
151.48722
151.48724
151.48777
151.48787
151.48764
151.48709
151.48636
143.03739
143.03769
143.03795
143.03823
143.03919
143.04024
143.04002
143.03931
143.0386
143.03802
131.86424
131.86388
131.86406
131.86513
131.86681
131.86753
131.86672
131.86547
131.86448
131.86494
117.89774
117.89754
117.89828
117.89996
117.90164
117.90136
117.89995
117.89842
117.89794
117.89923
101.17339
101.17379
101.17486
101.17608
101.17685
101.17571
101.17406
101.17303
101.17301
101.17504
81.859351
81.860054
81.861015
81.860842
81.859934
81.858821
81.857976
81.857941
81.859607
81.861017
60.281077
60.281552
60.2817
60.280151
60.27853
60.278381
60.279049
60.280814
60.28202
60.281542
36.929545
36.929085
36.927726
36.926449
36.926124
36.927012
36.928463
36.929614
36.928469
36.929201
8.2940141
8.2936594
8.2929282
8.2927707
8.2930244
8.2934169
8.2939096
8.2936692
8.2932271
8.2940964
4.5628714
4.5628685
4.5628192
4.5635871
4.5627255
4.562959
4.5630943
4.5635008
4.5627162
4.5630303
20.516721
20.516604
20.514803
20.516055
20.513469
20.515495
20.515668
20.515876
20.51651
20.517278
34.126473
34.127331
34.125542
34.123679
34.124159
34.125623
34.125228
34.125669
34.12809
34.128867
47.631666
47.631245
47.629438
47.62879
47.629302
47.629363
47.630182
47.631046
47.63267
47.633937
60.986298
60.984736
60.983924
60.984171
60.982548
60.983309
60.985142
60.986835
60.98879
60.990037
74.139059
74.138726
74.139076
74.137215
74.137317
74.137771
74.139906
74.142624
74.144351
74.145053
87.038841
87.038957
87.037184
87.0374
87.037816
87.038748
87.041302
87.042959
87.043834
87.044042
99.620441
99.619276
99.61913
99.62023
99.621133
99.622624
99.624096
99.624793
99.624933
99.625257
111.81446
111.81385
111.81535
111.81595
111.817
111.81791
111.81832
111.81836
111.81836
111.8184
123.54486
123.54668
123.54658
123.54719
123.54673
123.54693
123.54649
123.54603
123.54501
123.54409
134.7174
134.71804
134.7184
134.71719
134.71658
134.71608
134.71534
134.71425
134.71261
134.71196
145.22136
145.22153
145.2214
145.22004
145.21982
145.21921
145.21862
145.21788
145.21745
145.21742
154.9419
154.94213
154.9403
154.94002
154.93908
154.93825
154.9379
154.93834
154.93888
154.93889
163.74078
163.73986
163.73939
163.73864
163.73748
163.73688
163.73715
163.73777
163.73803
163.73811
171.4573
171.45695
171.45737
171.45709
171.4571
171.45753
171.45774
171.45749
171.45743
171.45748
177.91526
177.91558
177.91598
177.9168
177.91788
177.91842
177.91786
177.91732
177.91722
177.91697
182.91301
182.91317
182.91377
182.91477
182.91559
182.91537
182.91481
182.91453
182.91411
182.91384
186.22229
186.22241
186.22263
186.22302
186.22298
186.22268
186.22247
186.22205
186.22144
186.22153
187.59135
187.59087
187.59057
187.59036
187.59012
187.58995
187.58962
187.58903
187.58873
187.5888
186.7481
186.74749
186.74719
186.7469
186.74658
186.74624
186.74604
186.74549
186.74506
186.7447
183.40959
183.40969
183.40964
183.40929
183.4089
183.4091
183.40915
183.4084
183.40735
183.40692
177.2906
177.29102
177.29088
177.29061
177.29107
177.29197
177.29142
177.29026
177.28944
177.28892
168.11981
168.11968
168.11954
168.12019
168.12157
168.1221
168.12079
168.11961
168.11902
168.1191
155.66975
155.66944
155.67016
155.6718
155.67317
155.67289
155.67147
155.67027
155.66963
155.6708