/*--------------------------------*- C++ -*----------------------------------*\
| =========                 |                                                 |
| \\      /  F ield         | OpenFOAM: The Open Source CFD Toolbox           |
|  \\    /   O peration     | Version:  v2106                                 |
|   \\  /    A nd           | Website:  www.openfoam.com                      |
|    \\/     M anipulation  |                                                 |
\*---------------------------------------------------------------------------*/
FoamFile
{
    version     2.0;
    format      ascii;
    arch        "LSB;label=32;scalar=64";
    class       volScalarField;
    location    "100";
    object      Tmode1;
}
// * * * * * * * * * * * * * * * * * * * * * * * * * * * * * * * * * * * * * //

dimensions      [0 0 0 0 0 0 0];

internalField   nonuniform List<scalar> 
4000
(
-0.020487823
-0.020487821
-0.020487824
-0.020487826
-0.020487826
-0.020487826
-0.020487825
-0.020487825
-0.020487824
-0.020487824
-0.020487821
-0.020487822
-0.020487825
-0.020487827
-0.020487827
-0.020487827
-0.020487826
-0.020487825
-0.020487824
-0.020487824
-0.020487824
-0.020487825
-0.020487828
-0.020487829
-0.020487829
-0.020487829
-0.020487828
-0.020487827
-0.020487826
-0.020487825
-0.020487826
-0.020487827
-0.020487829
-0.020487831
-0.020487831
-0.02048783
-0.02048783
-0.020487829
-0.020487827
-0.020487826
-0.020487826
-0.020487827
-0.020487829
-0.020487831
-0.020487831
-0.02048783
-0.02048783
-0.020487829
-0.020487827
-0.020487826
-0.020487826
-0.020487827
-0.020487829
-0.02048783
-0.02048783
-0.02048783
-0.020487829
-0.020487828
-0.020487827
-0.020487826
-0.020487825
-0.020487826
-0.020487828
-0.02048783
-0.02048783
-0.020487829
-0.020487829
-0.020487828
-0.020487827
-0.020487825
-0.020487825
-0.020487825
-0.020487827
-0.020487829
-0.020487829
-0.020487828
-0.020487828
-0.020487827
-0.020487826
-0.020487824
-0.020487824
-0.020487824
-0.020487826
-0.020487827
-0.020487827
-0.020487827
-0.020487827
-0.020487826
-0.020487824
-0.020487823
-0.020487824
-0.020487824
-0.020487825
-0.020487826
-0.020487826
-0.020487826
-0.020487825
-0.020487824
-0.020487823
-0.020487822
-0.017868726
-0.017868723
-0.017868734
-0.017868743
-0.017868744
-0.017868743
-0.017868741
-0.017868737
-0.017868733
-0.017868731
-0.017868723
-0.017868727
-0.017868739
-0.017868747
-0.017868748
-0.017868746
-0.017868744
-0.017868739
-0.017868735
-0.017868732
-0.017868734
-0.017868739
-0.017868751
-0.017868757
-0.017868758
-0.017868756
-0.017868753
-0.017868749
-0.017868743
-0.017868739
-0.017868743
-0.017868747
-0.017868757
-0.017868763
-0.017868764
-0.017868762
-0.017868759
-0.017868754
-0.017868748
-0.017868743
-0.017868744
-0.017868748
-0.017868758
-0.017868764
-0.017868765
-0.017868763
-0.01786876
-0.017868755
-0.017868748
-0.017868744
-0.017868743
-0.017868746
-0.017868756
-0.017868762
-0.017868763
-0.017868762
-0.017868759
-0.017868754
-0.017868747
-0.017868742
-0.017868741
-0.017868744
-0.017868753
-0.017868759
-0.01786876
-0.017868759
-0.017868755
-0.01786875
-0.017868744
-0.017868739
-0.017868737
-0.017868739
-0.017868749
-0.017868754
-0.017868755
-0.017868754
-0.01786875
-0.017868745
-0.017868739
-0.017868734
-0.017868733
-0.017868735
-0.017868743
-0.017868748
-0.017868748
-0.017868747
-0.017868744
-0.017868739
-0.017868732
-0.017868727
-0.017868731
-0.017868732
-0.017868739
-0.017868743
-0.017868744
-0.017868742
-0.017868739
-0.017868734
-0.017868727
-0.017868723
-0.015277166
-0.015277166
-0.015277184
-0.015277197
-0.0152772
-0.015277198
-0.015277193
-0.015277186
-0.015277179
-0.015277175
-0.015277166
-0.015277174
-0.015277193
-0.015277205
-0.015277207
-0.015277205
-0.015277199
-0.015277191
-0.015277182
-0.015277178
-0.015277184
-0.015277193
-0.015277212
-0.015277222
-0.015277223
-0.015277221
-0.015277215
-0.015277206
-0.015277195
-0.015277188
-0.015277197
-0.015277205
-0.015277222
-0.015277232
-0.015277233
-0.015277231
-0.015277225
-0.015277215
-0.015277203
-0.015277194
-0.0152772
-0.015277207
-0.015277223
-0.015277233
-0.015277234
-0.015277232
-0.015277226
-0.015277217
-0.015277204
-0.015277196
-0.015277198
-0.015277205
-0.015277221
-0.015277231
-0.015277232
-0.015277229
-0.015277224
-0.015277214
-0.015277202
-0.015277193
-0.015277193
-0.015277199
-0.015277215
-0.015277225
-0.015277226
-0.015277224
-0.015277218
-0.015277208
-0.015277196
-0.015277187
-0.015277186
-0.015277191
-0.015277206
-0.015277215
-0.015277217
-0.015277214
-0.015277208
-0.015277199
-0.015277186
-0.015277178
-0.015277179
-0.015277182
-0.015277195
-0.015277203
-0.015277204
-0.015277202
-0.015277196
-0.015277186
-0.015277173
-0.015277165
-0.015277175
-0.015277178
-0.015277188
-0.015277194
-0.015277196
-0.015277193
-0.015277187
-0.015277178
-0.015277165
-0.015277159
-0.012719709
-0.01271971
-0.012719735
-0.012719752
-0.012719756
-0.012719753
-0.012719745
-0.012719735
-0.012719723
-0.012719717
-0.01271971
-0.012719722
-0.012719748
-0.012719763
-0.012719766
-0.012719762
-0.012719754
-0.012719742
-0.012719727
-0.012719721
-0.012719735
-0.012719748
-0.012719772
-0.012719786
-0.012719788
-0.012719784
-0.012719776
-0.012719762
-0.012719744
-0.012719734
-0.012719752
-0.012719763
-0.012719786
-0.012719799
-0.0127198
-0.012719797
-0.012719788
-0.012719774
-0.012719754
-0.012719742
-0.012719756
-0.012719766
-0.012719788
-0.0127198
-0.012719802
-0.012719798
-0.01271979
-0.012719775
-0.012719756
-0.012719744
-0.012719753
-0.012719762
-0.012719784
-0.012719797
-0.012719798
-0.012719795
-0.012719786
-0.012719772
-0.012719753
-0.012719741
-0.012719745
-0.012719754
-0.012719776
-0.012719788
-0.01271979
-0.012719786
-0.012719778
-0.012719763
-0.012719744
-0.012719732
-0.012719735
-0.012719742
-0.012719762
-0.012719774
-0.012719775
-0.012719772
-0.012719763
-0.012719749
-0.012719729
-0.012719717
-0.012719723
-0.012719727
-0.012719744
-0.012719754
-0.012719756
-0.012719753
-0.012719744
-0.012719729
-0.012719709
-0.012719698
-0.012719717
-0.012719721
-0.012719734
-0.012719742
-0.012719744
-0.012719741
-0.012719732
-0.012719717
-0.012719698
-0.01271969
-0.010203039
-0.010203042
-0.010203072
-0.010203093
-0.010203097
-0.010203093
-0.010203083
-0.010203068
-0.010203052
-0.010203044
-0.010203042
-0.010203056
-0.010203088
-0.010203107
-0.01020311
-0.010203105
-0.010203095
-0.010203078
-0.010203057
-0.010203048
-0.010203072
-0.010203088
-0.010203117
-0.010203134
-0.010203136
-0.010203132
-0.010203121
-0.010203102
-0.010203077
-0.010203064
-0.010203093
-0.010203107
-0.010203134
-0.01020315
-0.010203152
-0.010203147
-0.010203136
-0.010203116
-0.01020309
-0.010203074
-0.010203097
-0.01020311
-0.010203136
-0.010203152
-0.010203154
-0.010203149
-0.010203138
-0.010203118
-0.010203092
-0.010203076
-0.010203093
-0.010203105
-0.010203132
-0.010203147
-0.010203149
-0.010203144
-0.010203133
-0.010203114
-0.010203087
-0.010203072
-0.010203083
-0.010203095
-0.010203121
-0.010203136
-0.010203138
-0.010203133
-0.010203122
-0.010203102
-0.010203076
-0.01020306
-0.010203068
-0.010203078
-0.010203102
-0.010203116
-0.010203118
-0.010203114
-0.010203102
-0.010203082
-0.010203055
-0.010203039
-0.010203052
-0.010203057
-0.010203077
-0.01020309
-0.010203092
-0.010203087
-0.010203076
-0.010203055
-0.010203028
-0.010203013
-0.010203044
-0.010203048
-0.010203064
-0.010203074
-0.010203076
-0.010203072
-0.01020306
-0.010203039
-0.010203013
-0.010203004
-0.0077340387
-0.0077340432
-0.0077340776
-0.0077341029
-0.0077341073
-0.0077341019
-0.0077340894
-0.0077340706
-0.0077340494
-0.0077340385
-0.0077340432
-0.0077340601
-0.0077340974
-0.0077341191
-0.0077341223
-0.0077341165
-0.0077341033
-0.0077340816
-0.0077340557
-0.0077340438
-0.0077340776
-0.0077340974
-0.0077341314
-0.0077341512
-0.0077341538
-0.0077341478
-0.0077341339
-0.0077341096
-0.0077340785
-0.0077340616
-0.0077341029
-0.0077341191
-0.0077341512
-0.0077341701
-0.0077341722
-0.0077341662
-0.0077341523
-0.007734127
-0.0077340936
-0.007734074
-0.0077341073
-0.0077341223
-0.0077341538
-0.0077341722
-0.0077341742
-0.0077341681
-0.0077341544
-0.0077341293
-0.0077340958
-0.0077340762
-0.0077341019
-0.0077341165
-0.0077341478
-0.0077341662
-0.0077341681
-0.0077341621
-0.0077341484
-0.0077341233
-0.0077340898
-0.0077340702
-0.0077340894
-0.0077341033
-0.0077341339
-0.0077341523
-0.0077341544
-0.0077341484
-0.0077341345
-0.0077341092
-0.0077340753
-0.0077340551
-0.0077340706
-0.0077340816
-0.0077341096
-0.007734127
-0.0077341293
-0.0077341233
-0.0077341092
-0.0077340833
-0.0077340488
-0.007734028
-0.0077340494
-0.0077340557
-0.0077340785
-0.0077340936
-0.0077340958
-0.0077340898
-0.0077340753
-0.0077340488
-0.0077340142
-0.0077339956
-0.0077340385
-0.0077340438
-0.0077340616
-0.007734074
-0.0077340762
-0.0077340702
-0.0077340551
-0.007734028
-0.0077339956
-0.0077339852
-0.0053198602
-0.0053198661
-0.005319905
-0.005319934
-0.0053199388
-0.0053199319
-0.0053199168
-0.0053198938
-0.0053198678
-0.0053198542
-0.0053198661
-0.0053198855
-0.0053199278
-0.0053199527
-0.0053199561
-0.005319949
-0.005319933
-0.0053199065
-0.005319875
-0.0053198604
-0.005319905
-0.0053199278
-0.0053199665
-0.0053199892
-0.0053199918
-0.0053199845
-0.0053199678
-0.0053199382
-0.0053199006
-0.0053198804
-0.005319934
-0.0053199527
-0.0053199892
-0.0053200108
-0.005320013
-0.0053200056
-0.0053199889
-0.0053199583
-0.0053199179
-0.0053198944
-0.0053199388
-0.0053199561
-0.0053199918
-0.005320013
-0.005320015
-0.0053200077
-0.0053199912
-0.0053199608
-0.0053199202
-0.0053198967
-0.0053199319
-0.005319949
-0.0053199845
-0.0053200056
-0.0053200077
-0.0053200004
-0.0053199839
-0.0053199535
-0.005319913
-0.0053198894
-0.0053199168
-0.005319933
-0.0053199678
-0.0053199889
-0.0053199912
-0.0053199839
-0.0053199673
-0.0053199365
-0.0053198954
-0.0053198711
-0.0053198938
-0.0053199065
-0.0053199382
-0.0053199583
-0.0053199608
-0.0053199535
-0.0053199365
-0.005319905
-0.005319863
-0.0053198378
-0.0053198678
-0.005319875
-0.0053199006
-0.0053199179
-0.0053199202
-0.005319913
-0.0053198954
-0.005319863
-0.0053198209
-0.0053197987
-0.0053198542
-0.0053198604
-0.0053198804
-0.0053198944
-0.0053198967
-0.0053198894
-0.0053198711
-0.0053198378
-0.0053197987
-0.0053197868
-0.0029679944
-0.0029680018
-0.0029680448
-0.0029680775
-0.0029680825
-0.0029680742
-0.0029680564
-0.0029680292
-0.0029679985
-0.0029679822
-0.0029680018
-0.0029680235
-0.0029680706
-0.0029680986
-0.0029681021
-0.0029680936
-0.0029680748
-0.0029680436
-0.0029680066
-0.0029679894
-0.0029680448
-0.0029680706
-0.0029681137
-0.0029681392
-0.0029681418
-0.0029681331
-0.0029681135
-0.0029680788
-0.0029680348
-0.0029680113
-0.0029680775
-0.0029680986
-0.0029681392
-0.0029681635
-0.0029681657
-0.002968157
-0.0029681374
-0.0029681014
-0.0029680541
-0.0029680269
-0.0029680825
-0.0029681021
-0.0029681418
-0.0029681657
-0.0029681677
-0.0029681591
-0.0029681398
-0.002968104
-0.0029680566
-0.0029680292
-0.0029680742
-0.0029680936
-0.0029681331
-0.002968157
-0.0029681591
-0.0029681505
-0.0029681313
-0.0029680955
-0.002968048
-0.0029680205
-0.0029680564
-0.0029680748
-0.0029681135
-0.0029681374
-0.0029681398
-0.0029681313
-0.0029681118
-0.0029680756
-0.0029680274
-0.002967999
-0.0029680292
-0.0029680436
-0.0029680788
-0.0029681014
-0.002968104
-0.0029680955
-0.0029680756
-0.0029680384
-0.0029679891
-0.0029679596
-0.0029679985
-0.0029680066
-0.0029680348
-0.0029680541
-0.0029680566
-0.002968048
-0.0029680274
-0.0029679891
-0.0029679397
-0.0029679139
-0.0029679822
-0.0029679894
-0.0029680113
-0.0029680269
-0.0029680292
-0.0029680205
-0.002967999
-0.0029679596
-0.0029679139
-0.0029679005
-0.00068634143
-0.00068635042
-0.0006863971
-0.00068643353
-0.00068643863
-0.00068642889
-0.00068640832
-0.00068637707
-0.00068634175
-0.00068632265
-0.00068635042
-0.00068637417
-0.00068642591
-0.000686457
-0.00068646043
-0.00068645041
-0.00068642881
-0.00068639298
-0.00068635066
-0.00068633083
-0.0006863971
-0.00068642591
-0.00068647304
-0.00068650143
-0.00068650394
-0.00068649375
-0.0006864713
-0.00068643132
-0.00068638116
-0.00068635449
-0.00068643353
-0.000686457
-0.00068650143
-0.00068652844
-0.00068653048
-0.00068652036
-0.00068649799
-0.00068645661
-0.0006864026
-0.00068637166
-0.00068643863
-0.00068646043
-0.00068650394
-0.00068653048
-0.0006865324
-0.00068652242
-0.00068650042
-0.00068645932
-0.00068640517
-0.00068637404
-0.00068642889
-0.00068645041
-0.00068649375
-0.00068652036
-0.00068652242
-0.00068651254
-0.00068649062
-0.00068644954
-0.0006863953
-0.00068636405
-0.00068640832
-0.00068642881
-0.0006864713
-0.00068649799
-0.00068650042
-0.00068649062
-0.00068646845
-0.00068642681
-0.0006863717
-0.00068633932
-0.00068637707
-0.00068639298
-0.00068643132
-0.00068645661
-0.00068645932
-0.00068644954
-0.00068642681
-0.00068638405
-0.00068632756
-0.00068629382
-0.00068634175
-0.00068635066
-0.00068638116
-0.0006864026
-0.00068640517
-0.0006863953
-0.0006863717
-0.00068632756
-0.00068627093
-0.00068624176
-0.00068632265
-0.00068633083
-0.00068635449
-0.00068637166
-0.00068637404
-0.00068636405
-0.00068633932
-0.00068629382
-0.00068624176
-0.00068622671
0.0015167195
0.0015167089
0.0015166589
0.0015166187
0.0015166136
0.0015166249
0.0015166482
0.0015166835
0.0015167233
0.0015167452
0.0015167089
0.0015166833
0.0015166272
0.001516593
0.0015165897
0.0015166013
0.0015166257
0.0015166661
0.0015167135
0.0015167359
0.0015166589
0.0015166272
0.0015165762
0.001516545
0.0015165427
0.0015165544
0.0015165797
0.0015166249
0.001516681
0.0015167106
0.0015166187
0.001516593
0.001516545
0.0015165154
0.0015165135
0.0015165251
0.0015165502
0.0015165969
0.0015166574
0.0015166919
0.0015166136
0.0015165897
0.0015165427
0.0015165135
0.0015165117
0.0015165231
0.0015165478
0.0015165941
0.0015166548
0.0015166895
0.0015166249
0.0015166013
0.0015165544
0.0015165251
0.0015165231
0.0015165343
0.0015165588
0.0015166051
0.0015166659
0.0015167008
0.0015166482
0.0015166257
0.0015165797
0.0015165502
0.0015165478
0.0015165588
0.0015165837
0.0015166306
0.0015166924
0.0015167286
0.0015166835
0.0015166661
0.0015166249
0.0015165969
0.0015165941
0.0015166051
0.0015166306
0.0015166789
0.0015167423
0.0015167802
0.0015167233
0.0015167135
0.001516681
0.0015166574
0.0015166548
0.0015166659
0.0015166924
0.0015167423
0.0015168059
0.0015168383
0.0015167452
0.0015167359
0.0015167106
0.0015166919
0.0015166895
0.0015167008
0.0015167286
0.0015167802
0.0015168383
0.001516855
0.0036322602
0.0036322479
0.0036321951
0.0036321511
0.003632146
0.0036321589
0.0036321849
0.0036322242
0.0036322684
0.003632293
0.0036322479
0.0036322207
0.0036321605
0.0036321232
0.0036321201
0.0036321333
0.0036321605
0.0036322055
0.0036322577
0.0036322825
0.0036321951
0.0036321605
0.003632106
0.003632072
0.0036320699
0.0036320832
0.0036321114
0.0036321616
0.0036322234
0.0036322558
0.0036321511
0.0036321232
0.003632072
0.0036320396
0.003632038
0.003632051
0.003632079
0.0036321309
0.0036321977
0.0036322356
0.003632146
0.0036321201
0.0036320699
0.003632038
0.0036320365
0.0036320492
0.0036320765
0.003632128
0.0036321949
0.003632233
0.0036321589
0.0036321333
0.0036320832
0.003632051
0.0036320492
0.0036320616
0.0036320888
0.0036321402
0.0036322072
0.0036322455
0.0036321849
0.0036321605
0.0036321114
0.003632079
0.0036320765
0.0036320888
0.0036321162
0.0036321684
0.0036322366
0.0036322765
0.0036322242
0.0036322055
0.0036321616
0.0036321309
0.003632128
0.0036321402
0.0036321684
0.0036322221
0.0036322922
0.003632334
0.0036322684
0.0036322577
0.0036322234
0.0036321977
0.0036321949
0.0036322072
0.0036322366
0.0036322922
0.0036323625
0.0036323979
0.003632293
0.0036322825
0.0036322558
0.0036322356
0.003632233
0.0036322455
0.0036322765
0.003632334
0.0036323979
0.0036324161
0.0056507332
0.0056507193
0.005650664
0.0056506161
0.0056506111
0.0056506257
0.0056506544
0.0056506976
0.0056507459
0.0056507733
0.0056507193
0.0056506907
0.0056506267
0.0056505862
0.0056505834
0.0056505982
0.0056506282
0.0056506777
0.0056507345
0.0056507616
0.005650664
0.0056506267
0.0056505688
0.005650532
0.0056505303
0.0056505452
0.0056505761
0.0056506315
0.0056506986
0.0056507336
0.0056506161
0.0056505862
0.005650532
0.005650497
0.0056504957
0.0056505102
0.0056505408
0.005650598
0.0056506707
0.0056507118
0.0056506111
0.0056505834
0.0056505303
0.0056504957
0.0056504944
0.0056505085
0.0056505384
0.005650595
0.0056506678
0.0056507091
0.0056506257
0.0056505982
0.0056505452
0.0056505102
0.0056505085
0.0056505222
0.0056505518
0.0056506083
0.0056506812
0.0056507228
0.0056506544
0.0056506282
0.0056505761
0.0056505408
0.0056505384
0.0056505518
0.0056505817
0.005650639
0.0056507132
0.0056507567
0.0056506976
0.0056506777
0.0056506315
0.005650598
0.005650595
0.0056506083
0.005650639
0.0056506981
0.0056507745
0.0056508201
0.0056507459
0.0056507345
0.0056506986
0.0056506707
0.0056506678
0.0056506812
0.0056507132
0.0056507745
0.0056508512
0.0056508893
0.0056507733
0.0056507616
0.0056507336
0.0056507118
0.0056507091
0.0056507228
0.0056507567
0.0056508201
0.0056508893
0.0056509091
0.0075619019
0.0075618862
0.007561829
0.0075617772
0.0075617723
0.0075617886
0.00756182
0.007561867
0.0075619193
0.0075619494
0.0075618862
0.0075618565
0.007561789
0.0075617454
0.007561743
0.0075617595
0.0075617922
0.0075618461
0.0075619071
0.0075619363
0.007561829
0.007561789
0.0075617282
0.0075616885
0.0075616873
0.0075617037
0.0075617375
0.0075617978
0.00756187
0.0075619073
0.0075617772
0.0075617454
0.0075616885
0.0075616508
0.0075616499
0.0075616659
0.0075616991
0.0075617615
0.0075618398
0.0075618838
0.0075617723
0.007561743
0.0075616873
0.0075616499
0.007561649
0.0075616643
0.0075616966
0.0075617583
0.0075618367
0.007561881
0.0075617886
0.0075617595
0.0075617037
0.0075616659
0.0075616643
0.0075616792
0.0075617111
0.0075617726
0.0075618511
0.0075618957
0.00756182
0.0075617922
0.0075617375
0.0075616991
0.0075616966
0.0075617111
0.0075617434
0.0075618057
0.0075618857
0.0075619324
0.007561867
0.0075618461
0.0075617978
0.0075617615
0.0075617583
0.0075617726
0.0075618057
0.00756187
0.0075619525
0.0075620016
0.0075619193
0.0075619071
0.00756187
0.0075618398
0.0075618367
0.0075618511
0.0075618857
0.0075619525
0.0075620352
0.0075620758
0.0075619494
0.0075619363
0.0075619073
0.0075618838
0.007561881
0.0075618957
0.0075619324
0.0075620016
0.0075620758
0.0075620971
0.0093547705
0.0093547531
0.0093546944
0.0093546385
0.0093546339
0.0093546519
0.009354686
0.0093547367
0.0093547928
0.0093548256
0.0093547531
0.0093547226
0.0093546518
0.009354605
0.0093546031
0.0093546213
0.0093546567
0.0093547149
0.0093547797
0.009354811
0.0093546944
0.0093546518
0.0093545883
0.0093545458
0.0093545451
0.0093545631
0.0093545996
0.0093546648
0.0093547417
0.0093547811
0.0093546385
0.009354605
0.0093545458
0.0093545053
0.009354505
0.0093545223
0.0093545581
0.0093546255
0.0093547092
0.009354756
0.0093546339
0.0093546031
0.0093545451
0.009354505
0.0093545044
0.009354521
0.0093545556
0.0093546222
0.0093547058
0.0093547529
0.0093546519
0.0093546213
0.0093545631
0.0093545223
0.009354521
0.009354537
0.0093545711
0.0093546374
0.0093547211
0.0093547685
0.009354686
0.0093546567
0.0093545996
0.0093545581
0.0093545556
0.0093545711
0.0093546055
0.0093546728
0.0093547582
0.0093548079
0.0093547367
0.0093547149
0.0093546648
0.0093546255
0.0093546222
0.0093546374
0.0093546728
0.0093547421
0.0093548303
0.0093548828
0.0093547928
0.0093547797
0.0093547417
0.0093547092
0.0093547058
0.0093547211
0.0093547582
0.0093548303
0.0093549187
0.0093549614
0.0093548256
0.009354811
0.0093547811
0.009354756
0.0093547529
0.0093547685
0.0093548079
0.0093548828
0.0093549614
0.0093549842
0.011017515
0.011017496
0.011017436
0.011017376
0.011017372
0.011017392
0.011017428
0.011017483
0.011017542
0.011017578
0.011017496
0.011017465
0.011017391
0.011017341
0.01101734
0.01101736
0.011017398
0.01101746
0.011017529
0.011017562
0.011017436
0.011017391
0.011017325
0.01101728
0.01101728
0.0110173
0.011017339
0.011017409
0.01101749
0.011017531
0.011017376
0.011017341
0.01101728
0.011017237
0.011017237
0.011017256
0.011017294
0.011017366
0.011017455
0.011017504
0.011017372
0.01101734
0.01101728
0.011017237
0.011017237
0.011017255
0.011017291
0.011017363
0.011017451
0.011017501
0.011017392
0.01101736
0.0110173
0.011017256
0.011017255
0.011017272
0.011017308
0.011017379
0.011017467
0.011017517
0.011017428
0.011017398
0.011017339
0.011017294
0.011017291
0.011017308
0.011017344
0.011017416
0.011017507
0.011017559
0.011017483
0.01101746
0.011017409
0.011017366
0.011017363
0.011017379
0.011017416
0.01101749
0.011017584
0.011017639
0.011017542
0.011017529
0.01101749
0.011017455
0.011017451
0.011017467
0.011017507
0.011017584
0.011017678
0.011017722
0.011017578
0.011017562
0.011017531
0.011017504
0.011017501
0.011017517
0.011017559
0.011017639
0.011017722
0.011017746
0.012537416
0.012537395
0.012537335
0.01253727
0.012537267
0.012537288
0.012537327
0.012537385
0.012537448
0.012537486
0.012537395
0.012537364
0.012537287
0.012537234
0.012537233
0.012537255
0.012537296
0.012537362
0.012537434
0.012537468
0.012537335
0.012537287
0.012537219
0.012537171
0.012537172
0.012537193
0.012537235
0.012537309
0.012537395
0.012537437
0.01253727
0.012537234
0.012537171
0.012537125
0.012537126
0.012537146
0.012537187
0.012537264
0.012537357
0.012537409
0.012537267
0.012537233
0.012537172
0.012537126
0.012537126
0.012537145
0.012537184
0.01253726
0.012537353
0.012537405
0.012537288
0.012537255
0.012537193
0.012537146
0.012537145
0.012537163
0.012537201
0.012537277
0.01253737
0.012537422
0.012537327
0.012537296
0.012537235
0.012537187
0.012537184
0.012537201
0.012537239
0.012537316
0.012537411
0.012537466
0.012537385
0.012537362
0.012537309
0.012537264
0.01253726
0.012537277
0.012537316
0.012537395
0.012537493
0.012537552
0.012537448
0.012537434
0.012537395
0.012537357
0.012537353
0.01253737
0.012537411
0.012537493
0.012537592
0.012537638
0.012537486
0.012537468
0.012537437
0.012537409
0.012537405
0.012537422
0.012537466
0.012537552
0.012537638
0.012537663
0.013900791
0.013900768
0.013900708
0.013900639
0.013900636
0.013900659
0.013900701
0.013900762
0.013900828
0.013900868
0.013900768
0.013900737
0.013900658
0.013900601
0.013900602
0.013900625
0.013900668
0.013900739
0.013900813
0.013900849
0.013900708
0.013900658
0.013900588
0.013900537
0.013900539
0.013900562
0.013900606
0.013900685
0.013900774
0.013900817
0.013900639
0.013900601
0.013900537
0.013900489
0.01390049
0.013900512
0.013900554
0.013900636
0.013900734
0.013900787
0.013900636
0.013900602
0.013900539
0.01390049
0.013900491
0.013900511
0.013900552
0.013900632
0.013900729
0.013900783
0.013900659
0.013900625
0.013900562
0.013900512
0.013900511
0.01390053
0.013900569
0.013900649
0.013900746
0.0139008
0.013900701
0.013900668
0.013900606
0.013900554
0.013900552
0.013900569
0.013900609
0.01390069
0.013900789
0.013900846
0.013900762
0.013900739
0.013900685
0.013900636
0.013900632
0.013900649
0.01390069
0.013900774
0.013900876
0.013900937
0.013900828
0.013900813
0.013900774
0.013900734
0.013900729
0.013900746
0.013900789
0.013900876
0.013900979
0.013901026
0.013900868
0.013900849
0.013900817
0.013900787
0.013900783
0.0139008
0.013900846
0.013900937
0.013901026
0.013901053
0.015092933
0.015092909
0.015092849
0.015092776
0.015092774
0.015092799
0.015092843
0.015092907
0.015092976
0.015093019
0.015092909
0.015092878
0.015092797
0.015092738
0.015092739
0.015092764
0.01509281
0.015092884
0.01509296
0.015092997
0.015092849
0.015092797
0.015092726
0.015092672
0.015092675
0.015092699
0.015092746
0.01509283
0.015092921
0.015092966
0.015092776
0.015092738
0.015092672
0.015092621
0.015092623
0.015092646
0.015092691
0.015092777
0.015092879
0.015092933
0.015092774
0.015092739
0.015092675
0.015092623
0.015092625
0.015092646
0.015092688
0.015092773
0.015092873
0.015092928
0.015092799
0.015092764
0.015092699
0.015092646
0.015092646
0.015092665
0.015092706
0.01509279
0.01509289
0.015092946
0.015092843
0.01509281
0.015092746
0.015092691
0.015092688
0.015092706
0.015092747
0.015092832
0.015092935
0.015092994
0.015092907
0.015092884
0.01509283
0.015092777
0.015092773
0.01509279
0.015092832
0.01509292
0.015093027
0.01509309
0.015092976
0.01509296
0.015092921
0.015092879
0.015092873
0.01509289
0.015092935
0.015093027
0.015093134
0.015093181
0.015093019
0.015092997
0.015092966
0.015092933
0.015092928
0.015092946
0.015092994
0.01509309
0.015093181
0.015093209
0.016098055
0.016098029
0.01609797
0.016097893
0.016097891
0.016097918
0.016097965
0.016098032
0.016098103
0.016098148
0.016098029
0.016097999
0.016097916
0.016097853
0.016097856
0.016097883
0.016097931
0.016098008
0.016098086
0.016098124
0.01609797
0.016097916
0.016097844
0.016097788
0.016097791
0.016097817
0.016097866
0.016097954
0.016098048
0.016098093
0.016097893
0.016097853
0.016097788
0.016097734
0.016097737
0.016097761
0.016097808
0.016097898
0.016098003
0.016098059
0.016097891
0.016097856
0.016097791
0.016097737
0.016097739
0.016097761
0.016097804
0.016097893
0.016097997
0.016098053
0.016097918
0.016097883
0.016097817
0.016097761
0.016097761
0.016097781
0.016097823
0.01609791
0.016098013
0.01609807
0.016097965
0.016097931
0.016097866
0.016097808
0.016097804
0.016097823
0.016097865
0.016097953
0.016098059
0.016098119
0.016098032
0.016098008
0.016097954
0.016097898
0.016097893
0.01609791
0.016097953
0.016098045
0.016098155
0.01609822
0.016098103
0.016098086
0.016098048
0.016098003
0.016097997
0.016098013
0.016098059
0.016098155
0.016098266
0.016098313
0.016098148
0.016098124
0.016098093
0.016098059
0.016098053
0.01609807
0.016098119
0.01609822
0.016098313
0.016098341
0.016899232
0.016899205
0.016899147
0.016899065
0.016899065
0.016899094
0.016899143
0.016899213
0.016899285
0.016899333
0.016899205
0.016899176
0.016899092
0.016899026
0.016899029
0.016899058
0.016899108
0.016899189
0.016899268
0.016899307
0.016899147
0.016899092
0.016899019
0.01689896
0.016898965
0.016898992
0.016899043
0.016899135
0.016899231
0.016899276
0.016899065
0.016899026
0.01689896
0.016898903
0.016898908
0.016898933
0.016898981
0.016899076
0.016899183
0.016899239
0.016899065
0.016899029
0.016898965
0.016898908
0.01689891
0.016898933
0.016898977
0.016899069
0.016899176
0.016899233
0.016899094
0.016899058
0.016898992
0.016898933
0.016898933
0.016898953
0.016898996
0.016899086
0.016899192
0.016899249
0.016899143
0.016899108
0.016899043
0.016898981
0.016898977
0.016898996
0.016899038
0.01689913
0.016899238
0.0168993
0.016899213
0.016899189
0.016899135
0.016899076
0.016899069
0.016899086
0.01689913
0.016899225
0.016899339
0.016899405
0.016899285
0.016899268
0.016899231
0.016899183
0.016899176
0.016899192
0.016899238
0.016899339
0.016899452
0.016899499
0.016899333
0.016899307
0.016899276
0.016899239
0.016899233
0.016899249
0.0168993
0.016899405
0.016899499
0.016899528
0.017478364
0.017478335
0.017478279
0.017478193
0.017478193
0.017478225
0.017478275
0.017478348
0.017478422
0.017478471
0.017478335
0.017478307
0.017478222
0.017478153
0.017478158
0.017478189
0.017478241
0.017478325
0.017478405
0.017478443
0.017478279
0.017478222
0.017478149
0.017478088
0.017478094
0.017478123
0.017478175
0.017478271
0.017478368
0.017478412
0.017478193
0.017478153
0.017478088
0.017478029
0.017478034
0.01747806
0.017478109
0.017478208
0.017478317
0.017478374
0.017478193
0.017478158
0.017478094
0.017478034
0.017478038
0.017478061
0.017478106
0.017478201
0.017478309
0.017478366
0.017478225
0.017478189
0.017478123
0.01747806
0.017478061
0.017478081
0.017478124
0.017478217
0.017478324
0.017478382
0.017478275
0.017478241
0.017478175
0.017478109
0.017478106
0.017478124
0.017478166
0.017478261
0.017478371
0.017478433
0.017478348
0.017478325
0.017478271
0.017478208
0.017478201
0.017478217
0.017478261
0.017478359
0.017478475
0.017478543
0.017478422
0.017478405
0.017478368
0.017478317
0.017478309
0.017478324
0.017478371
0.017478475
0.01747859
0.017478636
0.017478471
0.017478443
0.017478412
0.017478374
0.017478366
0.017478382
0.017478433
0.017478543
0.017478636
0.017478666
0.017816137
0.017816107
0.017816054
0.017815963
0.017815965
0.017815999
0.017816051
0.017816125
0.0178162
0.017816251
0.017816107
0.017816081
0.017815996
0.017815924
0.01781593
0.017815963
0.017816016
0.017816103
0.017816183
0.017816221
0.017816054
0.017815996
0.017815923
0.017815859
0.017815867
0.017815897
0.01781595
0.01781605
0.017816148
0.017816191
0.017815963
0.017815924
0.017815859
0.017815798
0.017815804
0.017815831
0.017815881
0.017815983
0.017816093
0.01781615
0.017815965
0.01781593
0.017815867
0.017815804
0.017815808
0.017815832
0.017815877
0.017815975
0.017816084
0.017816141
0.017815999
0.017815963
0.017815897
0.017815831
0.017815832
0.017815852
0.017815894
0.01781599
0.017816098
0.017816155
0.017816051
0.017816016
0.01781595
0.017815881
0.017815877
0.017815894
0.017815936
0.017816033
0.017816144
0.017816206
0.017816125
0.017816103
0.01781605
0.017815983
0.017815975
0.01781599
0.017816033
0.017816134
0.017816252
0.01781632
0.0178162
0.017816183
0.017816148
0.017816093
0.017816084
0.017816098
0.017816144
0.017816252
0.017816369
0.017816413
0.017816251
0.017816221
0.017816191
0.01781615
0.017816141
0.017816155
0.017816206
0.01781632
0.017816413
0.017816442
0.017892011
0.017891979
0.017891929
0.017891835
0.017891838
0.017891873
0.017891927
0.017892003
0.017892078
0.017892131
0.017891979
0.017891956
0.01789187
0.017891795
0.017891804
0.017891838
0.017891892
0.017891981
0.017892061
0.017892098
0.017891929
0.01789187
0.017891798
0.017891732
0.017891741
0.017891773
0.017891827
0.017891929
0.017892027
0.017892069
0.017891835
0.017891795
0.017891732
0.017891668
0.017891676
0.017891704
0.017891754
0.017891858
0.01789197
0.017892026
0.017891838
0.017891804
0.017891741
0.017891676
0.017891682
0.017891705
0.017891749
0.017891849
0.017891959
0.017892015
0.017891873
0.017891838
0.017891773
0.017891704
0.017891705
0.017891724
0.017891765
0.017891863
0.017891971
0.017892027
0.017891927
0.017891892
0.017891827
0.017891754
0.017891749
0.017891765
0.017891805
0.017891904
0.017892016
0.017892078
0.017892003
0.017891981
0.017891929
0.017891858
0.017891849
0.017891863
0.017891904
0.017892008
0.017892126
0.017892195
0.017892078
0.017892061
0.017892027
0.01789197
0.017891959
0.017891971