/*--------------------------------*- C++ -*----------------------------------*\
| =========                 |                                                 |
| \\      /  F ield         | OpenFOAM: The Open Source CFD Toolbox           |
|  \\    /   O peration     | Version:  v2106                                 |
|   \\  /    A nd           | Website:  www.openfoam.com                      |
|    \\/     M anipulation  |                                                 |
\*---------------------------------------------------------------------------*/
FoamFile
{
    version     2.0;
    format      ascii;
    arch        "LSB;label=32;scalar=64";
    class       volScalarField;
    location    "100";
    object      Tmode_lapla5;
}
// * * * * * * * * * * * * * * * * * * * * * * * * * * * * * * * * * * * * * //

dimensions      [0 -2 0 0 0 0 0];

internalField   nonuniform List<scalar> 
4000
(
-29.068875
-29.065481
-29.067535
-29.066539
-29.06646
-29.066631
-29.066859
-29.067144
-29.067456
-29.067608
-29.065481
-29.067229
-29.067128
-29.066186
-29.066165
-29.066344
-29.066579
-29.066899
-29.067264
-29.06731
-29.067535
-29.067128
-29.067416
-29.066626
-29.066629
-29.066802
-29.067034
-29.067389
-29.067854
-29.067688
-29.066539
-29.066186
-29.066626
-29.065871
-29.065876
-29.066035
-29.066247
-29.066595
-29.06711
-29.067111
-29.06646
-29.066165
-29.066629
-29.065876
-29.065872
-29.066018
-29.066209
-29.066533
-29.06703
-29.067034
-29.066631
-29.066344
-29.066802
-29.066035
-29.066018
-29.066149
-29.066326
-29.066633
-29.067114
-29.067106
-29.066859
-29.066579
-29.067034
-29.066247
-29.066209
-29.066326
-29.066494
-29.066798
-29.067278
-29.067271
-29.067144
-29.066899
-29.067389
-29.066595
-29.066533
-29.066633
-29.066798
-29.067107
-29.067599
-29.067601
-29.067456
-29.067264
-29.067854
-29.06711
-29.06703
-29.067114
-29.067278
-29.067599
-29.068107
-29.068112
-29.067608
-29.06731
-29.067688
-29.067111
-29.067034
-29.067106
-29.067271
-29.067601
-29.068112
-29.068074
2.4379401
2.4476028
2.4364784
2.4389597
2.4397085
2.4397919
2.4397687
2.4397098
2.4396583
2.4397259
2.4476028
2.4420843
2.4378144
2.4403907
2.4410108
2.4410418
2.4409654
2.4409166
2.4413937
2.4413981
2.4364784
2.4378144
2.432897
2.4352055
2.4357723
2.4357805
2.4356381
2.4354385
2.4360734
2.4381209
2.4389597
2.4403907
2.4352055
2.4374587
2.4380151
2.4380172
2.4378412
2.4375032
2.4377741
2.439119
2.4397085
2.4410108
2.4357723
2.4380151
2.4385712
2.4385751
2.4383957
2.4380307
2.4382302
2.4394013
2.4397919
2.4410418
2.4357805
2.4380172
2.4385751
2.4385825
2.4384071
2.4380465
2.438248
2.4394015
2.4397687
2.4409654
2.4356381
2.4378412
2.4383957
2.4384071
2.4382329
2.4378735
2.4380776
2.4392418
2.4397098
2.4409166
2.4354385
2.4375032
2.4380307
2.4380465
2.4378735
2.4375139
2.4377213
2.4389297
2.4396583
2.4413937
2.4360734
2.4377741
2.4382302
2.438248
2.4380776
2.4377213
2.4379499
2.439294
2.4397259
2.4413981
2.4381209
2.439119
2.4394013
2.4394015
2.4392418
2.4389297
2.439294
2.4408422
3.517297
3.5279184
3.5140251
3.5177532
3.5188024
3.5189018
3.5188283
3.5187304
3.518976
3.5176674
3.5279184
3.5197672
3.5146608
3.5184073
3.5192702
3.5192688
3.5190493
3.5189406
3.5209994
3.5208356
3.5140251
3.5146608
3.5086142
3.5120076
3.5127999
3.5127593
3.5123991
3.511908
3.5140075
3.5166752
3.5177532
3.5184073
3.5120076
3.5153291
3.5161085
3.5160593
3.5156398
3.5149037
3.5164059
3.5179802
3.5188024
3.5192702
3.5127999
3.5161085
3.5168891
3.5168443
3.5164213
3.5156429
3.5170358
3.5183315
3.5189018
3.5192688
3.5127593
3.5160593
3.5168443
3.5168052
3.5163885
3.5156158
3.51701
3.5182736
3.5188283
3.5190493
3.5123991
3.5156398
3.5164213
3.5163885
3.5159735
3.5152019
3.5166
3.5178991
3.5187304
3.5189406
3.511908
3.5149037
3.5156429
3.5156158
3.5152019
3.514431
3.5158449
3.5173148
3.518976
3.5209994
3.5140075
3.5164059
3.5170358
3.51701
3.5166
3.5158449
3.517349
3.519374
3.5176674
3.5208356
3.5166752
3.5179802
3.5183315
3.5182736
3.5178991
3.5173148
3.519374
3.5198976
4.5374514
4.5501007
4.5332921
4.5380937
4.5393947
4.5394931
4.5393367
4.5391826
4.5402704
4.5386036
4.5501007
4.5402697
4.5341203
4.5388754
4.5399393
4.5398834
4.5394502
4.5391205
4.5430528
4.5428903
4.5332921
4.5341203
4.5267635
4.5310922
4.5320723
4.5319651
4.5313243
4.5304041
4.5343531
4.5378624
4.5380937
4.5388754
4.5310922
4.5353352
4.5363011
4.5361847
4.5354623
4.5341993
4.5373462
4.5394445
4.5393947
4.5399393
4.5320723
4.5363011
4.5372694
4.5371598
4.5364334
4.5351127
4.5381157
4.5398511
4.5394931
4.5398834
4.5319651
4.5361847
4.5371598
4.537058
4.5363395
4.5350243
4.5380261
4.5397169
4.5393367
4.5394502
4.5313243
4.5354623
4.5364334
4.5363395
4.5356222
4.5343063
4.5373111
4.5390689
4.5391826
4.5391205
4.5304041
4.5341993
4.5351127
4.5350243
4.5343063
4.5329907
4.5360319
4.5381669
4.5402704
4.5430528
4.5343531
4.5373462
4.5381157
4.5380261
4.5373111
4.5360319
4.5393153
4.5429269
4.5386036
4.5428903
4.5378624
4.5394445
4.5398511
4.5397169
4.5390689
4.5381669
4.5429269
4.5413415
5.4836032
5.4982255
5.4785022
5.4843385
5.485863
5.4859469
5.4856729
5.4853581
5.4871414
5.4851658
5.4982255
5.4867553
5.4795496
5.4852612
5.4865003
5.4863777
5.4856911
5.485023
5.4906972
5.490476
5.4785022
5.4795496
5.470859
5.476076
5.4772207
5.4770379
5.4760822
5.4746261
5.480324
5.4846
5.4843385
5.4852612
5.476076
5.4811949
5.4823246
5.4821326
5.4810744
5.4791812
5.483883
5.4864488
5.485863
5.4865003
5.4772207
5.4823246
5.4834583
5.4832755
5.4822128
5.4802471
5.4847738
5.4869028
5.4859469
5.4863777
5.4770379
5.4821326
5.4832755
5.4831025
5.4820489
5.4800878
5.4846093
5.486682
5.4856729
5.4856911
5.4760822
5.4810744
5.4822128
5.4820489
5.480995
5.4790292
5.4835487
5.4857184
5.4853581
5.485023
5.4746261
5.4791812
5.4802471
5.4800878
5.4790292
5.4770585
5.4816288
5.4844146
5.4871414
5.4906972
5.480324
5.483883
5.4847738
5.4846093
5.4835487
5.4816288
5.4866125
5.4920393
5.4851658
5.490476
5.4846
5.4864488
5.4869028
5.486682
5.4857184
5.4844146
5.4920393
5.4882343
6.336953
6.3534112
6.3308759
6.3377448
6.3394688
6.3395307
6.3391279
6.3386167
6.3410255
6.3387424
6.3534112
6.3403244
6.3321409
6.3387836
6.3401755
6.339982
6.3390332
6.3379866
6.3453142
6.3450353
6.3308759
6.3321409
6.3221738
6.3282572
6.3295461
6.3292852
6.3280088
6.32598
6.3333366
6.3383468
6.3377448
6.3387836
6.3282572
6.3342317
6.3355054
6.3352359
6.3338376
6.331281
6.3374523
6.3404579
6.3394688
6.3401755
6.3295461
6.3355054
6.3367845
6.3365269
6.335124
6.3324822
6.3384511
6.3409532
6.3395307
6.339982
6.3292852
6.3352359
6.3365269
6.3362808
6.3348881
6.3322494
6.3382091
6.3406435
6.3391279
6.3390332
6.3280088
6.3338376
6.335124
6.3348881
6.3334932
6.3308443
6.3367939
6.3393519
6.3386167
6.3379866
6.32598
6.331281
6.3324822
6.3322494
6.3308443
6.3281817
6.3341903
6.3376126
6.3410255
6.3453142
6.3333366
6.3374523
6.3384511
6.3382091
6.3367939
6.3341903
6.3407866
6.3480708
6.3387424
6.3450353
6.3383468
6.3404579
6.3409532
6.3406435
6.3393519
6.3376126
6.3480708
6.3421001
7.0770582
7.0952435
7.0700278
7.0779404
7.0798381
7.0798728
7.0793409
7.0786244
7.0816192
7.0790335
7.0952435
7.0805959
7.0715435
7.0790984
7.0806181
7.0803513
7.0791429
7.0777033
7.0866057
7.0862783
7.0700278
7.0715435
7.0603808
7.0673154
7.0687257
7.0683859
7.0667943
7.0641802
7.0731057
7.0788191
7.0779404
7.0790984
7.0673154
7.0741317
7.0755273
7.0751804
7.0734501
7.0702217
7.0777759
7.0811906
7.0798381
7.0806181
7.0687257
7.0755273
7.07693
7.0765976
7.0748637
7.0715401
7.0788696
7.0817213
7.0798728
7.0803513
7.0683859
7.0751804
7.0765976
7.0762785
7.0745557
7.0712341
7.0785507
7.0813244
7.0793409
7.0791429
7.0667943
7.0734501
7.0748637
7.0745557
7.0728286
7.0694907
7.0767873
7.0797071
7.0786244
7.0777033
7.0641802
7.0702217
7.0715401
7.0712341
7.0694907
7.0661278
7.0734865
7.0775147
7.0816192
7.0866057
7.0731057
7.0777759
7.0788696
7.0785507
7.0767873
7.0734865
7.0816018
7.0907184
7.0790335
7.0862783
7.0788191
7.0811906
7.0817213
7.0813244
7.0797071
7.0775147
7.0907184
7.0826613
7.6816235
7.7014335
7.6736775
7.6826532
7.6846948
7.6846959
7.6840371
7.6831124
7.686657
7.6837695
7.7014335
7.6852889
7.6754909
7.6839413
7.6855596
7.6852163
7.6837538
7.6819121
7.6923072
7.6919373
7.6736775
7.6754909
7.6632217
7.6709946
7.6724996
7.6720797
7.6701824
7.6669752
7.6773723
7.6837514
7.6826532
7.6839413
7.6709946
7.6786419
7.6801334
7.679709
7.6776596
7.6737568
7.6825989
7.6863828
7.6846948
7.6855596
7.6724996
7.6801334
7.6816339
7.6812269
7.6791761
7.6751718
7.6837729
7.6869424
7.6846959
7.6852163
7.6720797
7.679709
7.6812269
7.6808349
7.6787961
7.6747932
7.6833788
7.6864615
7.6840371
7.6837538
7.6701824
7.6776596
7.6791761
7.6787961
7.6767507
7.6727251
7.6812803
7.6845276
7.6831124
7.6819121
7.6669752
7.6737568
7.6751718
7.6747932
7.6727251
7.6686621
7.677278
7.6818671
7.686657
7.6923072
7.6773723
7.6825989
7.6837729
7.6833788
7.6812803
7.677278
7.686809
7.6977044
7.6837695
7.6919373
7.6837514
7.6863828
7.6869424
7.6864615
7.6845276
7.6818671
7.6977044
7.6876461
8.1263019
8.1476344
8.1174805
8.1275475
8.1296985
8.1296585
8.1288754
8.1277411
8.1317977
8.1286055
8.1476344
8.1300563
8.1196472
8.1289782
8.1306609
8.1302375
8.1285282
8.1262755
8.1380761
8.1376681
8.1174805
8.1196472
8.1063645
8.1149653
8.116534
8.1160327
8.1138416
8.1100335
8.1217966
8.1288003
8.1275475
8.1289782
8.1149653
8.1234352
8.1249925
8.1244907
8.122138
8.1175592
8.1275854
8.1316927
8.1296985
8.1306609
8.116534
8.1249925
8.1265608
8.1260796
8.1237293
8.1190472
8.1288233
8.1322739
8.1296585
8.1302375
8.1160327
8.1244907
8.1260796
8.1256148
8.1232776
8.1185968
8.1283562
8.1317134
8.1288754
8.1285282
8.1138416
8.122138
8.1237293
8.1232776
8.1209316
8.1162217
8.1259395
8.1294757
8.1277411
8.1262755
8.1100335
8.1175592
8.1190472
8.1185968
8.1162217
8.1114608
8.1212341
8.1263304
8.1317977
8.1380761
8.1217966
8.1275854
8.1288233
8.1283562
8.1259395
8.1212341
8.1320672
8.1446754
8.1286055
8.1376681
8.1288003
8.1316927
8.1322739
8.1317134
8.1294757
8.1263304
8.1446754
8.1327075
8.3847471
8.4075004
8.3750905
8.386287
8.3885078
8.3884178
8.387514
8.3861692
8.3906974
8.387194
8.4075004
8.3885492
8.3776738
8.3878733
8.3895815
8.3890735
8.3871264
8.3844528
8.3975665
8.3971252
8.3750905
8.3776738
8.3634736
8.3728949
8.3744915
8.3739074
8.3714368
8.3670182
8.380034
8.3876201
8.386287
8.3878733
8.3728949
8.3821822
8.3837707
8.3831916
8.380555
8.3752976
8.3863952
8.3907762
8.3885078
8.3895815
8.3744915
8.3837707
8.3853725
8.3848175
8.3821891
8.3768319
8.3876787
8.3913713
8.3884178
8.3890735
8.3739074
8.3831916
8.3848175
8.3842802
8.3816661
8.3763108
8.3871415
8.3907364
8.387514
8.3871264
8.3714368
8.380555
8.3821891
8.3816661
8.3790408
8.3736499
8.3844272
8.3882109
8.3861692
8.3844528
8.3670182
8.3752976
8.3768319
8.3763108
8.3736499
8.3681935
8.3790167
8.3845598
8.3906974
8.3975665
8.380034
8.3863952
8.3876787
8.3871415
8.3844272
8.3790167
8.3910276
8.4052767
8.387194
8.3971252
8.3876201
8.3907762
8.3913713
8.3907364
8.3882109
8.3845598
8.4052767
8.3914982
8.4289035
8.4529772
8.4184508
8.4308261
8.433072
8.4329219
8.4319015
8.4303451
8.435302
8.4314774
8.4529772
8.4327093
8.4215216
8.4325813
8.4342706
8.4336733
8.4314987
8.4283928
8.4427233
8.4422541
8.4184508
8.4215216
8.4065016
8.41674
8.4183241
8.4176557
8.4149223
8.4098807
8.4240284
8.4321551
8.4308261
8.4325813
8.41674
8.4268438
8.4284242
8.4277683
8.4248703
8.4189294
8.4309772
8.4355797
8.433072
8.4342706
8.4183241
8.4284242
8.4300206
8.4293927
8.426511
8.4204802
8.4322863
8.4361801
8.4329219
8.4336733
8.4176557
8.4277683
8.4293927
8.4287836
8.4259175
8.4198903
8.4316828
8.4354776
8.4319015
8.4314987
8.4149223
8.4248703
8.426511
8.4259175
8.423038
8.4169685
8.4286955
8.4326829
8.4303451
8.4283928
8.4098807
8.4189294
8.4204802
8.4198903
8.4169685
8.4108179
8.4225757
8.4284996
8.435302
8.4427233
8.4240284
8.4309772
8.4322863
8.4316828
8.4286955
8.4225757
8.4356293
8.4514445
8.4314774
8.4422541
8.4321551
8.4355797
8.4361801
8.4354776
8.4326829
8.4284996
8.4514445
8.4359616
8.2295895
8.2548858
8.2183783
8.2319929
8.2342145
8.2339927
8.2328605
8.2310916
8.236432
8.2322718
8.2548858
8.233353
8.222015
8.2339309
8.2355522
8.2348602
8.2324702
8.2289177
8.2443657
8.2438751
8.2183783
8.222015
8.2062739
8.2173304
8.218857
8.2181028
8.2151258
8.2094447
8.224597
8.2332238
8.2319929
8.2339309
8.2173304
8.2282545
8.2297833
8.2290513
8.2259178
8.2192854
8.2321543
8.2369237
8.2342145
8.2355522
8.218857
8.2297833
8.231331
8.2306313
8.2275252
8.22082
8.2334672
8.2375207
8.2339927
8.2348602
8.2181028
8.2290513
8.2306313
8.2299515
8.2268625
8.2201638
8.2328024
8.2367585
8.2328605
8.2324702
8.2151258
8.2259178
8.2275252
8.2268625
8.2237577
8.2170102
8.2295703
8.2337164
8.2310916
8.2289177
8.2094447
8.2192854
8.22082
8.2201638
8.2170102
8.2101643
8.2227341
8.2289668
8.236432
8.2443657
8.224597
8.2321543
8.2334672
8.2328024
8.2295703
8.2227341
8.2366842
8.2539904
8.2322718
8.2438751
8.2332238
8.2369237
8.2375207
8.2367585
8.2337164
8.2289668
8.2539904
8.2369158
7.7574701
7.7838946
7.7455365
7.7604622
7.7626053
7.7622992
7.7610607
7.7590775
7.7647545
7.7602398
7.7838946
7.7611443
7.7498243
7.7625972
7.7640967
7.7633042
7.7607123
7.7566958
7.77316
7.7726554
7.7455365
7.7498243
7.7334608
7.7453415
7.7467614
7.74592
7.7427209
7.7363789
7.7524029
7.7614913
7.7604622
7.7625972
7.7453415
7.7570948
7.7585242
7.7577172
7.7543777
7.7470416
7.760595
7.7654753
7.7626053
7.7640967
7.7467614
7.7585242
7.7599757
7.7592061
7.7559083
7.748525
7.7618891
7.76606
7.7622992
7.7633042
7.74592
7.7577172
7.7592061
7.7584573
7.7551785
7.7478059
7.7611692
7.7652478
7.7610607
7.7607123
7.7427209
7.7543777
7.7559083
7.7551785
7.7518815
7.7444535
7.7577247
7.7619825
7.7590775
7.7566958
7.7363789
7.7470416
7.748525
7.7478059
7.7444535
7.7369082
7.7501605
7.7566244
7.7647545
7.77316
7.7524029
7.760595
7.7618891
7.7611692
7.7577247
7.7501605
7.7648502
7.7835737
7.7602398
7.7726554
7.7614913
7.7654753
7.76606
7.7652478
7.7619825
7.7566244
7.7835737
7.7650253
6.9845378
7.0119998
6.9719172
6.9882351
6.990242
6.9898377
6.9884989
6.9862992
6.992264
6.9873709
7.0119998
6.9880766
6.9769462
6.9905818
6.9919018
6.991003
6.9882242
6.9837226
7.0011007
7.0005906
6.9719172
6.9769462
6.9600585
6.9727742
6.9740348
6.9731053
6.9697081
6.9626781
6.9794363
6.9889502
6.9882351
6.9905818
6.9727742
6.9853705
6.9866494
6.9857694
6.9822569
6.9741999
6.9882949
6.9932289
6.990242
6.9919018
6.9740348
6.9866494
6.9879542
6.9871172
6.9836645
6.9755952
6.9895469
6.9937929
6.9898377
6.991003
6.9731053
6.9857694
6.9871172
6.9863019
6.9828704
6.9748178
6.9887796
6.9929421
6.9884989
6.9882242
6.9697081
6.9822569
6.9836645
6.9828704
6.9794186
6.971304
6.9851592
6.9894807
6.9862992
6.9837226
6.9626781
6.9741999
6.9755952
6.9748178
6.971304
6.9630513
6.9768505
6.9834618
6.992264
7.0011007
6.9794363
6.9882949
6.9895469
6.9887796
6.9851592
6.9768505
6.9921125
7.0121831
6.9873709
7.0005906
6.9889502
6.9932289
6.9937929
6.9929421
6.9894807
6.9834618
7.0121831
6.9922824
5.8862497
5.9146615
5.8729778
5.8907749
5.8925856
5.8920686
5.8906362
5.8882168
5.8944192
5.8891189
5.9146615
5.8896101
5.8788407
5.8933487
5.8944295
5.8934185
5.8904696
5.8854574
5.9036471
5.9031403
5.8729778
5.8788407
5.8615264
5.8750919
5.8761382
5.8751201
5.8715515
5.8638004
5.8811517
5.8910577
5.8907749
5.8933487
5.8750919
5.8885487
5.889624
5.8886738
5.8850247
5.8762238
5.8907126
5.895643
5.8925856
5.8944295
5.8761382
5.889624
5.8907292
5.8898285
5.8862617
5.8774939
5.8918995
5.8961784
5.8920686
5.8934185
5.8751201
5.8886738
5.8898285
5.8889503
5.8854076
5.8766643
5.8910947
5.8953025
5.8906362
5.8904696
5.8715515
5.8850247
5.8862617
5.8854076
5.8818425
5.8730307
5.8873389
5.8916748
5.8882168
5.8854574
5.8638004
5.8762238
5.8774939
5.8766643
5.8730307
5.8640577
5.8782629
5.884932
5.8944192
5.9036471
5.8811517
5.8907126
5.8918995
5.8910947
5.8873389
5.8782629
5.8939203
5.9152729
5.8891189
5.9031403
5.8910577
5.895643
5.8961784
5.8953025
5.8916748
5.884932
5.9152729
5.8941437
4.4444953
4.473771
4.4306108
4.4499743
4.4515283
4.4508841
4.4493655
4.4467219
4.4531109
4.4473699
4.473771
4.4476413
4.4373984
4.4527914
4.453573
4.4524446
4.4493438
4.4437909
4.4626906
4.4621959
4.4306108
4.4373984
4.4197543
4.4341866
4.4349637
4.4338578
4.4301468
4.4216347
4.4394364
4.4497033
4.4499743
4.4527914
4.4341866
4.4485236
4.4493419
4.4483258
4.44458
4.4350064
4.449737
4.4546069
4.4515283
4.453573
4.4349637
4.4493419
4.4501946
4.4492355
4.4455992
4.436115
4.4508378
4.4551078
4.4508841
4.4524446
4.4338578
4.4483258
4.4492355
4.4482996
4.4446909
4.4352415
4.4500076
4.4542225
4.4493655
4.4493438
4.4301468
4.44458
4.4455992
4.4446909
4.4410582
4.4315337
4.4461611
4.4504607
4.4467219
4.4437909
4.4216347
4.4350064
4.436115
4.4352415
4.4315337
4.4218224
4.4362884
4.4429193
4.4531109
4.4626906
4.4394364
4.449737
4.4508378
4.4500076
4.4461611
4.4362884
4.4521552
4.4747313
4.4473699
4.4621959
4.4497033
4.4546069
4.4551078
4.4542225
4.4504607
4.4429193
4.4747313
4.4524976
2.6515967
2.6816497
2.637145
2.6581534
2.6593931
2.6586079
2.6570113
2.654138
2.6606616
2.6544425
2.6816497
2.6545038
2.6449408
2.6612309
2.6616565
2.6604072
2.6571742
2.6510462
2.6705552
2.6700805
2.637145
2.6449408
2.6270633
2.6423788
2.6428345
2.6416431
2.6378212
2.6285026
2.6466108
2.6572092
2.6581534
2.6612309
2.6423788
2.6576145
2.658125
2.6570492
2.6532498
2.6428687
2.6576877
2.6624415
2.6593931
2.6616565
2.6428345
2.658125
2.658675
2.6576646
2.6540071
2.6437832
2.6586847
2.6629042
2.6586079
2.6604072
2.6416431
2.6570492
2.6576646
2.6566784
2.6530529
2.6428765
2.657844
2.6620279
2.6570113
2.6571742
2.6378212
2.6532498
2.6540071
2.6530529
2.649402
2.6391442
2.6539552
2.6581665
2.654138
2.6510462
2.6285027
2.6428687
2.6437832
2.6428765
2.6391442
2.6286712
2.6432497
2.6497399
2.6606616
2.6705552
2.6466108
2.6576877
2.6586847
2.657844
2.6539552
2.6432497
2.6591323
2.6828806
2.6544425
2.6700805
2.6572092
2.6624415
2.6629042
2.6620279
2.6581665
2.6497399
2.6828806
2.6596649
0.51556235
0.54630109
0.50060013
0.52331153
0.52418598
0.523248
0.52158253
0.51847255
0.52507825
0.51834142
0.54630109
0.51822321
0.50947234
0.5266675
0.52668785
0.52531645
0.52197274
0.51523121
0.53524979
0.53480067
0.50060013
0.50947234
0.49145869
0.50766861
0.5077573
0.50648555
0.50258649
0.492411
0.51068292
0.52158304
0.52331153
0.5266675
0.50766861
0.52381573
0.52397411
0.52284748
0.51904028
0.50781189
0.52256639
0.52715095
0.52418598
0.52668785
0.5077573
0.52397411
0.52417757
0.52312596
0.51949827
0.50850638
0.52344769
0.52757554
0.523248
0.52531645
0.50648555
0.52284748
0.52312596
0.52209986
0.51850959
0.50758055
0.52261483
0.52672919
0.52158253
0.52197274
0.50258649
0.51904028
0.51949827
0.51850959
0.51489316
0.50387686
0.51873542
0.52280462
0.51847255
0.51523121
0.492411
0.50781189
0.50850638
0.50758055
0.50387686
0.49261369
0.50715471
0.51339568
0.52507825
0.53524979
0.51068292
0.52256639
0.52344769
0.52261483
0.51873542
0.50715471
0.52285354
0.54773017
0.51834142
0.53480067
0.52158304
0.52715095
0.52757554
0.52672919
0.52280462
0.51339568
0.54773017
0.52365145
-1.933188
-1.9018659
-1.9485858
-1.9241505
-1.9236802
-1.9247785
-1.9265029
-1.9298575
-1.9232226
-1.9305165
-1.9018659
-1.9307568
-1.9385951
-1.9204973
-1.920918
-1.9224085
-1.9258398
-1.933236
-1.9128074
-1.9132293
-1.9485858
-1.9385951
-1.9566455
-1.939541
-1.9398527
-1.9411959
-1.9451363
-1.9562219
-1.9379262
-1.9267566
-1.9241505
-1.9204973
-1.939541
-1.922482
-1.9227082
-1.9238732
-1.9276405
-1.9397592
-1.9252184
-1.9208528
-1.9236802
-1.920918
-1.9398527
-1.9227082
-1.9228836
-1.9239626
-1.9275076
-1.9392999
-1.9244562
-1.920461
-1.9247785
-1.9224085
-1.9411959
-1.9238732
-1.9239626
-1.9250145
-1.9285152
-1.9402265
-1.9252587
-1.9212534
-1.9265029
-1.9258398
-1.9451363
-1.9276405
-1.9275076
-1.9285152
-1.9320422
-1.9438462
-1.9290747
-1.9252037
-1.9298575
-1.933236
-1.9562219
-1.9397592
-1.9392999
-1.9402265
-1.9438462
-1.9559319
-1.941578
-1.935701
-1.9232226
-1.9128074
-1.9379262
-1.9252184
-1.9244562
-1.9252587
-1.9290747
-1.941578
-1.9262661
-1.9002987
-1.9305165
-1.9132293
-1.9267566
-1.9208528
-1.920461
-1.9212534
-1.9252037
-1.935701
-1.9002987
-1.9251267
-4.6334415
-4.6016572
-4.6491743
-4.6230517
-4.6230058
-4.6242658
-4.6260378
-4.6296457
-4.6230346
-4.6309213
-4.6016572
-4.6311924
-4.638062
-4.6190825
-4.6199594
-4.6215599
-4.6250542
-4.6331469
-4.6124088
-4.6128077
-4.6491743
-4.638062
-4.6560455
-4.6380658
-4.6387923
-4.6401929
-4.644137
-4.6561849
-4.6380007
-4.6265998
-4.6230517
-4.6190825
-4.6380658
-4.6201152
-4.6207404
-4.6219263
-4.6256053
-4.6386575
-4.6244724
-4.6203701
-4.6230058
-4.6199594
-4.6387923
-4.6207404
-4.6213087
-4.6223967
-4.6258055
-4.6384328
-4.6238204
-4.619999
-4.6242658
-4.6215599
-4.6401929
-4.6219263
-4.6223967
-4.6234551
-4.6268114
-4.6393365
-4.6245655
-4.6207104
-4.6260378
-4.6250542
-4.644137
-4.6256053
-4.6258055
-4.6268114
-4.630193
-4.6428158
-4.6282628
-4.6246487
-4.6296457
-4.6331469
-4.6561849
-4.6386575
-4.6384328
-4.6393365
-4.6428158
-4.6557585
-4.6417389
-4.6363456
-4.6230346
-4.6124088
-4.6380007
-4.6244724
-4.6238204
-4.6245655
-4.6282628
-4.6417389
-4.6270169
-4.5999923
-4.6309213
-4.6128077
-4.6265998
-4.6203701
-4.619999
-4.6207104
-4.6246487
-4.6363456
-4.5999923
-4.6254625
-7.4830758
-7.4509793
-7.4990082
-7.4713179
-7.4716899
-7.4731035
-7.4749104
-7.4787804
-7.4722462
-7.4807522
-7.4509793
-7.4809226
-7.4868267
-7.467016
-7.4683344
-7.4700274
-7.473558
-7.4823865
-7.4614429
-7.4618311
-7.4990082
-7.4868267
-7.5046332
-7.4858274
-7.4869562
-7.4883929
-7.4923021
-7.5053584
-7.4874137
-7.4758296
-7.4713179
-7.467016
-7.4858274
-7.4670373
-7.4680498
-7.469233
-7.4727757
-7.4868006
-7.4731009
-7.469299
-7.4716899
-7.4683344
-7.4869562
-7.4680498
-7.4689993
-7.4700715
-7.4732925
-7.4867882
-7.4725346
-7.4689279
-7.4731035
-7.4700274
-7.4883929
-7.469233
-7.4700715
-7.4711107
-7.4742692
-7.487639
-7.4731896
-7.4695282
-7.4749104
-7.473558
-7.4923021
-7.4727757
-7.4732925
-7.4742692
-7.4774509
-7.4909225
-7.4767141
-7.4734179
-7.4787804
-7.4823865
-7.5053584
-7.4868006
-7.4867882
-7.487639
-7.4909225
-7.5047552
-7.4912116
-7.4864248
-7.4722462
-7.4614429
-7.4874137
-7.4731009
-7.4725346
-7.4731896
-7.4767141
-7.4912116
-7.4772782
-7.4492292
-7.4807522
-7.4618311
-7.4758296
-7.469299
-7.4689279
-7.4695282
-7.4734179
-7.4864248
-7.4492292
-7.4752417
-10.327346
-10.295128
-10.343299
-10.314272
-10.315021
-10.316567
-10.318393
-10.322533
-10.316129
-10.325265
-10.295128
-10.325159
-10.330174
-10.309626
-10.311332
-10.313088
-10.316627
-10.326223
-10.305185
-10.305584
-10.343299
-10.330174
-10.347685
-10.328145
-10.329628
-10.33107
-10.334905
-10.349002
-10.331415
-10.319711
-10.314272
-10.309626
-10.328145
-10.308613
-10.309966
-10.311115
-10.314476
-10.329502
-10.3164
-10.312925
-10.315021
-10.311332
-10.329628
-10.309966
-10.31125
-10.312274
-10.31526
-10.329652
-10.315875
-10.312523
-10.316567
-10.313088
-10.33107
-10.311115
-10.312274
-10.313261
-10.316172
-10.330412
-10.316401
-10.31298
-10.318393
-10.316627
-10.334905
-10.314476
-10.31526
-10.316172
-10.319104
-10.333448
-10.319703
-10.316787
-10.322533
-10.326223
-10.349002
-10.329502
-10.329652
-10.330412
-10.333448
-10.348198
-10.335263
-10.331205
-10.316129
-10.305185
-10.331415
-10.3164
-10.315875
-10.316401
-10.319703
-10.335263
-10.322306
-10.293269
-10.325265
-10.305584
-10.319711
-10.312925
-10.312523
-10.31298
-10.316787
-10.331205
-10.293269
-10.319731
-12.946131
-12.914039
-12.961874
-12.931884
-12.932925
-12.934565
-12.936394
-12.940809
-12.934588
-12.944339
-12.914039
-12.943734
-12.948026
-12.926894
-12.928884
-12.93066
-12.934176
-12.944559
-12.923545
-12.92399
-12.961874
-12.948026
-12.965112
-12.944989
-12.946731
-12.948136
-12.951859
-12.967006
-12.949882
-12.93814
-12.931884
-12.926894
-12.944989
-12.924872
-12.926475
-12.927548
-12.930689
-12.946725
-12.934306
-12.93117
-12.932925
-12.928884
-12.946731
-12.926475
-12.928004
-12.928938
-12.93165
-12.946952
-12.933755
-12.930695
-12.934565
-12.93066
-12.948136
-12.927548
-12.928938
-12.929829
-12.932453
-12.947577
-12.93411
-12.930975
-12.936394
-12.934176
-12.951859
-12.930689
-12.93165
-12.932453
-12.935091
-12.950322
-12.937144
-12.934671
-12.940809
-12.944559
-12.967006
-12.946725
-12.946952
-12.947577
-12.950322
-12.966003
-12.953794
-12.950579
-12.934588
-12.923545
-12.949882
-12.934306
-12.933755
-12.93411
-12.937144
-12.953794
-12.941981
-12.912004
-12.944339
-12.92399
-12.93814
-12.93117
-12.930695
-12.930975
-12.934671
-12.950579
-12.912004
-12.938825
-15.041441
-15.009789
-15.05669
-15.026278
-15.027478
-15.029153
-15.030964
-15.035654
-15.029669
-15.039984
-15.009789
-15.038619
-15.042448
-15.020964
-15.023078
-15.024812
-15.028272
-15.039439
-15.018586
-15.01912
-15.05669
-15.042448
-15.058969
-15.03849
-15.040344
-15.041656
-15.045229
-15.061399
-15.044827
-15.033153
-15.026278
-15.020964
-15.03849
-15.018023
-15.019734
-15.020679
-15.023568
-15.040591
-15.02891
-15.026104
-15.027478
-15.023078
-15.040344
-15.019734
-15.021368
-15.02216
-15.02457
-15.040776
-15.028243
-15.025503
-15.029153
-15.024812
-15.041656
-15.020679
-15.02216
-15.0229
-15.025208
-15.04121
-15.028375
-15.025572
-15.030964
-15.028272
-15.045229
-15.023568
-15.02457
-15.025208
-15.027523
-15.043632
-15.031112
-15.029136
-15.035654
-15.039439
-15.061399
-15.040591
-15.040776
-15.04121
-15.043632
-15.060237
-15.048852
-15.046577
-15.029669
-15.018586
-15.044827
-15.02891
-15.028243
-15.028375
-15.031112
-15.048852
-15.038319
-15.007466
-15.039984
-15.01912
-15.033153
-15.026104
-15.025503
-15.025572
-15.029136
-15.046577
-15.007466
-15.034553
-16.227764
-16.196948
-16.24218
-16.212077
-16.213254
-16.214881
-16.216647
-16.221605
-16.215907
-16.226684
-16.196948
-16.224273
-16.227994
-16.206492
-16.208509
-16.21012
-16.213489
-16.225404
-16.204863
-16.205539
-16.24218
-16.227994
-16.243803
-16.223288
-16.225052
-16.226199
-16.229588
-16.246703
-16.230749
-16.219276
-16.212077
-16.206492
-16.223288
-16.2028
-16.204423
-16.205175
-16.207794
-16.225735
-16.214802
-16.212289
-16.213254
-16.208509
-16.225052
-16.204423
-16.205967
-16.206554
-16.208653
-16.22572
-16.213906
-16.211503
-16.214881
-16.21012
-16.226199
-16.205175
-16.206554
-16.207081
-16.209062
-16.225902
-16.213767
-16.211331
-16.216647
-16.213489
-16.229588
-16.207794
-16.208653
-16.209062
-16.211041
-16.227987
-16.21619
-16.214753
-16.221605
-16.225404
-16.246703
-16.225735
-16.22572
-16.225902
-16.227987
-16.245473
-16.234979
-16.23371
-16.215907
-16.204863
-16.230749
-16.214802
-16.213906
-16.213767
-16.21619
-16.234979
-16.225816
-16.194175
-16.226684
-16.205539
-16.219276
-16.212289
-16.211503
-16.211331
-16.214753
-16.23371
-16.194175
-16.221426
-16.029976
-16.000473
-16.043181
-16.014305
-16.015234
-16.016705
-16.018396
-16.023602
-16.018238
-16.029312
-16.000473
-16.025572
-16.029617
-16.008544
-16.010195
-16.01158
-16.01482
-16.0274
-16.007345
-16.00822
-16.043181
-16.029617
-16.044565
-16.02444
-16.025862
-16.026758
-16.029934
-16.047843
-16.032547
-16.021435
-16.014305
-16.008544
-16.02444
-16.004365
-16.005656
-16.006141
-16.008485
-16.027211
-16.016982
-16.014692
-16.015234
-16.010195
-16.025862
-16.005656
-16.006868
-16.007178
-16.008977
-16.026811
-16.015736
-16.013661
-16.016705
-16.01158
-16.026758
-16.006141
-16.007178
-16.007419
-16.009085
-16.026677
-16.015276
-16.013226
-16.018396
-16.01482
-16.029934
-16.008485
-16.008977
-16.009085
-16.010738
-16.028434
-16.017395
-16.01651
-16.023602
-16.0274
-16.047843
-16.027211
-16.026811
-16.026677
-16.028434
-16.046709
-16.037133
-16.036879
-16.018238
-16.007345
-16.032547
-16.016982
-16.015736
-16.015276
-16.017395
-16.037133
-16.029365
-15.997055
-16.029312
-16.00822
-16.021435
-16.014692
-16.013661
-16.013226
-16.01651
-16.036879
-15.997055
-16.024345
-13.897053
-13.869417
-13.908659
-13.882078
-13.882516
-13.883704
-13.885286
-13.890701
-13.885714
-13.896839
-13.869417
-13.891539
-13.89637
-13.876297
-13.877281
-13.878325
-13.881395
-13.894496
-13.875124
-13.876245
-13.908659
-13.89637
-13.910312
-13.891116
-13.891916
-13.892466
-13.895405
-13.913868
-13.899242
-13.888672
-13.882078
-13.876297
-13.891116
-13.871999
-13.872685
-13.872824
-13.874908
-13.894198
-13.884567
-13.88239
-13.882516
-13.877281
-13.891916
-13.872685
-13.873294
-13.873255
-13.874789
-13.893225
-13.88286
-13.881068
-13.883704
-13.878325
-13.892466
-13.872824
-13.873255
-13.873135
-13.874526
-13.892716
-13.882043
-13.880366
-13.885286
-13.881395
-13.895405
-13.874908
-13.874789
-13.874526
-13.875893
-13.894183
-13.883895
-13.883532
-13.890701
-13.894496
-13.913868
-13.894198
-13.893225
-13.892716
-13.894183
-13.913085
-13.904399
-13.905095
-13.885714
-13.875124
-13.899242
-13.884567
-13.88286
-13.882043
-13.883895
-13.904399
-13.897964
-13.865145
-13.896839
-13.876245
-13.888672
-13.88239
-13.881068
-13.880366
-13.883532
-13.905095
-13.865145
-13.892311
-9.2454376
-9.2202666
-9.2550907
-9.2319449
-9.2316588
-9.2324326
-9.2338694
-9.2394329
-9.2348545
-9.2456995
-9.2202666
-9.2387138
-9.2447515
-9.2263533
-9.2263864
-9.2269749
-9.2298369
-9.2432379
-9.2247643
-9.2261572
-9.2550907
-9.2447515
-9.2575542
-9.2399265
-9.2398373
-9.2399543
-9.2426433
-9.2613098
-9.2473297
-9.2374999
-9.2319449
-9.2263533
-9.2399265
-9.2224071
-9.2222269
-9.2219523
-9.2238136
-9.2433411
-9.2341349
-9.2319215
-9.2316588
-9.2263864
-9.2398373
-9.2222269
-9.2219744
-9.2215244
-9.2228626
-9.2416367
-9.2318934
-9.2302946
-9.2324326
-9.2269749
-9.2399543
-9.2219523
-9.2215244
-9.2209858
-9.222175
-9.2407172
-9.2307166
-9.2293518
-9.2338694
-9.2298369
-9.2426433
-9.2238136
-9.2228626
-9.222175
-9.2233304
-9.2419706
-9.2323732
-9.2324399
-9.2394329
-9.2432379
-9.2613098
-9.2433411
-9.2416367
-9.2407172
-9.2419706
-9.2612443
-9.2533531
-9.2548269
-9.2348545
-9.2247643
-9.2473297
-9.2341349
-9.2318934
-9.2307166
-9.2323732
-9.2533531
-9.2480774
-9.2149644
-9.2456995
-9.2261572
-9.2374999
-9.2319215
-9.2302946
-9.2293518
-9.2324399
-9.2548269
-9.2149644
-9.2417934
-1.5545134
-1.53239
-1.5619568
-1.5433166
-1.5421355
-1.5423839
-1.5436456
-1.5492689
-1.5451174
-1.5552636
-1.53239
-1.5466438
-1.5541654
-1.5381603
-1.5370354
-1.5370863