/*--------------------------------*- C++ -*----------------------------------*\
| =========                 |                                                 |
| \\      /  F ield         | OpenFOAM: The Open Source CFD Toolbox           |
|  \\    /   O peration     | Version:  v2106                                 |
|   \\  /    A nd           | Website:  www.openfoam.com                      |
|    \\/     M anipulation  |                                                 |
\*---------------------------------------------------------------------------*/
FoamFile
{
    version     2.0;
    format      ascii;
    arch        "LSB;label=32;scalar=64";
    class       volScalarField;
    location    "30";
    object      DT;
}
// * * * * * * * * * * * * * * * * * * * * * * * * * * * * * * * * * * * * * //

dimensions      [0 2 -1 0 0 0 0];

internalField   nonuniform List<scalar> 
4000
(
0.00054944598
0.00054944599
0.00054944598
0.00054944597
0.00054944597
0.00054944597
0.00054944597
0.00054944598
0.00054944598
0.00054944598
0.00054944599
0.00054944599
0.00054944598
0.00054944598
0.00054944598
0.00054944598
0.00054944598
0.00054944598
0.00054944598
0.00054944598
0.00054944598
0.00054944598
0.00054944597
0.00054944597
0.00054944596
0.00054944597
0.00054944597
0.00054944597
0.00054944597
0.00054944598
0.00054944597
0.00054944598
0.00054944597
0.00054944596
0.00054944596
0.00054944596
0.00054944596
0.00054944597
0.00054944597
0.00054944597
0.00054944597
0.00054944598
0.00054944596
0.00054944596
0.00054944596
0.00054944596
0.00054944596
0.00054944597
0.00054944597
0.00054944597
0.00054944597
0.00054944598
0.00054944597
0.00054944596
0.00054944596
0.00054944596
0.00054944596
0.00054944597
0.00054944597
0.00054944597
0.00054944597
0.00054944598
0.00054944597
0.00054944596
0.00054944596
0.00054944596
0.00054944597
0.00054944597
0.00054944597
0.00054944598
0.00054944598
0.00054944598
0.00054944597
0.00054944597
0.00054944597
0.00054944597
0.00054944597
0.00054944597
0.00054944598
0.00054944598
0.00054944598
0.00054944598
0.00054944597
0.00054944597
0.00054944597
0.00054944597
0.00054944597
0.00054944598
0.00054944598
0.00054944598
0.00054944598
0.00054944598
0.00054944598
0.00054944597
0.00054944597
0.00054944597
0.00054944598
0.00054944598
0.00054944598
0.00054944599
0.00057994788
0.00057994797
0.00057994787
0.00057994784
0.00057994783
0.00057994783
0.00057994784
0.00057994786
0.00057994787
0.00057994787
0.00057994797
0.00057994798
0.00057994789
0.00057994786
0.00057994785
0.00057994785
0.00057994786
0.00057994788
0.00057994791
0.0005799479
0.00057994787
0.00057994789
0.0005799478
0.00057994777
0.00057994776
0.00057994777
0.00057994778
0.00057994781
0.00057994784
0.00057994786
0.00057994784
0.00057994786
0.00057994777
0.00057994775
0.00057994774
0.00057994774
0.00057994776
0.00057994778
0.00057994782
0.00057994784
0.00057994783
0.00057994785
0.00057994776
0.00057994774
0.00057994773
0.00057994773
0.00057994775
0.00057994778
0.00057994782
0.00057994784
0.00057994783
0.00057994785
0.00057994777
0.00057994774
0.00057994773
0.00057994774
0.00057994776
0.00057994779
0.00057994782
0.00057994784
0.00057994784
0.00057994786
0.00057994778
0.00057994776
0.00057994775
0.00057994776
0.00057994778
0.0005799478
0.00057994784
0.00057994786
0.00057994786
0.00057994788
0.00057994781
0.00057994778
0.00057994778
0.00057994779
0.0005799478
0.00057994783
0.00057994787
0.00057994789
0.00057994787
0.00057994791
0.00057994784
0.00057994782
0.00057994782
0.00057994782
0.00057994784
0.00057994787
0.00057994791
0.00057994793
0.00057994787
0.0005799479
0.00057994786
0.00057994784
0.00057994784
0.00057994784
0.00057994786
0.00057994789
0.00057994793
0.00057994794
0.00060884238
0.00060884248
0.00060884232
0.00060884227
0.00060884225
0.00060884225
0.00060884227
0.00060884231
0.00060884234
0.00060884233
0.00060884248
0.00060884246
0.00060884232
0.00060884227
0.00060884225
0.00060884226
0.00060884228
0.00060884233
0.00060884238
0.00060884237
0.00060884232
0.00060884232
0.00060884218
0.00060884213
0.00060884212
0.00060884212
0.00060884215
0.0006088422
0.00060884228
0.00060884229
0.00060884227
0.00060884227
0.00060884213
0.00060884209
0.00060884207
0.00060884208
0.00060884211
0.00060884216
0.00060884224
0.00060884226
0.00060884225
0.00060884225
0.00060884212
0.00060884207
0.00060884206
0.00060884207
0.0006088421
0.00060884216
0.00060884224
0.00060884226
0.00060884225
0.00060884226
0.00060884212
0.00060884208
0.00060884207
0.00060884208
0.00060884211
0.00060884217
0.00060884225
0.00060884227
0.00060884227
0.00060884228
0.00060884215
0.00060884211
0.0006088421
0.00060884211
0.00060884215
0.0006088422
0.00060884228
0.00060884231
0.00060884231
0.00060884233
0.0006088422
0.00060884216
0.00060884216
0.00060884217
0.0006088422
0.00060884226
0.00060884234
0.00060884236
0.00060884234
0.00060884238
0.00060884228
0.00060884224
0.00060884224
0.00060884225
0.00060884228
0.00060884234
0.00060884242
0.00060884244
0.00060884233
0.00060884237
0.00060884229
0.00060884226
0.00060884226
0.00060884227
0.00060884231
0.00060884236
0.00060884244
0.00060884243
0.00063628695
0.00063628706
0.00063628684
0.00063628677
0.00063628675
0.00063628676
0.00063628679
0.00063628685
0.00063628691
0.00063628689
0.00063628706
0.00063628701
0.00063628683
0.00063628676
0.00063628674
0.00063628675
0.00063628679
0.00063628686
0.00063628695
0.00063628694
0.00063628684
0.00063628683
0.00063628664
0.00063628658
0.00063628656
0.00063628658
0.00063628662
0.0006362867
0.00063628682
0.00063628685
0.00063628677
0.00063628676
0.00063628658
0.00063628652
0.00063628651
0.00063628652
0.00063628657
0.00063628665
0.00063628677
0.00063628681
0.00063628675
0.00063628674
0.00063628656
0.00063628651
0.00063628649
0.00063628651
0.00063628656
0.00063628664
0.00063628677
0.0006362868
0.00063628676
0.00063628675
0.00063628658
0.00063628652
0.00063628651
0.00063628653
0.00063628657
0.00063628666
0.00063628679
0.00063628682
0.00063628679
0.00063628679
0.00063628662
0.00063628657
0.00063628656
0.00063628657
0.00063628662
0.00063628671
0.00063628684
0.00063628687
0.00063628685
0.00063628686
0.0006362867
0.00063628665
0.00063628664
0.00063628666
0.00063628671
0.00063628679
0.00063628692
0.00063628696
0.00063628691
0.00063628695
0.00063628682
0.00063628677
0.00063628677
0.00063628679
0.00063628684
0.00063628692
0.00063628705
0.00063628708
0.00063628689
0.00063628694
0.00063628685
0.00063628681
0.0006362868
0.00063628682
0.00063628687
0.00063628696
0.00063628708
0.00063628706
0.00066240906
0.00066240916
0.0006624089
0.00066240882
0.0006624088
0.00066240881
0.00066240886
0.00066240894
0.00066240903
0.00066240902
0.00066240916
0.00066240909
0.00066240887
0.00066240879
0.00066240877
0.00066240879
0.00066240884
0.00066240893
0.00066240907
0.00066240907
0.0006624089
0.00066240887
0.00066240865
0.00066240858
0.00066240856
0.00066240858
0.00066240864
0.00066240874
0.00066240891
0.00066240896
0.00066240882
0.00066240879
0.00066240858
0.00066240852
0.0006624085
0.00066240852
0.00066240858
0.00066240868
0.00066240886
0.00066240891
0.0006624088
0.00066240877
0.00066240856
0.0006624085
0.00066240849
0.00066240851
0.00066240857
0.00066240868
0.00066240885
0.00066240891
0.00066240881
0.00066240879
0.00066240858
0.00066240852
0.00066240851
0.00066240853
0.00066240859
0.0006624087
0.00066240888
0.00066240894
0.00066240886
0.00066240884
0.00066240864
0.00066240858
0.00066240857
0.00066240859
0.00066240866
0.00066240877
0.00066240894
0.000662409
0.00066240894
0.00066240893
0.00066240874
0.00066240868
0.00066240868
0.0006624087
0.00066240877
0.00066240888
0.00066240906
0.00066240911
0.00066240903
0.00066240907
0.00066240891
0.00066240886
0.00066240885
0.00066240888
0.00066240894
0.00066240906
0.00066240923
0.00066240928
0.00066240902
0.00066240907
0.00066240896
0.00066240891
0.00066240891
0.00066240894
0.000662409
0.00066240911
0.00066240928
0.00066240925
0.00068731407
0.00068731416
0.00068731387
0.00068731379
0.00068731376
0.00068731379
0.00068731385
0.00068731394
0.00068731406
0.00068731406
0.00068731416
0.00068731407
0.00068731382
0.00068731374
0.00068731372
0.00068731374
0.00068731381
0.00068731392
0.0006873141
0.00068731411
0.00068731387
0.00068731382
0.00068731358
0.00068731351
0.00068731349
0.00068731351
0.00068731358
0.00068731371
0.00068731392
0.00068731399
0.00068731379
0.00068731374
0.00068731351
0.00068731344
0.00068731342
0.00068731345
0.00068731352
0.00068731365
0.00068731386
0.00068731394
0.00068731376
0.00068731372
0.00068731349
0.00068731342
0.00068731341
0.00068731344
0.00068731351
0.00068731364
0.00068731386
0.00068731394
0.00068731379
0.00068731374
0.00068731351
0.00068731345
0.00068731344
0.00068731347
0.00068731354
0.00068731367
0.0006873139
0.00068731397
0.00068731385
0.00068731381
0.00068731358
0.00068731352
0.00068731351
0.00068731354
0.00068731362
0.00068731375
0.00068731397
0.00068731405
0.00068731394
0.00068731392
0.00068731371
0.00068731365
0.00068731364
0.00068731367
0.00068731375
0.00068731388
0.00068731411
0.00068731419
0.00068731406
0.0006873141
0.00068731392
0.00068731386
0.00068731386
0.0006873139
0.00068731397
0.00068731411
0.00068731433
0.0006873144
0.00068731406
0.00068731411
0.00068731399
0.00068731394
0.00068731394
0.00068731397
0.00068731405
0.00068731419
0.0006873144
0.00068731438
0.0007110908
0.00071109088
0.00071109056
0.00071109047
0.00071109046
0.00071109048
0.00071109056
0.00071109067
0.00071109082
0.00071109083
0.00071109088
0.00071109077
0.0007110905
0.00071109042
0.0007110904
0.00071109043
0.00071109051
0.00071109064
0.00071109085
0.00071109088
0.00071109056
0.0007110905
0.00071109023
0.00071109016
0.00071109015
0.00071109018
0.00071109026
0.0007110904
0.00071109065
0.00071109075
0.00071109047
0.00071109042
0.00071109016
0.00071109009
0.00071109008
0.00071109011
0.00071109019
0.00071109034
0.0007110906
0.0007110907
0.00071109046
0.0007110904
0.00071109015
0.00071109008
0.00071109007
0.00071109011
0.00071109019
0.00071109034
0.0007110906
0.00071109069
0.00071109048
0.00071109043
0.00071109018
0.00071109011
0.00071109011
0.00071109014
0.00071109023
0.00071109038
0.00071109064
0.00071109074
0.00071109056
0.00071109051
0.00071109026
0.00071109019
0.00071109019
0.00071109023
0.00071109031
0.00071109046
0.00071109072
0.00071109083
0.00071109067
0.00071109064
0.0007110904
0.00071109034
0.00071109034
0.00071109038
0.00071109046
0.00071109061
0.00071109088
0.00071109098
0.00071109082
0.00071109085
0.00071109065
0.0007110906
0.0007110906
0.00071109064
0.00071109072
0.00071109088
0.00071109114
0.00071109124
0.00071109083
0.00071109088
0.00071109075
0.0007110907
0.00071109069
0.00071109074
0.00071109083
0.00071109098
0.00071109124
0.00071109122
0.00073381537
0.00073381545
0.00073381511
0.00073381502
0.00073381501
0.00073381505
0.00073381513
0.00073381526
0.00073381543
0.00073381545
0.00073381545
0.00073381532
0.00073381503
0.00073381496
0.00073381495
0.00073381498
0.00073381507
0.00073381522
0.00073381546
0.0007338155
0.00073381511
0.00073381503
0.00073381476
0.00073381469
0.00073381468
0.00073381472
0.0007338148
0.00073381496
0.00073381525
0.00073381536
0.00073381502
0.00073381496
0.00073381469
0.00073381462
0.00073381462
0.00073381466
0.00073381474
0.0007338149
0.00073381519
0.00073381531
0.00073381501
0.00073381495
0.00073381468
0.00073381462
0.00073381461
0.00073381465
0.00073381474
0.0007338149
0.00073381519
0.00073381531
0.00073381505
0.00073381498
0.00073381472
0.00073381466
0.00073381465
0.0007338147
0.00073381479
0.00073381495
0.00073381524
0.00073381536
0.00073381513
0.00073381507
0.0007338148
0.00073381474
0.00073381474
0.00073381479
0.00073381488
0.00073381504
0.00073381533
0.00073381546
0.00073381526
0.00073381522
0.00073381496
0.0007338149
0.0007338149
0.00073381495
0.00073381504
0.0007338152
0.0007338155
0.00073381563
0.00073381543
0.00073381546
0.00073381525
0.00073381519
0.00073381519
0.00073381524
0.00073381533
0.0007338155
0.00073381581
0.00073381593
0.00073381545
0.0007338155
0.00073381536
0.00073381531
0.00073381531
0.00073381536
0.00073381546
0.00073381563
0.00073381593
0.00073381591
0.0007555541
0.00075555417
0.00075555381
0.00075555373
0.00075555373
0.00075555377
0.00075555386
0.000755554
0.00075555419
0.00075555423
0.00075555417
0.00075555403
0.00075555373
0.00075555366
0.00075555366
0.0007555537
0.00075555379
0.00075555395
0.00075555422
0.00075555428
0.00075555381
0.00075555373
0.00075555344
0.00075555338
0.00075555338
0.00075555342
0.00075555352
0.00075555368
0.000755554
0.00075555413
0.00075555373
0.00075555366
0.00075555338
0.00075555332
0.00075555332
0.00075555337
0.00075555346
0.00075555363
0.00075555394
0.00075555408
0.00075555373
0.00075555366
0.00075555338
0.00075555332
0.00075555333
0.00075555337
0.00075555346
0.00075555363
0.00075555395
0.00075555408
0.00075555377
0.0007555537
0.00075555342
0.00075555337
0.00075555337
0.00075555342
0.00075555351
0.00075555368
0.000755554
0.00075555413
0.00075555386
0.00075555379
0.00075555352
0.00075555346
0.00075555346
0.00075555351
0.0007555536
0.00075555378
0.0007555541
0.00075555423
0.000755554
0.00075555395
0.00075555368
0.00075555363
0.00075555363
0.00075555368
0.00075555378
0.00075555395
0.00075555427
0.00075555442
0.00075555419
0.00075555422
0.000755554
0.00075555394
0.00075555395
0.000755554
0.0007555541
0.00075555427
0.00075555461
0.00075555475
0.00075555423
0.00075555428
0.00075555413
0.00075555408
0.00075555408
0.00075555413
0.00075555423
0.00075555442
0.00075555475
0.00075555473
0.00077636551
0.00077636558
0.00077636521
0.00077636514
0.00077636514
0.00077636519
0.00077636529
0.00077636544
0.00077636564
0.00077636568
0.00077636558
0.00077636543
0.00077636512
0.00077636506
0.00077636507
0.00077636511
0.00077636521
0.00077636538
0.00077636566
0.00077636573
0.00077636521
0.00077636512
0.00077636484
0.00077636478
0.00077636479
0.00077636484
0.00077636493
0.0007763651
0.00077636544
0.00077636558
0.00077636514
0.00077636506
0.00077636478
0.00077636473
0.00077636474
0.00077636479
0.00077636488
0.00077636505
0.00077636539
0.00077636554
0.00077636514
0.00077636507
0.00077636479
0.00077636474
0.00077636475
0.0007763648
0.00077636489
0.00077636506
0.00077636539
0.00077636554
0.00077636519
0.00077636511
0.00077636484
0.00077636479
0.0007763648
0.00077636485
0.00077636494
0.00077636511
0.00077636544
0.00077636559
0.00077636529
0.00077636521
0.00077636493
0.00077636488
0.00077636489
0.00077636494
0.00077636503
0.0007763652
0.00077636554
0.0007763657
0.00077636544
0.00077636538
0.0007763651
0.00077636505
0.00077636506
0.00077636511
0.0007763652
0.00077636538
0.00077636573
0.00077636589
0.00077636564
0.00077636566
0.00077636544
0.00077636539
0.00077636539
0.00077636544
0.00077636554
0.00077636573
0.00077636608
0.00077636624
0.00077636568
0.00077636573
0.00077636558
0.00077636554
0.00077636554
0.00077636559
0.0007763657
0.00077636589
0.00077636624
0.00077636623
0.00079630197
0.00079630203
0.00079630166
0.0007963016
0.00079630161
0.00079630166
0.00079630176
0.00079630191
0.00079630213
0.00079630217
0.00079630203
0.00079630187
0.00079630157
0.00079630152
0.00079630153
0.00079630158
0.00079630168
0.00079630185
0.00079630215
0.00079630223
0.00079630166
0.00079630157
0.00079630128
0.00079630124
0.00079630126
0.00079630131
0.0007963014
0.00079630157
0.00079630192
0.00079630208
0.0007963016
0.00079630152
0.00079630124
0.0007963012
0.00079630122
0.00079630127
0.00079630136
0.00079630153
0.00079630187
0.00079630203
0.00079630161
0.00079630153
0.00079630126
0.00079630122
0.00079630123
0.00079630128
0.00079630137
0.00079630154
0.00079630188
0.00079630204
0.00079630166
0.00079630158
0.00079630131
0.00079630127
0.00079630128
0.00079630133
0.00079630142
0.00079630159
0.00079630193
0.00079630209
0.00079630176
0.00079630168
0.0007963014
0.00079630136
0.00079630137
0.00079630142
0.00079630151
0.00079630168
0.00079630203
0.00079630219
0.00079630191
0.00079630185
0.00079630157
0.00079630153
0.00079630154
0.00079630159
0.00079630168
0.00079630185
0.00079630221
0.00079630238
0.00079630213
0.00079630215
0.00079630192
0.00079630187
0.00079630188
0.00079630193
0.00079630203
0.00079630221
0.00079630258
0.00079630276
0.00079630217
0.00079630223
0.00079630208
0.00079630203
0.00079630204
0.00079630209
0.00079630219
0.00079630238
0.00079630276
0.00079630275
0.00081541084
0.0008154109
0.00081541053
0.00081541048
0.0008154105
0.00081541056
0.00081541066
0.00081541081
0.00081541103
0.00081541108
0.0008154109
0.00081541074
0.00081541044
0.00081541041
0.00081541043
0.00081541048
0.00081541058
0.00081541074
0.00081541105
0.00081541114
0.00081541053
0.00081541044
0.00081541017
0.00081541014
0.00081541016
0.00081541021
0.0008154103
0.00081541047
0.00081541082
0.00081541099
0.00081541048
0.00081541041
0.00081541014
0.00081541011
0.00081541013
0.00081541018
0.00081541027
0.00081541043
0.00081541078
0.00081541095
0.0008154105
0.00081541043
0.00081541016
0.00081541013
0.00081541015
0.0008154102
0.00081541028
0.00081541044
0.00081541079
0.00081541095
0.00081541056
0.00081541048
0.00081541021
0.00081541018
0.0008154102
0.00081541025
0.00081541033
0.00081541049
0.00081541084
0.000815411
0.00081541066
0.00081541058
0.0008154103
0.00081541027
0.00081541028
0.00081541033
0.00081541042
0.00081541058
0.00081541093
0.0008154111
0.00081541081
0.00081541074
0.00081541047
0.00081541043
0.00081541044
0.00081541049
0.00081541058
0.00081541074
0.00081541111
0.00081541129
0.00081541103
0.00081541105
0.00081541082
0.00081541078
0.00081541079
0.00081541084
0.00081541093
0.00081541111
0.00081541148
0.00081541168
0.00081541108
0.00081541114
0.00081541099
0.00081541095
0.00081541095
0.000815411
0.0008154111
0.00081541129
0.00081541168
0.00081541167
0.00083373547
0.00083373553
0.00083373517
0.00083373513
0.00083373516
0.00083373521
0.00083373531
0.00083373546
0.00083373568
0.00083373573
0.00083373553
0.00083373537
0.00083373508
0.00083373506
0.00083373508
0.00083373514
0.00083373523
0.00083373539
0.0008337357
0.00083373579
0.00083373517
0.00083373508
0.00083373481
0.00083373479
0.00083373482
0.00083373488
0.00083373496
0.00083373512
0.00083373548
0.00083373564
0.00083373513
0.00083373506
0.00083373479
0.00083373478
0.00083373481
0.00083373486
0.00083373494
0.00083373509
0.00083373544
0.00083373561
0.00083373516
0.00083373508
0.00083373482
0.00083373481
0.00083373484
0.00083373488
0.00083373496
0.00083373511
0.00083373545
0.00083373561
0.00083373521
0.00083373514
0.00083373488
0.00083373486
0.00083373488
0.00083373493
0.000833735
0.00083373515
0.00083373549
0.00083373566
0.00083373531
0.00083373523
0.00083373496
0.00083373494
0.00083373496
0.000833735
0.00083373508
0.00083373523
0.00083373558
0.00083373574
0.00083373546
0.00083373539
0.00083373512
0.00083373509
0.00083373511
0.00083373515
0.00083373523
0.00083373538
0.00083373574
0.00083373593
0.00083373568
0.0008337357
0.00083373548
0.00083373544
0.00083373545
0.00083373549
0.00083373558
0.00083373574
0.00083373612
0.00083373632
0.00083373573
0.00083373579
0.00083373564
0.00083373561
0.00083373561
0.00083373566
0.00083373574
0.00083373593
0.00083373632
0.00083373631
0.00085131587
0.00085131593
0.00085131558
0.00085131556
0.00085131559
0.00085131565
0.00085131574
0.00085131589
0.0008513161
0.00085131615
0.00085131593
0.00085131578
0.0008513155
0.00085131549
0.00085131553
0.00085131558
0.00085131567
0.00085131582
0.00085131613
0.00085131622
0.00085131558
0.0008513155
0.00085131525
0.00085131524
0.00085131528
0.00085131533
0.00085131541
0.00085131556
0.00085131591
0.00085131607
0.00085131556
0.00085131549
0.00085131524
0.00085131524
0.00085131528
0.00085131532
0.00085131539
0.00085131553
0.00085131587
0.00085131604
0.00085131559
0.00085131553
0.00085131528
0.00085131528
0.00085131531
0.00085131535
0.00085131542
0.00085131555
0.00085131589
0.00085131605
0.00085131565
0.00085131558
0.00085131533
0.00085131532
0.00085131535
0.00085131539
0.00085131546
0.00085131559
0.00085131592
0.00085131608
0.00085131574
0.00085131567
0.00085131541
0.00085131539
0.00085131542
0.00085131546
0.00085131552
0.00085131565
0.00085131599
0.00085131616
0.00085131589
0.00085131582
0.00085131556
0.00085131553
0.00085131555
0.00085131559
0.00085131565
0.00085131579
0.00085131615
0.00085131633
0.0008513161
0.00085131613
0.00085131591
0.00085131587
0.00085131589
0.00085131592
0.00085131599
0.00085131615
0.00085131652
0.00085131673
0.00085131615
0.00085131622
0.00085131607
0.00085131604
0.00085131605
0.00085131608
0.00085131616
0.00085131633
0.00085131673
0.00085131671
0.00086818936
0.00086818942
0.00086818908
0.00086818908
0.00086818912
0.00086818918
0.00086818926
0.00086818939
0.0008681896
0.00086818965
0.00086818942
0.00086818928
0.00086818902
0.00086818902
0.00086818906
0.00086818911
0.00086818919
0.00086818933
0.00086818963
0.00086818972
0.00086818908
0.00086818902
0.00086818877
0.00086818878
0.00086818883
0.00086818887
0.00086818894
0.00086818908
0.00086818942
0.00086818958
0.00086818908
0.00086818902
0.00086818878
0.0008681888
0.00086818883
0.00086818888
0.00086818894
0.00086818906
0.00086818939
0.00086818955
0.00086818912
0.00086818906
0.00086818883
0.00086818883
0.00086818887
0.00086818891
0.00086818896
0.00086818908
0.0008681894
0.00086818955
0.00086818918
0.00086818911
0.00086818887
0.00086818888
0.00086818891
0.00086818895
0.000868189
0.00086818911
0.00086818943
0.00086818958
0.00086818926
0.00086818919
0.00086818894
0.00086818894
0.00086818896
0.000868189
0.00086818905
0.00086818916
0.00086818949
0.00086818965
0.00086818939
0.00086818933
0.00086818908
0.00086818906
0.00086818908
0.00086818911
0.00086818916
0.00086818928
0.00086818962
0.0008681898
0.0008681896
0.00086818963
0.00086818942
0.00086818939
0.0008681894
0.00086818943
0.00086818949
0.00086818962
0.00086818999
0.0008681902
0.00086818965
0.00086818972
0.00086818958
0.00086818955
0.00086818955
0.00086818958
0.00086818965
0.0008681898
0.0008681902
0.00086819018
0.00088439098
0.00088439105
0.00088439073
0.00088439073
0.00088439078
0.00088439084
0.00088439091
0.00088439103
0.00088439123
0.00088439127
0.00088439105
0.00088439091
0.00088439067
0.00088439068
0.00088439073
0.00088439078
0.00088439085
0.00088439098
0.00088439127
0.00088439135
0.00088439073
0.00088439067
0.00088439044
0.00088439047
0.00088439051
0.00088439056
0.00088439061
0.00088439073
0.00088439106
0.00088439121
0.00088439073
0.00088439068
0.00088439047
0.00088439049
0.00088439053
0.00088439057
0.00088439062
0.00088439072
0.00088439103
0.00088439118
0.00088439078
0.00088439073
0.00088439051
0.00088439053
0.00088439057
0.00088439061
0.00088439065
0.00088439074
0.00088439105
0.00088439119
0.00088439084
0.00088439078
0.00088439056
0.00088439057
0.00088439061
0.00088439064
0.00088439067
0.00088439076
0.00088439107
0.00088439121
0.00088439091
0.00088439085
0.00088439061
0.00088439062
0.00088439065
0.00088439067
0.00088439071
0.0008843908
0.00088439111
0.00088439126
0.00088439103
0.00088439098
0.00088439073
0.00088439072
0.00088439074
0.00088439076
0.0008843908
0.0008843909
0.00088439123
0.0008843914
0.00088439123
0.00088439127
0.00088439106
0.00088439103
0.00088439105
0.00088439107
0.00088439111
0.00088439123
0.00088439158
0.00088439178
0.00088439127
0.00088439135
0.00088439121
0.00088439118
0.00088439119
0.00088439121
0.00088439126
0.0008843914
0.00088439178
0.00088439176
0.00089995391
0.00089995399
0.00089995368
0.0008999537
0.00089995375
0.00089995381
0.00089995387
0.00089995398
0.00089995417
0.0008999542
0.00089995399
0.00089995386
0.00089995364
0.00089995367
0.00089995372
0.00089995377
0.00089995382
0.00089995393
0.00089995421
0.00089995428
0.00089995368
0.00089995364
0.00089995343
0.00089995346
0.00089995352
0.00089995356
0.0008999536
0.0008999537
0.00089995401
0.00089995415
0.0008999537
0.00089995367
0.00089995346
0.0008999535
0.00089995355
0.00089995358
0.00089995361
0.00089995369
0.00089995399
0.00089995413
0.00089995375
0.00089995372
0.00089995352
0.00089995355
0.00089995359
0.00089995362
0.00089995364
0.00089995371
0.000899954
0.00089995413
0.00089995381
0.00089995377
0.00089995356
0.00089995358
0.00089995362
0.00089995364
0.00089995366
0.00089995373
0.00089995401
0.00089995414
0.00089995387
0.00089995382
0.0008999536
0.00089995361
0.00089995364
0.00089995366
0.00089995368
0.00089995375
0.00089995404
0.00089995418
0.00089995398
0.00089995393
0.0008999537
0.00089995369
0.00089995371
0.00089995373
0.00089995375
0.00089995383
0.00089995413
0.00089995429
0.00089995417
0.00089995421
0.00089995401
0.00089995399
0.000899954
0.00089995401
0.00089995404
0.00089995413
0.00089995447
0.00089995466
0.0008999542
0.00089995428
0.00089995415
0.00089995413
0.00089995413
0.00089995414
0.00089995418
0.00089995429
0.00089995466
0.00089995464
0.00091490977
0.00091490985
0.00091490957
0.0009149096
0.00091490965
0.0009149097
0.00091490976
0.00091490985
0.00091491002
0.00091491005
0.00091490985
0.00091490974
0.00091490953
0.00091490957
0.00091490963
0.00091490967
0.00091490972
0.00091490981
0.00091491006
0.00091491013
0.00091490957
0.00091490953
0.00091490934
0.00091490939
0.00091490944
0.00091490948
0.00091490951
0.00091490959
0.00091490987
0.00091491001
0.0009149096
0.00091490957
0.00091490939
0.00091490944
0.00091490949
0.00091490951
0.00091490953
0.00091490959
0.00091490986
0.00091490999
0.00091490965
0.00091490963
0.00091490944
0.00091490949
0.00091490953
0.00091490955
0.00091490956
0.00091490961
0.00091490987
0.00091490999
0.0009149097
0.00091490967
0.00091490948
0.00091490951
0.00091490955
0.00091490957
0.00091490957
0.00091490961
0.00091490987
0.00091490999
0.00091490976
0.00091490972
0.00091490951
0.00091490953
0.00091490956
0.00091490957
0.00091490957
0.00091490962
0.00091490988
0.00091491001
0.00091490985
0.00091490981
0.00091490959
0.00091490959
0.00091490961
0.00091490961
0.00091490962
0.00091490967
0.00091490995
0.0009149101
0.00091491002
0.00091491006
0.00091490987
0.00091490986
0.00091490987
0.00091490987
0.00091490988
0.00091490995
0.00091491027
0.00091491046
0.00091491005
0.00091491013
0.00091491001
0.00091490999
0.00091490999
0.00091490999
0.00091491001
0.0009149101
0.00091491046
0.00091491042
0.00092928885
0.00092928894
0.00092928867
0.00092928872
0.00092928878
0.00092928882
0.00092928887
0.00092928894
0.0009292891
0.00092928911
0.00092928894
0.00092928884
0.00092928865
0.0009292887
0.00092928876
0.0009292888
0.00092928883
0.0009292889
0.00092928914
0.00092928919
0.00092928867
0.00092928865
0.00092928848
0.00092928854
0.0009292886
0.00092928863
0.00092928864
0.0009292887
0.00092928896
0.00092928908
0.00092928872
0.0009292887
0.00092928854
0.0009292886
0.00092928865
0.00092928867
0.00092928867
0.0009292887
0.00092928895
0.00092928906
0.00092928878
0.00092928876
0.0009292886
0.00092928865
0.00092928869
0.00092928871
0.0009292887
0.00092928872
0.00092928896
0.00092928906
0.00092928882
0.0009292888
0.00092928863
0.00092928867
0.00092928871
0.00092928871
0.0009292887
0.00092928872
0.00092928895
0.00092928905
0.00092928887
0.00092928883
0.00092928864
0.00092928867
0.0009292887
0.0009292887
0.00092928868
0.0009292887
0.00092928894
0.00092928905
0.00092928894
0.0009292889
0.0009292887
0.0009292887
0.00092928872
0.00092928872
0.0009292887
0.00092928873
0.00092928899
0.00092928913
0.0009292891
0.00092928914
0.00092928896
0.00092928895
0.00092928896
0.00092928895
0.00092928894
0.00092928899
0.00092928928
0.00092928946
0.00092928911
0.00092928919
0.00092928908
0.00092928906
0.00092928906
0.00092928905
0.00092928905
0.00092928913
0.00092928946
0.00092928942
0.00094312035
0.00094312044
0.0009431202
0.00094312025
0.00094312031
0.00094312035
0.00094312038
0.00094312044
0.00094312058
0.00094312058
0.00094312044
0.00094312036
0.00094312019
0.00094312025
0.00094312031
0.00094312034
0.00094312036
0.00094312041
0.00094312063
0.00094312067
0.0009431202
0.00094312019
0.00094312004
0.0009431201
0.00094312016
0.00094312018
0.00094312018
0.00094312022
0.00094312046
0.00094312057
0.00094312025
0.00094312025
0.0009431201
0.00094312017
0.00094312022
0.00094312024
0.00094312022
0.00094312023
0.00094312045
0.00094312055
0.00094312031
0.00094312031
0.00094312016
0.00094312022
0.00094312027
0.00094312027
0.00094312025
0.00094312025
0.00094312046
0.00094312054
0.00094312035
0.00094312034
0.00094312018
0.00094312024
0.00094312027
0.00094312027
0.00094312024
0.00094312023
0.00094312044
0.00094312052
0.00094312038
0.00094312036
0.00094312018
0.00094312022
0.00094312025
0.00094312024
0.0009431202
0.0009431202
0.00094312041
0.00094312051
0.00094312044
0.00094312041
0.00094312022
0.00094312023
0.00094312025
0.00094312023
0.0009431202
0.00094312021
0.00094312044
0.00094312056
0.00094312058
0.00094312063
0.00094312046
0.00094312045
0.00094312046
0.00094312044
0.00094312041
0.00094312044
0.00094312071
0.00094312087
0.00094312058
0.00094312067
0.00094312057
0.00094312055
0.00094312054
0.00094312052
0.00094312051
0.00094312056
0.00094312087
0.00094312082
0.00095643251
0.00095643261
0.00095643239
0.00095643245
0.00095643252
0.00095643255
0.00095643257
0.00095643261
0.00095643273
0.00095643272
0.00095643261
0.00095643254
0.00095643239
0.00095643246
0.00095643252
0.00095643255
0.00095643255
0.00095643259
0.00095643278
0.00095643281
0.00095643239
0.00095643239
0.00095643226
0.00095643234
0.00095643239
0.00095643241
0.00095643239
0.00095643241
0.00095643262
0.00095643271
0.00095643245
0.00095643246
0.00095643234
0.00095643241
0.00095643246
0.00095643247
0.00095643244
0.00095643242
0.00095643262
0.0009564327
0.00095643252
0.00095643252
0.00095643239
0.00095643246
0.00095643251
0.0009564325
0.00095643246
0.00095643244
0.00095643262
0.00095643269
0.00095643255
0.00095643255
0.00095643241
0.00095643247
0.0009564325
0.00095643249
0.00095643244
0.00095643241
0.00095643259
0.00095643266
0.00095643257
0.00095643255
0.00095643239
0.00095643244
0.00095643246
0.00095643244
0.00095643239
0.00095643236
0.00095643255
0.00095643262
0.00095643261
0.00095643259
0.00095643241
0.00095643242
0.00095643244
0.00095643241
0.00095643236
0.00095643235
0.00095643255
0.00095643265
0.00095643273
0.00095643278
0.00095643262
0.00095643262
0.00095643262
0.00095643259
0.00095643255
0.00095643255
0.00095643279
0.00095643294
0.00095643272