/*--------------------------------*- C++ -*----------------------------------*\
| =========                 |                                                 |
| \\      /  F ield         | OpenFOAM: The Open Source CFD Toolbox           |
|  \\    /   O peration     | Version:  v2106                                 |
|   \\  /    A nd           | Website:  www.openfoam.com                      |
|    \\/     M anipulation  |                                                 |
\*---------------------------------------------------------------------------*/
FoamFile
{
    version     2.0;
    format      ascii;
    arch        "LSB;label=32;scalar=64";
    class       volVectorField;
    location    "30";
    object      flux;
}
// * * * * * * * * * * * * * * * * * * * * * * * * * * * * * * * * * * * * * //

dimensions      [0 1 -1 1 0 0 0];

internalField   nonuniform List<vector> 
4000
(
(1.4014858e-07 1.4014858e-07 0.40554432)
(2.0565169e-08 -4.1685159e-09 0.40554561)
(-2.3254477e-07 1.942663e-08 0.40554427)
(-5.8428389e-08 2.2375889e-08 0.40554389)
(-1.3771184e-08 2.3102421e-08 0.40554375)
(1.7633729e-08 2.3896547e-08 0.40554377)
(4.0289707e-08 2.5561073e-08 0.4055439)
(4.6162895e-08 2.9521492e-08 0.40554411)
(2.4938038e-08 3.6819895e-08 0.4055443)
(2.1341662e-09 3.8594828e-08 0.40554431)
(-4.1685147e-09 2.0565169e-08 0.40554561)
(-1.6051776e-07 -1.6051776e-07 0.40554563)
(-1.9272817e-07 -1.1983075e-07 0.40554448)
(-5.2914702e-08 -1.1364299e-07 0.40554413)
(-1.1490198e-08 -1.1121947e-07 0.405544)
(2.1321707e-08 -1.084737e-07 0.40554403)
(4.8727125e-08 -1.0328408e-07 0.40554418)
(6.3051127e-08 -9.109395e-08 0.40554444)
(3.8548042e-08 -6.4128462e-08 0.40554473)
(3.9090998e-09 -2.9893101e-08 0.4055447)
(1.942663e-08 -2.3254477e-07 0.40554427)
(-1.1983075e-07 -1.9272817e-07 0.40554448)
(-1.8567001e-07 -1.8567001e-07 0.40554337)
(-4.9817102e-08 -1.8243011e-07 0.40554304)
(-8.601894e-09 -1.7974498e-07 0.40554292)
(2.5569114e-08 -1.7679075e-07 0.40554296)
(5.7669455e-08 -1.7241858e-07 0.40554314)
(8.5318515e-08 -1.6403746e-07 0.40554346)
(8.6138886e-08 -1.4547924e-07 0.40554387)
(2.495774e-08 -1.1192428e-07 0.40554409)
(2.2375889e-08 -5.8428389e-08 0.40554389)
(-1.1364299e-07 -5.2914707e-08 0.40554413)
(-1.8243011e-07 -4.9817104e-08 0.40554304)
(-4.6989674e-08 -4.6989675e-08 0.40554272)
(-5.850838e-09 -4.4369917e-08 0.40554262)
(2.864811e-08 -4.1745561e-08 0.40554267)
(6.1480413e-08 -3.8803204e-08 0.40554286)
(8.9990462e-08 -3.5364034e-08 0.40554319)
(9.0661222e-08 -3.1659091e-08 0.40554364)
(2.6279071e-08 -2.9153064e-08 0.40554388)
(2.3102418e-08 -1.3771184e-08 0.40554375)
(-1.1121947e-07 -1.1490197e-08 0.405544)
(-1.7974497e-07 -8.6018923e-09 0.40554292)
(-4.4369915e-08 -5.8508374e-09 0.40554262)
(-3.3577804e-09 -3.3577804e-09 0.40554252)
(3.1135827e-08 -1.067231e-09 0.40554258)
(6.4050982e-08 1.1441641e-09 0.40554279)
(9.2462629e-08 3.2847533e-09 0.40554313)
(9.2349856e-08 5.0906152e-09 0.40554358)
(2.6628425e-08 5.9218799e-09 0.40554383)
(2.3896546e-08 1.763373e-08 0.40554377)
(-1.084737e-07 2.132171e-08 0.40554403)
(-1.7679075e-07 2.5569116e-08 0.40554296)
(-4.1745563e-08 2.8648111e-08 0.40554267)
(-1.0672315e-09 3.1135829e-08 0.40554258)
(3.3150055e-08 3.3150054e-08 0.40554265)
(6.5832397e-08 3.4788714e-08 0.40554287)
(9.3936914e-08 3.6068847e-08 0.40554322)
(9.3298349e-08 3.691088e-08 0.40554367)
(2.6833248e-08 3.7244484e-08 0.40554392)
(2.5561072e-08 4.0289706e-08 0.4055439)
(-1.0328408e-07 4.8727123e-08 0.40554418)
(-1.7241857e-07 5.7669458e-08 0.40554314)
(-3.8803202e-08 6.1480414e-08 0.40554286)
(1.1441626e-09 6.4050982e-08 0.40554279)
(3.4788713e-08 6.5832396e-08 0.40554287)
(6.6969775e-08 6.6969772e-08 0.40554308)
(9.4584794e-08 6.746955e-08 0.40554344)
(9.3525494e-08 6.7306292e-08 0.4055439)
(2.6850827e-08 6.6817052e-08 0.40554415)
(2.9521491e-08 4.6162894e-08 0.40554411)
(-9.1093944e-08 6.3051131e-08 0.40554444)
(-1.6403746e-07 8.5318519e-08 0.40554346)
(-3.5364039e-08 8.9990461e-08 0.40554319)
(3.2847512e-09 9.2462627e-08 0.40554313)
(3.6068845e-08 9.3936912e-08 0.40554322)
(6.7469551e-08 9.4584795e-08 0.40554344)
(9.4273433e-08 9.4273433e-08 0.40554379)
(9.264585e-08 9.2698429e-08 0.40554425)
(2.6507088e-08 9.035578e-08 0.40554449)
(3.6819896e-08 2.493804e-08 0.4055443)
(-6.4128458e-08 3.8548043e-08 0.40554473)
(-1.4547924e-07 8.6138877e-08 0.40554387)
(-3.1659095e-08 9.066122e-08 0.40554364)
(5.0906147e-09 9.2349856e-08 0.40554358)
(3.6910882e-08 9.3298348e-08 0.40554367)
(6.7306296e-08 9.3525498e-08 0.4055439)
(9.2698428e-08 9.2645851e-08 0.40554425)
(8.960784e-08 8.960784e-08 0.4055447)
(2.5289061e-08 8.3733428e-08 0.40554492)
(3.8594827e-08 2.1341668e-09 0.40554431)
(-2.9893106e-08 3.9090976e-09 0.4055447)
(-1.1192428e-07 2.4957735e-08 0.40554409)
(-2.915306e-08 2.6279071e-08 0.40554388)
(5.9218793e-09 2.6628425e-08 0.40554383)
(3.7244486e-08 2.6833248e-08 0.40554392)
(6.6817054e-08 2.6850828e-08 0.40554415)
(9.0355775e-08 2.6507087e-08 0.40554449)
(8.3733428e-08 2.528906e-08 0.40554492)
(2.2590813e-08 2.2590812e-08 0.40554511)
(9.0524123e-07 9.0524123e-07 0.86117043)
(-1.4120764e-07 3.444031e-08 0.86117187)
(-1.9608933e-06 1.5576903e-07 0.86116956)
(-6.2593144e-07 1.7900868e-07 0.86116878)
(-1.4512518e-07 1.8652278e-07 0.8611685)
(1.8214996e-07 1.9456768e-07 0.86116856)
(4.1492616e-07 2.1149375e-07 0.86116888)
(4.7445376e-07 2.5297647e-07 0.86116939)
(2.2337252e-07 3.3008466e-07 0.86116986)
(4.5156249e-10 2.9063331e-07 0.86116964)
(3.4440311e-08 -1.4120764e-07 0.86117187)
(-1.2654161e-06 -1.2654161e-06 0.86117162)
(-1.7440408e-06 -1.0330057e-06 0.86116955)
(-5.7980083e-07 -9.7760908e-07 0.86116882)
(-1.2178668e-07 -9.5235872e-07 0.86116857)
(2.1960642e-07 -9.2474084e-07 0.86116864)
(5.0253935e-07 -8.7248297e-07 0.86116901)
(6.5234013e-07 -7.4669291e-07 0.86116965)
(2.7985778e-07 -4.6400148e-07 0.86117043)
(-3.8999785e-08 -2.4061702e-07 0.86117022)
(1.5576903e-07 -1.9608933e-06 0.86116956)
(-1.0330057e-06 -1.7440408e-06 0.86116955)
(-1.6730863e-06 -1.6730863e-06 0.86116756)
(-5.4528448e-07 -1.6367627e-06 0.86116686)
(-9.2256957e-08 -1.6090795e-06 0.86116663)
(2.6202569e-07 -1.5795644e-06 0.86116673)
(5.9297407e-07 -1.5359949e-06 0.86116714)
(8.8293521e-07 -1.4506444e-06 0.86116788)
(7.2944837e-07 -1.2529138e-06 0.86116895)
(1.4937452e-07 -9.3902987e-07 0.8611692)
(1.7900868e-07 -6.2593144e-07 0.86116878)
(-9.7760908e-07 -5.7980082e-07 0.86116882)
(-1.6367627e-06 -5.4528448e-07 0.86116686)
(-5.1579399e-07 -5.1579399e-07 0.8611662)
(-6.458839e-08 -4.893751e-07 0.86116599)
(2.9269108e-07 -4.6318541e-07 0.86116611)
(6.3145935e-07 -4.3392455e-07 0.86116655)
(9.3542122e-07 -3.9914129e-07 0.86116733)
(7.9147239e-07 -3.5628844e-07 0.86116845)
(1.7025618e-07 -3.1856762e-07 0.86116876)
(1.8652278e-07 -1.4512518e-07 0.8611685)
(-9.5235872e-07 -1.2178667e-07 0.86116857)
(-1.6090795e-06 -9.2256953e-08 0.86116663)
(-4.893751e-07 -6.458839e-08 0.86116599)
(-3.9648372e-08 -3.9648376e-08 0.8611658)
(3.1747624e-07 -1.6776702e-08 0.86116595)
(6.5701819e-07 5.2513202e-09 0.86116641)
(9.6057132e-07 2.6543345e-08 0.86116721)
(8.1002205e-07 4.5098254e-08 0.86116835)
(1.7452174e-07 5.4524177e-08 0.86116867)
(1.9456769e-07 1.8214996e-07 0.86116856)
(-9.2474084e-07 2.1960642e-07 0.86116864)
(-1.5795644e-06 2.620257e-07 0.86116673)
(-4.6318541e-07 2.9269108e-07 0.86116611)
(-1.6776701e-08 3.1747624e-07 0.86116595)
(3.3759077e-07 3.3759077e-07 0.86116611)
(6.747794e-07 3.5398114e-07 0.86116659)
(9.7526816e-07 3.6677682e-07 0.8611674)
(8.1945323e-07 3.75216e-07 0.86116856)
(1.7654012e-07 3.785312e-07 0.86116888)
(2.1149375e-07 4.1492616e-07 0.86116888)
(-8.7248297e-07 5.0253934e-07 0.86116901)
(-1.5359949e-06 5.9297408e-07 0.86116714)
(-4.3392455e-07 6.3145935e-07 0.86116655)
(5.2513199e-09 6.5701819e-07 0.86116641)
(3.5398114e-07 6.7477939e-07 0.86116659)
(6.8620424e-07 6.8620424e-07 0.86116708)
(9.8180618e-07 6.9127114e-07 0.8611679)
(8.2177643e-07 6.895946e-07 0.86116906)
(1.7673187e-07 6.8454499e-07 0.86116938)
(2.5297647e-07 4.7445376e-07 0.86116939)
(-7.4669291e-07 6.5234012e-07 0.86116965)
(-1.4506444e-06 8.8293521e-07 0.86116788)
(-3.991413e-07 9.3542123e-07 0.86116733)
(2.6543345e-08 9.6057132e-07 0.86116721)
(3.6677682e-07 9.7526816e-07 0.8611674)
(6.9127114e-07 9.8180618e-07 0.8611679)
(9.7865852e-07 9.7865852e-07 0.86116872)
(8.1272708e-07 9.6197815e-07 0.86116987)
(1.7317372e-07 9.3546202e-07 0.86117019)
(3.3008466e-07 2.2337252e-07 0.86116986)
(-4.6400147e-07 2.7985778e-07 0.86117043)
(-1.2529138e-06 7.2944836e-07 0.86116895)
(-3.5628844e-07 7.9147239e-07 0.86116845)
(4.5098257e-08 8.1002206e-07 0.86116835)
(3.75216e-07 8.1945323e-07 0.86116856)
(6.8959459e-07 8.2177643e-07 0.86116906)
(9.6197815e-07 8.1272708e-07 0.86116987)
(7.7857993e-07 7.7857994e-07 0.861171)
(1.5905445e-07 6.9922157e-07 0.86117126)
(2.9063331e-07 4.5156168e-10 0.86116964)
(-2.4061702e-07 -3.8999786e-08 0.86117022)
(-9.3902987e-07 1.4937452e-07 0.8611692)
(-3.1856761e-07 1.7025617e-07 0.86116876)
(5.452418e-08 1.7452174e-07 0.86116867)
(3.7853119e-07 1.7654012e-07 0.86116888)
(6.8454499e-07 1.7673187e-07 0.86116938)
(9.3546202e-07 1.7317372e-07 0.86117019)
(6.9922157e-07 1.5905445e-07 0.86117126)
(1.2026814e-07 1.2026814e-07 0.86117121)
(1.0644881e-06 1.0644881e-06 0.85754033)
(-8.8096695e-07 -1.8294117e-07 0.85754064)
(-3.2959258e-06 -2.1285795e-09 0.85753876)
(-1.1047143e-06 3.5380525e-08 0.85753811)
(-2.2870785e-07 4.8475876e-08 0.85753791)
(3.9749641e-07 6.2513996e-08 0.85753802)
(8.7295716e-07 9.4047024e-08 0.85753841)
(1.0232566e-06 1.8464242e-07 0.85753905)
(2.691004e-07 4.0474698e-07 0.85753976)
(-1.472773e-07 4.1567066e-07 0.85753949)
(-1.8294117e-07 -8.8096695e-07 0.85754064)
(-2.4808922e-06 -2.4808922e-06 0.85753993)
(-2.9684433e-06 -2.1252063e-06 0.85753824)
(-1.0288076e-06 -2.0317676e-06 0.85753764)
(-1.8800764e-07 -1.9868953e-06 0.85753745)
(4.6585313e-07 -1.9389461e-06 0.85753757)
(1.0561498e-06 -1.8466916e-06 0.857538)
(1.4893066e-06 -1.6026067e-06 0.85753877)
(6.156428e-07 -9.6898472e-07 0.85753992)
(-1.3635362e-07 -4.6966783e-07 0.85753979)
(-2.1285768e-09 -3.2959258e-06 0.85753876)
(-2.1252063e-06 -2.9684433e-06 0.85753824)
(-2.8468013e-06 -2.8468013e-06 0.85753662)
(-9.6640336e-07 -2.7805395e-06 0.85753605)
(-1.358864e-07 -2.7304289e-06 0.85753588)
(5.3770008e-07 -2.6788003e-06 0.85753603)
(1.2092965e-06 -2.6050407e-06 0.85753648)
(1.9009634e-06 -2.459546e-06 0.85753734)
(1.4020392e-06 -2.0985166e-06 0.85753875)
(1.8560058e-07 -1.5553587e-06 0.857539)
(3.5380526e-08 -1.1047143e-06 0.85753811)
(-2.0317676e-06 -1.0288076e-06 0.85753764)
(-2.7805395e-06 -9.6640336e-07 0.85753605)
(-9.1243529e-07 -9.1243529e-07 0.8575355)
(-8.6268427e-08 -8.6458079e-07 0.85753536)
(5.9124138e-07 -8.1796583e-07 0.85753552)
(1.2754042e-06 -7.6694956e-07 0.85753599)
(1.9958307e-06 -7.0684033e-07 0.85753687)
(1.5198302e-06 -6.2715378e-07 0.85753833)
(2.2575165e-07 -5.5462898e-07 0.85753864)
(4.8475876e-08 -2.2870785e-07 0.85753791)
(-1.9868953e-06 -1.8800764e-07 0.85753745)
(-2.7304289e-06 -1.358864e-07 0.85753588)
(-8.6458079e-07 -8.6268427e-08 0.85753536)
(-4.1416939e-08 -4.1416938e-08 0.85753523)
(6.3533131e-07 -4.0682832e-10 0.85753541)
(1.320422e-06 3.8852481e-08 0.8575359)
(2.0407592e-06 7.6628607e-08 0.8575368)
(1.5542505e-06 1.1050885e-07 0.85753827)
(2.3395045e-07 1.2854041e-07 0.85753859)
(6.2513995e-08 3.9749641e-07 0.85753802)
(-1.9389461e-06 4.6585313e-07 0.85753757)
(-2.6788003e-06 5.3770008e-07 0.85753603)
(-8.1796583e-07 5.9124138e-07 0.85753552)
(-4.0682886e-10 6.3533131e-07 0.85753541)
(6.715108e-07 6.715108e-07 0.8575356)
(1.3524396e-06 7.012948e-07 0.85753611)
(2.0674871e-06 7.2484311e-07 0.85753702)
(1.571742e-06 7.4084526e-07 0.85753851)
(2.3777268e-07 7.4778979e-07 0.85753883)
(9.4047025e-08 8.7295716e-07 0.85753841)
(-1.8466916e-06 1.0561498e-06 0.857538)
(-2.6050407e-06 1.2092965e-06 0.85753648)
(-7.6694956e-07 1.2754042e-06 0.85753599)
(3.8852478e-08 1.320422e-06 0.8575359)
(7.012948e-07 1.3524396e-06 0.85753611)
(1.3737544e-06 1.3737544e-06 0.85753663)
(2.0803096e-06 1.3839804e-06 0.85753754)
(1.5771972e-06 1.3815154e-06 0.85753904)
(2.3858014e-07 1.3721737e-06 0.85753936)
(1.8464241e-07 1.0232566e-06 0.85753905)
(-1.6026067e-06 1.4893066e-06 0.85753877)
(-2.459546e-06 1.9009634e-06 0.85753734)
(-7.0684032e-07 1.9958307e-06 0.85753687)
(7.6628603e-08 2.0407592e-06 0.8575368)
(7.2484311e-07 2.0674871e-06 0.85753702)
(1.3839804e-06 2.0803096e-06 0.85753754)
(2.0752481e-06 2.0752481e-06 0.85753847)
(1.5599353e-06 2.0389916e-06 0.85753996)
(2.315449e-07 1.964713e-06 0.85754028)
(4.0474698e-07 2.691004e-07 0.85753976)
(-9.6898472e-07 6.156428e-07 0.85753992)
(-2.0985166e-06 1.4020392e-06 0.85753875)
(-6.2715378e-07 1.5198302e-06 0.85753833)
(1.1050885e-07 1.5542505e-06 0.85753827)
(7.4084526e-07 1.571742e-06 0.85753851)
(1.3815154e-06 1.5771972e-06 0.85753904)
(2.0389916e-06 1.5599353e-06 0.85753996)
(1.4666621e-06 1.4666621e-06 0.85754142)
(1.8906105e-07 1.0918642e-06 0.85754166)
(4.1567066e-07 -1.472773e-07 0.85753949)
(-4.6966783e-07 -1.3635362e-07 0.85753979)
(-1.5553587e-06 1.8560058e-07 0.857539)
(-5.5462898e-07 2.2575165e-07 0.85753864)
(1.2854041e-07 2.3395046e-07 0.85753859)
(7.4778979e-07 2.3777269e-07 0.85753883)
(1.3721737e-06 2.3858014e-07 0.85753936)
(1.964713e-06 2.315449e-07 0.85754028)
(1.0918642e-06 1.8906105e-07 0.85754166)
(-1.8320402e-08 -1.8320402e-08 0.8575412)
(1.1063363e-06 1.1063363e-06 0.85209451)
(-1.7123736e-06 -4.4033339e-07 0.85209455)
(-4.477891e-06 -1.9096097e-07 0.85209281)
(-1.4706683e-06 -1.389474e-07 0.8520923)
(-2.3546687e-07 -1.2126972e-07 0.85209219)
(6.8375761e-07 -1.0354718e-07 0.85209237)
(1.448583e-06 -6.2629019e-08 0.85209282)
(1.8380207e-06 6.8148903e-08 0.85209358)
(6.8008356e-07 4.3125973e-07 0.85209457)
(-1.7594934e-07 4.8458755e-07 0.8520946)
(-4.4033339e-07 -1.7123736e-06 0.85209455)
(-3.6583196e-06 -3.6583196e-06 0.85209374)
(-4.0258122e-06 -3.163726e-06 0.85209223)
(-1.3661315e-06 -3.032566e-06 0.85209176)
(-1.8236655e-07 -2.9713746e-06 0.85209166)
(7.7171866e-07 -2.9099935e-06 0.85209184)
(1.7061271e-06 -2.7920182e-06 0.85209232)
(2.5788538e-06 -2.4533163e-06 0.85209319)
(1.3047416e-06 -1.4760754e-06 0.85209461)
(-1.2262151e-07 -7.2960453e-07 0.85209478)
(-1.9096097e-07 -4.477891e-06 0.85209281)
(-3.163726e-06 -4.0258122e-06 0.85209223)
(-3.8521375e-06 -3.8521375e-06 0.85209079)
(-1.2783169e-06 -3.7578901e-06 0.85209035)
(-1.1289437e-07 -3.6890649e-06 0.85209027)
(8.6311395e-07 -3.6216379e-06 0.85209047)
(1.9052601e-06 -3.5286072e-06 0.85209096)
(3.1539632e-06 -3.3396502e-06 0.85209188)
(2.4037952e-06 -2.828242e-06 0.85209355)
(3.216978e-07 -2.0778987e-06 0.85209408)
(-1.389474e-07 -1.4706683e-06 0.8520923)
(-3.032566e-06 -1.3661315e-06 0.85209176)
(-3.7578901e-06 -1.2783169e-06 0.85209035)
(-1.2030588e-06 -1.2030588e-06 0.85208994)
(-4.6114243e-08 -1.1377032e-06 0.85208988)
(9.3217641e-07 -1.0758399e-06 0.85209008)
(1.9881148e-06 -1.0103283e-06 0.85209059)
(3.279219e-06 -9.3457549e-07 0.85209152)
(2.5664934e-06 -8.2649715e-07 0.85209322)
(3.7760745e-07 -7.263473e-07 0.85209379)
(-1.2126973e-07 -2.3546687e-07 0.85209219)
(-2.9713746e-06 -1.8236655e-07 0.85209166)
(-3.6890649e-06 -1.1289437e-07 0.85209027)
(-1.1377033e-06 -4.6114242e-08 0.85208988)
(1.4324587e-08 1.4324593e-08 0.85208983)
(9.904889e-07 6.9291413e-08 0.85209004)
(2.0465245e-06 1.2140398e-07 0.85209056)
(3.3377944e-06 1.7108586e-07 0.8520915)
(2.6120234e-06 2.1669073e-07 0.85209322)
(3.8846438e-07 2.4123097e-07 0.85209379)
(-1.0354718e-07 6.8375761e-07 0.85209237)
(-2.9099935e-06 7.7171867e-07 0.85209184)
(-3.6216378e-06 8.6311395e-07 0.85209047)
(-1.0758399e-06 9.3217641e-07 0.85209008)
(6.9291412e-08 9.904889e-07 0.85209004)
(1.0392558e-06 1.0392558e-06 0.85209027)
(2.0899093e-06 1.0802194e-06 0.8520908)
(3.3745057e-06 1.1135925e-06 0.85209175)
(2.6366385e-06 1.1378207e-06 0.85209347)
(3.9396762e-07 1.1503032e-06 0.85209405)
(-6.2629021e-08 1.448583e-06 0.85209282)
(-2.7920182e-06 1.7061271e-06 0.85209232)
(-3.5286072e-06 1.9052601e-06 0.85209096)
(-1.0103283e-06 1.9881148e-06 0.85209059)
(1.2140398e-07 2.0465245e-06 0.85209056)
(1.0802193e-06 2.0899093e-06 0.8520908)
(2.1208611e-06 2.1208611e-06 0.85209133)
(3.3953957e-06 2.1388965e-06 0.85209229)
(2.6487341e-06 2.1416255e-06 0.85209402)
(3.9678603e-07 2.1365329e-06 0.85209461)
(6.8148904e-08 1.8380207e-06 0.85209358)
(-2.4533163e-06 2.5788538e-06 0.85209319)
(-3.3396502e-06 3.1539632e-06 0.85209188)
(-9.3457549e-07 3.279219e-06 0.85209152)
(1.7108586e-07 3.3377944e-06 0.8520915)
(1.1135925e-06 3.3745057e-06 0.85209175)
(2.1388965e-06 3.3953957e-06 0.85209229)
(3.3952701e-06 3.3952701e-06 0.85209327)
(2.634275e-06 3.3517267e-06 0.85209501)
(3.9057257e-07 3.2374631e-06 0.8520956)
(4.3125973e-07 6.8008356e-07 0.85209457)
(-1.4760754e-06 1.3047416e-06 0.85209461)
(-2.828242e-06 2.4037952e-06 0.85209355)
(-8.2649716e-07 2.5664934e-06 0.85209322)
(2.1669073e-07 2.6120234e-06 0.85209322)
(1.1378207e-06 2.6366385e-06 0.85209347)
(2.1416255e-06 2.6487341e-06 0.85209402)
(3.3517267e-06 2.634275e-06 0.85209501)
(2.4909272e-06 2.4909272e-06 0.85209674)
(3.2061033e-07 1.6237853e-06 0.85209728)
(4.8458755e-07 -1.7594934e-07 0.8520946)
(-7.2960453e-07 -1.2262152e-07 0.85209478)
(-2.0778987e-06 3.216978e-07 0.85209408)
(-7.263473e-07 3.7760745e-07 0.85209379)
(2.4123098e-07 3.8846438e-07 0.85209379)
(1.1503032e-06 3.9396762e-07 0.85209405)
(2.1365329e-06 3.9678603e-07 0.85209461)
(3.2374631e-06 3.9057257e-07 0.8520956)
(1.6237853e-06 3.2061033e-07 0.85209728)
(-1.8752201e-07 -1.8752201e-07 0.85209686)
(1.0929485e-06 1.0929485e-06 0.84502066)
(-2.5690149e-06 -7.2019217e-07 0.84502057)
(-5.5344233e-06 -3.9259316e-07 0.84501896)
(-1.7208234e-06 -3.2490596e-07 0.84501859)
(-1.6325468e-07 -3.0345078e-07 0.84501857)
(1.0250722e-06 -2.8419445e-07 0.8450188)
(2.0840391e-06 -2.3831047e-07 0.84501929)
(2.77342e-06 -7.4441934e-08 0.84502009)
(1.3030881e-06 4.2881365e-07 0.8450212)
(-1.1985554e-07 5.2910097e-07 0.84502144)
(-7.2019217e-07 -2.5690149e-06 0.84502057)
(-4.7973274e-06 -4.7973274e-06 0.84501972)
(-4.9414942e-06 -4.1451392e-06 0.84501835)
(-1.5871099e-06 -3.9744626e-06 0.84501803)
(-1.0218742e-07 -3.9000481e-06 0.84501802)
(1.1227827e-06 -3.8322839e-06 0.84501825)
(2.3986678e-06 -3.7021182e-06 0.84501875)
(3.7741061e-06 -3.2903578e-06 0.84501964)
(2.2084026e-06 -1.9844705e-06 0.84502116)
(-1.9568217e-08 -9.9550352e-07 0.84502155)
(-3.9259317e-07 -5.5344233e-06 0.84501896)
(-4.1451392e-06 -4.9414942e-06 0.84501835)
(-4.7115588e-06 -4.7115588e-06 0.84501707)
(-1.4757323e-06 -4.5905504e-06 0.84501678)
(-2.1075959e-08 -4.5071845e-06 0.84501679)
(1.223002e-06 -4.4312699e-06 0.84501702)
(2.625965e-06 -4.3311727e-06 0.84501752)
(4.4910673e-06 -4.1172775e-06 0.84501844)
(3.5979422e-06 -3.4742091e-06 0.84502019)
(5.3945569e-07 -2.5351557e-06 0.84502092)
(-3.2490596e-07 -1.7208234e-06 0.84501859)
(-3.9744626e-06 -1.5871099e-06 0.84501803)
(-4.5905504e-06 -1.4757323e-06 0.84501678)
(-1.3827355e-06 -1.3827355e-06 0.8450165)
(5.7093077e-08 -1.3047177e-06 0.84501652)
(1.2987945e-06 -1.234009e-06 0.84501676)
(2.7126603e-06 -1.1627964e-06 0.84501726)
(4.6310697e-06 -1.0831383e-06 0.84501818)
(3.7905248e-06 -9.5870991e-07 0.84501994)
(6.0646749e-07 -8.4089666e-07 0.8450207)
(-3.0345079e-07 -1.6325468e-07 0.84501857)
(-3.9000481e-06 -1.0218742e-07 0.84501802)
(-4.5071845e-06 -2.1075959e-08 0.84501679)
(-1.3047177e-06 5.7093081e-08 0.84501652)
(1.2765062e-07 1.2765062e-07 0.84501655)
(1.3649233e-06 1.9122708e-07 0.8450168)
(2.7768357e-06 2.5064278e-07 0.8450173)
(4.6951538e-06 3.0641232e-07 0.84501822)
(3.8401839e-06 3.586397e-07 0.84501998)
(6.1799787e-07 3.8624837e-07 0.84502074)
(-2.8419445e-07 1.0250722e-06 0.8450188)
(-3.8322839e-06 1.1227827e-06 0.84501825)
(-4.4312699e-06 1.223002e-06 0.84501702)
(-1.234009e-06 1.2987945e-06 0.84501676)
(1.9122708e-07 1.3649233e-06 0.8450168)
(1.4217867e-06 1.4217867e-06 0.84501705)
(2.8278455e-06 1.4710595e-06 0.84501755)
(4.7390666e-06 1.5130459e-06 0.84501848)
(3.8703609e-06 1.5461924e-06 0.84502025)
(6.2487327e-07 1.5662465e-06 0.84502101)
(-2.3831047e-07 2.0840391e-06 0.84501929)
(-3.7021182e-06 2.3986678e-06 0.84501875)
(-4.3311727e-06 2.625965e-06 0.84501752)
(-1.1627964e-06 2.7126602e-06 0.84501726)
(2.5064278e-07 2.7768357e-06 0.8450173)
(1.4710595e-06 2.8278455e-06 0.84501755)
(2.8680948e-06 2.8680948e-06 0.84501807)
(4.7702866e-06 2.8974543e-06 0.845019)
(3.8933846e-06 2.9135274e-06 0.84502079)
(6.3136728e-07 2.924556e-06 0.84502156)
(-7.4441936e-08 2.77342e-06 0.84502009)
(-3.2903578e-06 3.7741061e-06 0.84501964)
(-4.1172775e-06 4.4910673e-06 0.84501844)
(-1.0831383e-06 4.6310697e-06 0.84501818)
(3.0641232e-07 4.6951538e-06 0.84501822)
(1.5130459e-06 4.7390666e-06 0.84501848)
(2.8974543e-06 4.7702866e-06 0.845019)
(4.7844992e-06 4.7844992e-06 0.84501996)
(3.8974625e-06 4.754248e-06 0.84502176)
(6.3222563e-07 4.6314244e-06 0.84502256)
(4.2881365e-07 1.3030881e-06 0.8450212)
(-1.9844705e-06 2.2084026e-06 0.84502116)
(-3.4742091e-06 3.5979422e-06 0.84502019)
(-9.5870992e-07 3.7905248e-06 0.84501994)
(3.5863969e-07 3.8401839e-06 0.84501998)
(1.5461924e-06 3.8703609e-06 0.84502025)
(2.9135274e-06 3.8933846e-06 0.84502079)
(4.754248e-06 3.8974625e-06 0.84502176)
(3.7403097e-06 3.7403097e-06 0.84502359)
(5.4948482e-07 2.3487402e-06 0.84502437)
(5.2910097e-07 -1.1985554e-07 0.84502144)
(-9.9550353e-07 -1.9568219e-08 0.84502155)
(-2.5351557e-06 5.3945568e-07 0.84502092)
(-8.4089666e-07 6.0646749e-07 0.8450207)
(3.8624837e-07 6.1799787e-07 0.84502074)
(1.5662465e-06 6.2487328e-07 0.84502101)
(2.924556e-06 6.3136728e-07 0.84502156)
(4.6314244e-06 6.3222563e-07 0.84502256)
(2.3487402e-06 5.4948483e-07 0.84502437)
(-2.954874e-07 -2.954874e-07 0.84502415)
(1.0457881e-06 1.0457881e-06 0.83649109)
(-3.40598e-06 -1.0067052e-06 0.83649092)
(-6.4513097e-06 -5.945532e-07 0.83648947)
(-1.8552144e-06 -5.1057159e-07 0.83648924)
(-2.0183868e-08 -4.8625066e-07 0.83648931)
(1.3997274e-06 -4.6761365e-07 0.83648958)
(2.7345519e-06 -4.2106868e-07 0.83649007)
(3.7444538e-06 -2.3130915e-07 0.83649086)
(2.03198e-06 4.0617309e-07 0.83649199)
(-1.2845459e-08 5.6121502e-07 0.83649235)
(-1.0067052e-06 -3.40598e-06 0.83649092)
(-5.8664918e-06 -5.8664918e-06 0.83649008)
(-5.7071097e-06 -5.0445488e-06 0.83648889)
(-1.6927606e-06 -4.8338234e-06 0.8364887)
(4.4253042e-08 -4.7496865e-06 0.83648878)
(1.4975003e-06 -4.6828092e-06 0.83648905)
(3.0890086e-06 -4.5540584e-06 0.83648953)
(4.9853163e-06 -4.0916938e-06 0.83649039)
(3.2207665e-06 -2.4801177e-06 0.83649191)
(1.4219648e-07 -1.2488162e-06 0.83649244)
(-5.945532e-07 -6.4513097e-06 0.83648947)
(-5.0445488e-06 -5.7071097e-06 0.83648889)
(-5.4186416e-06 -5.4186416e-06 0.83648778)
(-1.5603521e-06 -5.2728482e-06 0.83648763)
(1.3083031e-07 -5.1796678e-06 0.83648772)
(1.5953554e-06 -5.1031237e-06 0.83648798)
(3.3256672e-06 -5.0087717e-06 0.83648845)
(5.8183939e-06 -4.7896986e-06 0.83648932)
(4.8748574e-06 -4.0382706e-06 0.83649103)
(8.080221e-07 -2.9298551e-06 0.83649187)
(-5.1057159e-07 -1.8552144e-06 0.83648924)
(-4.8338234e-06 -1.6927606e-06 0.8364887)
(-5.2728482e-06 -1.5603521e-06 0.83648763)
(-1.4537868e-06 -1.4537868e-06 0.83648749)
(2.1397756e-07 -1.3686002e-06 0.83648758)
(1.6683965e-06 -1.2961427e-06 0.83648784)
(3.4024337e-06 -1.2287615e-06 0.8364883)
(5.9558175e-06 -1.1578607e-06 0.83648915)
(5.0806105e-06 -1.0308811e-06 0.83649086)
(8.8114031e-07 -9.0628265e-07 0.83649171)
(-4.8625066e-07 -2.0183862e-08 0.83648931)
(-4.7496865e-06 4.4253032e-08 0.83648878)
(-5.1796678e-06 1.3083031e-07 0.83648772)
(-1.3686002e-06 2.1397756e-07 0.83648758)
(2.8847443e-07 2.8847443e-07 0.83648768)
(1.7351941e-06 3.5460849e-07 0.83648794)
(3.4639491e-06 4.1510296e-07 0.8364884)
(6.0162743e-06 4.7045921e-07 0.83648923)
(5.1264355e-06 5.2337475e-07 0.83649094)
(8.9108772e-07 5.4999171e-07 0.83649178)
(-4.6761366e-07 1.3997274e-06 0.83648958)
(-4.6828092e-06 1.4975003e-06 0.83648905)
(-5.1031237e-06 1.5953554e-06 0.83648798)
(-1.2961426e-06 1.6683965e-06 0.83648784)
(3.5460849e-07 1.7351942e-06 0.83648794)
(1.795025e-06 1.795025e-06 0.83648819)
(3.5182844e-06 1.8492598e-06 0.83648865)
(6.0640892e-06 1.8983166e-06 0.83648949)
(5.160143e-06 1.9407759e-06 0.8364912)
(8.9888495e-07 1.9700364e-06 0.83649204)
(-4.2106868e-07 2.7345519e-06 0.83649007)
(-4.5540584e-06 3.0890086e-06 0.83648953)
(-5.0087717e-06 3.3256672e-06 0.83648845)
(-1.2287615e-06 3.4024337e-06 0.8364883)
(4.1510296e-07 3.4639491e-06 0.8364884)
(1.8492598e-06 3.5182844e-06 0.83648865)
(3.5672408e-06 3.5672408e-06 0.83648912)
(6.1077904e-06 3.6114589e-06 0.83648997)
(5.1981553e-06 3.649044e-06 0.83649169)
(9.1059471e-07 3.6872677e-06 0.83649255)
(-2.3130916e-07 3.7444538e-06 0.83649086)
(-4.0916938e-06 4.9853163e-06 0.83649039)
(-4.7896986e-06 5.8183939e-06 0.83648932)
(-1.1578607e-06 5.9558175e-06 0.83648915)
(4.7045921e-07 6.0162743e-06 0.83648923)
(1.8983166e-06 6.0640892e-06 0.83648949)
(3.6114589e-06 6.1077904e-06 0.83648997)
(6.1458924e-06 6.1458924e-06 0.83649084)
(5.2359519e-06 6.1495222e-06 0.8364926)
(9.2436745e-07 6.0492812e-06 0.8364935)
(4.061731e-07 2.03198e-06 0.83649199)
(-2.4801177e-06 3.2207665e-06 0.83649191)
(-4.0382706e-06 4.8748574e-06 0.83649103)
(-1.0308811e-06 5.0806105e-06 0.83649086)
(5.2337474e-07 5.1264355e-06 0.83649094)
(1.9407759e-06 5.160143e-06 0.8364912)
(3.649044e-06 5.1981553e-06 0.83649169)
(6.1495222e-06 5.2359519e-06 0.8364926)
(5.101544e-06 5.101544e-06 0.83649441)
(8.4376731e-07 3.2097122e-06 0.83649534)
(5.6121502e-07 -1.2845459e-08 0.83649235)
(-1.2488162e-06 1.4219648e-07 0.83649244)
(-2.9298551e-06 8.080221e-07 0.83649187)
(-9.0628266e-07 8.811403e-07 0.83649171)
(5.4999171e-07 8.9108771e-07 0.83649178)
(1.9700364e-06 8.9888495e-07 0.83649204)
(3.6872677e-06 9.1059471e-07 0.83649255)
(6.0492812e-06 9.2436745e-07 0.8364935)
(3.2097122e-06 8.4376731e-07 0.83649534)
(-3.3685384e-07 -3.3685384e-07 0.83649529)
(9.8261837e-07 9.8261837e-07 0.82666622)
(-4.1806065e-06 -1.2827115e-06 0.82666603)
(-7.2115832e-06 -7.8249825e-07 0.82666476)
(-1.8770067e-06 -6.8227605e-07 0.82666467)
(1.807256e-07 -6.5616433e-07 0.82666482)
(1.7832922e-06 -6.4031096e-07 0.82666511)
(3.3596547e-06 -5.9738479e-07 0.82666558)
(4.6883686e-06 -3.8937813e-07 0.82666631)
(2.7925194e-06 3.7332973e-07 0.82666739)
(1.2079607e-07 5.8817793e-07 0.82666781)
(-1.2827115e-06 -4.1806065e-06 0.82666603)
(-6.8282811e-06 -6.8282811e-06 0.82666524)
(-6.3109304e-06 -5.8304746e-06 0.82666424)
(-1.6875059e-06 -5.5808895e-06 0.82666419)
(2.4367322e-07 -5.4910518e-06 0.82666435)
(1.8714615e-06 -5.4324215e-06 0.82666463)
(3.7360539e-06 -5.3186051e-06 0.82666507)
(6.1444401e-06 -4.8289381e-06 0.82666585)
(4.2588538e-06 -2.9413314e-06 0.82666729)
(3.3564429e-07 -1.4739697e-06 0.82666789)
(-7.8249824e-07 -7.2115832e-06 0.82666476)
(-5.8304746e-06 -6.3109304e-06 0.82666424)
(-5.964192e-06 -5.964192e-06 0.82666332)
(-1.5375839e-06 -5.79672e-06 0.82666331)
(3.2919357e-07 -5.6989746e-06 0.82666347)
(1.9557388e-06 -5.6298677e-06 0.82666373)
(3.963138e-06 -5.5540582e-06 0.82666415)
(7.0656416e-06 -5.3497298e-06 0.82666492)
(6.1474877e-06 -4.5156255e-06 0.82666652)
(1.0990371e-06 -3.259301e-06 0.82666739)
(-6.8227605e-07 -1.8770067e-06 0.82666467)
(-5.5808895e-06 -1.6875058e-06 0.82666419)
(-5.79672e-06 -1.5375839e-06 0.82666331)
(-1.4222885e-06 -1.4222885e-06 0.8266633)
(4.1052554e-07 -1.3358857e-06 0.82666346)
(2.0163779e-06 -1.2690837e-06 0.82666372)
(4.0161918e-06 -1.2152315e-06 0.82666411)
(7.1828729e-06 -1.1658363e-06 0.82666484)
(6.3492832e-06 -1.0505697e-06 0.82666642)
(1.1731942e-06 -9.3023928e-07 0.82666729)
(-6.5616433e-07 1.807256e-07 0.82666482)
(-5.4910518e-06 2.4367322e-07 0.82666435)
(-5.6989746e-06 3.2919357e-07 0.82666347)
(-1.3358857e-06 4.1052554e-07 0.82666346)
(4.8239839e-07 4.8239839e-07 0.82666362)
(2.076393e-06 5.4468969e-07 0.82666387)
(4.0663853e-06 5.9974405e-07 0.82666425)
(7.2303034e-06 6.4792725e-07 0.82666496)
(6.3830848e-06 6.9527276e-07 0.82666653)
(1.1792574e-06 7.1664343e-07 0.82666738)
(-6.4031096e-07 1.7832922e-06 0.82666511)
(-5.4324215e-06 1.8714615e-06 0.82666463)
(-5.6298677e-06 1.9557388e-06 0.82666373)
(-1.2690837e-06 2.0163779e-06 0.82666372)
(5.4468969e-07 2.076393e-06 0.82666387)
(2.1337236e-06 2.1337236e-06 0.82666411)
(4.1194293e-06 2.1892426e-06 0.82666449)
(7.2784016e-06 2.2434913e-06 0.82666519)
(6.4179994e-06 2.2952602e-06 0.82666676)
(1.1874413e-06 2.3349429e-06 0.82666761)
(-5.9738478e-07 3.3596547e-06 0.82666558)
(-5.3186051e-06 3.7360539e-06 0.82666507)
(-5.5540582e-06 3.963138e-06 0.82666415)
(-1.2152315e-06 4.0161918e-06 0.82666411)
(5.9974404e-07 4.0663853e-06 0.82666425)
(2.1892426e-06 4.1194293e-06 0.82666449)
(4.176153e-06 4.176153e-06 0.82666487)
(7.336321e-06 4.2383225e-06 0.82666559)
(6.4745365e-06 4.3048865e-06 0.82666717)
(1.2057125e-06 4.3802139e-06 0.82666805)
(-3.8937812e-07 4.6883686e-06 0.82666631)
(-4.8289381e-06 6.1444401e-06 0.82666585)
(-5.3497298e-06 7.0656416e-06 0.82666492)
(-1.1658363e-06 7.1828729e-06 0.82666484)
(6.4792724e-07 7.2303034e-06 0.82666496)
(2.2434913e-06 7.2784016e-06 0.82666519)
(4.2383225e-06 7.336321e-06 0.82666559)
(7.4071351e-06 7.4071351e-06 0.82666633)
(6.5598908e-06 7.4637634e-06 0.82666796)
(1.2376595e-06 7.4148523e-06 0.8266689)
(3.7332973e-07 2.7925194e-06 0.82666739)
(-2.9413314e-06 4.2588538e-06 0.82666729)
(-4.5156255e-06 6.1474877e-06 0.82666652)
(-1.0505697e-06 6.3492832e-06 0.82666642)
(6.9527276e-07 6.3830848e-06 0.82666653)
(2.2952602e-06 6.4179994e-06 0.82666676)
(4.3048865e-06 6.4745365e-06 0.82666717)
(7.4637634e-06 6.5598908e-06 0.82666796)
(6.4822537e-06 6.4822537e-06 0.82666967)
(1.173105e-06 4.1324534e-06 0.82667067)
(5.8817793e-07 1.2079607e-07 0.82666781)
(-1.4739697e-06 3.3564429e-07 0.82666789)
(-3.259301e-06 1.0990371e-06 0.82666739)
(-9.3023929e-07 1.1731942e-06 0.82666729)
(7.1664343e-07 1.1792574e-06 0.82666738)
(2.3349429e-06 1.1874413e-06 0.82666761)
(4.3802139e-06 1.2057125e-06 0.82666805)
(7.4148523e-06 1.2376595e-06 0.8266689)
(4.1324534e-06 1.173105e-06 0.82667067)
(-3.2887411e-07 -3.2887411e-07 0.82667074)
(9.1752086e-07 9.1752086e-07 0.81569641)