/*--------------------------------*- C++ -*----------------------------------*\
| =========                 |                                                 |
| \\      /  F ield         | OpenFOAM: The Open Source CFD Toolbox           |
|  \\    /   O peration     | Version:  v2106                                 |
|   \\  /    A nd           | Website:  www.openfoam.com                      |
|    \\/     M anipulation  |                                                 |
\*---------------------------------------------------------------------------*/
FoamFile
{
    version     2.0;
    format      ascii;
    arch        "LSB;label=32;scalar=64";
    class       volVectorField;
    location    "30";
    object      flux;
}
// * * * * * * * * * * * * * * * * * * * * * * * * * * * * * * * * * * * * * //

dimensions      [0 1 -1 1 0 0 0];

internalField   nonuniform List<vector> 
4000
(
(2.1811966e-07 2.1811966e-07 0.81800868)
(-6.1266482e-07 -4.0749612e-07 0.8180098)
(-8.4688161e-07 -1.4900085e-07 0.81800568)
(2.1713993e-07 -1.1679583e-07 0.81800604)
(2.0945177e-07 -1.1832323e-07 0.81800664)
(1.5908199e-07 -1.2273272e-07 0.81800708)
(1.5623207e-07 -1.2679247e-07 0.81800747)
(1.7445336e-07 -1.2277387e-07 0.8180079)
(1.5544407e-07 -9.4092303e-08 0.8180084)
(4.2276873e-08 -4.7692373e-08 0.81800868)
(-4.0749613e-07 -6.1266483e-07 0.8180098)
(-1.1633456e-06 -1.1633456e-06 0.81800737)
(-4.1083117e-07 -7.1199196e-07 0.81800479)
(2.6315635e-07 -6.572414e-07 0.81800537)
(2.0054643e-07 -6.6290208e-07 0.81800597)
(1.4637813e-07 -6.7795537e-07 0.81800637)
(1.5617035e-07 -6.9756994e-07 0.81800673)
(2.2350362e-07 -7.0327638e-07 0.8180072)
(2.6806631e-07 -6.3925999e-07 0.81800794)
(8.8676803e-08 -4.674793e-07 0.81800853)
(-1.4900084e-07 -8.468816e-07 0.81800568)
(-7.1199195e-07 -4.1083117e-07 0.81800479)
(-3.4077744e-07 -3.4077743e-07 0.81800254)
(2.662298e-07 -3.348988e-07 0.81800316)
(1.8873779e-07 -3.4262316e-07 0.81800374)
(1.2441413e-07 -3.5976613e-07 0.8180041)
(1.3091106e-07 -3.8827351e-07 0.81800439)
(2.3276331e-07 -4.2447191e-07 0.8180048)
(3.9124115e-07 -4.3885459e-07 0.81800567)
(1.5679734e-07 -3.7543909e-07 0.81800677)
(-1.1679583e-07 2.1713994e-07 0.81800604)
(-6.572414e-07 2.6315635e-07 0.81800537)
(-3.3489881e-07 2.6622981e-07 0.81800316)
(2.6131063e-07 2.6131063e-07 0.81800379)
(1.7567909e-07 2.5103972e-07 0.81800435)
(1.0072778e-07 2.3439267e-07 0.81800467)
(9.1464582e-08 2.0879649e-07 0.81800487)
(1.7292254e-07 1.7008428e-07 0.81800516)
(3.1709912e-07 1.1671519e-07 0.81800585)
(1.309538e-07 5.9880953e-08 0.81800678)
(-1.1832324e-07 2.0945176e-07 0.81800664)
(-6.6290209e-07 2.0054643e-07 0.81800597)
(-3.4262316e-07 1.8873779e-07 0.81800374)
(2.5103972e-07 1.7567909e-07 0.81800435)
(1.6181983e-07 1.6181984e-07 0.81800488)
(8.2170904e-08 1.4639738e-07 0.81800515)
(6.6602676e-08 1.2851323e-07 0.8180053)
(1.4068201e-07 1.0713765e-07 0.81800551)
(2.8103782e-07 8.2449583e-08 0.81800611)
(1.1890785e-07 5.937828e-08 0.81800695)
(-1.2273272e-07 1.5908199e-07 0.81800708)
(-6.7795537e-07 1.4637813e-07 0.81800637)
(-3.5976614e-07 1.2441413e-07 0.8180041)
(2.3439268e-07 1.0072778e-07 0.81800467)
(1.4639737e-07 8.2170907e-08 0.81800515)
(6.7421169e-08 6.7421179e-08 0.81800538)
(5.2204858e-08 5.5355252e-08 0.81800549)
(1.2685889e-07 4.5702102e-08 0.81800566)
(2.6933975e-07 3.8535951e-08 0.81800623)
(1.1557293e-07 3.4451125e-08 0.81800704)
(-1.2679248e-07 1.5623208e-07 0.81800747)
(-6.9756994e-07 1.5617035e-07 0.81800673)
(-3.882735e-07 1.3091106e-07 0.81800439)
(2.087965e-07 9.1464581e-08 0.81800487)
(1.2851323e-07 6.6602663e-08 0.8180053)
(5.5355249e-08 5.2204857e-08 0.81800549)
(4.4883599e-08 4.4883608e-08 0.81800557)
(1.2386271e-07 4.3765208e-08 0.81800574)
(2.6978684e-07 4.7933435e-08 0.8180063)
(1.1618463e-07 5.4665066e-08 0.81800712)
(-1.2277387e-07 1.7445336e-07 0.8180079)
(-7.0327638e-07 2.2350362e-07 0.8180072)
(-4.244719e-07 2.3276331e-07 0.8180048)
(1.7008427e-07 1.7292253e-07 0.81800516)
(1.0713765e-07 1.40682e-07 0.81800551)
(4.5702114e-08 1.2685889e-07 0.81800566)
(4.3765209e-08 1.2386272e-07 0.81800574)
(1.2990872e-07 1.2990872e-07 0.8180059)
(2.8023961e-07 1.4336217e-07 0.8180065)
(1.2006069e-07 1.5909606e-07 0.81800735)
(-9.4092303e-08 1.5544407e-07 0.8180084)
(-6.3926e-07 2.6806631e-07 0.81800794)
(-4.3885459e-07 3.9124114e-07 0.81800567)
(1.1671519e-07 3.1709912e-07 0.81800585)
(8.2449589e-08 2.8103783e-07 0.81800611)
(3.8535962e-08 2.6933975e-07 0.81800623)
(4.7933433e-08 2.6978684e-07 0.8180063)
(1.4336216e-07 2.8023961e-07 0.8180065)
(2.9897417e-07 2.9897418e-07 0.81800714)
(1.2667389e-07 3.1766015e-07 0.81800805)
(-4.7692376e-08 4.2276875e-08 0.81800868)
(-4.674793e-07 8.8676801e-08 0.81800853)
(-3.7543909e-07 1.5679734e-07 0.81800677)
(5.9880958e-08 1.309538e-07 0.81800678)
(5.9378276e-08 1.1890785e-07 0.81800695)
(3.4451123e-08 1.1557293e-07 0.81800704)
(5.4665074e-08 1.1618462e-07 0.81800712)
(1.5909606e-07 1.2006069e-07 0.81800735)
(3.1766014e-07 1.2667389e-07 0.81800805)
(1.32518e-07 1.32518e-07 0.81800898)
(4.6615176e-07 4.6615176e-07 1.2161872)
(-2.6829253e-06 -1.2184143e-06 1.2161874)
(-3.1097608e-06 -4.3656289e-07 1.2161836)
(8.0213345e-07 -3.1907295e-07 1.216184)
(9.3275658e-07 -3.218917e-07 1.2161848)
(7.6157162e-07 -3.4206968e-07 1.2161854)
(7.6836842e-07 -3.6217817e-07 1.2161859)
(8.722174e-07 -3.3675947e-07 1.2161866)
(7.0322782e-07 -1.7109037e-07 1.2161874)
(1.605482e-07 -1.2580815e-08 1.2161876)
(-1.2184143e-06 -2.6829253e-06 1.2161874)
(-4.0369972e-06 -4.0369972e-06 1.2161852)
(-1.7607488e-06 -2.5817369e-06 1.2161827)
(9.7414023e-07 -2.3548097e-06 1.2161832)
(8.9826148e-07 -2.3696878e-06 1.216184)
(7.0114192e-07 -2.4411894e-06 1.2161845)
(7.7633374e-07 -2.5387644e-06 1.216185)
(1.1588491e-06 -2.5552463e-06 1.2161857)
(1.1894958e-06 -2.1763523e-06 1.2161871)
(3.1905775e-07 -1.4656288e-06 1.2161878)
(-4.3656289e-07 -3.1097608e-06 1.2161836)
(-2.5817369e-06 -1.7607488e-06 1.2161827)
(-1.4275733e-06 -1.4275733e-06 1.2161804)
(1.0141825e-06 -1.3710052e-06 1.2161811)
(8.4637681e-07 -1.4014347e-06 1.2161818)
(5.9249503e-07 -1.4857741e-06 1.2161823)
(6.5431156e-07 -1.627446e-06 1.2161826)
(1.2346295e-06 -1.8000823e-06 1.2161832)
(1.7928453e-06 -1.8224902e-06 1.2161848)
(6.3436383e-07 -1.4947347e-06 1.2161861)
(-3.1907294e-07 8.0213345e-07 1.216184)
(-2.3548097e-06 9.7414023e-07 1.2161832)
(-1.3710052e-06 1.0141825e-06 1.2161811)
(1.0002788e-06 1.0002788e-06 1.2161817)
(7.8349263e-07 9.5143916e-07 1.2161824)
(4.7513069e-07 8.6897172e-07 1.2161828)
(4.6202549e-07 7.4199616e-07 1.2161831)
(9.6380486e-07 5.5328316e-07 1.2161835)
(1.4948435e-06 3.1373915e-07 1.2161848)
(5.3756147e-07 8.2144213e-08 1.216186)
(-3.218917e-07 9.3275658e-07 1.2161848)
(-2.3696878e-06 8.9826148e-07 1.216184)
(-1.4014347e-06 8.4637682e-07 1.2161818)
(9.5143916e-07 7.8349263e-07 1.2161824)
(7.1506973e-07 7.1506973e-07 1.2161831)
(3.8305204e-07 6.3878471e-07 1.2161834)
(3.38623e-07 5.5021158e-07 1.2161836)
(8.0637249e-07 4.4413469e-07 1.2161839)
(1.3217063e-06 3.2398362e-07 1.2161851)
(4.799672e-07 2.1125429e-07 1.2161861)
(-3.4206968e-07 7.6157162e-07 1.2161854)
(-2.4411894e-06 7.0114192e-07 1.2161845)
(-1.4857741e-06 5.9249503e-07 1.2161823)
(8.6897172e-07 4.751307e-07 1.2161828)
(6.3878471e-07 3.8305204e-07 1.2161834)
(3.1027255e-07 3.1027255e-07 1.2161837)
(2.6737547e-07 2.5121329e-07 1.2161838)
(7.375769e-07 2.0415655e-07 1.216184)
(1.2619631e-06 1.6962678e-07 1.2161852)
(4.6240858e-07 1.4932092e-07 1.2161862)
(-3.6217817e-07 7.6836841e-07 1.2161859)
(-2.5387644e-06 7.7633373e-07 1.216185)
(-1.627446e-06 6.5431155e-07 1.2161826)
(7.4199617e-07 4.6202549e-07 1.2161831)
(5.5021158e-07 3.38623e-07 1.2161836)
(2.5121329e-07 2.6737547e-07 1.2161838)
(2.32507e-07 2.32507e-07 1.2161838)
(7.2478598e-07 2.2969906e-07 1.2161841)
(1.2668707e-06 2.5483271e-07 1.2161853)
(4.6642996e-07 2.953684e-07 1.2161863)
(-3.3675947e-07 8.7221741e-07 1.2161866)
(-2.5552463e-06 1.1588491e-06 1.2161857)
(-1.8000823e-06 1.2346295e-06 1.2161832)
(5.5328317e-07 9.6380485e-07 1.2161835)
(4.4413469e-07 8.0637249e-07 1.2161839)
(2.0415655e-07 7.375769e-07 1.216184)
(2.2969906e-07 7.24786e-07 1.2161841)
(7.5990261e-07 7.5990261e-07 1.2161844)
(1.3276324e-06 8.3479011e-07 1.2161856)
(4.8943237e-07 9.2368289e-07 1.2161867)
(-1.7109037e-07 7.0322782e-07 1.2161874)
(-2.1763523e-06 1.1894958e-06 1.2161871)
(-1.8224902e-06 1.7928453e-06 1.2161848)
(3.1373916e-07 1.4948435e-06 1.2161848)
(3.2398363e-07 1.3217063e-06 1.2161851)
(1.696268e-07 1.2619631e-06 1.2161852)
(2.5483272e-07 1.2668707e-06 1.2161853)
(8.3479009e-07 1.3276324e-06 1.2161856)
(1.430651e-06 1.430651e-06 1.216187)
(5.2569182e-07 1.4963632e-06 1.2161881)
(-1.2580812e-08 1.605482e-07 1.2161876)
(-1.4656288e-06 3.1905775e-07 1.2161878)
(-1.4947347e-06 6.3436383e-07 1.2161861)
(8.2144212e-08 5.3756147e-07 1.216186)
(2.1125429e-07 4.799672e-07 1.2161861)
(1.4932092e-07 4.6240858e-07 1.2161862)
(2.9536839e-07 4.6642995e-07 1.2161863)
(9.2368289e-07 4.8943237e-07 1.2161867)
(1.4963632e-06 5.2569182e-07 1.2161881)
(5.3324052e-07 5.3324052e-07 1.216189)
(3.6956469e-07 3.6956469e-07 1.2144902)
(-4.1457984e-06 -1.8519956e-06 1.2144901)
(-4.2255701e-06 -8.0659089e-07 1.2144877)
(1.344696e-06 -6.4354009e-07 1.2144881)
(1.5465255e-06 -6.5059667e-07 1.2144888)
(1.2897118e-06 -6.9064127e-07 1.2144893)
(1.3684668e-06 -7.3718656e-07 1.2144897)
(1.69315e-06 -6.9112621e-07 1.2144904)
(1.1414448e-06 -2.8718953e-07 1.2144916)
(1.3563618e-07 1.2057904e-07 1.2144917)
(-1.8519956e-06 -4.1457984e-06 1.2144901)
(-5.9100316e-06 -5.9100316e-06 1.2144885)
(-2.4128869e-06 -3.9290265e-06 1.2144868)
(1.5786874e-06 -3.6034802e-06 1.2144874)
(1.4758737e-06 -3.6342524e-06 1.214488)
(1.159827e-06 -3.7718475e-06 1.2144885)
(1.3677394e-06 -3.9751778e-06 1.2144888)
(2.3681455e-06 -4.0363373e-06 1.2144895)
(2.3590026e-06 -3.2363841e-06 1.2144913)
(5.4340476e-07 -1.8854672e-06 1.2144921)
(-8.0659089e-07 -4.2255701e-06 1.2144877)
(-3.9290265e-06 -2.4128869e-06 1.2144868)
(-1.9190187e-06 -1.9190187e-06 1.2144854)
(1.6394701e-06 -1.8289101e-06 1.214486)
(1.3781582e-06 -1.88545e-06 1.2144866)
(9.4878649e-07 -2.0411721e-06 1.214487)
(1.1039769e-06 -2.3088101e-06 1.2144872)
(2.4319436e-06 -2.649755e-06 1.2144878)
(3.2923149e-06 -2.7112429e-06 1.2144897)
(1.0362474e-06 -2.1977961e-06 1.214491)
(-6.4354009e-07 1.344696e-06 1.2144881)
(-3.6034802e-06 1.5786874e-06 1.2144874)
(-1.8289101e-06 1.6394701e-06 1.214486)
(1.6122561e-06 1.6122561e-06 1.2144866)
(1.2636116e-06 1.5229213e-06 1.2144872)
(7.364669e-07 1.3736579e-06 1.2144875)
(7.591565e-07 1.145113e-06 1.2144876)
(1.9657127e-06 8.0902824e-07 1.214488)
(2.8109616e-06 4.0432886e-07 1.2144897)
(8.8570265e-07 3.3640901e-08 1.2144908)
(-6.5059666e-07 1.5465255e-06 1.2144888)
(-3.6342524e-06 1.4758737e-06 1.214488)
(-1.88545e-06 1.3781582e-06 1.2144866)
(1.5229213e-06 1.2636116e-06 1.2144872)
(1.13956e-06 1.13956e-06 1.2144877)
(5.7097819e-07 1.0021919e-06 1.214488)
(5.3934724e-07 8.4404213e-07 1.214488)
(1.6911595e-06 6.5656708e-07 1.2144882)
(2.5169275e-06 4.5025965e-07 1.2144898)
(7.8912214e-07 2.6090574e-07 1.2144909)
(-6.9064127e-07 1.2897118e-06 1.2144893)
(-3.7718475e-06 1.159827e-06 1.2144885)
(-2.0411721e-06 9.4878647e-07 1.214487)
(1.3736579e-06 7.3646689e-07 1.2144875)
(1.0021919e-06 5.709782e-07 1.214488)
(4.4094902e-07 4.4094902e-07 1.2144881)
(4.1353169e-07 3.3748761e-07 1.2144881)
(1.5719302e-06 2.5837818e-07 1.2144883)
(2.4153002e-06 2.0582997e-07 1.2144899)
(7.594667e-07 1.8093092e-07 1.2144908)
(-7.3718657e-07 1.3684668e-06 1.2144897)
(-3.9751778e-06 1.3677394e-06 1.2144888)
(-2.30881e-06 1.1039769e-06 1.2144872)
(1.145113e-06 7.591565e-07 1.2144876)
(8.4404213e-07 5.3934725e-07 1.214488)
(3.374876e-07 4.1353169e-07 1.2144881)
(3.567764e-07 3.5677641e-07 1.214488)
(1.5595019e-06 3.6452733e-07 1.2144882)
(2.4394803e-06 4.3254813e-07 1.2144898)
(7.7252277e-07 5.3937089e-07 1.2144908)
(-6.911262e-07 1.69315e-06 1.2144904)
(-4.0363374e-06 2.3681455e-06 1.2144895)
(-2.649755e-06 2.4319436e-06 1.2144878)
(8.0902825e-07 1.9657127e-06 1.214488)
(6.5656708e-07 1.6911595e-06 1.2144882)
(2.5837817e-07 1.5719302e-06 1.2144883)
(3.6452734e-07 1.5595019e-06 1.2144882)
(1.6477019e-06 1.6477019e-06 1.2144885)
(2.5901438e-06 1.8250476e-06 1.2144901)
(8.3068188e-07 2.0283085e-06 1.2144913)
(-2.8718953e-07 1.1414448e-06 1.2144916)
(-3.2363841e-06 2.3590026e-06 1.2144913)
(-2.7112429e-06 3.2923149e-06 1.2144897)
(4.0432886e-07 2.8109616e-06 1.2144897)
(4.5025966e-07 2.5169275e-06 1.2144898)
(2.0582998e-07 2.4153003e-06 1.2144899)
(4.3254813e-07 2.4394803e-06 1.2144898)
(1.8250476e-06 2.5901438e-06 1.2144901)
(2.8200869e-06 2.8200869e-06 1.214492)
(9.0803008e-07 2.6358503e-06 1.2144933)
(1.2057904e-07 1.3563618e-07 1.2144917)
(-1.8854672e-06 5.4340475e-07 1.2144921)
(-2.1977961e-06 1.0362474e-06 1.214491)
(3.3640892e-08 8.8570264e-07 1.2144908)
(2.6090574e-07 7.8912214e-07 1.2144909)
(1.8093093e-07 7.594667e-07 1.2144908)
(5.3937089e-07 7.7252277e-07 1.2144908)
(2.0283085e-06 8.3068187e-07 1.2144913)
(2.6358503e-06 9.0803008e-07 1.2144933)
(7.0785752e-07 7.0785751e-07 1.2144937)
(3.8912741e-07 3.8912742e-07 1.2118612)
(-5.1501572e-06 -2.277741e-06 1.2118613)
(-5.0256497e-06 -1.011323e-06 1.2118593)
(1.8883414e-06 -8.1590782e-07 1.2118598)
(2.0836037e-06 -8.3084869e-07 1.2118604)
(1.721265e-06 -8.9501057e-07 1.2118608)
(1.9148823e-06 -9.8073404e-07 1.2118612)
(2.6927191e-06 -9.4479191e-07 1.2118618)
(1.9572124e-06 -3.3769295e-07 1.211863)
(2.4104734e-07 2.4533357e-07 1.2118634)
(-2.277741e-06 -5.1501572e-06 1.2118613)
(-7.2508327e-06 -7.2508327e-06 1.2118601)
(-2.8329e-06 -4.8434244e-06 1.2118588)
(2.1590529e-06 -4.4526112e-06 1.2118594)
(1.9649495e-06 -4.5096251e-06 1.21186)
(1.496437e-06 -4.7225964e-06 1.2118603)
(1.8402102e-06 -5.0552699e-06 1.2118605)
(3.6572807e-06 -5.2142948e-06 1.2118611)
(3.7424006e-06 -4.0434874e-06 1.2118629)
(8.2407386e-07 -2.1815876e-06 1.2118638)
(-1.011323e-06 -5.0256497e-06 1.2118593)
(-4.8434244e-06 -2.8329e-06 1.2118588)
(-2.2274283e-06 -2.2274283e-06 1.2118577)
(2.2221407e-06 -2.1241687e-06 1.2118583)
(1.8136185e-06 -2.2148831e-06 1.2118588)
(1.1756202e-06 -2.4464804e-06 1.2118591)
(1.4231838e-06 -2.8454455e-06 1.2118591)
(3.7045016e-06 -3.3607169e-06 1.2118595)
(4.9899196e-06 -3.44807e-06 1.2118615)
(1.4823139e-06 -2.750208e-06 1.2118628)
(-8.1590782e-07 1.8883414e-06 1.2118598)
(-4.4526112e-06 2.1590529e-06 1.2118594)
(-2.1241687e-06 2.2221407e-06 1.2118583)
(2.1715981e-06 2.1715981e-06 1.2118589)
(1.6426378e-06 2.0368129e-06 1.2118594)
(8.6587456e-07 1.8184381e-06 1.2118595)
(9.2597369e-07 1.4875426e-06 1.2118595)
(3.0546562e-06 1.0065596e-06 1.2118597)
(4.3529095e-06 4.526319e-07 1.2118615)
(1.2893152e-06 -3.1973244e-08 1.2118627)
(-8.3084869e-07 2.0836036e-06 1.2118604)
(-4.5096251e-06 1.9649495e-06 1.21186)
(-2.2148831e-06 1.8136185e-06 1.2118588)
(2.0368129e-06 1.6426378e-06 1.2118594)
(1.4604585e-06 1.4604585e-06 1.2118598)
(6.2634983e-07 1.2614047e-06 1.2118599)
(6.1130529e-07 1.0348403e-06 1.2118598)
(2.6695909e-06 7.6962553e-07 1.2118599)
(3.9513867e-06 4.8610456e-07 1.2118616)
(1.1592438e-06 2.3249018e-07 1.2118627)
(-8.9501056e-07 1.721265e-06 1.2118608)
(-4.7225964e-06 1.496437e-06 1.2118603)
(-2.4464804e-06 1.1756202e-06 1.2118591)
(1.8184382e-06 8.6587455e-07 1.2118595)
(1.2614047e-06 6.2634984e-07 1.2118599)
(4.402563e-07 4.4025632e-07 1.21186)
(4.3419448e-07 2.9598598e-07 1.2118598)
(2.5059205e-06 1.9193124e-07 1.2118598)
(3.8157741e-06 1.3322282e-07 1.2118615)
(1.1202389e-06 1.1755015e-07 1.2118626)
(-9.8073404e-07 1.9148823e-06 1.2118612)
(-5.0552699e-06 1.8402102e-06 1.2118605)
(-2.8454455e-06 1.4231838e-06 1.2118591)
(1.4875426e-06 9.259737e-07 1.2118595)
(1.0348403e-06 6.1130529e-07 1.2118598)
(2.9598597e-07 4.3419448e-07 1.2118598)
(3.6298021e-07 3.6298021e-07 1.2118596)
(2.5068278e-06 3.9721213e-07 1.2118596)
(3.8770057e-06 5.3816094e-07 1.2118613)
(1.1487954e-06 7.5429571e-07 1.2118625)
(-9.4479191e-07 2.6927191e-06 1.2118618)
(-5.2142948e-06 3.6572808e-06 1.2118611)
(-3.3607169e-06 3.7045016e-06 1.2118595)
(1.0065596e-06 3.0546562e-06 1.2118597)
(7.6962553e-07 2.6695909e-06 1.2118599)
(1.9193123e-07 2.5059205e-06 1.2118598)
(3.9721213e-07 2.5068278e-06 1.2118596)
(2.6811012e-06 2.6811012e-06 1.2118598)
(4.1728577e-06 3.0312911e-06 1.2118616)
(1.2643288e-06 3.4423669e-06 1.2118629)
(-3.3769294e-07 1.9572123e-06 1.211863)
(-4.0434874e-06 3.7424006e-06 1.2118629)
(-3.44807e-06 4.9899196e-06 1.2118615)
(4.526319e-07 4.3529095e-06 1.2118615)
(4.8610456e-07 3.9513867e-06 1.2118616)
(1.3322281e-07 3.8157742e-06 1.2118615)
(5.3816094e-07 3.8770057e-06 1.2118613)
(3.0312911e-06 4.1728577e-06 1.2118616)
(4.6382713e-06 4.6382713e-06 1.2118637)
(1.4228459e-06 3.8917233e-06 1.2118653)
(2.4533358e-07 2.4104734e-07 1.2118634)
(-2.1815875e-06 8.2407386e-07 1.2118638)
(-2.7502081e-06 1.4823139e-06 1.2118628)
(-3.1973242e-08 1.2893152e-06 1.2118627)
(2.324902e-07 1.1592438e-06 1.2118627)
(1.1755016e-07 1.1202389e-06 1.2118626)
(7.5429571e-07 1.1487954e-06 1.2118625)
(3.4423669e-06 1.2643288e-06 1.2118629)
(3.8917233e-06 1.4228459e-06 1.2118653)
(7.6663009e-07 7.666301e-07 1.2118655)
(4.4443665e-07 4.4443665e-07 1.2083319)
(-5.9881355e-06 -2.6323596e-06 1.208332)
(-5.6937796e-06 -1.1555716e-06 1.2083303)
(2.4292152e-06 -9.3242948e-07 1.2083308)
(2.5511542e-06 -9.5710097e-07 1.2083314)
(2.0336946e-06 -1.0468104e-06 1.2083317)
(2.3051463e-06 -1.1750933e-06 1.2083319)
(3.5694835e-06 -1.157479e-06 1.2083323)
(2.7688779e-06 -3.5777962e-07 1.2083335)
(3.6919699e-07 3.6901011e-07 1.2083338)
(-2.6323596e-06 -5.9881355e-06 1.208332)
(-8.3881476e-06 -8.3881476e-06 1.208331)
(-3.1438847e-06 -5.582947e-06 1.2083299)
(2.7269211e-06 -5.1410315e-06 1.2083305)
(2.3795828e-06 -5.2306493e-06 1.208331)
(1.7067061e-06 -5.523204e-06 1.2083313)
(2.1391433e-06 -5.9923567e-06 1.2083313)
(4.795454e-06 -6.2637992e-06 1.2083317)
(5.0586117e-06 -4.7362757e-06 1.2083334)
(1.0959867e-06 -2.4244887e-06 1.2083342)
(-1.1555716e-06 -5.6937796e-06 1.2083303)
(-5.582947e-06 -3.1438847e-06 1.2083299)
(-2.4466636e-06 -2.4466636e-06 1.2083289)
(2.7815128e-06 -2.3424242e-06 1.2083295)
(2.1689817e-06 -2.4737464e-06 1.20833)
(1.2719872e-06 -2.784795e-06 1.2083302)
(1.5645511e-06 -3.317887e-06 1.2083301)
(4.8255645e-06 -4.0090315e-06 1.2083303)
(6.6081884e-06 -4.1149216e-06 1.2083322)
(1.9103883e-06 -3.2402403e-06 1.2083334)
(-9.3242948e-07 2.4292152e-06 1.2083308)
(-5.1410315e-06 2.7269211e-06 1.2083305)
(-2.3424242e-06 2.7815129e-06 1.2083295)
(2.6998384e-06 2.6998384e-06 1.2083301)
(1.937212e-06 2.5150535e-06 1.2083306)
(8.6256546e-07 2.2253331e-06 1.2083306)
(9.1490681e-07 1.7914476e-06 1.2083304)
(3.9984193e-06 1.1674237e-06 1.2083305)
(5.8274029e-06 4.7328787e-07 1.2083321)
(1.6791076e-06 -1.1441863e-07 1.2083333)
(-9.5710097e-07 2.5511542e-06 1.2083314)
(-5.2306493e-06 2.3795828e-06 1.208331)
(-2.4737464e-06 2.1689817e-06 1.20833)
(2.5150534e-06 1.937212e-06 1.2083306)
(1.6944765e-06 1.6944765e-06 1.208331)
(5.4838143e-07 1.4331404e-06 1.208331)
(5.0664168e-07 1.1392191e-06 1.2083307)
(3.5074047e-06 7.9928428e-07 1.2083306)
(5.3263461e-06 4.447528e-07 1.2083322)
(1.5185839e-06 1.3416962e-07 1.2083332)
(-1.0468104e-06 2.0336946e-06 1.2083317)
(-5.523204e-06 1.7067061e-06 1.2083313)
(-2.784795e-06 1.2719872e-06 1.2083302)
(2.2253331e-06 8.6256547e-07 1.2083306)
(1.4331404e-06 5.4838144e-07 1.208331)
(3.0730805e-07 3.0730805e-07 1.2083309)
(2.8105069e-07 1.2524681e-07 1.2083306)
(3.3039531e-06 1.6318451e-09 1.2083305)
(5.1622882e-06 -5.5174403e-08 1.208332)
(1.4720522e-06 -5.3097214e-08 1.208333)
(-1.1750933e-06 2.3051463e-06 1.2083319)
(-5.9923567e-06 2.1391433e-06 1.2083313)
(-3.317887e-06 1.5645511e-06 1.2083301)
(1.7914477e-06 9.1490682e-07 1.2083304)
(1.139219e-06 5.0664168e-07 1.2083307)
(1.2524681e-07 2.8105069e-07 1.2083306)
(2.0096547e-07 2.0096546e-07 1.2083302)
(3.3269835e-06 2.7241794e-07 1.2083301)
(5.271617e-06 5.0572494e-07 1.2083317)
(1.5199687e-06 8.5986543e-07 1.2083328)
(-1.157479e-06 3.5694835e-06 1.2083323)
(-6.2637992e-06 4.795454e-06 1.2083317)
(-4.0090315e-06 4.8255645e-06 1.2083303)
(1.1674237e-06 3.9984193e-06 1.2083305)
(7.9928427e-07 3.5074047e-06 1.2083306)
(1.6318281e-09 3.3039531e-06 1.2083305)
(2.7241794e-07 3.3269835e-06 1.2083301)
(3.6087126e-06 3.6087126e-06 1.2083301)
(5.7497357e-06 4.1817641e-06 1.2083318)
(1.7081458e-06 4.8874803e-06 1.2083331)
(-3.5777962e-07 2.7688779e-06 1.2083335)
(-4.7362756e-06 5.0586117e-06 1.2083334)
(-4.1149216e-06 6.6081884e-06 1.2083322)
(4.7328787e-07 5.8274028e-06 1.2083321)
(4.447528e-07 5.3263461e-06 1.2083322)
(-5.5174403e-08 5.1622882e-06 1.208332)
(5.0572494e-07 5.271617e-06 1.2083317)
(4.1817641e-06 5.7497357e-06 1.2083318)
(6.5503848e-06 6.5503848e-06 1.2083339)
(1.9904462e-06 5.2010455e-06 1.2083355)
(3.6901011e-07 3.6919699e-07 1.2083338)
(-2.4244887e-06 1.0959867e-06 1.2083342)
(-3.2402403e-06 1.9103883e-06 1.2083334)
(-1.1441863e-07 1.6791076e-06 1.2083333)
(1.3416963e-07 1.5185839e-06 1.2083332)
(-5.3097203e-08 1.4720522e-06 1.208333)
(8.5986542e-07 1.5199687e-06 1.2083328)
(4.8874803e-06 1.7081458e-06 1.2083331)
(5.2010455e-06 1.9904462e-06 1.2083355)
(8.0858621e-07 8.0858621e-07 1.2083357)
(5.1388635e-07 5.1388636e-07 1.2039382)
(-6.7170086e-06 -2.9442439e-06 1.2039384)
(-6.2597863e-06 -1.2659292e-06 1.2039368)
(2.965356e-06 -1.0178666e-06 1.2039374)
(2.9566304e-06 -1.0533246e-06 1.2039379)
(2.2367478e-06 -1.1692069e-06 1.2039381)
(2.5436957e-06 -1.3413343e-06 1.2039382)
(4.2818144e-06 -1.3459946e-06 1.2039385)
(3.4782986e-06 -3.6222616e-07 1.2039395)
(4.8183847e-07 4.9615466e-07 1.2039398)
(-2.9442439e-06 -6.7170086e-06 1.2039384)
(-9.3867315e-06 -9.3867315e-06 1.2039375)
(-3.3702206e-06 -6.2041454e-06 1.2039365)
(3.2842628e-06 -5.7194772e-06 1.2039372)
(2.72962e-06 -5.8456156e-06 1.2039376)
(1.8047333e-06 -6.22006e-06 1.2039378)
(2.2785141e-06 -6.8288627e-06 1.2039377)
(5.7504765e-06 -7.2207309e-06 1.2039379)
(6.2415226e-06 -5.3537941e-06 1.2039395)
(1.3402193e-06 -2.6243676e-06 1.2039401)
(-1.2659292e-06 -6.2597863e-06 1.2039368)
(-6.2041454e-06 -3.3702206e-06 1.2039365)
(-2.5925321e-06 -2.5925321e-06 1.2039357)
(3.3238858e-06 -2.4946366e-06 1.2039363)
(2.4560476e-06 -2.6709113e-06 1.2039368)
(1.2535007e-06 -3.0638639e-06 1.2039368)
(1.5430248e-06 -3.7327549e-06 1.2039366)
(5.7568829e-06 -4.6014635e-06 1.2039366)
(8.0746619e-06 -4.7282468e-06 1.2039383)
(2.3014561e-06 -3.6890637e-06 1.2039394)
(-1.0178666e-06 2.965356e-06 1.2039374)
(-5.7194772e-06 3.2842628e-06 1.2039372)
(-2.4946366e-06 3.3238858e-06 1.2039363)
(3.2058836e-06 3.2058836e-06 1.2039369)
(2.1603927e-06 2.9678112e-06 1.2039373)
(7.4288966e-07 2.6051392e-06 1.2039373)
(7.4091441e-07 2.0679746e-06 1.203937)
(4.7549846e-06 1.3021728e-06 1.2039368)
(7.1539224e-06 4.7192967e-07 1.2039383)
(2.0330081e-06 -2.1497879e-07 1.2039393)
(-1.0533246e-06 2.9566304e-06 1.2039379)
(-5.8456156e-06 2.72962e-06 1.2039376)
(-2.6709113e-06 2.4560476e-06 1.2039368)
(2.9678112e-06 2.1603927e-06 1.2039373)
(1.8553032e-06 1.8553032e-06 1.2039376)
(3.5366414e-07 1.5312858e-06 1.2039376)
(2.4005843e-07 1.1708974e-06 1.2039372)
(4.160838e-06 7.5843454e-07 1.2039369)
(6.5575103e-06 3.3660429e-07 1.2039383)
(1.8435171e-06 -2.7288623e-08 1.2039392)
(-1.1692069e-06 2.2367478e-06 1.2039381)
(-6.22006e-06 1.8047333e-06 1.2039378)
(-3.0638639e-06 1.2535007e-06 1.2039368)
(2.6051392e-06 7.4288967e-07 1.2039373)
(1.5312858e-06 3.5366414e-07 1.2039376)
(5.8483857e-08 5.8483871e-08 1.2039374)
(-3.1936822e-08 -1.5917599e-07 1.203937)
(3.9206915e-06 -2.9883646e-07 1.2039367)
(6.3681992e-06 -3.4919731e-07 1.203938)
(1.7904128e-06 -3.2554519e-07 1.2039389)
(-1.3413343e-06 2.5436957e-06 1.2039382)
(-6.8288627e-06 2.2785141e-06 1.2039377)
(-3.7327549e-06 1.5430248e-06 1.2039366)
(2.0679746e-06 7.4091441e-07 1.203937)
(1.1708974e-06 2.4005843e-07 1.2039372)
(-1.5917599e-07 -3.1936818e-08 1.203937)
(-1.1726189e-07 -1.1726189e-07 1.2039365)
(3.9708167e-06 -2.5636987e-09 1.2039362)
(6.5308015e-06 3.3260256e-07 1.2039376)
(1.8592852e-06 8.3704678e-07 1.2039385)
(-1.3459946e-06 4.2818144e-06 1.2039385)
(-7.2207309e-06 5.7504765e-06 1.2039379)
(-4.6014635e-06 5.7568829e-06 1.2039366)
(1.3021728e-06 4.7549846e-06 1.2039368)
(7.5843454e-07 4.160838e-06 1.2039369)
(-2.9883646e-07 3.9206915e-06 1.2039367)
(-2.5637025e-09 3.9708167e-06 1.2039362)
(4.3705559e-06 4.3705559e-06 1.203936)
(7.2078097e-06 5.1900193e-06 1.2039375)
(2.126709e-06 6.2315081e-06 1.2039387)
(-3.6222616e-07 3.4782987e-06 1.2039395)
(-5.3537941e-06 6.2415226e-06 1.2039395)
(-4.7282468e-06 8.0746619e-06 1.2039383)
(4.7192966e-07 7.1539224e-06 1.2039383)
(3.3660428e-07 6.5575102e-06 1.2039383)
(-3.4919731e-07 6.3681992e-06 1.203938)
(3.3260256e-07 6.5308015e-06 1.2039376)
(5.1900193e-06 7.2078097e-06 1.2039375)
(8.3917538e-06 8.3917538e-06 1.2039394)
(2.5536111e-06 6.467219e-06 1.2039411)
(4.9615467e-07 4.8183846e-07 1.2039398)
(-2.6243676e-06 1.3402193e-06 1.2039401)
(-3.6890637e-06 2.3014561e-06 1.2039394)
(-2.149788e-07 2.0330081e-06 1.2039393)
(-2.7288631e-08 1.8435171e-06 1.2039392)
(-3.2554518e-07 1.7904128e-06 1.2039389)
(8.3704679e-07 1.8592852e-06 1.2039385)
(6.2315081e-06 2.126709e-06 1.2039387)
(6.467219e-06 2.5536111e-06 1.2039411)
(8.4368568e-07 8.4368568e-07 1.2039412)
(5.9741163e-07 5.9741163e-07 1.1987217)
(-7.3363901e-06 -3.2138543e-06 1.198722)
(-6.725544e-06 -1.3442451e-06 1.1987206)
(3.4953614e-06 -1.0737806e-06 1.1987211)
(3.304756e-06 -1.1207562e-06 1.1987216)
(2.3407799e-06 -1.263157e-06 1.1987218)
(2.6442697e-06 -1.4799181e-06 1.1987217)
(4.8318854e-06 -1.5103361e-06 1.1987218)
(4.06449e-06 -3.5342193e-07 1.1987227)
(5.6830113e-07 6.2739141e-07 1.1987229)
(-3.2138543e-06 -7.3363901e-06 1.198722)
(-1.0248875e-05 -1.0248875e-05 1.1987212)
(-3.5154338e-06 -6.710476e-06 1.1987204)
(3.8305948e-06 -6.1897933e-06 1.198721)
(3.0206915e-06 -6.3550861e-06 1.1987215)
(1.8020371e-06 -6.8127175e-06 1.1987215)
(2.273501e-06 -7.5629736e-06 1.1987214)
(6.5216295e-06 -8.0824561e-06 1.1987214)
(7.2710814e-06 -5.9004487e-06 1.1987227)
(1.5491145e-06 -2.7824299e-06 1.1987233)
(-1.3442451e-06 -6.725544e-06 1.1987206)
(-6.710476e-06 -3.5154338e-06 1.1987204)
(-2.6664627e-06 -2.6664627e-06 1.1987197)
(3.8507514e-06 -2.5800381e-06 1.1987203)
(2.6818318e-06 -2.8041427e-06 1.1987207)
(1.1328925e-06 -3.280407e-06 1.1987207)
(1.3745312e-06 -4.0857688e-06 1.1987204)
(6.4944102e-06 -5.1335333e-06 1.1987202)
(9.3645162e-06 -5.2884847e-06 1.1987216)
(2.6469803e-06 -4.0999254e-06 1.1987226)
(-1.0737806e-06 3.4953614e-06 1.1987211)
(-6.1897933e-06 3.8305948e-06 1.198721)
(-2.580038e-06 3.8507514e-06 1.1987203)
(3.6929149e-06 3.6929149e-06 1.1987209)
(2.3203226e-06 3.3993702e-06 1.1987212)
(5.2041093e-07 2.9628244e-06 1.1987212)
(4.2037466e-07 2.3225436e-06 1.1987207)
(5.3189136e-06 1.4161408e-06 1.1987204)
(8.3046893e-06 4.5164426e-07 1.1987217)
(2.3414874e-06 -3.3304005e-07 1.1987225)
(-1.1207562e-06 3.304756e-06 1.1987216)
(-6.3550861e-06 3.0206915e-06 1.1987215)
(-2.8041427e-06 2.6818318e-06 1.1987207)
(3.3993702e-06 2.3203226e-06 1.1987212)
(1.9517413e-06 1.9517413e-06 1.1987215)
(5.6065955e-08 1.5648795e-06 1.1987214)
(-1.7215237e-07 1.1387782e-06 1.1987209)
(4.6235109e-06 6.5535572e-07 1.1987204)
(7.6153353e-06 1.6840484e-07 1.1987216)
(2.1238574e-06 -2.4684766e-07 1.1987224)
(-1.263157e-06 2.3407799e-06 1.1987218)
(-6.8127175e-06 1.8020371e-06 1.1987215)
(-3.280407e-06 1.1328925e-06 1.1987207)
(2.9628244e-06 5.2041092e-07 1.1987212)
(1.5648794e-06 5.6065958e-08 1.1987214)
(-2.9255223e-07 -2.9255222e-07 1.1987212)
(-4.8914906e-07 -5.4438479e-07 1.1987206)
(4.3485403e-06 -6.9806288e-07 1.1987201)
(7.4024859e-06 -7.3976713e-07 1.1987213)
(2.0646524e-06 -6.9318048e-07 1.198722)
(-1.4799181e-06 2.6442697e-06 1.1987217)
(-7.5629735e-06 2.273501e-06 1.1987214)
(-4.0857688e-06 1.3745312e-06 1.1987204)
(2.3225436e-06 4.2037466e-07 1.1987207)
(1.1387782e-06 -1.7215238e-07 1.1987209)
(-5.4438479e-07 -4.8914906e-07 1.1987206)
(-5.7766303e-07 -5.7766303e-07 1.19872)
(4.4281286e-06 -4.1689569e-07 1.1987195)
(7.6202177e-06 2.3809039e-08 1.1987207)
(2.1549152e-06 6.8241274e-07 1.1987215)
(-1.5103361e-06 4.8318854e-06 1.1987218)
(-8.0824561e-06 6.5216295e-06 1.1987214)
(-5.1335333e-06 6.4944102e-06 1.1987202)
(1.4161408e-06 5.3189136e-06 1.1987204)
(6.5535571e-07 4.6235109e-06 1.1987204)
(-6.9806288e-07 4.3485403e-06 1.1987201)
(-4.1689569e-07 4.4281286e-06 1.1987195)
(4.9500123e-06 4.9500123e-06 1.1987192)
(8.5017944e-06 6.0248266e-06 1.1987205)
(2.5037216e-06 7.4182304e-06 1.1987216)
(-3.5342193e-07 4.06449e-06 1.1987227)
(-5.9004487e-06 7.2710814e-06 1.1987227)
(-5.2884847e-06 9.3645162e-06 1.1987216)
(4.5164425e-07 8.3046893e-06 1.1987217)
(1.6840484e-07 7.6153353e-06 1.1987216)
(-7.3976713e-07 7.4024859e-06 1.1987213)
(2.380903e-08 7.6202176e-06 1.1987207)
(6.0248266e-06 8.5017944e-06 1.1987205)
(1.0088436e-05 1.0088436e-05 1.1987222)
(3.0838511e-06 7.6267365e-06 1.1987237)
(6.2739142e-07 5.6830112e-07 1.1987229)
(-2.7824299e-06 1.5491145e-06 1.1987233)
(-4.0999254e-06 2.6469803e-06 1.1987226)
(-3.3304006e-07 2.3414874e-06 1.1987225)
(-2.4684766e-07 2.1238574e-06 1.1987224)
(-6.9318048e-07 2.0646524e-06 1.198722)
(6.8241274e-07 2.1549151e-06 1.1987215)
(7.4182304e-06 2.5037216e-06 1.1987216)
(7.6267365e-06 3.0838511e-06 1.1987237)
(8.6258855e-07 8.6258855e-07 1.1987237)
(6.9541311e-07 6.9541311e-07 1.1927286)
(-7.8427316e-06 -3.4396444e-06 1.1927289)
(-7.0905485e-06 -1.3904235e-06 1.1927277)
(4.0165845e-06 -1.1000737e-06 1.1927283)
(3.5978263e-06 -1.1590848e-06 1.1927287)
(2.3529814e-06 -1.3280948e-06 1.1927288)
(2.6165473e-06 -1.5898899e-06 1.1927287)
(5.2239622e-06 -1.6492735e-06 1.1927286)
(4.5216697e-06 -3.3174324e-07 1.1927293)
(6.2521127e-07 7.6200792e-07 1.1927294)
(-3.4396444e-06 -7.8427316e-06 1.1927289)
(-1.0971486e-05 -1.0971486e-05 1.1927283)
(-3.5811928e-06 -7.1010792e-06 1.1927276)
(4.3635925e-06 -6.5506364e-06 1.1927282)
(3.2557946e-06 -6.7568979e-06 1.1927286)
(1.7067737e-06 -7.2981287e-06 1.1927287)
(2.1347793e-06 -8.1904263e-06 1.1927284)
(7.1111821e-06 -8.8437738e-06 1.1927283)
(8.1385918e-06 -6.3747452e-06 1.1927294)