/*--------------------------------*- C++ -*----------------------------------*\
| =========                 |                                                 |
| \\      /  F ield         | OpenFOAM: The Open Source CFD Toolbox           |
|  \\    /   O peration     | Version:  v2106                                 |
|   \\  /    A nd           | Website:  www.openfoam.com                      |
|    \\/     M anipulation  |                                                 |
\*---------------------------------------------------------------------------*/
FoamFile
{
    version     2.0;
    format      ascii;
    arch        "LSB;label=32;scalar=64";
    class       volScalarField;
    location    "30";
    object      gradTx;
}
// * * * * * * * * * * * * * * * * * * * * * * * * * * * * * * * * * * * * * //

dimensions      [0 -1 0 1 0 0 0];

internalField   nonuniform List<scalar> 
4000
(
0.00025507253
3.7428918e-05
-0.00042323501
-0.00010634055
-2.5063764e-05
3.2093653e-05
7.3327878e-05
8.4017169e-05
4.5387606e-05
3.8842148e-06
-7.5867597e-06
-0.00029214474
-0.00035076818
-9.6305558e-05
-2.0912334e-05
3.880583e-05
8.8684106e-05
0.00011475401
7.015802e-05
7.1146208e-06
3.5356761e-05
-0.00021809379
-0.00033792223
-9.0667881e-05
-1.5655578e-05
4.6536176e-05
0.00010495928
0.00015528099
0.00015677408
4.5423465e-05
4.0724456e-05
-0.00020683196
-0.00033202557
-8.5521921e-05
-1.0648614e-05
5.2139996e-05
0.00011189528
0.00016378401
0.0001650048
4.7828308e-05
4.2046752e-05
-0.00020242112
-0.00032713858
-8.0753919e-05
-6.1112114e-06
5.6667679e-05
0.00011657376
0.00016828339
0.00016807814
4.8464137e-05
4.3492076e-05
-0.00019742377
-0.00032176185
-7.5977558e-05
-1.9423776e-06
6.0333603e-05
0.00011981596
0.00017096661
0.00016980441
4.8836918e-05
4.6521538e-05
-0.0001879786
-0.00031380442
-7.0622417e-05
2.0823932e-06
6.3315986e-05
0.00012188601
0.00017214576
0.00017021782
4.8868912e-05
5.3729561e-05
-0.00016579236
-0.00029855067
-6.4363087e-05
5.9782971e-06
6.5645845e-05
0.00012279561
0.00017157908
0.00016861685
4.8243301e-05
6.7012768e-05
-0.00011671476
-0.00026477443
-5.7620033e-05
9.2649959e-06
6.7178364e-05
0.00012249848
0.00016871254
0.00016308763
4.6026474e-05
7.0243169e-05
-5.4405905e-05
-0.00020370389
-5.3059011e-05
1.077791e-05
6.778553e-05
0.00012160805
0.00016444888
0.00015239611
4.1115622e-05
0.001560901
-0.00024348328
-0.0033811545
-0.0010792892
-0.00025023834
0.0003140799
0.00071545428
0.00081809726
0.00038515965
7.7862599e-07
5.9385174e-05
-0.0021819476
-0.0030072371
-0.00099974647
-0.00020999591
0.0003786658
0.00086652504
0.0011248254
0.00048255675
-6.7247049e-05
0.00026859143
-0.0017812043
-0.0028848913
-0.00094023032
-0.00015907805
0.00045180913
0.0010224611
0.0015224391
0.0012577827
0.00025756543
0.00030866342
-0.0016856844
-0.0028222588
-0.00088938011
-0.00011136933
0.00050468526
0.0010888211
0.0016129404
0.0013647304
0.00029357153
0.00032161992
-0.0016421454
-0.0027745249
-0.0008438262
-6.8365424e-05
0.00054742216
0.001132892
0.0016563066
0.0013967154
0.00030092661
0.00033549171
-0.0015945241
-0.0027236322
-0.0007986675
-2.8927954e-05
0.00058210551
0.0011635176
0.0016816482
0.0014129775
0.0003044069
0.00036467719
-0.0015044162
-0.0026485054
-0.00074821317
9.0548156e-06
0.00061036729
0.0011832173
0.0016929216
0.0014169833
0.00030473751
0.00043620554
-0.0012875173
-0.0025013362
-0.00068823662
4.5768508e-05
0.00063243076
0.0011919541
0.001687494
0.0014013795
0.00029860221
0.00056916263
-0.0008000744
-0.0021603904
-0.00061434568
7.7762612e-05
0.00064698233
0.0011890631
0.0016587321
0.0013424998
0.00027425643
0.00050113695
-0.0004148942
-0.0016191626
-0.0005493039
9.4015663e-05
0.00065269869
0.0011803561
0.0016130105
0.0012056627
0.00020737748
0.0017483805
-0.0014469538
-0.0054134308
-0.0018144508
-0.00037564385
0.00065287258
0.0014337985
0.0016806595
0.00044198701
-0.00024189728
-0.00030047373
-0.0040747687
-0.0048755535
-0.001689777
-0.00030879533
0.00076514586
0.0017346853
0.0024461285
0.0010111694
-0.00022395554
-3.4961052e-06
-0.0034905693
-0.0046757622
-0.0015872807
-0.00022318824
0.00088315191
0.0019862234
0.0031222596
0.0023027954
0.00030484181
5.8111153e-05
-0.0033371001
-0.0045669302
-0.0014986403
-0.00014169262
0.00097109151
0.0020948028
0.0032780757
0.0024962627
0.00037078839
7.9619765e-05
-0.0032633992
-0.0044846255
-0.0014200411
-6.8025753e-05
0.0010435076
0.002168743
0.0033518691
0.0025527968
0.00038425463
0.00010267683
-0.0031846445
-0.0043998275
-0.0013434778
-6.6820096e-07
0.001102931
0.0022213306
0.0033957685
0.0025815258
0.00039053248
0.00015446862
-0.0030331199
-0.0042786799
-0.0012596855
6.3813718e-05
0.00115185
0.0022563391
0.0034168289
0.0025904857
0.00039185868
0.00030326804
-0.0026322196
-0.00403971
-0.0011609582
0.00012585955
0.0011905271
0.0022731349
0.0034085152
0.0025621333
0.00038030352
0.00066478126
-0.0015915198
-0.0034467327
-0.001030076
0.00018150655
0.0012168099
0.0022690858
0.0033489649
0.0024089355
0.00031052542
0.000682723
-0.00077141121
-0.0025546168
-0.00091095676
0.00021112268
0.001228216
0.0022537424
0.003226965
0.0017933444
-3.0090546e-05
0.001738738
-0.0026911967
-0.0070375351
-0.0023113294
-0.00037006408
0.0010746061
0.0022766196
0.0028886668
0.0010688316
-0.00027652517
-0.00069203575
-0.0057494803
-0.0063270399
-0.0021470374
-0.00028661064
0.0012128473
0.0026813807
0.0040529735
0.0020505554
-0.00019271418
-0.00030011774
-0.0049721697
-0.0060540914
-0.0020090269
-0.00017742692
0.0013564862
0.0029943425
0.0049568272
0.0037778485
0.00050558613
-0.00021837229
-0.0047660366
-0.0059059711
-0.0018907501
-7.2474022e-05
0.0014650262
0.0031245589
0.0051536819
0.0040335482
0.00059345479
-0.00019058974
-0.0046698672
-0.0057978042
-0.0017880361
2.2512794e-05
0.0015566712
0.0032163566
0.0052457402
0.0041051041
0.00061051773
-0.00016273666
-0.0045733995
-0.0056918344
-0.0016908104
0.0001088997
0.0016333142
0.0032845409
0.0053034363
0.0041437895
0.00061916671
-9.8428918e-05
-0.0043879871
-0.0055456253
-0.0015878511
0.00019080079
0.0016976931
0.0033331852
0.005336267
0.0041627989
0.00062359613
0.00010710406
-0.0038556765
-0.0052486563
-0.0014687963
0.00026888174
0.0017501427
0.0033615294
0.0053360688
0.004140074
0.00061383086
0.00067777558
-0.0023198265
-0.0044449169
-0.0012989381
0.00034055514
0.0017882199
0.0033658177
0.0052676341
0.0039147853
0.00050387686
0.00076158657
-0.0011466596
-0.0032656634
-0.0011415407
0.00037912303
0.0018078375
0.0033578139
0.0050880552
0.0025519696
-0.00029471291
0.00164996
-0.0038782902
-0.0083549954
-0.0025978268
-0.00024645608
0.0015474919
0.0031461521
0.0041868698
0.0019671955
-0.00018093887
-0.0010872316
-0.0072422427
-0.0074598853
-0.0023959674
-0.0001542664
0.0016949997
0.0036211289
0.005697547
0.0033338955
-2.9540987e-05
-0.00059267495
-0.0062576747
-0.0071127676
-0.0022278279
-3.1817159e-05
0.0018462956
0.0039642675
0.0067799034
0.005431603
0.00081438465
-0.0004904916
-0.0060000149
-0.006930089
-0.0020874362
8.6190133e-05
0.0019607153
0.0040951466
0.0069912576
0.0057223341
0.00091554851
-0.00045810199
-0.0058876758
-0.0068042365
-0.0019696572
0.00019270681
0.0020605461
0.0041920286
0.0070880016
0.0057973017
0.00093295525
-0.0004290318
-0.005785376
-0.0066896324
-0.0018629123
0.00028868452
0.0021463895
0.004269035
0.0071542941
0.0058428578
0.00094333461
-0.00035976341
-0.005588872
-0.0065385209
-0.0017554066
0.00037838095
0.0022207736
0.0043297967
0.0072014243
0.0058776148
0.00095313813
-0.00011238063
-0.0049672606
-0.0062156147
-0.0016351512
0.00046257293
0.0022841576
0.0043741183
0.0072228791
0.00588377
0.00095443377
0.00064735478
-0.0029958384
-0.0052448103
-0.0014473084
0.00054141742
0.0023341963
0.0043983818
0.0071772087
0.0056465241
0.00082952465
0.00079875266
-0.0015028531
-0.0038271761
-0.0012694525
0.00058309658
0.0023644707
0.0044150305
0.0069917884
0.0035457537
-0.00044607982
0.0015215579
-0.0049554922
-0.0093862644
-0.0026992247
-2.9366309e-05
0.0020365187
0.0039786073
0.0054479526
0.0029564068
-1.8689358e-05
-0.0014646943
-0.0085353873
-0.0083034991
-0.0024628645
6.4385507e-05
0.0021787725
0.0044943205
0.0072533323
0.0046860184
0.00020688718
-0.00086503885
-0.0073395131
-0.0078837983
-0.0022702189
0.00019035027
0.0023211466
0.0048386461
0.0084654122
0.0070926214
0.0011756229
-0.00074285079
-0.0070329212
-0.0076716785
-0.0021151729
0.00031132458
0.0024274172
0.0049503373
0.008665356
0.0073919803
0.0012820056
-0.00070746533
-0.0069105073
-0.0075361067
-0.0019912316
0.00041971308
0.0025246038
0.0050398385
0.0087533172
0.0074586529
0.0012964785
-0.0006803496
-0.0068132047
-0.0074247394
-0.0018858101
0.00051593418
0.002611654
0.0051188929
0.0088228846
0.0075076949
0.0013078229
-0.00061262941
-0.0066258793
-0.0072874621
-0.0017877744
0.00060394994
0.0026905621
0.0051901209
0.0088864663
0.0075629996
0.0013248597
-0.00033654076
-0.0059531659
-0.0069687227
-0.0016846177
0.00068448985
0.0027619364
0.0052544546
0.0089419006
0.0076179898
0.001344898
0.00059095706
-0.0036084197
-0.0058754384
-0.0014998694
0.00076147852
0.0028237112
0.0053091369
0.0089471788
0.0074224322
0.0012276293
0.00081653359
-0.0018169512
-0.0042627608
-0.0013185862
0.0008002045
0.0028662831
0.0053647495
0.0088013332
0.0046699329
-0.00049010155
0.0013818466
-0.0058791452
-0.010141582
-0.0026396173
0.00025415276
0.0025078273
0.004724651
0.0065932078
0.0039270925
0.00016987431
-0.0018038644
-0.009602545
-0.0088750032
-0.0023731242
0.00034267545
0.0026318192
0.0052539781
0.0086408676
0.0059891838
0.00047201322
-0.00110042
-0.0081993426
-0.0083873912
-0.002162291
0.0004629421
0.0027503387
0.0055733262
0.0099363478
0.0086451533
0.0015455652
-0.00095947854
-0.0078483543
-0.0081518776
-0.0020001523
0.00057731862
0.0028356152
0.0056479358
0.01010121
0.0089289371
0.0016498517
-0.0009227579
-0.0077220164
-0.0080144194
-0.0018786449
0.00067839281
0.0029200139
0.0057185226
0.010167911
0.008976472
0.0016583783
-0.00090046341
-0.0076395649
-0.0079172344
-0.0017847016
0.0007659925
0.0030006372
0.0057931176
0.010235551
0.0090255715
0.0016698871
-0.00084009664
-0.0074795051
-0.0078106234
-0.0017089696
0.00084341488
0.0030787129
0.0058728869
0.010317001
0.009105078
0.0016955816
-0.00054757872
-0.0067908897
-0.0075232767
-0.0016395052
0.00091117431
0.0031550016
0.0059603142
0.010416584
0.0092251089
0.001740508
0.00052500991
-0.0041363651
-0.006350281
-0.0014774063
0.00097775552
0.0032278026
0.0060539202
0.010496216
0.0091159252
0.001649725
0.00082714881
-0.0020728289
-0.0045835233
-0.0013081866
0.0010078088
0.0032836075
0.0061598515
0.010427431
0.0058114249
-0.00046249216
0.0012503429
-0.006622192
-0.010634941
-0.0024433671
0.00057838735
0.0029327592
0.0053476863
0.007570129
0.0048067733
0.00035739443
-0.0020907314
-0.010428916
-0.0091932546
-0.0021519716
0.0006553886
0.0030270691
0.0058661311
0.0098087037
0.0071634743
0.00073383776
-0.0012874727
-0.0088280632
-0.0086446379
-0.0019297069
0.00076144125
0.0031086644
0.0061376168
0.011145086
0.010011944
0.0018927833
-0.0011296073
-0.0084386127
-0.0083924386
-0.001767961
0.00086039064
0.00316158
0.0061596471
0.01125422
0.010258798
0.0019885064
-0.0010932091
-0.008314403
-0.0082606272
-0.0016569737
0.00094568492
0.0032240249
0.0062010672
0.011288633
0.01027765
0.0019884527
-0.0010782732
-0.0082555588
-0.0081874365
-0.0015837173
0.0010165386
0.0032911683
0.0062651397
0.011349418
0.010323479
0.0019993341
-0.0010303358
-0.0081384977
-0.0081261164
-0.0015416132
0.0010752732
0.0033632983
0.0063512162
0.011449283
0.010429613
0.0020346748
-0.00073264332
-0.0074656284
-0.0078939206
-0.0015202669
0.0011220312
0.0034413174
0.0064636309
0.011600658
0.010627109
0.0021092039
0.00046204731
-0.0045635411
-0.0066806003
-0.0013980655
0.0011704716
0.0035239483
0.006602456
0.011773012
0.010640491
0.002060357
0.00083849064
-0.0022604577
-0.0047985973
-0.0012545614
0.0011867131
0.0035932813
0.0067672607
0.011811535
0.0068811499
-0.00039702346
0.0011396772
-0.0071723996
-0.010885734
-0.0021350648
0.00092061161
0.003289624
0.0058237604
0.0083464736
0.0055487536
0.00052551612
-0.0023173591
-0.011012286
-0.0092811771
-0.0018244373
0.00098045816
0.0033445424
0.0063097853
0.010727075
0.0081576418
0.00097051664
-0.0014202468
-0.0092275785
-0.0086798806
-0.0015975648
0.0010646718
0.0033781575
0.0065140424
0.012066405
0.011145336
0.0021962535
-0.0012476545
-0.0088064322
-0.0084179556
-0.0014433563
0.0011402987
0.0033890054
0.0064706006
0.012102525
0.011337073
0.0022778616
-0.0012131618
-0.0086900785
-0.0082987995
-0.0013502586
0.0012022616
0.0034214964
0.0064740776
0.012095297
0.01131919
0.0022670206
-0.0012077568
-0.008662372
-0.008258115
-0.0013057665
0.0012491652
0.0034688458
0.0065221428
0.012144698
0.011358626
0.0022765194
-0.0011765496
-0.008601545
-0.0082543365
-0.0013069198
0.0012821019
0.0035302743
0.0066120415
0.012262683
0.011492632
0.0023220817
-0.00088374028
-0.00797209
-0.0080972997
-0.0013457312
0.0013007074
0.0036068096
0.0067501537
0.012470968
0.011776387
0.0024295874
0.00041051801
-0.0048816138
-0.0068788861
-0.0012780276
0.0013242742
0.0036976598
0.0069383121
0.012749521
0.0119405
0.0024349583
0.00085551854
-0.0023755077
-0.0049178687
-0.0011718769
0.0013222609
0.0037802514
0.0071679141
0.012918836
0.0078166759
-0.00031962868
0.0010571895
-0.0075290956
-0.010917597
-0.00173891
0.0012616602
0.0035637331
0.0061401561
0.0089061411
0.0061256521
0.000662525
-0.0024805787
-0.011360502
-0.0091649842
-0.0014148408
0.0012994982
0.0035713259
0.0065753647
0.011383274
0.0089422481
0.0011680007
-0.0014970813
-0.0094087212
-0.0085201283
-0.0011899403
0.0013552915
0.0035479911
0.0066966174
0.012692466
0.012020157
0.0024430134
-0.0013121705
-0.0089630335
-0.0082553369
-0.0010498361
0.0014007876
0.0035088235
0.0065774817
0.012641742
0.01214188
0.0025059071
-0.0012810352
-0.0088597514
-0.0081551236
-0.00098111158
0.0014329224
0.0035046423
0.0065358133
0.012585285
0.012080783
0.0024825181
-0.0012869452
-0.0088694022
-0.0081540475
-0.00097220523
0.0014497166
0.0035267382
0.0065630713
0.012619271
0.012110988
0.0024899394
-0.0012759733
-0.0088754933
-0.008217626
-0.0010244604
0.0014508371
0.0035731754
0.0066541664
0.012754363
0.01227306
0.0025459289
-0.00099680611
-0.0083129409
-0.0081519305
-0.0011330094
0.0014353062
0.0036450913
0.0068176385
0.013022361
0.012648536
0.0026885593
0.00037544885
-0.005089169
-0.0069591582
-0.0011316405
0.0014283663
0.0037422528
0.0070572557
0.013416074
0.012984107
0.0027574839
0.00088092457
-0.0024184363
-0.0049522986
-0.0010723835
0.0014044146
0.0038373691
0.0073551856
0.013733407
0.008578236
-0.00024868774
0.0010062247
-0.0077000892
-0.010756776
-0.0012780362
0.0015859848
0.0037466527
0.0062934291
0.0092455914
0.0065246958
0.00076170136
-0.0025807725
-0.011488665
-0.008872768
-0.00094620253
0.0015978115
0.0037007651
0.0066626134
0.011777705
0.0095043426
0.0013181588
-0.0015194925
-0.0093887105
-0.0081938046
-0.00072937893
0.0016197419
0.0036135989
0.0066886231
0.013028612
0.012628106
0.0026262038
-0.0013247671
-0.0089256936
-0.0079326392
-0.00060919401
0.0016294828
0.0035182572
0.006486212
0.012880621
0.012668192
0.0026667378
-0.0012982701
-0.0088400533
-0.0078567961
-0.00057032171
0.0016264371
0.0034720277
0.0063938024
0.012769133
0.012558978
0.0026294869
-0.0013168826
-0.0088919366
-0.0079009679
-0.00060249881
0.0016080836
0.0034643437
0.0063962179
0.012784253
0.012577476
0.0026342161
-0.0013288618
-0.008973107
-0.008039304
-0.00071189295
0.0015725235
0.0034920592
0.0064858694
0.012934881
0.012766928
0.0027005227
-0.0010707597
-0.0084967426
-0.0080773694
-0.00089731952
0.0015180895
0.0035564107
0.0066735059
0.013263366
0.013236627
0.0028793324
0.00035921401
-0.0051900862
-0.0069363886
-0.00097137233
0.0014761559
0.0036578073
0.006964983
0.013777172
0.013757627
0.0030184513
0.00091567147
-0.0023933325
-0.0049135202
-0.00096644779
0.0014273734
0.0037643611
0.0073326573
0.014254065
0.0091440519
-0.00019638414
0.00098717987
-0.0076990872
-0.010430666
-0.00077397272
0.0018814579
0.0038352013
0.0062874213
0.0093707819
0.0067440689
0.00082008581
-0.0026208681
-0.011416712
-0.0084331779
-0.0004397718
0.0018641511
0.0037314105
0.0065785056
0.011920555
0.0098432896
0.001417323
-0.0014912369
-0.0091889108
-0.0077295455
-0.00023649801
0.0018479564
0.0035755636
0.0065004291
0.013089881
0.012973352
0.0027435335
-0.0012892094
-0.0087155919
-0.0074779442
-0.00014118059
0.001817547
0.0034196544
0.006209703
0.012837463
0.012923338
0.0027589896
-0.0012684363
-0.0086514361
-0.0074309543
-0.00013656905
0.0017751542
0.0033273566
0.0060625472
0.012666888
0.012762644
0.0027069982
-0.0013007473
-0.0087490934
-0.0075245484
-0.00021398282
0.0017177702
0.0032863433
0.006036901
0.012660329
0.012767369
0.0027085166
-0.0013376301
-0.0089110737
-0.0077427104
-0.00038477608
0.0016418431
0.0032922376
0.006122574
0.01282453
0.012982811
0.0027847699
-0.0011066911
-0.0085360855
-0.007893351
-0.0006518648
0.0015449683
0.0033463701
0.0063325216
0.013212571
0.013546674
0.0029998573
0.00036221888
-0.0051919744
-0.0068258029
-0.00080776912
0.0014647091
0.0034498797
0.0066748158
0.013847883
0.014261043
0.0032133825
0.00095945608
-0.0023068029
-0.004813303
-0.00086257215
0.0013889995
0.0035665373
0.0071118269
0.014490802
0.0095062052
-0.00017003453
0.00099833884
-0.0075436358
-0.0099666508
-0.00024628933
0.0021390528
0.0038304263
0.0061314682
0.0092946205
0.0067900217
0.000837519
-0.0026055407
-0.011167492
-0.0078743783
8.5277488e-05
0.0020903682
0.0036659575
0.0063353791
0.01182906
0.0099674715
0.0014651506
-0.001417565
-0.0088330403
-0.0071552465
0.00027026045
0.0020329654
0.0034385141
0.0061475666
0.012898151
0.013069065
0.0027960786
-0.0012106923
-0.0083560873
-0.0069184692
0.00033669114
0.0019592409
0.0032193429
0.0057658826
0.012537214
0.012923474
0.0027846193
-0.0011965205
-0.0083164906
-0.0069038329
0.00030372717
0.0018745231
0.0030782899
0.0055615129
0.012305168
0.012709406
0.0027174223
-0.0012431487
-0.0084621747
-0.0070495966
0.00017824885
0.0017753805
0.0030013885
0.005505427
0.012274788
0.012698738
0.0027153174
-0.0013061663
-0.0087084027
-0.0073504476
-5.6496986e-05
0.0016565687
0.0029830395
0.0055847923
0.012450356
0.012938241
0.0028009397
-0.001107208
-0.0084460763
-0.0076190932
-0.00040780486
0.0015149249
0.0030246678
0.0058147267
0.012895616
0.013594028
0.0030515814
0.00038346021
-0.0051048725
-0.0066422934
-0.00064947923
0.0013941418
0.0031282268
0.0062056208
0.013650839
0.014504401
0.0033415645
0.0010110918
-0.0021670331
-0.0046630904
-0.00076746359
0.0012901891
0.0032535029
0.0067100167
0.014461776
0.0096672128
-0.00017321074
0.0010365279
-0.007253533
-0.0093912651
0.00028759448
0.0023524721
0.0037366617
0.0058388673
0.0090348908
0.0066745748
0.00081588466
-0.0025405938
-0.010765293
-0.0072232965
0.00061199825
0.0022710165
0.0035102793
0.005949355
0.011525291
0.0098916823
0.0014637278
-0.0013046457
-0.0083458108
-0.0064973821
0.00077473532
0.0021704673
0.003210128
0.0056491087
0.012479858
0.012934696
0.0027873409
-0.0010952814
-0.0078714105
-0.0062799355
0.00080921081
0.0020514612
0.0029266031
0.005176044
0.012009142
0.012690822
0.0027479489
-0.0010883765
-0.0078586699
-0.0063001696
0.00073643846
0.0019226
0.0027353888
0.0049134497
0.011714811
0.012422855
0.0026654677
-0.0011495852
-0.0080534153
-0.0064994908
0.00056134346
0.0017800954
0.0026210175
0.0048253869
0.01165915
0.012395641
0.0026594394
-0.0012392982
-0.0083852037
-0.0068838457
0.00026169929
0.0016170143
0.002576703
0.0048964
0.011843763
0.01265688
0.0027536928
-0.0010759267
-0.0082431739
-0.0072728018
-0.00017431549
0.0014294383
0.0026039678
0.0051436896
0.012342786
0.013400532
0.003038469
0.00042096857
-0.0049402369
-0.0063999942
-0.00050334693
0.0012670216
0.0027056547
0.0055800368
0.013213783
0.01450493
0.0034050617
0.0010688117
-0.0019830526
-0.0044736625
-0.00068615667
0.0011342574
0.0028379924
0.0061485811
0.014190837
0.0096372432
-0.00020665538
0.001097624
-0.0068496331
-0.0087296172
0.00081246991
0.0025177651
0.0035607027
0.0054256093
0.0086125884
0.0064137026
0.00075851185
-0.0024324881
-0.010234763
-0.0065051204
0.0011257001
0.0024029515
0.0032725846
0.0054390374
0.011034396
0.0096350757
0.0014168631
-0.0011591296
-0.0077519263
-0.0057805582
0.0012630415
0.0022584051
0.0029002713
0.0050263487
0.011864193
0.012593844
0.00272251
-0.00094949027
-0.0072857045
-0.0055861607
0.0012634344
0.0020932917
0.0025527861
0.0044635055
0.011285012
0.012251507
0.0026549201
-0.00095030954
-0.0073013548
-0.0056428239
0.0011496642
0.0019195746
0.0023112113
0.0041430322
0.010929032
0.01193038
0.0025574304
-0.0010260327
-0.0075450645
-0.0058958206
0.0009246039
0.0017331775
0.0021587311
0.0040222767
0.010847307
0.011885932
0.0025472928
-0.0011423883
-0.0079617862
-0.0063626224
0.00056060427
0.0015255196
0.0020874295
0.004083233
0.011038633
0.012166314
0.0026493205
-0.0010170806
-0.0079443251
-0.0068713524
4.1287362e-05
0.0012919486
0.0020989319
0.0043450766
0.01158709
0.012992278
0.0029662303
0.00047215023
-0.0047101811
-0.0061120066
-0.00037455699
0.0010878141
0.0021970302
0.0048230166
0.012567618
0.014284758
0.0034079322
0.0011305014
-0.0017641839
-0.0042549211
-0.00062217645
0.00092637328
0.0023348654
0.0054514228
0.013705535
0.0094318817
-0.00026902086
0.001176944
-0.0063529644
-0.008005023
0.0013153058
0.0026329575
0.0033111034
0.0049093517
0.0080506069
0.0060259065
0.00066970462
-0.0022879868
-0.0096001171
-0.0057429927
0.0016138925
0.00248495
0.0029627078
0.0048244693
0.010383224
0.0092195603
0.0013295329
-0.00098782442
-0.0070753706
-0.0050272502
0.0017234868
0.0022965682
0.0025202769
0.0043017464
0.011081703
0.0120726
0.0026078873
-0.00077996655
-0.0066223443
-0.0048588255
0.0016885779
0.0020855875
0.0021105794
0.0036525465
0.010397674
0.011633898
0.0025125134
-0.00078876666
-0.0066671896
-0.0049525648
0.0015336061
0.0018673376
0.0018195629
0.0032757824
0.0099820014
0.011261493
0.0024006114
-0.00087863824
-0.0069587336
-0.005258188
0.0012593473
0.0016375217
0.0016292261
0.0031224025
0.0098740814
0.011199579
0.0023862912
-0.0010210304
-0.0074580161
-0.0058046932
0.00083289208
0.0013859843
0.0015305995
0.0031719732
0.010069861
0.011496347
0.0024951528
-0.00093522648
-0.0075663389
-0.0064301108
0.00023338332
0.0011073777
0.0015254169
0.0034455123
0.010662766
0.012397865
0.0028417187
0.00053404774
-0.00442692
-0.0057902433
-0.00026680961
0.00086239156
0.0016184588
0.0039606574
0.01174486
0.013869123
0.0033556079
0.0011938761
-0.0015196459
-0.0040157727
-0.00057772348
0.00067305836
0.0017602708
0.0046437986
0.013035542
0.0090703531
-0.0003574614
0.0012695411
-0.0057840926
-0.0072387972
0.0017851534
0.0026977096
0.0029975945
0.0043086015
0.0073727137
0.0055311046
0.00055437416
-0.0021138928
-0.0088845894
-0.0049578515
0.0020661718
0.0025173594
0.0025915222
0.0041263086
0.0095992565
0.0086685564
0.0012074484
-0.00079745673
-0.0063389155
-0.0042576782
0.0021464399
0.0022862325
0.0020823543
0.0034981023
0.010163209
0.011398274
0.0024504387
-0.00059326231
-0.0059034704
-0.004117371
0.0020758678
0.0020306033
0.0016134092
0.0027675794
0.0093799902
0.010867329
0.0023283001
-0.00061011112
-0.005977629
-0.0042479822
0.0018804049
0.0017690963
0.0012748886
0.0023372343
0.0089077625
0.010446546
0.0022028673
-0.00071349578
-0.0063149475
-0.0046041272
0.0015587316
0.0014972596
0.0010477753
0.0021520335
0.0087741357
0.010367372
0.0021843996
-0.000880826
-0.0068928692
-0.0052260952
0.0010729392
0.0012034625
0.00092213836
0.0021892829
0.0089722421
0.01067769
0.0022991004
-0.00083502437
-0.0071254467
-0.0059628563
0.0003978636
0.00088171357
0.00089982398
0.0024716904
0.0096041369
0.011647059
0.0026724614
0.00060353586
-0.0041023737
-0.0054453615
-0.00018250763
0.00059760796
0.00098661796
0.0030192842
0.010778457
0.013284971
0.0032544077
0.0012566101
-0.0012582769
-0.003764084
-0.00055386469
0.00038175723
0.0011309676
0.0037513769
0.012211418
0.0085741222
-0.00046810458
0.001370426
-0.005162672
-0.0064501588
0.0022130129
0.0027130084
0.0026306074
0.0036420776
0.0066027645
0.0049497771
0.00041775368
-0.0019168575
-0.0081100635
-0.0041683778
0.0024740745
0.0025017864
0.0021704652
0.0033651894
0.0087097984
0.0080060419
0.0010567194
-0.00059450168
-0.005563798
-0.0034897802
0.002524169
0.0022298423
0.0015991143
0.0026379251
0.009139005
0.010598432
0.0022574508
-0.0003956701
-0.005149685
-0.0033789888
0.0024183692
0.0019316677
0.0010749629
0.0018325192
0.0082640286
0.009981131
0.0021100987
-0.00042046063
-0.0052526419
-0.0035454855
0.0021839599
0.0016290423
0.00069178967
0.0013522989
0.0077394273
0.0095157701
0.0019722666
-0.00053648476
-0.005632851
-0.0039491075
0.0018175692
0.0013174193
0.00042973616
0.0011367574
0.007581155
0.0094199501
0.0019497885
-0.00072722206
-0.006284135
-0.0046409879
0.0012766352
0.00098381558
0.00027801419
0.0011611467
0.0077796417
0.0097409718
0.0020693046
-0.00072107685
-0.0066370035
-0.0054817778
0.000531943
0.00062165747
0.00023858397
0.0014496953
0.0084447537
0.010769765
0.0024662985
0.00067746726
-0.0037478944
-0.0050867577
-0.00012294251
0.00030094193
0.00031822862
0.0020247454
0.0097008874
0.012559887
0.0031111586
0.001316433
-0.00098834881
-0.0035066887
-0.00055071875
6.0476637e-05
0.00046378564
0.0027995103
0.011263668
0.007965803
-0.00059642393
0.0014747314
-0.0045071414
-0.0056562194
0.0025916816
0.002680898
0.0022208938
0.0029282219
0.0057641123
0.0043023179
0.0002651795
-0.0017032445
-0.0072968343
-0.0033910162
0.0028309149
0.0024408254
0.0017111608
0.0025612384
0.0077413762
0.0072558328
0.00088359734
-0.00038506385
-0.0047695228
-0.0027392539
0.0028506707
0.002130736
0.0010831955
0.0017429572
0.0080382593
0.0097001633
0.0020362694
-0.00019310908
-0.0043798688
-0.0026586732
0.0027108061
0.0017929063
0.00050881598
0.00087031448
0.0070804799
0.0090039229
0.0018657157
-0.00022557496
-0.0045105337
-0.0028593626
0.0024397442
0.0014520696
8.4648539e-05
0.0003447959
0.0065085921
0.008498557
0.0017168309
-0.00035315748
-0.0049300308
-0.0033065924
0.0020321397
0.0011036403
-0.00020982999
0.0001010065
0.0063272589
0.0083870807
0.0016905741
-0.00056539695
-0.005648232
-0.0040617074
0.0014411972
0.00073342361
-0.00038615058
0.00011238488
0.0065243887
0.0087160055
0.0018138719
-0.00059781313
-0.0061152955
-0.0049975163
0.00063397846
0.00033433237
-0.00044224102
0.00040449771
0.0072167607
0.0097952712
0.0022311085
0.00075277897
-0.003374085
-0.0047226037
-8.8469997e-05
-1.9797398e-05
-0.00037035398
0.0010018866
0.0085434868
0.011721279
0.0029329033
0.0013711968
-0.00071745008
-0.0032494262
-0.0005676279
-0.00028250984
-0.00022479248
0.0018126883
0.010222034
0.0072683198
-0.00073753089
0.001577831
-0.0038345283
-0.0048720253
0.0029155943
0.0026042489
0.001779228
0.0021848347
0.0048791739
0.0036085517
0.00010192574
-0.001479036
-0.0064634713
-0.0026400452
0.0031316193
0.0023378276
0.0012251264
0.0017337181
0.0067193003
0.0064410487
0.00069428031
-0.00017479766
-0.0039737577
-0.0020196412
0.0031214976
0.0019929151
0.00054697671
0.00083383051
0.0068885945
0.0087295594
0.0017941042
8.9507674e-06
-0.0036110872
-0.0019693145
0.0029493855
0.0016190092
-7.1851534e-05
-9.7387945e-05
0.0058582457
0.0079630878
0.0016027522
-3.0781007e-05
-0.0037678545
-0.002201875
0.0026446262
0.0012435418
-0.00053265502
-0.00066288058
0.0052449303
0.0074229467
0.001444343
-0.00016866343
-0.004222421
-0.0026881329
0.0022000122
0.00086193918
-0.00085644402
-0.00093228041
0.0050425898
0.0072971433
0.0014146246
-0.00040018202
-0.0050001057
-0.003498853
0.0015649945
0.00045894931
-0.0010553706
-0.00093369283
0.0052368531
0.0076312571
0.0015406775
-0.00046940785
-0.0055734252
-0.0045192389
0.00070330109
2.7046724e-05
-0.0011272563
-0.00064040611
0.0059504525
0.0087516866
0.0019746029
0.00082656888
-0.0029906852
-0.0043599076
-7.8669757e-05
-0.00035670654
-0.0010634478
-2.5830198e-05
0.0073359736
0.010795779
0.0027266779
0.0014189234
-0.00045241756
-0.0029971998
-0.00060331155
-0.00063889785
-0.00091894591
0.00081413719
0.0091149742
0.0065042725
-0.00088640128
0.0016754235
-0.003160334
-0.0041106369
0.0031806685
0.0024865642
0.0013161795
0.0014288123
0.0039691228
0.0028873845
-6.6918396e-05
-0.0012497705
-0.0056267559
-0.0019276781
0.0033725656
0.0021967088
0.00072355249
0.00090077496
0.0056673628
0.0055837279
0.00049476856
3.114222e-05
-0.0031922963
-0.001342441
0.0033335941
0.0018208538
2.3639757e-06
-7.0171629e-05
0.0057158005
0.0077113343
0.0015378843
0.00020553539
-0.00285856
-0.0013218159
0.0031316308
0.0014150423
-0.00065446386
-0.0010504718
0.0046241666
0.0068844122
0.0013284642
0.00015907366
-0.0030393707
-0.0015833758
0.0027967041
0.0010091037
-0.0011469503
-0.0016499866
0.003975925
0.0063152693
0.0011622086
1.2298498e-05
-0.0035242704
-0.0021034824
0.0023198808
0.00059852107
-0.0014964162
-0.001941884
0.0037550436
0.0061767683
0.001129422
-0.000236011
-0.0043531862
-0.0029613922
0.0016473898
0.00016715134
-0.0017155076
-0.0019555203
0.0039451665
0.0065134754
0.0012572235
-0.00033972639
-0.0050232543
-0.0040547292
0.00074006579
-0.00029289112
-0.0018019499
-0.0016632397
0.0046739749
0.0076655495
0.0017041756
0.00089614895
-0.0026065085
-0.0040045884
-9.2485635e-05
-0.00070197167
-0.0017462661
-0.001036589
0.0061061173
0.0098088013
0.0024993458
0.0014578359
-0.00019930451
-0.0027540449
-0.00065599921
-0.001000535
-0.0016037437
-0.00017445862
0.0079693008
0.0056954657
-0.0010380482
0.0017635896
-0.0024984787
-0.0033832285
0.0033841569
0.0023318219
0.00084194721
0.00067596754
0.0030536846
0.0021565593
-0.00023653686
-0.0010205063
-0.0048016708
-0.0012641811
0.0035514338
0.0020217941
0.00021714289
7.9272183e-05
0.004607641
0.0047045613
0.00029076009
0.00022812826
-0.0024390685
-0.00071723506
0.0034851457
0.0016193462
-0.00053936093
-0.00095126659
0.0045436578
0.0066685735
0.0012741576
0.00039219195
-0.0021356774
-0.00072522228
0.0032562315
0.0011862972
-0.0012271941
-0.0019704926
0.0034028592
0.0057918467
0.0010496651
0.00033964617
-0.0023380797
-0.0010124373
0.0028951556
0.00075453367
-0.0017459168
-0.0025975647
0.0027267129
0.005199911
0.00087735995
0.00018550674
-0.0028481531
-0.0015607191
0.002391419
0.00031963496
-0.0021169867
-0.002908441
0.0024901117
0.0050506032
0.00084196482
-7.6890041e-05
-0.0037193878
-0.0024567743
0.0016885997