/*--------------------------------*- C++ -*----------------------------------*\
| =========                 |                                                 |
| \\      /  F ield         | OpenFOAM: The Open Source CFD Toolbox           |
|  \\    /   O peration     | Version:  v2106                                 |
|   \\  /    A nd           | Website:  www.openfoam.com                      |
|    \\/     M anipulation  |                                                 |
\*---------------------------------------------------------------------------*/
FoamFile
{
    version     2.0;
    format      ascii;
    arch        "LSB;label=32;scalar=64";
    class       volScalarField;
    location    "30";
    object      gradTz;
}
// * * * * * * * * * * * * * * * * * * * * * * * * * * * * * * * * * * * * * //

dimensions      [0 -1 0 1 0 0 0];

internalField   nonuniform List<scalar> 
4000
(
738.0968
738.09913
738.09671
738.09602
738.09578
738.09581
738.09605
738.09643
738.09677
738.09678
738.09913
738.09916
738.09709
738.09646
738.09623
738.09627
738.09656
738.09703
738.09754
738.09749
738.09671
738.09709
738.09509
738.09449
738.09428
738.09435
738.09467
738.09524
738.096
738.09639
738.09602
738.09646
738.09449
738.09391
738.09372
738.09381
738.09416
738.09476
738.09557
738.096
738.09578
738.09623
738.09428
738.09372
738.09356
738.09367
738.09403
738.09465
738.09548
738.09592
738.09581
738.09627
738.09435
738.09381
738.09367
738.09379
738.09417
738.09481
738.09564
738.09609
738.09605
738.09656
738.09467
738.09416
738.09403
738.09417
738.09457
738.09521
738.09604
738.09649
738.09643
738.09703
738.09524
738.09476
738.09465
738.09481
738.09521
738.09585
738.09668
738.09712
738.09677
738.09754
738.096
738.09557
738.09548
738.09564
738.09604
738.09668
738.09748
738.0979
738.09678
738.09749
738.09639
738.096
738.09592
738.09609
738.09649
738.09712
738.0979
738.09823
1484.91
1484.9123
1484.9086
1484.9073
1484.9069
1484.9069
1484.9075
1484.9083
1484.9091
1484.9087
1484.9123
1484.9118
1484.9085
1484.9073
1484.9069
1484.907
1484.9076
1484.9087
1484.91
1484.9096
1484.9086
1484.9085
1484.9053
1484.9042
1484.9038
1484.904
1484.9046
1484.9058
1484.9076
1484.908
1484.9073
1484.9073
1484.9042
1484.9031
1484.9028
1484.903
1484.9037
1484.9049
1484.9068
1484.9073
1484.9069
1484.9069
1484.9038
1484.9028
1484.9025
1484.9027
1484.9034
1484.9047
1484.9066
1484.9071
1484.9069
1484.907
1484.904
1484.903
1484.9027
1484.903
1484.9037
1484.9051
1484.907
1484.9075
1484.9075
1484.9076
1484.9046
1484.9037
1484.9034
1484.9037
1484.9045
1484.9059
1484.9078
1484.9083
1484.9083
1484.9087
1484.9058
1484.9049
1484.9047
1484.9051
1484.9059
1484.9072
1484.9091
1484.9096
1484.9091
1484.91
1484.9076
1484.9068
1484.9066
1484.907
1484.9078
1484.9091
1484.911
1484.9113
1484.9087
1484.9096
1484.908
1484.9073
1484.9071
1484.9075
1484.9083
1484.9096
1484.9113
1484.9112
1408.4768
1408.477
1408.4743
1408.4734
1408.4731
1408.4732
1408.4738
1408.4748
1408.4759
1408.4755
1408.477
1408.4759
1408.4735
1408.4726
1408.4723
1408.4725
1408.4731
1408.4743
1408.4761
1408.4759
1408.4743
1408.4735
1408.4711
1408.4703
1408.47
1408.4703
1408.4709
1408.4722
1408.4744
1408.4748
1408.4734
1408.4726
1408.4703
1408.4695
1408.4693
1408.4695
1408.4702
1408.4716
1408.4738
1408.4742
1408.4731
1408.4723
1408.47
1408.4693
1408.4691
1408.4694
1408.4701
1408.4715
1408.4737
1408.4742
1408.4732
1408.4725
1408.4703
1408.4695
1408.4694
1408.4697
1408.4704
1408.4718
1408.474
1408.4745
1408.4738
1408.4731
1408.4709
1408.4702
1408.4701
1408.4704
1408.4712
1408.4726
1408.4748
1408.4753
1408.4748
1408.4743
1408.4722
1408.4716
1408.4715
1408.4718
1408.4726
1408.474
1408.4762
1408.4767
1408.4759
1408.4761
1408.4744
1408.4738
1408.4737
1408.474
1408.4748
1408.4762
1408.4784
1408.4788
1408.4755
1408.4759
1408.4748
1408.4742
1408.4742
1408.4745
1408.4753
1408.4767
1408.4788
1408.478
1339.167
1339.1669
1339.1646
1339.1639
1339.1638
1339.1641
1339.1647
1339.1658
1339.1672
1339.1673
1339.1669
1339.1657
1339.1637
1339.1631
1339.163
1339.1633
1339.1639
1339.1652
1339.1672
1339.1675
1339.1646
1339.1637
1339.1618
1339.1613
1339.1612
1339.1615
1339.1622
1339.1634
1339.1658
1339.1666
1339.1639
1339.1631
1339.1613
1339.1608
1339.1607
1339.161
1339.1617
1339.163
1339.1654
1339.1662
1339.1638
1339.163
1339.1612
1339.1607
1339.1606
1339.1609
1339.1617
1339.163
1339.1654
1339.1662
1339.1641
1339.1633
1339.1615
1339.161
1339.1609
1339.1613
1339.162
1339.1633
1339.1657
1339.1666
1339.1647
1339.1639
1339.1622
1339.1617
1339.1617
1339.162
1339.1627
1339.1641
1339.1665
1339.1674
1339.1658
1339.1652
1339.1634
1339.163
1339.163
1339.1633
1339.1641
1339.1654
1339.1679
1339.1687
1339.1672
1339.1672
1339.1658
1339.1654
1339.1654
1339.1657
1339.1665
1339.1679
1339.1703
1339.1711
1339.1673
1339.1675
1339.1666
1339.1662
1339.1662
1339.1666
1339.1674
1339.1687
1339.1711
1339.1705
1275.678
1275.6777
1275.6757
1275.6753
1275.6753
1275.6757
1275.6763
1275.6774
1275.6789
1275.6792
1275.6777
1275.6765
1275.6749
1275.6745
1275.6746
1275.6749
1275.6755
1275.6767
1275.6787
1275.6793
1275.6757
1275.6749
1275.6734
1275.6731
1275.6731
1275.6734
1275.6741
1275.6753
1275.6776
1275.6786
1275.6753
1275.6745
1275.6731
1275.6728
1275.6728
1275.6731
1275.6738
1275.675
1275.6773
1275.6783
1275.6753
1275.6746
1275.6731
1275.6728
1275.6729
1275.6732
1275.6739
1275.675
1275.6774
1275.6784
1275.6757
1275.6749
1275.6734
1275.6731
1275.6732
1275.6736
1275.6742
1275.6754
1275.6777
1275.6788
1275.6763
1275.6755
1275.6741
1275.6738
1275.6739
1275.6742
1275.6749
1275.6761
1275.6784
1275.6795
1275.6774
1275.6767
1275.6753
1275.675
1275.675
1275.6754
1275.6761
1275.6773
1275.6797
1275.6808
1275.6789
1275.6787
1275.6776
1275.6773
1275.6774
1275.6777
1275.6784
1275.6797
1275.6821
1275.6832
1275.6792
1275.6793
1275.6786
1275.6783
1275.6784
1275.6788
1275.6795
1275.6808
1275.6832
1275.6829
1217.0435
1217.043
1217.0415
1217.0413
1217.0414
1217.0418
1217.0424
1217.0433
1217.0448
1217.0453
1217.043
1217.042
1217.0407
1217.0406
1217.0407
1217.0411
1217.0416
1217.0427
1217.0446
1217.0453
1217.0415
1217.0407
1217.0395
1217.0394
1217.0396
1217.0399
1217.0405
1217.0415
1217.0436
1217.0447
1217.0413
1217.0406
1217.0394
1217.0393
1217.0395
1217.0398
1217.0404
1217.0414
1217.0435
1217.0446
1217.0414
1217.0407
1217.0396
1217.0395
1217.0397
1217.04
1217.0405
1217.0415
1217.0436
1217.0447
1217.0418
1217.0411
1217.0399
1217.0398
1217.04
1217.0403
1217.0408
1217.0418
1217.0439
1217.045
1217.0424
1217.0416
1217.0405
1217.0404
1217.0405
1217.0408
1217.0414
1217.0424
1217.0445
1217.0456
1217.0433
1217.0427
1217.0415
1217.0414
1217.0415
1217.0418
1217.0424
1217.0434
1217.0456
1217.0468
1217.0448
1217.0446
1217.0436
1217.0435
1217.0436
1217.0439
1217.0445
1217.0456
1217.0478
1217.049
1217.0453
1217.0453
1217.0447
1217.0446
1217.0447
1217.045
1217.0456
1217.0468
1217.049
1217.049
1162.5326
1162.5322
1162.5309
1162.5309
1162.5312
1162.5315
1162.5321
1162.5329
1162.5342
1162.5348
1162.5322
1162.5312
1162.5303
1162.5304
1162.5306
1162.5309
1162.5314
1162.5323
1162.534
1162.5348
1162.5309
1162.5303
1162.5294
1162.5295
1162.5298
1162.5301
1162.5306
1162.5314
1162.5332
1162.5343
1162.5309
1162.5304
1162.5295
1162.5296
1162.5299
1162.5302
1162.5306
1162.5314
1162.5332
1162.5343
1162.5312
1162.5306
1162.5298
1162.5299
1162.5301
1162.5304
1162.5308
1162.5316
1162.5333
1162.5344
1162.5315
1162.5309
1162.5301
1162.5302
1162.5304
1162.5307
1162.5311
1162.5318
1162.5336
1162.5346
1162.5321
1162.5314
1162.5306
1162.5306
1162.5308
1162.5311
1162.5315
1162.5322
1162.534
1162.5351
1162.5329
1162.5323
1162.5314
1162.5314
1162.5316
1162.5318
1162.5322
1162.533
1162.5349
1162.536
1162.5342
1162.534
1162.5332
1162.5332
1162.5333
1162.5336
1162.534
1162.5349
1162.5369
1162.5381
1162.5348
1162.5348
1162.5343
1162.5343
1162.5344
1162.5346
1162.5351
1162.536
1162.5381
1162.5383
1111.5826
1111.5822
1111.5813
1111.5815
1111.5818
1111.5822
1111.5826
1111.5833
1111.5844
1111.5849
1111.5822
1111.5815
1111.5808
1111.5811
1111.5814
1111.5817
1111.5821
1111.5828
1111.5842
1111.5849
1111.5813
1111.5808
1111.5803
1111.5805
1111.5808
1111.5811
1111.5815
1111.5821
1111.5836
1111.5846
1111.5815
1111.5811
1111.5805
1111.5808
1111.5811
1111.5814
1111.5817
1111.5822
1111.5837
1111.5846
1111.5818
1111.5814
1111.5808
1111.5811
1111.5814
1111.5816
1111.5819
1111.5824
1111.5838
1111.5847
1111.5822
1111.5817
1111.5811
1111.5814
1111.5816
1111.5818
1111.5821
1111.5826
1111.584
1111.5849
1111.5826
1111.5821
1111.5815
1111.5817
1111.5819
1111.5821
1111.5823
1111.5828
1111.5843
1111.5852
1111.5833
1111.5828
1111.5821
1111.5822
1111.5824
1111.5826
1111.5828
1111.5834
1111.5849
1111.5859
1111.5844
1111.5842
1111.5836
1111.5837
1111.5838
1111.584
1111.5843
1111.5849
1111.5865
1111.5877
1111.5849
1111.5849
1111.5846
1111.5846
1111.5847
1111.5849
1111.5852
1111.5859
1111.5877
1111.5879
1063.7535
1063.7532
1063.7526
1063.7529
1063.7533
1063.7536
1063.7539
1063.7544
1063.7552
1063.7557
1063.7532
1063.7526
1063.7523
1063.7526
1063.753
1063.7533
1063.7535
1063.754
1063.7551
1063.7558
1063.7526
1063.7523
1063.752
1063.7524
1063.7527
1063.753
1063.7532
1063.7535
1063.7547
1063.7555
1063.7529
1063.7526
1063.7524
1063.7528
1063.7531
1063.7533
1063.7534
1063.7537
1063.7548
1063.7556
1063.7533
1063.753
1063.7527
1063.7531
1063.7534
1063.7536
1063.7537
1063.7539
1063.755
1063.7557
1063.7536
1063.7533
1063.753
1063.7533
1063.7536
1063.7537
1063.7538
1063.754
1063.7551
1063.7558
1063.7539
1063.7535
1063.7532
1063.7534
1063.7537
1063.7538
1063.7539
1063.7541
1063.7552
1063.756
1063.7544
1063.754
1063.7535
1063.7537
1063.7539
1063.754
1063.7541
1063.7544
1063.7555
1063.7564
1063.7552
1063.7551
1063.7547
1063.7548
1063.755
1063.7551
1063.7552
1063.7555
1063.7568
1063.7579
1063.7557
1063.7558
1063.7555
1063.7556
1063.7557
1063.7558
1063.756
1063.7564
1063.7579
1063.7581
1018.6967
1018.6965
1018.6962
1018.6966
1018.697
1018.6973
1018.6975
1018.6978
1018.6984
1018.6987
1018.6965
1018.6961
1018.696
1018.6965
1018.6969
1018.6971
1018.6973
1018.6975
1018.6983
1018.6988
1018.6962
1018.696
1018.696
1018.6965
1018.6969
1018.6971
1018.6971
1018.6972
1018.6981
1018.6987
1018.6966
1018.6965
1018.6965
1018.697
1018.6973
1018.6975
1018.6975
1018.6975
1018.6982
1018.6988
1018.697
1018.6969
1018.6969
1018.6973
1018.6977
1018.6978
1018.6977
1018.6977
1018.6984
1018.6989
1018.6973
1018.6971
1018.6971
1018.6975
1018.6978
1018.6978
1018.6978
1018.6977
1018.6984
1018.6989
1018.6975
1018.6973
1018.6971
1018.6975
1018.6977
1018.6978
1018.6977
1018.6976
1018.6983
1018.6989
1018.6978
1018.6975
1018.6972
1018.6975
1018.6977
1018.6977
1018.6976
1018.6976
1018.6984
1018.6991
1018.6984
1018.6983
1018.6981
1018.6982
1018.6984
1018.6984
1018.6983
1018.6984
1018.6994
1018.7002
1018.6987
1018.6988
1018.6987
1018.6988
1018.6989
1018.6989
1018.6989
1018.6991
1018.7002
1018.7004
976.13321
976.1331
976.13304
976.13359
976.134
976.13421
976.13427
976.13436
976.13474
976.13497
976.1331
976.13289
976.13305
976.13362
976.13402
976.13419
976.13418
976.13419
976.13472
976.13509
976.13304
976.13305
976.13326
976.13384
976.13421
976.13433
976.13424
976.13413
976.13463
976.13509
976.13359
976.13362
976.13384
976.1344
976.13474
976.13482
976.13466
976.13445
976.13485
976.13523
976.134
976.13402
976.13421
976.13474
976.13505
976.13509
976.13488
976.13461
976.13496
976.1353
976.13421
976.13419
976.13433
976.13482
976.13509
976.13509
976.13485
976.13456
976.13489
976.13522
976.13427
976.13418
976.13424
976.13466
976.13488
976.13485
976.1346
976.13431
976.13467
976.13502
976.13436
976.13419
976.13413
976.13445
976.13461
976.13456
976.13431
976.13407
976.1345
976.13497
976.13474
976.13472
976.13463
976.13485
976.13496
976.13489
976.13467
976.1345
976.1351
976.13578
976.13497
976.13509
976.13509
976.13523
976.1353
976.13522
976.13502
976.13497
976.13578
976.1359
935.83747
935.83746
935.83763
935.83825
935.83866
935.8388
935.83874
935.83864
935.83879
935.83891
935.83746
935.83742
935.83778
935.83842
935.83881
935.83891
935.83878
935.83859
935.83883
935.83905
935.83763
935.83778
935.83818
935.83882
935.83918
935.83923
935.83901
935.83869
935.83888
935.83913
935.83825
935.83842
935.83882
935.83944
935.83977
935.83977
935.83947
935.83905
935.83912
935.8393
935.83866
935.83881
935.83918
935.83977
935.84006
935.84001
935.83966
935.83918
935.8392
935.83933
935.8388
935.83891
935.83923
935.83977
935.84001
935.83993
935.83955
935.83904
935.83904
935.83916
935.83874
935.83878
935.83901
935.83947
935.83966
935.83955
935.83916
935.83865
935.83867
935.83882
935.83864
935.83859
935.83869
935.83905
935.83918
935.83904
935.83865
935.83818
935.83828
935.83854
935.83879
935.83883
935.83888
935.83912
935.8392
935.83904
935.83867
935.83828
935.83854
935.83903
935.83891
935.83905
935.83913
935.8393
935.83933
935.83916
935.83882
935.83854
935.83903
935.83906
897.62574
897.62582
897.62619
897.62686
897.62725
897.62733
897.62715
897.62688
897.62682
897.62681
897.62582
897.62594
897.62647
897.62715
897.62752
897.62755
897.6273
897.62693
897.6269
897.62697
897.62619
897.62647
897.62703
897.6277
897.62804
897.62802
897.62768
897.62717
897.62707
897.62713
897.62686
897.62715
897.6277
897.62835
897.62865
897.62858
897.62816
897.62755
897.62733
897.62731
897.62725
897.62752
897.62804
897.62865
897.62892
897.6288
897.62832
897.62765
897.62737
897.62731
897.62733
897.62755
897.62802
897.62858
897.6288
897.62864
897.62813
897.62743
897.62713
897.62706
897.62715
897.6273
897.62768
897.62816
897.62832
897.62813
897.62761
897.62691
897.62663
897.62658
897.62688
897.62693
897.62717
897.62755
897.62765
897.62743
897.62691
897.62624
897.62604
897.6261
897.62682
897.6269
897.62707
897.62733
897.62737
897.62713
897.62663
897.62604
897.62599
897.62628
897.62681
897.62697
897.62713
897.62731
897.62731
897.62706
897.62658
897.6261
897.62628
897.62623
861.34729
861.34744
861.34798
861.34867
861.34904
861.34905
861.34877
861.34835
861.34809
861.34797
861.34744
861.3477
861.34837
861.34907
861.34941
861.34938
861.34902
861.34848
861.34822
861.34815
861.34798
861.34837
861.34906
861.34974
861.35006
861.34997
861.34952
861.34885
861.34848
861.34837
861.34867
861.34907
861.34974
861.3504
861.35067
861.35053
861.35
861.34923
861.34875
861.34856
861.34904
861.34941
861.35006
861.35067
861.3509
861.35072
861.35014
861.3493
861.34876
861.34852
861.34905
861.34938
861.34997
861.35053
861.35072
861.35049
861.34987
861.34901
861.34845
861.34819
861.34877
861.34902
861.34952
861.35
861.35014
861.34987
861.34924
861.34837
861.34783
861.3476
861.34835
861.34848
861.34885
861.34923
861.3493
861.34901
861.34837
861.34754
861.34706
861.34694
861.34809
861.34822
861.34848
861.34875
861.34876
861.34845
861.34783
861.34706
861.34674
861.34684
861.34797
861.34815
861.34837
861.34856
861.34852
861.34819
861.3476
861.34694
861.34684
861.3467
826.87773
826.87794
826.87863
826.87932
826.87965
826.8796
826.87923
826.87867
826.87824
826.87802
826.87794
826.87831
826.8791
826.8798
826.8801
826.88001
826.87956
826.87888
826.87841
826.87821
826.87863
826.8791
826.8799
826.88057
826.88084
826.8807
826.88016
826.87935
826.87876
826.87849
826.87932
826.8798
826.88057
826.88122
826.88145
826.88125
826.88063
826.87973
826.87902
826.87867
826.87965
826.8801
826.88084
826.88145
826.88164
826.8814
826.88073
826.87976
826.87899
826.8786
826.8796
826.88001
826.8807
826.88125
826.8814
826.88111
826.8804
826.8794
826.87862
826.87821
826.87923
826.87956
826.88016
826.88063
826.88073
826.8804
826.87968
826.87868
826.87791
826.87752
826.87867
826.87888
826.87935
826.87973
826.87976
826.8794
826.87868
826.87771
826.877
826.8767
826.87824
826.87841
826.87876
826.87902
826.87899
826.87862
826.87791
826.877
826.87644
826.87636
826.87802
826.87821
826.87849
826.87867
826.8786
826.87821
826.87752
826.8767
826.87636
826.87614
794.11388
794.11414
794.11495
794.11563
794.11592
794.11581
794.11536
794.1147
794.11412
794.11381
794.11414
794.11462
794.11549
794.11617
794.11643
794.11628
794.11575
794.11497
794.11432
794.114
794.11495
794.11549
794.11636
794.11702
794.11725
794.11704
794.11643
794.11551
794.11473
794.11432
794.11563
794.11617
794.11702
794.11764
794.11783
794.11757
794.11689
794.11588
794.11498
794.11449
794.11592
794.11643
794.11725
794.11783
794.11798
794.11768
794.11694
794.11587
794.11492
794.11439
794.11581
794.11628
794.11704
794.11757
794.11768
794.11734
794.11657
794.11547
794.11449
794.11395
794.11536
794.11575
794.11643
794.11689
794.11694
794.11657
794.11578
794.11467
794.11371
794.11318
794.1147
794.11497
794.11551
794.11588
794.11587
794.11547
794.11467
794.11359
794.11269
794.11225
794.11412
794.11432
794.11473
794.11498
794.11492
794.11449
794.11371
794.11269
794.11192
794.11169
794.11381
794.114
794.11432
794.11449
794.11439
794.11395
794.11318
794.11225
794.11169
794.11139
762.96979
762.97008
762.97098
762.97163
762.97188
762.97171
762.9712
762.97045
762.96975
762.96937
762.97008
762.97063
762.97157
762.97221
762.97243
762.97223
762.97164
762.97077
762.96996
762.96955
762.97098
762.97157
762.97249
762.97311
762.97329
762.97304
762.97237
762.97138
762.97043
762.9699
762.97163
762.97221
762.97311
762.97369
762.97384
762.97354
762.9728
762.97172
762.97067
762.97006
762.97188
762.97243
762.97329
762.97384
762.97394
762.9736
762.97281
762.97167
762.97057
762.96993
762.97171
762.97223
762.97304
762.97354
762.9736
762.97322
762.9724
762.97123
762.9701
762.96945
762.9712
762.97164
762.97237
762.9728
762.97281
762.9724
762.97156
762.97039
762.96927
762.96863
762.97045
762.97077
762.97138
762.97172
762.97167
762.97123
762.97039
762.96923
762.96817
762.96761
762.96975
762.96996
762.97043
762.97067
762.97057
762.9701
762.96927
762.96817
762.96723
762.96686
762.96937
762.96955
762.9699
762.97006
762.96993
762.96945
762.96863
762.96761
762.96686
762.9665
733.37347
733.37378
733.37475
733.37536
733.37555
733.37534
733.37478
733.37396
733.37317
733.37273
733.37378
733.37439
733.37537
733.37596
733.37613
733.37588
733.37525
733.37432
733.37339
733.37291
733.37475
733.37537
733.37632
733.37688
733.37702
733.37673
733.37602
733.37497
733.3739
733.37327
733.37536
733.37596
733.37688
733.37742
733.37752
733.37718
733.37641
733.37528
733.37411
733.37342
733.37555
733.37613
733.37702
733.37752
733.37758
733.3772
733.37639
733.37521
733.37399
733.37326
733.37534
733.37588
733.37673
733.37718
733.3772
733.37679
733.37594
733.37474
733.3735
733.37276
733.37478
733.37525
733.37602
733.37641
733.37639
733.37594
733.37508
733.37387
733.37263
733.37191
733.37396
733.37432
733.37497
733.37528
733.37521
733.37474
733.37387
733.37267
733.37148
733.37082
733.37317
733.37339
733.3739
733.37411
733.37399
733.3735
733.37263
733.37148
733.3704
733.36992
733.37273
733.37291
733.37327
733.37342
733.37326
733.37276
733.37191
733.37082
733.36992
733.36951
705.26442
705.26473
705.26575
705.26631
705.26645
705.2662
705.2656
705.26475
705.26388
705.2634
705.26473
705.26539
705.26638
705.26692
705.26704
705.26676
705.26609
705.26512
705.2641
705.26356
705.26575
705.26638
705.26734
705.26785
705.26794
705.26761
705.26689
705.26581
705.26464
705.26394
705.26631
705.26692
705.26785
705.26833
705.26838
705.26802
705.26723
705.26609
705.26483
705.26407
705.26645
705.26704
705.26794
705.26838
705.2684
705.268
705.26717
705.26598
705.26468
705.26389
705.2662
705.26676
705.26761
705.26802
705.268
705.26756
705.26671
705.26549
705.26417
705.26337
705.2656
705.26609
705.26689
705.26723
705.26717
705.26671
705.26584
705.26462
705.2633
705.26251
705.26475
705.26512
705.26581
705.26609
705.26598
705.26549
705.26462
705.2634
705.26212
705.26138
705.26388
705.2641
705.26464
705.26483
705.26468
705.26417
705.2633
705.26212
705.26093
705.26036
705.2634
705.26356
705.26394
705.26407
705.26389
705.26337
705.26251
705.26138
705.26036
705.25992
678.59153
678.59183
678.59288
678.59338
678.59347
678.59318
678.59256
678.59168
678.59077
678.59027
678.59183
678.59251
678.5935
678.59398
678.59404
678.59373
678.59306
678.59207
678.59098
678.5904
678.59288
678.5935
678.59445
678.5949
678.59494
678.59459
678.59386
678.59278
678.59153
678.59079
678.59338
678.59398
678.5949
678.59531
678.59532
678.59493
678.59416
678.59301
678.5917
678.59089
678.59347
678.59404
678.59494
678.59532
678.59529
678.59488
678.59406
678.59288
678.59153
678.5907
678.59318
678.59373
678.59459
678.59493
678.59488
678.59443
678.59359
678.59239
678.59102
678.59018
678.59256
678.59306
678.59386
678.59416
678.59406
678.59359
678.59273
678.59152
678.59015
678.58932
678.59168
678.59207
678.59278
678.59301
678.59288
678.59239
678.59152
678.59032
678.58898
678.58819
678.59077
678.59098
678.59153
678.5917
678.59153
678.59102
678.59015
678.58898
678.58772
678.58707
678.59027
678.5904
678.59079
678.59089
678.5907
678.59018
678.58932
678.58819
678.58707
678.58662
653.31137
653.31164
653.3127
653.31313
653.31317
653.31286
653.31223
653.31135
653.31041
653.3099
653.31164
653.31233
653.31331
653.31371
653.31373
653.31339
653.31272
653.31174
653.31061
653.31
653.3127
653.31331
653.31424
653.31461
653.3146
653.31423
653.31351
653.31245
653.31117
653.31039
653.31313
653.31371
653.31461
653.31495
653.31492
653.31452
653.31376
653.31265
653.3113
653.31047
653.31317
653.31373
653.3146
653.31492
653.31485
653.31443
653.31364
653.31249
653.31112
653.31027
653.31286
653.31339
653.31423
653.31452
653.31443
653.31398
653.31317
653.312
653.31061
653.30975
653.31223
653.31272
653.31351
653.31376
653.31364
653.31317
653.31234
653.31117
653.30978
653.30892
653.31135
653.31174
653.31245
653.31265
653.31249
653.312
653.31117
653.31
653.30863
653.30781
653.31041
653.31061
653.31117
653.3113
653.31112
653.31061
653.30978
653.30863
653.30732
653.30662
653.3099
653.31
653.31039
653.31047
653.31027
653.30975
653.30892
653.30781
653.30662
653.30617
629.38677
629.38702
629.38807
629.38843
629.38842
629.38809
629.38747
629.3866
629.38565
629.38515
629.38702
629.3877
629.38864
629.38897
629.38894
629.38859
629.38793
629.38697
629.38582
629.38521
629.38807
629.38864
629.38954
629.38983
629.38978
629.38941
629.38871
629.38768
629.38639
629.3856
629.38843
629.38897
629.38983
629.3901
629.39003
629.38963
629.3889
629.38784
629.38649
629.38566
629.38842
629.38894
629.38978
629.39003
629.38992
629.3895
629.38875
629.38766
629.3863
629.38545
629.38809
629.38859
629.38941
629.38963
629.3895
629.38906
629.38829
629.38719
629.38581
629.38495
629.38747
629.38793
629.38871
629.3889
629.38875
629.38829
629.38751
629.3864
629.38502
629.38416
629.3866
629.38697
629.38768
629.38784
629.38766
629.38719
629.3864
629.38529
629.38392
629.38308
629.38565
629.38582
629.38639
629.38649
629.3863
629.38581
629.38502
629.38392
629.38259
629.38185
629.38515
629.38521
629.3856
629.38566
629.38545
629.38495
629.38416
629.38308
629.38185
629.38141
606.78569
606.78589
606.78693
606.78721
606.78714
606.7868
606.7862
606.78537
606.78442
606.78394
606.78589
606.78655
606.78745
606.7877
606.78762
606.78727
606.78663
606.78572
606.78457
606.78397
606.78693
606.78745
606.7883
606.78852
606.78842
606.78805
606.78739
606.78642
606.78513
606.78434
606.78721
606.7877
606.78852
606.78871
606.7886
606.7882
606.78752
606.78653
606.78521
606.78439
606.78714
606.78762
606.78842
606.7886
606.78846
606.78805
606.78735
606.78634
606.785
606.78417
606.7868
606.78727
606.78805
606.7882
606.78805
606.78762
606.78691
606.78589
606.78454
606.7837
606.7862
606.78663
606.78739
606.78752
606.78735
606.78691
606.78619
606.78516
606.78381
606.78297
606.78537
606.78572
606.78642
606.78653
606.78634
606.78589
606.78516
606.78412
606.78277
606.78195
606.78442
606.78457
606.78513
606.78521
606.785
606.78454
606.78381
606.78277
606.78145
606.7807
606.78394
606.78397
606.78434
606.78439
606.78417
606.7837
606.78297
606.78195
606.7807
606.78029
585.48012
585.48027
585.48128
585.48148
585.48137
585.48102
585.48045
585.47966
585.47875
585.47829
585.48027
585.4809
585.48175
585.48191
585.48179
585.48144
585.48084
585.47998
585.47886
585.47828
585.48128
585.48175
585.48254
585.48268
585.48254
585.48217
585.48156
585.48066
585.47941
585.47864
585.48148
585.48191
585.48268
585.48279
585.48264
585.48226
585.48164
585.48073
585.47945
585.47866
585.48137
585.48179
585.48254
585.48264
585.48248
585.48208
585.48145
585.48053
585.47924
585.47845
585.48102
585.48144
585.48217
585.48226
585.48208
585.48168
585.48104
585.48011
585.47882
585.47802
585.48045
585.48084
585.48156
585.48164
585.48145
585.48104
585.48039
585.47945
585.47815
585.47735
585.47966
585.47998
585.48066
585.48073
585.48053
585.48011
585.47945
585.47851
585.47721
585.47641
585.47875
585.47886
585.47941
585.47945
585.47924
585.47882
585.47815
585.47721
585.47592
585.47516
585.47829
585.47828
585.47864
585.47866
585.47845
585.47802
585.47735
585.47641
585.47516
585.47479
565.44528
565.44537
565.44634
565.44646
565.44631
565.44596
565.44543
565.4447
565.44383
565.44341
565.44537
565.44596
565.44675
565.44683
565.44667
565.44632
565.44578
565.44499
565.4439
565.44336
565.44634
565.44675
565.44748
565.44753
565.44736
565.44701
565.44646
565.44564
565.44443
565.4437
565.44646
565.44683
565.44753
565.44757
565.44739
565.44703
565.44648
565.44566
565.44445
565.4437
565.44631
565.44667
565.44736
565.44739
565.4472
565.44683
565.44627
565.44546
565.44424
565.4435
565.44596
565.44632
565.44701
565.44703
565.44683
565.44646
565.4459
565.44508
565.44386
565.44312
565.44543
565.44578
565.44646
565.44648
565.44627
565.4459
565.44533
565.44451
565.44328
565.44253
565.4447
565.44499
565.44564
565.44566
565.44546
565.44508
565.44451
565.44367
565.44243
565.44167
565.44383
565.4439
565.44443
565.44445
565.44424
565.44386
565.44328
565.44243
565.44119
565.44045
565.44341
565.44336
565.4437
565.4437
565.4435
565.44312
565.44253
565.44167
565.44045
565.44013
546.65883
546.65886
546.65979
546.65982
546.65963
546.65929
546.65881
546.65815
546.65733
546.65696
546.65886
546.6594
546.66013
546.66012
546.65993
546.65959
546.6591
546.6584
546.65736
546.65687
546.65979
546.66013
546.66079
546.66076
546.66055
546.66022
546.65974
546.65902
546.65788
546.65719
546.65982
546.66012
546.66076
546.66072
546.66051
546.66018
546.6597
546.659
546.65786
546.65718
546.65963
546.65993
546.66055
546.66051
546.6603
546.65996
546.65949
546.6588
546.65767
546.65699
546.65929
546.65959
546.66022
546.66018
546.65996
546.65963
546.65916
546.65846
546.65733
546.65666
546.65881
546.6591
546.65974
546.6597
546.65949
546.65916
546.65868
546.65798
546.65685
546.65616
546.65815
546.6584
546.65902
546.659
546.6588
546.65846
546.65798
546.65727
546.65612
546.65541
546.65733
546.65736
546.65788
546.65786
546.65767
546.65733
546.65685
546.65612
546.65494
546.65423
546.65696
546.65687
546.65719
546.65718
546.65699
546.65666
546.65616
546.65541
546.65423
546.65396
529.10024
529.1002
529.10107
529.10103
529.1008
529.10048
529.10005
529.09946
529.09872
529.09841
529.1002
529.10068
529.10133
529.10125
529.10102
529.10071
529.10028
529.09967
529.09871
529.09827
529.10107
529.10133
529.10192
529.10182
529.10158
529.10128
529.10087
529.10026
529.0992
529.09857
529.10103
529.10125
529.10182
529.1017
529.10147
529.10117
529.10078
529.1002
529.09916
529.09854
529.1008
529.10102
529.10158
529.10147
529.10124
529.10094
529.10057
529.1
529.09897
529.09837
529.10048
529.10071
529.10128
529.10117
529.10094
529.10066
529.10028
529.09972
529.0987
529.0981
529.10005
529.10028
529.10087
529.10078
529.10057
529.10028
529.09991
529.09934
529.09831
529.0977
529.09946
529.09967
529.10026
529.1002
529.1
529.09972
529.09934
529.09876
529.0977
529.09706
529.09872
529.09871
529.0992
529.09916
529.09897
529.0987
529.09831
529.0977
529.09661
529.09594
529.09841
529.09827
529.09857
529.09854
529.09837
529.0981
529.0977
529.09706
529.09594
529.09574
512.75015
512.75004
512.75085
512.75073
512.75047
512.75017
512.7498
512.74931
512.74865
512.7484
512.75004
512.75046
512.75104
512.75088
512.75062
512.75033
512.74998
512.74947
512.74859
512.74822
512.75085
512.75104
512.75155
512.75137
512.75111
512.75084
512.75052
512.75003
512.74906
512.7485
512.75073
512.75088
512.75137
512.75119
512.75093
512.75067
512.75038
512.74993
512.74899
512.74845
512.75047
512.75062
512.75111
512.75093
512.75069
512.75044
512.75016
512.74973
512.74882
512.74831
512.75017
512.75033
512.75084
512.75067
512.75044
512.7502
512.74993
512.74952
512.74861
512.7481
512.7498
512.74998
512.75052
512.75038
512.75016
512.74993
512.74967
512.74925
512.74833
512.7478
512.74931
512.74947
512.75003
512.74993
512.74973
512.74952
512.74925
512.74881
512.74786
512.74729
512.74865
512.74859
512.74906
512.74899
512.74882
512.74861
512.74833
512.74786
512.74686
512.74624
512.7484
512.74822
512.7485
512.74845
512.74831
512.7481
512.7478
512.74729
512.74624
512.74612
497.58992
497.58972
497.59048
497.59028
497.59
497.58973
497.58943
497.58904
497.58846
497.58828
497.58972
497.59008
497.59058
497.59035
497.59007
497.58981
497.58954
497.58914
497.58835
497.58806
497.59048
497.59058
497.59102
497.59077
497.59049
497.59025
497.59002
497.58966
497.58879
497.58831
497.59028
497.59035
497.59077
497.59052
497.59025
497.59003
497.58984
497.58953
497.58871
497.58826
497.59
497.59007
497.59049
497.59025
497.59
497.5898
497.58963
497.58935
497.58856
497.58814
497.58973
497.58981
497.59025
497.59003
497.5898
497.58962
497.58946
497.58919
497.58842
497.588
497.58943
497.58954
497.59002
497.58984
497.58963
497.58946
497.58931
497.58904
497.58825
497.58782
497.58904
497.58914
497.58966
497.58953
497.58935
497.58919
497.58904
497.58875
497.58793
497.58744
497.58846
497.58835
497.58879
497.58871
497.58856
497.58842
497.58825
497.58793
497.58703
497.58648
497.58828
497.58806
497.58831
497.58826
497.58814
497.588
497.58782
497.58744
497.58648
497.58643
483.60109
483.60082
483.60151
483.60125
483.60094
483.6007
483.60048
483.60019
483.59972
483.59961
483.60082
483.6011
483.60153
483.60123
483.60093
483.60071
483.60053
483.60025
483.59956
483.59935
483.60151
483.60153
483.60189
483.60157
483.60129
483.60109
483.60096
483.60073
483.59998
483.59958
483.60125
483.60123
483.60157
483.60126
483.60099
483.60082
483.60073
483.60057
483.59987
483.59952
483.60094
483.60093
483.60129
483.60099
483.60074