/*--------------------------------*- C++ -*----------------------------------*\
| =========                 |                                                 |
| \\      /  F ield         | OpenFOAM: The Open Source CFD Toolbox           |
|  \\    /   O peration     | Version:  v2106                                 |
|   \\  /    A nd           | Website:  www.openfoam.com                      |
|    \\/     M anipulation  |                                                 |
\*---------------------------------------------------------------------------*/
FoamFile
{
    version     2.0;
    format      ascii;
    arch        "LSB;label=32;scalar=64";
    class       volVectorField;
    location    "30";
    object      gradT;
}
// * * * * * * * * * * * * * * * * * * * * * * * * * * * * * * * * * * * * * //

dimensions      [0 -1 0 1 0 0 0];

internalField   nonuniform List<vector> 
4000
(
(0.00017101602 0.00017101603 641.35711)
(-0.0004803579 -0.00031949604 641.35798)
(-0.00066399484 -0.00011682364 641.35475)
(0.00017024787 -9.1573399e-05 641.35504)
(0.00016421999 -9.2770952e-05 641.35551)
(0.00012472773 -9.6228201e-05 641.35585)
(0.00012249326 -9.9411235e-05 641.35616)
(0.00013677961 -9.6260461e-05 641.3565)
(0.00012187543 -7.3772771e-05 641.35688)
(3.3147048e-05 -3.7393053e-05 641.35711)
(-0.00031949604 -0.00048035791 641.35798)
(-0.0009121174 -0.0009121174 641.35608)
(-0.00032211088 -0.00055823504 641.35406)
(0.00020632691 -0.00051530803 641.35452)
(0.00015723779 -0.00051974627 641.35498)
(0.00011476731 -0.00053154876 641.3553)
(0.00012244487 -0.0005469275 641.35558)
(0.0001752373 -0.00055140161 641.35595)
(0.00021017654 -0.00050120977 641.35653)
(6.9526766e-05 -0.00036652566 641.35698)
(-0.00011682364 -0.00066399483 641.35475)
(-0.00055823503 -0.00032211087 641.35406)
(-0.00026718547 -0.00026718547 641.3523)
(0.00020873664 -0.00026257634 641.35279)
(0.00014797927 -0.00026863261 641.35324)
(9.7546505e-05 -0.0002820735 641.35352)
(0.0001026404 -0.00030442461 641.35375)
(0.00018249734 -0.00033280585 641.35407)
(0.00030675138 -0.00034408255 641.35475)
(0.00012293645 -0.00029436183 641.35561)
(-9.15734e-05 0.00017024788 641.35504)
(-0.00051530804 0.0002063269 641.35452)
(-0.00026257635 0.00020873664 641.35279)
(0.00020487977 0.00020487977 641.35328)
(0.00013774064 0.0001968269 641.35372)
(7.8975296e-05 0.00018377483 641.35396)
(7.1712515e-05 0.00016370623 641.35412)
(0.00013557937 0.00013335404 641.35435)
(0.00024862056 9.1510174e-05 641.35489)
(0.00010267391 4.6949471e-05 641.35562)
(-9.2770958e-05 0.00016421998 641.35551)
(-0.00051974628 0.00015723779 641.35498)
(-0.0002686326 0.00014797927 641.35324)
(0.0001968269 0.00013774064 641.35372)
(0.00012687433 0.00012687433 641.35413)
(6.4425836e-05 0.0001147824 641.35434)
(5.2219617e-05 0.00010076039 641.35446)
(0.00011030128 8.4000935e-05 641.35462)
(0.00022034681 6.4644334e-05 641.3551)
(9.322932e-05 4.6555352e-05 641.35575)
(-9.6228196e-05 0.00012472773 641.35585)
(-0.00053154875 0.00011476731 641.3553)
(-0.0002820735 9.7546506e-05 641.35352)
(0.00018377483 7.8975298e-05 641.35396)
(0.0001147824 6.4425839e-05 641.35434)
(5.2861354e-05 5.2861361e-05 641.35453)
(4.0931053e-05 4.340111e-05 641.35461)
(9.9463309e-05 3.5832588e-05 641.35475)
(0.00021117498 3.021399e-05 641.35519)
(9.0614591e-05 2.7011295e-05 641.35582)
(-9.9411238e-05 0.00012249326 641.35616)
(-0.0005469275 0.00012244486 641.35558)
(-0.00030442461 0.0001026404 641.35375)
(0.00016370623 7.1712515e-05 641.35412)
(0.00010076039 5.2219607e-05 641.35446)
(4.3401107e-05 4.0931052e-05 641.35461)
(3.5190843e-05 3.519085e-05 641.35467)
(9.7114162e-05 3.4313972e-05 641.3548)
(0.00021152552 3.7582058e-05 641.35524)
(9.109419e-05 4.2859971e-05 641.35588)
(-9.6260462e-05 0.0001367796 641.3565)
(-0.00055140161 0.0001752373 641.35595)
(-0.00033280585 0.00018249733 641.35407)
(0.00013335404 0.00013557936 641.35435)
(8.4000935e-05 0.00011030128 641.35462)
(3.5832597e-05 9.946331e-05 641.35475)
(3.4313973e-05 9.7114169e-05 641.3548)
(0.00010185452 0.00010185452 641.35493)
(0.00021972097 0.00011240265 641.3554)
(9.41332e-05 0.00012473876 641.35606)
(-7.3772771e-05 0.00012187543 641.35688)
(-0.00050120977 0.00021017654 641.35653)
(-0.00034408255 0.00030675138 641.35475)
(9.1510175e-05 0.00024862056 641.35489)
(6.4644339e-05 0.00022034682 641.3551)
(3.0213998e-05 0.00021117497 641.35519)
(3.7582056e-05 0.00021152551 641.35524)
(0.00011240265 0.00021972098 641.3554)
(0.00023440975 0.00023440975 641.3559)
(9.9318259e-05 0.00024906043 641.35661)
(-3.7393056e-05 3.3147049e-05 641.35711)
(-0.00036652566 6.9526764e-05 641.35698)
(-0.00029436183 0.00012293646 641.35561)
(4.6949475e-05 0.00010267391 641.35562)
(4.6555348e-05 9.3229322e-05 641.35575)
(2.7011293e-05 9.0614587e-05 641.35582)
(4.2859978e-05 9.1094185e-05 641.35588)
(0.00012473876 9.4133202e-05 641.35606)
(0.00024906043 9.931826e-05 641.35661)
(0.00010390032 0.00010390032 641.35734)
(0.00036278135 0.00036278135 946.49438)
(-0.0020879793 -0.00094822764 946.49455)
(-0.002420163 -0.0003397539 946.49166)
(0.00062425821 -0.00024831767 946.49195)
(0.0007259153 -0.00025051135 946.49253)
(0.00059269106 -0.00026621481 946.49298)
(0.00059798065 -0.00028186418 946.4934)
(0.00067880084 -0.00026208215 946.49392)
(0.00054728515 -0.00013315062 946.49457)
(0.0001249462 -9.7909851e-06 946.49468)
(-0.00094822764 -0.0020879793 946.49455)
(-0.0031417822 -0.0031417822 946.49289)
(-0.0013702981 -0.0020092298 946.4909)
(0.00075812203 -0.0018326243 946.49135)
(0.00069906959 -0.0018442032 946.49191)
(0.00054566182 -0.0018998491 946.49233)
(0.00060417964 -0.0019757866 946.4927)
(0.00090187119 -0.0019886135 946.49326)
(0.00092572189 -0.0016937403 946.49435)
(0.00024830583 -0.0011406217 946.49488)
(-0.0003397539 -0.002420163 946.49166)
(-0.0020092298 -0.0013702981 946.4909)
(-0.0011110052 -0.0011110052 946.48918)
(0.00078928484 -0.0010669812 946.48969)
(0.0006586905 -0.0010906629 946.49024)
(0.00046110768 -0.0011562997 946.4906)
(0.00050921623 -0.0012665555 946.49088)
(0.00096084711 -0.0014009093 946.49135)
(0.001395277 -0.0014183481 946.49257)
(0.00049369195 -0.0011632732 946.49359)
(-0.00024831766 0.00062425821 946.49195)
(-0.0018326243 0.00075812203 946.49135)
(-0.0010669812 0.00078928485 946.48969)
(0.00077846433 0.00077846432 946.4902)
(0.00060975105 0.00074045499 946.49073)
(0.00036976919 0.00067627492 946.49103)
(0.00035957011 0.00057745653 946.49122)
(0.00075007855 0.00043059114 946.49155)
(0.0011633579 0.00024416665 946.4926)
(0.00041835577 6.3928513e-05 946.49347)
(-0.00025051135 0.00072591531 946.49253)
(-0.0018442032 0.00069906959 946.49191)
(-0.0010906629 0.00065869051 946.49024)
(0.00074045499 0.00060975105 946.49073)
(0.0005565011 0.00055650111 946.49122)
(0.00029810923 0.00049713249 946.49148)
(0.00026353244 0.00042820069 946.4916)
(0.00062755723 0.00034564663 946.49184)
(0.0010286144 0.00025213939 946.49279)
(0.00037353318 0.00016440808 946.49357)
(-0.00026621481 0.00059269106 946.49298)
(-0.0018998491 0.00054566182 946.49233)
(-0.0011562997 0.00046110768 946.4906)
(0.00067627492 0.0003697692 946.49103)
(0.00049713249 0.00029810923 946.49148)
(0.00024146878 0.00024146878 946.49169)
(0.00020808424 0.00019550607 946.49177)
(0.00057401724 0.00015888429 946.49197)
(0.00098211938 0.00013201159 946.49288)
(0.00035986823 0.0001162086 946.49363)
(-0.00028186418 0.00059798065 946.4934)
(-0.0019757866 0.00060417964 946.4927)
(-0.0012665555 0.00050921622 946.49088)
(0.00057745653 0.0003595701 946.49122)
(0.00042820069 0.00026353244 946.4916)
(0.00019550607 0.00020808424 946.49177)
(0.00018094795 0.00018094795 946.49181)
(0.00056406275 0.00017876268 946.49201)
(0.0009859387 0.00019832288 946.49292)
(0.00036299786 0.00022986966 946.49368)
(-0.00026208215 0.00067880085 946.49392)
(-0.0019886136 0.0009018712 946.49326)
(-0.0014009093 0.00096084711 946.49135)
(0.00043059115 0.00075007855 946.49155)
(0.00034564663 0.00062755723 946.49184)
(0.00015888429 0.00057401724 946.49197)
(0.00017876268 0.00056406276 946.49201)
(0.00059139217 0.00059139217 946.49222)
(0.0010332264 0.00064967316 946.49318)
(0.00038089942 0.00071885372 946.494)
(-0.00013315062 0.00054728515 946.49457)
(-0.0016937403 0.0009257219 946.49435)
(-0.0014183481 0.001395277 946.49257)
(0.00024416666 0.0011633579 946.4926)
(0.00025213939 0.0010286144 946.49279)
(0.0001320116 0.00098211939 946.49288)
(0.00019832288 0.0009859387 946.49292)
(0.00064967315 0.0010332264 946.49318)
(0.0011134003 0.0011134003 946.49422)
(0.00040911824 0.0011645406 946.49512)
(-9.7909833e-06 0.0001249462 946.49468)
(-0.0011406217 0.00024830584 946.49488)
(-0.0011632732 0.00049369195 946.49359)
(6.3928512e-05 0.00041835577 946.49347)
(0.00016440809 0.00037353318 946.49357)
(0.00011620861 0.00035986824 946.49363)
(0.00022986966 0.00036299786 946.49368)
(0.00071885372 0.00038089942 946.494)
(0.0011645406 0.00040911824 946.49512)
(0.00041499299 0.00041499299 946.49579)
(0.00028551838 0.00028551838 938.29112)
(-0.0032029619 -0.0014308152 938.29102)
(-0.0032645921 -0.00062315622 938.28926)
(0.0010388856 -0.00049718638 938.28959)
(0.0011948151 -0.00050263815 938.29008)
(0.00099640592 -0.00053357582 938.29046)
(0.0010572504 -0.00056953579 938.29081)
(0.0013080942 -0.00053395046 938.29133)
(0.00088185768 -0.00022187696 938.29219)
(0.00010478984 9.3156986e-05 938.29228)
(-0.0014308152 -0.0032029619 938.29102)
(-0.0045659738 -0.0045659738 938.28982)
(-0.0018641489 -0.0030354885 938.2886)
(0.0012196627 -0.0027839778 938.28902)
(0.0011402309 -0.0028077518 938.2895)
(0.00089605946 -0.002914055 938.28983)
(0.0010566885 -0.0030711439 938.2901)
(0.0018295825 -0.0031183946 938.29064)
(0.0018225188 -0.0025003665 938.292)
(0.00041982378 -0.0014566747 938.29258)
(-0.00062315622 -0.0032645921 938.28926)
(-0.0030354885 -0.0018641489 938.2886)
(-0.0014825961 -0.0014825961 938.28755)
(0.0012666223 -0.0014129799 938.288)
(0.0010647379 -0.0014566615 938.28846)
(0.00073301375 -0.0015769694 938.28874)
(0.00085291084 -0.0017837412 938.28891)
(0.0018788717 -0.0020471485 938.28932)
(0.0025435775 -0.0020946528 938.29079)
(0.00080058432 -0.0016979739 938.29175)
(-0.00049718638 0.0010388856 938.28959)
(-0.0027839778 0.0012196627 938.28902)
(-0.0014129799 0.0012666223 938.288)
(0.0012455973 0.0012455973 938.28846)
(0.00097624144 0.001176579 938.28889)
(0.00056897982 0.0010612611 938.28911)
(0.00058650935 0.00088469173 938.28919)
(0.0015186709 0.00062503927 938.28946)
(0.0021716935 0.0003123765 938.29078)
(0.00068427638 2.5990296e-05 938.29163)
(-0.00050263815 0.0011948151 938.29008)
(-0.0028077518 0.0011402309 938.2895)
(-0.0014566615 0.0010647379 938.28846)
(0.001176579 0.00097624144 938.28889)
(0.00088040161 0.00088040161 938.28929)
(0.0004411265 0.0007742737 938.28945)
(0.00041668905 0.00065209031 938.28947)
(0.0013065565 0.00050725078 938.28966)
(0.0019445285 0.00034786172 938.29089)
(0.00060966019 0.00020157062 938.29166)
(-0.00053357581 0.00099640592 938.29046)
(-0.002914055 0.00089605946 938.28983)
(-0.0015769694 0.00073301374 938.28874)
(0.0010612611 0.00056897981 938.28911)
(0.0007742737 0.0004411265 938.28945)
(0.00034066852 0.00034066852 938.28958)
(0.00031948643 0.00026073627 938.28955)
(0.0012144423 0.00019961789 938.2897)
(0.0018660133 0.00015902018 938.2909)
(0.00058674898 0.00013978366 938.29165)
(-0.00056953579 0.0010572504 938.29081)
(-0.0030711439 0.0010566885 938.2901)
(-0.0017837412 0.00085291084 938.28891)
(0.00088469174 0.00058650935 938.28919)
(0.00065209032 0.00041668906 938.28947)
(0.00026073627 0.00031948643 938.28955)
(0.00027563841 0.00027563842 938.2895)
(0.0012048404 0.00028162663 938.28965)
(0.0018846943 0.00033417815 938.29086)
(0.00059683584 0.0004167073 938.29164)
(-0.00053395046 0.0013080942 938.29133)
(-0.0031183946 0.0018295825 938.29064)
(-0.0020471485 0.0018788717 938.28932)
(0.00062503928 0.0015186709 938.28946)
(0.00050725078 0.0013065565 938.28966)
(0.00019961788 0.0012144423 938.2897)
(0.00028162663 0.0012048404 938.28965)
(0.001272982 0.001272982 938.28983)
(0.002001094 0.0014099957 938.29111)
(0.00064176842 0.0015670311 938.292)
(-0.00022187696 0.00088185768 938.29219)
(-0.0025003665 0.0018225188 938.292)
(-0.0020946528 0.0025435775 938.29079)
(0.0003123765 0.0021716935 938.29078)
(0.00034786173 0.0019445285 938.29089)
(0.00015902018 0.0018660133 938.2909)
(0.00033417815 0.0018846943 938.29086)
(0.0014099957 0.002001094 938.29111)
(0.0021787434 0.0021787434 938.29253)
(0.0007015261 0.0020364059 938.29356)
(9.3156985e-05 0.00010478983 938.29228)
(-0.0014566747 0.00041982378 938.29258)
(-0.0016979739 0.00080058433 938.29175)
(2.5990289e-05 0.00068427638 938.29163)
(0.00020157062 0.00060966019 938.29166)
(0.00013978367 0.00058674898 938.29165)
(0.0004167073 0.00059683584 938.29164)
(0.0015670311 0.00064176841 938.292)
(0.0020364059 0.00070152609 938.29356)
(0.00054687672 0.00054687672 938.29382)
(0.00029847825 0.00029847825 929.55209)
(-0.0039504024 -0.0017471299 929.55217)
(-0.0038548998 -0.00077573034 929.55073)
(0.0014484429 -0.00062583807 929.55109)
(0.0015982179 -0.00063729838 929.55154)
(0.0013202878 -0.00068651343 929.55184)
(0.0014688009 -0.00075226718 929.55209)
(0.0020654368 -0.00072469794 929.55254)
(0.00150127 -0.00025902569 929.5535)
(0.00018489416 0.00018818189 929.55377)
(-0.0017471299 -0.0039504024 929.55217)
(-0.0055617153 -0.0055617153 929.5513)
(-0.002172962 -0.0037151249 929.55034)
(0.0016560909 -0.0034153535 929.55077)
(0.0015072048 -0.0034590857 929.5512)
(0.0011478346 -0.0036224442 929.55145)
(0.0014115242 -0.0038776198 929.5516)
(0.0028052991 -0.003999599 929.55202)
(0.0028705897 -0.0031015369 929.55343)
(0.00063210174 -0.0016733758 929.55405)
(-0.00077573034 -0.0038548998 929.55073)
(-0.0037151249 -0.002172962 929.55034)
(-0.001708538 -0.001708538 929.54951)
(0.0017044822 -0.0016293332 929.54996)
(0.0013911272 -0.0016989152 929.55036)
(0.00090175369 -0.0018765608 929.55055)
(0.0010916462 -0.002182585 929.5506)
(0.0028415197 -0.0025778214 929.55089)
(0.0038274931 -0.002644825 929.5524)
(0.0011370015 -0.0021095334 929.55338)
(-0.00062583807 0.0014484429 929.55109)
(-0.0034153535 0.0016560909 929.55077)
(-0.0016293332 0.0017044822 929.54996)
(0.0016657137 0.0016657137 929.5504)
(0.0012599773 0.0015623273 929.55077)
(0.00066416482 0.001394824 929.5509)
(0.00071026356 0.0011410122 929.55086)
(0.002343059 0.00077207657 929.55101)
(0.0033388777 0.00034718906 929.55239)
(0.00098896282 -2.4524918e-05 929.55328)
(-0.00063729838 0.0015982179 929.55154)
(-0.0034590857 0.0015072048 929.5512)
(-0.0016989152 0.0013911272 929.55036)
(0.0015623273 0.0012599773 929.55077)
(0.0011202375 0.0011202375 929.5511)
(0.00048043856 0.00096755429 929.55118)
(0.00046889871 0.00079376915 929.55108)
(0.0020476966 0.00059033747 929.55115)
(0.0030308916 0.0003728641 929.55244)
(0.00088919221 0.00017833044 929.55326)
(-0.00068651342 0.0013202878 929.55184)
(-0.0036224442 0.0011478346 929.55145)
(-0.0018765608 0.00090175368 929.55055)
(0.001394824 0.00066416481 929.5509)
(0.00096755429 0.00048043856 929.55118)
(0.00033769643 0.00033769644 929.55122)
(0.00033304674 0.00022703458 929.55108)
(0.001922154 0.00014721991 929.55111)
(0.0029268707 0.0001021879 929.55238)
(0.00085927371 9.0166262e-05 929.55318)
(-0.00075226718 0.0014688009 929.55209)
(-0.0038776198 0.0014115242 929.5516)
(-0.002182585 0.0010916462 929.5506)
(0.0011410122 0.00071026357 929.55086)
(0.00079376916 0.00046889871 929.55108)
(0.00022703458 0.00033304674 929.55108)
(0.00027842218 0.00027842218 929.55091)
(0.0019228499 0.00030467961 929.55095)
(0.002973838 0.00041279368 929.55224)
(0.00088117779 0.00057857877 929.55308)
(-0.00072469794 0.0020654368 929.55254)
(-0.003999599 0.0028052991 929.55202)
(-0.0025778214 0.0028415197 929.55089)
(0.00077207657 0.002343059 929.55101)
(0.00059033746 0.0020476966 929.55115)
(0.0001472199 0.001922154 929.55111)
(0.00030467961 0.0019228499 929.55095)
(0.0020565255 0.0020565255 929.55104)
(0.0032007698 0.0023251368 929.55243)
(0.00096979711 0.0026404504 929.55342)
(-0.00025902569 0.00150127 929.5535)
(-0.0031015369 0.0028705897 929.55343)
(-0.002644825 0.0038274931 929.5524)
(0.00034718906 0.0033388777 929.55239)
(0.00037286409 0.0030308916 929.55244)
(0.0001021879 0.0029268707 929.55238)
(0.00041279368 0.002973838 929.55224)
(0.0023251368 0.0032007698 929.55243)
(0.0035577629 0.0035577629 929.55402)
(0.0010913869 0.0029851269 929.55524)
(0.0001881819 0.00018489416 929.55377)
(-0.0016733758 0.00063210174 929.55405)
(-0.0021095334 0.0011370015 929.55338)
(-2.4524917e-05 0.00098896281 929.55328)
(0.00017833045 0.00088919221 929.55326)
(9.0166263e-05 0.00085927372 929.55318)
(0.00057857877 0.00088117779 929.55308)
(0.0026404504 0.00096979711 929.55342)
(0.0029851269 0.0010913869 929.55524)
(0.00058803977 0.00058803978 929.55534)
(0.00033850107 0.00033850106 920.31477)
(-0.004560808 -0.0020049123 920.31491)
(-0.0043366148 -0.00088013046 920.31364)
(0.0018501894 -0.00071017633 920.31403)
(0.0019430631 -0.00072896713 920.31444)
(0.0015489447 -0.00079729349 920.31467)
(0.0017556934 -0.00089499898 920.31481)
(0.0027186641 -0.0008815832 920.31512)
(0.0021088902 -0.00027249953 920.31598)
(0.00028119546 0.00028105313 920.31625)
(-0.0020049123 -0.004560808 920.31491)
(-0.0063887552 -0.0063887552 920.31419)
(-0.0023945109 -0.0042522003 920.31337)
(0.0020769344 -0.0039156194 920.31381)
(0.0018123874 -0.0039838759 920.3142)
(0.001299897 -0.0042066974 920.31437)
(0.0016292588 -0.0045640232 920.31442)
(0.0036524132 -0.0047707648 920.31468)
(0.0038528447 -0.0036073405 920.31596)
(0.00083474812 -0.0018465893 920.31653)
(-0.00088013046 -0.0043366148 920.31364)
(-0.0042522003 -0.0023945109 920.31337)
(-0.001863479 -0.001863479 920.31267)
(0.0021185138 -0.0017840859 920.31312)
(0.001651985 -0.0018841062 920.31348)
(0.0009687974 -0.0021210135 920.31358)
(0.001191626 -0.0025270381 920.31352)
(0.0036753468 -0.003053442 920.31366)
(0.0050330657 -0.0031340921 920.31503)
(0.0014550296 -0.0024678991 920.31594)
(-0.00071017633 0.0018501894 920.31403)
(-0.0039156194 0.0020769344 920.31381)
(-0.0017840859 0.0021185138 920.31312)
(0.0020563071 0.0020563071 920.31356)
(0.0014754597 0.0019155674 920.31388)
(0.00065696505 0.0016949045 920.31393)
(0.00069683036 0.0013644396 920.31378)
(0.0030453593 0.00088915749 920.31378)
(0.0044383876 0.00036047534 920.31503)
(0.0012788768 -8.7145894e-05 920.31585)
(-0.00072896713 0.0019430631 920.31444)
(-0.0039838759 0.0018123874 920.3142)
(-0.0018841062 0.001651985 920.31348)
(0.0019155673 0.0014754597 920.31388)
(0.0012905824 0.0012905824 920.31416)
(0.00041766967 0.0010915382 920.31416)
(0.00038587897 0.00086767571 920.31394)
(0.0026713825 0.00060876752 920.31387)
(0.0040567623 0.00033874186 920.31504)
(0.0011566154 0.00010218905 920.3158)
(-0.00079729349 0.0015489447 920.31467)
(-0.0042066974 0.0012998969 920.31437)
(-0.0021210135 0.00096879739 920.31358)
(0.0016949045 0.00065696506 920.31393)
(0.0010915382 0.00041766968 920.31416)
(0.00023405834 0.00023405835 920.31412)
(0.00021405967 9.5393083e-05 920.31387)
(0.0025164254 1.2428798e-06 920.31376)
(0.0039318091 -4.2023075e-05 920.31491)
(0.0011211749 -4.0441002e-05 920.31565)
(-0.00089499898 0.0017556934 920.31481)
(-0.0045640232 0.0016292588 920.31442)
(-0.0025270381 0.001191626 920.31352)
(0.0013644396 0.00069683036 920.31378)
(0.0008676757 0.00038587897 920.31394)
(9.5393077e-05 0.00021405967 920.31387)
(0.0001530635 0.0001530635 920.3136)
(0.0025339664 0.00020748461 920.3135)
(0.0040150784 0.00038518073 920.31468)
(0.0011576701 0.00065490855 920.31547)
(-0.0008815832 0.0027186641 920.31512)
(-0.0047707648 0.0036524132 920.31468)
(-0.003053442 0.0036753468 920.31366)
(0.00088915749 0.0030453593 920.31378)
(0.0006087675 0.0026713825 920.31387)
(1.2428669e-06 0.0025164254 920.31376)
(0.00020748461 0.0025339664 920.3135)
(0.0027485427 0.0027485427 920.31346)
(0.0043792331 0.003185002 920.31475)
(0.0013009935 0.0037225041 920.31571)
(-0.00027249953 0.0021088902 920.31598)
(-0.0036073405 0.0038528447 920.31596)
(-0.0031340921 0.0050330657 920.31503)
(0.00036047534 0.0044383876 920.31503)
(0.00033874186 0.0040567623 920.31504)
(-4.2023075e-05 0.0039318091 920.31491)
(0.00038518073 0.0040150785 920.31468)
(0.003185002 0.0043792331 920.31475)
(0.0049890399 0.0049890399 920.31628)
(0.0015160049 0.003961328 920.31754)
(0.00028105313 0.00028119546 920.31625)
(-0.0018465893 0.00083474812 920.31653)
(-0.0024678991 0.0014550296 920.31594)
(-8.7145888e-05 0.0012788768 920.31585)
(0.00010218905 0.0011566154 920.3158)
(-4.0440993e-05 0.0011211749 920.31565)
(0.00065490854 0.0011576701 920.31547)
(0.0037225041 0.0013009935 920.31571)
(0.003961328 0.0015160049 920.31754)
(0.00061585216 0.00061585216 920.31761)
(0.00038868632 0.00038868632 910.61826)
(-0.0050805189 -0.0022269269 910.61843)
(-0.0047346918 -0.00095750622 910.61731)
(0.0022428955 -0.00076988005 910.61771)
(0.0022362957 -0.00079669926 910.61809)
(0.0016918007 -0.0008843487 910.61825)
(0.0019239657 -0.0010145401 910.61829)
(0.0032386201 -0.001018065 910.61848)
(0.0026308678 -0.00027397565 910.61921)
(0.00036444637 0.00037527465 910.61942)
(-0.0022269269 -0.0050805189 910.61843)
(-0.0070998077 -0.0070998077 910.61781)
(-0.0025491215 -0.004692607 910.61712)
(0.0024841059 -0.0043260201 910.61757)
(0.0020645927 -0.0044214269 910.61792)
(0.0013650395 -0.004704644 910.61802)
(0.0017233914 -0.0051651218 910.61797)
(0.0043494667 -0.0054615176 910.6181)
(0.0047208772 -0.0040494294 910.61922)
(0.0010136967 -0.0019849831 910.61971)
(-0.00095750622 -0.0047346918 910.61731)
(-0.004692607 -0.0025491215 910.61712)
(-0.0019609042 -0.0019609042 910.61652)
(0.0025140755 -0.0018868593 910.61698)
(0.0018576718 -0.0020201875 910.6173)
(0.0009481058 -0.0023174036 910.61734)
(0.0011670921 -0.0028233303 910.61718)
(0.0043543126 -0.0034803922 910.61718)
(0.0061074023 -0.0035762866 910.61838)
(0.0017407438 -0.0027902834 910.61918)
(-0.00076988005 0.0022428955 910.61771)
(-0.0043260201 0.0024841059 910.61757)
(-0.0018868593 0.0025140755 910.61698)
(0.0024248226 0.0024248226 910.61741)
(0.0016340484 0.0022447526 910.61769)
(0.00056189675 0.0019704397 910.61768)
(0.00056040273 0.0015641464 910.61743)
(0.0035965104 0.00098491971 910.6173)
(0.005410986 0.00035695171 910.61838)
(0.0015376988 -0.00016260271 910.6191)
(-0.00079669926 0.0022362957 910.61809)
(-0.0044214269 0.0020645927 910.61792)
(-0.0020201875 0.0018576718 910.6173)
(0.0022447526 0.0016340484 910.61769)
(0.0014032889 0.0014032889 910.61793)
(0.00026749965 0.001158213 910.61787)
(0.00018157212 0.0008856274 910.61756)
(0.0031471179 0.00057365437 910.61735)
(0.0049598799 0.00025459615 910.61836)
(0.0013943742 -2.0640195e-05 910.61902)
(-0.0008843487 0.0016918007 910.61825)
(-0.004704644 0.0013650395 910.61802)
(-0.0023174036 0.0009481058 910.61734)
(0.0019704397 0.00056189676 910.61768)
(0.001158213 0.00026749965 910.61787)
(4.4235221e-05 4.4235232e-05 910.61776)
(-2.4155938e-05 -0.00012039536 910.61742)
(0.0029654791 -0.00022602984 910.61718)
(0.0048166914 -0.00026412109 910.61817)
(0.0013542079 -0.00024623141 910.61881)
(-0.0010145401 0.0019239657 910.61829)
(-0.0051651218 0.0017233914 910.61797)
(-0.0028233303 0.0011670921 910.61718)
(0.0015641464 0.00056040274 910.61743)
(0.00088562741 0.00018157212 910.61756)
(-0.00012039536 -2.4155935e-05 910.61742)
(-8.869295e-05 -8.8692946e-05 910.61705)
(0.0030033921 -1.9390954e-06 910.61683)
(0.0049396783 0.00025156938 910.61785)
(0.0014063007 0.00063311397 910.61854)
(-0.001018065 0.0032386201 910.61848)
(-0.0054615176 0.0043494667 910.6181)
(-0.0034803922 0.0043543126 910.61718)
(0.0009849197 0.0035965104 910.6173)
(0.00057365437 0.0031471179 910.61735)
(-0.00022602984 0.0029654791 910.61718)
(-1.9390983e-06 0.0030033921 910.61683)
(0.0033057414 0.0033057414 910.61666)
(0.0054517445 0.0039255558 910.6178)
(0.001608571 0.0047133026 910.61867)
(-0.00027397566 0.0026308678 910.61921)
(-0.0040494294 0.0047208772 910.61922)
(-0.0035762866 0.0061074023 910.61838)
(0.0003569517 0.005410986 910.61838)
(0.00025459614 0.0049598799 910.61836)
(-0.00026412108 0.0048166914 910.61817)
(0.00025156938 0.0049396783 910.61785)
(0.0039255558 0.0054517445 910.6178)
(0.0063472395 0.0063472395 910.61919)
(0.0019314653 0.0048915861 910.62039)
(0.00037527465 0.00036444636 910.61942)
(-0.0019849831 0.0010136967 910.61971)
(-0.0027902834 0.0017407439 910.61918)
(-0.00016260272 0.0015376988 910.6191)
(-2.0640201e-05 0.0013943742 910.61902)
(-0.0002462314 0.0013542079 910.61881)
(0.00063311398 0.0014063007 910.61854)
(0.0047133026 0.001608571 910.61867)
(0.0048915861 0.0019314653 910.62039)
(0.00063813536 0.00063813536 910.62044)
(0.00044878778 0.00044878778 900.50414)
(-0.0055112455 -0.0024143128 900.50433)
(-0.005052366 -0.0010098244 900.50336)
(0.0026257868 -0.00080664592 900.50377)
(0.0024826001 -0.00084193489 900.50412)
(0.0017584416 -0.00094890927 900.50422)
(0.0019864293 -0.0011117446 900.50418)
(0.0036298107 -0.0011345953 900.50425)
(0.0030533276 -0.00026549774 900.50484)
(0.00042691936 0.00047130918 900.50499)
(-0.0024143128 -0.0055112455 900.50433)
(-0.0076991638 -0.0076991638 900.50382)
(-0.0026408657 -0.0050410468 900.50324)
(0.0028776211 -0.0046498991 900.5037)
(0.0022692051 -0.0047740704 900.50402)
(0.001353727 -0.0051178524 900.50406)
(0.0017079003 -0.00568146 900.50392)
(0.004899181 -0.0060717058 900.50393)
(0.0054621842 -0.004432537 900.50488)
(0.0011637263 -0.0020902179 900.50528)
(-0.0010098244 -0.005052366 900.50336)
(-0.0050410468 -0.0026408658 900.50324)
(-0.0020031014 -0.0020031014 900.50276)
(0.0028927632 -0.0019381774 900.50321)
(0.0020146469 -0.0021065293 900.5035)
(0.00085105201 -0.0024643088 900.50348)
(0.0010325759 -0.003069313 900.50324)
(0.0048787336 -0.0038564151 900.50311)
(0.0070348154 -0.0039728175 900.50413)
(0.0019884654 -0.0030799474 900.50482)
(-0.00080664592 0.0026257868 900.50377)
(-0.0046498991 0.0028776211 900.5037)
(-0.0019381774 0.0028927632 900.50321)
(0.0027741932 0.0027741932 900.50365)
(0.0017430737 0.0025536763 900.50389)
(0.00039094332 0.0022257342 900.50382)
(0.00031579403 0.0017447422 900.50348)
(0.0039956765 0.0010638339 900.50323)
(0.0062386519 0.00033928437 900.50413)
(0.001758973 -0.00025018647 900.50474)
(-0.00084193489 0.0024826001 900.50412)
(-0.0047740704 0.0022692051 900.50402)
(-0.0021065293 0.0020146469 900.5035)
(0.0025536763 0.0017430737 900.50389)
(0.0014661879 0.0014661879 900.5041)
(4.211789e-05 0.0011755694 900.50397)
(-0.00012932438 0.0008554734 900.50358)
(0.0034732758 0.0004923166 900.50326)
(0.005720795 0.00012650914 900.50409)
(0.0015954849 -0.00018543698 900.50463)
(-0.00094890927 0.0017584416 900.50422)
(-0.0051178524 0.001353727 900.50406)
(-0.0024643088 0.00085105201 900.50348)
(0.0022257342 0.00039094331 900.50382)
(0.0011755694 4.2117892e-05 900.50397)
(-0.0002197712 -0.0002197712 900.50381)
(-0.00036745876 -0.00040895297 900.50338)
(0.0032667122 -0.00052439909 900.50303)
(0.0055608983 -0.00055572814 900.50384)
(0.0015510089 -0.00052073129 900.50437)
(-0.0011117446 0.0019864293 900.50418)
(-0.0056814599 0.0017079003 900.50392)
(-0.003069313 0.0010325759 900.50324)
(0.0017447422 0.00031579403 900.50348)
(0.0008554734 -0.00012932438 900.50358)
(-0.00040895297 -0.00036745876 900.50338)
(-0.00043395227 -0.00043395226 900.50294)
(0.0033265006 -0.00031318055 900.5026)
(0.0057244628 1.7885836e-05 900.50344)
(0.0016188161 0.00051264234 900.50402)
(-0.0011345952 0.0036298107 900.50425)
(-0.0060717058 0.004899181 900.50393)
(-0.0038564151 0.0048787336 900.50311)
(0.0010638339 0.0039956765 900.50323)
(0.00049231659 0.0034732758 900.50326)
(-0.00052439908 0.0032667122 900.50303)
(-0.00031318055 0.0033265006 900.5026)
(0.0037185503 0.0037185503 900.50231)
(0.0063867212 0.0045259725 900.50328)
(0.0018808466 0.0055727256 900.50403)
(-0.00026549774 0.0030533276 900.50484)
(-0.004432537 0.0054621842 900.50488)
(-0.0039728175 0.0070348154 900.50413)
(0.00033928436 0.0062386519 900.50413)
(0.00012650915 0.005720795 900.50409)
(-0.00055572814 0.0055608983 900.50384)
(1.7885829e-05 0.0057244628 900.50344)
(0.0045259726 0.0063867212 900.50328)
(0.0075786381 0.0075786381 900.50449)
(0.0023166515 0.0057293592 900.50559)
(0.00047130918 0.00042691935 900.50499)
(-0.0020902179 0.0011637263 900.50528)
(-0.0030799474 0.0019884654 900.50482)
(-0.00025018647 0.001758973 900.50474)
(-0.00018543699 0.0015954849 900.50463)
(-0.00052073129 0.0015510089 900.50437)
(0.00051264234 0.0016188161 900.50402)
(0.0055727256 0.0018808466 900.50403)
(0.0057293592 0.0023166515 900.50559)
(0.00064799402 0.00064799402 900.50559)
(0.00051891822 0.00051891822 890.01572)
(-0.0058522571 -0.0025666674 890.01595)
(-0.0052909775 -0.001037536 890.01513)
(0.0029971811 -0.00082087656 890.01555)
(0.002684703 -0.00086491069 890.01586)
(0.001755798 -0.00099102621 890.01591)
(0.0019524712 -0.0011863781 890.01579)
(0.0038981278 -0.0012306901 890.01575)
(0.003374076 -0.00024754725 890.01621)
(0.00046653349 0.00056861133 890.01629)
(-0.0025666674 -0.0058522571 890.01595)
(-0.0081869384 -0.0081869384 890.01554)
(-0.0026722913 -0.0052988357 890.01508)
(0.003256119 -0.0048880943 890.01554)
(0.0024294786 -0.0050420068 890.01582)
(0.0012735969 -0.005445874 890.01582)
(0.0015929753 -0.0061117077 890.0156)
(0.0053063741 -0.0065992364 890.01549)
(0.0060730282 -0.0047568435 890.01628)
(0.0012826921 -0.0021632523 890.01659)
(-0.001037536 -0.0052909775 890.01513)
(-0.0052988357 -0.0026722913 890.01508)
(-0.0019921334 -0.0019921335 890.0147)
(0.0032540099 -0.0019392533 890.01515)
(0.0021269234 -0.0021435921 890.01541)
(0.0006860972 -0.0025615247 890.01534)
(0.00079910884 -0.0032640408 890.01501)
(0.005252992 -0.0041799294 890.01478)
(0.0078100601 -0.0043231289 890.01562)
(0.0021955943 -0.003337213 890.01618)
(-0.00082087656 0.0029971811 890.01555)
(-0.0048880943 0.003256119 890.01554)
(-0.0019392533 0.0032540099 890.01515)
(0.0031046604 0.0031046604 890.01558)
(0.0018072071 0.002843207 890.01579)
(0.00015314821 0.0024621063 890.01567)
(-2.5429277e-05 0.001907904 890.01526)
(0.0042472859 0.001127802 890.0149)
(0.0069157446 0.00030895233 890.01562)
(0.0019399694 -0.00034884143 890.0161)