/*--------------------------------*- C++ -*----------------------------------*\
| =========                 |                                                 |
| \\      /  F ield         | OpenFOAM: The Open Source CFD Toolbox           |
|  \\    /   O peration     | Version:  v2106                                 |
|   \\  /    A nd           | Website:  www.openfoam.com                      |
|    \\/     M anipulation  |                                                 |
\*---------------------------------------------------------------------------*/
FoamFile
{
    version     2.0;
    format      ascii;
    arch        "LSB;label=32;scalar=64";
    class       volVectorField;
    location    "30";
    object      gradT;
}
// * * * * * * * * * * * * * * * * * * * * * * * * * * * * * * * * * * * * * //

dimensions      [0 -1 0 1 0 0 0];

internalField   nonuniform List<vector> 
4000
(
(0.00025507253 0.00025507253 738.0968)
(3.7428918e-05 -7.5867619e-06 738.09913)
(-0.00042323501 3.535676e-05 738.09671)
(-0.00010634055 4.0724457e-05 738.09602)
(-2.5063764e-05 4.2046756e-05 738.09578)
(3.2093653e-05 4.3492077e-05 738.09581)
(7.3327878e-05 4.6521541e-05 738.09605)
(8.4017169e-05 5.3729563e-05 738.09643)
(4.5387606e-05 6.7012766e-05 738.09677)
(3.8842148e-06 7.0243172e-05 738.09678)
(-7.5867597e-06 3.7428918e-05 738.09913)
(-0.00029214474 -0.00029214474 738.09916)
(-0.00035076818 -0.00021809379 738.09709)
(-9.6305558e-05 -0.00020683196 738.09646)
(-2.0912334e-05 -0.00020242112 738.09623)
(3.880583e-05 -0.00019742377 738.09627)
(8.8684106e-05 -0.00018797859 738.09656)
(0.00011475401 -0.00016579237 738.09703)
(7.015802e-05 -0.00011671477 738.09754)
(7.1146208e-06 -5.4405897e-05 738.09749)
(3.5356761e-05 -0.00042323501 738.09671)
(-0.00021809379 -0.00035076818 738.09709)
(-0.00033792223 -0.00033792223 738.09509)
(-9.0667881e-05 -0.00033202557 738.09449)
(-1.5655578e-05 -0.00032713859 738.09428)
(4.6536176e-05 -0.00032176185 738.09435)
(0.00010495928 -0.00031380443 738.09467)
(0.00015528099 -0.00029855067 738.09524)
(0.00015677408 -0.00026477443 738.096)
(4.5423465e-05 -0.00020370389 738.09639)
(4.0724456e-05 -0.00010634055 738.09602)
(-0.00020683196 -9.6305568e-05 738.09646)
(-0.00033202557 -9.0667886e-05 738.09449)
(-8.5521921e-05 -8.5521922e-05 738.09391)
(-1.0648614e-05 -8.0753924e-05 738.09372)
(5.2139996e-05 -7.5977556e-05 738.09381)
(0.00011189528 -7.0622421e-05 738.09416)
(0.00016378401 -6.4363079e-05 738.09476)
(0.0001650048 -5.7620025e-05 738.09557)
(4.7828308e-05 -5.3059018e-05 738.096)
(4.2046752e-05 -2.5063763e-05 738.09578)
(-0.00020242112 -2.0912333e-05 738.09623)
(-0.00032713858 -1.5655575e-05 738.09428)
(-8.0753919e-05 -1.0648613e-05 738.09372)
(-6.1112114e-06 -6.1112114e-06 738.09356)
(5.6667679e-05 -1.9423766e-06 738.09367)
(0.00011657376 2.0823961e-06 738.09403)
(0.00016828339 5.978301e-06 738.09465)
(0.00016807814 9.2649969e-06 738.09548)
(4.8464137e-05 1.0777911e-05 738.09592)
(4.3492076e-05 3.2093656e-05 738.09581)
(-0.00019742377 3.8805835e-05 738.09627)
(-0.00032176185 4.653618e-05 738.09435)
(-7.5977558e-05 5.2139997e-05 738.09381)
(-1.9423776e-06 5.6667682e-05 738.09367)
(6.0333603e-05 6.0333602e-05 738.09379)
(0.00011981596 6.3315989e-05 738.09417)
(0.00017096661 6.564585e-05 738.09481)
(0.00016980441 6.7178361e-05 738.09564)
(4.8836918e-05 6.7785526e-05 738.09609)
(4.6521538e-05 7.3327875e-05 738.09605)
(-0.0001879786 8.8684103e-05 738.09656)
(-0.00031380442 0.00010495929 738.09467)
(-7.0622417e-05 0.00011189529 738.09416)
(2.0823932e-06 0.00011657376 738.09403)
(6.3315986e-05 0.00011981596 738.09417)
(0.00012188601 0.000121886 738.09457)
(0.00017214576 0.00012279561 738.09521)
(0.00017021782 0.00012249847 738.09604)
(4.8868912e-05 0.00012160805 738.09649)
(5.3729561e-05 8.4017167e-05 738.09643)
(-0.00016579236 0.00011475401 738.09703)
(-0.00029855067 0.000155281 738.09524)
(-6.4363087e-05 0.000163784 738.09476)
(5.9782971e-06 0.00016828338 738.09465)
(6.5645845e-05 0.00017096661 738.09481)
(0.00012279561 0.00017214576 738.09521)
(0.00017157908 0.00017157908 738.09585)
(0.00016861685 0.00016871255 738.09668)
(4.8243301e-05 0.00016444889 738.09712)
(6.7012768e-05 4.538761e-05 738.09677)
(-0.00011671476 7.0158022e-05 738.09754)
(-0.00026477443 0.00015677406 738.096)
(-5.7620033e-05 0.0001650048 738.09557)
(9.2649959e-06 0.00016807814 738.09548)
(6.7178364e-05 0.00016980441 738.09564)
(0.00012249848 0.00017021782 738.09604)
(0.00016871254 0.00016861685 738.09668)
(0.00016308763 0.00016308763 738.09748)
(4.6026474e-05 0.00015239611 738.0979)
(7.0243169e-05 3.8842159e-06 738.09678)
(-5.4405905e-05 7.1146169e-06 738.09749)
(-0.00020370389 4.5423456e-05 738.09639)
(-5.3059011e-05 4.7828308e-05 738.096)
(1.077791e-05 4.8464137e-05 738.09592)
(6.778553e-05 4.8836918e-05 738.09609)
(0.00012160805 4.8868914e-05 738.09649)
(0.00016444888 4.8243299e-05 738.09712)
(0.00015239611 4.6026471e-05 738.0979)
(4.1115622e-05 4.1115619e-05 738.09823)
(0.001560901 0.001560901 1484.91)
(-0.00024348328 5.9385172e-05 1484.9123)
(-0.0033811545 0.00026859144 1484.9086)
(-0.0010792892 0.00030866342 1484.9073)
(-0.00025023834 0.00032161992 1484.9069)
(0.0003140799 0.0003354917 1484.9069)
(0.00071545428 0.00036467719 1484.9075)
(0.00081809726 0.00043620555 1484.9083)
(0.00038515965 0.00056916263 1484.9091)
(7.7862599e-07 0.00050113695 1484.9087)
(5.9385174e-05 -0.00024348328 1484.9123)
(-0.0021819476 -0.0021819476 1484.9118)
(-0.0030072371 -0.0017812043 1484.9085)
(-0.00099974647 -0.0016856844 1484.9073)
(-0.00020999591 -0.0016421454 1484.9069)
(0.0003786658 -0.0015945241 1484.907)
(0.00086652504 -0.0015044162 1484.9076)
(0.0011248254 -0.0012875173 1484.9087)
(0.00048255675 -0.0008000744 1484.91)
(-6.7247049e-05 -0.00041489419 1484.9096)
(0.00026859143 -0.0033811545 1484.9086)
(-0.0017812043 -0.0030072371 1484.9085)
(-0.0028848913 -0.0028848913 1484.9053)
(-0.00094023032 -0.0028222588 1484.9042)
(-0.00015907805 -0.0027745249 1484.9038)
(0.00045180913 -0.0027236322 1484.904)
(0.0010224611 -0.0026485054 1484.9046)
(0.0015224391 -0.0025013362 1484.9058)
(0.0012577827 -0.0021603904 1484.9076)
(0.00025756543 -0.0016191626 1484.908)
(0.00030866342 -0.0010792892 1484.9073)
(-0.0016856844 -0.00099974647 1484.9073)
(-0.0028222588 -0.00094023032 1484.9042)
(-0.00088938011 -0.00088938012 1484.9031)
(-0.00011136933 -0.0008438262 1484.9028)
(0.00050468526 -0.0007986675 1484.903)
(0.0010888211 -0.00074821317 1484.9037)
(0.0016129404 -0.00068823661 1484.9049)
(0.0013647304 -0.00061434568 1484.9068)
(0.00029357153 -0.00054930391 1484.9073)
(0.00032161992 -0.00025023834 1484.9069)
(-0.0016421454 -0.0002099959 1484.9069)
(-0.0027745249 -0.00015907804 1484.9038)
(-0.0008438262 -0.00011136933 1484.9028)
(-6.8365424e-05 -6.836543e-05 1484.9025)
(0.00054742216 -2.8927955e-05 1484.9027)
(0.001132892 9.0548161e-06 1484.9034)
(0.0016563066 4.5768508e-05 1484.9047)
(0.0013967154 7.7762607e-05 1484.9066)
(0.00030092661 9.4015657e-05 1484.9071)
(0.00033549171 0.0003140799 1484.9069)
(-0.0015945241 0.00037866581 1484.907)
(-0.0027236322 0.00045180913 1484.904)
(-0.0007986675 0.00050468526 1484.903)
(-2.8927954e-05 0.00054742216 1484.9027)
(0.00058210551 0.0005821055 1484.903)
(0.0011635176 0.00061036729 1484.9037)
(0.0016816482 0.00063243076 1484.9051)
(0.0014129775 0.00064698233 1484.907)
(0.0003044069 0.00065269869 1484.9075)
(0.00036467719 0.00071545428 1484.9075)
(-0.0015044162 0.00086652503 1484.9076)
(-0.0026485054 0.0010224612 1484.9046)
(-0.00074821317 0.0010888211 1484.9037)
(9.0548156e-06 0.001132892 1484.9034)
(0.00061036729 0.0011635176 1484.9037)
(0.0011832173 0.0011832173 1484.9045)
(0.0016929216 0.0011919541 1484.9059)
(0.0014169833 0.0011890631 1484.9078)
(0.00030473751 0.0011803561 1484.9083)
(0.00043620554 0.00081809727 1484.9083)
(-0.0012875173 0.0011248254 1484.9087)
(-0.0025013362 0.0015224391 1484.9058)
(-0.00068823662 0.0016129404 1484.9049)
(4.5768508e-05 0.0016563066 1484.9047)
(0.00063243076 0.0016816482 1484.9051)
(0.0011919541 0.0016929216 1484.9059)
(0.001687494 0.001687494 1484.9072)
(0.0014013795 0.0016587321 1484.9091)
(0.00029860221 0.0016130105 1484.9096)
(0.00056916263 0.00038515964 1484.9091)
(-0.0008000744 0.00048255676 1484.91)
(-0.0021603904 0.0012577827 1484.9076)
(-0.00061434568 0.0013647304 1484.9068)
(7.7762612e-05 0.0013967154 1484.9066)
(0.00064698233 0.0014129775 1484.907)
(0.0011890631 0.0014169833 1484.9078)
(0.0016587321 0.0014013795 1484.9091)
(0.0013424998 0.0013424998 1484.911)
(0.00027425643 0.0012056627 1484.9113)
(0.00050113695 7.786246e-07 1484.9087)
(-0.0004148942 -6.7247051e-05 1484.9096)
(-0.0016191626 0.00025756543 1484.908)
(-0.0005493039 0.00029357153 1484.9073)
(9.4015663e-05 0.00030092661 1484.9071)
(0.00065269869 0.0003044069 1484.9075)
(0.0011803561 0.00030473751 1484.9083)
(0.0016130105 0.00029860221 1484.9096)
(0.0012056627 0.00027425643 1484.9113)
(0.00020737748 0.00020737748 1484.9112)
(0.0017483805 0.0017483805 1408.4768)
(-0.0014469538 -0.00030047373 1408.477)
(-0.0054134308 -3.4961096e-06 1408.4743)
(-0.0018144508 5.8111152e-05 1408.4734)
(-0.00037564385 7.9619765e-05 1408.4731)
(0.00065287258 0.00010267684 1408.4732)
(0.0014337985 0.00015446862 1408.4738)
(0.0016806595 0.00030326804 1408.4748)
(0.00044198701 0.00066478126 1408.4759)
(-0.00024189728 0.00068272299 1408.4755)
(-0.00030047373 -0.0014469538 1408.477)
(-0.0040747687 -0.0040747687 1408.4759)
(-0.0048755535 -0.0034905693 1408.4735)
(-0.001689777 -0.0033371001 1408.4726)
(-0.00030879533 -0.0032633992 1408.4723)
(0.00076514586 -0.0031846445 1408.4725)
(0.0017346853 -0.0030331199 1408.4731)
(0.0024461285 -0.0026322196 1408.4743)
(0.0010111694 -0.0015915198 1408.4761)
(-0.00022395554 -0.00077141121 1408.4759)
(-3.4961052e-06 -0.0054134308 1408.4743)
(-0.0034905693 -0.0048755535 1408.4735)
(-0.0046757622 -0.0046757622 1408.4711)
(-0.0015872807 -0.0045669302 1408.4703)
(-0.00022318824 -0.0044846255 1408.47)
(0.00088315191 -0.0043998275 1408.4703)
(0.0019862234 -0.0042786799 1408.4709)
(0.0031222596 -0.00403971 1408.4722)
(0.0023027954 -0.0034467327 1408.4744)
(0.00030484181 -0.0025546168 1408.4748)
(5.8111153e-05 -0.0018144508 1408.4734)
(-0.0033371001 -0.001689777 1408.4726)
(-0.0045669302 -0.0015872807 1408.4703)
(-0.0014986403 -0.0014986403 1408.4695)
(-0.00014169262 -0.0014200411 1408.4693)
(0.00097109151 -0.0013434778 1408.4695)
(0.0020948028 -0.0012596855 1408.4702)
(0.0032780757 -0.0011609582 1408.4716)
(0.0024962627 -0.001030076 1408.4738)
(0.00037078839 -0.00091095677 1408.4742)
(7.9619765e-05 -0.00037564385 1408.4731)
(-0.0032633992 -0.00030879533 1408.4723)
(-0.0044846255 -0.00022318824 1408.47)
(-0.0014200411 -0.00014169262 1408.4693)
(-6.8025753e-05 -6.802575e-05 1408.4691)
(0.0010435076 -6.6820007e-07 1408.4694)
(0.002168743 6.3813722e-05 1408.4701)
(0.0033518691 0.00012585956 1408.4715)
(0.0025527968 0.00018150655 1408.4737)
(0.00038425463 0.00021112268 1408.4742)
(0.00010267683 0.00065287257 1408.4732)
(-0.0031846445 0.00076514585 1408.4725)
(-0.0043998275 0.00088315191 1408.4703)
(-0.0013434778 0.00097109152 1408.4695)
(-6.6820096e-07 0.0010435076 1408.4694)
(0.001102931 0.001102931 1408.4697)
(0.0022213306 0.00115185 1408.4704)
(0.0033957685 0.0011905271 1408.4718)
(0.0025815258 0.0012168099 1408.474)
(0.00039053248 0.001228216 1408.4745)
(0.00015446862 0.0014337985 1408.4738)
(-0.0030331199 0.0017346853 1408.4731)
(-0.0042786799 0.0019862234 1408.4709)
(-0.0012596855 0.0020948028 1408.4702)
(6.3813718e-05 0.002168743 1408.4701)
(0.00115185 0.0022213306 1408.4704)
(0.0022563391 0.0022563391 1408.4712)
(0.0034168289 0.0022731348 1408.4726)
(0.0025904857 0.0022690858 1408.4748)
(0.00039185868 0.0022537424 1408.4753)
(0.00030326804 0.0016806595 1408.4748)
(-0.0026322196 0.0024461285 1408.4743)
(-0.00403971 0.0031222596 1408.4722)
(-0.0011609582 0.0032780757 1408.4716)
(0.00012585955 0.0033518691 1408.4715)
(0.0011905271 0.0033957685 1408.4718)
(0.0022731349 0.0034168289 1408.4726)
(0.0034085152 0.0034085152 1408.474)
(0.0025621333 0.0033489649 1408.4762)
(0.00038030352 0.003226965 1408.4767)
(0.00066478126 0.000441987 1408.4759)
(-0.0015915198 0.0010111694 1408.4761)
(-0.0034467327 0.0023027954 1408.4744)
(-0.001030076 0.0024962627 1408.4738)
(0.00018150655 0.0025527968 1408.4737)
(0.0012168099 0.0025815258 1408.474)
(0.0022690858 0.0025904857 1408.4748)
(0.0033489649 0.0025621333 1408.4762)
(0.0024089355 0.0024089355 1408.4784)
(0.00031052542 0.0017933444 1408.4788)
(0.000682723 -0.00024189728 1408.4755)
(-0.00077141121 -0.00022395554 1408.4759)
(-0.0025546168 0.00030484181 1408.4748)
(-0.00091095676 0.00037078839 1408.4742)
(0.00021112268 0.00038425463 1408.4742)
(0.001228216 0.00039053248 1408.4745)
(0.0022537424 0.00039185868 1408.4753)
(0.003226965 0.00038030353 1408.4767)
(0.0017933444 0.00031052542 1408.4788)
(-3.0090546e-05 -3.0090546e-05 1408.478)
(0.001738738 0.001738738 1339.167)
(-0.0026911967 -0.00069203575 1339.1669)
(-0.0070375351 -0.00030011774 1339.1646)
(-0.0023113294 -0.00021837229 1339.1639)
(-0.00037006408 -0.00019058974 1339.1638)
(0.0010746061 -0.00016273666 1339.1641)
(0.0022766196 -9.8428915e-05 1339.1647)
(0.0028886668 0.00010710406 1339.1658)
(0.0010688316 0.00067777558 1339.1672)
(-0.00027652517 0.00076158657 1339.1673)
(-0.00069203575 -0.0026911967 1339.1669)
(-0.0057494803 -0.0057494803 1339.1657)
(-0.0063270399 -0.0049721696 1339.1637)
(-0.0021470374 -0.0047660366 1339.1631)
(-0.00028661064 -0.0046698672 1339.163)
(0.0012128473 -0.0045733995 1339.1633)
(0.0026813807 -0.004387987 1339.1639)
(0.0040529735 -0.0038556765 1339.1652)
(0.0020505554 -0.0023198265 1339.1672)
(-0.00019271418 -0.0011466596 1339.1675)
(-0.00030011774 -0.0070375351 1339.1646)
(-0.0049721697 -0.0063270399 1339.1637)
(-0.0060540914 -0.0060540914 1339.1618)
(-0.0020090269 -0.0059059711 1339.1613)
(-0.00017742692 -0.0057978042 1339.1612)
(0.0013564862 -0.0056918344 1339.1615)
(0.0029943425 -0.0055456253 1339.1622)
(0.0049568272 -0.0052486563 1339.1634)
(0.0037778485 -0.0044449169 1339.1658)
(0.00050558613 -0.0032656634 1339.1666)
(-0.00021837229 -0.0023113294 1339.1639)
(-0.0047660366 -0.0021470374 1339.1631)
(-0.0059059711 -0.0020090269 1339.1613)
(-0.0018907501 -0.0018907501 1339.1608)
(-7.2474022e-05 -0.0017880361 1339.1607)
(0.0014650262 -0.0016908104 1339.161)
(0.0031245589 -0.0015878511 1339.1617)
(0.0051536819 -0.0014687963 1339.163)
(0.0040335482 -0.0012989381 1339.1654)
(0.00059345479 -0.0011415407 1339.1662)
(-0.00019058974 -0.00037006408 1339.1638)
(-0.0046698672 -0.00028661064 1339.163)
(-0.0057978042 -0.00017742692 1339.1612)
(-0.0017880361 -7.2474021e-05 1339.1607)
(2.2512794e-05 2.2512804e-05 1339.1606)
(0.0015566712 0.0001088997 1339.1609)
(0.0032163566 0.00019080079 1339.1617)
(0.0052457402 0.00026888174 1339.163)
(0.0041051041 0.00034055514 1339.1654)
(0.00061051773 0.00037912302 1339.1662)
(-0.00016273666 0.0010746061 1339.1641)
(-0.0045733995 0.0012128473 1339.1633)
(-0.0056918344 0.0013564862 1339.1615)
(-0.0016908104 0.0014650262 1339.161)
(0.0001088997 0.0015566712 1339.1609)
(0.0016333142 0.0016333142 1339.1613)
(0.0032845409 0.0016976931 1339.162)
(0.0053034363 0.0017501427 1339.1633)
(0.0041437895 0.0017882199 1339.1657)
(0.00061916671 0.0018078375 1339.1666)
(-9.8428918e-05 0.0022766196 1339.1647)
(-0.0043879871 0.0026813807 1339.1639)
(-0.0055456253 0.0029943425 1339.1622)
(-0.0015878511 0.0031245589 1339.1617)
(0.00019080079 0.0032163566 1339.1617)
(0.0016976931 0.0032845409 1339.162)
(0.0033331852 0.0033331852 1339.1627)
(0.005336267 0.0033615294 1339.1641)
(0.0041627989 0.0033658177 1339.1665)
(0.00062359613 0.0033578139 1339.1674)
(0.00010710406 0.0028886667 1339.1658)
(-0.0038556765 0.0040529735 1339.1652)
(-0.0052486563 0.0049568273 1339.1634)
(-0.0014687963 0.0051536819 1339.163)
(0.00026888174 0.0052457402 1339.163)
(0.0017501427 0.0053034363 1339.1633)
(0.0033615294 0.005336267 1339.1641)
(0.0053360688 0.0053360688 1339.1654)
(0.004140074 0.0052676341 1339.1679)
(0.00061383086 0.0050880552 1339.1687)
(0.00067777558 0.0010688316 1339.1672)
(-0.0023198265 0.0020505554 1339.1672)
(-0.0044449169 0.0037778485 1339.1658)
(-0.0012989381 0.0040335482 1339.1654)
(0.00034055514 0.0041051041 1339.1654)
(0.0017882199 0.0041437895 1339.1657)
(0.0033658177 0.0041627989 1339.1665)
(0.0052676341 0.004140074 1339.1679)
(0.0039147853 0.0039147853 1339.1703)
(0.00050387686 0.0025519696 1339.1711)
(0.00076158657 -0.00027652517 1339.1673)
(-0.0011466596 -0.00019271418 1339.1675)
(-0.0032656634 0.00050558612 1339.1666)
(-0.0011415407 0.00059345478 1339.1662)
(0.00037912303 0.00061051773 1339.1662)
(0.0018078375 0.00061916671 1339.1666)
(0.0033578139 0.00062359612 1339.1674)
(0.0050880552 0.00061383086 1339.1687)
(0.0025519696 0.00050387686 1339.1711)
(-0.00029471291 -0.00029471291 1339.1705)
(0.00164996 0.00164996 1275.678)
(-0.0038782902 -0.0010872316 1275.6777)
(-0.0083549954 -0.00059267495 1275.6757)
(-0.0025978268 -0.00049049159 1275.6753)
(-0.00024645608 -0.00045810198 1275.6753)
(0.0015474919 -0.0004290318 1275.6757)
(0.0031461521 -0.00035976341 1275.6763)
(0.0041868698 -0.00011238063 1275.6774)
(0.0019671955 0.00064735478 1275.6789)
(-0.00018093887 0.00079875267 1275.6792)
(-0.0010872316 -0.0038782902 1275.6777)
(-0.0072422427 -0.0072422427 1275.6765)
(-0.0074598853 -0.0062576747 1275.6749)
(-0.0023959674 -0.0060000149 1275.6745)
(-0.0001542664 -0.0058876758 1275.6746)
(0.0016949997 -0.005785376 1275.6749)
(0.0036211289 -0.005588872 1275.6755)
(0.005697547 -0.0049672606 1275.6767)
(0.0033338955 -0.0029958384 1275.6787)
(-2.9540987e-05 -0.0015028531 1275.6793)
(-0.00059267495 -0.0083549953 1275.6757)
(-0.0062576747 -0.0074598853 1275.6749)
(-0.0071127676 -0.0071127676 1275.6734)
(-0.0022278279 -0.006930089 1275.6731)
(-3.1817159e-05 -0.0068042365 1275.6731)
(0.0018462956 -0.0066896324 1275.6734)
(0.0039642675 -0.0065385209 1275.6741)
(0.0067799034 -0.0062156147 1275.6753)
(0.005431603 -0.0052448103 1275.6776)
(0.00081438465 -0.0038271761 1275.6786)
(-0.0004904916 -0.0025978268 1275.6753)
(-0.0060000149 -0.0023959674 1275.6745)
(-0.006930089 -0.0022278279 1275.6731)
(-0.0020874362 -0.0020874362 1275.6728)
(8.6190133e-05 -0.0019696572 1275.6728)
(0.0019607153 -0.0018629123 1275.6731)
(0.0040951466 -0.0017554066 1275.6738)
(0.0069912576 -0.0016351512 1275.675)
(0.0057223341 -0.0014473084 1275.6773)
(0.00091554851 -0.0012694525 1275.6783)
(-0.00045810199 -0.00024645609 1275.6753)
(-0.0058876758 -0.0001542664 1275.6746)
(-0.0068042365 -3.1817159e-05 1275.6731)
(-0.0019696572 8.619014e-05 1275.6728)
(0.00019270681 0.0001927068 1275.6729)
(0.0020605461 0.00028868452 1275.6732)
(0.0041920286 0.00037838095 1275.6739)
(0.0070880016 0.00046257293 1275.675)
(0.0057973017 0.00054141743 1275.6774)
(0.00093295525 0.00058309658 1275.6784)
(-0.0004290318 0.0015474919 1275.6757)
(-0.005785376 0.0016949997 1275.6749)
(-0.0066896324 0.0018462956 1275.6734)
(-0.0018629123 0.0019607153 1275.6731)
(0.00028868452 0.0020605461 1275.6732)
(0.0021463895 0.0021463895 1275.6736)
(0.004269035 0.0022207736 1275.6742)
(0.0071542941 0.0022841576 1275.6754)
(0.0058428578 0.0023341963 1275.6777)
(0.00094333461 0.0023644707 1275.6788)
(-0.00035976341 0.0031461522 1275.6763)
(-0.005588872 0.0036211289 1275.6755)
(-0.0065385209 0.0039642675 1275.6741)
(-0.0017554066 0.0040951466 1275.6738)
(0.00037838095 0.0041920286 1275.6739)
(0.0022207736 0.004269035 1275.6742)
(0.0043297967 0.0043297967 1275.6749)
(0.0072014243 0.0043741183 1275.6761)
(0.0058776148 0.0043983818 1275.6784)
(0.00095313813 0.0044150305 1275.6795)
(-0.00011238063 0.0041868698 1275.6774)
(-0.0049672606 0.005697547 1275.6767)
(-0.0062156147 0.0067799034 1275.6753)
(-0.0016351512 0.0069912576 1275.675)
(0.00046257293 0.0070880016 1275.675)
(0.0022841576 0.0071542941 1275.6754)
(0.0043741183 0.0072014243 1275.6761)
(0.0072228791 0.0072228791 1275.6773)
(0.00588377 0.0071772087 1275.6797)
(0.00095443377 0.0069917884 1275.6808)
(0.00064735478 0.0019671955 1275.6789)
(-0.0029958384 0.0033338955 1275.6787)
(-0.0052448103 0.005431603 1275.6776)
(-0.0014473084 0.0057223341 1275.6773)
(0.00054141742 0.0057973017 1275.6774)
(0.0023341963 0.0058428578 1275.6777)
(0.0043983818 0.0058776148 1275.6784)
(0.0071772087 0.00588377 1275.6797)
(0.0056465241 0.0056465241 1275.6821)
(0.00082952465 0.0035457537 1275.6832)
(0.00079875266 -0.00018093887 1275.6792)
(-0.0015028531 -2.954099e-05 1275.6793)
(-0.0038271761 0.00081438464 1275.6786)
(-0.0012694525 0.00091554851 1275.6783)
(0.00058309658 0.00093295525 1275.6784)
(0.0023644707 0.00094333461 1275.6788)
(0.0044150305 0.00095313813 1275.6795)
(0.0069917884 0.00095443377 1275.6808)
(0.0035457537 0.00082952465 1275.6832)
(-0.00044607982 -0.00044607982 1275.6829)
(0.0015215579 0.0015215579 1217.0435)
(-0.0049554922 -0.0014646943 1217.043)
(-0.0093862644 -0.00086503884 1217.0415)
(-0.0026992247 -0.0007428508 1217.0413)
(-2.9366309e-05 -0.00070746532 1217.0414)
(0.0020365187 -0.00068034959 1217.0418)
(0.0039786073 -0.00061262941 1217.0424)
(0.0054479526 -0.00033654075 1217.0433)
(0.0029564068 0.00059095705 1217.0448)
(-1.8689358e-05 0.00081653359 1217.0453)
(-0.0014646943 -0.0049554922 1217.043)
(-0.0085353873 -0.0085353873 1217.042)
(-0.0083034991 -0.0073395131 1217.0407)
(-0.0024628645 -0.0070329212 1217.0406)
(6.4385507e-05 -0.0069105073 1217.0407)
(0.0021787725 -0.0068132046 1217.0411)
(0.0044943205 -0.0066258793 1217.0416)
(0.0072533323 -0.0059531659 1217.0427)
(0.0046860184 -0.0036084197 1217.0446)
(0.00020688718 -0.0018169512 1217.0453)
(-0.00086503885 -0.0093862644 1217.0415)
(-0.0073395131 -0.008303499 1217.0407)
(-0.0078837983 -0.0078837983 1217.0395)
(-0.0022702189 -0.0076716785 1217.0394)
(0.00019035027 -0.0075361067 1217.0396)
(0.0023211466 -0.0074247394 1217.0399)
(0.0048386461 -0.0072874621 1217.0405)
(0.0084654122 -0.0069687227 1217.0415)
(0.0070926214 -0.0058754384 1217.0436)
(0.0011756229 -0.0042627608 1217.0447)
(-0.00074285079 -0.0026992247 1217.0413)
(-0.0070329212 -0.0024628645 1217.0406)
(-0.0076716785 -0.0022702189 1217.0394)
(-0.0021151729 -0.0021151729 1217.0393)
(0.00031132458 -0.0019912316 1217.0395)
(0.0024274172 -0.0018858101 1217.0398)
(0.0049503373 -0.0017877744 1217.0404)
(0.008665356 -0.0016846177 1217.0414)
(0.0073919803 -0.0014998694 1217.0435)
(0.0012820056 -0.0013185862 1217.0446)
(-0.00070746533 -2.93663e-05 1217.0414)
(-0.0069105073 6.4385492e-05 1217.0407)
(-0.0075361067 0.00019035027 1217.0396)
(-0.0019912316 0.00031132458 1217.0395)
(0.00041971308 0.00041971308 1217.0397)
(0.0025246038 0.00051593418 1217.04)
(0.0050398385 0.00060394994 1217.0405)
(0.0087533172 0.00068448985 1217.0415)
(0.0074586529 0.00076147853 1217.0436)
(0.0012964785 0.00080020451 1217.0447)
(-0.0006803496 0.0020365187 1217.0418)
(-0.0068132047 0.0021787726 1217.0411)
(-0.0074247394 0.0023211466 1217.0399)
(-0.0018858101 0.0024274172 1217.0398)
(0.00051593418 0.0025246039 1217.04)
(0.002611654 0.0026116541 1217.0403)
(0.0051188929 0.0026905621 1217.0408)
(0.0088228846 0.0027619364 1217.0418)
(0.0075076949 0.0028237112 1217.0439)
(0.0013078229 0.0028662831 1217.045)
(-0.00061262941 0.0039786073 1217.0424)
(-0.0066258793 0.0044943206 1217.0416)
(-0.0072874621 0.0048386461 1217.0405)
(-0.0017877744 0.0049503373 1217.0404)
(0.00060394994 0.0050398385 1217.0405)
(0.0026905621 0.0051188929 1217.0408)
(0.0051901209 0.0051901209 1217.0414)
(0.0088864663 0.0052544546 1217.0424)
(0.0075629996 0.0053091369 1217.0445)
(0.0013248597 0.0053647495 1217.0456)
(-0.00033654076 0.0054479526 1217.0433)
(-0.0059531659 0.0072533323 1217.0427)
(-0.0069687227 0.0084654122 1217.0415)
(-0.0016846177 0.0086653561 1217.0414)
(0.00068448985 0.0087533172 1217.0415)
(0.0027619364 0.0088228846 1217.0418)
(0.0052544546 0.0088864663 1217.0424)
(0.0089419006 0.0089419006 1217.0434)
(0.0076179898 0.0089471788 1217.0456)
(0.001344898 0.0088013332 1217.0468)
(0.00059095706 0.0029564068 1217.0448)
(-0.0036084197 0.0046860183 1217.0446)
(-0.0058754384 0.0070926214 1217.0436)
(-0.0014998694 0.0073919803 1217.0435)
(0.00076147852 0.0074586529 1217.0436)
(0.0028237112 0.0075076949 1217.0439)
(0.0053091369 0.0075629996 1217.0445)
(0.0089471788 0.0076179898 1217.0456)
(0.0074224322 0.0074224322 1217.0478)
(0.0012276293 0.0046699329 1217.049)
(0.00081653359 -1.8689359e-05 1217.0453)
(-0.0018169512 0.00020688718 1217.0453)
(-0.0042627608 0.0011756229 1217.0447)
(-0.0013185862 0.0012820056 1217.0446)
(0.0008002045 0.0012964785 1217.0447)
(0.0028662831 0.0013078229 1217.045)
(0.0053647495 0.0013248597 1217.0456)
(0.0088013332 0.001344898 1217.0468)
(0.0046699329 0.0012276293 1217.049)
(-0.00049010155 -0.00049010155 1217.049)
(0.0013818466 0.0013818466 1162.5326)
(-0.0058791452 -0.0018038644 1162.5322)
(-0.010141582 -0.00110042 1162.5309)
(-0.0026396173 -0.00095947854 1162.5309)
(0.00025415276 -0.0009227579 1162.5312)
(0.0025078273 -0.00090046341 1162.5315)
(0.004724651 -0.00084009664 1162.5321)
(0.0065932078 -0.00054757873 1162.5329)
(0.0039270925 0.00052500991 1162.5342)
(0.00016987431 0.00082714881 1162.5348)
(-0.0018038644 -0.0058791452 1162.5322)
(-0.009602545 -0.009602545 1162.5312)
(-0.0088750032 -0.0081993427 1162.5303)
(-0.0023731242 -0.0078483543 1162.5304)
(0.00034267545 -0.0077220164 1162.5306)
(0.0026318192 -0.0076395649 1162.5309)
(0.0052539781 -0.0074795051 1162.5314)
(0.0086408676 -0.0067908897 1162.5323)
(0.0059891838 -0.0041363651 1162.534)
(0.00047201322 -0.0020728289 1162.5348)
(-0.00110042 -0.010141582 1162.5309)
(-0.0081993426 -0.0088750032 1162.5303)
(-0.0083873912 -0.0083873912 1162.5294)
(-0.002162291 -0.0081518776 1162.5295)
(0.0004629421 -0.0080144194 1162.5298)
(0.0027503387 -0.0079172344 1162.5301)
(0.0055733262 -0.0078106234 1162.5306)
(0.0099363478 -0.0075232767 1162.5314)
(0.0086451533 -0.006350281 1162.5332)
(0.0015455652 -0.0045835233 1162.5343)
(-0.00095947854 -0.0026396172 1162.5309)
(-0.0078483543 -0.0023731242 1162.5304)
(-0.0081518776 -0.002162291 1162.5295)
(-0.0020001523 -0.0020001523 1162.5296)
(0.00057731862 -0.0018786449 1162.5299)
(0.0028356152 -0.0017847016 1162.5302)
(0.0056479358 -0.0017089696 1162.5306)
(0.01010121 -0.0016395052 1162.5314)
(0.0089289371 -0.0014774063 1162.5332)
(0.0016498517 -0.0013081865 1162.5343)
(-0.0009227579 0.00025415276 1162.5312)
(-0.0077220164 0.00034267545 1162.5306)
(-0.0080144194 0.0004629421 1162.5298)
(-0.0018786449 0.00057731861 1162.5299)
(0.00067839281 0.00067839281 1162.5301)
(0.0029200139 0.0007659925 1162.5304)
(0.0057185226 0.00084341489 1162.5308)
(0.010167911 0.00091117432 1162.5316)
(0.008976472 0.00097775553 1162.5333)
(0.0016583783 0.0010078088 1162.5344)
(-0.00090046341 0.0025078273 1162.5315)
(-0.0076395649 0.0026318192 1162.5309)
(-0.0079172344 0.0027503387 1162.5301)
(-0.0017847016 0.0028356152 1162.5302)
(0.0007659925 0.0029200139 1162.5304)
(0.0030006372 0.0030006373 1162.5307)
(0.0057931176 0.0030787129 1162.5311)
(0.010235551 0.0031550016 1162.5318)
(0.0090255715 0.0032278026 1162.5336)
(0.0016698871 0.0032836075 1162.5346)
(-0.00084009664 0.004724651 1162.5321)
(-0.0074795051 0.0052539781 1162.5314)
(-0.0078106234 0.0055733262 1162.5306)
(-0.0017089696 0.0056479358 1162.5306)
(0.00084341488 0.0057185226 1162.5308)
(0.0030787129 0.0057931176 1162.5311)
(0.0058728869 0.0058728869 1162.5315)
(0.010317001 0.0059603142 1162.5322)
(0.009105078 0.0060539202 1162.534)
(0.0016955816 0.0061598515 1162.5351)
(-0.00054757872 0.0065932078 1162.5329)
(-0.0067908897 0.0086408676 1162.5323)
(-0.0075232767 0.0099363478 1162.5314)
(-0.0016395052 0.01010121 1162.5314)
(0.00091117431 0.010167911 1162.5316)
(0.0031550016 0.010235551 1162.5318)
(0.0059603142 0.010317001 1162.5322)
(0.010416584 0.010416584 1162.533)
(0.0092251089 0.010496216 1162.5349)
(0.001740508 0.010427431 1162.536)
(0.00052500991 0.0039270925 1162.5342)
(-0.0041363651 0.0059891838 1162.534)
(-0.006350281 0.0086451533 1162.5332)
(-0.0014774063 0.0089289371 1162.5332)
(0.00097775552 0.008976472 1162.5333)
(0.0032278026 0.0090255715 1162.5336)
(0.0060539202 0.009105078 1162.534)
(0.010496216 0.0092251089 1162.5349)
(0.0091159252 0.0091159252 1162.5369)
(0.001649725 0.0058114249 1162.5381)
(0.00082714881 0.00016987431 1162.5348)
(-0.0020728289 0.00047201321 1162.5348)
(-0.0045835233 0.0015455651 1162.5343)
(-0.0013081866 0.0016498517 1162.5343)
(0.0010078088 0.0016583783 1162.5344)
(0.0032836075 0.0016698871 1162.5346)
(0.0061598515 0.0016955816 1162.5351)
(0.010427431 0.001740508 1162.536)
(0.0058114249 0.001649725 1162.5381)
(-0.00046249216 -0.00046249216 1162.5383)
(0.0012503429 0.0012503429 1111.5826)
(-0.006622192 -0.0020907314 1111.5822)
(-0.010634941 -0.0012874727 1111.5813)
(-0.0024433671 -0.0011296074 1111.5815)
(0.00057838735 -0.0010932091 1111.5818)
(0.0029327592 -0.0010782732 1111.5822)
(0.0053476863 -0.0010303358 1111.5826)
(0.007570129 -0.00073264332 1111.5833)
(0.0048067733 0.00046204731 1111.5844)
(0.00035739443 0.00083849064 1111.5849)
(-0.0020907314 -0.006622192 1111.5822)
(-0.010428916 -0.010428915 1111.5815)
(-0.0091932546 -0.0088280632 1111.5808)
(-0.0021519716 -0.0084386127 1111.5811)
(0.0006553886 -0.008314403 1111.5814)
(0.0030270691 -0.0082555588 1111.5817)
(0.0058661311 -0.0081384977 1111.5821)
(0.0098087037 -0.0074656284 1111.5828)
(0.0071634743 -0.0045635411 1111.5842)
(0.00073383776 -0.0022604577 1111.5849)
(-0.0012874727 -0.010634941 1111.5813)
(-0.0088280632 -0.0091932546 1111.5808)
(-0.0086446379 -0.0086446379 1111.5803)
(-0.0019297069 -0.0083924386 1111.5805)
(0.00076144125 -0.0082606272 1111.5808)
(0.0031086644 -0.0081874365 1111.5811)
(0.0061376168 -0.0081261164 1111.5815)
(0.011145086 -0.0078939206 1111.5821)
(0.010011944 -0.0066806003 1111.5836)
(0.0018927833 -0.0047985973 1111.5846)
(-0.0011296073 -0.0024433671 1111.5815)
(-0.0084386127 -0.0021519716 1111.5811)
(-0.0083924386 -0.0019297069 1111.5805)
(-0.001767961 -0.001767961 1111.5808)
(0.00086039064 -0.0016569737 1111.5811)
(0.00316158 -0.0015837173 1111.5814)
(0.0061596471 -0.0015416132 1111.5817)
(0.01125422 -0.0015202669 1111.5822)
(0.010258798 -0.0013980655 1111.5837)
(0.0019885064 -0.0012545614 1111.5846)