/*--------------------------------*- C++ -*----------------------------------*\
| =========                 |                                                 |
| \\      /  F ield         | OpenFOAM: The Open Source CFD Toolbox           |
|  \\    /   O peration     | Version:  v2106                                 |
|   \\  /    A nd           | Website:  www.openfoam.com                      |
|    \\/     M anipulation  |                                                 |
\*---------------------------------------------------------------------------*/
FoamFile
{
    version     2.0;
    format      ascii;
    arch        "LSB;label=32;scalar=64";
    class       volScalarField;
    location    "30";
    object      laplacianT;
}
// * * * * * * * * * * * * * * * * * * * * * * * * * * * * * * * * * * * * * //

dimensions      [0 -2 0 1 0 0 0];

internalField   nonuniform List<scalar> 
4000
(
46365.146
46364.704
46365.041
46364.891
46364.903
46364.929
46364.952
46364.979
46365.008
46365.021
46364.704
46365.02
46364.985
46364.87
46364.89
46364.916
46364.939
46364.969
46365.005
46365.001
46365.041
46364.985
46365.047
46364.95
46364.971
46364.995
46365.016
46365.048
46365.096
46365.062
46364.891
46364.87
46364.95
46364.855
46364.875
46364.896
46364.913
46364.941
46364.995
46364.989
46364.903
46364.89
46364.971
46364.875
46364.893
46364.911
46364.925
46364.948
46364.997
46364.988
46364.929
46364.916
46364.995
46364.896
46364.911
46364.927
46364.938
46364.96
46365.006
46364.994
46364.952
46364.939
46365.016
46364.913
46364.925
46364.938
46364.948
46364.968
46365.014
46365.002
46364.979
46364.969
46365.048
46364.941
46364.948
46364.96
46364.968
46364.989
46365.037
46365.026
46365.008
46365.005
46365.096
46364.995
46364.997
46365.006
46365.014
46365.037
46365.087
46365.077
46365.021
46365.001
46365.062
46364.989
46364.988
46364.994
46365.002
46365.026
46365.077
46365.063
-792.38576
-793.60387
-792.038
-792.53623
-792.60766
-792.60713
-792.60221
-792.59403
-792.58261
-792.58218
-793.60387
-792.75913
-792.30732
-792.73499
-792.78341
-792.77671
-792.76463
-792.75495
-792.812
-792.8159
-792.038
-792.30732
-791.66468
-792.05552
-792.09989
-792.09156
-792.07044
-792.03437
-792.0999
-792.38054
-792.53623
-792.73499
-792.05552
-792.44089
-792.48508
-792.47711
-792.4535
-792.39843
-792.40048
-792.5501
-792.60766
-792.78341
-792.09989
-792.48508
-792.52964
-792.52233
-792.50001
-792.44613
-792.44646
-792.58082
-792.60713
-792.77671
-792.09156
-792.47711
-792.52233
-792.51537
-792.49362
-792.441
-792.4433
-792.57843
-792.60221
-792.76463
-792.07044
-792.4535
-792.50001
-792.49362
-792.47189
-792.41931
-792.42191
-792.55841
-792.59403
-792.75495
-792.03437
-792.39843
-792.44613
-792.441
-792.41931
-792.36641
-792.36887
-792.50971
-792.58261
-792.812
-792.0999
-792.40048
-792.44646
-792.4433
-792.42191
-792.36887
-792.37265
-792.5301
-792.58218
-792.8159
-792.38054
-792.5501
-792.58082
-792.57843
-792.55841
-792.50971
-792.5301
-792.72621
-847.87837
-849.26376
-847.36354
-848.05982
-848.15791
-848.15471
-848.14209
-848.12636
-848.1476
-847.94095
-849.26376
-848.08214
-847.57505
-848.17251
-848.23949
-848.22448
-848.19079
-848.1622
-848.43162
-848.41301
-847.36354
-847.57505
-846.81928
-847.36905
-847.43099
-847.41355
-847.3615
-847.26585
-847.50672
-847.8588
-848.05982
-848.17251
-847.36905
-847.91173
-847.97363
-847.95733
-847.90224
-847.77572
-847.9173
-848.07467
-848.15791
-848.23949
-847.43099
-847.97363
-848.03621
-848.02112
-847.96851
-847.84393
-847.98246
-848.11371
-848.15471
-848.22448
-847.41355
-847.95733
-848.02112
-848.00663
-847.95497
-847.8323
-847.97369
-848.10496
-848.14209
-848.19079
-847.3615
-847.90224
-847.96851
-847.95497
-847.90328
-847.78052
-847.92215
-848.05676
-848.12636
-848.1622
-847.26585
-847.77572
-847.84393
-847.8323
-847.78052
-847.65708
-847.79901
-847.95178
-848.1476
-848.43162
-847.50672
-847.9173
-847.98246
-847.97369
-847.92215
-847.79901
-847.9486
-848.17931
-847.94095
-848.41301
-847.8588
-848.07467
-848.11371
-848.10496
-848.05676
-847.95178
-848.17931
-848.24504
-899.5775
-901.24178
-898.97363
-899.8421
-899.96438
-899.95756
-899.93263
-899.90432
-900.03764
-899.76477
-901.24178
-899.85904
-899.2505
-899.99703
-900.08106
-900.0565
-899.99111
-899.91042
-900.42326
-900.40361
-898.97363
-899.2505
-898.34286
-899.03206
-899.11033
-899.08338
-898.99312
-898.81144
-899.2786
-899.7378
-899.8421
-899.99703
-899.03206
-899.71266
-899.79104
-899.76605
-899.67236
-899.44814
-899.78356
-899.9958
-899.96438
-900.08106
-899.11033
-899.79104
-899.87033
-899.84707
-899.75689
-899.53495
-899.86554
-900.04231
-899.95756
-900.0565
-899.08338
-899.76605
-899.84707
-899.82464
-899.73575
-899.51616
-899.85007
-900.02568
-899.93263
-899.99111
-898.99312
-899.67236
-899.75689
-899.73575
-899.64669
-899.42659
-899.76016
-899.94079
-899.90432
-899.91042
-898.81144
-899.44814
-899.53495
-899.51616
-899.42659
-899.20496
-899.53943
-899.76125
-900.03764
-900.42326
-899.2786
-899.78356
-899.86554
-899.85007
-899.76016
-899.53943
-899.89782
-900.34557
-899.76477
-900.40361
-899.7378
-899.9958
-900.04231
-900.02568
-899.94079
-899.76125
-900.34557
-900.13078
-947.50288
-949.41967
-946.79178
-947.822
-947.96703
-947.95585
-947.91382
-947.85362
-948.06828
-947.73742
-949.41967
-947.84181
-947.12845
-948.0152
-948.11541
-948.08133
-947.98083
-947.82953
-948.55755
-948.52535
-946.79178
-947.12845
-946.0683
-946.88862
-946.98245
-946.94621
-946.81494
-946.53036
-947.2017
-947.75324
-947.822
-948.0152
-946.88862
-947.69891
-947.79299
-947.75949
-947.62438
-947.28559
-947.79451
-948.05098
-947.96703
-948.11541
-946.98245
-947.79299
-947.88818
-947.85693
-947.7263
-947.3899
-947.89211
-948.10456
-947.95585
-948.08133
-946.94621
-947.75949
-947.85693
-947.82674
-947.69768
-947.36395
-947.86962
-948.0794
-947.91382
-947.98083
-946.81494
-947.62438
-947.7263
-947.69768
-947.56823
-947.23323
-947.73712
-947.95232
-947.85362
-947.82953
-946.53036
-947.28559
-947.3899
-947.36395
-947.23323
-946.89477
-947.39789
-947.67852
-948.06828
-948.55755
-947.2017
-947.79451
-947.89211
-947.86962
-947.73712
-947.39789
-947.93993
-948.64383
-947.73742
-948.52535
-947.75324
-948.05098
-948.10456
-948.0794
-947.95232
-947.67852
-948.64383
-948.13744
-991.36345
-993.51108
-990.54764
-991.73154
-991.8982
-991.88284
-991.82346
-991.72762
-992.01153
-991.62481
-993.51108
-991.75091
-990.94143
-991.9613
-992.07695
-992.03387
-991.8987
-991.6734
-992.6003
-992.55379
-990.54764
-990.94143
-989.73976
-990.68456
-990.79325
-990.74827
-990.57667
-990.1867
-991.04694
-991.68255
-991.73154
-991.9613
-990.68456
-991.61798
-991.72704
-991.6856
-991.50973
-991.05414
-991.72277
-992.01785
-991.8982
-992.07695
-990.79325
-991.72704
-991.83744
-991.79873
-991.62828
-991.17514
-991.8352
-992.07821
-991.88284
-992.03387
-990.74827
-991.6856
-991.79873
-991.76131
-991.59273
-991.14249
-991.80606
-992.0447
-991.82346
-991.8987
-990.57667
-991.50973
-991.62828
-991.59273
-991.42349
-990.97109
-991.63103
-991.87454
-991.72762
-991.6734
-990.1867
-991.05414
-991.17514
-991.14249
-990.97109
-990.51278
-991.16881
-991.50058
-992.01153
-992.6003
-991.04694
-991.72277
-991.8352
-991.80606
-991.63103
-991.16881
-991.87593
-992.83875
-991.62481
-992.55379
-991.68255
-992.01785
-992.07821
-992.0447
-991.87454
-991.50058
-992.83875
-992.05048
-1030.959
-1033.321
-1030.0499
-1031.3791
-1031.5661
-1031.5468
-1031.4705
-1031.3387
-1031.6852
-1031.2446
-1033.321
-1031.3972
-1030.5023
-1031.6479
-1031.778
-1031.7264
-1031.5575
-1031.2582
-1032.3696
-1032.3075
-1030.0499
-1030.5023
-1029.1724
-1030.2347
-1030.3574
-1030.3041
-1030.0934
-1029.5993
-1030.634
-1031.3451
-1031.3791
-1031.6479
-1030.2347
-1031.2843
-1031.4075
-1031.3586
-1031.1433
-1030.5726
-1031.388
-1031.7156
-1031.5661
-1031.778
-1030.3574
-1031.4075
-1031.5323
-1031.4866
-1031.2776
-1030.7093
-1031.5145
-1031.7824
-1031.5468
-1031.7264
-1030.3041
-1031.3586
-1031.4866
-1031.4423
-1031.2355
-1030.6704
-1031.4791
-1031.7409
-1031.4705
-1031.5575
-1030.0934
-1031.1433
-1031.2776
-1031.2355
-1031.0278
-1030.4596
-1031.2626
-1031.5283
-1031.3387
-1031.2582
-1029.5993
-1030.5726
-1030.7093
-1030.6704
-1030.4596
-1029.8829
-1030.6782
-1031.0537
-1031.6852
-1032.3696
-1030.634
-1031.388
-1031.5145
-1031.4791
-1031.2626
-1030.6782
-1031.5352
-1032.7477
-1031.2446
-1032.3075
-1031.3451
-1031.7156
-1031.7824
-1031.7409
-1031.5283
-1031.0537
-1032.7477
-1031.6898
-1066.1428
-1068.7032
-1065.1537
-1066.6187
-1066.8248
-1066.8016
-1066.7089
-1066.5414
-1066.9445
-1066.4516
-1068.7032
-1066.6357
-1065.6663
-1066.9293
-1067.073
-1067.013
-1066.8115
-1066.4392
-1067.7205
-1067.6407
-1065.1537
-1065.6663
-1064.2217
-1065.3939
-1065.5297
-1065.4685
-1065.2201
-1064.6243
-1065.8188
-1066.5957
-1066.6187
-1066.9293
-1065.3939
-1066.5523
-1066.6887
-1066.6325
-1066.3793
-1065.6965
-1066.6458
-1066.999
-1066.8248
-1067.073
-1065.5297
-1066.6887
-1066.8268
-1066.7743
-1066.5283
-1065.8481
-1066.7854
-1067.0717
-1066.8016
-1067.013
-1065.4685
-1066.6325
-1066.7743
-1066.7236
-1066.48
-1065.8032
-1066.744
-1067.0225
-1066.7089
-1066.8115
-1065.2201
-1066.3793
-1066.5283
-1066.48
-1066.2353
-1065.5544
-1066.4876
-1066.7687
-1066.5414
-1066.4392
-1064.6243
-1065.6965
-1065.8481
-1065.8032
-1065.5544
-1064.8624
-1065.7838
-1066.195
-1066.9445
-1067.7205
-1065.8188
-1066.6458
-1066.7854
-1066.744
-1066.4876
-1065.7838
-1066.7762
-1068.2245
-1066.4516
-1067.6407
-1066.5957
-1066.999
-1067.0717
-1067.0225
-1066.7687
-1066.195
-1068.2245
-1066.9097
-1096.8033
-1099.5451
-1095.7473
-1097.3382
-1097.5617
-1097.5347
-1097.4261
-1097.2235
-1097.6775
-1097.134
-1099.5451
-1097.3545
-1096.3213
-1097.6929
-1097.849
-1097.7811
-1097.5481
-1097.1045
-1098.5406
-1098.441
-1095.7473
-1096.3213
-1094.7759
-1096.0497
-1096.1975
-1096.1287
-1095.8444
-1095.1501
-1096.4893
-1097.322
-1097.3382
-1097.6929
-1096.0497
-1097.3085
-1097.4571
-1097.3941
-1097.1046
-1096.3139
-1097.3836
-1097.7553
-1097.5617
-1097.849
-1096.1975
-1097.4571
-1097.6075
-1097.5487
-1097.2673
-1096.4791
-1097.5354
-1097.8336
-1097.5347
-1097.7811
-1096.1287
-1097.3941
-1097.5487
-1097.4919
-1097.2131
-1096.4285
-1097.4883
-1097.777
-1097.4261
-1097.5481
-1095.8444
-1097.1046
-1097.2673
-1097.2131
-1096.933
-1096.1435
-1097.1937
-1097.4834
-1097.2235
-1097.1045
-1095.1501
-1096.3139
-1096.4791
-1096.4285
-1096.1435
-1095.3402
-1096.3745
-1096.8134
-1097.6775
-1098.5406
-1096.4893
-1097.3836
-1097.5354
-1097.4883
-1097.1937
-1096.3745
-1097.488
-1099.1563
-1097.134
-1098.441
-1097.322
-1097.7553
-1097.8336
-1097.777
-1097.4834
-1096.8134
-1099.1563
-1097.5981
-1122.8601
-1125.766
-1121.7506
-1123.4564
-1123.6958
-1123.665
-1123.5412
-1123.3044
-1123.8034
-1123.2112
-1125.766
-1123.4728
-1122.3864
-1123.857
-1124.0243
-1123.9489
-1123.6859
-1123.1733
-1124.7488
-1124.6272
-1121.7506
-1122.3864
-1120.7541
-1122.1205
-1122.2792
-1122.2033
-1121.8848
-1121.0963
-1122.5649
-1123.4431
-1123.4564
-1123.857
-1122.1205
-1123.471
-1123.6306
-1123.5613
-1123.2375
-1122.3436
-1123.5205
-1123.9036
-1123.6958
-1124.0243
-1122.2792
-1123.6306
-1123.7922
-1123.7275
-1123.4126
-1122.5213
-1123.6834
-1123.9868
-1123.665
-1123.9489
-1122.2033
-1123.5613
-1123.7275
-1123.6648
-1123.3529
-1122.4654
-1123.631
-1123.9232
-1123.5412
-1123.6859
-1121.8848
-1123.2375
-1123.4126
-1123.3529
-1123.0393
-1122.146
-1123.3
-1123.5919
-1123.3044
-1123.1733
-1121.0963
-1122.3436
-1122.5213
-1122.4654
-1122.146
-1121.2363
-1122.3703
-1122.8291
-1123.8034
-1124.7488
-1122.5649
-1123.5205
-1123.6834
-1123.631
-1123.3
-1122.3703
-1123.5908
-1125.4619
-1123.2112
-1124.6272
-1123.4431
-1123.9036
-1123.9868
-1123.9232
-1123.5919
-1122.8291
-1125.4619
-1123.6747
-1144.2632
-1147.3149
-1143.1132
-1144.9222
-1145.1758
-1145.1415
-1145.0031
-1144.7334
-1145.2714
-1144.6329
-1147.3149
-1144.9399
-1143.8105
-1145.37
-1145.5472
-1145.4647
-1145.1734
-1144.5945
-1146.2938
-1146.1484
-1143.1132
-1143.8105
-1142.1049
-1143.5547
-1143.723
-1143.6406
-1143.29
-1142.412
-1143.9946
-1144.9082
-1144.9222
-1145.37
-1143.5547
-1144.9876
-1145.157
-1145.0817
-1144.7258
-1143.7343
-1145.0051
-1145.3928
-1145.1758
-1145.5472
-1143.723
-1145.157
-1145.3286
-1145.2583
-1144.912
-1143.9233
-1145.1781
-1145.4804
-1145.1415
-1145.4647
-1143.6406
-1145.0817
-1145.2583
-1145.1903
-1144.8472
-1143.8624
-1145.1205
-1145.4103
-1145.0031
-1145.1734
-1143.29
-1144.7258
-1144.912
-1144.8472
-1144.5023
-1143.5109
-1144.7555
-1145.0432
-1144.7334
-1144.5945
-1142.412
-1143.7343
-1143.9233
-1143.8624
-1143.5109
-1142.5004
-1143.721
-1144.192
-1145.2714
-1146.2938
-1143.9946
-1145.0051
-1145.1781
-1145.1205
-1144.7555
-1143.721
-1145.0344
-1147.0901
-1144.6329
-1146.1484
-1144.9082
-1145.3928
-1145.4804
-1145.4103
-1145.0432
-1144.192
-1147.0901
-1145.0892
-1160.9903
-1164.1694
-1159.8126
-1161.7127
-1161.9788
-1161.9411
-1161.7889
-1161.4877
-1162.0591
-1161.3769
-1164.1694
-1161.733
-1160.5704
-1162.2082
-1162.3942
-1162.3051
-1161.9873
-1161.3455
-1163.1527
-1162.9818
-1159.8126
-1160.5704
-1158.8053
-1160.3284
-1160.5053
-1160.4167
-1160.0365
-1159.0745
-1160.7556
-1161.6947
-1161.7127
-1162.2082
-1160.3284
-1161.8339
-1162.012
-1161.9313
-1161.5456
-1160.4629
-1161.8143
-1162.2002
-1161.9788
-1162.3942
-1160.5053
-1162.012
-1162.1924
-1162.117
-1161.7417
-1160.6618
-1161.9961
-1162.2916
-1161.9411
-1162.3051
-1160.4167
-1161.9313
-1162.117
-1162.0441
-1161.6722
-1160.5963
-1161.9339
-1162.2153
-1161.7889
-1161.9873
-1160.0365
-1161.5456
-1161.7417
-1161.6722
-1161.2982
-1160.215
-1161.5372
-1161.8149
-1161.4877
-1161.3455
-1159.0745
-1160.4629
-1160.6618
-1160.5963
-1160.215
-1159.1103
-1160.4043
-1160.8803
-1162.0591
-1163.1527
-1160.7556
-1161.8143
-1161.9961
-1161.9339
-1161.5372
-1160.4043
-1161.7966
-1164.0182
-1161.3769
-1162.9818
-1161.6947
-1162.2002
-1162.2916
-1162.2153
-1161.8149
-1160.8803
-1164.0182
-1161.8198
-1173.0462
-1176.3336
-1171.8531
-1173.8316
-1174.1083
-1174.0674
-1173.9025
-1173.5715
-1174.1704
-1173.4475
-1176.3336
-1173.8559
-1172.6697
-1174.3748
-1174.5681
-1174.473
-1174.1308
-1173.4299
-1175.3291
-1175.1314
-1171.8531
-1172.6697
-1170.8583
-1172.4446
-1172.6288
-1172.5347
-1172.1272
-1171.0873
-1172.8517
-1173.8064
-1173.8316
-1174.3748
-1172.4446
-1174.0126
-1174.198
-1174.1124
-1173.6996
-1172.5326
-1173.9514
-1174.3295
-1174.1083
-1174.5681
-1172.6288
-1174.198
-1174.386
-1174.306
-1173.9042
-1172.74
-1174.1409
-1174.4241
-1174.0674
-1174.473
-1172.5347
-1174.1124
-1174.306
-1174.2286
-1173.8304
-1172.6704
-1174.0745
-1174.3423
-1173.9025
-1174.1308
-1172.1272
-1173.6996
-1173.9042
-1173.8304
-1173.4299
-1172.2618
-1173.6488
-1173.9111
-1173.5715
-1173.4299
-1171.0873
-1172.5326
-1172.74
-1172.6704
-1172.2618
-1171.0698
-1172.4246
-1172.8987
-1174.1704
-1175.3291
-1172.8517
-1173.9514
-1174.1409
-1174.0745
-1173.6488
-1172.4246
-1173.8821
-1176.2501
-1173.4475
-1175.1314
-1173.8064
-1174.3295
-1174.4241
-1174.3423
-1173.9111
-1172.8987
-1176.2501
-1173.8713
-1180.4603
-1183.8365
-1179.2636
-1181.3074
-1181.5928
-1181.5489
-1181.3723
-1181.0135
-1181.6344
-1180.8741
-1183.8365
-1181.3371
-1180.1363
-1181.8974
-1182.0968
-1181.9962
-1181.6318
-1180.8761
-1182.8515
-1182.626
-1179.2636
-1180.1363
-1178.2919
-1179.9307
-1180.1209
-1180.022
-1179.59
-1178.4788
-1180.3112
-1181.2723
-1181.3074
-1181.8974
-1179.9307
-1181.5508
-1181.7423
-1181.6524
-1181.2152
-1179.9713
-1181.4449
-1181.8096
-1181.5928
-1182.0968
-1180.1209
-1181.7423
-1181.9365
-1181.8525
-1181.4269
-1180.186
-1181.6408
-1181.9069
-1181.5489
-1181.9962
-1180.022
-1181.6524
-1181.8525
-1181.7712
-1181.3493
-1180.1127
-1181.5706
-1181.8199
-1181.3723
-1181.6318
-1179.59
-1181.2152
-1181.4269
-1181.3493
-1180.925
-1179.6795
-1181.1187
-1181.3608
-1181.0135
-1180.8761
-1178.4788
-1179.9713
-1180.186
-1180.1127
-1179.6795
-1178.408
-1179.8111
-1180.2768
-1181.6344
-1182.8515
-1180.3112
-1181.4449
-1181.6408
-1181.5706
-1181.1187
-1179.8111
-1181.3204
-1183.8151
-1180.8741
-1182.626
-1181.2723
-1181.8096
-1181.9069
-1181.8199
-1181.3608
-1180.2768
-1183.8151
-1181.2734
-1183.2854
-1186.7307
-1182.0963
-1184.1921
-1184.4842
-1184.4377
-1184.2505
-1183.866
-1184.5035
-1183.7094
-1186.7307
-1184.2286
-1183.0219
-1184.8273
-1185.0315
-1184.9261
-1184.5419
-1183.7361
-1185.7721
-1185.5182
-1182.0963
-1183.0219
-1181.1572
-1182.8378
-1183.0327
-1182.9295
-1182.4759
-1181.3005
-1183.1862
-1184.1448
-1184.1921
-1184.8273
-1182.8378
-1184.4992
-1184.6956
-1184.6019
-1184.1432
-1182.8306
-1184.3464
-1184.6928
-1184.4842
-1185.0315
-1183.0327
-1184.6956
-1184.8948
-1184.8072
-1184.3606
-1183.051
-1184.5474
-1184.792
-1184.4377
-1184.9261
-1182.9295
-1184.6019
-1184.8072
-1184.7225
-1184.2798
-1182.9745
-1184.4739
-1184.7005
-1184.2505
-1184.5419
-1182.4759
-1184.1432
-1184.3606
-1184.2798
-1183.8345
-1182.5197
-1183.9987
-1184.2164
-1183.866
-1183.7361
-1181.3005
-1182.8306
-1183.051
-1182.9745
-1182.5197
-1181.1769
-1182.6161
-1183.0676
-1184.5035
-1185.7721
-1183.1862
-1184.3464
-1184.5474
-1184.4739
-1183.9987
-1182.6161
-1184.1642
-1186.7658
-1183.7094
-1185.5182
-1184.1448
-1184.6928
-1184.792
-1184.7005
-1184.2164
-1183.0676
-1186.7658
-1184.0795
-1181.5965
-1185.0908
-1180.4252
-1182.5593
-1182.8563
-1182.8074
-1182.6109
-1182.2031
-1182.8518
-1182.028
-1185.0908
-1182.6042
-1181.3997
-1183.2377
-1183.4452
-1183.3358
-1182.9343
-1182.0834
-1184.1647
-1183.8822
-1180.4252
-1181.3997
-1179.5271
-1181.2385
-1181.4369
-1181.3301
-1180.8579
-1179.6259
-1181.5502
-1182.4979
-1182.5593
-1183.2377
-1181.2385
-1182.9304
-1183.1304
-1183.0335
-1182.5564
-1181.1836
-1182.7295
-1183.0531
-1182.8563
-1183.4452
-1181.4369
-1183.1304
-1183.3332
-1183.2427
-1182.7781
-1181.4083
-1182.9343
-1183.1536
-1182.8074
-1183.3358
-1181.3301
-1183.0335
-1183.2427
-1183.1552
-1182.6946
-1181.3291
-1182.858
-1183.0583
-1182.6109
-1182.9343
-1180.8579
-1182.5564
-1182.7781
-1182.6946
-1182.2312
-1180.8557
-1182.3627
-1182.5524
-1182.2031
-1182.0834
-1179.6259
-1181.1836
-1181.4083
-1181.3291
-1180.8557
-1179.4501
-1180.9139
-1181.346
-1182.8518
-1184.1647
-1181.5502
-1182.7295
-1182.9343
-1182.858
-1182.3627
-1180.9139
-1182.4883
-1185.1767
-1182.028
-1183.8822
-1182.4979
-1183.0531
-1183.1536
-1183.0583
-1182.5524
-1181.346
-1185.1767
-1182.3646
-1175.4886
-1179.0118
-1174.3449
-1176.5035
-1176.8035
-1176.7525
-1176.5479
-1176.1194
-1176.7744
-1175.9251
-1179.0118
-1176.5581
-1175.3634
-1177.2223
-1177.4318
-1177.319
-1176.9027
-1176.0123
-1178.1238
-1177.813
-1174.3449
-1175.3634
-1173.4949
-1175.2261
-1175.4267
-1175.317
-1174.8292
-1173.5486
-1175.4975
-1176.4266
-1176.5035
-1177.2223
-1175.2261
-1176.9376
-1177.1398
-1177.0405
-1176.5481
-1175.1239
-1176.6883
-1176.9853
-1176.8035
-1177.4318
-1175.4267
-1177.1398
-1177.3449
-1177.2521
-1176.7726
-1175.3515
-1176.8955
-1177.0866
-1176.7525
-1177.319
-1175.317
-1177.0405
-1177.2521
-1177.1624
-1176.6869
-1175.2702
-1176.817
-1176.988
-1176.5479
-1176.9027
-1174.8292
-1176.5481
-1176.7726
-1176.6869
-1176.2085
-1174.7811
-1176.3049
-1176.4635
-1176.1194
-1176.0123
-1173.5486
-1175.1239
-1175.3515
-1175.2702
-1174.7811
-1173.3221
-1174.7992
-1175.2073
-1176.7744
-1178.1238
-1175.4975
-1176.6883
-1176.8955
-1176.817
-1176.3049
-1174.7992
-1176.3878
-1179.1433
-1175.9251
-1177.813
-1176.4266
-1176.9853
-1177.0866
-1176.988
-1176.4635
-1175.2073
-1179.1433
-1176.2245
-1165.0764
-1168.6081
-1163.9689
-1166.1383
-1166.4393
-1166.3865
-1166.1751
-1165.7286
-1166.3851
-1165.5149
-1168.6081
-1166.2037
-1165.026
-1166.8937
-1167.1039
-1166.9884
-1166.5602
-1165.636
-1167.763
-1167.4247
-1163.9689
-1165.026
-1163.173
-1164.9129
-1165.1144
-1165.0026
-1164.5024
-1163.1815
-1165.1413
-1166.0446
-1166.1383
-1166.8937
-1164.9129
-1166.6331
-1166.8363
-1166.7351
-1166.2306
-1164.7642
-1166.336
-1166.6034
-1166.4393
-1167.1039
-1165.1144
-1166.8363
-1167.0423
-1166.9479
-1166.4565
-1164.9933
-1166.5445
-1166.7047
-1166.3865
-1166.9884
-1165.0026
-1166.7351
-1166.9479
-1166.8565
-1166.3692
-1164.9104
-1166.4642
-1166.6036
-1166.1751
-1166.5602
-1164.5024
-1166.2306
-1166.4565
-1166.3692
-1165.879
-1164.409
-1165.9385
-1166.064
-1165.7286
-1165.636
-1163.1815
-1164.7642
-1164.9933
-1164.9104
-1164.409
-1162.9058
-1164.3858
-1164.7658
-1166.3851
-1167.763
-1165.1413
-1166.336
-1166.5445
-1166.4642
-1165.9385
-1164.3858
-1165.9772
-1168.7801
-1165.5149
-1167.4247
-1166.0446
-1166.6034
-1166.7047
-1166.6036
-1166.064
-1164.7658
-1168.7801
-1165.7741
-1150.4919
-1154.012
-1149.4286
-1151.5949
-1151.8951
-1151.8409
-1151.6241
-1151.1625
-1151.8159
-1150.9295
-1154.012
-1151.6721
-1150.5182
-1152.3829
-1152.5925
-1152.4751
-1152.0377
-1151.0856
-1153.2141
-1152.8493
-1149.4286
-1150.5182
-1148.6916
-1150.4293
-1150.6303
-1150.5171
-1150.0078
-1148.6551
-1150.6129
-1151.4839
-1151.5949
-1152.3829
-1150.4293
-1152.1472
-1152.3501
-1152.2477
-1151.7344
-1150.2354
-1151.804
-1152.0392
-1151.8951
-1152.5925
-1150.6303
-1152.3501
-1152.5558
-1152.4603
-1151.9603
-1150.4644
-1152.0123
-1152.1399
-1151.8409
-1152.4751
-1150.5171
-1152.2477
-1152.4603
-1152.3678
-1151.872
-1150.3804
-1151.9308
-1152.0369
-1151.6241
-1152.0377
-1150.0078
-1151.7344
-1151.9603
-1151.872
-1151.373
-1149.87
-1151.395
-1151.4856
-1151.1625
-1151.0856
-1148.6551
-1150.2354
-1150.4644
-1150.3804
-1149.87
-1148.3324
-1149.8052
-1150.1538
-1151.8159
-1153.2141
-1150.6129
-1151.804
-1152.0123
-1151.9308
-1151.395
-1149.8052
-1151.3886
-1154.2198
-1150.9295
-1152.8493
-1151.4839
-1152.0392
-1152.1399
-1152.0369
-1151.4856
-1150.1538
-1154.2198
-1151.1461
-1131.8843
-1135.3726
-1130.872
-1133.0217
-1133.3191
-1133.2639
-1133.0431
-1132.5694
-1133.2154
-1132.318
-1135.3726
-1133.1115
-1131.9873
-1133.8375
-1134.0451
-1133.9266
-1133.4828
-1132.509
-1134.6254
-1134.2359
-1130.872
-1131.9873
-1130.1976
-1131.9221
-1132.1215
-1132.0076
-1131.4925
-1130.1168
-1132.06
-1132.893
-1133.0217
-1133.8375
-1131.9221
-1133.6271
-1133.8283
-1133.7255
-1133.2066
-1131.6847
-1133.2401
-1133.4414
-1133.3191
-1134.0451
-1132.1215
-1133.8283
-1134.0325
-1133.9365
-1133.4311
-1131.9123
-1133.447
-1133.5409
-1133.2639
-1133.9266
-1132.0076
-1133.7255
-1133.9365
-1133.8436
-1133.3424
-1131.8278
-1133.3647
-1133.4366
-1133.0431
-1133.4828
-1131.4925
-1133.2066
-1133.4311
-1133.3424
-1132.838
-1131.3116
-1132.8223
-1132.8772
-1132.5694
-1132.509
-1130.1168
-1131.6847
-1131.9123
-1131.8278
-1131.3116
-1129.7495
-1131.2057
-1131.5204
-1133.2154
-1134.6254
-1132.06
-1133.2401
-1133.447
-1133.3647
-1132.8223
-1131.2057
-1132.7709
-1135.6117
-1132.318
-1134.2359
-1132.893
-1133.4414
-1133.5409
-1133.4366
-1132.8772
-1131.5204
-1135.6117
-1132.4902
-1109.4181
-1112.8546
-1108.4627
-1110.5823
-1110.8752
-1110.8193
-1110.596
-1110.1133
-1110.7479
-1109.8447
-1112.8546
-1110.6853
-1109.5965
-1111.4205
-1111.625
-1111.5062
-1111.0588
-1110.0698
-1112.161
-1111.7488
-1108.4627
-1109.5965
-1107.8535
-1109.5541
-1109.7507
-1109.6368
-1109.1192
-1107.7294
-1109.6463
-1110.4362
-1110.5823
-1111.4205
-1109.5541
-1111.2355
-1111.434
-1111.3313
-1110.8103
-1109.2752
-1110.808
-1110.9743
-1110.8752
-1111.625
-1109.7507
-1111.434
-1111.6353
-1111.5395
-1111.032
-1109.5
-1111.0121
-1111.072
-1110.8193
-1111.5062
-1109.6368
-1111.3313
-1111.5395
-1111.4467
-1110.9434
-1109.4155
-1110.9297
-1110.967
-1110.596
-1111.0588
-1109.1192
-1110.8103
-1111.032
-1110.9434
-1110.4368
-1108.8968
-1110.3842
-1110.4032
-1110.1133
-1110.0698
-1107.7294
-1109.2752
-1109.5
-1109.4155
-1108.8968
-1107.3204
-1108.7512
-1109.0301
-1110.7479
-1112.161
-1109.6463
-1110.808
-1111.0121
-1110.9297
-1110.3842
-1108.7512
-1110.2887
-1113.1209
-1109.8447
-1111.7488
-1110.4362
-1110.9743
-1111.072
-1110.967
-1110.4032
-1109.0301
-1113.1209
-1109.9714
-1083.2722
-1086.6372
-1082.3788
-1084.4552
-1084.7417
-1084.6856
-1084.4612
-1083.9726
-1084.5921
-1083.6886
-1086.6372
-1084.5717
-1083.5233
-1085.31
-1085.51
-1085.3917
-1084.9437
-1083.9459
-1085.9996
-1085.5672
-1082.3788
-1083.5233
-1081.8362
-1083.5024
-1083.695
-1083.582
-1083.0652
-1081.6702
-1083.5497
-1084.2922
-1084.4552
-1085.31
-1083.5024
-1085.1499
-1085.3444
-1085.2426
-1084.7227
-1083.1843
-1084.6857
-1084.8166
-1084.7417
-1085.51
-1083.695
-1085.3444
-1085.5417
-1085.4467
-1084.9403
-1083.4049
-1084.8859
-1084.9118
-1084.6856
-1085.3917
-1083.582
-1085.2426
-1085.4467
-1085.3547
-1084.8524
-1083.3211
-1084.8039
-1084.807
-1084.4612
-1084.9437
-1083.0652
-1084.7227
-1084.9403
-1084.8524
-1084.3468
-1082.8032
-1084.2587
-1084.2423
-1083.9726
-1083.9459
-1081.6702
-1083.1843
-1083.4049
-1083.3211
-1082.8032
-1081.2225
-1082.6198
-1082.8617
-1084.5921
-1085.9996
-1083.5497
-1084.6857
-1084.8859
-1084.8039
-1084.2587
-1082.6198
-1084.1208
-1086.9271
-1083.6886
-1085.5672
-1084.2922
-1084.8166
-1084.9118
-1084.807
-1084.2423
-1082.8617
-1086.9271
-1083.7694
-1053.6391
-1056.9134
-1052.8117
-1054.8321
-1055.1106
-1055.0546
-1054.8305
-1054.3393
-1054.9403
-1054.0421
-1056.9134
-1054.9621
-1053.9588
-1055.6972
-1055.8916
-1055.7745
-1055.3288
-1054.3287
-1056.3332
-1055.8835
-1052.8117
-1053.9588
-1052.3361
-1053.9578
-1054.1452
-1054.0338
-1053.5211
-1052.13
-1053.9616
-1054.6532
-1054.8321
-1055.6972
-1053.9578
-1055.5614
-1055.7507
-1055.6503
-1055.135
-1053.6032
-1055.065
-1055.1606
-1055.1106
-1055.8916
-1054.1452
-1055.7507
-1055.9428
-1055.8492
-1055.3471
-1053.8182
-1055.2601
-1055.2529
-1055.0546
-1055.7745
-1054.0338
-1055.6503
-1055.8492
-1055.7586
-1055.2605
-1053.7355
-1055.179
-1055.1488
-1054.8305
-1055.3288
-1053.5211
-1055.135
-1055.3471
-1055.2605
-1054.7592
-1053.2218
-1054.6376
-1054.5868
-1054.3393
-1054.3287
-1052.13
-1053.6032
-1053.8182
-1053.7355
-1053.2218
-1051.6469
-1053.0032
-1053.2076
-1054.9403
-1056.3332
-1053.9616
-1055.065
-1055.2601
-1055.179
-1054.6376
-1053.0032
-1054.4598
-1057.2235
-1054.0421
-1055.8835
-1054.6532
-1055.1606
-1055.2529
-1055.1488
-1054.5868
-1053.2076
-1057.2235
-1054.077
-1020.7235
-1023.8882
-1019.9651
-1021.9174
-1022.1861
-1022.1306
-1021.9083
-1021.4177
-1021.9972
-1021.1099
-1023.8882
-1022.0605
-1021.1062
-1022.7859
-1022.9737
-1022.8585
-1022.418
-1021.4221
-1023.3665
-1022.9029
-1019.9651
-1021.1062
-1019.5559
-1021.1234
-1021.3046
-1021.1954
-1020.69
-1019.3117
-1021.0859
-1021.7237
-1021.9174
-1022.7859
-1021.1234
-1022.6733
-1022.8564
-1022.7582
-1022.2506
-1020.7351
-1022.15
-1022.2111
-1022.1861
-1022.9737
-1021.3046
-1022.8564
-1023.0422
-1022.9506
-1022.456
-1020.9433
-1022.3387
-1022.2998
-1022.1306
-1022.8585
-1021.1954
-1022.7582
-1022.9506
-1022.862
-1022.3713
-1020.8623
-1022.2591
-1022.1972
-1021.9083
-1022.418
-1020.69
-1022.2506
-1022.456
-1022.3713
-1021.8774
-1020.356
-1021.7249
-1021.6415
-1021.4177
-1021.4221
-1019.3117
-1020.7351
-1020.9433
-1020.8623
-1020.356
-1018.797
-1020.1056
-1020.2727
-1021.9972
-1023.3665
-1021.0859
-1022.15
-1022.3387
-1022.2591
-1021.7249
-1020.1056
-1021.5103
-1024.2157
-1021.1099
-1022.9029
-1021.7237
-1022.2111
-1022.2998
-1022.1972
-1021.6415
-1020.2727
-1024.2157
-1021.0998
-984.74155
-987.77845
-984.05444
-985.92663
-986.18405
-986.12945
-985.91046
-985.4237
-985.97874
-985.10818
-987.77845
-986.08236
-985.18075
-986.79162
-986.97159
-986.85921
-986.42666
-985.44161
-987.3157
-986.84184
-984.05444
-985.18075
-983.71006
-985.21387
-985.38779
-985.28159
-984.78679
-983.43013
-985.13789
-985.71988
-985.92663
-986.79162
-985.21387
-986.70094
-986.87675
-986.78134
-986.28459
-984.79508
-986.15627
-986.18432
-986.18405
-986.97159
-985.38779
-986.87675
-987.05516
-986.96617
-986.48212
-984.99526
-986.33745
-986.26894
-986.12945
-986.85921
-985.28159
-986.78134
-986.96617
-986.88007
-986.39987
-984.91652
-986.2598
-986.16841
-985.91046
-986.42666
-984.78679
-986.28459
-986.48212
-986.39987
-985.9164
-984.4207
-985.73621
-985.62246
-985.4237
-985.44161
-983.43013
-984.79508
-984.99526
-984.91652
-984.4207
-982.88756
-984.14228
-984.27283
-985.97874
-987.3157
-985.13789
-986.15627
-986.33745
-986.2598
-985.73621
-984.14228
-985.48849
-988.12076
-985.10818
-986.84184
-985.71988
-986.18432
-986.26894
-986.16841
-985.62246
-984.27283
-988.12076
-985.05442
-945.91979
-948.81131
-945.30516
-947.08608
-947.33073
-947.27741
-947.06309
-946.5834
-947.11156
-946.26351
-948.81131
-947.25361
-946.40767
-947.94019
-948.1114
-948.00252
-947.58069
-946.6129
-948.40728
-947.92716
-945.30516
-946.40767
-945.02319
-946.45445
-946.62014
-946.51761
-946.03646
-944.71013
-946.34334
-946.86818
-947.08608
-947.94019
-946.45445
-947.86985
-948.03738
-947.94537
-947.46263
-946.00854
-947.30987
-947.30683
-947.33073
-948.1114
-946.62014
-948.03738
-948.20741
-948.1216
-947.65114
-946.19953
-947.48251
-947.38687
-947.27741
-948.00252
-946.51761
-947.94537
-948.1216
-948.0386
-947.57184
-946.12352
-947.40732
-947.28907
-947.06309
-947.58069
-946.03646
-947.46263
-947.65114
-947.57184
-947.10188
-945.64136
-946.89761
-946.75637
-946.5834
-946.6129
-944.71013
-946.00854
-946.19953
-946.12352
-945.64136
-944.14376
-945.3392
-945.4346
-947.11156
-948.40728
-946.34334
-947.30987
-947.48251
-947.40732
-946.89761
-945.3392
-946.62106
-949.16633
-946.26351
-947.92716
-946.86818
-947.30683
-947.38687
-947.28907
-946.75637
-945.4346
-949.16633
-946.16802
-904.49409
-907.22344
-903.95233
-905.63139
-905.86187
-905.81021
-905.60196
-905.13252
-905.63163
-904.81184
-907.22344
-905.8096
-905.02189
-906.46706
-906.62859
-906.52393
-906.1155
-905.17135
-906.87739
-906.39531
-903.95233
-905.02189
-903.72953
-905.07987
-905.23641
-905.13822
-904.67372
-903.38618
-904.93748
-905.40455
-905.63139
-906.46706
-905.07987
-906.4153
-906.57363
-906.48561
-906.01985
-904.61039
-905.84642
-905.81478
-905.86187
-906.62859
-905.23641
-906.57363
-906.73433
-906.65227
-906.1983
-904.7911
-906.00951
-905.88977
-905.81021
-906.52393
-905.13822
-906.48561
-906.65227
-906.57289
-906.12246
-904.71831
-905.93726
-905.79533
-905.60196
-906.1155
-904.67372
-906.01985
-906.1983
-906.12246
-905.66891
-904.2528
-905.4446
-905.2792
-905.13252
-905.17135
-903.38618
-904.61039
-904.7911
-904.71831
-904.2528
-902.80022
-903.9316
-903.99384
-905.63163
-906.87739
-904.93748
-905.84642
-906.00951
-905.93726