/*--------------------------------*- C++ -*----------------------------------*\
| =========                 |                                                 |
| \\      /  F ield         | OpenFOAM: The Open Source CFD Toolbox           |
|  \\    /   O peration     | Version:  v2106                                 |
|   \\  /    A nd           | Website:  www.openfoam.com                      |
|    \\/     M anipulation  |                                                 |
\*---------------------------------------------------------------------------*/
FoamFile
{
    version     2.0;
    format      ascii;
    arch        "LSB;label=32;scalar=64";
    class       volScalarField;
    location    "30";
    object      laplacianT;
}
// * * * * * * * * * * * * * * * * * * * * * * * * * * * * * * * * * * * * * //

dimensions      [0 -2 0 1 0 0 0];

internalField   nonuniform List<scalar> 
4000
(
118049.93
118049.86
118049.77
118049.61
118049.57
118049.57
118049.61
118049.67
118049.72
118049.72
118049.86
118049.93
118049.73
118049.59
118049.55
118049.56
118049.6
118049.67
118049.74
118049.74
118049.77
118049.73
118049.56
118049.43
118049.39
118049.4
118049.45
118049.54
118049.65
118049.66
118049.61
118049.59
118049.43
118049.3
118049.27
118049.28
118049.33
118049.43
118049.55
118049.58
118049.57
118049.55
118049.39
118049.27
118049.24
118049.25
118049.31
118049.41
118049.53
118049.57
118049.57
118049.56
118049.4
118049.28
118049.25
118049.27
118049.33
118049.43
118049.56
118049.59
118049.61
118049.6
118049.45
118049.33
118049.31
118049.33
118049.39
118049.49
118049.62
118049.66
118049.67
118049.67
118049.54
118049.43
118049.41
118049.43
118049.49
118049.59
118049.72
118049.75
118049.72
118049.74
118049.65
118049.55
118049.53
118049.56
118049.62
118049.72
118049.84
118049.87
118049.72
118049.74
118049.66
118049.58
118049.57
118049.59
118049.66
118049.75
118049.87
118049.89
-8036.1127
-8038.3522
-8036.7955
-8037.0044
-8037.0266
-8037.0293
-8037.0349
-8037.0436
-8037.055
-8037.0709
-8038.3522
-8038.4568
-8037.5958
-8037.783
-8037.8007
-8037.803
-8037.8098
-8037.8299
-8037.9095
-8037.6593
-8036.7955
-8037.5958
-8036.6697
-8036.8468
-8036.8636
-8036.8657
-8036.8705
-8036.8885
-8037.0383
-8037.1547
-8037.0044
-8037.783
-8036.8468
-8037.0229
-8037.04
-8037.0422
-8037.0456
-8037.0529
-8037.1663
-8037.2167
-8037.0266
-8037.8007
-8036.8636
-8037.04
-8037.0574
-8037.0601
-8037.064
-8037.0713
-8037.1827
-8037.2261
-8037.0293
-8037.803
-8036.8657
-8037.0422
-8037.0601
-8037.0632
-8037.0675
-8037.0752
-8037.187
-8037.2301
-8037.0349
-8037.8098
-8036.8705
-8037.0456
-8037.064
-8037.0675
-8037.072
-8037.0799
-8037.1919
-8037.2353
-8037.0436
-8037.8299
-8036.8885
-8037.0529
-8037.0713
-8037.0752
-8037.0799
-8037.0879
-8037.1999
-8037.2445
-8037.055
-8037.9095
-8037.0383
-8037.1663
-8037.1827
-8037.187
-8037.1919
-8037.1999
-8037.3124
-8037.3611
-8037.0709
-8037.6593
-8037.1547
-8037.2167
-8037.2261
-8037.2301
-8037.2353
-8037.2445
-8037.3611
-8037.4077
-7248.5602
-7251.097
-7249.0734
-7249.3947
-7249.4328
-7249.4372
-7249.4433
-7249.4589
-7249.5182
-7249.1443
-7251.097
-7250.9473
-7249.8463
-7250.1342
-7250.1651
-7250.1677
-7250.1726
-7250.2134
-7250.5627
-7249.9492
-7249.0734
-7249.8463
-7248.6539
-7248.9272
-7248.9565
-7248.9576
-7248.9548
-7248.9708
-7249.403
-7249.3096
-7249.3947
-7250.1342
-7248.9272
-7249.1988
-7249.2281
-7249.2292
-7249.2235
-7249.2195
-7249.5908
-7249.3974
-7249.4328
-7250.1651
-7248.9565
-7249.2281
-7249.2578
-7249.2594
-7249.2542
-7249.2497
-7249.617
-7249.4115
-7249.4372
-7250.1677
-7248.9576
-7249.2292
-7249.2594
-7249.2614
-7249.2566
-7249.2526
-7249.6202
-7249.4141
-7249.4433
-7250.1726
-7248.9548
-7249.2235
-7249.2542
-7249.2566
-7249.2521
-7249.2483
-7249.6163
-7249.4113
-7249.4589
-7250.2134
-7248.9708
-7249.2195
-7249.2497
-7249.2526
-7249.2483
-7249.2448
-7249.6136
-7249.4154
-7249.5182
-7250.5627
-7249.403
-7249.5908
-7249.617
-7249.6202
-7249.6163
-7249.6136
-7249.987
-7249.8188
-7249.1443
-7249.9492
-7249.3096
-7249.3974
-7249.4115
-7249.4141
-7249.4113
-7249.4154
-7249.8188
-7249.3391
-6611.2922
-6614.1483
-6611.7018
-6612.1303
-6612.1839
-6612.1893
-6612.1945
-6612.221
-6612.43
-6611.9031
-6614.1483
-6613.8296
-6612.518
-6612.9019
-6612.9455
-6612.9469
-6612.9437
-6612.986
-6613.663
-6612.8556
-6611.7018
-6612.518
-6611.0888
-6611.4536
-6611.4949
-6611.494
-6611.4778
-6611.4733
-6612.2498
-6612.1
-6612.1303
-6612.9019
-6611.4536
-6611.8158
-6611.857
-6611.8561
-6611.8356
-6611.8017
-6612.4941
-6612.2129
-6612.1839
-6612.9455
-6611.4949
-6611.857
-6611.8985
-6611.8981
-6611.8783
-6611.8433
-6612.5295
-6612.2316
-6612.1893
-6612.9469
-6611.494
-6611.8561
-6611.8981
-6611.898
-6611.8786
-6611.8441
-6612.5307
-6612.2318
-6612.1945
-6612.9437
-6611.4778
-6611.8356
-6611.8783
-6611.8786
-6611.8595
-6611.8252
-6612.5123
-6612.2159
-6612.221
-6612.986
-6611.4733
-6611.8017
-6611.8433
-6611.8441
-6611.8252
-6611.7915
-6612.4811
-6612.2035
-6612.43
-6613.663
-6612.2498
-6612.4941
-6612.5295
-6612.5307
-6612.5123
-6612.4811
-6613.1873
-6613.0247
-6611.9031
-6612.8556
-6612.1
-6612.2129
-6612.2316
-6612.2318
-6612.2159
-6612.2035
-6613.0247
-6611.9755
-6084.4817
-6087.5754
-6084.7572
-6085.2923
-6085.361
-6085.3667
-6085.3673
-6085.3907
-6085.7247
-6085.103
-6087.5754
-6087.0705
-6085.587
-6086.0659
-6086.1218
-6086.1211
-6086.1053
-6086.1307
-6087.0967
-6086.1736
-6084.7572
-6085.587
-6083.9591
-6084.4143
-6084.4672
-6084.4635
-6084.4296
-6084.3855
-6085.4641
-6085.3178
-6085.2923
-6086.0659
-6084.4143
-6084.8662
-6084.9189
-6084.915
-6084.8756
-6084.7926
-6085.7642
-6085.4556
-6085.361
-6086.1218
-6084.4672
-6084.9189
-6084.9718
-6084.9685
-6084.9299
-6084.8452
-6085.8087
-6085.4787
-6085.3667
-6086.1211
-6084.4635
-6084.915
-6084.9685
-6084.9656
-6084.9274
-6084.8432
-6085.807
-6085.4755
-6085.3673
-6086.1053
-6084.4296
-6084.8756
-6084.9299
-6084.9274
-6084.8894
-6084.8054
-6085.7696
-6085.4418
-6085.3907
-6086.1307
-6084.3855
-6084.7926
-6084.8452
-6084.8432
-6084.8054
-6084.7219
-6085.69
-6085.3951
-6085.7247
-6087.0967
-6085.4641
-6085.7642
-6085.8087
-6085.807
-6085.7696
-6085.69
-6086.6874
-6086.6281
-6085.103
-6086.1736
-6085.3178
-6085.4556
-6085.4787
-6085.4755
-6085.4418
-6085.3951
-6086.6281
-6085.1026
-5640.5235
-5643.7833
-5640.6474
-5641.288
-5641.3714
-5641.3768
-5641.3712
-5641.3854
-5641.8255
-5641.1418
-5643.7833
-5643.0849
-5641.4689
-5642.0413
-5642.109
-5642.1055
-5642.0749
-5642.0738
-5643.2925
-5642.3099
-5640.6474
-5641.4689
-5639.6813
-5640.2254
-5640.2894
-5640.2822
-5640.2284
-5640.1348
-5641.4736
-5641.3693
-5641.288
-5642.0413
-5640.2254
-5640.7653
-5640.829
-5640.8217
-5640.7612
-5640.6193
-5641.8289
-5641.5315
-5641.3714
-5642.109
-5640.2894
-5640.829
-5640.893
-5640.8863
-5640.8267
-5640.6826
-5641.8822
-5641.5587
-5641.3768
-5642.1055
-5640.2822
-5640.8217
-5640.8863
-5640.88
-5640.8209
-5640.6774
-5641.8771
-5641.5517
-5641.3712
-5642.0749
-5640.2284
-5640.7612
-5640.8267
-5640.8209
-5640.762
-5640.6185
-5641.8185
-5641.4976
-5641.3854
-5642.0738
-5640.1348
-5640.6193
-5640.6826
-5640.6774
-5640.6185
-5640.4752
-5641.6796
-5641.4061
-5641.8255
-5643.2925
-5641.4736
-5641.8289
-5641.8822
-5641.8771
-5641.8185
-5641.6796
-5642.9254
-5643.0188
-5641.1418
-5642.3099
-5641.3693
-5641.5315
-5641.5587
-5641.5517
-5641.4976
-5641.4061
-5643.0188
-5641.1069
-5259.9075
-5263.2802
-5259.8781
-5260.6216
-5260.7191
-5260.7238
-5260.711
-5260.7122
-5261.2421
-5260.5192
-5263.2802
-5262.3948
-5260.6819
-5261.3451
-5261.4239
-5261.4172
-5261.37
-5261.3357
-5262.7721
-5261.7686
-5259.8781
-5260.6819
-5258.7702
-5259.4004
-5259.475
-5259.464
-5259.3887
-5259.239
-5260.7981
-5260.7577
-5260.6216
-5261.3451
-5259.4004
-5260.0257
-5260.0999
-5260.0888
-5260.0058
-5259.7986
-5261.2071
-5260.9436
-5260.7191
-5261.4239
-5259.475
-5260.0999
-5260.1744
-5260.164
-5260.0821
-5259.8722
-5261.2689
-5260.9747
-5260.7238
-5261.4172
-5259.464
-5260.0888
-5260.164
-5260.1539
-5260.0726
-5259.8634
-5261.2601
-5260.9634
-5260.711
-5261.37
-5259.3887
-5260.0058
-5260.0821
-5260.0726
-5259.9914
-5259.782
-5261.1786
-5260.8874
-5260.7122
-5261.3357
-5259.239
-5259.7986
-5259.8722
-5259.8634
-5259.782
-5259.5724
-5260.9737
-5260.7439
-5261.2421
-5262.7721
-5260.7981
-5261.2071
-5261.2689
-5261.2601
-5261.1786
-5260.9737
-5262.4273
-5262.6987
-5260.5192
-5261.7686
-5260.7577
-5260.9436
-5260.9747
-5260.9634
-5260.8874
-5260.7439
-5262.6987
-5260.4752
-4928.5094
-4931.9552
-4928.3352
-4929.1775
-4929.2884
-4929.292
-4929.2711
-4929.2562
-4929.8606
-4929.1138
-4931.9552
-4930.8979
-4929.1194
-4929.8694
-4929.9587
-4929.9482
-4929.8833
-4929.8106
-4931.4312
-4930.4318
-4928.3352
-4929.1194
-4927.1155
-4927.828
-4927.9125
-4927.8972
-4927.7996
-4927.589
-4929.3307
-4929.3639
-4929.1775
-4929.8694
-4927.828
-4928.5348
-4928.6189
-4928.6036
-4928.4973
-4928.2205
-4929.7912
-4929.5726
-4929.2884
-4929.9587
-4927.9125
-4928.6189
-4928.7032
-4928.6887
-4928.5839
-4928.304
-4929.8611
-4929.6073
-4929.292
-4929.9482
-4927.8972
-4928.6036
-4928.6887
-4928.6747
-4928.5705
-4928.2912
-4929.8484
-4929.5914
-4929.2711
-4929.8833
-4927.7996
-4928.4973
-4928.5839
-4928.5705
-4928.4662
-4928.1867
-4929.7432
-4929.4923
-4929.2562
-4929.8106
-4927.589
-4928.2205
-4928.304
-4928.2912
-4928.1867
-4927.9064
-4929.4673
-4929.2917
-4929.8606
-4931.4312
-4929.3307
-4929.7912
-4929.8611
-4929.8484
-4929.7432
-4929.4673
-4931.0907
-4931.5503
-4929.1138
-4930.4318
-4929.3639
-4929.5726
-4929.6073
-4929.5914
-4929.4923
-4929.2917
-4931.5503
-4929.0759
-4635.8824
-4639.3713
-4635.578
-4636.5138
-4636.6373
-4636.6394
-4636.6098
-4636.5764
-4637.2411
-4636.4802
-4639.3713
-4638.1628
-4636.3458
-4637.1775
-4637.2766
-4637.262
-4637.1787
-4637.0636
-4638.8368
-4637.8562
-4635.578
-4636.3458
-4634.278
-4635.0678
-4635.1615
-4635.1418
-4635.0215
-4634.7468
-4636.6359
-4636.7437
-4636.5138
-4637.1775
-4635.0678
-4635.8512
-4635.9444
-4635.9248
-4635.795
-4635.4462
-4637.145
-4636.9738
-4636.6373
-4637.2766
-4635.1615
-4635.9444
-4636.0379
-4636.0193
-4635.8911
-4635.5389
-4637.2226
-4637.0119
-4636.6394
-4637.262
-4635.1418
-4635.9248
-4636.0193
-4636.0011
-4635.8737
-4635.5221
-4637.2058
-4636.9913
-4636.6098
-4637.1787
-4635.0215
-4635.795
-4635.8911
-4635.8737
-4635.7462
-4635.394
-4637.0766
-4636.8685
-4636.5764
-4637.0636
-4634.7468
-4635.4462
-4635.5389
-4635.5221
-4635.394
-4635.0404
-4636.7268
-4636.6072
-4637.2411
-4638.8368
-4636.6359
-4637.145
-4637.2226
-4637.2058
-4637.0766
-4636.7268
-4638.4845
-4639.1315
-4636.4802
-4637.8562
-4636.7437
-4636.9738
-4637.0119
-4636.9913
-4636.8685
-4636.6072
-4639.1315
-4636.4561
-4374.1559
-4377.665
-4373.7397
-4374.7625
-4374.8976
-4374.898
-4374.8595
-4374.8057
-4375.5174
-4374.7482
-4377.665
-4376.3293
-4374.4974
-4375.4047
-4375.5125
-4375.4938
-4375.3918
-4375.2315
-4377.1275
-4376.1736
-4373.7397
-4374.4974
-4372.3904
-4373.2517
-4373.3538
-4373.3295
-4373.1866
-4372.8463
-4374.8502
-4375.0276
-4374.7625
-4375.4047
-4373.2517
-4374.1061
-4374.2076
-4374.1836
-4374.0305
-4373.6087
-4375.4046
-4375.2775
-4374.8976
-4375.5125
-4373.3538
-4374.2076
-4374.3094
-4374.2865
-4374.1354
-4373.7098
-4375.4893
-4375.3187
-4374.898
-4375.4938
-4373.3295
-4374.1836
-4374.2865
-4374.2642
-4374.1139
-4373.689
-4375.4684
-4375.2934
-4374.8595
-4375.3918
-4373.1866
-4374.0305
-4374.1354
-4374.1139
-4373.9634
-4373.5376
-4375.3153
-4375.1468
-4374.8057
-4375.2315
-4372.8463
-4373.6087
-4373.7098
-4373.689
-4373.5376
-4373.1097
-4374.8903
-4374.8228
-4375.5174
-4377.1275
-4374.8502
-4375.4046
-4375.4893
-4375.4684
-4375.3153
-4374.8903
-4376.7498
-4377.5758
-4374.7482
-4376.1736
-4375.0276
-4375.2775
-4375.3187
-4375.2934
-4375.1468
-4374.8228
-4377.5758
-4374.74
-4137.3037
-4140.8159
-4136.7965
-4137.8989
-4138.0444
-4138.043
-4137.9953
-4137.92
-4138.6663
-4137.8922
-4140.8159
-4139.3784
-4137.5515
-4138.5278
-4138.6434
-4138.6204
-4138.4997
-4138.2927
-4140.2839
-4139.3592
-4136.7965
-4137.5515
-4135.4271
-4136.3535
-4136.463
-4136.4343
-4136.2691
-4135.863
-4137.952
-4138.1899
-4137.8989
-4138.5278
-4136.3535
-4137.2724
-4137.3813
-4137.3531
-4137.1772
-4136.6828
-4138.5477
-4138.458
-4138.0444
-4138.6434
-4136.463
-4137.3813
-4137.4905
-4137.4635
-4137.29
-4136.7917
-4138.639
-4138.502
-4138.043
-4138.6204
-4136.4343
-4137.3531
-4137.4635
-4137.4371
-4137.2645
-4136.7669
-4138.6141
-4138.4719
-4137.9953
-4138.4997
-4136.2691
-4137.1772
-4137.29
-4137.2645
-4137.0916
-4136.5928
-4138.4376
-4138.302
-4137.92
-4138.2927
-4135.863
-4136.6828
-4136.7917
-4136.7669
-4136.5928
-4136.091
-4137.9374
-4137.9145
-4138.6663
-4140.2839
-4137.952
-4138.5477
-4138.639
-4138.6141
-4138.4376
-4137.9374
-4139.8694
-4140.8605
-4137.8922
-4139.3592
-4138.1899
-4138.458
-4138.502
-4138.4719
-4138.302
-4137.9145
-4140.8605
-4137.8982
-3920.647
-3924.1486
-3920.07
-3921.2439
-3921.3987
-3921.3953
-3921.3384
-3921.2408
-3922.0107
-3921.2331
-3924.1486
-3922.6352
-3920.8303
-3921.8682
-3921.9906
-3921.9633
-3921.8243
-3921.57
-3923.6311
-3922.7348
-3920.07
-3920.8303
-3918.7074
-3919.692
-3919.8079
-3919.7748
-3919.5883
-3919.1174
-3921.2644
-3921.5516
-3921.2439
-3921.8682
-3919.692
-3920.6683
-3920.7837
-3920.7513
-3920.5538
-3919.9885
-3921.8972
-3921.8358
-3921.3987
-3921.9906
-3919.8079
-3920.7837
-3920.8995
-3920.8685
-3920.6736
-3920.1043
-3921.9944
-3921.8822
-3921.3953
-3921.9633
-3919.7748
-3920.7513
-3920.8685
-3920.8381
-3920.6441
-3920.0757
-3921.9656
-3921.8476
-3921.3384
-3921.8243
-3919.5883
-3920.5538
-3920.6736
-3920.6441
-3920.4498
-3919.8798
-3921.7665
-3921.655
-3921.2408
-3921.57
-3919.1174
-3919.9885
-3920.1043
-3920.0757
-3919.8798
-3919.3058
-3921.1928
-3921.2044
-3922.0107
-3923.6311
-3921.2644
-3921.8972
-3921.9944
-3921.9656
-3921.7665
-3921.1928
-3923.1705
-3924.3095
-3921.2331
-3922.7348
-3921.5516
-3921.8358
-3921.8822
-3921.8476
-3921.655
-3921.2044
-3924.3095
-3921.249
-3720.5075
-3723.9877
-3719.8817
-3721.1183
-3721.2811
-3721.2757
-3721.2099
-3721.0898
-3721.8733
-3721.0925
-3723.9877
-3722.4238
-3720.655
-3721.7467
-3721.8749
-3721.8434
-3721.6868
-3721.3855
-3723.4934
-3722.6223
-3719.8817
-3720.655
-3718.55
-3719.5852
-3719.7067
-3719.6694
-3719.4626
-3718.929
-3721.1099
-3721.4337
-3721.1183
-3721.7467
-3719.5852
-3720.6118
-3720.7327
-3720.6964
-3720.4783
-3719.8452
-3721.7751
-3721.732
-3721.2811
-3721.8749
-3719.7067
-3720.7327
-3720.8541
-3720.8193
-3720.6042
-3719.9669
-3721.8774
-3721.7804
-3721.2757
-3721.8434
-3719.6694
-3720.6964
-3720.8193
-3720.7851
-3720.571
-3719.9347
-3721.8449
-3721.7415
-3721.2099
-3721.6868
-3719.4626
-3720.4783
-3720.6042
-3720.571
-3720.3565
-3719.7183
-3721.6246
-3721.5273
-3721.0898
-3721.3855
-3718.929
-3719.8452
-3719.9669
-3719.9347
-3719.7183
-3719.075
-3720.98
-3721.0152
-3721.8733
-3723.4934
-3721.1099
-3721.7751
-3721.8774
-3721.8449
-3721.6246
-3720.98
-3722.9798
-3724.2472
-3721.0925
-3722.6223
-3721.4337
-3721.732
-3721.7804
-3721.7415
-3721.5273
-3721.0152
-3724.2472
-3721.1125
-3533.9627
-3537.4126
-3533.3082
-3534.5984
-3534.7679
-3534.7605
-3534.686
-3534.5437
-3535.3317
-3534.5475
-3537.4126
-3535.8222
-3534.1014
-3535.2386
-3535.3716
-3535.3361
-3535.1628
-3534.8157
-3536.9493
-3536.0992
-3533.3082
-3534.1014
-3532.0284
-3533.1065
-3533.2326
-3533.1914
-3532.9657
-3532.3724
-3534.5654
-3534.9128
-3534.5984
-3535.2386
-3533.1065
-3534.1755
-3534.301
-3534.261
-3534.0239
-3533.3267
-3535.2581
-3535.223
-3534.7679
-3535.3716
-3533.2326
-3534.301
-3534.427
-3534.3886
-3534.1549
-3533.4536
-3535.3649
-3535.2731
-3534.7605
-3535.3361
-3533.1914
-3534.261
-3534.3886
-3534.351
-3534.1183
-3533.4179
-3535.329
-3535.2301
-3534.686
-3535.1628
-3532.9657
-3534.0239
-3534.1549
-3534.1183
-3533.8851
-3533.1825
-3535.0888
-3534.9957
-3534.5437
-3534.8157
-3532.3724
-3533.3267
-3533.4536
-3533.4179
-3533.1825
-3532.4737
-3534.3769
-3534.4247
-3535.3317
-3536.9493
-3534.5654
-3535.2581
-3535.3649
-3535.329
-3535.0888
-3534.3769
-3536.3779
-3537.7532
-3534.5475
-3536.0992
-3534.9128
-3535.223
-3535.2731
-3535.2301
-3534.9957
-3534.4247
-3537.7532
-3534.5649
-3358.6694
-3362.0808
-3358.0047
-3359.3389
-3359.5138
-3359.5043
-3359.4217
-3359.2578
-3360.0425
-3359.2543
-3362.0808
-3360.4865
-3358.8232
-3359.9975
-3360.1342
-3360.0949
-3359.9061
-3359.5152
-3361.6555
-3360.8216
-3358.0047
-3358.8232
-3356.7945
-3357.9075
-3358.0371
-3357.9923
-3357.7494
-3357.1003
-3359.2862
-3359.6446
-3359.3389
-3359.9975
-3357.9075
-3359.011
-3359.1401
-3359.0967
-3358.8423
-3358.0857
-3360.0013
-3359.9643
-3359.5138
-3360.1342
-3358.0371
-3359.1401
-3359.2698
-3359.2281
-3358.9774
-3358.2167
-3360.1117
-3360.0158
-3359.5043
-3360.0949
-3357.9923
-3359.0967
-3359.2281
-3359.1873
-3358.9377
-3358.178
-3360.0727
-3359.9691
-3359.4217
-3359.9061
-3357.7494
-3358.8423
-3358.9774
-3358.9377
-3358.6876
-3357.9253
-3359.8144
-3359.716
-3359.2578
-3359.5152
-3357.1003
-3358.0857
-3358.2167
-3358.178
-3357.9253
-3357.1558
-3359.0399
-3359.0893
-3360.0425
-3361.6555
-3359.2862
-3360.0013
-3360.1117
-3360.0727
-3359.8144
-3359.0399
-3361.0238
-3362.4861
-3359.2543
-3360.8216
-3359.6446
-3359.9643
-3360.0158
-3359.9691
-3359.716
-3359.0893
-3362.4861
-3359.2623
-3192.734
-3196.0994
-3192.0758
-3193.4442
-3193.6232
-3193.6118
-3193.5216
-3193.337
-3194.1115
-3193.319
-3196.0994
-3194.5218
-3192.9238
-3194.1265
-3194.2659
-3194.2232
-3194.0202
-3193.588
-3195.7181
-3194.8956
-3192.0758
-3192.9238
-3190.9498
-3192.0895
-3192.2217
-3192.1735
-3191.9152
-3191.215
-3193.3767
-3193.7343
-3193.4442
-3194.1265
-3192.0895
-3193.2193
-3193.3511
-3193.3047
-3193.035
-3192.2243
-3194.1092
-3194.0611
-3193.6232
-3194.2659
-3192.2217
-3193.3511
-3193.4835
-3193.4389
-3193.1732
-3192.3585
-3194.2224
-3194.1136
-3193.6118
-3194.2232
-3192.1735
-3193.3047
-3193.4389
-3193.3952
-3193.1307
-3192.317
-3194.1805
-3194.0636
-3193.5216
-3194.0202
-3191.9152
-3193.035
-3193.1732
-3193.1307
-3192.8654
-3192.0489
-3193.9061
-3193.7937
-3193.337
-3193.588
-3191.215
-3192.2243
-3192.3585
-3192.317
-3192.0489
-3191.2241
-3193.0743
-3193.1155
-3194.1115
-3195.7181
-3193.3767
-3194.1092
-3194.2224
-3194.1805
-3193.9061
-3193.0743
-3195.0251
-3196.554
-3193.319
-3194.8956
-3193.7343
-3194.0611
-3194.1136
-3194.0636
-3193.7937
-3193.1155
-3196.554
-3193.311
-3034.6173
-3037.9293
-3033.9802
-3035.3729
-3035.5547
-3035.5414
-3035.4444
-3035.2404
-3035.9986
-3035.2018
-3037.9293
-3036.3869
-3034.8602
-3036.0827
-3036.2238
-3036.1779
-3035.9622
-3035.492
-3037.5966
-3036.7812
-3033.9802
-3034.8602
-3032.9497
-3034.1079
-3034.2418
-3034.1907
-3033.9189
-3033.1726
-3035.2955
-3035.6414
-3035.3729
-3036.0827
-3034.1079
-3035.2561
-3035.3895
-3035.3404
-3035.0574
-3034.1988
-3036.0399
-3035.9731
-3035.5547
-3036.2238
-3034.2418
-3035.3895
-3035.5236
-3035.4765
-3035.1977
-3034.3352
-3036.1552
-3036.0262
-3035.5414
-3036.1779
-3034.1907
-3035.3404
-3035.4765
-3035.4303
-3035.1528
-3034.2912
-3036.1108
-3035.9732
-3035.4444
-3035.9622
-3033.9189
-3035.0574
-3035.1977
-3035.1528
-3034.8745
-3034.0097
-3035.8222
-3035.6884
-3035.2404
-3035.492
-3033.1726
-3034.1988
-3034.3352
-3034.2912
-3034.0097
-3033.1357
-3034.9393
-3034.9636
-3035.9986
-3037.5966
-3035.2955
-3036.0399
-3036.1552
-3036.1108
-3035.8222
-3034.9393
-3036.8433
-3038.4192
-3035.2018
-3036.7812
-3035.6414
-3035.9731
-3036.0262
-3035.9732
-3035.6884
-3034.9636
-3038.4192
-3035.1716
-2883.0623
-2886.3134
-2882.4588
-2883.8659
-2884.0491
-2884.0341
-2883.9309
-2883.7091
-2884.446
-2883.6451
-2886.3134
-2884.8224
-2883.3717
-2884.6053
-2884.747
-2884.6983
-2884.4717
-2883.967
-2886.0327
-2885.2208
-2882.4588
-2883.3717
-2881.5322
-2882.7007
-2882.8353
-2882.7818
-2882.4985
-2881.7119
-2883.783
-2884.1079
-2883.8659
-2884.6053
-2882.7007
-2883.859
-2883.9933
-2883.9419
-2883.6477
-2882.7475
-2884.5341
-2884.4419
-2884.0491
-2884.747
-2882.8353
-2883.9933
-2884.1281
-2884.0789
-2883.7892
-2882.8852
-2884.6506
-2884.4953
-2884.0341
-2884.6983
-2882.7818
-2883.9419
-2884.0789
-2884.0306
-2883.7422
-2882.8392
-2884.6042
-2884.4398
-2883.9309
-2884.4717
-2882.4985
-2883.6477
-2883.7892
-2883.7422
-2883.4529
-2882.5464
-2884.3036
-2884.1422
-2883.7091
-2883.967
-2881.7119
-2882.7475
-2882.8852
-2882.8392
-2882.5464
-2881.6298
-2883.376
-2883.376
-2884.446
-2886.0327
-2883.783
-2884.5341
-2884.6506
-2884.6042
-2884.3036
-2883.376
-2885.2216
-2886.8259
-2883.6451
-2885.2208
-2884.1079
-2884.4419
-2884.4953
-2884.4398
-2884.1422
-2883.376
-2886.8259
-2883.5875
-2737.0399
-2740.2224
-2736.4804
-2737.8919
-2738.0752
-2738.0586
-2737.9501
-2737.7122
-2738.4235
-2737.6193
-2740.2224
-2738.7968
-2737.4254
-2738.6615
-2738.8029
-2738.7518
-2738.5159
-2737.9808
-2739.9959
-2739.1845
-2736.4804
-2737.4254
-2735.6632
-2736.8339
-2736.9682
-2736.9127
-2736.6201
-2735.7993
-2737.8075
-2738.1034
-2737.8919
-2738.6615
-2736.8339
-2737.9943
-2738.1283
-2738.0752
-2737.7721
-2736.8371
-2738.56
-2738.4374
-2738.0752
-2738.8029
-2736.9682
-2738.1283
-2738.2631
-2738.2121
-2737.9137
-2736.9751
-2738.6769
-2738.4906
-2738.0586
-2738.7518
-2736.9127
-2738.0752
-2738.2121
-2738.1621
-2737.865
-2736.9275
-2738.6288
-2738.433
-2737.9501
-2738.5159
-2736.6201
-2737.7721
-2737.9137
-2737.865
-2737.567
-2736.6257
-2738.3185
-2738.1249
-2737.7122
-2737.9808
-2735.7993
-2736.8371
-2736.9751
-2736.9275
-2736.6257
-2735.6733
-2737.3532
-2737.3232
-2738.4235
-2739.9959
-2737.8075
-2738.56
-2738.6769
-2738.6288
-2738.3185
-2737.3532
-2739.1309
-2740.7463
-2737.6193
-2739.1845
-2738.1034
-2738.4374
-2738.4906
-2738.433
-2738.1249
-2737.3232
-2740.7463
-2737.5301
-2595.707
-2598.8126
-2595.1997
-2596.6058
-2596.788
-2596.77
-2596.657
-2596.405
-2597.087
-2596.281
-2598.8126
-2597.4643
-2596.1746
-2597.4047
-2597.5448
-2597.4918
-2597.2485
-2596.6873
-2598.6414
-2597.8289
-2595.1997
-2596.1746
-2594.4948
-2595.6596
-2595.7929
-2595.7358
-2595.4362
-2594.5874
-2596.5235
-2596.7838
-2596.6058
-2597.4047
-2595.6596
-2596.8143
-2596.9473
-2596.8927
-2596.583
-2595.6204
-2597.2721
-2597.1155
-2596.788
-2597.5448
-2595.7929
-2596.9473
-2597.0809
-2597.0287
-2596.7237
-2595.7578
-2597.3886
-2597.1682
-2596.77
-2597.4918
-2595.7358
-2596.8927
-2597.0287
-2596.9774
-2596.6739
-2595.7089
-2597.3392
-2597.109
-2596.657
-2597.2485
-2595.4362
-2596.583
-2596.7237
-2596.6739
-2596.3693
-2595.4003
-2597.0215
-2596.7926
-2596.405
-2596.6873
-2594.5874
-2595.6204
-2595.7578
-2595.7089
-2595.4003
-2594.4194
-2596.0259
-2595.9614
-2597.087
-2598.6414
-2596.5235
-2597.2721
-2597.3886
-2597.3392
-2597.0215
-2596.0259
-2597.7277
-2599.3384
-2596.281
-2597.8289
-2596.7838
-2597.1155
-2597.1682
-2597.109
-2596.7926
-2595.9614
-2599.3384
-2596.1567
-2458.3742
-2461.3945
-2457.9253
-2459.3164
-2459.4963
-2459.477
-2459.3605
-2459.0965
-2459.7463
-2458.9403
-2461.3945
-2460.1332
-2458.9264
-2460.1423
-2460.2802
-2460.2257
-2459.9768
-2459.3942
-2461.2784
-2460.4639
-2457.9253
-2458.9264
-2457.3333
-2458.4845
-2458.6158
-2458.5575
-2458.2531
-2457.3831
-2459.2391
-2459.4589
-2459.3164
-2460.1423
-2458.4845
-2459.6256
-2459.7566
-2459.7012
-2459.3871
-2458.4043
-2459.9787
-2459.7859
-2459.4963
-2460.2802
-2458.6158
-2459.7566
-2459.8884
-2459.8353
-2459.5261
-2458.5401
-2460.094
-2459.8377
-2459.477
-2460.2257
-2458.5575
-2459.7012
-2459.8353
-2459.7831
-2459.4754
-2458.4904
-2460.0437
-2459.7774
-2459.3605
-2459.9768
-2458.2531
-2459.3871
-2459.5261
-2459.4754
-2459.1666
-2458.1773
-2459.7211
-2459.4551
-2459.0965
-2459.3942
-2457.3831
-2458.4043
-2458.5401
-2458.4904
-2458.1773
-2457.1754
-2458.7027
-2458.6009
-2459.7463
-2461.2784
-2459.2391
-2459.9787
-2460.094
-2460.0437
-2459.7211
-2458.7027
-2460.3222
-2461.914
-2458.9403
-2460.4639
-2459.4589
-2459.7859
-2459.8377
-2459.7774
-2459.4551
-2458.6009
-2461.914
-2458.7788
-2324.4808
-2327.4068
-2324.0945
-2325.4613
-2325.6377
-2325.6173
-2325.4981
-2325.2244
-2325.8398
-2325.0363
-2327.4068
-2326.2402
-2325.117
-2326.3105
-2326.4454
-2326.3898
-2326.1373
-2325.538
-2327.3447
-2326.5284
-2324.0945
-2325.117
-2323.6138
-2324.7438
-2324.8722
-2324.8134
-2324.5065
-2323.6219
-2325.3914
-2325.5672
-2325.4613
-2326.3105
-2324.7438
-2325.8638
-2325.9921
-2325.9361
-2325.62
-2324.6244
-2326.117
-2325.8871
-2325.6377
-2326.4454
-2324.8722
-2325.9921
-2326.1211
-2326.0675
-2325.7565
-2324.7578
-2326.2303
-2325.9378
-2325.6173
-2326.3898
-2324.8134
-2325.9361
-2326.0675
-2326.015
-2325.7053
-2324.7077
-2326.1795
-2325.8767
-2325.4981
-2326.1373
-2324.5065
-2325.62
-2325.7565
-2325.7053
-2325.3946
-2324.3925
-2325.8542
-2325.5509
-2325.2244
-2325.538
-2323.6219
-2324.6244
-2324.7578
-2324.7077
-2324.3925
-2323.3771
-2324.8208
-2324.6804
-2325.8398
-2327.3447
-2325.3914
-2326.117
-2326.2303
-2326.1795
-2325.8542
-2324.8208
-2326.3531
-2327.9133
-2325.0363
-2326.5284
-2325.5672
-2325.8871
-2325.9378
-2325.8767
-2325.5509
-2324.6804
-2327.9133
-2324.8363
-2193.5748
-2196.3972
-2193.2536
-2194.5868
-2194.7585
-2194.7374
-2194.6165
-2194.3353
-2194.9145
-2194.1164
-2196.3972
-2195.3311
-2194.2911
-2195.4545
-2195.5855
-2195.5294
-2195.2752
-2194.6642
-2196.3869
-2195.57
-2193.2536
-2194.2911
-2192.8806
-2193.982
-2194.1068
-2194.0478
-2193.7406
-2192.8484
-2194.5261
-2194.6558
-2194.5868
-2195.4545
-2193.982
-2195.0736
-2195.1984
-2195.1424
-2194.8266
-2193.8257
-2195.2328
-2194.9665
-2194.7585
-2195.5855
-2194.1068
-2195.1984
-2195.3239
-2195.2703
-2194.9596
-2193.9558
-2195.3434
-2195.0156
-2194.7374
-2195.5294
-2194.0478
-2195.1424
-2195.2703
-2195.2177
-2194.9084
-2193.9056
-2195.2926
-2194.9544
-2194.6165
-2195.2752
-2193.7406
-2194.8266
-2194.9596
-2194.9084
-2194.598
-2193.5906
-2194.967
-2194.6275
-2194.3353
-2194.6642
-2192.8484
-2193.8257
-2193.9558
-2193.9056
-2193.5906
-2192.5694
-2193.9263
-2193.7473
-2194.9145
-2196.3869
-2194.5261
-2195.2328
-2195.3434
-2195.2926
-2194.967
-2193.9263
-2195.3679
-2196.8852
-2194.1164
-2195.57
-2194.6558
-2194.9665
-2195.0156
-2194.9544
-2194.6275
-2193.7473
-2196.8852
-2193.878
-2065.297
-2068.0061
-2065.0416
-2066.3326
-2066.4986
-2066.4768
-2066.3552
-2066.069
-2066.6107
-2065.8215
-2068.0061
-2067.0445
-2066.0871
-2067.213
-2067.3393
-2067.2831
-2067.0291
-2066.4114
-2068.0447
-2067.2294
-2065.0416
-2066.0871
-2064.7711
-2065.8369
-2065.9574
-2065.8987
-2065.5936
-2064.7005
-2066.2823
-2066.3651
-2066.3326
-2067.213
-2065.8369
-2066.8933
-2067.0137
-2066.9581
-2066.6449
-2065.6462
-2066.9655
-2066.6645
-2066.4986
-2067.3393
-2065.9574
-2067.0137
-2067.1349
-2067.0817
-2066.7736
-2065.7722
-2067.0726
-2066.7117
-2066.4768
-2067.2831
-2065.8987
-2066.9581
-2067.0817
-2067.0295
-2066.7229
-2065.7224
-2067.0221
-2066.6507
-2066.3552
-2067.0291
-2065.5936
-2066.6449
-2066.7736
-2066.7229
-2066.415
-2065.4098
-2066.6986
-2066.3251
-2066.069
-2066.4114
-2064.7005
-2065.6462
-2065.7722
-2065.7224
-2065.4098
-2064.3905
-2065.6585
-2065.4421
-2066.6107
-2068.0447
-2066.2823
-2066.9655
-2067.0726
-2067.0221
-2066.6986
-2065.6585
-2067.0068
-2068.4717
-2065.8215
-2067.2294
-2066.3651
-2066.6645
-2066.7117
-2066.6507
-2066.3251
-2065.4421
-2068.4717
-2065.5455
-1939.3689
-1941.9548
-1939.1784
-1940.4189
-1940.578
-1940.5558
-1940.4345
-1940.1457
-1940.6491
-1939.8726
-1941.9548
-1941.0999
-1940.2239
-1941.305
-1941.4259
-1941.37
-1941.1182
-1940.499
-1942.0385
-1941.2278
-1939.1784
-1940.2239
-1939.0037
-1940.0272
-1940.1426
-1940.0847
-1939.7838
-1938.8968
-1940.3796
-1940.4159
-1940.4189
-1941.305
-1940.0272
-1941.0416
-1941.157
-1941.1023
-1940.7939
-1939.8048
-1941.0347
-1940.702
-1940.578
-1941.4259
-1940.1426
-1941.157
-1941.2732
-1941.2209
-1940.9176
-1939.926
-1941.1377
-1940.747
-1940.5558
-1941.37
-1940.0847
-1941.1023
-1941.2209
-1941.1695
-1940.8676
-1939.8769
-1941.0878
-1940.6868
-1940.4345
-1941.1182
-1939.7838
-1940.7939
-1940.9176
-1940.8676
-1940.5645
-1939.569
-1940.7689
-1940.3648
-1940.1457
-1940.499
-1938.8968
-1939.8048
-1939.926
-1939.8769
-1939.569
-1938.559
-1939.7371
-1939.4858
-1940.6491
-1942.0385
-1940.3796
-1941.0347
-1941.1377
-1941.0878
-1940.7689
-1939.7371
-1940.9906
-1942.3949
-1939.8726
-1941.2278
-1940.4159
-1940.702
-1940.747
-1940.6868
-1940.3648
-1939.4858
-1942.3949
-1939.5608
-1815.5817
-1818.0344
-1815.4539
-1816.6359
-1816.7873
-1816.765
-1816.6448
-1816.3558
-1816.8206
-1816.061
-1818.0344
-1817.287
-1816.4907
-1817.5203
-1817.6351
-1817.5801
-1817.3323
-1816.7166
-1818.1588
-1817.3565
-1815.4539
-1816.4907
-1815.3671
-1816.3419
-1816.4516
-1816.395
-1816.1005
-1815.2261
-1816.6078
-1816.5993
-1816.6359
-1817.5203
-1816.3419
-1817.308
-1817.4178
-1817.3644
-1817.063
-1816.0909
-1817.2307
-1816.8701
-1816.7873
-1817.6351
-1816.4516
-1817.4178
-1817.5284
-1817.4773
-1817.1809
-1816.2064
-1817.3289
-1816.9127
-1816.765
-1817.5801
-1816.395
-1817.3644
-1817.4773
-1817.4271
-1817.1321
-1816.1585
-1817.2801
-1816.8536
-1816.6448
-1817.3323
-1816.1005
-1817.063
-1817.1809
-1817.1321
-1816.8358
-1815.8574
-1816.9679
-1816.5377
-1816.3558
-1816.7166
-1815.2261
-1816.0909
-1816.2064
-1816.1585
-1815.8574
-1814.8643
-1815.9521
-1815.6694
-1816.8206
-1818.1588
-1816.6078
-1817.2307
-1817.3289
-1817.2801
-1816.9679
-1815.9521
-1817.1103
-1818.4473
-1816.061
-1817.3565
-1816.5993
-1816.8701
-1816.9127
-1816.8536
-1816.5377
-1815.6694
-1818.4473
-1815.7162
-1693.7885
-1696.098
-1693.7202
-1694.8362
-1694.9789
-1694.9566
-1694.8386
-1694.5519
-1694.978
-1694.2398
-1696.098
-1695.4575
-1694.7388
-1695.7106
-1695.8187
-1695.765
-1695.5231
-1694.9159
-1696.2581
-1695.4687
-1693.7202
-1694.7388
-1693.712
-1694.6322
-1694.7357
-1694.6807
-1694.3947
-1693.5397
-1694.819
-1694.7682
-1694.8362
-1695.7106
-1694.6322
-1695.5443
-1695.6478
-1695.5961
-1695.3038
-1694.3557
-1695.4056
-1695.022
-1694.9789
-1695.8187
-1694.7357
-1695.6478
-1695.7521
-1695.7026
-1695.4152
-1694.4649
-1695.4983
-1695.0618
-1694.9566
-1695.765
-1694.6807
-1695.5961
-1695.7026
-1695.654
-1695.368
-1694.4185
-1695.451
-1695.0043
-1694.8386
-1695.5231
-1694.3947
-1695.3038
-1695.4152
-1695.368
-1695.0807
-1694.1264
-1695.1477
-1694.6966
-1694.5519
-1694.9159
-1693.5397
-1694.3557
-1694.4649
-1694.4185
-1694.1264
-1693.1574
-1694.1555
-1693.8458
-1694.978
-1696.2581
-1694.819