/*--------------------------------*- C++ -*----------------------------------*\
| =========                 |                                                 |
| \\      /  F ield         | OpenFOAM: The Open Source CFD Toolbox           |
|  \\    /   O peration     | Version:  v2106                                 |
|   \\  /    A nd           | Website:  www.openfoam.com                      |
|    \\/     M anipulation  |                                                 |
\*---------------------------------------------------------------------------*/
FoamFile
{
    version     2.0;
    format      ascii;
    arch        "LSB;label=32;scalar=64";
    class       volScalarField;
    location    "30";
    object      T;
}
// * * * * * * * * * * * * * * * * * * * * * * * * * * * * * * * * * * * * * //

dimensions      [0 0 0 1 0 0 0];

internalField   nonuniform List<scalar> 
4000
(
274.72299
274.723
274.72299
274.72299
274.72299
274.72299
274.72299
274.72299
274.72299
274.72299
274.723
274.723
274.72299
274.72299
274.72299
274.72299
274.72299
274.72299
274.72299
274.72299
274.72299
274.72299
274.72298
274.72298
274.72298
274.72298
274.72298
274.72298
274.72299
274.72299
274.72299
274.72299
274.72298
274.72298
274.72298
274.72298
274.72298
274.72298
274.72299
274.72299
274.72299
274.72299
274.72298
274.72298
274.72298
274.72298
274.72298
274.72298
274.72299
274.72299
274.72299
274.72299
274.72298
274.72298
274.72298
274.72298
274.72298
274.72298
274.72299
274.72299
274.72299
274.72299
274.72298
274.72298
274.72298
274.72298
274.72298
274.72298
274.72299
274.72299
274.72299
274.72299
274.72298
274.72298
274.72298
274.72298
274.72298
274.72299
274.72299
274.72299
274.72299
274.72299
274.72299
274.72299
274.72299
274.72299
274.72299
274.72299
274.72299
274.72299
274.72299
274.72299
274.72299
274.72299
274.72299
274.72299
274.72299
274.72299
274.72299
274.72299
289.97394
289.97399
289.97394
289.97392
289.97391
289.97391
289.97392
289.97393
289.97394
289.97394
289.97399
289.97399
289.97394
289.97393
289.97392
289.97392
289.97393
289.97394
289.97395
289.97395
289.97394
289.97394
289.9739
289.97389
289.97388
289.97388
289.97389
289.9739
289.97392
289.97393
289.97392
289.97393
289.97389
289.97387
289.97387
289.97387
289.97388
289.97389
289.97391
289.97392
289.97391
289.97392
289.97388
289.97387
289.97386
289.97387
289.97388
289.97389
289.97391
289.97392
289.97391
289.97392
289.97388
289.97387
289.97387
289.97387
289.97388
289.97389
289.97391
289.97392
289.97392
289.97393
289.97389
289.97388
289.97388
289.97388
289.97389
289.9739
289.97392
289.97393
289.97393
289.97394
289.9739
289.97389
289.97389
289.97389
289.9739
289.97392
289.97394
289.97395
289.97394
289.97395
289.97392
289.97391
289.97391
289.97391
289.97392
289.97394
289.97395
289.97396
289.97394
289.97395
289.97393
289.97392
289.97392
289.97392
289.97393
289.97395
289.97396
289.97397
304.42119
304.42124
304.42116
304.42113
304.42112
304.42113
304.42114
304.42115
304.42117
304.42116
304.42124
304.42123
304.42116
304.42113
304.42113
304.42113
304.42114
304.42116
304.42119
304.42118
304.42116
304.42116
304.42109
304.42107
304.42106
304.42106
304.42108
304.4211
304.42114
304.42115
304.42113
304.42113
304.42107
304.42104
304.42104
304.42104
304.42106
304.42108
304.42112
304.42113
304.42112
304.42113
304.42106
304.42104
304.42103
304.42103
304.42105
304.42108
304.42112
304.42113
304.42113
304.42113
304.42106
304.42104
304.42103
304.42104
304.42106
304.42108
304.42112
304.42114
304.42114
304.42114
304.42108
304.42106
304.42105
304.42106
304.42107
304.4211
304.42114
304.42115
304.42115
304.42116
304.4211
304.42108
304.42108
304.42108
304.4211
304.42113
304.42117
304.42118
304.42117
304.42119
304.42114
304.42112
304.42112
304.42112
304.42114
304.42117
304.42121
304.42122
304.42116
304.42118
304.42115
304.42113
304.42113
304.42114
304.42115
304.42118
304.42122
304.42122
318.14348
318.14353
318.14342
318.14339
318.14338
318.14338
318.1434
318.14343
318.14345
318.14345
318.14353
318.14351
318.14341
318.14338
318.14337
318.14337
318.14339
318.14343
318.14348
318.14347
318.14342
318.14341
318.14332
318.14329
318.14328
318.14329
318.14331
318.14335
318.14341
318.14342
318.14339
318.14338
318.14329
318.14326
318.14325
318.14326
318.14328
318.14332
318.14339
318.1434
318.14338
318.14337
318.14328
318.14325
318.14325
318.14325
318.14328
318.14332
318.14338
318.1434
318.14338
318.14337
318.14329
318.14326
318.14325
318.14326
318.14329
318.14333
318.14339
318.14341
318.1434
318.14339
318.14331
318.14328
318.14328
318.14329
318.14331
318.14335
318.14342
318.14344
318.14343
318.14343
318.14335
318.14332
318.14332
318.14333
318.14335
318.1434
318.14346
318.14348
318.14345
318.14348
318.14341
318.14339
318.14338
318.14339
318.14342
318.14346
318.14352
318.14354
318.14345
318.14347
318.14342
318.1434
318.1434
318.14341
318.14344
318.14348
318.14354
318.14353
331.20453
331.20458
331.20445
331.20441
331.2044
331.20441
331.20443
331.20447
331.20451
331.20451
331.20458
331.20455
331.20443
331.2044
331.20439
331.20439
331.20442
331.20447
331.20453
331.20453
331.20445
331.20443
331.20433
331.20429
331.20428
331.20429
331.20432
331.20437
331.20445
331.20448
331.20441
331.2044
331.20429
331.20426
331.20425
331.20426
331.20429
331.20434
331.20443
331.20446
331.2044
331.20439
331.20428
331.20425
331.20424
331.20425
331.20428
331.20434
331.20443
331.20445
331.20441
331.20439
331.20429
331.20426
331.20425
331.20427
331.2043
331.20435
331.20444
331.20447
331.20443
331.20442
331.20432
331.20429
331.20428
331.2043
331.20433
331.20438
331.20447
331.2045
331.20447
331.20447
331.20437
331.20434
331.20434
331.20435
331.20438
331.20444
331.20453
331.20456
331.20451
331.20453
331.20445
331.20443
331.20443
331.20444
331.20447
331.20453
331.20462
331.20464
331.20451
331.20453
331.20448
331.20446
331.20445
331.20447
331.2045
331.20456
331.20464
331.20463
343.65704
343.65708
343.65694
343.65689
343.65688
343.65689
343.65692
343.65697
343.65703
343.65703
343.65708
343.65704
343.65691
343.65687
343.65686
343.65687
343.6569
343.65696
343.65705
343.65706
343.65694
343.65691
343.65679
343.65675
343.65674
343.65676
343.65679
343.65685
343.65696
343.657
343.65689
343.65687
343.65675
343.65672
343.65671
343.65672
343.65676
343.65682
343.65693
343.65697
343.65688
343.65686
343.65674
343.65671
343.6567
343.65672
343.65675
343.65682
343.65693
343.65697
343.65689
343.65687
343.65676
343.65672
343.65672
343.65673
343.65677
343.65684
343.65695
343.65699
343.65692
343.6569
343.65679
343.65676
343.65675
343.65677
343.65681
343.65687
343.65699
343.65703
343.65697
343.65696
343.65685
343.65682
343.65682
343.65684
343.65687
343.65694
343.65705
343.65709
343.65703
343.65705
343.65696
343.65693
343.65693
343.65695
343.65699
343.65705
343.65717
343.6572
343.65703
343.65706
343.657
343.65697
343.65697
343.65699
343.65703
343.65709
343.6572
343.65719
355.5454
355.54544
355.54528
355.54524
355.54523
355.54524
355.54528
355.54534
355.54541
355.54541
355.54544
355.54539
355.54525
355.54521
355.5452
355.54521
355.54525
355.54532
355.54543
355.54544
355.54528
355.54525
355.54512
355.54508
355.54507
355.54509
355.54513
355.5452
355.54533
355.54537
355.54524
355.54521
355.54508
355.54505
355.54504
355.54506
355.5451
355.54517
355.5453
355.54535
355.54523
355.5452
355.54507
355.54504
355.54504
355.54505
355.54509
355.54517
355.5453
355.54535
355.54524
355.54521
355.54509
355.54506
355.54505
355.54507
355.54511
355.54519
355.54532
355.54537
355.54528
355.54525
355.54513
355.5451
355.54509
355.54511
355.54516
355.54523
355.54536
355.54541
355.54534
355.54532
355.5452
355.54517
355.54517
355.54519
355.54523
355.54531
355.54544
355.54549
355.54541
355.54543
355.54533
355.5453
355.5453
355.54532
355.54536
355.54544
355.54557
355.54562
355.54541
355.54544
355.54537
355.54535
355.54535
355.54537
355.54541
355.54549
355.54562
355.54561
366.90769
366.90772
366.90755
366.90751
366.90751
366.90752
366.90756
366.90763
366.90772
366.90773
366.90772
366.90766
366.90752
366.90748
366.90747
366.90749
366.90753
366.90761
366.90773
366.90775
366.90755
366.90752
366.90738
366.90734
366.90734
366.90736
366.9074
366.90748
366.90762
366.90768
366.90751
366.90748
366.90734
366.90731
366.90731
366.90733
366.90737
366.90745
366.9076
366.90766
366.90751
366.90747
366.90734
366.90731
366.90731
366.90733
366.90737
366.90745
366.9076
366.90766
366.90752
366.90749
366.90736
366.90733
366.90733
366.90735
366.90739
366.90747
366.90762
366.90768
366.90756
366.90753
366.9074
366.90737
366.90737
366.90739
366.90744
366.90752
366.90767
366.90773
366.90763
366.90761
366.90748
366.90745
366.90745
366.90747
366.90752
366.9076
366.90775
366.90782
366.90772
366.90773
366.90762
366.9076
366.9076
366.90762
366.90767
366.90775
366.9079
366.90796
366.90773
366.90775
366.90768
366.90766
366.90766
366.90768
366.90773
366.90782
366.90796
366.90795
377.77705
377.77708
377.77691
377.77687
377.77686
377.77689
377.77693
377.777
377.7771
377.77711
377.77708
377.77702
377.77686
377.77683
377.77683
377.77685
377.77689
377.77698
377.77711
377.77714
377.77691
377.77686
377.77672
377.77669
377.77669
377.77671
377.77676
377.77684
377.777
377.77707
377.77687
377.77683
377.77669
377.77666
377.77666
377.77668
377.77673
377.77681
377.77697
377.77704
377.77686
377.77683
377.77669
377.77666
377.77666
377.77669
377.77673
377.77682
377.77697
377.77704
377.77689
377.77685
377.77671
377.77668
377.77669
377.77671
377.77676
377.77684
377.777
377.77707
377.77693
377.77689
377.77676
377.77673
377.77673
377.77676
377.7768
377.77689
377.77705
377.77712
377.777
377.77698
377.77684
377.77681
377.77682
377.77684
377.77689
377.77697
377.77714
377.77721
377.7771
377.77711
377.777
377.77697
377.77697
377.777
377.77705
377.77714
377.7773
377.77738
377.77711
377.77714
377.77707
377.77704
377.77704
377.77707
377.77712
377.77721
377.77738
377.77737
388.18276
388.18279
388.18261
388.18257
388.18257
388.1826
388.18264
388.18272
388.18282
388.18284
388.18279
388.18271
388.18256
388.18253
388.18253
388.18256
388.1826
388.18269
388.18283
388.18287
388.18261
388.18256
388.18242
388.18239
388.18239
388.18242
388.18247
388.18255
388.18272
388.18279
388.18257
388.18253
388.18239
388.18237
388.18237
388.18239
388.18244
388.18253
388.18269
388.18277
388.18257
388.18253
388.18239
388.18237
388.18237
388.1824
388.18244
388.18253
388.1827
388.18277
388.1826
388.18256
388.18242
388.18239
388.1824
388.18242
388.18247
388.18255
388.18272
388.1828
388.18264
388.1826
388.18247
388.18244
388.18244
388.18247
388.18252
388.1826
388.18277
388.18285
388.18272
388.18269
388.18255
388.18253
388.18253
388.18255
388.1826
388.18269
388.18286
388.18294
388.18282
388.18283
388.18272
388.18269
388.1827
388.18272
388.18277
388.18286
388.18304
388.18312
388.18284
388.18287
388.18279
388.18277
388.18277
388.1828
388.18285
388.18294
388.18312
388.18311
398.15098
398.15101
398.15083
398.1508
398.1508
398.15083
398.15088
398.15096
398.15106
398.15109
398.15101
398.15094
398.15078
398.15076
398.15077
398.15079
398.15084
398.15092
398.15108
398.15111
398.15083
398.15078
398.15064
398.15062
398.15063
398.15065
398.1507
398.15079
398.15096
398.15104
398.1508
398.15076
398.15062
398.1506
398.15061
398.15063
398.15068
398.15076
398.15094
398.15102
398.1508
398.15077
398.15063
398.15061
398.15062
398.15064
398.15069
398.15077
398.15094
398.15102
398.15083
398.15079
398.15065
398.15063
398.15064
398.15067
398.15071
398.15079
398.15097
398.15105
398.15088
398.15084
398.1507
398.15068
398.15069
398.15071
398.15076
398.15084
398.15101
398.1511
398.15096
398.15092
398.15079
398.15076
398.15077
398.15079
398.15084
398.15093
398.15111
398.15119
398.15106
398.15108
398.15096
398.15094
398.15094
398.15097
398.15101
398.15111
398.15129
398.15138
398.15109
398.15111
398.15104
398.15102
398.15102
398.15105
398.1511
398.15119
398.15138
398.15137
407.70542
407.70545
407.70527
407.70524
407.70525
407.70528
407.70533
407.70541
407.70552
407.70554
407.70545
407.70537
407.70522
407.7052
407.70521
407.70524
407.70529
407.70537
407.70553
407.70557
407.70527
407.70522
407.70508
407.70507
407.70508
407.7051
407.70515
407.70523
407.70541
407.70549
407.70524
407.7052
407.70507
407.70505
407.70506
407.70509
407.70513
407.70521
407.70539
407.70547
407.70525
407.70521
407.70508
407.70506
407.70508
407.7051
407.70514
407.70522
407.7054
407.70548
407.70528
407.70524
407.7051
407.70509
407.7051
407.70512
407.70517
407.70525
407.70542
407.7055
407.70533
407.70529
407.70515
407.70513
407.70514
407.70517
407.70521
407.70529
407.70546
407.70555
407.70541
407.70537
407.70523
407.70521
407.70522
407.70525
407.70529
407.70537
407.70555
407.70564
407.70552
407.70553
407.70541
407.70539
407.7054
407.70542
407.70546
407.70555
407.70574
407.70584
407.70554
407.70557
407.70549
407.70547
407.70548
407.7055
407.70555
407.70564
407.70584
407.70583
416.86773
416.86776
416.86758
416.86756
416.86758
416.86761
416.86765
416.86773
416.86784
416.86787
416.86776
416.86769
416.86754
416.86753
416.86754
416.86757
416.86762
416.8677
416.86785
416.8679
416.86758
416.86754
416.86741
416.8674
416.86741
416.86744
416.86748
416.86756
416.86774
416.86782
416.86756
416.86753
416.8674
416.86739
416.8674
416.86743
416.86747
416.86754
416.86772
416.8678
416.86758
416.86754
416.86741
416.8674
416.86742
416.86744
416.86748
416.86755
416.86773
416.86781
416.86761
416.86757
416.86744
416.86743
416.86744
416.86746
416.8675
416.86757
416.86775
416.86783
416.86765
416.86762
416.86748
416.86747
416.86748
416.8675
416.86754
416.86761
416.86779
416.86787
416.86773
416.8677
416.86756
416.86754
416.86755
416.86757
416.86761
416.86769
416.86787
416.86796
416.86784
416.86785
416.86774
416.86772
416.86773
416.86775
416.86779
416.86787
416.86806
416.86816
416.86787
416.8679
416.86782
416.8678
416.86781
416.86783
416.86787
416.86796
416.86816
416.86816
425.65794
425.65797
425.65779
425.65778
425.6578
425.65783
425.65787
425.65794
425.65805
425.65808
425.65797
425.65789
425.65775
425.65775
425.65776
425.65779
425.65783
425.65791
425.65806
425.65811
425.65779
425.65775
425.65762
425.65762
425.65764
425.65767
425.6577
425.65778
425.65795
425.65804
425.65778
425.65775
425.65762
425.65762
425.65764
425.65766
425.6577
425.65777
425.65794
425.65802
425.6578
425.65776
425.65764
425.65764
425.65765
425.65768
425.65771
425.65777
425.65794
425.65802
425.65783
425.65779
425.65767
425.65766
425.65768
425.6577
425.65773
425.65779
425.65796
425.65804
425.65787
425.65783
425.6577
425.6577
425.65771
425.65773
425.65776
425.65783
425.658
425.65808
425.65794
425.65791
425.65778
425.65777
425.65777
425.65779
425.65783
425.6579
425.65807
425.65816
425.65805
425.65806
425.65795
425.65794
425.65794
425.65796
425.658
425.65807
425.65826
425.65836
425.65808
425.65811
425.65804
425.65802
425.65802
425.65804
425.65808
425.65816
425.65836
425.65836
434.09468
434.09471
434.09454
434.09454
434.09456
434.09459
434.09463
434.0947
434.0948
434.09482
434.09471
434.09464
434.09451
434.09451
434.09453
434.09456
434.0946
434.09467
434.09482
434.09486
434.09454
434.09451
434.09439
434.09439
434.09441
434.09444
434.09447
434.09454
434.09471
434.09479
434.09454
434.09451
434.09439
434.0944
434.09442
434.09444
434.09447
434.09453
434.09469
434.09477
434.09456
434.09453
434.09441
434.09442
434.09444
434.09446
434.09448
434.09454
434.0947
434.09478
434.09459
434.09456
434.09444
434.09444
434.09446
434.09447
434.0945
434.09455
434.09472
434.09479
434.09463
434.0946
434.09447
434.09447
434.09448
434.0945
434.09452
434.09458
434.09474
434.09482
434.0947
434.09467
434.09454
434.09453
434.09454
434.09455
434.09458
434.09464
434.09481
434.0949
434.0948
434.09482
434.09471
434.09469
434.0947
434.09472
434.09474
434.09481
434.095
434.0951
434.09482
434.09486
434.09479
434.09477
434.09478
434.09479
434.09482
434.0949
434.0951
434.09509
442.19549
442.19553
442.19536
442.19537
442.19539
442.19542
442.19546
442.19552
442.19562
442.19564
442.19553
442.19546
442.19533
442.19534
442.19537
442.19539
442.19543
442.19549
442.19563
442.19567
442.19536
442.19533
442.19522
442.19523
442.19526
442.19528
442.19531
442.19537
442.19553
442.19561
442.19537
442.19534
442.19523
442.19524
442.19527
442.19529
442.19531
442.19536
442.19552
442.19559
442.19539
442.19537
442.19526
442.19527
442.19529
442.1953
442.19532
442.19537
442.19552
442.19559
442.19542
442.19539
442.19528
442.19529
442.1953
442.19532
442.19534
442.19538
442.19553
442.19561
442.19546
442.19543
442.19531
442.19531
442.19532
442.19534
442.19535
442.1954
442.19556
442.19563
442.19552
442.19549
442.19537
442.19536
442.19537
442.19538
442.1954
442.19545
442.19561
442.1957
442.19562
442.19563
442.19553
442.19552
442.19552
442.19553
442.19556
442.19561
442.19579
442.19589
442.19564
442.19567
442.19561
442.19559
442.19559
442.19561
442.19563
442.1957
442.19589
442.19588
449.97696
449.977
449.97684
449.97685
449.97688
449.9769
449.97694
449.97699
449.97708
449.9771
449.977
449.97693
449.97682
449.97683
449.97686
449.97688
449.97691
449.97697
449.9771
449.97714
449.97684
449.97682
449.97671
449.97673
449.97676
449.97678
449.9768
449.97685
449.977
449.97708
449.97685
449.97683
449.97673
449.97675
449.97677
449.97679
449.97681
449.97685
449.97699
449.97706
449.97688
449.97686
449.97676
449.97677
449.9768
449.97681
449.97682
449.97686
449.977
449.97706
449.9769
449.97688
449.97678
449.97679
449.97681
449.97682
449.97683
449.97686
449.97701
449.97707
449.97694
449.97691
449.9768
449.97681
449.97682
449.97683
449.97684
449.97687
449.97702
449.97709
449.97699
449.97697
449.97685
449.97685
449.97686
449.97686
449.97687
449.97691
449.97707
449.97715
449.97708
449.9771
449.977
449.97699
449.977
449.97701
449.97702
449.97707
449.97723
449.97733
449.9771
449.97714
449.97708
449.97706
449.97706
449.97707
449.97709
449.97715
449.97733
449.97732
457.45489
457.45493
457.45478
457.4548
457.45483
457.45485
457.45488
457.45493
457.45501
457.45502
457.45493
457.45487
457.45476
457.45479
457.45481
457.45484
457.45486
457.4549
457.45503
457.45506
457.45478
457.45476
457.45467
457.4547
457.45472
457.45474
457.45475
457.45479
457.45494
457.455
457.4548
457.45479
457.4547
457.45472
457.45474
457.45476
457.45477
457.45479
457.45493
457.45499
457.45483
457.45481
457.45472
457.45474
457.45477
457.45478
457.45478
457.4548
457.45493
457.45499
457.45485
457.45484
457.45474
457.45476
457.45478
457.45478
457.45478
457.45481
457.45494
457.45499
457.45488
457.45486
457.45475
457.45477
457.45478
457.45478
457.45479
457.45481
457.45494
457.455
457.45493
457.4549
457.45479
457.45479
457.4548
457.45481
457.45481
457.45484
457.45498
457.45505
457.45501
457.45503
457.45494
457.45493
457.45493
457.45494
457.45494
457.45498
457.45513
457.45523
457.45502
457.45506
457.455
457.45499
457.45499
457.45499
457.455
457.45505
457.45523
457.45521
464.64443
464.64447
464.64434
464.64436
464.64439
464.64441
464.64443
464.64447
464.64455
464.64456
464.64447
464.64442
464.64432
464.64435
464.64438
464.6444
464.64442
464.64445
464.64457
464.6446
464.64434
464.64432
464.64424
464.64427
464.6443
464.64431
464.64432
464.64435
464.64448
464.64454
464.64436
464.64435
464.64427
464.6443
464.64432
464.64433
464.64433
464.64435
464.64448
464.64453
464.64439
464.64438
464.6443
464.64432
464.64435
464.64435
464.64435
464.64436
464.64448
464.64453
464.64441
464.6444
464.64431
464.64433
464.64435
464.64436
464.64435
464.64436
464.64448
464.64453
464.64443
464.64442
464.64432
464.64433
464.64435
464.64435
464.64434
464.64435
464.64447
464.64453
464.64447
464.64445
464.64435
464.64435
464.64436
464.64436
464.64435
464.64437
464.6445
464.64456
464.64455
464.64457
464.64448
464.64448
464.64448
464.64448
464.64447
464.6445
464.64464
464.64473
464.64456
464.6446
464.64454
464.64453
464.64453
464.64453
464.64453
464.64456
464.64473
464.64471
471.56017
471.56022
471.5601
471.56012
471.56016
471.56018
471.56019
471.56022
471.56029
471.56029
471.56022
471.56018
471.56009
471.56012
471.56016
471.56017
471.56018
471.56021
471.56031
471.56033
471.5601
471.56009
471.56002
471.56005
471.56008
471.56009
471.56009
471.56011
471.56023
471.56028
471.56012
471.56012
471.56005
471.56009
471.56011
471.56012
471.56011
471.56012
471.56023
471.56028
471.56016
471.56016
471.56008
471.56011
471.56013
471.56014
471.56012
471.56012
471.56023
471.56027
471.56018
471.56017
471.56009
471.56012
471.56014
471.56013
471.56012
471.56012
471.56022
471.56026
471.56019
471.56018
471.56009
471.56011
471.56012
471.56012
471.5601
471.5601
471.56021
471.56025
471.56022
471.56021
471.56011
471.56012
471.56012
471.56012
471.5601
471.5601
471.56022
471.56028
471.56029
471.56031
471.56023
471.56023
471.56023
471.56022
471.56021
471.56022
471.56035
471.56044
471.56029
471.56033
471.56028
471.56028
471.56027
471.56026
471.56025
471.56028
471.56044
471.56041
478.21626
478.21631
478.21619
478.21623
478.21626
478.21627
478.21628
478.2163
478.21636
478.21636
478.21631
478.21627
478.21619
478.21623
478.21626
478.21628
478.21628
478.21629
478.21639
478.21641
478.21619
478.21619
478.21613
478.21617
478.2162
478.2162
478.2162
478.2162
478.21631
478.21636
478.21623
478.21623
478.21617
478.2162
478.21623
478.21623
478.21622
478.21621
478.21631
478.21635
478.21626
478.21626
478.2162
478.21623
478.21625
478.21625
478.21623
478.21622
478.21631
478.21634
478.21627
478.21628
478.2162
478.21623
478.21625
478.21625
478.21622
478.21621
478.2163
478.21633
478.21628
478.21628
478.2162
478.21622
478.21623
478.21622
478.2162
478.21618
478.21627
478.21631
478.2163
478.21629
478.2162
478.21621
478.21622
478.21621
478.21618
478.21617
478.21628
478.21633
478.21636
478.21639
478.21631
478.21631
478.21631
478.2163
478.21627
478.21628
478.2164
478.21647
478.21636
478.21641
478.21636
478.21635
478.21634
478.21633
478.21631
478.21633
478.21647
478.21644
484.6264
484.62645
484.62635
484.62639
484.62642
484.62643
484.62644
484.62645
484.6265
484.62649
484.62645
484.62642
484.62636
484.6264
484.62643
484.62644
484.62643
484.62644
484.62653
484.62653
484.62635
484.62636
484.6263
484.62634
484.62637
484.62638
484.62636
484.62636
484.62645
484.62649
484.62639
484.6264
484.62634
484.62638
484.62641
484.62641
484.62638
484.62637
484.62645
484.62648
484.62642
484.62643
484.62637
484.62641
484.62643
484.62642
484.6264
484.62637
484.62645
484.62648
484.62643
484.62644
484.62638
484.62641
484.62642
484.62641
484.62638
484.62636
484.62643
484.62646
484.62644
484.62643
484.62636
484.62638
484.6264
484.62638
484.62635
484.62632
484.6264
484.62643
484.62645
484.62644
484.62636
484.62637
484.62637
484.62636
484.62632
484.6263
484.62639
484.62643
484.6265
484.62653
484.62645
484.62645
484.62645
484.62643
484.6264
484.62639
484.6265
484.62657
484.62649
484.62653
484.62649
484.62648
484.62648
484.62646
484.62643
484.62643
484.62657
484.62653
490.80399
490.80405
490.80396
490.80399
490.80403
490.80404
490.80403
490.80404
490.80408
490.80406
490.80405
490.80402
490.80397
490.80401
490.80404
490.80405
490.80404
490.80403
490.80411
490.80411
490.80396
490.80397
490.80392
490.80396
490.80399
490.80399
490.80397
490.80396
490.80404
490.80407
490.80399
490.80401
490.80396
490.80401
490.80403
490.80403
490.804
490.80397
490.80404
490.80406
490.80403
490.80404
490.80399
490.80403
490.80405
490.80404
490.804
490.80397
490.80404
490.80405
490.80404
490.80405
490.80399
490.80403
490.80404
490.80403
490.80399
490.80395
490.80401
490.80403
490.80403
490.80404
490.80397
490.804
490.804
490.80399
490.80395
490.80391
490.80397
490.804
490.80404
490.80403
490.80396
490.80397
490.80397
490.80395
490.80391
490.80388
490.80395
490.80399
490.80408
490.80411
490.80404
490.80404
490.80404
490.80401
490.80397
490.80395
490.80405
490.80411
490.80406
490.80411
490.80407
490.80406
490.80405
490.80403
490.804
490.80399
490.80411
490.80407
496.76212
496.76217
496.76209
496.76213
496.76216
496.76217
496.76216
496.76215
496.76219
496.76217
496.76217
496.76216
496.76211
496.76215
496.76218
496.76218
496.76217
496.76216
496.76222
496.76221
496.76209
496.76211
496.76207
496.76211
496.76214
496.76214
496.76211
496.76209
496.76216
496.76218
496.76213
496.76215
496.76211
496.76216
496.76218
496.76217
496.76214
496.7621
496.76216
496.76217
496.76216
496.76218
496.76214
496.76218
496.7622
496.76219
496.76214
496.7621
496.76215
496.76216
496.76217
496.76218
496.76214
496.76217
496.76219
496.76217
496.76212
496.76207
496.76212
496.76213
496.76216
496.76217
496.76211
496.76214
496.76214
496.76212
496.76207
496.76203
496.76208
496.76209
496.76215
496.76216
496.76209
496.7621
496.7621
496.76207
496.76203
496.76199
496.76205
496.76207
496.76219
496.76222
496.76216
496.76216
496.76215
496.76212
496.76208
496.76205
496.76213
496.76218
496.76217
496.76221
496.76218
496.76217
496.76216
496.76213
496.76209
496.76207
496.76218
496.76214
502.5136
502.51365
502.51358
502.51362
502.51365
502.51366
502.51364
502.51363
502.51365
502.51363
502.51365
502.51364
502.5136
502.51365
502.51368
502.51368
502.51365
502.51363
502.51368
502.51367
502.51358
502.5136
502.51357
502.51362
502.51364
502.51364
502.5136
502.51357
502.51363
502.51364
502.51362
502.51365
502.51362
502.51366
502.51368
502.51367
502.51363
502.51358
502.51363
502.51364
502.51365
502.51368
502.51364
502.51368
502.5137
502.51368
502.51363
502.51358
502.51362
502.51362
502.51366
502.51368
502.51364
502.51367
502.51368
502.51366
502.51361
502.51355
502.51359
502.51359
502.51364
502.51365
502.5136
502.51363
502.51363
502.51361
502.51355
502.5135
502.51354
502.51354
502.51363
502.51363
502.51357
502.51358
502.51358
502.51355
502.5135
502.51345
502.5135
502.51352
502.51365
502.51368
502.51363
502.51363
502.51362
502.51359
502.51354
502.5135
502.51357
502.51361
502.51363
502.51367
502.51364
502.51364
502.51362
502.51359
502.51354
502.51352
502.51361
502.51356
508.07102
508.07108
508.07102
508.07106
508.07109
508.07109
508.07107
508.07105
508.07106
508.07104
508.07108
508.07107
508.07104
508.07109
508.07112
508.07111
508.07108
508.07105
508.0711
508.07108
508.07102
508.07104
508.07102
508.07107
508.07109
508.07108
508.07104
508.071
508.07104
508.07105
508.07106
508.07109
508.07107
508.07111
508.07113
508.07111
508.07106
508.07101
508.07105
508.07105
508.07109
508.07112
508.07109
508.07113
508.07114
508.07112
508.07107
508.07101
508.07104
508.07103
508.07109
508.07111
508.07108
508.07111
508.07112
508.0711
508.07104
508.07098
508.071
508.07099
508.07107
508.07108
508.07104
508.07106
508.07107
508.07104
508.07098
508.07092
508.07094
508.07094
508.07105
508.07105
508.071
508.07101
508.07101
508.07098
508.07092
508.07086
508.0709
508.07091
508.07106
508.0711
508.07104
508.07105
508.07104
508.071
508.07094
508.0709
508.07095
508.07099
508.07104
508.07108
508.07105
508.07105
508.07103
508.07099
508.07094
508.07091
508.07099
508.07094
513.44677
513.44683
513.44678
513.44682
513.44685
513.44684
513.44682
513.44679
513.4468
513.44677
513.44683
513.44683
513.44681
513.44685
513.44688
513.44687
513.44683
513.4468
513.44683
513.44681
513.44678
513.44681
513.44679
513.44683
513.44685
513.44684
513.4468
513.44675
513.44678
513.44679
513.44682
513.44685
513.44683
513.44688
513.44689
513.44687
513.44682
513.44676
513.44679
513.44678
513.44685
513.44688
513.44685
513.44689
513.44691
513.44688
513.44682
513.44676
513.44677
513.44676
513.44684
513.44687
513.44684
513.44687
513.44688
513.44685
513.44679
513.44672
513.44674
513.44672
513.44682
513.44683
513.4468
513.44682
513.44682
513.44679
513.44673
513.44666
513.44667
513.44667
513.44679
513.4468
513.44675
513.44676
513.44676
513.44672
513.44666
513.44659
513.44662
513.44662
513.4468
513.44683
513.44678
513.44679
513.44677
513.44674
513.44667
513.44662
513.44667
513.4467
513.44677
513.44681
513.44679
513.44678
513.44676
513.44672
513.44667
513.44662
513.4467
513.44664
518.65303
518.65308
518.65304
518.65308
518.6531
518.6531
518.65307
518.65304
518.65304
518.65301
518.65308
518.65309
518.65307
518.65311
518.65314
518.65313
518.65309
518.65305
518.65307
518.65305
518.65304
518.65307
518.65306
518.6531
518.65312
518.6531
518.65306
518.653
518.65303
518.65302
518.65308
518.65311
518.6531
518.65314
518.65316
518.65314
518.65308
518.65302
518.65303
518.65302
518.6531
518.65314
518.65312
518.65316
518.65317
518.65314
518.65308
518.65301
518.65301
518.653
518.6531
518.65313
518.6531
518.65314
518.65314
518.65311
518.65304
518.65297
518.65297
518.65296
518.65307
518.65309
518.65306
518.65308
518.65308
518.65304
518.65298
518.6529
518.65291
518.6529
518.65304
518.65305
518.653
518.65302
518.65301
518.65297
518.6529
518.65283
518.65285
518.65285
518.65304
518.65307
518.65303
518.65303
518.65301
518.65297
518.65291
518.65285
518.65288
518.65291
518.65301
518.65305
518.65302
518.65302
518.653
518.65296
518.6529
518.65285
518.65291
518.65285
523.70177
523.70183
523.70179
523.70183
523.70186
523.70185
523.70181
523.70178
523.70177
523.70174
523.70183
523.70184
523.70183
523.70187
523.70189
523.70187
523.70183
523.70179
523.7018
523.70178
523.70179
523.70183
523.70182
523.70186
523.70188
523.70186
523.70181
523.70175
523.70177
523.70176
523.70183
523.70187
523.70186
523.7019
523.70191
523.70189
523.70183
523.70176
523.70177
523.70175
523.70186
523.70189
523.70188
523.70191
523.70192
523.70189
523.70183
523.70175
523.70175
523.70173
523.70185
523.70187
523.70186
523.70189
523.70189
523.70186
523.70179
523.70171
523.70171
523.70168
523.70181
523.70183
523.70181
523.70183
523.70183
523.70179
523.70172
523.70164
523.70164
523.70162
523.70178
523.70179
523.70175
523.70176
523.70175
523.70171
523.70164
523.70157
523.70158
523.70157
523.70177
523.7018
523.70177
523.70177
523.70175
523.70171
523.70164
523.70158
523.7016
523.70162
523.70174
523.70178
523.70176
523.70175
523.70173
523.70168
523.70162
523.70157
523.70162
523.70157
528.60482
528.60488
528.60485
528.60489
528.6049
528.60489
528.60486
528.60482
528.60481
528.60477
528.60488
528.60489
528.60488
528.60492
528.60494
528.60492
528.60488
528.60483
528.60484
528.60481
528.60485
528.60488
528.60488
528.60492
528.60493
528.60491
528.60486
528.6048
528.6048
528.60479
528.60489
528.60492
528.60492
528.60495
528.60496
528.60494
528.60488
528.60481
528.6048
528.60478
528.6049