/*--------------------------------*- C++ -*----------------------------------*\
| =========                 |                                                 |
| \\      /  F ield         | OpenFOAM: The Open Source CFD Toolbox           |
|  \\    /   O peration     | Version:  v2106                                 |
|   \\  /    A nd           | Website:  www.openfoam.com                      |
|    \\/     M anipulation  |                                                 |
\*---------------------------------------------------------------------------*/
FoamFile
{
    version     2.0;
    format      ascii;
    arch        "LSB;label=32;scalar=64";
    class       volScalarField;
    location    "30";
    object      T;
}
// * * * * * * * * * * * * * * * * * * * * * * * * * * * * * * * * * * * * * //

dimensions      [0 0 0 1 0 0 0];

internalField   nonuniform List<scalar> 
4000
(
275.43403
275.43404
275.43403
275.43403
275.43403
275.43403
275.43403
275.43403
275.43403
275.43403
275.43404
275.43403
275.43402
275.43402
275.43403
275.43403
275.43403
275.43403
275.43403
275.43403
275.43403
275.43402
275.43401
275.43402
275.43402
275.43402
275.43402
275.43402
275.43402
275.43403
275.43403
275.43402
275.43402
275.43402
275.43402
275.43402
275.43402
275.43402
275.43402
275.43403
275.43403
275.43403
275.43402
275.43402
275.43402
275.43402
275.43402
275.43402
275.43403
275.43403
275.43403
275.43403
275.43402
275.43402
275.43402
275.43402
275.43402
275.43402
275.43403
275.43403
275.43403
275.43403
275.43402
275.43402
275.43402
275.43402
275.43402
275.43402
275.43403
275.43403
275.43403
275.43403
275.43402
275.43402
275.43402
275.43402
275.43402
275.43403
275.43403
275.43403
275.43403
275.43403
275.43402
275.43402
275.43403
275.43403
275.43403
275.43403
275.43403
275.43403
275.43403
275.43403
275.43403
275.43403
275.43403
275.43403
275.43403
275.43403
275.43403
275.43403
284.93861
284.93862
284.93857
284.93857
284.93858
284.93859
284.93859
284.9386
284.9386
284.93861
284.93862
284.93859
284.93856
284.93856
284.93857
284.93858
284.93858
284.93859
284.9386
284.93861
284.93857
284.93856
284.93853
284.93853
284.93854
284.93855
284.93855
284.93856
284.93857
284.93859
284.93857
284.93856
284.93853
284.93854
284.93855
284.93855
284.93856
284.93856
284.93857
284.93859
284.93858
284.93857
284.93854
284.93855
284.93856
284.93856
284.93856
284.93857
284.93858
284.93859
284.93859
284.93858
284.93855
284.93855
284.93856
284.93856
284.93857
284.93857
284.93858
284.93859
284.93859
284.93858
284.93855
284.93856
284.93856
284.93857
284.93857
284.93857
284.93858
284.93859
284.9386
284.93859
284.93856
284.93856
284.93857
284.93857
284.93857
284.93857
284.93858
284.93859
284.9386
284.9386
284.93857
284.93857
284.93858
284.93858
284.93858
284.93858
284.93859
284.9386
284.93861
284.93861
284.93859
284.93859
284.93859
284.93859
284.93859
284.93859
284.9386
284.93862
294.36392
294.36393
294.36386
294.36387
294.36388
294.36389
294.3639
294.36391
294.36393
294.36393
294.36393
294.36389
294.36384
294.36385
294.36386
294.36387
294.36388
294.36389
294.36392
294.36393
294.36386
294.36384
294.3638
294.36381
294.36382
294.36383
294.36384
294.36385
294.36388
294.3639
294.36387
294.36385
294.36381
294.36382
294.36383
294.36384
294.36385
294.36385
294.36388
294.3639
294.36388
294.36386
294.36382
294.36383
294.36385
294.36385
294.36386
294.36386
294.36388
294.3639
294.36389
294.36387
294.36383
294.36384
294.36385
294.36386
294.36386
294.36386
294.36388
294.3639
294.3639
294.36388
294.36384
294.36385
294.36386
294.36386
294.36386
294.36386
294.36388
294.3639
294.36391
294.36389
294.36385
294.36385
294.36386
294.36386
294.36386
294.36387
294.36389
294.36391
294.36393
294.36392
294.36388
294.36388
294.36388
294.36388
294.36388
294.36389
294.36391
294.36393
294.36393
294.36393
294.3639
294.3639
294.3639
294.3639
294.3639
294.36391
294.36393
294.36395
303.70443
303.70444
303.70435
303.70436
303.70438
303.70439
303.70441
303.70442
303.70445
303.70445
303.70444
303.70439
303.70433
303.70434
303.70436
303.70437
303.70438
303.7044
303.70444
303.70446
303.70435
303.70433
303.70428
303.70429
303.70431
303.70432
303.70433
303.70434
303.70439
303.70442
303.70436
303.70434
303.70429
303.70431
303.70433
303.70434
303.70434
303.70435
303.70439
303.70442
303.70438
303.70436
303.70431
303.70433
303.70434
303.70435
303.70435
303.70436
303.70439
303.70442
303.70439
303.70437
303.70432
303.70434
303.70435
303.70436
303.70436
303.70436
303.7044
303.70442
303.70441
303.70438
303.70433
303.70434
303.70435
303.70436
303.70436
303.70436
303.7044
303.70442
303.70442
303.7044
303.70434
303.70435
303.70436
303.70436
303.70436
303.70437
303.7044
303.70443
303.70445
303.70444
303.70439
303.70439
303.70439
303.7044
303.7044
303.7044
303.70444
303.70448
303.70445
303.70446
303.70442
303.70442
303.70442
303.70442
303.70442
303.70443
303.70448
303.70449
312.95496
312.95497
312.95487
312.95489
312.95491
312.95493
312.95494
312.95496
312.955
312.955
312.95497
312.95491
312.95485
312.95487
312.95489
312.9549
312.95491
312.95494
312.95499
312.95501
312.95487
312.95485
312.95479
312.95481
312.95483
312.95484
312.95485
312.95487
312.95492
312.95497
312.95489
312.95487
312.95481
312.95483
312.95485
312.95486
312.95486
312.95487
312.95492
312.95496
312.95491
312.95489
312.95483
312.95485
312.95487
312.95488
312.95488
312.95488
312.95493
312.95497
312.95493
312.9549
312.95484
312.95486
312.95488
312.95488
312.95488
312.95489
312.95493
312.95496
312.95494
312.95491
312.95485
312.95486
312.95488
312.95488
312.95488
312.95488
312.95493
312.95496
312.95496
312.95494
312.95487
312.95487
312.95488
312.95489
312.95488
312.95489
312.95494
312.95498
312.955
312.95499
312.95492
312.95492
312.95493
312.95493
312.95493
312.95494
312.95499
312.95504
312.955
312.95501
312.95497
312.95496
312.95497
312.95496
312.95496
312.95498
312.95504
312.95506
322.11073
322.11074
322.11063
322.11064
322.11067
322.11069
322.1107
322.11073
322.11077
322.11078
322.11074
322.11067
322.1106
322.11062
322.11065
322.11066
322.11067
322.1107
322.11076
322.11079
322.11063
322.1106
322.11053
322.11056
322.11058
322.11059
322.1106
322.11062
322.11069
322.11074
322.11064
322.11062
322.11056
322.11058
322.11061
322.11062
322.11062
322.11063
322.11069
322.11073
322.11067
322.11065
322.11058
322.11061
322.11063
322.11063
322.11063
322.11064
322.11069
322.11074
322.11069
322.11066
322.11059
322.11062
322.11063
322.11064
322.11063
322.11064
322.11069
322.11073
322.1107
322.11067
322.1106
322.11062
322.11063
322.11063
322.11063
322.11063
322.11069
322.11073
322.11073
322.1107
322.11062
322.11063
322.11064
322.11064
322.11063
322.11064
322.1107
322.11075
322.11077
322.11076
322.11069
322.11069
322.11069
322.11069
322.11069
322.1107
322.11077
322.11083
322.11078
322.11079
322.11074
322.11073
322.11074
322.11073
322.11073
322.11075
322.11083
322.11084
331.16733
331.16734
331.16722
331.16724
331.16727
331.16729
331.16731
331.16733
331.16738
331.16739
331.16734
331.16727
331.16719
331.16722
331.16725
331.16726
331.16727
331.1673
331.16737
331.16741
331.16722
331.16719
331.16712
331.16715
331.16718
331.16719
331.16719
331.16721
331.16729
331.16735
331.16724
331.16722
331.16715
331.16718
331.1672
331.16721
331.16721
331.16722
331.16729
331.16734
331.16727
331.16725
331.16718
331.1672
331.16723
331.16723
331.16723
331.16723
331.1673
331.16735
331.16729
331.16726
331.16719
331.16721
331.16723
331.16724
331.16723
331.16723
331.16729
331.16734
331.16731
331.16727
331.16719
331.16721
331.16723
331.16723
331.16722
331.16722
331.16729
331.16734
331.16733
331.1673
331.16721
331.16722
331.16723
331.16723
331.16722
331.16722
331.16729
331.16735
331.16738
331.16737
331.16729
331.16729
331.1673
331.16729
331.16729
331.16729
331.16738
331.16745
331.16739
331.16741
331.16735
331.16734
331.16735
331.16734
331.16734
331.16735
331.16745
331.16747
340.12081
340.12082
340.12069
340.12072
340.12075
340.12077
340.12079
340.12081
340.12087
340.12088
340.12082
340.12075
340.12066
340.12069
340.12073
340.12074
340.12075
340.12077
340.12086
340.1209
340.12069
340.12066
340.12059
340.12062
340.12065
340.12066
340.12067
340.12068
340.12077
340.12084
340.12072
340.12069
340.12062
340.12066
340.12068
340.12069
340.12069
340.12069
340.12077
340.12083
340.12075
340.12073
340.12065
340.12068
340.12071
340.12071
340.1207
340.1207
340.12078
340.12083
340.12077
340.12074
340.12066
340.12069
340.12071
340.12071
340.1207
340.1207
340.12077
340.12082
340.12079
340.12075
340.12067
340.12069
340.1207
340.1207
340.12069
340.12068
340.12076
340.12081
340.12081
340.12077
340.12068
340.12069
340.1207
340.1207
340.12068
340.12068
340.12076
340.12083
340.12087
340.12086
340.12077
340.12077
340.12078
340.12077
340.12076
340.12076
340.12086
340.12094
340.12088
340.1209
340.12084
340.12083
340.12083
340.12082
340.12081
340.12083
340.12094
340.12096
348.96764
348.96766
348.96752
348.96755
348.96759
348.96761
348.96762
348.96765
348.9677
348.96772
348.96766
348.96758
348.96749
348.96753
348.96756
348.96758
348.96759
348.96761
348.9677
348.96774
348.96752
348.96749
348.96741
348.96745
348.96748
348.9675
348.96749
348.96751
348.9676
348.96767
348.96755
348.96753
348.96745
348.96749
348.96752
348.96753
348.96752
348.96752
348.9676
348.96767
348.96759
348.96756
348.96748
348.96752
348.96755
348.96755
348.96753
348.96753
348.96761
348.96766
348.96761
348.96758
348.9675
348.96753
348.96755
348.96755
348.96753
348.96752
348.9676
348.96765
348.96762
348.96759
348.96749
348.96752
348.96753
348.96753
348.96751
348.9675
348.96758
348.96764
348.96765
348.96761
348.96751
348.96752
348.96753
348.96752
348.9675
348.9675
348.96759
348.96765
348.9677
348.9677
348.9676
348.9676
348.96761
348.9676
348.96758
348.96759
348.96769
348.96778
348.96772
348.96774
348.96767
348.96767
348.96766
348.96765
348.96764
348.96765
348.96778
348.9678
357.70476
357.70478
357.70464
357.70467
357.70471
357.70473
357.70474
357.70476
357.70482
357.70484
357.70478
357.7047
357.70461
357.70465
357.70469
357.7047
357.7047
357.70472
357.70482
357.70486
357.70464
357.70461
357.70453
357.70457
357.7046
357.70461
357.70461
357.70462
357.70472
357.70479
357.70467
357.70465
357.70457
357.70461
357.70464
357.70465
357.70463
357.70463
357.70472
357.70479
357.70471
357.70469
357.7046
357.70464
357.70467
357.70467
357.70465
357.70464
357.70472
357.70478
357.70473
357.7047
357.70461
357.70465
357.70467
357.70467
357.70464
357.70463
357.70471
357.70477
357.70474
357.7047
357.70461
357.70463
357.70465
357.70464
357.70462
357.7046
357.70469
357.70475
357.70476
357.70472
357.70462
357.70463
357.70464
357.70463
357.7046
357.70459
357.70469
357.70476
357.70482
357.70482
357.70472
357.70472
357.70472
357.70471
357.70469
357.70469
357.7048
357.70489
357.70484
357.70486
357.70479
357.70479
357.70478
357.70477
357.70475
357.70476
357.70489
357.70491
366.32955
366.32958
366.32943
366.32947
366.32951
366.32953
366.32953
366.32955
366.32961
366.32963
366.32958
366.32949
366.3294
366.32944
366.32948
366.3295
366.3295
366.32951
366.32961
366.32965
366.32943
366.3294
366.32931
366.32936
366.3294
366.32941
366.3294
366.3294
366.32951
366.32958
366.32947
366.32944
366.32936
366.32941
366.32944
366.32944
366.32942
366.32941
366.32951
366.32958
366.32951
366.32948
366.3294
366.32944
366.32947
366.32947
366.32944
366.32942
366.32951
366.32957
366.32953
366.3295
366.32941
366.32944
366.32947
366.32946
366.32943
366.32941
366.32949
366.32955
366.32953
366.3295
366.3294
366.32942
366.32944
366.32943
366.3294
366.32938
366.32946
366.32953
366.32955
366.32951
366.3294
366.32941
366.32942
366.32941
366.32938
366.32936
366.32946
366.32953
366.32961
366.32961
366.32951
366.32951
366.32951
366.32949
366.32946
366.32946
366.32957
366.32968
366.32963
366.32965
366.32958
366.32958
366.32957
366.32955
366.32953
366.32953
366.32968
366.32969
374.83987
374.8399
374.83974
374.83979
374.83983
374.83985
374.83985
374.83987
374.83993
374.83994
374.8399
374.83981
374.83972
374.83977
374.83981
374.83982
374.83982
374.83983
374.83993
374.83997
374.83974
374.83972
374.83963
374.83969
374.83972
374.83973
374.83971
374.83971
374.83982
374.8399
374.83979
374.83977
374.83969
374.83974
374.83977
374.83977
374.83974
374.83973
374.83982
374.83989
374.83983
374.83981
374.83972
374.83977
374.8398
374.83979
374.83976
374.83974
374.83982
374.83988
374.83985
374.83982
374.83973
374.83977
374.83979
374.83978
374.83975
374.83972
374.8398
374.83986
374.83985
374.83982
374.83971
374.83974
374.83976
374.83975
374.83971
374.83968
374.83977
374.83983
374.83987
374.83983
374.83971
374.83973
374.83974
374.83972
374.83968
374.83966
374.83975
374.83983
374.83993
374.83993
374.83982
374.83982
374.83982
374.8398
374.83977
374.83975
374.83987
374.83998
374.83994
374.83997
374.8399
374.83989
374.83988
374.83986
374.83983
374.83983
374.83998
374.83999
383.23404
383.23407
383.23391
383.23396
383.234
383.23402
383.23402
383.23403
383.23409
383.2341
383.23407
383.23398
383.23389
383.23394
383.23398
383.23399
383.23398
383.23399
383.23409
383.23414
383.23391
383.23389
383.2338
383.23386
383.2339
383.2339
383.23388
383.23387
383.23398
383.23406
383.23396
383.23394
383.23386
383.23391
383.23395
383.23394
383.23391
383.23389
383.23398
383.23405
383.234
383.23398
383.2339
383.23395
383.23398
383.23397
383.23393
383.2339
383.23398
383.23404
383.23402
383.23399
383.2339
383.23394
383.23397
383.23395
383.23391
383.23387
383.23396
383.23402
383.23402
383.23398
383.23388
383.23391
383.23393
383.23391
383.23386
383.23383
383.23391
383.23398
383.23403
383.23399
383.23387
383.23389
383.2339
383.23387
383.23383
383.2338
383.2339
383.23398
383.23409
383.23409
383.23398
383.23398
383.23398
383.23396
383.23391
383.2339
383.23402
383.23413
383.2341
383.23414
383.23406
383.23405
383.23404
383.23402
383.23398
383.23398
383.23413
383.23414
391.51084
391.51087
391.51072
391.51077
391.51081
391.51083
391.51082
391.51083
391.51089
391.5109
391.51087
391.51079
391.51069
391.51075
391.51079
391.5108
391.51079
391.51079
391.51089
391.51093
391.51072
391.51069
391.51061
391.51067
391.51071
391.51071
391.51068
391.51067
391.51078
391.51086
391.51077
391.51075
391.51067
391.51073
391.51076
391.51076
391.51072
391.51069
391.51078
391.51085
391.51081
391.51079
391.51071
391.51076
391.51079
391.51078
391.51073
391.51069
391.51078
391.51084
391.51083
391.5108
391.51071
391.51076
391.51078
391.51076
391.51071
391.51067
391.51075
391.5108
391.51082
391.51079
391.51068
391.51072
391.51073
391.51071
391.51066
391.51061
391.5107
391.51076
391.51083
391.51079
391.51067
391.51069
391.51069
391.51067
391.51061
391.51058
391.51067
391.51075
391.51089
391.51089
391.51078
391.51078
391.51078
391.51075
391.5107
391.51067
391.5108
391.51091
391.5109
391.51093
391.51086
391.51085
391.51084
391.5108
391.51076
391.51075
391.51091
391.51092
399.66953
399.66957
399.66941
399.66947
399.66951
399.66953
399.66952
399.66952
399.66958
399.66958
399.66957
399.66949
399.66939
399.66945
399.6695
399.6695
399.66948
399.66948
399.66958
399.66962
399.66941
399.66939
399.66931
399.66938
399.66941
399.66941
399.66938
399.66936
399.66947
399.66954
399.66947
399.66945
399.66938
399.66944
399.66947
399.66946
399.66941
399.66938
399.66947
399.66953
399.66951
399.6695
399.66941
399.66947
399.6695
399.66948
399.66943
399.66938
399.66946
399.66952
399.66953
399.6695
399.66941
399.66946
399.66948
399.66946
399.6694
399.66935
399.66943
399.66948
399.66952
399.66948
399.66938
399.66941
399.66943
399.6694
399.66934
399.66929
399.66937
399.66943
399.66952
399.66948
399.66936
399.66938
399.66938
399.66935
399.66929
399.66924
399.66934
399.66942
399.66958
399.66958
399.66947
399.66947
399.66946
399.66943
399.66937
399.66934
399.66946
399.66958
399.66958
399.66962
399.66954
399.66953
399.66952
399.66948
399.66943
399.66942
399.66958
399.66958
407.70982
407.70986
407.70971
407.70976
407.70981
407.70982
407.70981
407.70981
407.70986
407.70986
407.70986
407.70978
407.70969
407.70976
407.7098
407.7098
407.70978
407.70977
407.70986
407.7099
407.70971
407.70969
407.70961
407.70968
407.70972
407.70971
407.70967
407.70965
407.70975
407.70983
407.70976
407.70976
407.70968
407.70974
407.70978
407.70976
407.70971
407.70966
407.70975
407.70981
407.70981
407.7098
407.70972
407.70978
407.7098
407.70978
407.70972
407.70967
407.70974
407.7098
407.70982
407.7098
407.70971
407.70976
407.70978
407.70976
407.70969
407.70963
407.70971
407.70976
407.70981
407.70978
407.70967
407.70971
407.70972
407.70969
407.70963
407.70956
407.70964
407.7097
407.70981
407.70977
407.70965
407.70966
407.70967
407.70963
407.70956
407.70951
407.7096
407.70968
407.70986
407.70986
407.70975
407.70975
407.70974
407.70971
407.70964
407.7096
407.70972
407.70984
407.70986
407.7099
407.70983
407.70981
407.7098
407.70976
407.7097
407.70968
407.70984
407.70984
415.63188
415.63192
415.63177
415.63183
415.63187
415.63188
415.63186
415.63185
415.6319
415.6319
415.63192
415.63184
415.63175
415.63182
415.63186
415.63186
415.63183
415.63182
415.63191
415.63194
415.63177
415.63175
415.63168
415.63175
415.63179
415.63178
415.63173
415.6317
415.6318
415.63187
415.63183
415.63182
415.63175
415.63181
415.63185
415.63183
415.63177
415.63172
415.6318
415.63186
415.63187
415.63186
415.63179
415.63185
415.63187
415.63185
415.63178
415.63172
415.63179
415.63184
415.63188
415.63186
415.63178
415.63183
415.63185
415.63182
415.63175
415.63168
415.63175
415.63179
415.63186
415.63183
415.63173
415.63177
415.63178
415.63175
415.63167
415.6316
415.63168
415.63173
415.63185
415.63182
415.6317
415.63172
415.63172
415.63168
415.6316
415.63154
415.63163
415.6317
415.6319
415.63191
415.6318
415.6318
415.63179
415.63175
415.63168
415.63163
415.63175
415.63186
415.6319
415.63194
415.63187
415.63186
415.63184
415.63179
415.63173
415.6317
415.63186
415.63185
423.4363
423.43634
423.4362
423.43626
423.4363
423.43631
423.43629
423.43627
423.43632
423.43631
423.43634
423.43627
423.43619
423.43626
423.4363
423.4363
423.43626
423.43623
423.43632
423.43635
423.4362
423.43619
423.43612
423.43619
423.43622
423.43621
423.43616
423.43612
423.43621
423.43628
423.43626
423.43626
423.43619
423.43625
423.43628
423.43626
423.4362
423.43614
423.43621
423.43627
423.4363
423.4363
423.43622
423.43628
423.43631
423.43628
423.43621
423.43613
423.4362
423.43625
423.43631
423.4363
423.43621
423.43626
423.43628
423.43625
423.43617
423.43609
423.43615
423.4362
423.43629
423.43626
423.43616
423.4362
423.43621
423.43617
423.43609
423.43601
423.43608
423.43612
423.43627
423.43623
423.43612
423.43614
423.43613
423.43609
423.43601
423.43594
423.43602
423.43609
423.43632
423.43632
423.43621
423.43621
423.4362
423.43615
423.43608
423.43602
423.43614
423.43625
423.43631
423.43635
423.43628
423.43627
423.43625
423.4362
423.43612
423.43609
423.43625
423.43624
431.12413
431.12417
431.12403
431.12409
431.12414
431.12414
431.12411
431.12409
431.12413
431.12412
431.12417
431.1241
431.12402
431.12409
431.12413
431.12413
431.12409
431.12406
431.12414
431.12417
431.12403
431.12402
431.12396
431.12403
431.12406
431.12405
431.12399
431.12394
431.12403
431.1241
431.12409
431.12409
431.12403
431.12409
431.12412
431.1241
431.12403
431.12396
431.12403
431.12408
431.12414
431.12413
431.12406
431.12412
431.12415
431.12412
431.12404
431.12396
431.12402
431.12406
431.12414
431.12413
431.12405
431.1241
431.12412
431.12408
431.12399
431.12391
431.12397
431.124
431.12411
431.12409
431.12399
431.12403
431.12404
431.12399
431.12391
431.12382
431.12388
431.12393
431.12409
431.12406
431.12394
431.12396
431.12396
431.12391
431.12382
431.12374
431.12382
431.12389
431.12413
431.12414
431.12403
431.12403
431.12402
431.12397
431.12388
431.12382
431.12393
431.12404
431.12412
431.12417
431.1241
431.12408
431.12406
431.124
431.12393
431.12389
431.12404
431.12402
438.69681
438.69686
438.69672
438.69678
438.69683
438.69683
438.6968
438.69677
438.6968
438.69679
438.69686
438.69679
438.69672
438.69679
438.69683
438.69682
438.69677
438.69674
438.69681
438.69684
438.69672
438.69672
438.69666
438.69673
438.69676
438.69674
438.69668
438.69662
438.69671
438.69677
438.69678
438.69679
438.69673
438.69679
438.69682
438.69679
438.69672
438.69664
438.69671
438.69675
438.69683
438.69683
438.69676
438.69682
438.69684
438.69681
438.69672
438.69664
438.69669
438.69673
438.69683
438.69682
438.69674
438.69679
438.69681
438.69677
438.69668
438.69658
438.69663
438.69667
438.6968
438.69677
438.69668
438.69672
438.69672
438.69668
438.69658
438.69649
438.69655
438.69658
438.69677
438.69674
438.69662
438.69664
438.69664
438.69658
438.69649
438.69641
438.69648
438.69654
438.6968
438.69681
438.69671
438.69671
438.69669
438.69663
438.69655
438.69648
438.69658
438.69669
438.69679
438.69684
438.69677
438.69675
438.69673
438.69667
438.69658
438.69654
438.69669
438.69667
446.15621
446.15626
446.15613
446.15619
446.15623
446.15623
446.15619
446.15616
446.15619
446.15617
446.15626
446.1562
446.15613
446.1562
446.15624
446.15622
446.15617
446.15613
446.1562
446.15622
446.15613
446.15613
446.15607
446.15614
446.15617
446.15615
446.15608
446.15602
446.1561
446.15615
446.15619
446.1562
446.15614
446.15621
446.15623
446.1562
446.15612
446.15604
446.1561
446.15614
446.15623
446.15624
446.15617
446.15623
446.15625
446.15621
446.15612
446.15603
446.15608
446.15611
446.15623
446.15622
446.15615
446.1562
446.15621
446.15617
446.15607
446.15597
446.15602
446.15604
446.15619
446.15617
446.15608
446.15612
446.15612
446.15607
446.15597
446.15587
446.15592
446.15596
446.15616
446.15613
446.15602
446.15604
446.15603
446.15597
446.15587
446.15578
446.15585
446.1559
446.15619
446.1562
446.1561
446.1561
446.15608
446.15602
446.15592
446.15585
446.15594
446.15605
446.15617
446.15622
446.15615
446.15614
446.15611
446.15604
446.15596
446.1559
446.15605
446.15602
453.50456
453.50461
453.50449
453.50455
453.50459
453.50458
453.50454
453.50451
453.50453
453.50451
453.50461
453.50456
453.50449
453.50456
453.5046
453.50458
453.50453
453.50448
453.50454
453.50456
453.50449
453.50449
453.50444
453.50451
453.50454
453.50451
453.50444
453.50437
453.50444
453.50449
453.50455
453.50456
453.50451
453.50457
453.5046
453.50456
453.50448
453.50439
453.50444
453.50448
453.50459
453.5046
453.50454
453.5046
453.50462
453.50457
453.50448
453.50438
453.50442
453.50444
453.50458
453.50458
453.50451
453.50456
453.50457
453.50453
453.50442
453.50432
453.50436
453.50438
453.50454
453.50453
453.50444
453.50448
453.50448
453.50442
453.50432
453.50422
453.50426
453.50429
453.50451
453.50448
453.50437
453.50439
453.50438
453.50432
453.50422
453.50412
453.50418
453.50423
453.50453
453.50454
453.50444
453.50444
453.50442
453.50436
453.50426
453.50418
453.50426
453.50436
453.50451
453.50456
453.50449
453.50448
453.50444
453.50438
453.50429
453.50423
453.50436
453.50434
460.74448
460.74454
460.74442
460.74448
460.74452
460.74451
460.74446
460.74442
460.74444
460.74442
460.74454
460.74449
460.74442
460.74449
460.74453
460.74451
460.74445
460.74439
460.74445
460.74446
460.74442
460.74442
460.74437
460.74444
460.74447
460.74444
460.74437
460.74429
460.74436
460.7444
460.74448
460.74449
460.74444
460.74451
460.74453
460.74449
460.7444
460.74431
460.74435
460.74438
460.74452
460.74453
460.74447
460.74453
460.74455
460.7445
460.7444
460.7443
460.74433
460.74435
460.74451
460.74451
460.74444
460.74449
460.7445
460.74445
460.74435
460.74423
460.74426
460.74428
460.74446
460.74445
460.74437
460.7444
460.7444
460.74435
460.74424
460.74413
460.74416
460.74418
460.74442
460.74439
460.74429
460.74431
460.7443
460.74423
460.74413
460.74403
460.74407
460.74412
460.74444
460.74445
460.74436
460.74435
460.74433
460.74426
460.74416
460.74407
460.74416
460.74425
460.74442
460.74446
460.7444
460.74438
460.74435
460.74428
460.74418
460.74412
460.74425
460.74422
467.87893
467.87899
467.87888
467.87894
467.87897
467.87896
467.87891
467.87886
467.87888
467.87885
467.87899
467.87894
467.87889
467.87895
467.87899
467.87896
467.8789
467.87884
467.87889
467.8789
467.87888
467.87889
467.87884
467.87891
467.87893
467.8789
467.87882
467.87874
467.8788
467.87884
467.87894
467.87895
467.87891
467.87897
467.87899
467.87895
467.87886
467.87876
467.8788
467.87882
467.87897
467.87899
467.87893
467.87899
467.87901
467.87896
467.87886
467.87875
467.87877
467.87879
467.87896
467.87896
467.8789
467.87895
467.87896
467.8789
467.8788
467.87868
467.8787
467.87872
467.87891
467.8789
467.87882
467.87886
467.87886
467.8788
467.87869
467.87857
467.8786
467.87862
467.87886
467.87884
467.87874
467.87876
467.87875
467.87868
467.87857
467.87846
467.87851
467.87855
467.87888
467.87889
467.8788
467.8788
467.87877
467.8787
467.8786
467.87851
467.87858
467.87867
467.87885
467.8789
467.87884
467.87882
467.87879
467.87872
467.87862
467.87855
467.87867
467.87864
474.91121
474.91126
474.91116
474.91122
474.91125
474.91123
474.91118
474.91113
474.91114
474.91111
474.91126
474.91122
474.91117
474.91123
474.91126
474.91124
474.91117
474.91111
474.91115
474.91116
474.91116
474.91117
474.91113
474.91119
474.91122
474.91118
474.9111
474.91102
474.91107
474.9111
474.91122
474.91123
474.91119
474.91125
474.91127
474.91123
474.91113
474.91103
474.91106
474.91108
474.91125
474.91126
474.91122
474.91127
474.91128
474.91123
474.91113
474.91101
474.91103
474.91104
474.91123
474.91124
474.91118
474.91123
474.91123
474.91117
474.91107
474.91095
474.91096
474.91097
474.91118
474.91117
474.9111
474.91113
474.91113
474.91107
474.91095
474.91084
474.91086
474.91087
474.91113
474.91111
474.91102
474.91103
474.91101
474.91095
474.91084
474.91073
474.91076
474.9108
474.91114
474.91115
474.91107
474.91106
474.91103
474.91096
474.91086
474.91076
474.91083
474.91091
474.91111
474.91116
474.9111
474.91108
474.91104
474.91097
474.91087
474.9108
474.91091
474.91087
481.8449
481.84495
481.84485
481.84491
481.84494
481.84492
481.84487
481.84481
481.84482
481.84479
481.84495
481.84492
481.84487
481.84493
481.84496
481.84493
481.84486
481.8448
481.84483
481.84483
481.84485
481.84487
481.84483
481.84489
481.84492
481.84488
481.84479
481.84471
481.84475
481.84478
481.84491
481.84493
481.84489
481.84495
481.84497
481.84492
481.84483
481.84472
481.84474
481.84476
481.84494
481.84496
481.84492
481.84497
481.84497
481.84492
481.84482
481.8447
481.84471
481.84472
481.84492
481.84493
481.84488
481.84492
481.84492
481.84486
481.84475
481.84463
481.84464
481.84465
481.84487
481.84486
481.84479
481.84483
481.84482
481.84475
481.84464
481.84452
481.84453
481.84454
481.84481
481.8448
481.84471
481.84472
481.8447
481.84463
481.84452
481.84441
481.84444
481.84447
481.84482
481.84483
481.84475
481.84474
481.84471
481.84464
481.84453
481.84444
481.8445
481.84457
481.84479
481.84483
481.84478
481.84476
481.84472
481.84465
481.84454
481.84447
481.84457
481.84453
488.68389
488.68394
488.68385
488.68391
488.68394
488.68391
488.68386
488.6838
488.6838
488.68377
488.68394
488.68391
488.68387
488.68393
488.68395
488.68392
488.68385
488.68378
488.68381
488.68381
488.68385
488.68387
488.68384
488.6839
488.68391
488.68388
488.68379
488.6837
488.68374
488.68376
488.68391
488.68393
488.6839
488.68395
488.68396
488.68392
488.68382
488.68371
488.68373
488.68374
488.68394
488.68395
488.68391
488.68396
488.68397
488.68391
488.68381
488.68369
488.6837
488.6837
488.68391
488.68392
488.68388
488.68392
488.68391
488.68385
488.68374
488.68362
488.68363
488.68362
488.68386
488.68385
488.68379
488.68382
488.68381
488.68374
488.68363
488.68351
488.68352
488.68352
488.6838
488.68378
488.6837
488.68371
488.68369
488.68362
488.68351
488.6834
488.68342
488.68344
488.6838
488.68381
488.68374
488.68373
488.6837
488.68363
488.68352
488.68342
488.68347
488.68354
488.68377
488.68381
488.68376
488.68374
488.6837
488.68362
488.68352
488.68344
488.68354
488.6835
495.43233
495.43238
495.4323
495.43235
495.43237
495.43235
495.43229
495.43223
495.43222
495.43219
495.43238
495.43235
495.43232
495.43237
495.43239
495.43236
495.43229
495.43222
495.43224
495.43223
495.4323
495.43232
495.43229
495.43234
495.43236
495.43232
495.43223
495.43214
495.43217
495.43218
495.43235
495.43237
495.43234
495.43239
495.4324
495.43235
495.43226
495.43215
495.43216
495.43216
495.43237
495.43239
495.43236
495.4324
495.4324
495.43235
495.43224
495.43213
495.43213
495.43213
495.43235
495.43236
495.43232
495.43235
495.43235
495.43229
495.43218
495.43206
495.43206
495.43205
495.43229
495.43229
495.43223
495.43226
495.43224
495.43218
495.43207
495.43195
495.43195
495.43195
495.43223
495.43222
495.43214
495.43215
495.43213
495.43206
495.43195
495.43183
495.43185
495.43187
495.43222
495.43224
495.43217
495.43216
495.43213
495.43206
495.43195
495.43185
495.43189
495.43196
495.43219
495.43223
495.43218
495.43216
495.43213
495.43205
495.43195
495.43187
495.43196
495.43192
502.09459
502.09464
502.09457
502.09462
502.09464
502.09461
502.09455
502.09449
502.09448
502.09445
502.09464
502.09462
502.09459
502.09464
502.09466
502.09462
502.09455
502.09448
502.0945
502.09449
502.09457
502.09459
502.09457
502.09462
502.09463
502.09459
502.0945
502.09441
502.09443
502.09444
502.09462
502.09464
502.09462
502.09466
502.09467
502.09462
502.09452
502.09442
502.09442
502.09442
502.09464
502.09466
502.09463
502.09467
502.09467
502.09461
502.09451
502.09439
502.09439
502.09438
502.09461
502.09462
502.09459
502.09462
502.09461
502.09455
502.09444
502.09432
502.09432
502.09431
502.09455
502.09455
502.0945
502.09452
502.09451
502.09444
502.09433
502.09421
502.09421
502.09421
502.09449
502.09448
502.09441
502.09442
502.09439
502.09432
502.09421
502.0941
502.09411
502.09413
502.09448
502.0945
502.09443
502.09442
502.09439
502.09432
502.09421
502.09411
502.09415
502.09421
502.09445
502.09449
502.09444
502.09442
502.09438
502.09431
502.09421
502.09413
502.09421
502.09416
508.67528
508.67533
508.67527
508.67531
508.67532
508.6753
508.67524
508.67517
508.67516
508.67513
508.67533
508.67531
508.67528
508.67533
508.67534
508.67531
508.67524
508.67516
508.67518
508.67516
508.67527
508.67528
508.67526
508.67531
508.67532
508.67527
508.67519
508.6751
508.67512
508.67512
508.67531
508.67533
508.67531
508.67535
508.67535
508.6753
508.67521
508.6751