/*--------------------------------*- C++ -*----------------------------------*\
| =========                 |                                                 |
| \\      /  F ield         | OpenFOAM: The Open Source CFD Toolbox           |
|  \\    /   O peration     | Version:  v2106                                 |
|   \\  /    A nd           | Website:  www.openfoam.com                      |
|    \\/     M anipulation  |                                                 |
\*---------------------------------------------------------------------------*/
FoamFile
{
    version     2.0;
    format      ascii;
    arch        "LSB;label=32;scalar=64";
    class       volVectorField;
    location    "62.5";
    object      flux;
}
// * * * * * * * * * * * * * * * * * * * * * * * * * * * * * * * * * * * * * //

dimensions      [0 1 -1 1 0 0 0];

internalField   nonuniform List<vector> 
4000
(
(-7.1058986e-07 -7.1058986e-07 0.71932584)
(-1.5647484e-06 -6.302824e-07 0.7193206)
(-7.9532698e-07 -6.1172698e-07 0.71931805)
(-4.3886245e-07 -6.0457888e-07 0.71931651)
(-1.5126866e-07 -6.0042596e-07 0.71931577)
(1.0024327e-07 -5.9662786e-07 0.71931573)
(3.1643818e-07 -5.9141006e-07 0.71931632)
(4.7615428e-07 -5.817325e-07 0.71931742)
(5.1339486e-07 -5.5983983e-07 0.71931887)
(1.6304398e-07 -5.0651059e-07 0.71932025)
(-6.302824e-07 -1.5647484e-06 0.7193206)
(-1.4164541e-06 -1.4164541e-06 0.71931598)
(-7.5677169e-07 -1.3700505e-06 0.71931358)
(-4.2191092e-07 -1.3472966e-06 0.7193121)
(-1.3934213e-07 -1.3318909e-06 0.71931139)
(1.1376712e-07 -1.317328e-06 0.71931138)
(3.3878122e-07 -1.2987083e-06 0.71931201)
(5.2350962e-07 -1.2687068e-06 0.71931319)
(6.2622773e-07 -1.2125361e-06 0.71931482)
(2.1637323e-07 -1.1035112e-06 0.7193167)
(-6.1172698e-07 -7.9532698e-07 0.71931805)
(-1.3700505e-06 -7.5677169e-07 0.71931358)
(-7.2616946e-07 -7.2616946e-07 0.71931127)
(-4.0070292e-07 -7.0330656e-07 0.71930985)
(-1.2130009e-07 -6.8424929e-07 0.71930919)
(1.3342589e-07 -6.6551212e-07 0.71930923)
(3.6505944e-07 -6.4377341e-07 0.71930991)
(5.6232652e-07 -6.153452e-07 0.71931118)
(6.7859039e-07 -5.7725239e-07 0.71931293)
(2.3572722e-07 -5.3551492e-07 0.71931496)
(-6.0457888e-07 -4.3886246e-07 0.71931651)
(-1.3472966e-06 -4.2191092e-07 0.7193121)
(-7.0330656e-07 -4.0070293e-07 0.71930985)
(-3.7999075e-07 -3.7999076e-07 0.71930849)
(-1.0154769e-07 -3.6026104e-07 0.71930788)
(1.5424299e-07 -3.4051873e-07 0.71930797)
(3.8894813e-07 -3.1939207e-07 0.71930871)
(5.9003064e-07 -2.9593422e-07 0.71931004)
(7.0605801e-07 -2.71214e-07 0.71931188)
(2.441982e-07 -2.5164195e-07 0.71931397)
(-6.0042595e-07 -1.5126866e-07 0.71931577)
(-1.3318909e-06 -1.3934213e-07 0.71931139)
(-6.842493e-07 -1.2130008e-07 0.71930919)
(-3.6026104e-07 -1.015477e-07 0.71930788)
(-8.1828056e-08 -8.1828066e-08 0.71930733)
(1.7429485e-07 -6.232667e-08 0.71930747)
(4.0964394e-07 -4.275049e-08 0.71930826)
(6.1050459e-07 -2.3290846e-08 0.71930965)
(7.2288267e-07 -5.6798938e-09 0.71931154)
(2.4877526e-07 5.9095581e-09 0.71931366)
(-5.9662786e-07 1.0024327e-07 0.71931573)
(-1.317328e-06 1.1376711e-07 0.71931138)
(-6.6551213e-07 1.3342589e-07 0.71930923)
(-3.4051873e-07 1.5424299e-07 0.71930797)
(-6.2326656e-08 1.7429485e-07 0.71930747)
(1.9332056e-07 1.9332056e-07 0.71930766)
(4.2798396e-07 2.115061e-07 0.7193085)
(6.2710124e-07 2.2858275e-07 0.71930994)
(7.3525841e-07 2.4308733e-07 0.71931186)
(2.519245e-07 2.5203145e-07 0.71931402)
(-5.9141006e-07 3.1643818e-07 0.71931632)
(-1.2987083e-06 3.3878122e-07 0.71931201)
(-6.4377341e-07 3.6505944e-07 0.71930991)
(-3.1939208e-07 3.8894813e-07 0.71930871)
(-4.275049e-08 4.0964395e-07 0.71930826)
(2.115061e-07 4.2798395e-07 0.7193085)
(4.4490613e-07 4.4490612e-07 0.71930939)
(6.4208583e-07 4.6075294e-07 0.71931087)
(7.4633137e-07 4.7464249e-07 0.71931283)
(2.54738e-07 4.8375251e-07 0.71931501)
(-5.817325e-07 4.7615428e-07 0.71931742)
(-1.2687068e-06 5.2350963e-07 0.71931319)
(-6.1534522e-07 5.6232652e-07 0.71931118)
(-2.9593423e-07 5.9003064e-07 0.71931004)
(-2.3290836e-08 6.105046e-07 0.71930965)
(2.2858274e-07 6.2710124e-07 0.71930994)
(4.6075294e-07 6.4208582e-07 0.71931087)
(6.5683761e-07 6.5683761e-07 0.71931239)
(7.5825798e-07 6.715136e-07 0.71931439)
(2.5799785e-07 6.8323968e-07 0.71931659)
(-5.5983982e-07 5.1339486e-07 0.71931887)
(-1.2125361e-06 6.2622773e-07 0.71931482)
(-5.7725241e-07 6.7859038e-07 0.71931293)
(-2.71214e-07 7.0605802e-07 0.71931188)
(-5.6798839e-09 7.2288267e-07 0.71931154)
(2.4308732e-07 7.3525841e-07 0.71931186)
(4.7464249e-07 7.4633138e-07 0.71931283)
(6.715136e-07 7.5825799e-07 0.71931439)
(7.7273345e-07 7.7273346e-07 0.71931643)
(2.6255539e-07 7.8860253e-07 0.71931867)
(-5.0651059e-07 1.6304398e-07 0.71932025)
(-1.1035112e-06 2.1637322e-07 0.7193167)
(-5.3551493e-07 2.3572721e-07 0.71931496)
(-2.5164194e-07 2.441982e-07 0.71931397)
(5.9095571e-09 2.4877525e-07 0.71931366)
(2.5203144e-07 2.519245e-07 0.71931402)
(4.8375252e-07 2.54738e-07 0.71931501)
(6.832397e-07 2.5799785e-07 0.71931659)
(7.8860252e-07 2.6255539e-07 0.71931867)
(2.6857722e-07 2.6857723e-07 0.71932098)
(-3.1218392e-06 -3.1218392e-06 1.0700434)
(-7.0138047e-06 -2.7304908e-06 1.0700369)
(-3.7520094e-06 -2.6440273e-06 1.0700334)
(-2.1056133e-06 -2.610211e-06 1.0700313)
(-7.17489e-07 -2.5900143e-06 1.0700303)
(5.1618799e-07 -2.5713465e-06 1.0700303)
(1.5908436e-06 -2.5455499e-06 1.0700312)
(2.4164079e-06 -2.4968815e-06 1.0700329)
(2.7169654e-06 -2.3805219e-06 1.0700353)
(8.9491612e-07 -2.0450019e-06 1.070038)
(-2.7304908e-06 -7.0138047e-06 1.0700369)
(-6.2970868e-06 -6.2970868e-06 1.0700312)
(-3.5715897e-06 -6.0803682e-06 1.0700279)
(-2.0245938e-06 -5.9717236e-06 1.0700258)
(-6.5919214e-07 -5.8966606e-06 1.0700249)
(5.8288456e-07 -5.8251629e-06 1.0700249)
(1.7025411e-06 -5.7333597e-06 1.0700259)
(2.6639499e-06 -5.5838767e-06 1.0700278)
(3.3947847e-06 -5.2934739e-06 1.0700304)
(1.230436e-06 -4.6506754e-06 1.070034)
(-2.6440273e-06 -3.7520094e-06 1.0700334)
(-6.0803682e-06 -3.5715897e-06 1.0700279)
(-3.4266462e-06 -3.4266462e-06 1.0700248)
(-1.9219057e-06 -3.3159908e-06 1.0700228)
(-5.7092833e-07 -3.2228519e-06 1.0700219)
(6.7948882e-07 -3.1309035e-06 1.070022)
(1.8321298e-06 -3.0239947e-06 1.0700231)
(2.8562937e-06 -2.8838403e-06 1.0700251)
(3.6501667e-06 -2.6953494e-06 1.0700279)
(1.3234485e-06 -2.4937467e-06 1.0700317)
(-2.610211e-06 -2.1056133e-06 1.0700313)
(-5.9717236e-06 -2.0245938e-06 1.0700258)
(-3.3159908e-06 -1.9219057e-06 1.0700228)
(-1.8207995e-06 -1.8207995e-06 1.0700209)
(-4.7410483e-07 -1.7241159e-06 1.0700201)
(7.8174177e-07 -1.6271795e-06 1.0700203)
(1.9496043e-06 -1.5233305e-06 1.0700214)
(2.9925951e-06 -1.4079417e-06 1.0700235)
(3.7848783e-06 -1.2863324e-06 1.0700265)
(1.3648378e-06 -1.1904986e-06 1.0700303)
(-2.5900142e-06 -7.1748899e-07 1.0700303)
(-5.8966606e-06 -6.5919213e-07 1.0700249)
(-3.2228519e-06 -5.7092833e-07 1.0700219)
(-1.7241159e-06 -4.7410483e-07 1.0700201)
(-3.773083e-07 -3.7730832e-07 1.0700193)
(8.8027429e-07 -2.8148335e-07 1.0700196)
(2.0513676e-06 -1.8520832e-07 1.0700208)
(3.0932918e-06 -8.9437167e-08 1.070023)
(3.8676098e-06 -2.7206928e-09 1.0700261)
(1.3873376e-06 5.4371274e-08 1.0700299)
(-2.5713465e-06 5.1618799e-07 1.0700303)
(-5.8251629e-06 5.8288454e-07 1.0700249)
(-3.1309035e-06 6.7948883e-07 1.070022)
(-1.6271795e-06 7.8174177e-07 1.0700203)
(-2.8148335e-07 8.8027429e-07 1.0700196)
(9.7384176e-07 9.7384175e-07 1.0700199)
(2.1416505e-06 1.0633927e-06 1.0700212)
(3.1750828e-06 1.1476496e-06 1.0700235)
(3.9286867e-06 1.219436e-06 1.0700266)
(1.4028991e-06 1.2639206e-06 1.0700305)
(-2.5455499e-06 1.5908436e-06 1.0700312)
(-5.7333597e-06 1.7025411e-06 1.0700259)
(-3.0239947e-06 1.8321298e-06 1.0700231)
(-1.5233305e-06 1.9496043e-06 1.0700214)
(-1.8520832e-07 2.0513676e-06 1.0700208)
(1.0633927e-06 2.1416505e-06 1.0700212)
(2.2251755e-06 2.2251755e-06 1.0700226)
(3.2493351e-06 2.3038217e-06 1.0700249)
(3.9838808e-06 2.3735085e-06 1.0700281)
(1.416994e-06 2.4201506e-06 1.0700321)
(-2.4968815e-06 2.4164079e-06 1.0700329)
(-5.5838767e-06 2.6639499e-06 1.0700278)
(-2.8838403e-06 2.8562937e-06 1.0700251)
(-1.4079417e-06 2.9925951e-06 1.0700235)
(-8.9437173e-08 3.0932918e-06 1.070023)
(1.1476496e-06 3.1750828e-06 1.0700235)
(2.3038217e-06 3.2493351e-06 1.0700249)
(3.3234158e-06 3.3234158e-06 1.0700273)
(4.0450157e-06 3.3994016e-06 1.0700305)
(1.4339939e-06 3.4643006e-06 1.0700346)
(-2.3805219e-06 2.7169654e-06 1.0700353)
(-5.2934739e-06 3.3947847e-06 1.0700304)
(-2.6953494e-06 3.6501667e-06 1.0700279)
(-1.2863324e-06 3.7848783e-06 1.0700265)
(-2.7206913e-09 3.8676098e-06 1.0700261)
(1.219436e-06 3.9286867e-06 1.0700266)
(2.3735085e-06 3.9838808e-06 1.0700281)
(3.3994016e-06 4.0450157e-06 1.0700305)
(4.1247656e-06 4.1247656e-06 1.0700338)
(1.46026e-06 4.2310878e-06 1.070038)
(-2.0450019e-06 8.9491611e-07 1.070038)
(-4.6506754e-06 1.230436e-06 1.070034)
(-2.4937467e-06 1.3234485e-06 1.0700317)
(-1.1904986e-06 1.3648378e-06 1.0700303)
(5.4371269e-08 1.3873376e-06 1.0700299)
(1.2639206e-06 1.4028991e-06 1.0700305)
(2.4201506e-06 1.416994e-06 1.0700321)
(3.4643006e-06 1.4339939e-06 1.0700346)
(4.2310878e-06 1.46026e-06 1.070038)
(1.5048754e-06 1.5048754e-06 1.0700423)
(-5.0690369e-06 -5.0690369e-06 1.070145)
(-1.1541504e-05 -4.4343962e-06 1.0701394)
(-6.376393e-06 -4.291911e-06 1.0701364)
(-3.6039459e-06 -4.2342719e-06 1.0701344)
(-1.1764036e-06 -4.198844e-06 1.0701336)
(1.0286228e-06 -4.1655616e-06 1.0701337)
(2.9994824e-06 -4.1191794e-06 1.0701347)
(4.624455e-06 -4.0309677e-06 1.0701366)
(5.5904218e-06 -3.8177458e-06 1.0701393)
(1.9506169e-06 -3.1948684e-06 1.0701426)
(-4.4343962e-06 -1.1541504e-05 1.0701394)
(-1.0375816e-05 -1.0375816e-05 1.0701345)
(-6.0762066e-06 -1.0014791e-05 1.0701316)
(-3.4643454e-06 -9.8278445e-06 1.0701298)
(-1.0733381e-06 -9.695692e-06 1.070129)
(1.1481198e-06 -9.5682335e-06 1.0701291)
(3.2013733e-06 -9.4034996e-06 1.0701302)
(5.0766052e-06 -9.1337821e-06 1.0701322)
(6.8445706e-06 -8.6060191e-06 1.0701352)
(2.5734943e-06 -7.4275777e-06 1.0701394)
(-4.291911e-06 -6.376393e-06 1.0701364)
(-1.0014791e-05 -6.0762066e-06 1.0701316)
(-5.8284219e-06 -5.8284219e-06 1.0701289)
(-3.2848472e-06 -5.6351736e-06 1.0701271)
(-9.1679256e-07 -5.4702978e-06 1.0701263)
(1.3208151e-06 -5.3062793e-06 1.0701266)
(3.4339338e-06 -5.1148039e-06 1.0701277)
(5.4219355e-06 -4.8632959e-06 1.0701299)
(7.2966262e-06 -4.5254591e-06 1.0701331)
(2.7362445e-06 -4.1716397e-06 1.0701374)
(-4.2342719e-06 -3.6039459e-06 1.0701344)
(-9.8278445e-06 -3.4643454e-06 1.0701298)
(-5.6351736e-06 -3.2848472e-06 1.0701271)
(-3.1062213e-06 -3.1062213e-06 1.0701254)
(-7.4444385e-07 -2.9342322e-06 1.0701247)
(1.5036137e-06 -2.7610596e-06 1.070125)
(3.6443566e-06 -2.575078e-06 1.0701263)
(5.6659501e-06 -2.3682217e-06 1.0701285)
(7.5362269e-06 -2.1505044e-06 1.0701318)
(2.8093739e-06 -1.9804989e-06 1.0701363)
(-4.198844e-06 -1.1764036e-06 1.0701336)
(-9.695692e-06 -1.0733381e-06 1.070129)
(-5.4702978e-06 -9.1679256e-07 1.0701263)
(-2.9342322e-06 -7.4444384e-07 1.0701247)
(-5.7163081e-07 -5.7163081e-07 1.0701241)
(1.6799694e-06 -4.0012689e-07 1.0701245)
(3.8267717e-06 -2.2745232e-07 1.0701258)
(5.8465091e-06 -5.5390441e-08 1.0701281)
(7.6843491e-06 1.0054104e-07 1.0701315)
(2.8495816e-06 2.0311465e-07 1.070136)
(-4.1655616e-06 1.0286228e-06 1.0701337)
(-9.5682335e-06 1.1481198e-06 1.0701291)
(-5.3062793e-06 1.3208151e-06 1.0701266)
(-2.7610596e-06 1.5036137e-06 1.070125)
(-4.001269e-07 1.6799694e-06 1.0701245)
(1.8477922e-06 1.8477922e-06 1.0701249)
(3.9890931e-06 2.0089246e-06 1.0701263)
(5.9939434e-06 2.1612484e-06 1.0701287)
(7.794732e-06 2.2919349e-06 1.0701321)
(2.8777563e-06 2.3737233e-06 1.0701367)
(-4.1191794e-06 2.9994824e-06 1.0701347)
(-9.4034996e-06 3.2013733e-06 1.0701302)
(-5.1148039e-06 3.4339338e-06 1.0701277)
(-2.575078e-06 3.6443566e-06 1.0701263)
(-2.2745233e-07 3.8267717e-06 1.0701258)
(2.0089246e-06 3.9890931e-06 1.0701263)
(4.1402279e-06 4.1402279e-06 1.0701278)
(6.1295194e-06 4.2843352e-06 1.0701303)
(7.896824e-06 4.4151244e-06 1.0701338)
(2.9041072e-06 4.5065559e-06 1.0701383)
(-4.0309677e-06 4.624455e-06 1.0701366)
(-9.1337821e-06 5.0766052e-06 1.0701322)
(-4.863296e-06 5.4219355e-06 1.0701299)
(-2.3682217e-06 5.6659501e-06 1.0701285)
(-5.5390443e-08 5.8465091e-06 1.0701281)
(2.1612484e-06 5.9939434e-06 1.0701287)
(4.2843352e-06 6.1295194e-06 1.0701303)
(6.2688399e-06 6.2688399e-06 1.0701328)
(8.0169526e-06 6.421211e-06 1.0701364)
(2.9387106e-06 6.5700063e-06 1.070141)
(-3.8177458e-06 5.5904218e-06 1.0701393)
(-8.6060191e-06 6.8445706e-06 1.0701352)
(-4.5254591e-06 7.2966262e-06 1.0701331)
(-2.1505044e-06 7.5362269e-06 1.0701318)
(1.0054103e-07 7.6843491e-06 1.0701315)
(2.2919349e-06 7.794732e-06 1.0701321)
(4.4151244e-06 7.896824e-06 1.0701338)
(6.421211e-06 8.0169526e-06 1.0701364)
(8.1979903e-06 8.1979903e-06 1.07014)
(3.003304e-06 8.538637e-06 1.0701448)
(-3.1948684e-06 1.9506169e-06 1.0701426)
(-7.4275777e-06 2.5734943e-06 1.0701394)
(-4.1716397e-06 2.7362445e-06 1.0701374)
(-1.9804988e-06 2.8093739e-06 1.0701363)
(2.0311465e-07 2.8495816e-06 1.070136)
(2.3737233e-06 2.8777563e-06 1.0701367)
(4.5065559e-06 2.9041072e-06 1.0701383)
(6.5700063e-06 2.9387106e-06 1.070141)
(8.538637e-06 3.003304e-06 1.0701448)
(3.1658084e-06 3.1658084e-06 1.0701499)
(-6.830181e-06 -6.830181e-06 1.0703069)
(-1.5617046e-05 -5.976427e-06 1.0703018)
(-8.714363e-06 -5.7840691e-06 1.0702991)
(-4.9112016e-06 -5.7047132e-06 1.0702973)
(-1.4966773e-06 -5.6548851e-06 1.0702966)
(1.6620487e-06 -5.6073689e-06 1.0702968)
(4.5447115e-06 -5.5406047e-06 1.070298)
(7.0192877e-06 -5.4129192e-06 1.0703)
(8.7017395e-06 -5.1026283e-06 1.0703029)
(3.0913679e-06 -4.1914108e-06 1.0703063)
(-5.976427e-06 -1.5617046e-05 1.0703018)
(-1.4047879e-05 -1.4047879e-05 1.0702973)
(-8.3067923e-06 -1.3557526e-05 1.0702947)
(-4.7174256e-06 -1.3298454e-05 1.0702931)
(-1.3506608e-06 -1.3111995e-05 1.0702924)
(1.8334693e-06 -1.2930006e-05 1.0702926)
(4.8363859e-06 -1.2693237e-05 1.0702939)
(7.6762521e-06 -1.2303955e-05 1.070296)
(1.0534002e-05 -1.1539416e-05 1.0702992)
(4.0025854e-06 -9.8260133e-06 1.0703035)
(-5.7840691e-06 -8.714363e-06 1.0702991)
(-1.3557526e-05 -8.3067924e-06 1.0702947)
(-7.9649379e-06 -7.9649379e-06 1.0702922)
(-4.4656702e-06 -7.6941714e-06 1.0702906)
(-1.1282294e-06 -7.4603879e-06 1.07029)
(2.0808067e-06 -7.2259997e-06 1.0702904)
(5.1707623e-06 -6.9511776e-06 1.0702917)
(8.1731088e-06 -6.5894853e-06 1.0702939)
(1.1179681e-05 -6.1039826e-06 1.0702973)
(4.2336364e-06 -5.6012513e-06 1.0703018)
(-5.7047132e-06 -4.9112016e-06 1.0702973)
(-1.3298454e-05 -4.7174257e-06 1.0702931)
(-7.6941714e-06 -4.4656702e-06 1.0702906)
(-4.2128756e-06 -4.2128756e-06 1.0702892)
(-8.824891e-07 -3.9678251e-06 1.0702886)
(2.3426797e-06 -3.7199325e-06 1.070289)
(5.4729003e-06 -3.4529332e-06 1.0702904)
(8.5234471e-06 -3.1555948e-06 1.0702928)
(1.1522236e-05 -2.8429208e-06 1.0702962)
(4.3377396e-06 -2.6002683e-06 1.0703008)
(-5.6548851e-06 -1.4966773e-06 1.0702966)
(-1.3111995e-05 -1.3506608e-06 1.0702924)
(-7.4603879e-06 -1.1282294e-06 1.07029)
(-3.9678251e-06 -8.824891e-07 1.0702886)
(-6.3528627e-07 -6.3528626e-07 1.0702881)
(2.5956985e-06 -3.8923507e-07 1.0702886)
(5.7351e-06 -1.4087232e-07 1.0702901)
(8.7831213e-06 1.0709724e-07 1.0702925)
(1.1735008e-05 3.3204271e-07 1.070296)
(4.3954047e-06 4.7988806e-07 1.0703007)
(-5.6073689e-06 1.6620487e-06 1.0702968)
(-1.2930006e-05 1.8334693e-06 1.0702926)
(-7.2259997e-06 2.0808067e-06 1.0702904)
(-3.7199325e-06 2.3426796e-06 1.070289)
(-3.8923507e-07 2.5956986e-06 1.0702886)
(2.8370936e-06 2.8370936e-06 1.0702892)
(5.9692326e-06 3.0697179e-06 1.0702907)
(8.9963621e-06 3.2907086e-06 1.0702932)
(1.1895027e-05 3.481505e-06 1.0702968)
(4.4363032e-06 3.6017889e-06 1.0703015)
(-5.5406047e-06 4.5447114e-06 1.070298)
(-1.2693237e-05 4.8363859e-06 1.0702939)
(-6.9511776e-06 5.1707623e-06 1.0702917)
(-3.4529332e-06 5.4729003e-06 1.0702904)
(-1.4087231e-07 5.7351e-06 1.0702901)
(3.0697179e-06 5.9692326e-06 1.0702907)
(6.188715e-06 6.188715e-06 1.0702923)
(9.1949084e-06 6.4004418e-06 1.0702949)
(1.2046088e-05 6.5961607e-06 1.0702985)
(4.475594e-06 6.7365484e-06 1.0703032)
(-5.4129192e-06 7.0192877e-06 1.0703)
(-1.2303955e-05 7.6762522e-06 1.070296)
(-6.5894853e-06 8.1731089e-06 1.0702939)
(-3.1555948e-06 8.5234471e-06 1.0702928)
(1.0709725e-07 8.7831213e-06 1.0702925)
(3.2907086e-06 8.9963621e-06 1.0702932)
(6.4004418e-06 9.1949084e-06 1.0702949)
(9.4038078e-06 9.4038078e-06 1.0702975)
(1.2231133e-05 9.641182e-06 1.0703012)
(4.529895e-06 9.885276e-06 1.070306)
(-5.1026283e-06 8.7017395e-06 1.0703029)
(-1.1539416e-05 1.0534002e-05 1.0702992)
(-6.1039826e-06 1.1179681e-05 1.0702973)
(-2.8429208e-06 1.1522236e-05 1.0702962)
(3.3204271e-07 1.1735008e-05 1.070296)
(3.481505e-06 1.1895027e-05 1.0702968)
(6.5961607e-06 1.2046088e-05 1.0702985)
(9.641182e-06 1.2231133e-05 1.0703012)
(1.2527556e-05 1.2527556e-05 1.070305)
(4.6383234e-06 1.3125034e-05 1.07031)
(-4.1914108e-06 3.0913679e-06 1.0703063)
(-9.8260133e-06 4.0025854e-06 1.0703035)
(-5.6012513e-06 4.2336364e-06 1.0703018)
(-2.6002683e-06 4.3377396e-06 1.0703008)
(4.7988806e-07 4.3954047e-06 1.0703007)
(3.6017889e-06 4.4363032e-06 1.0703015)
(6.7365484e-06 4.475594e-06 1.0703032)
(9.885276e-06 4.529895e-06 1.070306)
(1.3125034e-05 4.6383234e-06 1.07031)
(4.9282133e-06 4.9282133e-06 1.0703153)
(-8.4911867e-06 -8.4911867e-06 1.0705267)
(-1.9416607e-05 -7.4269278e-06 1.0705219)
(-1.0826898e-05 -7.1876996e-06 1.0705193)
(-6.0427321e-06 -7.0880017e-06 1.0705178)
(-1.680832e-06 -7.0244751e-06 1.0705172)
(2.4079045e-06 -6.9631646e-06 1.0705176)
(6.1939957e-06 -6.8764237e-06 1.0705188)
(9.5176889e-06 -6.7098843e-06 1.0705209)
(1.1899308e-05 -6.3040041e-06 1.0705238)
(4.2550274e-06 -5.1092462e-06 1.0705273)
(-7.4269278e-06 -1.9416607e-05 1.0705219)
(-1.7461377e-05 -1.7461377e-05 1.0705176)
(-1.0318509e-05 -1.684982e-05 1.0705152)
(-5.7978954e-06 -1.6522997e-05 1.0705138)
(-1.4935763e-06 -1.6284726e-05 1.0705132)
(2.6299814e-06 -1.6049872e-05 1.0705136)
(6.573916e-06 -1.5742581e-05 1.0705149)
(1.0376318e-05 -1.5235774e-05 1.0705171)
(1.4300265e-05 -1.4238356e-05 1.0705203)
(5.4497853e-06 -1.1999456e-05 1.0705247)
(-7.1876996e-06 -1.0826898e-05 1.0705193)
(-1.684982e-05 -1.0318509e-05 1.0705152)
(-9.8885184e-06 -9.8885184e-06 1.070513)
(-5.4776376e-06 -9.5443957e-06 1.0705116)
(-1.2077066e-06 -9.2445004e-06 1.0705111)
(2.9500489e-06 -8.9417869e-06 1.0705115)
(7.0080932e-06 -8.5854335e-06 1.0705129)
(1.1021914e-05 -8.1156207e-06 1.0705153)
(1.5135626e-05 -7.4852347e-06 1.0705186)
(5.7476281e-06 -6.8369359e-06 1.0705232)
(-7.0880017e-06 -6.0427321e-06 1.0705178)
(-1.6522997e-05 -5.7978954e-06 1.0705138)
(-9.5443957e-06 -5.4776376e-06 1.0705116)
(-5.1538774e-06 -5.1538774e-06 1.0705102)
(-8.9096751e-07 -4.8382406e-06 1.0705098)
(3.2890484e-06 -4.5175647e-06 1.0705103)
(7.4000822e-06 -4.1712055e-06 1.0705118)
(1.1476517e-05 -3.7850047e-06 1.0705143)
(1.557895e-05 -3.3790955e-06 1.0705177)
(5.8819846e-06 -3.0653556e-06 1.0705223)
(-7.0244751e-06 -1.680832e-06 1.0705172)
(-1.6284726e-05 -1.4935763e-06 1.0705132)
(-9.2445004e-06 -1.2077066e-06 1.0705111)
(-4.8382406e-06 -8.909675e-07 1.0705098)
(-5.7139392e-07 -5.7139392e-07 1.0705095)
(3.617084e-06 -2.5239688e-07 1.0705101)
(7.7406532e-06 7.0407492e-08 1.0705116)
(1.1814024e-05 3.9330575e-07 1.0705141)
(1.5855276e-05 6.8648334e-07 1.0705177)
(5.956788e-06 8.7904201e-07 1.0705224)
(-6.9631646e-06 2.4079045e-06 1.0705176)
(-1.6049872e-05 2.6299815e-06 1.0705136)
(-8.9417869e-06 2.9500489e-06 1.0705115)
(-4.5175647e-06 3.2890484e-06 1.0705103)
(-2.5239689e-07 3.6170841e-06 1.0705101)
(3.9308498e-06 3.9308498e-06 1.0705107)
(8.0457848e-06 4.2342658e-06 1.0705123)
(1.2092593e-05 4.5237316e-06 1.0705149)
(1.6064686e-05 4.7748467e-06 1.0705185)
(6.0103571e-06 4.933906e-06 1.0705232)
(-6.8764237e-06 6.1939957e-06 1.0705188)
(-1.5742581e-05 6.573916e-06 1.0705149)
(-8.5854335e-06 7.0080932e-06 1.0705129)
(-4.1712055e-06 7.4000822e-06 1.0705118)
(7.0407483e-08 7.7406532e-06 1.0705116)
(4.2342658e-06 8.0457848e-06 1.0705123)
(8.333535e-06 8.333535e-06 1.070514)
(1.2354604e-05 8.6136456e-06 1.0705167)
(1.626545e-05 8.8757632e-06 1.0705204)
(6.0628276e-06 9.0664485e-06 1.0705251)
(-6.7098843e-06 9.5176889e-06 1.0705209)
(-1.5235774e-05 1.0376318e-05 1.0705171)
(-8.1156207e-06 1.1021914e-05 1.0705153)
(-3.7850047e-06 1.1476517e-05 1.0705143)
(3.9330574e-07 1.1814024e-05 1.0705141)
(4.5237316e-06 1.2092593e-05 1.0705149)
(8.6136455e-06 1.2354604e-05 1.0705167)
(1.2634821e-05 1.2634821e-05 1.0705194)
(1.6517489e-05 1.2960084e-05 1.0705232)
(6.1374806e-06 1.330184e-05 1.070528)
(-6.3040041e-06 1.1899308e-05 1.0705238)
(-1.4238356e-05 1.4300265e-05 1.0705203)
(-7.4852347e-06 1.5135626e-05 1.0705186)
(-3.3790955e-06 1.5578949e-05 1.0705177)
(6.8648334e-07 1.5855276e-05 1.0705177)
(4.7748467e-06 1.6064686e-05 1.0705185)
(8.8757632e-06 1.626545e-05 1.0705204)
(1.2960084e-05 1.6517489e-05 1.0705232)
(1.6932469e-05 1.6932469e-05 1.070527)
(6.290665e-06 1.7786053e-05 1.0705319)
(-5.1092462e-06 4.2550274e-06 1.0705273)
(-1.1999456e-05 5.4497853e-06 1.0705247)
(-6.8369359e-06 5.7476281e-06 1.0705232)
(-3.0653556e-06 5.8819846e-06 1.0705223)
(8.7904202e-07 5.956788e-06 1.0705224)
(4.933906e-06 6.0103571e-06 1.0705232)
(9.0664485e-06 6.0628276e-06 1.0705251)
(1.330184e-05 6.1374806e-06 1.070528)
(1.7786053e-05 6.290665e-06 1.0705319)
(6.7065371e-06 6.7065371e-06 1.0705373)
(-1.0070043e-05 -1.0070043e-05 1.070802)
(-2.299214e-05 -8.8023693e-06 1.0707974)
(-1.2753359e-05 -8.5184012e-06 1.0707951)
(-7.0216238e-06 -8.399401e-06 1.0707937)
(-1.7464134e-06 -8.3227983e-06 1.0707933)
(3.2429944e-06 -8.2481818e-06 1.0707937)
(7.9079707e-06 -8.1420369e-06 1.070795)
(1.2055966e-05 -7.9376694e-06 1.0707972)
(1.5101909e-05 -7.4387289e-06 1.0708001)
(5.4132333e-06 -5.968138e-06 1.0708035)
(-8.8023693e-06 -2.299214e-05 1.0707974)
(-2.0664679e-05 -2.0664679e-05 1.0707934)
(-1.2148907e-05 -1.9937775e-05 1.0707912)
(-6.7282195e-06 -1.9546652e-05 1.0707899)
(-1.5195846e-06 -1.9258861e-05 1.0707895)
(3.5141365e-06 -1.8973004e-05 1.07079)
(8.3737392e-06 -1.8597243e-05 1.0707913)
(1.3110927e-05 -1.7976064e-05 1.0707936)
(1.8056206e-05 -1.675201e-05 1.0707968)
(6.8838243e-06 -1.4002127e-05 1.070801)
(-8.5184012e-06 -1.2753359e-05 1.0707951)
(-1.9937775e-05 -1.2148907e-05 1.0707912)
(-1.1635332e-05 -1.1635332e-05 1.0707891)
(-6.3427095e-06 -1.1221417e-05 1.0707879)
(-1.1727653e-06 -1.0858156e-05 1.0707875)
(3.9046125e-06 -1.0489451e-05 1.070788)
(8.9049098e-06 -1.0053943e-05 1.0707895)
(1.3901198e-05 -9.4789441e-06 1.0707919)
(1.9075847e-05 -8.707628e-06 1.0707952)
(7.2464892e-06 -7.918031e-06 1.0707997)
(-8.3994009e-06 -7.0216239e-06 1.0707937)
(-1.9546652e-05 -6.7282195e-06 1.0707899)
(-1.1221417e-05 -6.3427095e-06 1.0707879)
(-5.9510436e-06 -5.9510436e-06 1.0707867)
(-7.8761774e-07 -5.5674582e-06 1.0707864)
(4.3183495e-06 -5.1763135e-06 1.070787)
(9.3842456e-06 -4.7527992e-06 1.0707885)
(1.4457243e-05 -4.2800376e-06 1.070791)
(1.9617119e-05 -3.7833144e-06 1.0707945)
(7.4102223e-06 -3.4004577e-06 1.070799)
(-8.3227983e-06 -1.7464133e-06 1.0707933)
(-1.9258861e-05 -1.5195846e-06 1.0707895)
(-1.0858156e-05 -1.1727654e-06 1.0707875)
(-5.5674582e-06 -7.8761774e-07 1.0707864)
(-3.9803525e-07 -3.9803524e-07 1.0707862)
(4.7192715e-06 -8.1605094e-09 1.0707868)
(9.8011858e-06 3.8725775e-07 1.0707884)
(1.4870683e-05 7.8343476e-07 1.070791)
(1.9955427e-05 1.1434051e-06 1.0707945)
(7.501727e-06 1.3796992e-06 1.0707991)
(-8.2481818e-06 3.2429944e-06 1.0707937)
(-1.8973004e-05 3.5141365e-06 1.07079)
(-1.048945e-05 3.9046125e-06 1.070788)
(-5.1763135e-06 4.3183495e-06 1.070787)
(-8.1605109e-09 4.7192715e-06 1.0707868)
(5.1036425e-06 5.1036425e-06 1.0707876)
(1.0175841e-05 5.4764555e-06 1.0707892)
(1.521339e-05 5.8333442e-06 1.0707919)
(2.0213384e-05 6.1440364e-06 1.0707955)
(7.5677518e-06 6.3414337e-06 1.0708001)
(-8.1420369e-06 7.9079707e-06 1.070795)
(-1.8597243e-05 8.3737392e-06 1.0707913)
(-1.0053943e-05 8.9049098e-06 1.0707895)
(-4.7527992e-06 9.3842456e-06 1.0707885)
(3.8725775e-07 9.8011858e-06 1.0707884)
(5.4764554e-06 1.0175841e-05 1.0707892)
(1.0530887e-05 1.0530887e-05 1.070791)
(1.5538264e-05 1.0878857e-05 1.0707936)
(2.0463516e-05 1.1207143e-05 1.0707973)
(7.6333252e-06 1.1447952e-05 1.070802)
(-7.9376694e-06 1.2055966e-05 1.0707972)
(-1.7976064e-05 1.3110927e-05 1.0707936)
(-9.4789441e-06 1.3901198e-05 1.0707919)
(-4.2800376e-06 1.4457243e-05 1.070791)
(7.8343476e-07 1.4870683e-05 1.070791)
(5.8333442e-06 1.521339e-05 1.0707919)
(1.0878857e-05 1.5538264e-05 1.0707936)
(1.5889645e-05 1.5889645e-05 1.0707964)
(2.0782479e-05 1.6302718e-05 1.0708001)
(7.7282912e-06 1.6741486e-05 1.0708048)
(-7.4387289e-06 1.5101909e-05 1.0708001)
(-1.675201e-05 1.8056206e-05 1.0707968)
(-8.707628e-06 1.9075847e-05 1.0707952)
(-3.7833144e-06 1.9617119e-05 1.0707945)
(1.1434051e-06 1.9955427e-05 1.0707945)
(6.1440364e-06 2.0213384e-05 1.0707955)
(1.1207143e-05 2.0463516e-05 1.0707973)
(1.6302718e-05 2.0782479e-05 1.0708001)
(2.1315357e-05 2.1315357e-05 1.070804)
(7.9258372e-06 2.2421137e-05 1.0708088)
(-5.968138e-06 5.4132333e-06 1.0708035)
(-1.4002127e-05 6.8838243e-06 1.070801)
(-7.918031e-06 7.2464892e-06 1.0707997)
(-3.4004577e-06 7.4102223e-06 1.070799)
(1.3796992e-06 7.501727e-06 1.0707991)
(6.3414337e-06 7.5677518e-06 1.0708001)
(1.1447952e-05 7.6333253e-06 1.070802)
(1.6741486e-05 7.7282912e-06 1.0708048)
(2.2421137e-05 7.9258372e-06 1.0708088)
(8.4654779e-06 8.4654779e-06 1.070814)
(-1.1567472e-05 -1.1567472e-05 1.0711305)
(-2.6355984e-05 -1.0104336e-05 1.0711261)
(-1.4515671e-05 -9.7776646e-06 1.071124)
(-7.8684584e-06 -9.6403142e-06 1.0711227)
(-1.7146985e-06 -9.5512468e-06 1.0711224)
(4.1405166e-06 -9.4638691e-06 1.0711229)
(9.6497614e-06 -9.3390346e-06 1.0711242)
(1.458581e-05 -9.0981782e-06 1.0711264)
(1.8256841e-05 -8.509462e-06 1.0711292)
(6.5487615e-06 -6.772806e-06 1.0711326)
(-1.0104336e-05 -2.6355984e-05 1.0711261)
(-2.3671273e-05 -2.3671273e-05 1.0711223)
(-1.3819639e-05 -2.2834484e-05 1.0711203)
(-7.5288318e-06 -2.2382243e-05 1.0711191)
(-1.4500308e-06 -2.2047219e-05 1.0711188)
(4.4588349e-06 -2.1712437e-05 1.0711193)
(1.0198298e-05 -2.1270737e-05 1.0711207)
(1.5830169e-05 -2.0539254e-05 1.071123)
(2.1744898e-05 -1.9096616e-05 1.0711261)
(8.2854175e-06 -1.5854057e-05 1.0711302)
(-9.7776646e-06 -1.4515671e-05 1.071124)
(-2.2834484e-05 -1.3819639e-05 1.0711203)
(-1.3226641e-05 -1.3226641e-05 1.0711184)
(-7.0811942e-06 -1.2746326e-05 1.0711173)
(-1.044893e-06 -1.2322526e-05 1.071117)
(4.9169989e-06 -1.1890466e-05 1.0711176)
(1.0822944e-05 -1.1378713e-05 1.071119)
(1.6759931e-05 -1.070226e-05 1.0711214)
(2.2942039e-05 -9.7950446e-06 1.0711247)
(8.7104684e-06 -8.8694201e-06 1.071129)
(-9.6403142e-06 -7.8684584e-06 1.0711227)
(-2.2382243e-05 -7.5288318e-06 1.0711191)
(-1.2746326e-05 -7.0811942e-06 1.0711173)
(-6.6247163e-06 -6.6247163e-06 1.0711162)
(-5.9417142e-07 -6.1760355e-06 1.071116)
(5.4026477e-06 -5.7171183e-06 1.0711167)
(1.1386504e-05 -5.2191882e-06 1.0711182)
(1.7413837e-05 -4.6628318e-06 1.0711207)
(2.3577738e-05 -4.0784189e-06 1.0711241)
(8.9025006e-06 -3.6289106e-06 1.0711285)
(-9.5512468e-06 -1.7146985e-06 1.0711224)
(-2.2047219e-05 -1.4500308e-06 1.0711188)
(-1.2322526e-05 -1.044893e-06 1.071117)
(-6.1760355e-06 -5.9417142e-07 1.071116)
(-1.3729508e-07 -1.3729506e-07 1.0711159)
(5.8738462e-06 3.2092602e-07 1.0711166)
(1.1877231e-05 7.865607e-07 1.0711182)
(1.7900701e-05 1.253721e-06 1.0711207)
(2.397596e-05 1.6784248e-06 1.0711242)
(9.0101407e-06 1.9570786e-06 1.0711286)
(-9.4638691e-06 4.1405166e-06 1.0711229)
(-2.1712437e-05 4.4588349e-06 1.0711193)
(-1.1890466e-05 4.9169988e-06 1.0711176)
(-5.7171183e-06 5.4026477e-06 1.0711167)
(3.2092602e-07 5.8738462e-06 1.0711166)
(6.3265035e-06 6.3265035e-06 1.0711174)
(1.2319299e-05 6.7666601e-06 1.0711191)
(1.8305702e-05 7.1891608e-06 1.0711217)
(2.4281096e-05 7.5579285e-06 1.0711252)
(9.0882698e-06 7.7927111e-06 1.0711297)
(-9.3390346e-06 9.6497614e-06 1.0711242)
(-2.1270737e-05 1.0198298e-05 1.0711207)
(-1.1378713e-05 1.0822944e-05 1.071119)
(-5.2191882e-06 1.1386504e-05 1.0711182)
(7.865607e-07 1.1877231e-05 1.0711182)
(6.7666601e-06 1.2319299e-05 1.0711191)
(1.2739888e-05 1.2739888e-05 1.0711208)
(1.8691969e-05 1.3154203e-05 1.0711235)
(2.457951e-05 1.3547318e-05 1.071127)
(9.1666624e-06 1.3837231e-05 1.0711316)
(-9.0981782e-06 1.458581e-05 1.0711264)
(-2.0539254e-05 1.5830169e-05 1.071123)
(-1.070226e-05 1.6759931e-05 1.0711214)
(-4.6628318e-06 1.7413837e-05 1.0711207)
(1.253721e-06 1.7900701e-05 1.0711207)
(7.1891608e-06 1.8305702e-05 1.0711217)
(1.3154203e-05 1.8691969e-05 1.0711235)
(1.9113131e-05 1.9113131e-05 1.0711262)
(2.4964123e-05 1.9612352e-05 1.0711298)
(9.2815456e-06 2.0146079e-05 1.0711344)
(-8.509462e-06 1.8256841e-05 1.0711292)
(-1.9096616e-05 2.1744898e-05 1.0711261)
(-9.7950446e-06 2.2942039e-05 1.0711247)
(-4.0784189e-06 2.3577738e-05 1.0711241)
(1.6784248e-06 2.397596e-05 1.0711242)
(7.5579285e-06 2.4281096e-05 1.0711252)
(1.3547318e-05 2.457951e-05 1.071127)
(1.9612352e-05 2.4964123e-05 1.0711298)
(2.5612459e-05 2.5612459e-05 1.0711336)
(9.5224807e-06 2.6964449e-05 1.0711383)
(-6.772806e-06 6.5487615e-06 1.0711326)
(-1.5854057e-05 8.2854175e-06 1.0711302)
(-8.8694201e-06 8.7104684e-06 1.071129)
(-3.6289106e-06 8.9025006e-06 1.0711285)
(1.9570786e-06 9.0101407e-06 1.0711286)
(7.7927111e-06 9.0882698e-06 1.0711297)
(1.3837231e-05 9.1666624e-06 1.0711316)
(2.0146079e-05 9.2815456e-06 1.0711344)
(2.6964449e-05 9.5224807e-06 1.0711383)
(1.0182873e-05 1.0182873e-05 1.0711434)
(-1.2978874e-05 -1.2978874e-05 1.0715093)
(-2.9505358e-05 -1.1329452e-05 1.0715052)
(-1.6125032e-05 -1.0962266e-05 1.0715032)
(-8.5991618e-06 -1.0807546e-05 1.0715021)
(-1.6056465e-06 -1.0706657e-05 1.0715018)
(5.0750969e-06 -1.0607128e-05 1.0715024)
(1.1387285e-05 -1.0464446e-05 1.0715037)
(1.7069214e-05 -1.0188706e-05 1.0715058)
(2.1325139e-05 -9.5141426e-06 1.0715086)
(7.6490986e-06 -7.5230326e-06 1.0715118)
(-1.1329452e-05 -2.9505358e-05 1.0715052)
(-2.6480447e-05 -2.6480447e-05 1.0715016)
(-1.5342174e-05 -2.5539523e-05 1.0714998)
(-8.2157484e-06 -2.5029431e-05 1.0714987)