/*--------------------------------*- C++ -*----------------------------------*\
| =========                 |                                                 |
| \\      /  F ield         | OpenFOAM: The Open Source CFD Toolbox           |
|  \\    /   O peration     | Version:  v2106                                 |
|   \\  /    A nd           | Website:  www.openfoam.com                      |
|    \\/     M anipulation  |                                                 |
\*---------------------------------------------------------------------------*/
FoamFile
{
    version     2.0;
    format      ascii;
    arch        "LSB;label=32;scalar=64";
    class       volScalarField;
    location    "62.5";
    object      gradTx;
}
// * * * * * * * * * * * * * * * * * * * * * * * * * * * * * * * * * * * * * //

dimensions      [0 -1 0 1 0 0 0];

internalField   nonuniform List<scalar> 
4000
(
-0.00055726422
-0.001227119
-0.00062371742
-0.00034416808
-0.00011862907
7.8613542e-05
0.00024815958
0.00037341336
0.00040261845
0.0001278636
-0.00049428489
-0.0011108225
-0.0005934813
-0.00033087422
-0.00010927596
8.9219321e-05
0.00026568161
0.00041055073
0.00049110511
0.00016968587
-0.00047973322
-0.0010744315
-0.00056948219
-0.00031424232
-9.5126889e-05
0.00010463627
0.00028628972
0.00044099202
0.00053216937
0.00018486381
-0.00047412748
-0.0010565873
-0.00055155248
-0.00029799926
-7.9636507e-05
0.00012096162
0.00030502389
0.00046271836
0.00055371023
0.00019150699
-0.00047087064
-0.0010445057
-0.00053660724
-0.00028252668
-6.4171827e-05
0.00013668685
0.00032125412
0.0004787746
0.0005669046
0.00019509644
-0.00046789208
-0.0010330851
-0.00052191303
-0.00026704422
-4.887829e-05
0.00015160734
0.00033563687
0.00049179015
0.00057661
0.00019756617
-0.00046380013
-0.001018483
-0.00050486493
-0.00025047611
-3.3526118e-05
0.00016586894
0.0003489077
0.00050354148
0.00058529372
0.00019977259
-0.00045621072
-0.00099495496
-0.00048257075
-0.00023207981
-1.8265318e-05
0.00017926091
0.00036133521
0.00051511023
0.00059464689
0.00020232905
-0.00043904188
-0.00095090435
-0.00045269732
-0.00021269353
-4.4543221e-06
0.00019063581
0.00037222778
0.00052661955
0.00060599895
0.0002059032
-0.00039721961
-0.00086540405
-0.00041996562
-0.00019734458
4.6344382e-06
0.00019765003
0.00037937211
0.00053581548
0.00061844391
0.00021062569
-0.0024322792
-0.0054645775
-0.002923256
-0.0016405201
-0.00055900822
0.00040217108
0.0012394541
0.0018826656
0.0021168351
0.00069724475
-0.002127373
-0.0049061703
-0.002782688
-0.0015773965
-0.00051358814
0.00045413557
0.0013264796
0.00207553
0.0026449361
0.00095865421
-0.0020600078
-0.0047373212
-0.00266976
-0.0014973904
-0.00044482027
0.00052940165
0.0014274445
0.0022253884
0.0028439088
0.0010311218
-0.002033661
-0.0046526744
-0.0025835465
-0.0014186168
-0.00036938339
0.00060906872
0.0015189709
0.0023315833
0.0029488649
0.001063369
-0.0020179254
-0.0045941915
-0.0025109804
-0.001343289
-0.00029396752
0.00068583714
0.0015982565
0.0024100379
0.0030133225
0.001080899
-0.002003381
-0.0045384864
-0.0024393418
-0.0012677641
-0.00021930862
0.0007587372
0.0016685974
0.0024737626
0.0030609086
0.0010930233
-0.0019832824
-0.0044669609
-0.0023560472
-0.0011868535
-0.00014429905
0.00082850793
0.0017336732
0.0025316139
0.0031039112
0.0011040048
-0.001945364
-0.0043504961
-0.0022468505
-0.0010969521
-6.9682069e-05
0.00089415393
0.0017949478
0.0025893314
0.0031515424
0.0011172497
-0.0018547061
-0.004124238
-0.0020999939
-0.0010022041
-2.1197382e-06
0.00095008397
0.001849242
0.0026485332
0.0032136769
0.0011377141
-0.0015932966
-0.0036234224
-0.0019429217
-0.00092753831
4.2361607e-05
0.00098474265
0.0018855816
0.0026990971
0.0032965143
0.0011724747
-0.0039239689
-0.0089343418
-0.0049360011
-0.0027898345
-0.00091066053
0.00079626259
0.002321916
0.0035798161
0.0043275763
0.0015099832
-0.0034326904
-0.0080319765
-0.0047036254
-0.0026817691
-0.00083087707
0.00088876596
0.002478201
0.0039298284
0.0052984201
0.0019921561
-0.003322392
-0.0077525053
-0.0045118141
-0.0025428187
-0.0007096943
0.0010224505
0.0026582275
0.0041971507
0.0056483591
0.002118142
-0.0032777734
-0.0076077895
-0.0043622196
-0.0024045435
-0.0005762782
0.0011639559
0.0028211171
0.0043860438
0.0058338354
0.0021747519
-0.0032503485
-0.0075054896
-0.0042345884
-0.0022714058
-0.00044250265
0.0013004738
0.0029623256
0.0045258156
0.0059484977
0.0022058769
-0.0032245844
-0.0074068232
-0.0041076207
-0.0021373519
-0.0003097405
0.0014303864
0.0030879795
0.0046399453
0.0060339456
0.0022276871
-0.0031886796
-0.0072793017
-0.0039593985
-0.0019933824
-0.00017607213
0.0015551199
0.0032049738
0.0047448954
0.0061129755
0.0022480854
-0.0031203944
-0.0070705117
-0.0037647047
-0.0018332538
-4.2878054e-05
0.0016730346
0.0033165279
0.004852744
0.0062059676
0.0022748721
-0.0029553381
-0.0066619672
-0.0035031831
-0.0016647175
7.7829375e-05
0.0017741996
0.0034177724
0.0049706951
0.0063461096
0.0023248741
-0.0024731651
-0.0057497289
-0.0032292894
-0.0015331152
0.00015723218
0.0018375124
0.0034885498
0.0050858781
0.0066098057
0.0024506695
-0.0052536955
-0.012012451
-0.0067029875
-0.0037776398
-0.001151227
0.0012784288
0.0034957398
0.0053991552
0.0066932774
0.0023778443
-0.0045969985
-0.010805467
-0.0063894895
-0.0036285899
-0.0010389129
0.0014102837
0.0037200928
0.0059044852
0.0081026332
0.0030787424
-0.0044490392
-0.010428294
-0.0061265394
-0.0034349427
-0.00086782125
0.0016005329
0.0039772915
0.006286662
0.0085992827
0.0032564643
-0.0043879998
-0.010229019
-0.0059182691
-0.0032404961
-0.00067880061
0.0018019626
0.0042096927
0.0065561384
0.0088627721
0.0033365394
-0.0043496727
-0.010085597
-0.0057384456
-0.003052006
-0.000488655
0.0019965819
0.0044113738
0.0067558769
0.0090264338
0.0033808948
-0.0043131237
-0.0099456129
-0.0055581568
-0.0028613299
-0.0002993952
0.0021822602
0.0045914659
0.0069198992
0.0091495185
0.0034123534
-0.0042617694
-0.0097634928
-0.0053467666
-0.002655957
-0.00010835738
0.0023611921
0.0047602891
0.0070726186
0.0092657128
0.0034425753
-0.0041635551
-0.0094640612
-0.0050685569
-0.0024272476
8.2377983e-05
0.0025311756
0.0049231468
0.0072333012
0.0094080471
0.0034843429
-0.0039248827
-0.008875986
-0.0046951135
-0.0021867421
0.00025540345
0.0026779338
0.0050736911
0.0074158863
0.0096360516
0.0035677445
-0.0032239846
-0.0075580559
-0.004308418
-0.0020000965
0.00036912438
0.0027704546
0.0051816754
0.00760364
0.010095623
0.0037907241
-0.0064903481
-0.014841336
-0.0082756808
-0.0046188416
-0.001284766
0.0018405134
0.0047344618
0.00727497
0.0090953909
0.0032523854
-0.005676869
-0.013346832
-0.007887088
-0.004431698
-0.0011416348
0.0020102611
0.0050248595
0.0079312754
0.010930595
0.0041656145
-0.0054940122
-0.012879382
-0.0075584199
-0.004186905
-0.0009231266
0.002254909
0.0053567289
0.0084247453
0.011569115
0.0043932747
-0.0054178071
-0.012629571
-0.0072953854
-0.0039394347
-0.00068102287
0.0025140279
0.0056563511
0.0087722277
0.011907975
0.004495972
-0.0053692498
-0.012447445
-0.0070661566
-0.0036981736
-0.00043675256
0.0027647663
0.0059166711
0.0090302055
0.012119189
0.004553149
-0.0053223863
-0.012267932
-0.0068347735
-0.0034530607
-0.00019292292
0.0030045973
0.0061499025
0.0092431334
0.012279254
0.0045940951
-0.0052560846
-0.01203305
-0.0065623899
-0.0031883163
5.3816896e-05
0.0032365173
0.0063698479
0.0094434051
0.01243271
0.0046342014
-0.0051287878
-0.011645665
-0.0062032819
-0.0028931185
0.00030062845
0.0034577741
0.0065839537
0.0096575917
0.012625359
0.0046912631
-0.0048185477
-0.010883274
-0.0057214376
-0.0025828562
0.00052472259
0.003649717
0.0067843062
0.0099062095
0.012942553
0.0048083512
-0.0039053186
-0.0091719405
-0.0052259014
-0.0023430447
0.00067190728
0.0037712956
0.0069300583
0.010167434
0.013595
0.0051262278
-0.0076494671
-0.017465433
-0.0096877871
-0.0053338103
-0.0013266216
0.002463464
0.0060071027
0.0091580283
0.011471806
0.0041120335
-0.0066865105
-0.015697434
-0.0092286305
-0.0051109334
-0.0011543167
0.0026694311
0.0063609136
0.0099594063
0.013715969
0.0052291334
-0.0064708015
-0.01514526
-0.0088385062
-0.0048180902
-0.00089086366
0.0029660472
0.0067644053
0.010559718
0.014490516
0.0055046235
-0.0063804061
-0.014848153
-0.008524086
-0.0045205706
-0.00059829535
0.0032803329
0.0071285218
0.010982104
0.014901681
0.0056289997
-0.0063222169
-0.01462954
-0.0082481434
-0.0042291891
-0.00030235815
0.003584884
0.0074452407
0.011296164
0.015158669
0.0056985091
-0.0062655362
-0.014412395
-0.0079680647
-0.0039320651
-6.1989408e-06
0.0038768623
0.0077298385
0.011556493
0.015354619
0.0057486631
-0.0061849055
-0.014126957
-0.0076372415
-0.0036103523
0.00029417126
0.0041600607
0.0079995409
0.011803276
0.015544626
0.0057984742
-0.0060296623
-0.013655093
-0.0072004565
-0.0032512298
0.00059511778
0.0044311626
0.008263867
0.012070193
0.015786917
0.0058706123
-0.0056506535
-0.012725268
-0.0066145438
-0.0028739055
0.00086856066
0.0046671721
0.0085132408
0.012383973
0.016191704
0.0060206727
-0.0045335536
-0.010636383
-0.0060147444
-0.0025830771
0.0010480558
0.0048171197
0.0086961646
0.012717271
0.017031681
0.006430597
-0.0087331518
-0.019898111
-0.010958971
-0.0059404911
-0.0012945549
0.0031259875
0.0072853306
0.011011924
0.01378346
0.0049441512
-0.0076285218
-0.017871225
-0.010433486
-0.0056840824
-0.0010947375
0.0033663104
0.007699463
0.011951386
0.016416859
0.0062552838
-0.007381894
-0.017239471
-0.0099857884
-0.0053461275
-0.00078886857
0.0037122133
0.0081710567
0.012653335
0.017320671
0.006576187
-0.0072781984
-0.016898042
-0.0096231626
-0.0050014982
-0.00044858485
0.0040788665
0.008596531
0.013147018
0.017800609
0.0067211668
-0.0072109549
-0.016645107
-0.0093032042
-0.0046627553
-0.00010365442
0.0044346098
0.0089670177
0.013514588
0.018101257
0.0068024324
-0.0071449868
-0.016392355
-0.0089770099
-0.004316284
0.00024229127
0.0047763549
0.0093007682
0.013820353
0.018331626
0.0068614178
-0.0070507396
-0.016058882
-0.0085906482
-0.0039403588
0.00059383401
0.005108662
0.009618302
0.014111975
0.018556921
0.0069206018
-0.0068688985
-0.015506629
-0.008079942
-0.0035203231
0.00094652848
0.0054276392
0.0099310987
0.01442994
0.018847293
0.0070073351
-0.0064244318
-0.014417471
-0.0073950162
-0.0030791055
0.0012671693
0.005706049
0.010227889
0.014806838
0.019336767
0.0071892341
-0.0051132992
-0.011969418
-0.0066961916
-0.0027397373
0.0014775457
0.0058833031
0.010446765
0.015209787
0.020357483
0.0076878122
-0.0097394342
-0.022141024
-0.012100336
-0.0064528713
-0.0012048884
0.0038083884
0.0085450983
0.012808857
0.01600253
0.0057399352
-0.0085016987
-0.019871114
-0.011512876
-0.0061651563
-0.00097929543
0.0040810248
0.0090160799
0.01387853
0.019003042
0.0072340785
-0.0082261607
-0.019165039
-0.011011486
-0.00578506
-0.00063366227
0.0044732874
0.0095518405
0.014676265
0.020028554
0.0075977013
-0.0081100586
-0.018782264
-0.010603852
-0.0053963417
-0.00024858313
0.0048892375
0.010035161
0.015237181
0.020573299
0.0077620829
-0.0080343507
-0.018497228
-0.010242672
-0.0050131528
0.00014244077
0.0052932551
0.010456428
0.015655313
0.020915189
0.0078544481
-0.0079596632
-0.018211037
-0.0098731393
-0.0046202387
0.00053534159
0.0056820458
0.010836734
0.016004165
0.021178211
0.0079218118
-0.0078525931
-0.017832329
-0.009434459
-0.0041931851
0.00093524909
0.0060608964
0.011199724
0.016338487
0.021437148
0.007989935
-0.0076456755
-0.017204295
-0.0088540579
-0.0037156513
0.0013369141
0.006425342
0.011558717
0.016705216
0.021773487
0.0080906231
-0.0071394777
-0.01596492
-0.0080758075
-0.0032141372
0.0017022331
0.0067440706
0.011900775
0.017142473
0.022343935
0.0083029553
-0.0056453344
-0.013178271
-0.007283801
-0.0028290169
0.0019418265
0.0069473009
0.012153992
0.017612003
0.023537323
0.0088862157
-0.010665086
-0.024191146
-0.013118063
-0.0068813896
-0.0010713256
0.0044938063
0.0097665101
0.014526848
0.018107418
0.0064925273
-0.0093035749
-0.02169541
-0.012473229
-0.0065646929
-0.00082179609
0.0047965452
0.010290537
0.015718093
0.021450783
0.0081575981
-0.0090012625
-0.020920558
-0.011922182
-0.0061455487
-0.00043920758
0.0052320037
0.01088616
0.016605198
0.02258972
0.0085610011
-0.0088736857
-0.020499529
-0.011472859
-0.0057159079
-1.2445826e-05
0.0056939207
0.011423478
0.017228876
0.023194917
0.0087434683
-0.0087901313
-0.020184717
-0.011073397
-0.005291372
0.00042154414
0.0061430186
0.011892218
0.017694293
0.023575365
0.0088462064
-0.0087073327
-0.019867411
-0.010663508
-0.0048551562
0.00085830054
0.0065758316
0.012316155
0.018083565
0.023869031
0.0089214332
-0.0085883054
-0.01944652
-0.010176022
-0.004380357
0.0013034551
0.0069983261
0.012721866
0.018458088
0.024159677
0.008997987
-0.0083579813
-0.018747761
-0.0095305676
-0.0038490981
0.0017509778
0.0074054795
0.013124382
0.018870864
0.024539477
0.0091118754
-0.0077941425
-0.01736817
-0.0086652381
-0.0032912612
0.0021581437
0.007762121
0.013509165
0.019365211
0.02518657
0.0093530182
-0.0061290716
-0.01426546
-0.0077864328
-0.0028634532
0.0024250911
0.0079897919
0.013794829
0.019897758
0.026543428
0.010016447
-0.011506645
-0.026043743
-0.014015545
-0.0072337423
-0.00090492942
0.0051682998
0.010933241
0.0161481
0.020080529
0.0071962752
-0.010031387
-0.023340629
-0.013318211
-0.0068905102
-0.0006334106
0.0054987744
0.011506217
0.0174516
0.023740586
0.0090192438
-0.0097045688
-0.022502862
-0.012721743
-0.0064355682
-0.00021684186
0.0059740438
0.01215707
0.018421159
0.024984047
0.0094592706
-0.0095664977
-0.022046827
-0.012234213
-0.0059683415
0.00024829425
0.0064783566
0.012744233
0.019102773
0.025645004
0.0096584066
-0.0094757474
-0.021704688
-0.011799575
-0.0055057476
0.00072190484
0.0069690903
0.013256861
0.019611914
0.026061093
0.0097707293
-0.0093854851
-0.02135874
-0.011352509
-0.0050295948
0.0011991731
0.0074426372
0.013721226
0.020038671
0.02638319
0.0098532528
-0.009255431
-0.020898944
-0.010819992
-0.0045107011
0.0016861854
0.0079055922
0.014166625
0.020450609
0.026703387
0.009937669
-0.0090035008
-0.020134911
-0.010114493
-0.0039298034
0.0021761659
0.0083524012
0.014609676
0.020906375
0.027123831
0.010063911
-0.0083864315
-0.018625885
-0.0091688189
-0.0033199464
0.002622083
0.0087442867
0.015034329
0.021454137
0.027842729
0.010332055
-0.0065634629
-0.015231392
-0.0082100747
-0.0028527583
0.0029143524
0.0089946961
0.015350317
0.022045716
0.029352827
0.011070643
-0.012260836
-0.027693741
-0.014794624
-0.0075156351
-0.0007145014
0.0058205119
0.012031928
0.01765801
0.021907224
0.007846418
-0.010682485
-0.024802816
-0.01404992
-0.0071484346
-0.00042304345
0.0061762163
0.012649502
0.019063856
0.025856143
0.0098134222
-0.010333552
-0.023908302
-0.013412473
-0.0066611037
2.4371187e-05
0.0066877114
0.013350663
0.020108521
0.027194685
0.010286728
-0.010186015
-0.023420665
-0.012890387
-0.006159797
0.00052438886
0.0072306315
0.013983254
0.020842931
0.027906408
0.010501028
-0.010088752
-0.023053771
-0.012423835
-0.0056626155
0.0010340744
0.0077593337
0.014535941
0.021391989
0.028355024
0.010622094
-0.0099917096
-0.022681792
-0.011942954
-0.0051500938
0.0015482936
0.0082700955
0.015037292
0.021853071
0.028703171
0.010711304
-0.0098516158
-0.022186571
-0.01136942
-0.0045909932
0.0020735384
0.0087700866
0.015519101
0.022299399
0.029050572
0.010802965
-0.0095799936
-0.021363057
-0.010609202
-0.0039648155
0.0026023309
0.0092532549
0.015999436
0.022794818
0.029508582
0.010940637
-0.0089143851
-0.01973606
-0.0095903446
-0.0033075254
0.0030836785
0.0096774963
0.016460848
0.023391981
0.030294001
0.011233809
-0.0069473809
-0.016075595
-0.0085589364
-0.002804476
0.0033990935
0.0099488027
0.016804847
0.024038246
0.03194619
0.012042097
-0.012924777
-0.029136431
-0.015456342
-0.0077313848
-0.00050703718
0.0064412427
0.013051655
0.019044549
0.023575268
0.0084389351
-0.011254523
-0.02607823
-0.014669623
-0.007342891
-0.00019778181
0.0068195498
0.013709256
0.020542326
0.027783781
0.010535396
-0.010885976
-0.025133406
-0.013995822
-0.0068267257
0.00027720117
0.0073635101
0.014455554
0.021654375
0.029207495
0.011038473
-0.010730043
-0.02461771
-0.013442985
-0.0062950001
0.00080844234
0.0079410588
0.015128928
0.022436176
0.02996474
0.011266358
-0.01062698
-0.024228747
-0.012947931
-0.0057668645
0.0013504802
0.0085038687
0.015717636
0.023021134
0.030442599
0.011395281
-0.010523873
-0.023833472
-0.012436761
-0.0052217211
0.0018979004
0.0090481287
0.016252328
0.023513192
0.030814267
0.011490531
-0.010374776
-0.023306479
-0.011826422
-0.0046265059
0.0024575502
0.0095815271
0.01676706
0.023990685
0.031186367
0.011588776
-0.010085473
-0.022429573
-0.011017088
-0.0039596399
0.0030213001
0.010097553
0.017281211
0.024522186
0.031678643
0.011736887
-0.0093762576
-0.020696653
-0.0099325725
-0.0032597468
0.0035345667
0.010551078
0.017776054
0.025164443
0.032524909
0.012052967
-0.007279797
-0.016797346
-0.0088361297
-0.0027245352
0.0038708274
0.010841321
0.018145587
0.025860728
0.034307224
0.012925097
-0.013496075
-0.030367848
-0.016001411
-0.0078843739
-0.00028813789
0.0070230516
0.013983536
0.020297854
0.025074506
0.0089704633
-0.011745561
-0.027163719
-0.015178223
-0.007477354
3.669561e-05
0.0074212329
0.014676407
0.02187672
0.029512142
0.0111812
-0.011359989
-0.026175246
-0.01447285
-0.0069360333
0.00053584693
0.0079937496
0.015462464
0.023048121
0.031010729
0.01171041
-0.011196769
-0.025635158
-0.013893199
-0.0063776841
0.0010945121
0.0086017871
0.016171783
0.023871684
0.03180804
0.011950236
-0.011088643
-0.025226905
-0.013373181
-0.0058223678
0.0016650287
0.0091946807
0.016792297
0.024488352
0.032311717
0.012086092
-0.010980213
-0.024811173
-0.012835383
-0.0052485023
0.0022417402
0.009768556
0.017356519
0.025007877
0.032704258
0.012186705
-0.010823189
-0.024256207
-0.012192626
-0.0046214368
0.0028317976
0.010331562
0.017900512
0.025513142
0.033098416
0.012290838
-0.010518298
-0.023332244
-0.011340007
-0.0039186694
0.0034264757
0.010876771
0.01844483
0.026076956
0.033621468
0.012448337
-0.0097706108
-0.02150594
-0.010197662
-0.0031812059
0.0039679901
0.011356352
0.018969591
0.026759748
0.03452257
0.012785079
-0.0075598744
-0.01739602
-0.0090441084
-0.002617682
0.0043226933
0.011663471
0.01936204
0.027501109
0.036422326
0.013714841
-0.013972884
-0.031384994
-0.016430524
-0.0079773882
-6.2345705e-05
0.0075599277
0.01482039
0.021409932
0.026396651
0.0094382454
-0.012154117
-0.02805694
-0.015576561
-0.007554682
0.00027578431
0.0079751727
0.015543631
0.023058705
0.031031964
0.011747591
-0.011754181
-0.027031659
-0.014844525
-0.0069919862
0.00079560449
0.0085722171
0.016363899
0.024281174
0.03259482
0.012299187
-0.011584808
-0.026470941
-0.014242105
-0.0064109173
0.0013777787
0.0092064726
0.017104169
0.025140693
0.03342657
0.012549262
-0.011472377
-0.026046257
-0.01370076
-0.0058323084
0.0019727773
0.0098252927
0.017752134
0.025784735
0.033952523
0.012691097
-0.011359388
-0.025612991
-0.013140111
-0.0052337445
0.0025747399
0.010424765
0.018341933
0.026328089
0.03436319
0.012796368
-0.011195547
-0.025033967
-0.01246946
-0.0045792329
0.0031910694
0.011013438
0.018911386
0.026857597
0.034776656
0.012905664
-0.010877228
-0.024069483
-0.011579572
-0.003845509
0.0038125043
0.011584017
0.019482067
0.027449785
0.035326833
0.013071453
-0.010096366
-0.022162726
-0.010387472
-0.0030756716
0.0043784656
0.0120863
0.020033083
0.028168344
0.036276472
0.013426502
-0.0077870197
-0.017871313
-0.0091849656
-0.0024878064
0.0047491235
0.012408149
0.02044571
0.028949601
0.038280367
0.014407382
-0.014353928
-0.032185974
-0.01674456
-0.0080128617
0.00016659565
0.0080470286
0.015556501
0.022374449
0.027535135
0.0098400926
-0.012479195
-0.028756496
-0.015865628
-0.0075773631
0.00051569387
0.0084764651
0.016305094
0.024081681
0.032335935
0.01223201
-0.012067609
-0.027701378
-0.015111928
-0.0069971478
0.0010526079
0.0090939166
0.017153897
0.025346747
0.033952222
0.012802166
-0.011893241
-0.027123864
-0.014490864
-0.0063973461
0.0016542878
0.0097500188
0.017920007
0.026236276
0.034812656
0.01306076
-0.011777276
-0.026685664
-0.013931911
-0.0057994204
0.0022696766
0.010390505
0.018590957
0.02690325
0.035357255
0.013207595
-0.011660508
-0.026237852
-0.01335227
-0.0051802774
0.0028927491
0.01101145
0.019202275
0.027466693
0.035783221
0.013316799
-0.011490985
-0.025638776
-0.012658357
-0.0045028318
0.0035311077
0.011621742
0.019793272
0.028016803
0.036213154
0.013430508
-0.011161446
-0.024640455
-0.011737358
-0.0037432176
0.0041750177
0.012213765
0.020386393
0.028633296
0.036786674
0.013603447
-0.01035283
-0.022666478
-0.010503762
-0.002946328
0.004761524
0.012735294
0.020959875
0.029382678
0.037778312
0.013974358
-0.0079609127
-0.018223368
-0.0092606364
-0.0023381849
0.0051455826
0.013069664
0.021389846
0.030198454
0.03987253
0.014999592
-0.014638516
-0.032770066
-0.016944723
-0.0079930545
0.00039554423
0.0084804794
0.016187416
0.023186561
0.02848499
0.010174356
-0.012720298
-0.029262005
-0.016046701
-0.0075476917
0.0007532512
0.0089211928
0.016956271
0.024940628
0.033418569
0.012632547
-0.012299809
-0.028184107
-0.015276394
-0.0069538623
0.0013036326
0.0095548677
0.017827844
0.026239686
0.035077292
0.013217385
-0.012121616
-0.027593676
-0.014640864
-0.0063393708
0.0019207538
0.010228375
0.018614597
0.027153186
0.035960565
0.013482742
-0.0120029
-0.027144915
-0.014068073
-0.0057261646
0.0025523743
0.010886195
0.019303988
0.027838571
0.036520118
0.013633581
-0.011883145
-0.026685587
-0.013473362
-0.0050906291
0.0031923436
0.011524412
0.019932689
0.028418287
0.0369585
0.013745981
-0.011709091
-0.026070527
-0.012760891
-0.0043948377
0.0038484112
0.012152194
0.02054123
0.028985276
0.03740199
0.013863332
-0.011370575
-0.02504516
-0.011815035
-0.003614485
0.0045104349
0.012761654
0.021152776
0.029621898
0.037994969
0.01404225
-0.010539713
-0.023017402
-0.010548332
-0.0027959525
0.0051135116
0.013298899
0.021744841
0.030397024
0.039021877
0.014426506
-0.0080815223
-0.018452858
-0.0092730389
-0.0021716588
0.0055083694
0.013643526
0.022189246
0.031241785
0.041192188
0.015489125
-0.014826545
-0.033137761
-0.017032637
-0.007920178
0.00062181369
0.0088572198
0.016709811
0.023842794
0.029242757
0.010439901
-0.012877432
-0.02957415
-0.016121432
-0.0074678946
0.00098575424
0.0093062726
0.01749379
0.025631965
0.03427611
0.01294792
-0.012450804
-0.028480565
-0.015339602
-0.0068643807
0.0015459492
0.0099519516
0.018382318
0.02695634
0.03596619
0.013543535
-0.012269962
-0.027881115
-0.01469381
-0.0062392718
0.0021744132
0.010638382
0.019184471
0.027887717
0.03686641
0.013813885
-0.012149282
-0.027424768
-0.014110979
-0.0056148555
0.002818068
0.011309158
0.019887711
0.028586944
0.037437187
0.013967722
-0.012027335
-0.02695698
-0.013505152
-0.0049671529
0.0034706778
0.011960401
0.020529607
0.029179071
0.037885063
0.014082569
-0.011849913
-0.026330036
-0.01277887
-0.0042576488
0.004140087
0.012601493
0.02115164
0.02975916
0.038339154
0.014202781
-0.011504683
-0.025284473
-0.01181447
-0.0034617597
0.0048158138
0.01322433
0.021777534
0.030411663
0.03894763
0.014386483
-0.010657132
-0.02321649
-0.010523118
-0.0026270445
0.0054314409
0.013773709
0.022384231
0.031207352
0.040002936
0.01478151
-0.0081491137
-0.018561039
-0.0092241699
-0.0019907634
0.0058344666
0.014126297
0.022840102
0.032075445
0.042234802
0.015874394
-0.014918492
-0.033290773
-0.017010395
-0.0077964823
0.00084306593
0.0091748872
0.017121362
0.024340935
0.029806402
0.010636087
-0.012951103
-0.029694682
-0.016091912
-0.0073402189
0.0012108643
0.0096293377
0.017915319
0.026153455
0.034906443
0.013177446
-0.012521098
-0.028592497
-0.015303636
-0.0067309492
0.0017772149
0.010282794
0.018814975
0.027494454
0.036616791
0.013779931
-0.012338781
-0.027987923
-0.014651784
-0.0060992985
0.0024129157
0.010977655
0.019627272
0.0284376
0.037528054
0.014053502
-0.012216922
-0.027526964
-0.014062715
-0.00546775
0.0030643962
0.011656996
0.020339752
0.029146084
0.038106311
0.014209329
-0.012093582
-0.027053774
-0.013449732
-0.0048121172
0.0037253751
0.012316999
0.020990636
0.029746738
0.038560743
0.014325869
-0.011913955
-0.026419057
-0.012714398
-0.0040935478
0.0044037403
0.012967198
0.021622078
0.030336116
0.03902245
0.014448152
-0.011564277
-0.025360161
-0.01173778
-0.0032873406
0.0050887394
0.013599325
0.022258208
0.031000206
0.039642416
0.014635426
-0.010705608
-0.023265538
-0.010430254
-0.0024419178
0.0057128786
0.01415723
0.022875546
0.031811213
0.040719154
0.015038617
-0.0081642496
-0.018549772
-0.0091161696
-0.0017978208
0.006121429
0.014515463
0.023339881
0.03269691
0.042997826
0.01615454
-0.014915402
-0.03323203
-0.016880596
-0.0076243159
0.0010572324
0.0094317275
0.017420665
0.024679948
0.030175247
0.010762744
-0.012942304
-0.029626424
-0.015960697
-0.0071669916
0.0014265267
0.0098886481
0.018219477
0.026504109
0.035309019
0.013321019
-0.012511665
-0.028522672
-0.015171013
-0.0065558697
0.0019953942
0.010545673
0.019124458
0.027853078
0.037028603
0.013926491
-0.012329038
-0.027916841
-0.014517276
-0.0059217305
0.0026342441
0.011244488
0.019941659
0.028801908
0.037945032
0.014201519
-0.012206782
-0.027454226
-0.013925752
-0.0052871095
0.003289357
0.011928017
0.020658785
0.029515078
0.038527038
0.01435833
-0.012082842
-0.026978679
-0.013309559
-0.0046277677
0.003954446
0.012592522
0.021314455
0.030120379
0.03898509
0.01447581
-0.011902168
-0.026340281
-0.012569912
-0.0039047652
0.0046373914
0.013247631
0.021951223
0.030715231
0.03945142
0.01459937
-0.011550301
-0.025274886
-0.011587376
-0.003093441
0.005327241
0.013884961
0.02259347
0.031386599
0.040078846
0.014788999
-0.010686061
-0.02316715
-0.010272112
-0.0022427655
0.0059558617
0.014447783
0.023217443
0.03220765
0.041170003
0.015197725
-0.0081277862
-0.01842153
-0.0089513625
-0.0015950061
0.0063672987
0.014809343
0.023687227
0.033105182
0.043480619
0.016329409
-0.014818875
-0.032965649
-0.016646358
-0.0074061648
0.0012624557
0.0096265241
0.017607152
0.024859899
0.030349902
0.010820154
-0.012852502
-0.029373244
-0.015730829
-0.0069506599
0.0016309125
0.010083019
0.018405748
0.026684112
0.035484776
0.013379084
-0.012423938
-0.028274865
-0.014944705
-0.0063415403
0.0021986991
0.010739448
0.019310313
0.028032491
0.037202692
0.013983705
-0.01224215
-0.027671591
-0.014293205
-0.0057089191
0.0028366539
0.011437787
0.020127233
0.028980983
0.038118472
0.014258446
-0.012120268
-0.02721024
-0.013702964
-0.005075242
0.0034912473
0.012121166
0.020844449
0.029694307
0.038700531
0.014415247
-0.011996512
-0.026735347
-0.013087464
-0.0044163709
0.004156226
0.012785953
0.021500735
0.030300402
0.039159284
0.014532918
-0.011815938
-0.026097316
-0.012348196
-0.0036935236
0.0048394132
0.013441803
0.022138773
0.030896932
0.039627259
0.014656965
-0.011464115
-0.025032187
-0.011365979
-0.002882234
0.0055297279
0.014080277
0.022783035
0.031571281
0.040258121
0.014847731
-0.010599795
-0.022924724
-0.010051326
-0.0020317071
0.0061588325
0.014644428
0.023409652
0.032397106
0.041356681
0.015259363
-0.0080408659
-0.018179398
-0.008732282
-0.001384395
0.00657054
0.015007005
0.023881872
0.033300703
0.043684366
0.016399521
-0.014631039
-0.032496897
-0.016311318
-0.007144678
0.0014570456
0.0097585401
0.017681029
0.024881887
0.030332199
0.01080903
-0.012683625
-0.028940024
-0.015405832
-0.0066938171
0.0018223733
0.010211763
0.018474421
0.026694752
0.035436069
0.013352613
-0.012259791
-0.027853824
-0.014628141
-0.0060904826
0.0023855437
0.010863501
0.019372921
0.02803412
0.037141602
0.013952617
-0.012079968
-0.027256847
-0.013982923
-0.0054633151
0.0030186268
0.011557005
0.020184458
0.02897635
0.038051018
0.014225357
-0.011959217
-0.026799629
-0.013397639
-0.0048345315
0.003668615
0.012235964
0.02089728
0.029685367
0.038629488
0.014381166
-0.011836416
-0.026328349
-0.012786669
-0.0041802438
0.0043293271
0.012896872
0.02155007
0.030288455
0.039086066
0.01449829
-0.011657068
-0.025694668
-0.012052396
-0.0034620686
0.0050084814
0.013549352
0.022185371
0.03088291
0.039552735
0.014622042
-0.011307488
-0.024636457
-0.011076632
-0.0026558848
0.0056949387
0.014184962
0.022827591
0.031555981
0.04018304
0.014812736
-0.010448491
-0.022542434
-0.0097707988
-0.0018108216
0.006320587
0.014746894
0.023452896
0.03238135
0.04128203
0.015224659
-0.0079049075
-0.017827053
-0.008461684
-0.0011679983
0.0067299864
0.015108208
0.023924566
0.033285276
0.043611988
0.016366042
-0.014354535
-0.031832148
-0.015879627
-0.0068426844
0.001639442
0.0098274667
0.017643212
0.024747975
0.030125123
0.010730492
-0.012438036
-0.028332627
-0.014989714
-0.0063992203
0.001999404
0.010274637
0.018426525
0.026538346
0.035166597
0.013243082
-0.012021521
-0.027265236
-0.0142252
-0.0058053603
0.0025545058
0.010917682
0.01931344
0.027860476
0.036849282
0.013834791
-0.01184476
-0.0266782
-0.013590209
-0.0051874887
0.0031788312
0.011602088
0.020114603
0.02879065
0.037746747
0.014103855
-0.011725878
-0.026227912
-0.013013468
-0.004567458
0.0038202185
0.012272448
0.020818641
0.029490994
0.038318068
0.014257714
-0.011604785
-0.025763136
-0.012410782
-0.003921776
0.0044725964
0.012925401
0.021463904
0.030087348
0.038769645
0.014373566
-0.011427765
-0.025137697
-0.011686017
-0.0032126919
0.0051435317
0.013570481
0.022092534
0.030676039
0.039232108
0.014496252
-0.011082576
-0.024092908
-0.010722704
-0.0024165751
0.0058218976
0.014199295
0.022728725
0.031343638
0.039857918
0.014685682
-0.010234184
-0.022025196
-0.0094337126
-0.0015821738
0.0064402299
0.014755526
0.023348823
0.03216339
0.040950451
0.015095312
-0.0077215938
-0.017368749
-0.0081425534
-0.00094778936
0.0068447958
0.015113335
0.023816998
0.03306198
0.043268059
0.016230754
-0.013992484
-0.030978832
-0.015355935
-0.0065032056
0.0018081817
0.0098333739
0.017495264
0.024461124
0.029732749
0.010586049
-0.012118511
-0.027557844
-0.01448695
-0.0060698041
0.0021606093
0.010271791
0.018263765
0.02621817
0.034681314
0.013052439
-0.011711825
-0.026515682
-0.013740206
-0.0054889941
0.0027042922
0.010902256
0.019133731
0.02751507
0.036330999
0.013632286
-0.011539187
-0.025942114
-0.013119265
-0.0048841456
0.0033160865
0.011573423
0.01991967
0.028427562
0.037211089
0.01389605
-0.01142289
-0.02550147
-0.012554548
-0.0042766154
0.0039449897
0.01223112
0.020610654
0.029114984
0.037771796
0.014047025
-0.011304236
-0.025046004
-0.011963788
-0.0036434481
0.0045850775
0.012872154
0.021244466