/*--------------------------------*- C++ -*----------------------------------*\
| =========                 |                                                 |
| \\      /  F ield         | OpenFOAM: The Open Source CFD Toolbox           |
|  \\    /   O peration     | Version:  v2106                                 |
|   \\  /    A nd           | Website:  www.openfoam.com                      |
|    \\/     M anipulation  |                                                 |
\*---------------------------------------------------------------------------*/
FoamFile
{
    version     2.0;
    format      ascii;
    arch        "LSB;label=32;scalar=64";
    class       volScalarField;
    location    "62.5";
    object      laplacianT;
}
// * * * * * * * * * * * * * * * * * * * * * * * * * * * * * * * * * * * * * //

dimensions      [0 -2 0 1 0 0 0];

internalField   nonuniform List<scalar> 
4000
(
40837.766
40837.813
40837.631
40837.544
40837.502
40837.499
40837.531
40837.593
40837.672
40837.744
40837.813
40837.827
40837.659
40837.575
40837.535
40837.534
40837.569
40837.634
40837.723
40837.796
40837.631
40837.659
40837.497
40837.416
40837.379
40837.38
40837.418
40837.488
40837.584
40837.665
40837.544
40837.575
40837.416
40837.338
40837.304
40837.308
40837.35
40837.423
40837.524
40837.608
40837.502
40837.535
40837.379
40837.304
40837.272
40837.28
40837.324
40837.401
40837.504
40837.59
40837.499
40837.534
40837.38
40837.308
40837.28
40837.29
40837.337
40837.417
40837.522
40837.61
40837.531
40837.569
40837.418
40837.35
40837.324
40837.337
40837.387
40837.469
40837.576
40837.665
40837.593
40837.634
40837.488
40837.423
40837.401
40837.417
40837.469
40837.553
40837.663
40837.753
40837.672
40837.723
40837.584
40837.524
40837.504
40837.522
40837.576
40837.663
40837.775
40837.867
40837.744
40837.796
40837.665
40837.608
40837.59
40837.61
40837.665
40837.753
40837.867
40837.962
-537.41703
-536.11443
-536.28032
-536.28067
-536.27853
-536.27791
-536.27881
-536.28108
-536.28446
-536.33719
-536.11443
-535.15396
-535.29071
-535.28947
-535.2872
-535.28661
-535.28767
-535.2903
-535.29434
-535.61146
-536.28032
-535.29071
-535.42464
-535.42345
-535.4213
-535.42082
-535.422
-535.4248
-535.42915
-535.72821
-536.28067
-535.28947
-535.42345
-535.42237
-535.42034
-535.41996
-535.42127
-535.42423
-535.42877
-535.72858
-536.27853
-535.2872
-535.4213
-535.42034
-535.41841
-535.41814
-535.41956
-535.42264
-535.4273
-535.72732
-536.27791
-535.28661
-535.42082
-535.41996
-535.41814
-535.41798
-535.4195
-535.42268
-535.42744
-535.72756
-536.27881
-535.28767
-535.422
-535.42127
-535.41956
-535.4195
-535.42112
-535.4244
-535.42923
-535.72942
-536.28108
-535.2903
-535.4248
-535.42423
-535.42264
-535.42268
-535.4244
-535.42777
-535.4327
-535.73294
-536.28446
-535.29434
-535.42915
-535.42877
-535.4273
-535.42744
-535.42923
-535.4327
-535.43774
-535.73806
-536.33719
-535.61146
-535.72821
-535.72858
-535.72732
-535.72756
-535.72942
-535.73294
-535.73806
-536.0495
-523.27933
-521.33865
-521.61118
-521.61346
-521.61066
-521.60974
-521.6108
-521.61376
-521.61839
-521.95067
-521.33865
-519.92762
-520.15051
-520.15001
-520.14701
-520.14613
-520.14744
-520.15091
-520.15652
-520.9807
-521.61118
-520.15051
-520.36833
-520.36783
-520.36498
-520.36423
-520.36568
-520.36937
-520.37536
-521.15744
-521.61346
-520.15001
-520.36783
-520.36746
-520.36474
-520.36412
-520.36573
-520.36962
-520.37585
-521.15889
-521.61066
-520.14701
-520.36498
-520.36474
-520.36215
-520.36165
-520.3634
-520.36744
-520.37383
-521.1572
-521.60974
-520.14613
-520.36423
-520.36412
-520.36165
-520.36128
-520.36315
-520.36732
-520.37382
-521.15738
-521.6108
-520.14744
-520.36568
-520.36573
-520.3634
-520.36315
-520.36514
-520.36942
-520.37604
-521.15968
-521.61376
-520.15091
-520.36937
-520.36962
-520.36744
-520.36732
-520.36942
-520.37383
-520.38057
-521.16424
-521.61839
-520.15652
-520.37536
-520.37585
-520.37383
-520.37382
-520.37604
-520.38057
-520.38749
-521.1712
-521.95067
-520.9807
-521.15744
-521.15889
-521.1572
-521.15738
-521.15968
-521.16424
-521.1712
-522.07402
-509.71012
-507.15935
-507.53061
-507.53462
-507.53126
-507.5301
-507.53138
-507.53503
-507.54087
-508.13
-507.15935
-505.31044
-505.6137
-505.61391
-505.61028
-505.60919
-505.61079
-505.61513
-505.62224
-506.92945
-507.53061
-505.6137
-505.90995
-505.9101
-505.90665
-505.9057
-505.90747
-505.91207
-505.91965
-507.16036
-507.53462
-505.61391
-505.9101
-505.91041
-505.90711
-505.90631
-505.90826
-505.9131
-505.92097
-507.16273
-507.53126
-505.61028
-505.90665
-505.90711
-505.90394
-505.90329
-505.90541
-505.91042
-505.91848
-507.1607
-507.5301
-505.60919
-505.9057
-505.90631
-505.90329
-505.90279
-505.90504
-505.9102
-505.91841
-507.16087
-507.53138
-505.61079
-505.90747
-505.90826
-505.90541
-505.90504
-505.90743
-505.91274
-505.92108
-507.16365
-507.53503
-505.61513
-505.91207
-505.9131
-505.91042
-505.9102
-505.91274
-505.91819
-505.92669
-507.16927
-507.54087
-505.62224
-505.91965
-505.92097
-505.91848
-505.91841
-505.92108
-505.92669
-505.93542
-507.17799
-508.13
-506.92945
-507.16036
-507.16273
-507.1607
-507.16087
-507.16365
-507.16927
-507.17799
-508.63877
-496.67325
-493.5329
-493.9991
-494.00483
-494.00098
-493.99963
-494.00112
-494.00545
-494.01243
-494.851
-493.5329
-491.26121
-491.64191
-491.64285
-491.63867
-491.6374
-491.63931
-491.64449
-491.65303
-493.42864
-493.9991
-491.64191
-492.01372
-492.01457
-492.01058
-492.00948
-492.01158
-492.01704
-492.02613
-493.71138
-494.00483
-491.64285
-492.01457
-492.01558
-492.01175
-492.01083
-492.01313
-492.01887
-492.0283
-493.71465
-494.00098
-491.63867
-492.01058
-492.01175
-492.00809
-492.00732
-492.00981
-492.01576
-492.0254
-493.71234
-493.99963
-491.6374
-492.00948
-492.01083
-492.00732
-492.00672
-492.00936
-492.01549
-492.02529
-493.71253
-494.00112
-491.63931
-492.01158
-492.01313
-492.00981
-492.00936
-492.01217
-492.01846
-492.02842
-493.71578
-494.00545
-491.64449
-492.01704
-492.01887
-492.01576
-492.01549
-492.01846
-492.02493
-492.03509
-493.72241
-494.01243
-491.65303
-492.02613
-492.0283
-492.0254
-492.02529
-492.02842
-492.03509
-492.04552
-493.73278
-494.851
-493.42864
-493.71138
-493.71465
-493.71234
-493.71253
-493.71578
-493.72241
-493.73278
-495.73209
-484.15979
-480.45684
-481.01413
-481.02156
-481.01726
-481.01574
-481.01744
-481.0224
-481.03043
-482.11003
-480.45684
-477.78235
-478.23735
-478.23905
-478.23436
-478.23294
-478.23514
-478.2411
-478.25097
-480.47769
-481.01413
-478.23735
-478.68165
-478.6832
-478.67872
-478.67749
-478.6799
-478.68618
-478.69665
-480.80998
-481.02156
-478.23905
-478.6832
-478.68493
-478.68063
-478.67959
-478.68222
-478.68882
-478.69968
-480.81416
-481.01726
-478.23436
-478.67872
-478.68063
-478.67651
-478.67564
-478.67848
-478.68531
-478.69642
-480.81158
-481.01574
-478.23294
-478.67749
-478.67959
-478.67564
-478.67495
-478.67797
-478.685
-478.69629
-480.81181
-481.01744
-478.23514
-478.6799
-478.68222
-478.67848
-478.67797
-478.68117
-478.68838
-478.69986
-480.8155
-481.0224
-478.2411
-478.68618
-478.68882
-478.68531
-478.685
-478.68838
-478.6958
-478.7075
-480.82308
-481.03043
-478.25097
-478.69665
-478.69968
-478.69642
-478.69629
-478.69986
-478.7075
-478.71953
-480.83497
-482.11003
-480.47769
-480.80998
-480.81416
-480.81158
-480.81181
-480.8155
-480.82308
-480.83497
-483.35329
-472.16892
-467.9341
-468.57809
-468.58717
-468.58245
-468.58076
-468.58265
-468.58818
-468.59717
-469.90777
-467.9341
-464.87942
-465.40511
-465.40755
-465.4024
-465.40083
-465.40329
-465.40997
-465.42105
-468.07871
-468.57809
-465.40511
-465.91836
-465.92061
-465.91568
-465.91432
-465.917
-465.92403
-465.93578
-468.45801
-468.58717
-465.40755
-465.92061
-465.92305
-465.91832
-465.91716
-465.92009
-465.92747
-465.93964
-468.46306
-468.58245
-465.4024
-465.91568
-465.91832
-465.91377
-465.91281
-465.91596
-465.92359
-465.93604
-468.46024
-468.58076
-465.40083
-465.91432
-465.91716
-465.91281
-465.91203
-465.91538
-465.92323
-465.93589
-468.46048
-468.58265
-465.40329
-465.917
-465.92009
-465.91596
-465.91538
-465.91894
-465.92699
-465.93985
-468.46458
-468.58818
-465.40997
-465.92403
-465.92747
-465.92359
-465.92323
-465.92699
-465.93528
-465.9484
-468.47302
-468.59717
-465.42105
-465.93578
-465.93964
-465.93604
-465.93589
-465.93985
-465.9484
-465.96189
-468.4863
-469.90777
-468.07871
-468.45801
-468.46306
-468.46024
-468.46048
-468.46458
-468.47302
-468.4863
-471.50105
-460.69923
-455.96644
-456.69218
-456.70286
-456.69776
-456.6959
-456.69794
-456.70397
-456.71381
-458.24396
-455.96644
-452.5564
-453.14872
-453.15191
-453.14631
-453.1446
-453.14728
-453.1546
-453.16677
-456.23257
-456.69218
-453.14872
-453.72696
-453.7299
-453.72455
-453.72305
-453.72597
-453.73366
-453.74656
-456.65601
-456.70286
-453.15191
-453.7299
-453.73304
-453.7279
-453.72662
-453.7298
-453.73787
-453.75124
-456.66191
-456.69776
-453.14631
-453.72455
-453.7279
-453.72296
-453.72188
-453.72531
-453.73365
-453.74731
-456.65886
-456.6959
-453.1446
-453.72305
-453.72662
-453.72188
-453.72101
-453.72465
-453.73323
-453.74712
-456.65911
-456.69794
-453.14728
-453.72597
-453.7298
-453.72531
-453.72465
-453.72851
-453.73732
-453.75143
-456.66356
-456.70397
-453.1546
-453.73366
-453.73787
-453.73365
-453.73323
-453.73732
-453.74638
-453.76079
-456.67277
-456.71381
-453.16677
-453.74656
-453.75124
-453.74731
-453.74712
-453.75143
-453.76079
-453.77561
-456.6873
-458.24396
-456.23257
-456.65601
-456.66191
-456.65886
-456.65911
-456.66356
-456.67277
-456.6873
-460.17286
-449.74808
-444.55405
-445.35611
-445.36832
-445.36286
-445.36083
-445.36298
-445.36944
-445.38003
-447.11696
-444.55405
-440.81546
-441.46997
-441.47387
-441.46786
-441.46599
-441.46885
-441.47671
-441.48986
-444.9386
-445.35611
-441.46997
-442.10882
-442.11243
-442.10669
-442.10504
-442.10814
-442.11641
-442.13033
-445.40307
-445.36832
-441.47387
-442.11243
-442.11625
-442.11072
-442.10931
-442.1127
-442.12137
-442.13578
-445.40977
-445.36286
-441.46786
-442.10669
-442.11072
-442.10541
-442.10421
-442.10786
-442.11682
-442.13156
-445.40649
-445.36083
-441.46599
-442.10504
-442.10931
-442.10421
-442.10323
-442.10711
-442.11633
-442.13131
-445.40673
-445.36298
-441.46885
-442.10814
-442.1127
-442.10786
-442.10711
-442.11122
-442.12069
-442.13592
-445.41148
-445.36944
-441.47671
-442.11641
-442.12137
-442.11682
-442.11633
-442.12069
-442.13043
-442.14598
-445.42136
-445.38003
-441.48986
-442.13033
-442.13578
-442.13156
-442.13131
-442.13592
-442.14598
-442.16197
-445.437
-447.11696
-444.9386
-445.40307
-445.40977
-445.40649
-445.40673
-445.41148
-445.42136
-445.437
-449.36496
-439.31152
-433.69551
-434.56799
-434.58164
-434.57585
-434.57364
-434.57587
-434.58267
-434.59392
-436.52365
-433.69551
-429.6569
-430.36878
-430.37336
-430.36698
-430.36494
-430.36792
-430.37626
-430.39024
-434.19456
-434.56799
-430.36878
-431.06354
-431.06779
-431.06167
-431.05987
-431.06311
-431.07186
-431.08666
-434.6967
-434.58164
-430.37336
-431.06779
-431.07225
-431.06636
-431.0648
-431.06835
-431.07752
-431.09285
-434.70416
-434.57585
-430.36698
-431.06167
-431.06636
-431.06069
-431.05936
-431.06318
-431.07267
-431.08834
-434.70067
-434.57364
-430.36494
-431.05987
-431.0648
-431.05936
-431.05826
-431.06233
-431.07209
-431.08802
-434.70087
-434.57587
-430.36792
-431.06311
-431.06835
-431.06318
-431.06233
-431.06664
-431.07666
-431.09286
-434.70585
-434.58267
-430.37626
-431.07186
-431.07752
-431.07267
-431.07209
-431.07666
-431.08699
-431.10353
-434.7163
-434.59392
-430.39024
-431.08666
-431.09285
-431.08834
-431.08802
-431.09286
-431.10353
-431.12055
-434.73291
-436.52365
-434.19456
-434.6967
-434.70416
-434.70067
-434.70087
-434.70585
-434.7163
-434.73291
-439.07232
-429.3843
-423.38772
-424.32433
-424.33933
-424.33324
-424.33085
-424.33311
-424.3402
-424.35199
-426.45951
-423.38772
-419.07915
-419.84325
-419.84848
-419.84175
-419.83954
-419.8426
-419.85131
-419.86601
-423.99663
-424.32433
-419.84325
-420.58888
-420.59373
-420.58728
-420.58532
-420.58865
-420.59779
-420.61334
-424.53287
-424.33933
-419.84848
-420.59373
-420.59881
-420.59259
-420.59088
-420.59453
-420.60412
-420.62022
-424.54102
-424.33323
-419.84175
-420.58728
-420.59259
-420.58659
-420.58512
-420.58905
-420.59898
-420.61544
-424.53733
-424.33085
-419.83954
-420.58532
-420.59088
-420.58512
-420.58389
-420.58808
-420.59829
-420.61503
-424.53748
-424.33311
-419.8426
-420.58865
-420.59453
-420.58905
-420.58808
-420.59254
-420.60302
-420.62004
-424.54264
-424.3402
-419.85131
-420.59779
-420.60412
-420.59898
-420.59829
-420.60302
-420.61383
-420.63121
-424.55356
-424.35199
-419.86601
-420.61334
-420.62022
-420.61544
-420.61503
-420.62004
-420.63121
-420.64912
-424.57099
-426.45951
-423.99663
-424.53287
-424.54102
-424.53733
-424.53748
-424.54264
-424.55356
-424.57099
-429.28867
-419.95984
-413.62596
-414.62007
-414.63631
-414.62994
-414.62739
-414.62964
-414.63694
-414.64917
-416.91851
-413.62596
-409.07875
-409.88964
-409.89548
-409.88843
-409.88605
-409.88915
-409.89816
-409.91344
-414.3394
-414.62007
-409.88964
-410.68084
-410.68626
-410.6795
-410.67737
-410.68075
-410.6902
-410.70636
-414.90599
-414.63631
-409.89548
-410.68626
-410.69191
-410.68539
-410.68351
-410.68722
-410.69713
-410.71387
-414.91477
-414.62994
-409.88843
-410.6795
-410.68539
-410.67909
-410.67747
-410.68147
-410.69173
-410.70885
-414.91089
-414.62739
-409.88605
-410.67737
-410.68351
-410.67747
-410.6761
-410.68037
-410.69093
-410.70833
-414.91097
-414.62964
-409.88915
-410.68075
-410.68722
-410.68147
-410.68037
-410.68492
-410.69577
-410.71347
-414.91626
-414.63694
-409.89816
-410.6902
-410.69713
-410.69173
-410.69093
-410.69577
-410.70696
-410.72504
-414.92756
-414.64917
-409.91344
-410.70636
-410.71387
-410.70885
-410.70833
-410.71347
-410.72504
-410.74368
-414.94567
-416.91851
-414.3394
-414.90599
-414.91477
-414.91089
-414.91097
-414.91626
-414.92756
-414.94567
-420.00643
-411.03029
-404.40389
-405.44858
-405.46594
-405.45934
-405.45661
-405.45883
-405.46627
-405.47883
-407.89325
-404.40389
-399.65037
-400.50239
-400.5088
-400.50147
-400.49892
-400.50202
-400.51124
-400.52698
-405.21591
-405.44858
-400.50239
-401.33364
-401.33958
-401.33255
-401.33025
-401.33364
-401.34331
-401.35995
-405.80894
-405.46594
-400.5088
-401.33958
-401.34576
-401.33896
-401.33693
-401.34066
-401.35081
-401.36804
-405.81829
-405.45934
-400.50147
-401.33255
-401.33896
-401.33241
-401.33063
-401.33466
-401.34517
-401.36279
-405.81425
-405.45661
-400.49892
-401.33025
-401.33693
-401.33063
-401.32912
-401.33342
-401.34424
-401.36216
-405.81424
-405.45883
-400.50202
-401.33364
-401.34066
-401.33466
-401.33342
-401.33801
-401.34914
-401.36737
-405.81961
-405.46627
-400.51124
-401.34331
-401.35081
-401.34517
-401.34424
-401.34914
-401.36061
-401.37925
-405.83119
-405.47883
-400.52698
-401.35995
-401.36804
-401.36279
-401.36216
-401.36737
-401.37925
-401.39847
-405.84983
-407.89325
-405.21591
-405.80894
-405.81829
-405.81425
-405.81424
-405.81961
-405.83119
-405.84983
-411.21681
-402.58656
-395.7136
-396.80169
-396.82006
-396.81326
-396.81036
-396.81252
-396.82004
-396.83285
-399.37491
-395.7136
-390.78689
-391.67419
-391.68112
-391.67355
-391.67083
-391.67391
-391.68326
-391.69933
-396.61769
-396.80169
-391.67419
-392.53976
-392.54618
-392.53891
-392.53646
-392.53981
-392.54963
-392.56662
-397.23312
-396.82006
-391.68112
-392.54618
-392.55284
-392.54581
-392.54362
-392.54733
-392.55763
-392.57524
-397.24299
-396.81326
-391.67355
-392.53891
-392.54581
-392.53903
-392.5371
-392.54111
-392.55179
-392.56979
-397.23879
-396.81036
-391.67083
-392.53646
-392.54362
-392.5371
-392.53544
-392.53974
-392.55073
-392.56904
-397.23869
-396.81252
-391.67391
-392.53981
-392.54733
-392.54111
-392.53974
-392.54433
-392.55564
-392.57427
-397.24409
-396.82004
-391.68326
-392.54963
-392.55763
-392.55179
-392.55073
-392.55564
-392.56731
-392.58636
-397.25586
-396.83285
-391.69933
-392.56662
-392.57524
-392.56979
-392.56904
-392.57427
-392.58636
-392.60601
-397.27489
-399.37491
-396.61769
-397.23312
-397.24299
-397.23879
-397.23869
-397.24409
-397.25586
-397.27489
-402.90983
-394.61835
-387.54565
-388.66978
-388.68904
-388.68207
-388.67902
-388.6811
-388.68865
-388.70159
-391.35335
-387.54565
-382.47943
-383.396
-383.4034
-383.39563
-383.39276
-383.39577
-383.40519
-383.42148
-388.53479
-388.66978
-383.396
-384.29002
-384.29688
-384.28942
-384.28681
-384.2901
-384.29998
-384.31721
-389.16851
-388.68904
-383.4034
-384.29688
-384.30396
-384.29675
-384.29441
-384.29806
-384.30844
-384.32628
-389.17882
-388.68207
-383.39563
-384.28942
-384.29675
-384.28978
-384.28771
-384.29167
-384.30242
-384.32067
-389.1745
-388.67902
-383.39276
-384.28681
-384.29441
-384.28771
-384.2859
-384.29016
-384.30123
-384.3198
-389.1743
-388.6811
-383.39577
-384.2901
-384.29806
-384.29167
-384.29016
-384.29471
-384.30612
-384.32502
-389.17968
-388.68865
-383.40519
-384.29998
-384.30844
-384.30242
-384.30123
-384.30612
-384.31789
-384.33722
-389.19156
-388.70159
-383.42148
-384.31721
-384.32628
-384.32067
-384.3198
-384.32502
-384.33722
-384.35717
-389.21085
-391.35335
-388.53479
-389.16851
-389.17882
-389.1745
-389.1743
-389.17968
-389.19156
-389.21085
-395.07435
-387.11423
-379.88915
-381.04181
-381.06183
-381.05474
-381.05156
-381.05354
-381.06105
-381.07405
-383.81713
-379.88915
-374.71741
-375.65714
-375.66494
-375.65703
-375.65402
-375.65694
-375.66635
-375.68275
-380.95588
-381.04181
-375.65714
-376.57363
-376.58088
-376.57327
-376.57052
-376.57373
-376.58361
-376.60094
-381.6037
-381.06183
-375.66494
-376.58088
-376.58835
-376.58098
-376.57851
-376.58207
-376.59245
-376.61041
-381.61437
-381.05474
-375.65703
-376.57327
-376.58098
-376.57387
-376.57166
-376.57554
-376.5863
-376.60467
-381.60995
-381.05156
-375.65402
-376.57052
-376.57851
-376.57166
-376.56972
-376.5739
-376.58499
-376.60368
-381.60966
-381.05354
-375.65694
-376.57373
-376.58207
-376.57554
-376.5739
-376.57838
-376.5898
-376.60884
-381.61498
-381.06105
-375.66635
-376.58361
-376.59245
-376.5863
-376.58499
-376.5898
-376.60161
-376.62108
-381.62688
-381.07405
-375.68275
-376.60094
-376.61041
-376.60467
-376.60368
-376.60884
-376.62108
-376.64118
-381.6463
-383.81713
-380.95588
-381.6037
-381.61437
-381.60995
-381.60966
-381.61498
-381.62688
-381.6463
-387.69813
-380.06169
-372.7318
-373.90542
-373.92606
-373.91889
-373.91559
-373.91746
-373.92488
-373.93785
-376.75361
-372.7318
-367.48864
-368.44534
-368.4535
-368.44549
-368.44236
-368.44517
-368.45451
-368.4709
-373.86829
-373.90542
-368.44534
-369.37828
-369.38586
-369.37815
-369.37528
-369.37837
-369.38818
-369.40551
-374.52596
-373.92606
-368.4535
-369.38586
-369.39366
-369.38619
-369.38359
-369.38704
-369.39736
-369.41532
-374.53694
-373.91889
-368.44549
-369.37815
-369.38619
-369.37897
-369.37664
-369.38041
-369.39111
-369.40948
-374.53245
-373.91559
-368.44236
-369.37528
-369.38359
-369.37664
-369.37458
-369.37865
-369.38968
-369.40838
-374.53205
-373.91746
-368.44517
-369.37837
-369.38704
-369.38041
-369.37865
-369.38303
-369.3944
-369.41344
-374.53729
-373.92488
-368.45451
-369.38818
-369.39736
-369.39111
-369.38968
-369.3944
-369.40615
-369.42564
-374.54913
-373.93785
-368.4709
-369.40551
-369.41532
-369.40948
-369.40838
-369.41344
-369.42564
-369.44576
-374.56854
-376.75361
-373.86829
-374.52596
-374.53694
-374.53245
-374.53205
-374.53729
-374.54913
-374.56854
-380.76794
-373.4472
-366.05998
-367.24695
-367.26807
-367.26087
-367.25747
-367.25922
-367.26651
-367.27936
-370.14901
-366.05998
-360.7794
-361.74685
-361.75532
-361.74726
-361.74402
-361.74671
-361.75593
-361.77221
-367.25807
-367.24695
-361.74685
-362.69018
-362.69804
-362.69028
-362.6873
-362.69027
-362.69995
-362.71716
-367.92137
-367.26807
-361.75532
-362.69804
-362.70611
-362.69859
-362.69589
-362.69921
-362.70939
-362.72723
-367.93257
-367.26087
-361.74726
-362.69028
-362.69859
-362.69132
-362.68888
-362.69252
-362.70308
-362.72133
-367.92803
-367.25747
-361.74402
-362.6873
-362.69589
-362.68888
-362.68671
-362.69065
-362.70154
-362.72013
-367.92755
-367.25922
-361.74671
-362.69027
-362.69921
-362.69252
-362.69065
-362.6949
-362.70614
-362.72507
-367.93266
-367.26651
-361.75593
-362.69995
-362.70939
-362.70308
-362.70155
-362.70614
-362.71776
-362.73714
-367.94438
-367.27936
-361.77221
-362.71716
-362.72723
-362.72133
-362.72013
-362.72507
-362.73714
-362.75716
-367.96366
-370.14901
-367.25807
-367.92137
-367.93257
-367.92803
-367.92755
-367.93266
-367.94438
-367.96366
-374.26954
-367.25628
-359.85886
-361.05156
-361.07303
-361.06584
-361.06237
-361.06398
-361.0711
-361.08376
-363.98847
-359.85886
-354.57451
-355.54651
-355.55523
-355.54717
-355.54385
-355.54639
-355.55543
-355.57151
-361.11011
-361.05156
-355.54651
-356.49418
-356.50227
-356.4945
-356.49144
-356.49426
-356.50376
-356.52075
-361.77481
-361.07303
-355.55523
-356.50227
-356.51056
-356.50304
-356.50024
-356.50341
-356.5134
-356.53102
-361.78617
-361.06584
-355.54717
-356.4945
-356.50304
-356.49575
-356.49322
-356.49671
-356.50708
-356.5251
-361.78161
-361.06237
-355.54385
-356.49144
-356.50024
-356.49322
-356.49095
-356.49474
-356.50544
-356.5238
-361.78104
-361.06398
-355.54639
-356.49426
-356.50341
-356.49671
-356.49474
-356.49884
-356.50988
-356.52859
-361.786
-361.0711
-355.55543
-356.50376
-356.5134
-356.50708
-356.50544
-356.50988
-356.52131
-356.54047
-361.79752
-361.08376
-355.57151
-356.52075
-356.53102
-356.5251
-356.5238
-356.52859
-356.54047
-356.56026
-361.81656
-363.98847
-361.11011
-361.77481
-361.78617
-361.78161
-361.78104
-361.786
-361.79752
-361.81656
-368.18784
-361.47359
-354.11243
-355.30331
-355.32498
-355.31785
-355.31433
-355.3158
-355.3227
-355.3351
-358.25614
-354.11243
-348.85744
-349.82784
-349.83675
-349.82874
-349.82536
-349.82775
-349.83656
-349.85233
-355.4082
-355.30331
-349.82784
-350.77386
-350.78211
-350.7744
-350.77127
-350.77393
-350.78319
-350.79986
-356.07012
-355.32498
-349.83675
-350.78211
-350.79058
-350.78309
-350.78022
-350.78323
-350.79297
-350.81026
-356.08155
-355.31785
-349.82874
-350.7744
-350.78309
-350.77583
-350.77323
-350.77655
-350.78667
-350.80436
-356.07701
-355.31433
-349.82536
-350.77127
-350.78022
-350.77323
-350.77089
-350.77451
-350.78495
-350.80297
-356.07635
-355.3158
-349.82775
-350.77393
-350.78323
-350.77655
-350.77451
-350.77843
-350.78922
-350.80758
-356.08114
-355.3227
-349.83656
-350.78319
-350.79297
-350.78667
-350.78495
-350.78922
-350.80039
-350.8192
-356.09239
-355.3351
-349.85233
-350.79986
-350.81026
-350.80436
-350.80297
-350.80758
-350.8192
-350.83865
-356.11108
-358.25614
-355.4082
-356.07012
-356.08155
-356.07701
-356.07635
-356.08114
-356.09239
-356.11108
-362.5069
-356.08298
-348.8036
-349.98522
-350.00696
-349.99993
-349.99637
-349.9977
-350.00436
-350.01642
-352.93525
-348.8036
-343.6104
-344.57314
-344.58217
-344.57426
-344.57084
-344.57308
-344.5816
-344.59699
-350.13512
-349.98522
-344.57314
-345.51159
-345.51996
-345.51234
-345.50917
-345.51167
-345.52063
-345.53689
-350.79013
-350.00696
-344.58217
-345.51996
-345.52853
-345.52113
-345.51822
-345.52105
-345.53049
-345.54735
-350.80157
-349.99993
-344.57426
-345.51234
-345.52113
-345.51396
-345.5113
-345.51443
-345.52424
-345.5415
-350.79707
-349.99637
-344.57084
-345.50917
-345.51822
-345.5113
-345.5089
-345.51233
-345.52246
-345.54004
-350.79633
-349.9977
-344.57308
-345.51167
-345.52105
-345.51443
-345.51233
-345.51606
-345.52653
-345.54445
-350.80092
-350.00436
-344.5816
-345.52063
-345.53049
-345.52424
-345.52246
-345.52653
-345.53738
-345.55574
-350.81185
-350.01642
-344.59699
-345.53689
-345.54735
-345.5415
-345.54004
-345.54445
-345.55574
-345.57474
-350.83008
-352.93525
-350.13512
-350.79013
-350.80157
-350.79707
-350.79633
-350.80092
-350.81185
-350.83008
-357.21008
-351.06759
-343.91432
-345.07939
-345.10105
-345.09417
-345.09061
-345.09179
-345.09817
-345.10983
-348.00824
-343.91432
-338.81443
-339.76357
-339.77266
-339.7649
-339.76148
-339.76354
-339.77174
-339.78666
-345.27271
-345.07939
-339.76357
-340.68867
-340.6971
-340.68962
-340.68643
-340.68875
-340.69737
-340.71314
-345.91679
-345.10105
-339.77266
-340.6971
-340.70572
-340.69845
-340.69551
-340.69816
-340.70725
-340.72359
-345.92816
-345.09417
-339.7649
-340.68962
-340.69845
-340.6914
-340.68871
-340.69165
-340.7011
-340.71783
-345.92373
-345.09061
-339.76148
-340.68643
-340.69551
-340.68871
-340.68627
-340.6895
-340.69926
-340.71631
-345.92293
-345.09179
-339.76354
-340.68875
-340.69816
-340.69165
-340.6895
-340.69302
-340.70312
-340.7205
-345.92729
-345.09817
-339.77174
-340.69737
-340.70725
-340.7011
-340.69926
-340.70312
-340.71359
-340.73141
-345.93784
-345.10983
-339.78666
-340.71314
-340.72359
-340.71783
-340.71631
-340.7205
-340.73141
-340.74984
-345.95551
-348.00824
-345.27271
-345.91679
-345.92816
-345.92373
-345.92293
-345.92729
-345.93784
-345.95551
-352.28004
-346.40992
-339.42567
-340.56709
-340.58853
-340.58183
-340.57829
-340.57933
-340.5854
-340.5966
-343.45679
-339.42567
-334.44953
-335.37929
-335.38839
-335.38082
-335.37741
-335.3793
-335.38714
-335.4015
-340.80201
-340.56709
-335.37929
-336.28542
-336.29385
-336.28654
-336.28337
-336.2855
-336.29374
-336.30893
-341.43125
-340.58853
-335.38839
-336.29385
-336.30245
-336.29536
-336.29241
-336.29486
-336.30356
-336.3193
-341.44248
-340.58183
-335.38082
-336.28654
-336.29536
-336.28847
-336.28577
-336.28851
-336.29755
-336.31367
-341.43815
-340.57829
-335.37741
-336.28337
-336.29241
-336.28577
-336.28331
-336.28632
-336.29568
-336.3121
-341.43728
-340.57933
-335.3793
-336.2855
-336.29486
-336.28851
-336.28632
-336.28963
-336.2993
-336.31606
-341.44141
-340.5854
-335.38714
-336.29374
-336.30356
-336.29755
-336.29568
-336.2993
-336.30934
-336.32652
-341.45152
-340.5966
-335.4015
-336.30893
-336.3193
-336.31367
-336.3121
-336.31606
-336.32652
-336.3443
-341.46854
-343.45679
-340.80201
-341.43125
-341.44248
-341.43815
-341.43728
-341.44141
-341.45152
-341.46854
-347.69892
-342.09192
-335.31791
-336.42882
-336.4499
-336.44342
-336.43993
-336.44082
-336.44655
-336.45724
-339.26192
-335.31791
-330.49475
-331.39955
-331.40858
-331.40125
-331.39788
-331.39959
-331.40704
-331.42077
-336.70333
-336.42882
-331.39955
-332.28125
-332.28962
-332.28255
-332.2794
-332.28134
-332.28917
-332.30369
-337.31396
-336.4499
-331.40858
-332.28962
-332.29816
-332.29128
-332.28835
-332.2906
-332.29886
-332.31392
-337.32497
-336.44342
-331.40125
-332.28255
-332.29128
-332.2846
-332.28191
-332.28443
-332.29303
-332.30845
-337.32076
-336.43993
-331.39788
-332.2794
-332.28835
-332.28191
-332.27945
-332.28224
-332.29113
-332.30685
-337.31985
-336.44082
-331.39959
-332.28134
-332.2906
-332.28443
-332.28224
-332.28531
-332.29451
-332.31056
-337.32372
-336.44655
-331.40704
-332.28917
-332.29886
-332.29303
-332.29113
-332.29451
-332.30407
-332.32053
-337.33334
-336.45724
-331.42077
-332.30369
-332.31392
-332.30845
-332.30685
-332.31056
-332.32053
-332.33756
-337.34963
-339.26192
-336.70333
-337.31396
-337.32497
-337.32076
-337.31985
-337.32372
-337.33334
-337.34963
-343.44833
-338.09507
-331.57067
-332.64446
-332.66504
-332.65882
-332.65541
-332.65615
-332.66152
-332.67165
-335.40415
-331.57067
-326.92833
-327.80278
-327.81169
-327.80464
-327.80133
-327.80287
-327.80988
-327.82293
-332.95635
-332.64446
-327.80278
-328.65484
-328.66309
-328.65628
-328.65318
-328.65494
-328.66231
-328.67611
-333.54475
-332.66504
-327.81169
-328.66309
-328.6715
-328.66488
-328.66199
-328.66403
-328.67182
-328.68613
-333.55547
-332.65882
-327.80464
-328.65628
-328.66488
-328.65845
-328.65578
-328.65808
-328.6662
-328.68085
-333.55141
-332.65541
-327.80133
-328.65318
-328.66199
-328.65578
-328.65334
-328.6559
-328.66429
-328.67924
-333.55045
-332.65615
-327.80287
-328.65494
-328.66403
-328.65808
-328.6559
-328.65873
-328.66742
-328.68267
-333.55406
-332.66152
-327.80988
-328.66231
-328.67182
-328.6662
-328.66429
-328.66742
-328.67646
-328.69211
-333.56315
-332.67165
-327.82293
-328.67611
-328.68613
-328.68085
-328.67924
-328.68267
-328.69211
-328.70832
-333.57862
-335.40415
-332.95635
-333.54475
-333.55547
-333.55141
-333.55045
-333.55406
-333.56315
-333.57862
-339.50949
-334.40047
-328.16296
-329.19334
-329.21329
-329.20736
-329.20404
-329.20465
-329.20964
-329.21916
-331.8635
-328.16296
-323.72776
-324.56675
-324.57547
-324.56875
-324.56553
-324.56688
-324.57344
-324.58575
-329.54023
-329.19334
-324.56675
-325.38417
-325.39225
-325.38576
-325.38273
-325.38429
-325.39119
-325.4042
-330.10295
-329.21329
-324.57547
-325.39225
-325.40047
-325.39415
-325.39133
-325.39316
-325.40045
-325.41394
-330.1133
-329.20736
-324.56875
-325.38576
-325.39415
-325.38801
-325.38539
-325.38747
-325.39507
-325.40888
-330.10942
-329.20404
-324.56553
-325.38273
-325.39133
-325.38539
-325.38298
-325.38531
-325.39318
-325.40727
-330.10844
-329.20465
-324.56688
-325.38429
-325.39316
-325.38747
-325.38531
-325.38789
-325.39604
-325.41043
-330.11176
-329.20964
-324.57344
-325.39119
-325.40045
-325.39507
-325.39318
-325.39604
-325.40452
-325.41929
-330.12029
-329.21916
-324.58575
-325.4042
-325.41394
-325.40888
-325.40727
-325.41043
-325.41929
-325.43459
-330.13488
-331.8635
-329.54023
-330.10295
-330.1133
-330.10942
-330.10844
-330.11176
-330.12029
-330.13488
-335.86332
-330.98893
-325.07334
-326.05434
-326.07354
-326.06794
-326.06474
-326.06521
-326.06981
-326.07869
-328.61967
-325.07334
-320.86997
-321.66866
-321.67713
-321.67077
-321.66766
-321.66884
-321.67492
-321.68642
-326.43371
-326.05434
-321.66866
-322.44673
-322.45458
-322.44843
-322.4455
-322.44687
-322.45327
-322.46543
-326.9675
-326.07354
-321.67713
-322.45458
-322.46256
-322.45657
-322.45383
-322.45545
-322.46221
-322.47483
-326.97742
-326.06794
-321.67077
-322.44843
-322.45657
-322.45075
-322.4482
-322.45006
-322.45711
-322.47003
-326.97374
-326.06474
-321.66766
-322.4455
-322.45383
-322.4482
-322.44585
-322.44794
-322.45524
-322.46843
-326.97274
-326.06521
-321.66884
-322.44687
-322.45545
-322.45006
-322.44794
-322.45027
-322.45785
-322.47131
-326.97578
-326.06981
-321.67492
-322.45327
-322.46221
-322.45711
-322.45524
-322.45785
-322.46573
-322.47956