/*--------------------------------*- C++ -*----------------------------------*\
| =========                 |                                                 |
| \\      /  F ield         | OpenFOAM: The Open Source CFD Toolbox           |
|  \\    /   O peration     | Version:  v2106                                 |
|   \\  /    A nd           | Website:  www.openfoam.com                      |
|    \\/     M anipulation  |                                                 |
\*---------------------------------------------------------------------------*/
FoamFile
{
    version     2.0;
    format      ascii;
    arch        "LSB;label=32;scalar=64";
    class       volVectorField;
    location    "20";
    object      flux;
}
// * * * * * * * * * * * * * * * * * * * * * * * * * * * * * * * * * * * * * //

dimensions      [0 1 -1 1 0 0 0];

internalField   nonuniform List<vector> 
4000
(
(1.150452e-06 1.150452e-06 1.9907986)
(-2.1945435e-06 -2.3838828e-06 1.990802)
(-1.7007836e-06 -2.4500682e-07 1.9907919)
(2.876033e-06 -3.6606742e-09 1.9907979)
(1.5989163e-06 -1.1016067e-07 1.9908023)
(2.5454984e-07 -2.0883599e-07 1.9908037)
(-4.0504458e-07 -3.0650047e-07 1.9908032)
(-5.4283527e-07 -3.6887968e-07 1.990802)
(-3.8454689e-07 -2.527774e-07 1.990801)
(-1.3421084e-07 2.7710568e-08 1.9908001)
(-2.3838828e-06 -2.1945435e-06 1.990802)
(-3.5900023e-06 -3.5900023e-06 1.9907955)
(6.7943848e-07 -1.1386027e-06 1.9907919)
(3.0108791e-06 -9.600279e-07 1.9907985)
(1.393741e-06 -1.152231e-06 1.9908027)
(5.8210051e-08 -1.3448356e-06 1.9908036)
(-5.6508827e-07 -1.5807851e-06 1.9908027)
(-4.8911223e-07 -1.8184383e-06 1.9908013)
(1.2043344e-08 -1.7656288e-06 1.990801)
(1.4627712e-07 -1.1679248e-06 1.9908012)
(-2.450068e-07 -1.7007836e-06 1.9907919)
(-1.1386027e-06 6.7943848e-07 1.9907919)
(9.2919075e-07 9.2919074e-07 1.9907894)
(2.8624047e-06 7.8782245e-07 1.9907959)
(1.2141087e-06 6.3170295e-07 1.9907997)
(-1.7400426e-07 4.5574843e-07 1.9908003)
(-8.7864729e-07 1.9484599e-07 1.9907988)
(-7.2767891e-07 -1.7555261e-07 1.9907967)
(2.6596653e-07 -5.1451132e-07 1.9907961)
(4.6349308e-07 -4.9380699e-07 1.9907976)
(-3.6606829e-09 2.876033e-06 1.9907979)
(-9.6002793e-07 3.0108791e-06 1.9907985)
(7.8782247e-07 2.8624047e-06 1.9907959)
(2.7133913e-06 2.7133913e-06 1.9908021)
(1.061667e-06 2.578444e-06 1.9908056)
(-3.7864691e-07 2.4277841e-06 1.9908059)
(-1.1963893e-06 2.2226776e-06 1.990804)
(-1.1984695e-06 1.9201878e-06 1.990801)
(-3.0621104e-07 1.509867e-06 1.9907995)
(1.6698144e-07 1.0771639e-06 1.9907998)
(-1.1016068e-07 1.5989163e-06 1.9908023)
(-1.152231e-06 1.393741e-06 1.9908027)
(6.3170295e-07 1.2141087e-06 1.9907997)
(2.578444e-06 1.061667e-06 1.9908056)
(9.2850144e-07 9.2850143e-07 1.9908089)
(-5.2977063e-07 7.9842636e-07 1.9908089)
(-1.3862435e-06 6.5843376e-07 1.9908066)
(-1.4404895e-06 4.9772692e-07 1.9908033)
(-5.7705741e-07 3.1624842e-07 1.9908012)
(3.0789945e-08 1.4744813e-07 1.990801)
(-2.08836e-07 2.5454984e-07 1.9908037)
(-1.3448356e-06 5.8210034e-08 1.9908036)
(4.5574845e-07 -1.7400427e-07 1.9908003)
(2.4277841e-06 -3.7864693e-07 1.9908059)
(7.9842639e-07 -5.2977063e-07 1.9908089)
(-6.4871462e-07 -6.4871462e-07 1.9908087)
(-1.4970888e-06 -7.4898177e-07 1.9908062)
(-1.5406548e-06 -8.2932226e-07 1.9908026)
(-6.5648984e-07 -8.8545708e-07 1.9908003)
(-1.8188576e-09 -9.1254229e-07 1.9908)
(-3.0650048e-07 -4.0504459e-07 1.9908032)
(-1.5807851e-06 -5.6508825e-07 1.9908027)
(1.9484599e-07 -8.7864728e-07 1.9907988)
(2.2226776e-06 -1.1963893e-06 1.990804)
(6.5843377e-07 -1.3862435e-06 1.9908066)
(-7.4898176e-07 -1.4970888e-06 1.9908062)
(-1.5668512e-06 -1.5668512e-06 1.9908035)
(-1.5769648e-06 -1.5965738e-06 1.9907998)
(-6.6027743e-07 -1.582784e-06 1.9907975)
(3.7047709e-09 -1.5381586e-06 1.9907972)
(-3.6887967e-07 -5.4283527e-07 1.990802)
(-1.8184382e-06 -4.8911222e-07 1.9908013)
(-1.7555263e-07 -7.2767891e-07 1.9907967)
(1.9201878e-06 -1.1984695e-06 1.990801)
(4.9772693e-07 -1.4404895e-06 1.9908033)
(-8.2932226e-07 -1.5406548e-06 1.9908026)
(-1.5965738e-06 -1.5769648e-06 1.9907998)
(-1.5565876e-06 -1.5565876e-06 1.9907962)
(-5.9807465e-07 -1.4742072e-06 1.9907939)
(4.2806488e-08 -1.3541642e-06 1.9907939)
(-2.5277743e-07 -3.8454688e-07 1.990801)
(-1.7656288e-06 1.2043326e-08 1.990801)
(-5.145113e-07 2.6596649e-07 1.9907961)
(1.509867e-06 -3.0621104e-07 1.9907995)
(3.1624843e-07 -5.7705742e-07 1.9908012)
(-8.854571e-07 -6.5648983e-07 1.9908003)
(-1.582784e-06 -6.6027744e-07 1.9907975)
(-1.4742072e-06 -5.9807464e-07 1.9907939)
(-4.5785403e-07 -4.5785402e-07 1.990792)
(1.2374783e-07 -2.7955975e-07 1.9907923)
(2.7710516e-08 -1.3421084e-07 1.9908001)
(-1.1679249e-06 1.4627711e-07 1.9908012)
(-4.9380699e-07 4.6349306e-07 1.9907976)
(1.0771639e-06 1.6698145e-07 1.9907998)
(1.4744812e-07 3.0789945e-08 1.990801)
(-9.1254228e-07 -1.8188749e-09 1.9908)
(-1.5381586e-06 3.7047882e-09 1.9907972)
(-1.3541642e-06 4.2806496e-08 1.9907939)
(-2.7955977e-07 1.2374783e-07 1.9907923)
(2.2110074e-07 2.2110074e-07 1.9907929)
(2.2512719e-06 2.2512719e-06 1.9900819)
(-4.4205893e-06 -4.0727015e-06 1.9900838)
(-2.406193e-06 1.9895991e-07 1.9900793)
(7.5199389e-06 6.8594589e-07 1.9900842)
(4.2372575e-06 4.3728587e-07 1.9900878)
(5.8502479e-07 1.6587618e-07 1.9900888)
(-1.3095864e-06 -1.3470106e-07 1.990088)
(-1.6543732e-06 -2.9869828e-07 1.9900867)
(-1.4517285e-06 2.3880026e-07 1.990086)
(-7.0897963e-07 1.0591734e-06 1.9900844)
(-4.0727015e-06 -4.4205893e-06 1.9900838)
(-6.4729013e-06 -6.4729013e-06 1.9900812)
(2.3524543e-06 -1.4300883e-06 1.9900799)
(7.7582649e-06 -1.0398108e-06 1.9900852)
(3.7171878e-06 -1.5053464e-06 1.9900886)
(1.3037861e-08 -2.0534501e-06 1.9900892)
(-1.7741608e-06 -2.7744474e-06 1.990088)
(-1.2808719e-06 -3.4677506e-06 1.9900864)
(-9.3856815e-08 -3.0684911e-06 1.9900867)
(1.1139353e-07 -1.3607705e-06 1.9900867)
(1.9895993e-07 -2.406193e-06 1.9900793)
(-1.4300883e-06 2.3524543e-06 1.9900799)
(3.0268975e-06 3.0268975e-06 1.9900794)
(7.4446808e-06 2.7457033e-06 1.9900846)
(3.2236182e-06 2.3302812e-06 1.9900877)
(-6.8407624e-07 1.8079327e-06 1.990088)
(-2.7238868e-06 1.018185e-06 1.9900862)
(-1.9484169e-06 -9.036564e-08 1.9900839)
(6.5525157e-07 -9.9936706e-07 1.990084)
(9.9874097e-07 -8.8590228e-07 1.9900849)
(6.8594591e-07 7.5199389e-06 1.9900842)
(-1.0398108e-06 7.7582649e-06 1.9900852)
(2.7457033e-06 7.4446809e-06 1.9900846)
(7.0616486e-06 7.0616486e-06 1.9900896)
(2.7794172e-06 6.670933e-06 1.9900925)
(-1.2990583e-06 6.2184775e-06 1.9900924)
(-3.6724591e-06 5.5998687e-06 1.9900902)
(-3.298424e-06 4.6960222e-06 1.9900871)
(-8.8939345e-07 3.5263432e-06 1.9900862)
(2.2485831e-07 2.3495962e-06 1.9900863)
(4.3728585e-07 4.2372575e-06 1.9900878)
(-1.5053464e-06 3.7171878e-06 1.9900886)
(2.3302812e-06 3.2236182e-06 1.9900877)
(6.670933e-06 2.7794172e-06 1.9900925)
(2.3804472e-06 2.3804472e-06 1.9900951)
(-1.7551405e-06 1.9885524e-06 1.9900948)
(-4.2463421e-06 1.5656208e-06 1.9900922)
(-4.0219424e-06 1.0773313e-06 1.9900887)
(-1.6911744e-06 5.3206085e-07 1.9900873)
(-1.7800599e-07 1.9893965e-08 1.9900869)
(1.6587618e-07 5.850248e-07 1.9900888)
(-2.0534501e-06 1.3037861e-08 1.9900892)
(1.8079327e-06 -6.8407627e-07 1.990088)
(6.2184775e-06 -1.2990583e-06 1.9900924)
(1.9885524e-06 -1.7551405e-06 1.9900948)
(-2.1138847e-06 -2.1138846e-06 1.9900942)
(-4.5836802e-06 -2.4145209e-06 1.9900914)
(-4.3319839e-06 -2.6563915e-06 1.9900876)
(-1.9468308e-06 -2.8256729e-06 1.9900861)
(-2.8730858e-07 -2.9100887e-06 1.9900855)
(-1.3470107e-07 -1.3095863e-06 1.990088)
(-2.7744475e-06 -1.7741608e-06 1.990088)
(1.018185e-06 -2.7238868e-06 1.9900862)
(5.5998688e-06 -3.6724591e-06 1.9900902)
(1.5656208e-06 -4.2463421e-06 1.9900922)
(-2.4145209e-06 -4.5836802e-06 1.9900914)
(-4.7888489e-06 -4.7888489e-06 1.9900884)
(-4.4330944e-06 -4.8643877e-06 1.9900845)
(-1.9448716e-06 -4.7951874e-06 1.990083)
(-2.6242171e-07 -4.6093041e-06 1.9900824)
(-2.9869829e-07 -1.6543732e-06 1.9900867)
(-3.4677506e-06 -1.2808719e-06 1.9900864)
(-9.0365649e-08 -1.9484168e-06 1.9900839)
(4.6960222e-06 -3.298424e-06 1.9900871)
(1.0773313e-06 -4.0219424e-06 1.9900887)
(-2.6563915e-06 -4.331984e-06 1.9900876)
(-4.8643877e-06 -4.4330944e-06 1.9900845)
(-4.3383224e-06 -4.3383224e-06 1.9900807)
(-1.6917472e-06 -4.0227356e-06 1.9900794)
(-1.0142532e-07 -3.5492601e-06 1.9900792)
(2.3880022e-07 -1.4517285e-06 1.990086)
(-3.0684911e-06 -9.3856815e-08 1.9900867)
(-9.9936705e-07 6.5525156e-07 1.990084)
(3.5263432e-06 -8.8939345e-07 1.9900862)
(5.3206084e-07 -1.6911744e-06 1.9900873)
(-2.8256729e-06 -1.9468308e-06 1.9900861)
(-4.7951873e-06 -1.9448716e-06 1.990083)
(-4.0227356e-06 -1.6917472e-06 1.9900794)
(-1.1558093e-06 -1.1558093e-06 1.9900785)
(2.1105381e-07 -6.4185914e-07 1.9900789)
(1.0591734e-06 -7.0897964e-07 1.9900844)
(-1.3607705e-06 1.1139355e-07 1.9900867)
(-8.8590229e-07 9.9874096e-07 1.9900849)
(2.3495962e-06 2.2485829e-07 1.9900863)
(1.9893974e-08 -1.78006e-07 1.9900869)
(-2.9100887e-06 -2.8730856e-07 1.9900855)
(-4.6093041e-06 -2.6242172e-07 1.9900824)
(-3.5492601e-06 -1.0142533e-07 1.9900792)
(-6.4185912e-07 2.1105381e-07 1.9900789)
(4.1252486e-07 4.1252487e-07 1.9900786)
(3.0365507e-06 3.0365507e-06 1.9886576)
(-4.8136141e-06 -5.0180111e-06 1.9886595)
(-1.2820273e-06 3.9516999e-07 1.9886574)
(1.1414786e-05 9.8909527e-07 1.9886617)
(6.1914632e-06 6.2616453e-07 1.9886645)
(4.6607596e-07 1.8286394e-07 1.988665)
(-2.4870906e-06 -3.6762661e-07 1.9886638)
(-2.6168607e-06 -6.8382257e-07 1.9886622)
(-2.682015e-06 5.1697296e-07 1.9886619)
(-1.6735063e-06 2.2626798e-06 1.9886604)
(-5.0180111e-06 -4.813614e-06 1.9886595)
(-7.4549948e-06 -7.4549948e-06 1.9886581)
(4.7250791e-06 -1.0267516e-06 1.9886581)
(1.1645781e-05 -5.6826479e-07 1.9886626)
(5.3852319e-06 -1.262028e-06 1.9886652)
(-5.2771515e-07 -2.1585231e-06 1.9886653)
(-3.3537771e-06 -3.4261919e-06 1.9886636)
(-1.7322611e-06 -4.6804978e-06 1.9886616)
(2.6448743e-07 -3.7608781e-06 1.9886625)
(7.2200605e-08 -7.0873237e-07 1.9886626)
(3.9516996e-07 -1.2820274e-06 1.9886574)
(-1.0267516e-06 4.7250791e-06 1.9886581)
(5.6047026e-06 5.6047026e-06 1.9886585)
(1.117951e-05 5.1933642e-06 1.9886628)
(4.6012049e-06 4.5455345e-06 1.9886653)
(-1.6980879e-06 3.6898027e-06 1.9886651)
(-5.0090653e-06 2.363572e-06 1.9886627)
(-2.9515468e-06 4.7507226e-07 1.98866)
(1.2897504e-06 -1.0219641e-06 1.9886606)
(1.3786394e-06 -8.8430744e-07 1.9886615)
(9.890953e-07 1.1414786e-05 1.9886617)
(-5.6826478e-07 1.1645781e-05 1.9886626)
(5.1933642e-06 1.117951e-05 1.9886628)
(1.0586612e-05 1.0586612e-05 1.9886671)
(3.8816704e-06 9.9539857e-06 1.9886693)
(-2.7096776e-06 9.209488e-06 1.9886687)
(-6.5685076e-06 8.188589e-06 1.9886659)
(-5.1177973e-06 6.704049e-06 1.9886624)
(-1.0948923e-06 4.8453892e-06 1.9886623)
(2.0985729e-07 3.0360261e-06 1.9886624)
(6.2616451e-07 6.1914632e-06 1.9886645)
(-1.262028e-06 5.3852319e-06 1.9886652)
(4.5455345e-06 4.6012049e-06 1.9886653)
(9.9539857e-06 3.8816704e-06 1.9886693)
(3.2240805e-06 3.2240806e-06 1.9886712)
(-3.4634847e-06 2.5745369e-06 1.9886704)
(-7.5145042e-06 1.8741673e-06 1.9886673)
(-6.2947466e-06 1.0675603e-06 1.9886634)
(-2.3782725e-06 1.8250526e-07 1.9886627)
(-4.3072368e-07 -6.4193603e-07 1.9886625)
(1.8286394e-07 4.6607595e-07 1.988665)
(-2.1585231e-06 -5.2771517e-07 1.9886653)
(3.6898027e-06 -1.698088e-06 1.9886651)
(9.209488e-06 -2.7096776e-06 1.9886687)
(2.5745369e-06 -3.4634847e-06 1.9886704)
(-4.0595908e-06 -4.0595908e-06 1.9886694)
(-8.0754842e-06 -4.556248e-06 1.988666)
(-6.8094593e-06 -4.9507059e-06 1.9886619)
(-2.8043885e-06 -5.2146594e-06 1.9886611)
(-6.1458402e-07 -5.3323491e-06 1.9886607)
(-3.6762661e-07 -2.4870906e-06 1.9886638)
(-3.4261919e-06 -3.3537771e-06 1.9886636)
(2.363572e-06 -5.0090653e-06 1.9886627)
(8.188589e-06 -6.5685076e-06 1.9886659)
(1.8741673e-06 -7.5145042e-06 1.9886673)
(-4.556248e-06 -8.0754842e-06 1.988666)
(-8.4056193e-06 -8.4056193e-06 1.9886625)
(-6.953158e-06 -8.4957635e-06 1.9886583)
(-2.7599158e-06 -8.3023647e-06 1.9886575)
(-5.4841335e-07 -7.8577712e-06 1.9886572)
(-6.8382256e-07 -2.6168607e-06 1.9886622)
(-4.6804977e-06 -1.7322611e-06 1.9886616)
(4.7507226e-07 -2.9515468e-06 1.98866)
(6.704049e-06 -5.1177973e-06 1.9886624)
(1.0675602e-06 -6.2947466e-06 1.9886634)
(-4.9507059e-06 -6.8094593e-06 1.9886619)
(-8.4957635e-06 -6.953158e-06 1.9886583)
(-6.7062047e-06 -6.7062047e-06 1.9886542)
(-2.1663963e-06 -5.9886828e-06 1.9886537)
(-1.699905e-07 -4.9298783e-06 1.9886539)
(5.1697295e-07 -2.682015e-06 1.9886619)
(-3.7608781e-06 2.6448743e-07 1.9886625)
(-1.0219641e-06 1.2897504e-06 1.9886606)
(4.8453892e-06 -1.0948923e-06 1.9886623)
(1.8250527e-07 -2.3782725e-06 1.9886627)
(-5.2146595e-06 -2.8043885e-06 1.9886611)
(-8.3023647e-06 -2.7599158e-06 1.9886575)
(-5.9886828e-06 -2.1663963e-06 1.9886537)
(-9.8358938e-07 -9.835894e-07 1.9886539)
(5.1039111e-07 -8.407196e-07 1.9886551)
(2.2626798e-06 -1.6735063e-06 1.9886604)
(-7.0873239e-07 7.2200614e-08 1.9886626)
(-8.8430745e-07 1.3786394e-06 1.9886615)
(3.0360261e-06 2.0985729e-07 1.9886624)
(-6.4193603e-07 -4.3072367e-07 1.9886625)
(-5.3323491e-06 -6.14584e-07 1.9886607)
(-7.8577712e-06 -5.4841335e-07 1.9886572)
(-4.9298783e-06 -1.699905e-07 1.9886539)
(-8.4071959e-07 5.103911e-07 1.9886551)
(-2.712071e-08 -2.7120728e-08 1.9886541)
(4.1598624e-06 4.1598624e-06 1.9865343)
(-4.6725035e-06 -5.4785493e-06 1.9865365)
(-2.6798693e-07 9.162306e-07 1.9865344)
(1.4694255e-05 1.5878827e-06 1.9865381)
(7.5812635e-06 1.1162349e-06 1.9865404)
(-1.5387112e-07 4.999183e-07 1.9865404)
(-4.0728571e-06 -3.3304494e-07 1.9865387)
(-3.5009377e-06 -8.9538311e-07 1.9865368)
(-3.2730227e-06 8.4743285e-07 1.9865366)
(-2.2396839e-06 3.2551852e-06 1.9865355)
(-5.4785493e-06 -4.6725034e-06 1.9865365)
(-7.9161352e-06 -7.9161352e-06 1.9865355)
(6.798445e-06 -3.2836416e-07 1.9865354)
(1.489426e-05 1.564563e-07 1.9865393)
(6.4932992e-06 -7.5642632e-07 1.9865414)
(-1.603151e-06 -1.9961668e-06 1.986541)
(-5.4681585e-06 -3.837885e-06 1.9865388)
(-2.3204599e-06 -5.7377672e-06 1.9865363)
(8.7754553e-07 -4.3725455e-06 1.9865372)
(1.680684e-07 -2.2768816e-07 1.9865373)
(9.1623059e-07 -2.6798694e-07 1.9865344)
(-3.2836418e-07 6.7984451e-06 1.9865354)
(7.8046045e-06 7.8046046e-06 1.9865356)
(1.4266193e-05 7.2493539e-06 1.9865393)
(5.4286404e-06 6.37582e-06 1.9865412)
(-3.2353298e-06 5.198061e-06 1.9865405)
(-7.8144575e-06 3.3477791e-06 1.9865377)
(-4.0355981e-06 7.0462642e-07 1.9865345)
(2.2370563e-06 -1.2868555e-06 1.9865352)
(1.9051734e-06 -1.0424633e-06 1.9865362)
(1.5878827e-06 1.4694255e-05 1.9865381)
(1.5645629e-07 1.489426e-05 1.9865393)
(7.2493539e-06 1.4266193e-05 1.9865393)
(1.3465475e-05 1.3465475e-05 1.9865429)
(4.4420063e-06 1.2596985e-05 1.9865446)
(-4.6311919e-06 1.1568893e-05 1.9865436)
(-9.9615931e-06 1.0156906e-05 1.9865403)
(-6.9550945e-06 8.114181e-06 1.9865364)
(-8.6954416e-07 5.6304157e-06 1.9865363)
(4.1246063e-07 3.2861293e-06 1.9865367)
(1.1162349e-06 7.5812636e-06 1.9865404)
(-7.5642632e-07 6.4932992e-06 1.9865414)
(6.37582e-06 5.4286404e-06 1.9865412)
(1.2596985e-05 4.4420063e-06 1.9865446)
(3.5320583e-06 3.5320583e-06 1.986546)
(-5.6754093e-06 2.6314757e-06 1.9865448)
(-1.1269169e-05 1.6610654e-06 1.9865412)
(-8.562088e-06 5.4654464e-07 1.9865368)
(-2.5909954e-06 -6.5585166e-07 1.9865363)
(-4.3911309e-07 -1.7607044e-06 1.9865363)
(4.9991829e-07 -1.5387112e-07 1.9865404)
(-1.9961669e-06 -1.603151e-06 1.986541)
(5.1980611e-06 -3.2353298e-06 1.9865405)
(1.1568893e-05 -4.6311918e-06 1.9865436)
(2.6314757e-06 -5.6754093e-06 1.9865448)
(-6.5021848e-06 -6.5021848e-06 1.9865433)
(-1.2046524e-05 -7.1864227e-06 1.9865395)
(-9.2720116e-06 -7.7209733e-06 1.9865349)
(-3.1767932e-06 -8.0582854e-06 1.9865342)
(-6.9239208e-07 -8.1832404e-06 1.9865341)
(-3.3304494e-07 -4.0728571e-06 1.9865387)
(-3.837885e-06 -5.4681585e-06 1.9865388)
(3.3477791e-06 -7.8144575e-06 1.9865377)
(1.0156906e-05 -9.9615931e-06 1.9865403)
(1.6610654e-06 -1.1269169e-05 1.9865412)
(-7.1864227e-06 -1.2046524e-05 1.9865395)
(-1.2487958e-05 -1.2487958e-05 1.9865355)
(-9.4339506e-06 -1.2558975e-05 1.9865309)
(-3.0532625e-06 -1.2165008e-05 1.9865303)
(-5.6406817e-07 -1.1333249e-05 1.9865302)
(-8.9538309e-07 -3.5009377e-06 1.9865368)
(-5.7377672e-06 -2.3204599e-06 1.9865363)
(7.0462641e-07 -4.0355981e-06 1.9865345)
(8.114181e-06 -6.9550946e-06 1.9865364)
(5.4654462e-07 -8.562088e-06 1.9865368)
(-7.7209733e-06 -9.2720116e-06 1.9865349)
(-1.2558975e-05 -9.4339507e-06 1.9865309)
(-8.9490617e-06 -8.9490618e-06 1.9865264)
(-1.951067e-06 -7.6100702e-06 1.9865262)
(1.3936681e-07 -5.619728e-06 1.9865269)
(8.4743284e-07 -3.2730227e-06 1.9865366)
(-4.3725454e-06 8.7754554e-07 1.9865372)
(-1.2868555e-06 2.2370563e-06 1.9865352)
(5.6304157e-06 -8.6954419e-07 1.9865363)
(-6.5585165e-07 -2.5909954e-06 1.9865363)
(-8.0582854e-06 -3.1767932e-06 1.9865342)
(-1.2165008e-05 -3.0532625e-06 1.9865303)
(-7.6100702e-06 -1.951067e-06 1.9865262)
(2.7607125e-07 2.7607121e-07 1.9865269)
(1.4262741e-06 -5.0296434e-07 1.986529)
(3.2551851e-06 -2.2396839e-06 1.9865355)
(-2.2768817e-07 1.680684e-07 1.9865373)
(-1.0424633e-06 1.9051734e-06 1.9865362)
(3.2861293e-06 4.1246061e-07 1.9865367)
(-1.7607043e-06 -4.3911311e-07 1.9865363)
(-8.1832404e-06 -6.9239206e-07 1.9865341)
(-1.1333249e-05 -5.6406814e-07 1.9865302)
(-5.619728e-06 1.393668e-07 1.9865269)
(-5.0296431e-07 1.4262741e-06 1.986529)
(-6.3966874e-07 -6.3966876e-07 1.9865278)
(5.1725581e-06 5.1725581e-06 1.9837242)
(-4.7436344e-06 -5.9555638e-06 1.9837261)
(3.7566698e-07 1.3773718e-06 1.9837238)
(1.7451076e-05 2.12152e-06 1.9837271)
(8.4891878e-06 1.5467284e-06 1.9837289)
(-1.2424528e-06 7.6434285e-07 1.9837285)
(-6.1563832e-06 -3.4798214e-07 1.9837264)
(-4.7917279e-06 -1.1626081e-06 1.983724)
(-3.9638312e-06 1.1143217e-06 1.9837235)
(-2.7560625e-06 4.0899594e-06 1.9837224)
(-5.9555638e-06 -4.7436344e-06 1.9837261)
(-8.5388206e-06 -8.5388206e-06 1.9837251)
(8.4527508e-06 1.4772263e-07 1.9837246)
(1.7620433e-05 6.50308e-07 1.983728)
(7.1320106e-06 -4.7325103e-07 1.9837297)
(-3.1371633e-06 -2.042922e-06 1.9837289)
(-8.0833342e-06 -4.4457998e-06 1.9837263)
(-3.3294241e-06 -6.9793112e-06 1.9837234)
(1.2887363e-06 -5.1375572e-06 1.9837239)
(2.1957518e-07 7.272672e-09 1.983724)
(1.3773719e-06 3.7566701e-07 1.9837238)
(1.4772263e-07 8.4527508e-06 1.9837246)
(9.5647956e-06 9.5647957e-06 1.9837245)
(1.6830102e-05 8.862209e-06 1.9837278)
(5.7959577e-06 7.7684169e-06 1.9837292)
(-5.2150015e-06 6.2797579e-06 1.9837282)
(-1.1092772e-05 3.9225983e-06 1.983725)
(-5.4834853e-06 5.5745316e-07 1.9837213)
(3.0227527e-06 -1.8571803e-06 1.9837218)
(2.3887674e-06 -1.4672229e-06 1.9837227)
(2.12152e-06 1.7451076e-05 1.9837271)
(6.50308e-07 1.7620433e-05 1.983728)
(8.862209e-06 1.6830102e-05 1.9837278)
(1.5824054e-05 1.5824054e-05 1.9837309)
(4.5495595e-06 1.4725541e-05 1.9837321)
(-6.9829819e-06 1.3422827e-05 1.9837307)
(-1.3805639e-05 1.1632214e-05 1.9837271)
(-9.1092026e-06 9.0532143e-06 1.9837228)
(-7.3593978e-07 5.9904128e-06 1.9837226)
(6.0953252e-07 3.1664557e-06 1.9837229)
(1.5467284e-06 8.4891878e-06 1.9837289)
(-4.7325104e-07 7.1320106e-06 1.9837297)
(7.7684168e-06 5.7959578e-06 1.9837292)
(1.4725541e-05 4.5495595e-06 1.9837321)
(3.3947306e-06 3.3947306e-06 1.9837331)
(-8.3083286e-06 2.2517718e-06 1.9837315)
(-1.5462385e-05 1.0208839e-06 1.9837275)
(-1.1125286e-05 -3.8984926e-07 1.9837228)
(-2.8640059e-06 -1.8913142e-06 1.9837222)
(-4.3518976e-07 -3.2552688e-06 1.9837222)
(7.6434286e-07 -1.2424528e-06 1.9837285)
(-2.042922e-06 -3.1371633e-06 1.9837289)
(6.2797579e-06 -5.2150015e-06 1.9837282)
(1.3422827e-05 -6.9829819e-06 1.9837307)
(2.2517718e-06 -8.3083286e-06 1.9837315)
(-9.3568285e-06 -9.3568286e-06 1.9837297)
(-1.644726e-05 -1.021964e-05 1.9837255)
(-1.2021401e-05 -1.0884953e-05 1.9837206)
(-3.6013593e-06 -1.1284247e-05 1.9837198)
(-7.544221e-07 -1.1405037e-05 1.9837196)
(-3.4798212e-07 -6.1563832e-06 1.9837264)
(-4.4457997e-06 -8.0833342e-06 1.9837263)
(3.9225983e-06 -1.1092772e-05 1.983725)
(1.1632214e-05 -1.3805639e-05 1.9837271)
(1.0208839e-06 -1.5462385e-05 1.9837275)
(-1.021964e-05 -1.644726e-05 1.9837255)
(-1.6990509e-05 -1.6990509e-05 1.9837212)
(-1.2189893e-05 -1.7025957e-05 1.9837162)
(-3.3840905e-06 -1.6394349e-05 1.9837155)
(-5.5598018e-07 -1.5105598e-05 1.9837155)
(-1.1626081e-06 -4.7917279e-06 1.983724)
(-6.9793112e-06 -3.3294241e-06 1.9837234)
(5.5745315e-07 -5.4834853e-06 1.9837213)
(9.0532143e-06 -9.1092027e-06 1.9837228)
(-3.8984929e-07 -1.1125286e-05 1.9837228)
(-1.0884953e-05 -1.2021401e-05 1.9837206)
(-1.7025957e-05 -1.2189893e-05 1.9837162)
(-1.142524e-05 -1.142524e-05 1.9837114)
(-1.6810007e-06 -9.3382499e-06 1.9837111)
(5.3432827e-07 -6.1726206e-06 1.9837119)
(1.1143216e-06 -3.9638312e-06 1.9837235)
(-5.1375572e-06 1.2887363e-06 1.9837239)
(-1.8571803e-06 3.0227527e-06 1.9837218)
(5.9904128e-06 -7.3593981e-07 1.9837226)
(-1.8913142e-06 -2.8640059e-06 1.9837222)
(-1.1284247e-05 -3.6013593e-06 1.9837198)
(-1.6394349e-05 -3.3840904e-06 1.9837155)
(-9.3382499e-06 -1.6810008e-06 1.9837111)
(1.8685294e-06 1.8685294e-06 1.9837119)
(2.6096491e-06 1.3993737e-07 1.9837143)
(4.0899594e-06 -2.7560626e-06 1.9837224)
(7.2727067e-09 2.195752e-07 1.983724)
(-1.467223e-06 2.3887674e-06 1.9837227)
(3.1664557e-06 6.0953252e-07 1.9837229)
(-3.2552688e-06 -4.3518976e-07 1.9837222)
(-1.1405037e-05 -7.5442209e-07 1.9837196)
(-1.5105598e-05 -5.5598018e-07 1.9837155)
(-6.1726206e-06 5.3432827e-07 1.9837119)
(1.3993738e-07 2.6096491e-06 1.9837143)
(-1.1942638e-06 -1.1942638e-06 1.9837133)
(6.0384344e-06 6.0384344e-06 1.9802427)
(-5.0396205e-06 -6.4930576e-06 1.9802443)
(7.1860197e-07 1.7368071e-06 1.9802419)
(1.9776411e-05 2.5500127e-06 1.9802448)
(9.0095473e-06 1.877237e-06 1.9802462)
(-2.6802478e-06 9.365687e-07 1.9802455)
(-8.5855872e-06 -4.4519442e-07 1.9802431)
(-6.3992281e-06 -1.5039441e-06 1.9802404)
(-4.8156327e-06 1.3053597e-06 1.9802397)
(-3.291951e-06 4.8191984e-06 1.9802386)
(-6.4930576e-06 -5.0396205e-06 1.9802443)
(-9.3412477e-06 -9.3412477e-06 1.9802432)
(9.7616723e-06 3.9384e-07 1.9802426)
(1.9916841e-05 9.1124422e-07 1.9802455)
(7.3961033e-06 -4.1436203e-07 1.9802468)
(-5.0026792e-06 -2.3001035e-06 1.9802458)
(-1.10261e-05 -5.2442398e-06 1.9802429)
(-4.6486739e-06 -8.387343e-06 1.9802397)
(1.5075097e-06 -6.0514772e-06 1.98024)
(2.218877e-07 5.6659972e-08 1.98024)
(1.7368071e-06 7.1860198e-07 1.9802419)
(3.9384e-07 9.7616723e-06 1.9802426)
(1.0971094e-05 1.0971094e-05 1.9802423)
(1.8968209e-05 1.0123706e-05 1.9802451)
(5.7981996e-06 8.8165974e-06 1.9802462)
(-7.5101256e-06 7.0283743e-06 1.9802448)
(-1.4672827e-05 4.1823603e-06 1.9802414)
(-7.2064655e-06 1.248599e-07 1.9802375)
(3.6283702e-06 -2.6708976e-06 1.9802378)
(2.8161862e-06 -2.1204047e-06 1.9802386)
(2.5500128e-06 1.9776411e-05 1.9802448)
(9.1124421e-07 1.9916841e-05 1.9802455)
(1.0123706e-05 1.8968209e-05 1.9802451)
(1.7762344e-05 1.7762344e-05 1.9802478)
(4.3007711e-06 1.6441427e-05 1.9802487)
(-9.6369164e-06 1.4874432e-05 1.980247)
(-1.7929614e-05 1.2719374e-05 1.9802431)
(-1.1501932e-05 9.6259823e-06 1.9802386)
(-7.3775486e-07 6.0183059e-06 1.9802382)
(7.7238056e-07 2.7487697e-06 1.9802385)
(1.877237e-06 9.0095473e-06 1.9802462)
(-4.1436203e-07 7.3961033e-06 1.9802468)
(8.8165974e-06 5.7981996e-06 1.9802462)
(1.6441427e-05 4.3007711e-06 1.9802487)
(2.9102868e-06 2.9102868e-06 1.9802493)
(-1.1232179e-05 1.5353231e-06 1.9802474)
(-1.9921276e-05 5.5398828e-08 1.9802433)
(-1.3907533e-05 -1.638441e-06 1.9802384)
(-3.2488424e-06 -3.4231755e-06 1.9802376)
(-4.5335e-07 -5.0318451e-06 1.9802375)
(9.3656876e-07 -2.6802478e-06 1.9802455)
(-2.3001035e-06 -5.0026792e-06 1.9802458)
(7.0283743e-06 -7.5101256e-06 1.9802448)
(1.4874432e-05 -9.6369164e-06 1.980247)
(1.5353231e-06 -1.1232179e-05 1.9802474)
(-1.2491804e-05 -1.2491804e-05 1.9802453)
(-2.1103378e-05 -1.3523275e-05 1.980241)
(-1.4980506e-05 -1.4310892e-05 1.9802359)
(-4.131159e-06 -1.4765716e-05 1.980235)
(-8.3628904e-07 -1.4880069e-05 1.9802348)
(-4.4519437e-07 -8.5855872e-06 1.9802431)
(-5.2442398e-06 -1.10261e-05 1.9802429)
(4.1823603e-06 -1.4672827e-05 1.9802414)
(1.2719374e-05 -1.7929614e-05 1.9802431)
(5.5398828e-08 -1.9921276e-05 1.9802433)
(-1.3523275e-05 -2.1103378e-05 1.980241)
(-2.1740364e-05 -2.1740364e-05 1.9802365)
(-1.5149975e-05 -2.1732906e-05 1.9802314)
(-3.8180193e-06 -2.0852057e-05 1.9802305)
(-5.67703e-07 -1.908483e-05 1.9802304)
(-1.5039441e-06 -6.399228e-06 1.9802404)
(-8.387343e-06 -4.6486739e-06 1.9802397)
(1.2485988e-07 -7.2064655e-06 1.9802375)
(9.6259823e-06 -1.1501932e-05 1.9802386)
(-1.638441e-06 -1.3907533e-05 1.9802384)
(-1.4310892e-05 -1.4980506e-05 1.9802359)
(-2.1732906e-05 -1.5149975e-05 1.9802314)
(-1.40922e-05 -1.40922e-05 1.9802264)
(-1.4830825e-06 -1.1210231e-05 1.9802259)
(9.3093878e-07 -6.7732619e-06 1.9802267)
(1.3053597e-06 -4.8156327e-06 1.9802397)
(-6.0514773e-06 1.5075097e-06 1.98024)
(-2.6708976e-06 3.6283702e-06 1.9802378)
(6.0183059e-06 -7.3775486e-07 1.9802382)
(-3.4231755e-06 -3.2488424e-06 1.9802376)
(-1.4765716e-05 -4.131159e-06 1.980235)
(-2.0852057e-05 -3.8180193e-06 1.9802305)
(-1.1210231e-05 -1.4830825e-06 1.9802259)
(3.5009188e-06 3.5009188e-06 1.9802266)
(3.8692658e-06 8.8251474e-07 1.9802291)
(4.8191984e-06 -3.2919511e-06 1.9802386)
(5.6659972e-08 2.2188766e-07 1.98024)
(-2.1204047e-06 2.8161862e-06 1.9802386)
(2.7487697e-06 7.7238056e-07 1.9802385)
(-5.0318451e-06 -4.5335e-07 1.9802375)
(-1.4880069e-05 -8.3628906e-07 1.9802348)
(-1.908483e-05 -5.67703e-07 1.9802304)
(-6.7732619e-06 9.3093875e-07 1.9802267)
(8.8251474e-07 3.8692658e-06 1.9802291)
(-1.6874653e-06 -1.6874653e-06 1.9802282)
(6.8012279e-06 6.8012279e-06 1.9761113)
(-5.464967e-06 -7.0509715e-06 1.9761127)
(8.4788435e-07 2.0265374e-06 1.9761104)
(2.1741046e-05 2.9041766e-06 1.9761128)
(9.2218067e-06 2.1380186e-06 1.976114)
(-4.3614797e-06 1.0459819e-06 1.976113)
(-1.1222e-05 -5.9522566e-07 1.9761105)
(-8.1944476e-06 -1.8898743e-06 1.9761076)
(-5.7729305e-06 1.4393852e-06 1.9761068)
(-3.8441629e-06 5.4696171e-06 1.9761057)
(-7.0509715e-06 -5.464967e-06 1.9761127)
(-1.0239658e-05 -1.0239658e-05 1.9761116)
(1.0803032e-05 4.8562777e-07 1.9761109)
(2.1852527e-05 1.0149404e-06 1.9761135)
(7.3636119e-06 -5.0391699e-07 1.9761145)
(-7.0947239e-06 -2.6923456e-06 1.9761132)
(-1.4157856e-05 -6.1571068e-06 1.9761101)
(-6.1598367e-06 -9.8864724e-06 1.9761068)
(1.5865609e-06 -7.0598795e-06 1.976107)
(1.8606899e-07 -2.331484e-08 1.9761069)
(2.0265374e-06 8.4788435e-07 1.9761104)
(4.8562775e-07 1.0803033e-05 1.9761109)
(1.2102482e-05 1.2102482e-05 1.9761105)
(2.0751501e-05 1.1115382e-05 1.9761129)
(5.5145207e-06 9.6035772e-06 1.9761137)
(-1.001467e-05 7.5283105e-06 1.9761122)
(-1.8416127e-05 4.2131599e-06 1.9761086)
(-9.0972202e-06 -5.0736245e-07 1.9761046)
(4.0902271e-06 -3.6563654e-06 1.9761047)
(3.1924017e-06 -2.9416108e-06 1.9761054)
(2.9041767e-06 2.1741046e-05 1.9761128)
(1.0149403e-06 2.1852527e-05 1.9761135)
(1.1115382e-05 2.0751501e-05 1.9761129)
(1.9353622e-05 1.9353622e-05 1.9761153)
(3.7765405e-06 1.7819694e-05 1.9761158)
(-1.2485141e-05 1.6000265e-05 1.976114)
(-2.2193529e-05 1.349683e-05 1.97611)
(-1.4029362e-05 9.9121535e-06 1.9761054)
(-8.4768737e-07 5.7891623e-06 1.9761049)
(9.0082363e-07 2.1009902e-06 1.9761051)
(2.1380186e-06 9.2218067e-06 1.976114)
(-5.0391702e-07 7.363612e-06 1.9761145)
(9.6035772e-06 5.5145207e-06 1.9761137)
(1.7819694e-05 3.7765404e-06 1.9761158)
(2.1611636e-06 2.1611635e-06 1.9761162)
(-1.4337534e-05 5.6584671e-07 1.9761141)
(-2.4504238e-05 -1.1502576e-06 1.9761099)
(-1.6804888e-05 -3.1127523e-06 1.9761049)
(-3.7209362e-06 -5.1654209e-06 1.976104)
(-4.9577032e-07 -7.0062372e-06 1.9761039)
(1.0459819e-06 -4.3614797e-06 1.976113)
(-2.6923456e-06 -7.094724e-06 1.9761132)
(7.5283104e-06 -1.001467e-05 1.9761122)
(1.6000265e-05 -1.2485141e-05 1.976114)
(5.6584673e-07 -1.4337534e-05 1.9761141)
(-1.5796562e-05 -1.5796562e-05 1.9761119)
(-2.5872128e-05 -1.6985908e-05 1.9761074)
(-1.8044525e-05 -1.7886979e-05 1.9761023)
(-4.7411722e-06 -1.839199e-05 1.9761013)
(-9.399926e-07 -1.8500003e-05 1.9761011)
(-5.9522566e-07 -1.1222e-05 1.9761105)
(-6.1571069e-06 -1.4157856e-05 1.9761101)
(4.2131599e-06 -1.8416127e-05 1.9761086)
(1.349683e-05 -2.2193529e-05 1.97611)
(-1.1502575e-06 -2.4504238e-05 1.9761099)
(-1.6985908e-05 -2.5872128e-05 1.9761074)
(-2.6594654e-05 -2.6594654e-05 1.9761029)
(-1.821097e-05 -2.654016e-05 1.9760977)
(-4.3339601e-06 -2.5409929e-05 1.9760967)
(-6.0378265e-07 -2.3166132e-05 1.9760966)
(-1.8898743e-06 -8.1944476e-06 1.9761076)
(-9.8864724e-06 -6.1598367e-06 1.9761068)
(-5.0736245e-07 -9.0972202e-06 1.9761046)
(9.9121536e-06 -1.4029362e-05 1.9761054)
(-3.1127523e-06 -1.6804888e-05 1.9761049)
(-1.7886979e-05 -1.8044525e-05 1.9761023)
(-2.654016e-05 -1.821097e-05 1.9760977)
(-1.68598e-05 -1.68598e-05 1.9760927)
(-1.367144e-06 -1.3177745e-05 1.9760922)
(1.3038044e-06 -7.4526212e-06 1.9760929)
(1.4393852e-06 -5.7729305e-06 1.9761068)
(-7.0598795e-06 1.5865609e-06 1.976107)
(-3.6563654e-06 4.0902271e-06 1.9761047)
(5.7891623e-06 -8.4768737e-07 1.9761049)
(-5.1654209e-06 -3.7209363e-06 1.976104)
(-1.839199e-05 -4.7411723e-06 1.9761013)
(-2.5409929e-05 -4.3339601e-06 1.9760967)
(-1.3177745e-05 -1.367144e-06 1.9760922)
(5.0732187e-06 5.0732188e-06 1.9760928)
(5.1213415e-06 1.6169789e-06 1.9760952)
(5.4696171e-06 -3.8441629e-06 1.9761057)
(-2.3314805e-08 1.8606899e-07 1.9761069)
(-2.9416107e-06 3.1924017e-06 1.9761054)
(2.1009902e-06 9.0082363e-07 1.9761051)
(-7.0062372e-06 -4.9577033e-07 1.9761039)
(-1.8500003e-05 -9.399926e-07 1.9761011)
(-2.3166132e-05 -6.0378265e-07 1.9760966)
(-7.4526212e-06 1.3038043e-06 1.9760929)
(1.6169789e-06 5.1213414e-06 1.9760952)
(-2.1524355e-06 -2.1524355e-06 1.9760943)
(7.4845611e-06 7.4845612e-06 1.9713559)
(-5.958635e-06 -7.6018818e-06 1.9713572)
(8.2409289e-07 2.2675621e-06 1.9713549)
(2.339474e-05 3.2042969e-06 1.971357)
(9.1866622e-06 2.3495916e-06 1.9713579)
(-6.2082362e-06 1.1132876e-06 1.9713568)
(-1.3972162e-05 -7.7669447e-07 1.9713541)
(-1.0092933e-05 -2.2986578e-06 1.9713512)
(-6.7907687e-06 1.5314453e-06 1.9713503)
(-4.4025504e-06 6.0537076e-06 1.9713492)
(-7.6018818e-06 -5.958635e-06 1.9713572)
(-1.1175634e-05 -1.1175634e-05 1.9713561)
(1.1630272e-05 4.7413335e-07 1.9713553)