/*--------------------------------*- C++ -*----------------------------------*\
| =========                 |                                                 |
| \\      /  F ield         | OpenFOAM: The Open Source CFD Toolbox           |
|  \\    /   O peration     | Version:  v2106                                 |
|   \\  /    A nd           | Website:  www.openfoam.com                      |
|    \\/     M anipulation  |                                                 |
\*---------------------------------------------------------------------------*/
FoamFile
{
    version     2.0;
    format      ascii;
    arch        "LSB;label=32;scalar=64";
    class       volVectorField;
    location    "20";
    object      flux;
}
// * * * * * * * * * * * * * * * * * * * * * * * * * * * * * * * * * * * * * //

dimensions      [0 1 -1 1 0 0 0];

internalField   nonuniform List<vector> 
4000
(
(-1.5600968e-06 -1.5600968e-06 1.7013519)
(2.7187346e-06 3.0729495e-06 1.7013474)
(2.6521908e-06 3.092215e-07 1.7013604)
(-2.5378625e-06 1.673438e-07 1.7013548)
(-1.242644e-06 2.1639576e-07 1.7013515)
(-3.3653669e-07 2.958276e-07 1.7013503)
(1.2785301e-07 3.8848349e-07 1.7013504)
(2.5517506e-07 4.4736575e-07 1.7013509)
(1.7864467e-07 3.1629865e-07 1.7013514)
(5.6437173e-08 -1.3918615e-08 1.701352)
(3.0729495e-06 2.7187346e-06 1.7013474)
(4.588053e-06 4.588053e-06 1.7013557)
(-2.5341492e-07 1.6875342e-06 1.7013605)
(-2.6306882e-06 1.6066132e-06 1.7013545)
(-1.1141602e-06 1.7137859e-06 1.7013514)
(-1.6444897e-07 1.8600742e-06 1.7013505)
(2.7939114e-07 2.059955e-06 1.7013509)
(1.829902e-07 2.2725021e-06 1.7013517)
(-2.8263969e-07 2.1992229e-06 1.7013514)
(-2.7378007e-07 1.4743463e-06 1.7013507)
(3.0922153e-07 2.6521908e-06 1.7013604)
(1.6875342e-06 -2.5341491e-07 1.7013605)
(-3.2924902e-07 -3.2924899e-07 1.7013648)
(-2.5116108e-06 -2.1187779e-07 1.7013589)
(-9.8918295e-07 -1.0846579e-07 1.701356)
(9.6324684e-09 8.5194699e-09 1.7013554)
(5.4028089e-07 1.937313e-07 1.7013562)
(3.9444291e-07 4.9182608e-07 1.7013576)
(-6.1951106e-07 8.0384385e-07 1.7013575)
(-6.6843938e-07 7.4799252e-07 1.7013553)
(1.673438e-07 -2.5378625e-06 1.7013548)
(1.6066132e-06 -2.6306883e-06 1.7013545)
(-2.1187782e-07 -2.5116109e-06 1.7013589)
(-2.409905e-06 -2.409905e-06 1.7013533)
(-8.937629e-07 -2.3240406e-06 1.7013505)
(1.3774809e-07 -2.2314529e-06 1.7013501)
(7.6269775e-07 -2.1029102e-06 1.7013512)
(7.9310278e-07 -1.892637e-06 1.7013532)
(-2.6473259e-08 -1.5497604e-06 1.701354)
(-3.2963142e-07 -1.1013794e-06 1.701353)
(2.1639577e-07 -1.242644e-06 1.7013515)
(1.7137859e-06 -1.1141602e-06 1.7013514)
(-1.084658e-07 -9.8918296e-07 1.701356)
(-2.3240406e-06 -8.937629e-07 1.7013505)
(-8.1073081e-07 -8.1073083e-07 1.7013479)
(2.3076284e-07 -7.294021e-07 1.7013477)
(8.7909676e-07 -6.4158728e-07 1.701349)
(9.4759271e-07 -5.3876108e-07 1.7013512)
(1.7174656e-07 -4.1555199e-07 1.7013524)
(-2.2005836e-07 -2.7909546e-07 1.7013519)
(2.9582759e-07 -3.3653668e-07 1.7013503)
(1.8600742e-06 -1.6444898e-07 1.7013505)
(8.5194612e-09 9.6325031e-09 1.7013554)
(-2.2314529e-06 1.377481e-07 1.7013501)
(-7.2940207e-07 2.3076282e-07 1.7013477)
(3.0689165e-07 3.0689163e-07 1.7013475)
(9.5333877e-07 3.7014065e-07 1.7013491)
(1.019138e-06 4.2338922e-07 1.7013514)
(2.3319238e-07 4.6302366e-07 1.7013527)
(-1.9317489e-07 4.8310417e-07 1.7013523)
(3.8848347e-07 1.2785299e-07 1.7013504)
(2.0599551e-06 2.7939119e-07 1.7013509)
(1.9373129e-07 5.4028088e-07 1.7013562)
(-2.1029102e-06 7.6269776e-07 1.7013512)
(-6.4158729e-07 8.790968e-07 1.701349)
(3.7014064e-07 9.5333879e-07 1.7013491)
(9.9559436e-07 9.9559433e-07 1.7013507)
(1.0404757e-06 1.0099771e-06 1.7013531)
(2.3146153e-07 9.9308538e-07 1.7013544)
(-1.9997785e-07 9.4641429e-07 1.701354)
(4.4736576e-07 2.5517505e-07 1.7013509)
(2.2725021e-06 1.829902e-07 1.7013517)
(4.9182606e-07 3.9444289e-07 1.7013576)
(-1.892637e-06 7.9310276e-07 1.7013532)
(-5.3876106e-07 9.475927e-07 1.7013512)
(4.2338921e-07 1.019138e-06 1.7013514)
(1.0099771e-06 1.0404757e-06 1.7013531)
(1.0166291e-06 1.0166291e-06 1.7013555)
(1.6962959e-07 9.4011686e-07 1.7013568)
(-2.3984597e-07 8.1596348e-07 1.7013561)
(3.1629863e-07 1.7864469e-07 1.7013514)
(2.1992229e-06 -2.826397e-07 1.7013514)
(8.0384384e-07 -6.1951107e-07 1.7013575)
(-1.5497604e-06 -2.6473251e-08 1.701354)
(-4.1555198e-07 1.7174657e-07 1.7013524)
(4.6302366e-07 2.3319237e-07 1.7013527)
(9.9308538e-07 2.3146154e-07 1.7013544)
(9.4011688e-07 1.6962959e-07 1.7013568)
(3.0795895e-08 3.0795921e-08 1.7013577)
(-3.2413123e-07 -1.6549161e-07 1.7013566)
(-1.3918641e-08 5.6437181e-08 1.701352)
(1.4743463e-06 -2.7378009e-07 1.7013507)
(7.4799251e-07 -6.6843937e-07 1.7013553)
(-1.1013794e-06 -3.2963142e-07 1.701353)
(-2.7909546e-07 -2.2005836e-07 1.7013519)
(4.8310417e-07 -1.9317489e-07 1.7013523)
(9.4641431e-07 -1.9997785e-07 1.701354)
(8.1596347e-07 -2.3984597e-07 1.7013561)
(-1.6549162e-07 -3.2413124e-07 1.7013566)
(-4.3613351e-07 -4.3613351e-07 1.7013552)
(-2.9847772e-06 -2.9847772e-06 1.702425)
(5.7132685e-06 5.2606599e-06 1.7024228)
(4.7705957e-06 -1.3477506e-07 1.7024291)
(-6.3096276e-06 -4.4806666e-07 1.7024249)
(-3.2485875e-06 -3.1793864e-07 1.7024223)
(-8.1792651e-07 -9.6260335e-08 1.7024214)
(4.7220952e-07 1.8332989e-07 1.7024217)
(7.7050604e-07 3.2698845e-07 1.7024223)
(8.8718108e-07 -3.1351593e-07 1.7024224)
(5.4040115e-07 -1.2730095e-06 1.7024239)
(5.2606599e-06 5.7132685e-06 1.7024228)
(8.5632707e-06 8.5632706e-06 1.7024264)
(-9.3813086e-07 2.7120212e-06 1.7024287)
(-6.4927912e-06 2.4994891e-06 1.7024242)
(-2.8967812e-06 2.7713536e-06 1.7024217)
(-3.1665799e-07 3.1842306e-06 1.7024212)
(8.954583e-07 3.7870755e-06 1.7024219)
(2.7366024e-07 4.396975e-06 1.7024227)
(-7.1281683e-07 3.870496e-06 1.7024215)
(-4.1909238e-07 1.8056869e-06 1.7024212)
(-1.3477506e-07 4.7705957e-06 1.7024291)
(2.7120212e-06 -9.3813085e-07 1.7024287)
(-1.2931858e-06 -1.2931859e-06 1.7024305)
(-6.2502953e-06 -1.0655794e-06 1.7024261)
(-2.563846e-06 -8.0157686e-07 1.7024237)
(1.9779544e-07 -4.6175891e-07 1.7024234)
(1.6849539e-06 9.7244894e-08 1.7024246)
(8.5392652e-07 9.9337228e-07 1.7024261)
(-1.704107e-06 1.8116743e-06 1.7024252)
(-1.5244079e-06 1.5791451e-06 1.7024236)
(-4.4806667e-07 -6.3096276e-06 1.7024249)
(2.4994891e-06 -6.4927912e-06 1.7024242)
(-1.0655794e-06 -6.2502952e-06 1.7024261)
(-6.0011822e-06 -6.0011822e-06 1.7024218)
(-2.2929608e-06 -5.761047e-06 1.7024196)
(5.8216378e-07 -5.4850111e-06 1.7024195)
(2.3505895e-06 -5.0955735e-06 1.7024209)
(1.9880896e-06 -4.4631387e-06 1.7024231)
(-1.2704399e-07 -3.4872141e-06 1.702423)
(-6.5162159e-07 -2.2703453e-06 1.7024224)
(-3.1793864e-07 -3.2485875e-06 1.7024223)
(2.7713535e-06 -2.8967812e-06 1.7024217)
(-8.0157685e-07 -2.563846e-06 1.7024237)
(-5.761047e-06 -2.2929607e-06 1.7024196)
(-2.0476749e-06 -2.0476749e-06 1.7024176)
(8.6326896e-07 -1.803335e-06 1.7024176)
(2.7068262e-06 -1.537481e-06 1.7024193)
(2.4622859e-06 -1.2238366e-06 1.7024217)
(4.8868649e-07 -8.4797555e-07 1.7024219)
(-3.075391e-07 -4.1372281e-07 1.7024218)
(-9.6260343e-08 -8.1792651e-07 1.7024214)
(3.1842306e-06 -3.1665799e-07 1.7024212)
(-4.6175892e-07 1.9779545e-07 1.7024234)
(-5.4850111e-06 5.8216378e-07 1.7024195)
(-1.8033351e-06 8.6326895e-07 1.7024176)
(1.0923577e-06 1.0923577e-06 1.7024178)
(2.930088e-06 1.2826494e-06 1.7024196)
(2.6775951e-06 1.4408337e-06 1.7024222)
(6.8306985e-07 1.5543776e-06 1.7024226)
(-2.1736882e-07 1.6115481e-06 1.7024226)
(1.8332989e-07 4.722095e-07 1.7024217)
(3.7870755e-06 8.954583e-07 1.7024219)
(9.7244903e-08 1.6849539e-06 1.7024246)
(-5.0955735e-06 2.3505895e-06 1.7024209)
(-1.537481e-06 2.7068262e-06 1.7024193)
(1.2826494e-06 2.930088e-06 1.7024196)
(3.0553023e-06 3.0553023e-06 1.7024215)
(2.7340142e-06 3.0889534e-06 1.7024241)
(6.5940082e-07 3.0113902e-06 1.7024245)
(-2.5036868e-07 2.8079975e-06 1.7024245)
(3.2698845e-07 7.7050605e-07 1.7024223)
(4.3969749e-06 2.7366023e-07 1.7024227)
(9.9337229e-07 8.539265e-07 1.7024261)
(-4.4631387e-06 1.9880896e-06 1.7024231)
(-1.2238366e-06 2.4622859e-06 1.7024217)
(1.4408337e-06 2.6775951e-06 1.7024222)
(3.0889533e-06 2.7340142e-06 1.7024241)
(2.633683e-06 2.633683e-06 1.7024267)
(4.0211395e-07 2.3367268e-06 1.7024269)
(-4.2076153e-07 1.8285675e-06 1.7024265)
(-3.1351595e-07 8.8718108e-07 1.7024224)
(3.870496e-06 -7.128168e-07 1.7024215)
(1.8116743e-06 -1.704107e-06 1.7024252)
(-3.4872141e-06 -1.2704397e-07 1.702423)
(-8.4797558e-07 4.886865e-07 1.7024219)
(1.5543777e-06 6.8306982e-07 1.7024226)
(3.0113902e-06 6.5940082e-07 1.7024245)
(2.3367268e-06 4.0211397e-07 1.7024269)
(-1.4571465e-07 -1.4571465e-07 1.7024266)
(-7.5852792e-07 -7.1984638e-07 1.7024255)
(-1.2730095e-06 5.4040114e-07 1.7024239)
(1.8056869e-06 -4.190924e-07 1.7024212)
(1.5791451e-06 -1.5244079e-06 1.7024236)
(-2.2703453e-06 -6.516216e-07 1.7024224)
(-4.1372281e-07 -3.0753906e-07 1.7024218)
(1.6115481e-06 -2.1736882e-07 1.7024226)
(2.8079975e-06 -2.5036868e-07 1.7024245)
(1.8285676e-06 -4.2076152e-07 1.7024265)
(-7.198464e-07 -7.5852792e-07 1.7024255)
(-9.9489327e-07 -9.9489327e-07 1.7024253)
(-3.8273313e-06 -3.8273313e-06 1.7045597)
(6.787898e-06 6.7014072e-06 1.7045577)
(4.757823e-06 -1.28529e-07 1.7045613)
(-9.3978765e-06 -5.1380019e-07 1.7045577)
(-4.7319266e-06 -3.0387093e-07 1.7045556)
(-9.2292551e-07 6.583685e-08 1.7045551)
(1.0288542e-06 5.853682e-07 1.7045558)
(1.0296748e-06 8.828684e-07 1.7045565)
(1.8070355e-06 -5.7812973e-07 1.7045561)
(1.5376838e-06 -2.6886975e-06 1.7045575)
(6.7014072e-06 6.787898e-06 1.7045577)
(1.04867e-05 1.04867e-05 1.70456)
(-2.4573844e-06 3.0294166e-06 1.7045609)
(-9.5732184e-06 2.7829704e-06 1.7045572)
(-4.1522896e-06 3.2070056e-06 1.7045553)
(-3.3686378e-08 3.8857282e-06 1.7045551)
(1.8458857e-06 4.9552249e-06 1.7045562)
(-1.3382308e-07 6.099137e-06 1.7045574)
(-1.7645304e-06 4.9153625e-06 1.7045555)
(-5.7288393e-07 1.1989174e-06 1.704555)
(-1.2852901e-07 4.757823e-06 1.7045613)
(3.0294166e-06 -2.4573844e-06 1.7045609)
(-2.945907e-06 -2.9459069e-06 1.7045616)
(-9.2202875e-06 -2.6208555e-06 1.7045579)
(-3.6291688e-06 -2.2141253e-06 1.7045561)
(8.2529384e-07 -1.6621141e-06 1.7045562)
(3.242263e-06 -7.2457283e-07 1.7045578)
(9.8981239e-07 8.2524913e-07 1.7045597)
(-3.0931842e-06 2.2079389e-06 1.704558)
(-2.1787613e-06 1.9111559e-06 1.7045565)
(-5.1380017e-07 -9.3978765e-06 1.7045577)
(2.7829704e-06 -9.5732184e-06 1.7045572)
(-2.6208555e-06 -9.2202875e-06 1.7045579)
(-8.8414368e-06 -8.8414368e-06 1.7045544)
(-3.1935482e-06 -8.4571229e-06 1.7045527)
(1.4558661e-06 -8.0038079e-06 1.704553)
(4.3332489e-06 -7.3613383e-06 1.7045549)
(2.7986886e-06 -6.3214107e-06 1.7045574)
(-6.7862369e-07 -4.7712484e-06 1.7045564)
(-8.6966693e-07 -2.9027047e-06 1.7045557)
(-3.0387093e-07 -4.7319266e-06 1.7045556)
(3.2070056e-06 -4.1522896e-06 1.7045553)
(-2.2141253e-06 -3.6291688e-06 1.7045561)
(-8.4571229e-06 -3.1935482e-06 1.7045527)
(-2.79154e-06 -2.7915399e-06 1.7045512)
(1.9210785e-06 -2.3881922e-06 1.7045516)
(4.9246602e-06 -1.948359e-06 1.7045537)
(3.5799023e-06 -1.4299149e-06 1.7045565)
(3.2552184e-07 -8.1680166e-07 1.7045559)
(-3.1021766e-07 -1.0765068e-07 1.7045556)
(6.5836841e-08 -9.2292553e-07 1.7045551)
(3.8857282e-06 -3.3686396e-08 1.7045551)
(-1.6621141e-06 8.2529386e-07 1.7045562)
(-8.0038079e-06 1.4558661e-06 1.704553)
(-2.3881922e-06 1.9210785e-06 1.7045516)
(2.299047e-06 2.299047e-06 1.7045522)
(5.2915262e-06 2.6118415e-06 1.7045544)
(3.930246e-06 2.8658079e-06 1.7045573)
(6.4364055e-07 3.0334459e-06 1.7045568)
(-1.6051594e-07 3.0973662e-06 1.7045567)
(5.8536819e-07 1.0288542e-06 1.7045558)
(4.955225e-06 1.8458857e-06 1.7045562)
(-7.2457281e-07 3.242263e-06 1.7045578)
(-7.3613383e-06 4.3332489e-06 1.7045549)
(-1.9483591e-06 4.9246602e-06 1.7045537)
(2.6118415e-06 5.2915262e-06 1.7045544)
(5.4914211e-06 5.4914211e-06 1.7045567)
(4.0015067e-06 5.5199669e-06 1.7045597)
(5.5708007e-07 5.3178843e-06 1.7045592)
(-2.462974e-07 4.8252153e-06 1.7045589)
(8.8286839e-07 1.0296749e-06 1.7045565)
(6.099137e-06 -1.3382305e-07 1.7045574)
(8.2524914e-07 9.8981239e-07 1.7045597)
(-6.3214108e-06 2.7986886e-06 1.7045574)
(-1.4299149e-06 3.5799023e-06 1.7045565)
(2.8658079e-06 3.930246e-06 1.7045573)
(5.5199669e-06 4.0015067e-06 1.7045597)
(3.7567092e-06 3.7567092e-06 1.7045625)
(-5.1111069e-08 3.0708999e-06 1.7045617)
(-6.5318497e-07 1.8996825e-06 1.7045609)
(-5.7812972e-07 1.8070354e-06 1.7045561)
(4.9153624e-06 -1.7645304e-06 1.7045555)
(2.2079388e-06 -3.0931842e-06 1.704558)
(-4.7712484e-06 -6.7862368e-07 1.7045564)
(-8.1680164e-07 3.2552184e-07 1.7045559)
(3.0334459e-06 6.4364055e-07 1.7045568)
(5.3178843e-06 5.5708007e-07 1.7045592)
(3.0708999e-06 -5.1111086e-08 1.7045617)
(-1.2999466e-06 -1.2999467e-06 1.7045602)
(-1.4175148e-06 -1.350956e-06 1.7045582)
(-2.6886975e-06 1.5376838e-06 1.7045575)
(1.1989174e-06 -5.7288394e-07 1.704555)
(1.9111559e-06 -2.1787613e-06 1.7045565)
(-2.9027047e-06 -8.6966693e-07 1.7045557)
(-1.0765068e-07 -3.1021766e-07 1.7045556)
(3.0973662e-06 -1.6051594e-07 1.7045567)
(4.8252153e-06 -2.462974e-07 1.7045589)
(1.8996825e-06 -6.5318496e-07 1.7045609)
(-1.350956e-06 -1.4175148e-06 1.7045582)
(-7.0419435e-07 -7.0419437e-07 1.7045591)
(-5.0074129e-06 -5.0074129e-06 1.707743)
(7.3209579e-06 7.5592802e-06 1.7077407)
(4.7893168e-06 -5.2318791e-07 1.7077442)
(-1.2025554e-05 -9.5998922e-07 1.707741)
(-5.8266368e-06 -6.7148891e-07 1.7077393)
(-6.7243927e-07 -1.5135489e-07 1.7077392)
(1.8805825e-06 6.4215407e-07 1.7077401)
(1.0714537e-06 1.2143022e-06 1.7077412)
(1.8869284e-06 -9.0037425e-07 1.7077405)
(2.02836e-06 -3.8163549e-06 1.7077415)
(7.5592802e-06 7.3209579e-06 1.7077407)
(1.1805183e-05 1.1805183e-05 1.7077425)
(-3.7299526e-06 2.969059e-06 1.7077435)
(-1.2173855e-05 2.7162119e-06 1.7077402)
(-5.0180025e-06 3.2908126e-06 1.7077386)
(6.412037e-07 4.234202e-06 1.7077388)
(3.2462396e-06 5.7952314e-06 1.7077403)
(-4.7107459e-07 7.577357e-06 1.7077419)
(-3.1437287e-06 5.8450338e-06 1.7077399)
(-8.8762069e-07 8.042566e-07 1.7077394)
(-5.2318789e-07 4.7893167e-06 1.7077442)
(2.969059e-06 -3.7299527e-06 1.7077435)
(-4.2996542e-06 -4.2996542e-06 1.7077443)
(-1.1703801e-05 -3.8688765e-06 1.7077411)
(-4.3086467e-06 -3.3201658e-06 1.7077396)
(1.8319795e-06 -2.560697e-06 1.70774)
(5.2237376e-06 -1.2573781e-06 1.7077419)
(1.1212561e-06 9.1955898e-07 1.7077443)
(-4.8861721e-06 2.7690779e-06 1.7077425)
(-3.0124172e-06 2.3134717e-06 1.7077409)
(-9.599892e-07 -1.2025554e-05 1.707741)
(2.7162119e-06 -1.2173855e-05 1.7077402)
(-3.8688765e-06 -1.1703801e-05 1.7077411)
(-1.1194367e-05 -1.1194367e-05 1.707738)
(-3.709823e-06 -1.0667373e-05 1.7077367)
(2.7039914e-06 -1.0039721e-05 1.7077373)
(6.7264956e-06 -9.1508425e-06 1.7077395)
(3.5553815e-06 -7.7183944e-06 1.7077424)
(-1.749816e-06 -5.6459323e-06 1.7077413)
(-1.3432269e-06 -3.2281071e-06 1.7077403)
(-6.7148887e-07 -5.8266368e-06 1.7077393)
(3.2908126e-06 -5.0180025e-06 1.7077386)
(-3.3201658e-06 -4.3086467e-06 1.7077396)
(-1.0667373e-05 -3.709823e-06 1.7077367)
(-3.1540009e-06 -3.1540009e-06 1.7077356)
(3.34851e-06 -2.5957072e-06 1.7077363)
(7.5450643e-06 -1.9879537e-06 1.7077387)
(4.6261664e-06 -1.2738434e-06 1.7077418)
(-3.9588478e-07 -4.4192264e-07 1.707741)
(-5.9459201e-07 5.0876111e-07 1.7077404)
(-1.5135489e-07 -6.7243927e-07 1.7077392)
(4.234202e-06 6.4120367e-07 1.7077388)
(-2.560697e-06 1.8319795e-06 1.70774)
(-1.0039721e-05 2.7039914e-06 1.7077373)
(-2.5957072e-06 3.34851e-06 1.7077363)
(3.8700386e-06 3.8700386e-06 1.7077371)
(8.0483594e-06 4.2986545e-06 1.7077397)
(5.1014125e-06 4.6380945e-06 1.707743)
(3.278852e-08 4.8411287e-06 1.7077423)
(-3.9254317e-07 4.8835568e-06 1.7077418)
(6.4215406e-07 1.8805825e-06 1.7077401)
(5.7952314e-06 3.2462396e-06 1.7077403)
(-1.2573781e-06 5.2237375e-06 1.7077419)
(-9.1508425e-06 6.7264956e-06 1.7077395)
(-1.9879537e-06 7.5450643e-06 1.7077387)
(4.2986545e-06 8.0483594e-06 1.7077397)
(8.3131202e-06 8.3131202e-06 1.7077423)
(5.1686405e-06 8.312972e-06 1.7077456)
(-1.504225e-07 7.9229417e-06 1.7077449)
(-5.521639e-07 7.0113757e-06 1.7077443)
(1.2143022e-06 1.0714537e-06 1.7077412)
(7.577357e-06 -4.7107459e-07 1.7077419)
(9.1955896e-07 1.1212561e-06 1.7077443)
(-7.7183944e-06 3.5553814e-06 1.7077424)
(-1.2738433e-06 4.6261663e-06 1.7077418)
(4.6380945e-06 5.1014126e-06 1.707743)
(8.312972e-06 5.1686405e-06 1.7077456)
(4.7112341e-06 4.7112341e-06 1.7077489)
(-1.2688078e-06 3.4244154e-06 1.7077477)
(-1.3041092e-06 1.1725803e-06 1.7077464)
(-9.0037427e-07 1.8869284e-06 1.7077405)
(5.8450338e-06 -3.1437287e-06 1.7077399)
(2.7690779e-06 -4.886172e-06 1.7077425)
(-5.6459323e-06 -1.749816e-06 1.7077413)
(-4.4192263e-07 -3.9588476e-07 1.707741)
(4.8411286e-06 3.2788511e-08 1.7077423)
(7.9229417e-06 -1.504225e-07 1.7077449)
(3.4244154e-06 -1.2688078e-06 1.7077477)
(-3.6890763e-06 -3.6890763e-06 1.7077457)
(-2.803999e-06 -2.5000942e-06 1.7077426)
(-3.8163549e-06 2.02836e-06 1.7077415)
(8.042566e-07 -8.8762069e-07 1.7077394)
(2.3134717e-06 -3.0124172e-06 1.7077409)
(-3.2281071e-06 -1.3432269e-06 1.7077403)
(5.0876115e-07 -5.9459202e-07 1.7077404)
(4.8835568e-06 -3.9254316e-07 1.7077418)
(7.0113757e-06 -5.5216391e-07 1.7077443)
(1.1725803e-06 -1.3041093e-06 1.7077464)
(-2.5000941e-06 -2.803999e-06 1.7077426)
(-1.1512709e-07 -1.1512709e-07 1.7077438)
(-6.0683545e-06 -6.0683545e-06 1.7119561)
(8.0194484e-06 8.4100773e-06 1.7119541)
(5.0592692e-06 -8.7091867e-07 1.7119576)
(-1.4299882e-05 -1.3563297e-06 1.7119548)
(-6.6167308e-06 -9.9219146e-07 1.7119533)
(-1.1526671e-07 -3.2703841e-07 1.7119534)
(3.1044097e-06 7.3320085e-07 1.7119546)
(1.4587054e-06 1.5804021e-06 1.7119561)
(2.0238626e-06 -1.183e-06 1.7119556)
(2.4394513e-06 -4.7803686e-06 1.7119565)
(8.4100773e-06 8.0194484e-06 1.7119541)
(1.3216884e-05 1.3216884e-05 1.7119558)
(-4.7071378e-06 3.066447e-06 1.711957)
(-1.4421155e-05 2.8122635e-06 1.711954)
(-5.5874395e-06 3.534586e-06 1.7119527)
(1.6101256e-06 4.7354965e-06 1.7119531)
(5.0118502e-06 6.7742551e-06 1.7119549)
(-4.5749547e-07 9.1779495e-06 1.7119569)
(-4.3369081e-06 6.8568975e-06 1.7119551)
(-1.1579173e-06 6.1554952e-07 1.7119546)
(-8.7091866e-07 5.0592692e-06 1.7119576)
(3.066447e-06 -4.7071378e-06 1.711957)
(-5.3453515e-06 -5.3453515e-06 1.7119579)
(-1.3831743e-05 -4.8057374e-06 1.7119551)
(-4.6934978e-06 -4.1151704e-06 1.7119539)
(3.1244024e-06 -3.1515252e-06 1.7119545)
(7.5468627e-06 -1.4930893e-06 1.7119567)
(1.5413477e-06 1.284058e-06 1.7119594)
(-6.5385373e-06 3.5264781e-06 1.7119577)
(-3.8018966e-06 2.8721853e-06 1.7119562)
(-1.3563297e-06 -1.4299882e-05 1.7119548)
(2.8122635e-06 -1.4421155e-05 1.711954)
(-4.8057375e-06 -1.3831743e-05 1.7119551)
(-1.3190974e-05 -1.3190974e-05 1.7119524)
(-3.9332272e-06 -1.2522664e-05 1.7119514)
(4.2322066e-06 -1.1724458e-05 1.7119522)
(9.4474334e-06 -1.0596956e-05 1.7119546)
(4.562072e-06 -8.7874679e-06 1.7119578)
(-2.7487809e-06 -6.2325304e-06 1.7119568)
(-1.8122102e-06 -3.3230727e-06 1.7119559)
(-9.9219145e-07 -6.6167308e-06 1.7119533)
(3.534586e-06 -5.5874395e-06 1.7119527)
(-4.1151704e-06 -4.6934978e-06 1.7119539)
(-1.2522664e-05 -3.9332272e-06 1.7119514)
(-3.2269822e-06 -3.2269822e-06 1.7119505)
(5.0501103e-06 -2.5189472e-06 1.7119514)
(1.0483853e-05 -1.7506474e-06 1.7119541)
(5.9057734e-06 -8.5071183e-07 1.7119575)
(-1.0741422e-06 1.8416746e-07 1.7119568)
(-8.9243894e-07 1.3529999e-06 1.7119562)
(-3.2703839e-07 -1.152667e-07 1.7119534)
(4.7354965e-06 1.6101256e-06 1.7119531)
(-3.1515252e-06 3.1244025e-06 1.7119545)
(-1.1724458e-05 4.2322067e-06 1.7119522)
(-2.5189472e-06 5.0501103e-06 1.7119514)
(5.7085414e-06 5.7085414e-06 1.7119525)
(1.1115669e-05 6.2456433e-06 1.7119553)
(6.4968868e-06 6.6628154e-06 1.7119588)
(-5.4506908e-07 6.8921312e-06 1.7119582)
(-6.433777e-07 6.9010377e-06 1.7119577)
(7.3320084e-07 3.1044097e-06 1.7119546)
(6.7742551e-06 5.0118502e-06 1.7119549)
(-1.4930893e-06 7.5468627e-06 1.7119567)
(-1.0596956e-05 9.4474334e-06 1.7119546)
(-1.7506474e-06 1.0483853e-05 1.7119541)
(6.2456433e-06 1.1115669e-05 1.7119553)
(1.1438127e-05 1.1438127e-05 1.7119581)
(6.5522613e-06 1.1400696e-05 1.7119617)
(-8.3591987e-07 1.080183e-05 1.711961)
(-8.8353249e-07 9.4164772e-06 1.7119604)
(1.5804021e-06 1.4587053e-06 1.7119561)
(9.1779495e-06 -4.5749547e-07 1.7119569)
(1.284058e-06 1.5413476e-06 1.7119594)
(-8.7874679e-06 4.562072e-06 1.7119578)
(-8.5071185e-07 5.9057734e-06 1.7119575)
(6.6628154e-06 6.4968868e-06 1.7119588)
(1.1400696e-05 6.5522613e-06 1.7119617)
(5.8605899e-06 5.8605899e-06 1.7119651)
(-2.5292877e-06 3.8787769e-06 1.7119641)
(-2.0287304e-06 2.7163985e-07 1.7119626)
(-1.183e-06 2.0238626e-06 1.7119556)
(6.8568975e-06 -4.336908e-06 1.7119551)
(3.5264781e-06 -6.5385374e-06 1.7119577)
(-6.2325304e-06 -2.7487809e-06 1.7119568)
(1.8416748e-07 -1.0741422e-06 1.7119568)
(6.8921312e-06 -5.4506909e-07 1.7119582)
(1.080183e-05 -8.3591987e-07 1.711961)
(3.8787769e-06 -2.5292877e-06 1.7119641)
(-6.4248699e-06 -6.4248699e-06 1.711962)
(-4.4906695e-06 -3.9506371e-06 1.7119586)
(-4.7803686e-06 2.4394513e-06 1.7119565)
(6.1554952e-07 -1.1579173e-06 1.7119546)
(2.8721852e-06 -3.8018966e-06 1.7119562)
(-3.3230727e-06 -1.8122102e-06 1.7119559)
(1.3529999e-06 -8.9243894e-07 1.7119562)
(6.9010377e-06 -6.4337769e-07 1.7119577)
(9.4164772e-06 -8.8353249e-07 1.7119604)
(2.7163988e-07 -2.0287304e-06 1.7119626)
(-3.9506371e-06 -4.4906695e-06 1.7119586)
(4.4550237e-07 4.4550236e-07 1.7119596)
(-7.0112213e-06 -7.0112213e-06 1.7171748)
(8.8394603e-06 9.2764912e-06 1.717173)
(5.4834981e-06 -1.1482488e-06 1.7171765)
(-1.6295972e-05 -1.6799797e-06 1.717174)
(-7.1726402e-06 -1.2428045e-06 1.7171728)
(6.5103564e-07 -4.3714729e-07 1.717173)
(4.5465451e-06 8.8209953e-07 1.7171744)
(2.0716133e-06 1.9960918e-06 1.717176)
(2.263348e-06 -1.4148811e-06 1.7171758)
(2.8433927e-06 -5.6548467e-06 1.7171766)
(9.2764912e-06 8.8394603e-06 1.717173)
(1.4702433e-05 1.4702433e-05 1.7171747)
(-5.4729728e-06 3.2987709e-06 1.717176)
(-1.6390528e-05 3.0455076e-06 1.7171734)
(-5.9298078e-06 3.9117573e-06 1.7171723)
(2.7759396e-06 5.3629566e-06 1.7171729)
(6.9797841e-06 7.8653486e-06 1.7171748)
(-2.2536742e-07 1.0869278e-05 1.7171769)
(-5.3875904e-06 7.9392481e-06 1.7171754)
(-1.3965729e-06 5.4609886e-07 1.7171749)
(-1.1482488e-06 5.4834981e-06 1.7171765)
(3.2987709e-06 -5.4729728e-06 1.717176)
(-6.1734271e-06 -6.1734271e-06 1.7171771)
(-1.5682986e-05 -5.5254474e-06 1.7171745)
(-4.8551912e-06 -4.6954267e-06 1.7171736)
(4.6046269e-06 -3.5328413e-06 1.7171744)
(1.0052866e-05 -1.5306152e-06 1.7171767)
(2.1455128e-06 1.8239171e-06 1.7171795)
(-8.0598307e-06 4.4171415e-06 1.717178)
(-4.5497566e-06 3.5507089e-06 1.7171765)
(-1.6799797e-06 -1.6295972e-05 1.717174)
(3.0455076e-06 -1.6390528e-05 1.7171734)
(-5.5254475e-06 -1.5682986e-05 1.7171745)
(-1.4912527e-05 -1.4912527e-05 1.7171721)
(-3.9372016e-06 -1.4106025e-05 1.7171713)
(5.9407512e-06 -1.3142722e-05 1.7171722)
(1.2336542e-05 -1.1785831e-05 1.7171748)
(5.7223892e-06 -9.6150082e-06 1.7171781)
(-3.6607985e-06 -6.6075887e-06 1.7171772)
(-2.2630055e-06 -3.2419064e-06 1.7171763)
(-1.2428044e-06 -7.1726402e-06 1.7171728)
(3.9117573e-06 -5.9298077e-06 1.7171723)
(-4.6954267e-06 -4.8551912e-06 1.7171736)
(-1.4106025e-05 -3.9372016e-06 1.7171713)
(-3.0853855e-06 -3.0853855e-06 1.7171706)
(6.9248208e-06 -2.2341041e-06 1.7171717)
(1.358058e-05 -1.31376e-06 1.7171745)
(7.3237553e-06 -2.3859504e-07 1.717178)
(-1.686729e-06 9.8518542e-07 1.7171774)
(-1.1840743e-06 2.3560901e-06 1.7171768)
(-4.3714725e-07 6.5103563e-07 1.717173)
(5.3629566e-06 2.7759396e-06 1.7171729)
(-3.5328413e-06 4.6046269e-06 1.7171744)
(-1.3142722e-05 5.9407512e-06 1.7171722)
(-2.2341041e-06 6.9248208e-06 1.7171717)
(7.7123766e-06 7.7123767e-06 1.717173)
(1.4332052e-05 8.3495521e-06 1.7171758)
(8.0213346e-06 8.8359621e-06 1.7171794)
(-1.0661133e-06 9.0838294e-06 1.7171789)
(-8.9210076e-07 9.0536862e-06 1.7171784)
(8.8209957e-07 4.5465451e-06 1.7171744)
(7.8653486e-06 6.9797841e-06 1.7171748)
(-1.5306152e-06 1.0052866e-05 1.7171767)
(-1.1785831e-05 1.2336543e-05 1.7171748)
(-1.31376e-06 1.358058e-05 1.7171745)
(8.3495521e-06 1.4332052e-05 1.7171758)
(1.4704165e-05 1.4704165e-05 1.7171788)
(8.0580326e-06 1.462255e-05 1.7171824)
(-1.4690049e-06 1.3808334e-05 1.7171818)
(-1.2142176e-06 1.1939275e-05 1.7171812)
(1.9960918e-06 2.0716133e-06 1.717176)
(1.0869278e-05 -2.2536742e-07 1.7171769)
(1.823917e-06 2.1455128e-06 1.7171795)
(-9.6150081e-06 5.7223892e-06 1.7171781)
(-2.3859504e-07 7.3237553e-06 1.717178)
(8.8359621e-06 8.0213346e-06 1.7171794)
(1.462255e-05 8.0580326e-06 1.7171824)
(7.1255041e-06 7.1255041e-06 1.7171859)
(-3.7493887e-06 4.4266779e-06 1.717185)
(-2.7611601e-06 -6.2590648e-07 1.7171835)
(-1.4148811e-06 2.263348e-06 1.7171758)
(7.9392481e-06 -5.3875904e-06 1.7171754)
(4.4171415e-06 -8.0598308e-06 1.717178)
(-6.6075887e-06 -3.6607985e-06 1.7171772)
(9.8518541e-07 -1.686729e-06 1.7171774)
(9.0838294e-06 -1.0661134e-06 1.7171789)
(1.3808334e-05 -1.4690049e-06 1.7171818)
(4.4266779e-06 -3.7493887e-06 1.717185)
(-9.2204154e-06 -9.2204154e-06 1.717183)
(-6.2668019e-06 -5.5173642e-06 1.7171794)
(-5.6548467e-06 2.8433927e-06 1.7171766)
(5.4609886e-07 -1.3965729e-06 1.7171749)
(3.5507089e-06 -4.5497566e-06 1.7171765)
(-3.2419064e-06 -2.2630055e-06 1.7171763)
(2.3560901e-06 -1.1840743e-06 1.7171768)
(9.0536862e-06 -8.9210075e-07 1.7171784)
(1.1939275e-05 -1.2142176e-06 1.7171812)
(-6.2590645e-07 -2.7611601e-06 1.7171835)
(-5.5173642e-06 -6.2668019e-06 1.7171794)
(9.4189106e-07 9.4189108e-07 1.7171804)
(-7.86882e-06 -7.86882e-06 1.7233669)
(9.7016292e-06 1.0124206e-05 1.7233653)
(5.9921353e-06 -1.380773e-06 1.7233686)
(-1.8059116e-05 -1.9557425e-06 1.7233663)
(-7.5427528e-06 -1.4484326e-06 1.7233653)
(1.5615405e-06 -5.0755693e-07 1.7233657)
(6.1119657e-06 1.0620504e-06 1.7233672)
(2.8091291e-06 2.4347522e-06 1.7233689)
(2.5654136e-06 -1.6089208e-06 1.7233688)
(3.2447592e-06 -6.4649384e-06 1.7233696)
(1.0124206e-05 9.7016292e-06 1.7233653)
(1.6189676e-05 1.6189676e-05 1.7233669)
(-6.0878137e-06 3.6028819e-06 1.7233682)
(-1.8126776e-05 3.3526295e-06 1.7233658)
(-6.0945672e-06 4.3577154e-06 1.7233649)
(4.0720235e-06 6.0500553e-06 1.7233656)
(9.0542748e-06 8.9998363e-06 1.7233676)
(1.3815787e-07 1.2582984e-05 1.7233698)
(-6.334277e-06 9.0491485e-06 1.7233684)
(-1.6112584e-06 5.4708141e-07 1.723368)
(-1.380773e-06 5.9921353e-06 1.7233686)
(3.6028818e-06 -6.0878137e-06 1.7233682)
(-6.8449113e-06 -6.8449113e-06 1.7233693)
(-1.7304283e-05 -6.0911149e-06 1.723367)
(-4.8453271e-06 -5.1259958e-06 1.7233662)
(6.2036615e-06 -3.7717383e-06 1.7233671)
(1.2644894e-05 -1.4391627e-06 1.7233695)
(2.8584412e-06 2.4693786e-06 1.7233723)
(-9.4704887e-06 5.3864643e-06 1.723371)
(-5.2573079e-06 4.3059469e-06 1.7233696)
(-1.9557425e-06 -1.8059116e-05 1.7233663)
(3.3526295e-06 -1.8126776e-05 1.7233658)
(-6.0911149e-06 -1.7304283e-05 1.723367)
(-1.640786e-05 -1.640786e-05 1.7233648)
(-3.7751905e-06 -1.5468015e-05 1.7233642)
(7.7588565e-06 -1.434655e-05 1.7233652)
(1.5295392e-05 -1.2770819e-05 1.7233679)
(6.9637849e-06 -1.0255275e-05 1.7233712)
(-4.4977087e-06 -6.8208554e-06 1.7233704)
(-2.6917757e-06 -3.0266146e-06 1.7233696)
(-1.4484326e-06 -7.5427528e-06 1.7233653)
(4.3577154e-06 -6.0945672e-06 1.7233649)
(-5.1259958e-06 -4.845327e-06 1.7233662)
(-1.5468016e-05 -3.7751905e-06 1.7233642)
(-2.7840172e-06 -2.7840172e-06 1.7233637)
(8.9008583e-06 -1.7969175e-06 1.7233649)
(1.6736169e-05 -7.3356104e-07 1.7233677)
(8.8084044e-06 5.0609824e-07 1.7233712)
(-2.2418282e-06 1.9062038e-06 1.7233707)
(-1.463067e-06 3.466477e-06 1.7233702)
(-5.0755691e-07 1.5615405e-06 1.7233657)
(6.0500552e-06 4.0720234e-06 1.7233656)
(-3.7717382e-06 6.2036615e-06 1.7233671)
(-1.434655e-05 7.7588566e-06 1.7233652)
(-1.7969175e-06 8.9008583e-06 1.7233649)
(9.8093127e-06 9.8093127e-06 1.7233662)
(1.7598407e-05 1.0538166e-05 1.7233691)
(9.6035498e-06 1.1085679e-05 1.7233727)
(-1.5373299e-06 1.1345386e-05 1.7233723)
(-1.1315026e-06 1.12728e-05 1.7233719)
(1.0620504e-06 6.1119657e-06 1.7233672)
(8.9998363e-06 9.0542748e-06 1.7233676)
(-1.4391627e-06 1.2644894e-05 1.7233695)
(-1.2770819e-05 1.5295392e-05 1.7233679)
(-7.3356104e-07 1.6736169e-05 1.7233677)
(1.0538166e-05 1.7598407e-05 1.7233691)
(1.8012535e-05 1.8012535e-05 1.7233721)
(9.615624e-06 1.7880796e-05 1.7233757)
(-2.0547065e-06 1.6848799e-05 1.7233752)
(-1.5356528e-06 1.4500244e-05 1.7233746)
(2.4347522e-06 2.8091291e-06 1.7233689)
(1.2582984e-05 1.3815787e-07 1.7233698)
(2.4693786e-06 2.8584412e-06 1.7233723)
(-1.0255275e-05 6.9637849e-06 1.7233712)
(5.0609825e-07 8.8084044e-06 1.7233712)
(1.1085678e-05 9.6035498e-06 1.7233727)
(1.7880796e-05 9.6156241e-06 1.7233757)
(8.439813e-06 8.4398131e-06 1.7233792)
(-4.9178813e-06 5.0258332e-06 1.7233784)
(-3.4800567e-06 -1.4807125e-06 1.723377)
(-1.6089209e-06 2.5654136e-06 1.7233688)
(9.0491485e-06 -6.334277e-06 1.7233684)
(5.3864643e-06 -9.4704887e-06 1.723371)
(-6.8208554e-06 -4.4977087e-06 1.7233704)
(1.9062038e-06 -2.2418282e-06 1.7233707)
(1.1345386e-05 -1.53733e-06 1.7233723)
(1.6848798e-05 -2.0547065e-06 1.7233752)
(5.0258332e-06 -4.9178814e-06 1.7233784)
(-1.1975232e-05 -1.1975232e-05 1.7233765)
(-8.0421985e-06 -7.0967583e-06 1.7233729)
(-6.4649384e-06 3.2447592e-06 1.7233696)
(5.4708141e-07 -1.6112583e-06 1.723368)
(4.3059469e-06 -5.2573079e-06 1.7233696)
(-3.0266146e-06 -2.6917758e-06 1.7233696)
(3.466477e-06 -1.463067e-06 1.7233702)
(1.12728e-05 -1.1315026e-06 1.7233719)
(1.4500244e-05 -1.5356528e-06 1.7233746)
(-1.4807125e-06 -3.4800567e-06 1.723377)
(-7.0967583e-06 -8.0421984e-06 1.7233729)
(1.3984171e-06 1.3984171e-06 1.7233738)
(-8.6556331e-06 -8.6556331e-06 1.7304939)
(1.0561372e-05 1.0930989e-05 1.7304924)
(6.5435292e-06 -1.5834146e-06 1.7304956)
(-1.9615728e-05 -2.1980386e-06 1.7304935)
(-7.7621583e-06 -1.6237809e-06 1.7304927)
(2.5694418e-06 -5.5368826e-07 1.7304932)
(7.7422924e-06 1.2563059e-06 1.7304948)
(3.6162663e-06 2.8787887e-06 1.7304965)
(2.9035007e-06 -1.7745347e-06 1.7304964)
(3.6401789e-06 -7.2175289e-06 1.7304972)
(1.0930989e-05 1.0561372e-05 1.7304924)
(1.7633591e-05 1.7633591e-05 1.730494)
(-6.585498e-06 3.941489e-06 1.7304952)
(-1.9656095e-05 3.6961655e-06 1.7304931)
(-6.117808e-06 4.8339679e-06 1.7304924)
(5.4495287e-06 6.7567018e-06 1.7304932)