/*--------------------------------*- C++ -*----------------------------------*\
| =========                 |                                                 |
| \\      /  F ield         | OpenFOAM: The Open Source CFD Toolbox           |
|  \\    /   O peration     | Version:  v2106                                 |
|   \\  /    A nd           | Website:  www.openfoam.com                      |
|    \\/     M anipulation  |                                                 |
\*---------------------------------------------------------------------------*/
FoamFile
{
    version     2.0;
    format      ascii;
    arch        "LSB;label=32;scalar=64";
    class       volVectorField;
    location    "20";
    object      gradT;
}
// * * * * * * * * * * * * * * * * * * * * * * * * * * * * * * * * * * * * * //

dimensions      [0 -1 0 1 0 0 0];

internalField   nonuniform List<vector> 
4000
(
(0.0004601808 0.00046018081 796.31942)
(-0.00087781739 -0.00095355312 796.32078)
(-0.00068031345 -9.8002727e-05 796.31678)
(0.0011504132 -1.4642697e-06 796.31914)
(0.00063956654 -4.406427e-05 796.32094)
(0.00010181994 -8.3534395e-05 796.32148)
(-0.00016201783 -0.00012260019 796.32127)
(-0.00021713411 -0.00014755187 796.32079)
(-0.00015381876 -0.00010111096 796.32039)
(-5.3684335e-05 1.1084227e-05 796.32006)
(-0.00095355312 -0.00087781738 796.32078)
(-0.0014360009 -0.0014360009 796.3182)
(0.00027177539 -0.00045544108 796.31676)
(0.0012043516 -0.00038401116 796.31941)
(0.00055749641 -0.0004608924 796.32107)
(2.3284021e-05 -0.00053793422 796.32146)
(-0.00022603531 -0.00063231405 796.3211)
(-0.00019564489 -0.00072737531 796.32052)
(4.8173375e-06 -0.0007062515 796.32039)
(5.8510849e-05 -0.00046716993 796.32049)
(-9.8002721e-05 -0.00068031345 796.31678)
(-0.00045544109 0.00027177539 796.31676)
(0.0003716763 0.0003716763 796.31575)
(0.0011449619 0.00031512898 796.31834)
(0.00048564347 0.00025268118 796.31987)
(-6.9601703e-05 0.00018229937 796.32012)
(-0.00035145892 7.7938395e-05 796.31953)
(-0.00029107156 -7.0221044e-05 796.31868)
(0.00010638661 -0.00020580453 796.31846)
(0.00018539723 -0.0001975228 796.31904)
(-1.4642731e-06 0.0011504132 796.31914)
(-0.00038401117 0.0012043516 796.31941)
(0.00031512899 0.0011449619 796.31834)
(0.0010853565 0.0010853565 796.32083)
(0.0004246668 0.0010313776 796.32225)
(-0.00015145877 0.00097111363 796.32236)
(-0.00047855574 0.00088907104 796.32158)
(-0.0004793878 0.00076807513 796.32042)
(-0.00012248441 0.00060394681 796.31978)
(6.6792575e-05 0.00043086555 796.31994)
(-4.4064273e-05 0.00063956654 796.32094)
(-0.00046089241 0.00055749641 796.32107)
(0.00025268118 0.00048564348 796.31987)
(0.0010313776 0.0004246668 796.32225)
(0.00037140058 0.00037140057 796.32357)
(-0.00021190825 0.00031937054 796.32358)
(-0.00055449741 0.0002633735 796.32266)
(-0.0005761958 0.00019909077 796.32132)
(-0.00023082296 0.00012649937 796.32047)
(1.2315978e-05 5.8979252e-05 796.32042)
(-8.3534402e-05 0.00010181993 796.32148)
(-0.00053793424 2.3284014e-05 796.32146)
(0.00018229938 -6.9601706e-05 796.32012)
(0.00097111363 -0.00015145877 796.32236)
(0.00031937055 -0.00021190825 796.32358)
(-0.00025948585 -0.00025948585 796.32348)
(-0.00059883551 -0.00029959271 796.32247)
(-0.00061626193 -0.0003317289 796.32105)
(-0.00026259593 -0.00035418283 796.32012)
(-7.2754303e-07 -0.00036501692 796.32001)
(-0.00012260019 -0.00016201784 796.32127)
(-0.00063231405 -0.0002260353 796.3211)
(7.7938395e-05 -0.00035145891 796.31953)
(0.00088907103 -0.00047855573 796.32158)
(0.00026337351 -0.00055449742 796.32266)
(-0.0002995927 -0.00059883551 796.32247)
(-0.00062674047 -0.00062674047 796.32139)
(-0.00063078593 -0.00063862951 796.31993)
(-0.00026411097 -0.00063311358 796.31899)
(1.4819083e-06 -0.00061526343 796.31889)
(-0.00014755187 -0.00021713411 796.32079)
(-0.0007273753 -0.00019564489 796.32052)
(-7.0221051e-05 -0.00029107156 796.31868)
(0.00076807512 -0.00047938781 796.32042)
(0.00019909077 -0.00057619579 796.32132)
(-0.0003317289 -0.00061626193 796.32105)
(-0.00063862951 -0.00063078594 796.31993)
(-0.00062263504 -0.00062263504 796.31846)
(-0.00023922986 -0.0005896829 796.31757)
(1.7122595e-05 -0.00054166568 796.31755)
(-0.00010111097 -0.00015381875 796.32039)
(-0.00070625151 4.8173306e-06 796.32039)
(-0.00020580452 0.0001063866 796.31846)
(0.0006039468 -0.00012248441 796.31978)
(0.00012649937 -0.00023082297 796.32047)
(-0.00035418284 -0.00026259593 796.32012)
(-0.00063311358 -0.00026411098 796.31899)
(-0.00058968289 -0.00023922985 796.31757)
(-0.00018314161 -0.00018314161 796.31679)
(4.949913e-05 -0.0001118239 796.31692)
(1.1084206e-05 -5.3684335e-05 796.32006)
(-0.00046716995 5.8510845e-05 796.32049)
(-0.0001975228 0.00018539723 796.31904)
(0.00043086557 6.6792582e-05 796.31994)
(5.8979249e-05 1.2315978e-05 796.32042)
(-0.00036501691 -7.2754996e-07 796.32001)
(-0.00061526343 1.4819153e-06 796.31889)
(-0.00054166568 1.7122598e-05 796.31755)
(-0.00011182391 4.949913e-05 796.31692)
(8.8440297e-05 8.8440297e-05 796.31718)
(0.00090050877 0.00090050878 796.03277)
(-0.0017682357 -0.0016290806 796.03352)
(-0.00096247721 7.9583964e-05 796.03172)
(0.0030079756 0.00027437836 796.03369)
(0.001694903 0.00017491435 796.03513)
(0.00023400992 6.635047e-05 796.03553)
(-0.00052383454 -5.3880424e-05 796.03522)
(-0.00066174927 -0.00011947931 796.03469)
(-0.00058069139 9.5520106e-05 796.03439)
(-0.00028359185 0.00042366936 796.03377)
(-0.0016290806 -0.0017682357 796.03352)
(-0.0025891605 -0.0025891605 796.03247)
(0.00094098173 -0.00057203534 796.03198)
(0.0031033059 -0.00041592432 796.03409)
(0.0014868751 -0.00060213857 796.03543)
(5.2151443e-06 -0.00082138004 796.03568)
(-0.00070966432 -0.001109779 796.03519)
(-0.00051234875 -0.0013871002 796.03457)
(-3.7542726e-05 -0.0012273964 796.0347)
(4.4557413e-05 -0.0005443082 796.03467)
(7.9583971e-05 -0.00096247721 796.03172)
(-0.00057203533 0.00094098173 796.03198)
(0.001210759 0.001210759 796.03176)
(0.0029778723 0.0010982813 796.03385)
(0.0012894473 0.00093211248 796.03509)
(-0.0002736305 0.00072317308 796.0352)
(-0.0010895547 0.00040727401 796.03448)
(-0.00077936674 -3.6146256e-05 796.03355)
(0.00026210063 -0.00039974683 796.03359)
(0.00039949639 -0.00035436091 796.03396)
(0.00027437836 0.0030079756 796.03369)
(-0.00041592433 0.0031033059 796.03409)
(0.0010982813 0.0029778723 796.03385)
(0.0028246594 0.0028246594 796.03585)
(0.0011117669 0.0026683732 796.03699)
(-0.00051962332 0.002487391 796.03698)
(-0.0014689837 0.0022399475 796.03606)
(-0.0013193696 0.0018784089 796.03483)
(-0.00035575738 0.0014105373 796.03449)
(8.9943324e-05 0.00093983848 796.03451)
(0.00017491434 0.001694903 796.03513)
(-0.00060213856 0.0014868751 796.03543)
(0.00093211248 0.0012894473 796.03509)
(0.0026683732 0.0011117669 796.03699)
(0.00095217886 0.00095217887 796.03804)
(-0.00070205619 0.00079542095 796.03791)
(-0.0016985368 0.00062624832 796.03687)
(-0.001608777 0.00043093254 796.03546)
(-0.00067646977 0.00021282434 796.03493)
(-7.1202395e-05 7.957586e-06 796.03474)
(6.635047e-05 0.00023400992 796.03553)
(-0.00082138005 5.2151443e-06 796.03568)
(0.00072317308 -0.00027363051 796.0352)
(0.002487391 -0.00051962332 796.03698)
(0.00079542095 -0.0007020562 796.03791)
(-0.00084555386 -0.00084555386 796.03769)
(-0.0018334721 -0.00096580837 796.03655)
(-0.0017327936 -0.0010625566 796.03506)
(-0.00077873232 -0.0011302692 796.03444)
(-0.00011492343 -0.0011640355 796.0342)
(-5.3880428e-05 -0.00052383453 796.03522)
(-0.001109779 -0.00070966432 796.03519)
(0.00040727401 -0.0010895547 796.03448)
(0.0022399475 -0.0014689837 796.03606)
(0.00062624832 -0.0016985368 796.03687)
(-0.00096580837 -0.0018334721 796.03655)
(-0.0019155396 -0.0019155396 796.03534)
(-0.0017732378 -0.0019457551 796.03381)
(-0.00077794865 -0.0019180749 796.03319)
(-0.00010496868 -0.0018437216 796.03297)
(-0.00011947932 -0.00066174928 796.03469)
(-0.0013871002 -0.00051234876 796.03457)
(-3.614626e-05 -0.00077936673 796.03355)
(0.0018784089 -0.0013193696 796.03483)
(0.00043093254 -0.001608777 796.03546)
(-0.0010625566 -0.0017327936 796.03506)
(-0.0019457551 -0.0017732378 796.03381)
(-0.0017353289 -0.001735329 796.0323)
(-0.00067669889 -0.0016090942 796.03175)
(-4.0570127e-05 -0.001419704 796.03167)
(9.5520088e-05 -0.00058069139 796.03439)
(-0.0012273964 -3.7542726e-05 796.0347)
(-0.00039974682 0.00026210063 796.03359)
(0.0014105373 -0.00035575738 796.03449)
(0.00021282433 -0.00067646978 796.03493)
(-0.0011302692 -0.00077873234 796.03444)
(-0.0019180749 -0.00077794865 796.03319)
(-0.0016090942 -0.0006766989 796.03175)
(-0.00046232372 -0.00046232373 796.03139)
(8.4421525e-05 -0.00025674366 796.03154)
(0.00042366936 -0.00028359185 796.03377)
(-0.00054430821 4.455742e-05 796.03467)
(-0.00035436092 0.00039949638 796.03396)
(0.00093983848 8.9943317e-05 796.03451)
(7.9575894e-06 -7.1202398e-05 796.03474)
(-0.0011640355 -0.00011492342 796.0342)
(-0.0018437216 -0.00010496869 796.03297)
(-0.001419704 -4.0570131e-05 796.03167)
(-0.00025674365 8.4421525e-05 796.03154)
(0.00016500994 0.00016500995 796.03144)
(0.0012146203 0.0012146203 795.46304)
(-0.0019254456 -0.0020072044 795.4638)
(-0.00051281094 0.000158068 795.46294)
(0.0045659144 0.00039563811 795.46466)
(0.0024765853 0.00025046581 795.46581)
(0.00018643039 7.3145576e-05 795.466)
(-0.00099483623 -0.00014705065 795.46551)
(-0.0010467443 -0.00027352903 795.46489)
(-0.001072806 0.00020678918 795.46478)
(-0.00066940251 0.00090507194 795.46416)
(-0.0020072045 -0.0019254456 795.4638)
(-0.0029819979 -0.0029819979 795.46324)
(0.0018900316 -0.00041070064 795.46323)
(0.0046583122 -0.00022730592 795.46502)
(0.0021540928 -0.0005048112 795.46608)
(-0.00021108606 -0.00086340924 795.46613)
(-0.0013415108 -0.0013704768 795.46544)
(-0.00069290444 -0.0018721991 795.46465)
(0.00010579497 -0.0015043512 795.46502)
(2.8880242e-05 -0.00028349295 795.46504)
(0.00015806799 -0.00051281095 795.46294)
(-0.00041070065 0.0018900316 795.46323)
(0.002241881 0.0022418811 795.46338)
(0.0044718039 0.0020773457 795.46514)
(0.001840482 0.0018182138 795.46611)
(-0.00067923518 0.0014759211 795.46602)
(-0.0020036261 0.00094542882 795.46509)
(-0.0011806187 0.0001900289 795.46398)
(0.00051590015 -0.00040878564 795.46425)
(0.00055145577 -0.00035372297 795.46462)
(0.00039563812 0.0045659144 795.46466)
(-0.00022730591 0.0046583122 795.46502)
(0.0020773457 0.0044718039 795.46514)
(0.004234645 0.004234645 795.46682)
(0.0015526681 0.0039815943 795.4677)
(-0.001083871 0.0036837952 795.46749)
(-0.002627403 0.0032754356 795.46637)
(-0.0020471189 0.0026816196 795.46497)
(-0.00043795691 0.0019381557 795.4649)
(8.3942915e-05 0.0012144104 795.46498)
(0.0002504658 0.0024765853 795.46581)
(-0.0005048112 0.0021540928 795.46608)
(0.0018182138 0.001840482 795.46611)
(0.0039815943 0.0015526681 795.4677)
(0.0012896322 0.0012896322 795.46848)
(-0.0013853939 0.0010298148 795.46816)
(-0.0030058017 0.00074966694 795.46691)
(-0.0025178986 0.0004270241 795.46535)
(-0.00095130901 7.3002104e-05 795.4651)
(-0.00017228947 -0.00025677441 795.46499)
(7.3145576e-05 0.00018643038 795.466)
(-0.00086340924 -0.00021108607 795.46613)
(0.0014759211 -0.00067923518 795.46602)
(0.0036837952 -0.001083871 795.46749)
(0.0010298147 -0.0013853939 795.46816)
(-0.0016238363 -0.0016238363 795.46774)
(-0.0032301937 -0.0018224992 795.46641)
(-0.0027237837 -0.0019802823 795.46476)
(-0.0011217554 -0.0020858638 795.46443)
(-0.00024583361 -0.0021329396 795.46427)
(-0.00014705065 -0.00099483624 795.46551)
(-0.0013704768 -0.0013415108 795.46544)
(0.00094542882 -0.0020036261 795.46509)
(0.0032754356 -0.002627403 795.46637)
(0.00074966694 -0.0030058017 795.46691)
(-0.0018224992 -0.0032301937 795.46641)
(-0.0033622477 -0.0033622477 795.465)
(-0.0027812632 -0.0033983054 795.46333)
(-0.0011039663 -0.0033209459 795.463)
(-0.00021936534 -0.0031431085 795.46288)
(-0.00027352902 -0.0010467443 795.46489)
(-0.0018721991 -0.00069290444 795.46465)
(0.0001900289 -0.0011806187 795.46398)
(0.0026816196 -0.0020471189 795.46497)
(0.0004270241 -0.0025178986 795.46535)
(-0.0019802823 -0.0027237837 795.46476)
(-0.0033983054 -0.0027812632 795.46333)
(-0.0026824819 -0.0026824819 795.46168)
(-0.00086655851 -0.0023954731 795.46148)
(-6.7996199e-05 -0.0019719513 795.46158)
(0.00020678918 -0.001072806 795.46478)
(-0.0015043512 0.00010579497 795.46502)
(-0.00040878565 0.00051590015 795.46425)
(0.0019381557 -0.00043795691 795.4649)
(7.3002108e-05 -0.00095130901 795.4651)
(-0.0020858638 -0.0011217554 795.46443)
(-0.0033209459 -0.0011039663 795.463)
(-0.0023954731 -0.0008665585 795.46148)
(-0.00039343575 -0.00039343576 795.46157)
(0.00020415645 -0.00033628784 795.46205)
(0.00090507194 -0.00066940251 795.46416)
(-0.00028349295 2.8880245e-05 795.46504)
(-0.00035372298 0.00055145578 795.46462)
(0.0012144104 8.3942915e-05 795.46498)
(-0.00025677441 -0.00017228947 795.46499)
(-0.0021329396 -0.0002458336 795.46427)
(-0.0031431085 -0.00021936534 795.46288)
(-0.0019719513 -6.7996199e-05 795.46158)
(-0.00033628784 0.00020415644 795.46205)
(-1.0848284e-05 -1.0848291e-05 795.46163)
(0.0016639449 0.001663945 794.61373)
(-0.0018690014 -0.0021914197 794.61459)
(-0.00010719477 0.00036649224 794.61376)
(0.0058777021 0.00063515307 794.61525)
(0.0030325054 0.00044649397 794.61618)
(-6.1548447e-05 0.00019996732 794.61617)
(-0.0016291428 -0.00013321797 794.61549)
(-0.0014003751 -0.00035815324 794.6147)
(-0.0013092091 0.00033897314 794.61462)
(-0.00089587357 0.0013020741 794.61419)
(-0.0021914197 -0.0018690014 794.61459)
(-0.0031664541 -0.0031664541 794.61421)
(0.002719378 -0.00013134566 794.61415)
(0.0059577038 6.2582519e-05 794.6157)
(0.0025973197 -0.00030257053 794.61654)
(-0.00064126039 -0.00079846674 794.6164)
(-0.0021872634 -0.001535154 794.6155)
(-0.00092818397 -0.0022951069 794.61451)
(0.00035101821 -0.0017490182 794.61486)
(6.7227359e-05 -9.1075265e-05 794.61492)
(0.00036649224 -0.00010719478 794.61376)
(-0.00013134567 0.002719378 794.61415)
(0.0031218418 0.0031218418 794.61423)
(0.0057064773 0.0028997416 794.61574)
(0.0021714562 0.002550328 794.61649)
(-0.0012941319 0.0020792244 794.61622)
(-0.003125783 0.0013391116 794.61508)
(-0.0016142393 0.00028185057 794.61378)
(0.00089482254 -0.0005147422 794.61407)
(0.00076206935 -0.00041698531 794.61448)
(0.00063515307 0.0058777021 794.61525)
(6.2582516e-05 0.0059577038 794.6157)
(0.0028997416 0.0057064773 794.61574)
(0.00538619 0.00538619 794.61717)
(0.0017768025 0.005038794 794.61783)
(-0.0018524767 0.0046275572 794.61744)
(-0.0039846373 0.0040627622 794.61612)
(-0.0027820378 0.0032456724 794.61454)
(-0.00034781766 0.0022521663 794.61453)
(0.00016498425 0.0013144517 794.61469)
(0.00044649397 0.0030325054 794.61618)
(-0.00030257053 0.0025973197 794.61654)
(0.002550328 0.0021714562 794.61649)
(0.005038794 0.0017768025 794.61783)
(0.0014128233 0.0014128233 794.6184)
(-0.0022701637 0.0010525903 794.6179)
(-0.0045076678 0.00066442617 794.61646)
(-0.0034248352 0.00021861786 794.61472)
(-0.0010363982 -0.00026234066 794.61453)
(-0.00017564524 -0.00070428175 794.61453)
(0.00019996732 -6.1548447e-05 794.61617)
(-0.00079846675 -0.00064126039 794.6164)
(0.0020792244 -0.0012941319 794.61622)
(0.0046275572 -0.0018524767 794.61744)
(0.0010525903 -0.0022701637 794.6179)
(-0.0026008739 -0.0026008739 794.61731)
(-0.0048186097 -0.0028745691 794.61578)
(-0.0037088046 -0.0030883893 794.61396)
(-0.0012707173 -0.0032233141 794.6137)
(-0.00027695683 -0.0032732962 794.61364)
(-0.00013321797 -0.0016291429 794.61549)
(-0.001535154 -0.0021872634 794.6155)
(0.0013391117 -0.003125783 794.61508)
(0.0040627622 -0.0039846373 794.61612)
(0.00066442615 -0.0045076678 794.61646)
(-0.0028745691 -0.0048186097 794.61578)
(-0.0049951832 -0.0049951832 794.6142)
(-0.0037735803 -0.0050235902 794.61235)
(-0.001221305 -0.0048660032 794.6121)
(-0.00022562727 -0.0045332997 794.6121)
(-0.00035815324 -0.0014003751 794.6147)
(-0.0022951069 -0.00092818397 794.61451)
(0.00028185056 -0.0016142393 794.61378)
(0.0032456724 -0.0027820378 794.61454)
(0.00021861785 -0.0034248352 794.61472)
(-0.0030883893 -0.0037088046 794.61396)
(-0.0050235902 -0.0037735803 794.61235)
(-0.0035796247 -0.0035796247 794.61055)
(-0.0007804268 -0.0030440281 794.61046)
(5.5746723e-05 -0.0022478912 794.61074)
(0.00033897314 -0.0013092091 794.61462)
(-0.0017490182 0.00035101822 794.61486)
(-0.00051474222 0.00089482253 794.61407)
(0.0022521663 -0.00034781768 794.61453)
(-0.00026234066 -0.0010363982 794.61453)
(-0.0032233142 -0.0012707173 794.6137)
(-0.0048660032 -0.001221305 794.6121)
(-0.0030440281 -0.0007804268 794.61046)
(0.0001104285 0.00011042849 794.61076)
(0.00057050963 -0.00020118573 794.6116)
(0.0013020741 -0.00089587356 794.61419)
(-9.1075269e-05 6.7227359e-05 794.61492)
(-0.00041698533 0.00076206935 794.61448)
(0.0013144517 0.00016498425 794.61469)
(-0.00070428173 -0.00017564524 794.61453)
(-0.0032732962 -0.00027695683 794.61364)
(-0.0045332997 -0.00022562726 794.6121)
(-0.0022478912 5.574672e-05 794.61074)
(-0.00020118572 0.00057050963 794.6116)
(-0.0002558675 -0.0002558675 794.61114)
(0.0020690232 0.0020690232 793.48968)
(-0.0018974538 -0.0023822255 793.49043)
(0.00015026679 0.00055094874 793.48953)
(0.0069804304 0.000848608 793.49082)
(0.0033956751 0.00061869137 793.49156)
(-0.00049698111 0.00030573714 793.49139)
(-0.0024625533 -0.00013919286 793.49055)
(-0.0019166911 -0.00046504326 793.48959)
(-0.0015855325 0.00044572867 793.48939)
(-0.001102425 0.0016359838 793.48897)
(-0.0023822255 -0.0018974538 793.49043)
(-0.0034155283 -0.0034155283 793.49002)
(0.0033811003 5.9089053e-05 793.48986)
(0.0070481731 0.0002601232 793.49121)
(0.0028528043 -0.00018930041 793.49187)
(-0.0012548653 -0.00081716881 793.49157)
(-0.0032333337 -0.0017783199 793.49051)
(-0.0013317696 -0.0027917245 793.48934)
(0.00051549454 -0.0020550229 793.48957)
(8.7830073e-05 2.9090688e-06 793.4896)
(0.00055094874 0.00015026681 793.48953)
(5.9089053e-05 0.0033811003 793.48986)
(0.0038259183 0.0038259183 793.48982)
(0.006732041 0.0035448836 793.49112)
(0.0023183831 0.0031073667 793.4917)
(-0.0020860006 0.0025119032 793.49127)
(-0.004437109 0.0015690393 793.48999)
(-0.0021933941 0.00022298127 793.48853)
(0.0012091011 -0.00074287211 793.48872)
(0.00095550694 -0.00058688918 793.48908)
(0.000848608 0.0069804304 793.49082)
(0.0002601232 0.0070481731 793.49121)
(0.0035448836 0.006732041 793.49112)
(0.0063296215 0.0063296215 793.49236)
(0.0018198238 0.0058902163 793.49284)
(-0.0027931928 0.0053691307 793.4923)
(-0.0055222556 0.0046528855 793.49084)
(-0.0036436811 0.0036212857 793.48911)
(-0.00029437591 0.0023961651 793.48902)
(0.00024381301 0.0012665823 793.48917)
(0.00061869137 0.0033956751 793.49156)
(-0.00018930042 0.0028528042 793.49187)
(0.0031073667 0.0023183831 793.4917)
(0.0058902163 0.0018198238 793.49284)
(0.0013578922 0.0013578922 793.49324)
(-0.0033233314 0.00090070871 793.49259)
(-0.0061849539 0.00040835356 793.49101)
(-0.0044501145 -0.00015593971 793.48913)
(-0.0011456024 -0.00075652566 793.48888)
(-0.0001740759 -0.0013021075 793.48887)
(0.00030573714 -0.00049698111 793.49139)
(-0.00081716881 -0.0012548653 793.49157)
(0.0025119032 -0.0020860006 793.49127)
(0.0053691307 -0.0027931928 793.4923)
(0.00090070871 -0.0033233314 793.49259)
(-0.0037427314 -0.0037427314 793.49186)
(-0.006578904 -0.0040878559 793.4902)
(-0.0048085603 -0.0043539811 793.48824)
(-0.0014405437 -0.0045136988 793.48791)
(-0.00030176884 -0.0045620149 793.48786)
(-0.00013919285 -0.0024625533 793.49055)
(-0.0017783199 -0.0032333337 793.49051)
(0.0015690393 -0.004437109 793.48999)
(0.0046528855 -0.0055222556 793.49084)
(0.00040835356 -0.0061849539 793.49101)
(-0.0040878559 -0.006578904 793.4902)
(-0.0067962036 -0.0067962036 793.48848)
(-0.0048759573 -0.0068103828 793.4865)
(-0.0013536362 -0.0065577395 793.48619)
(-0.00022239207 -0.0060422394 793.48619)
(-0.00046504325 -0.0019166911 793.48959)
(-0.0027917245 -0.0013317696 793.48934)
(0.00022298126 -0.0021933941 793.48853)
(0.0036212857 -0.0036436811 793.48911)
(-0.00015593972 -0.0044501145 793.48913)
(-0.0043539812 -0.0048085603 793.48824)
(-0.0068103828 -0.0048759574 793.4865)
(-0.0045700962 -0.0045700962 793.48457)
(-0.0006724003 -0.0037353 793.48444)
(0.00021373131 -0.0024690482 793.48476)
(0.00044572866 -0.0015855325 793.48939)
(-0.0020550229 0.00051549453 793.48957)
(-0.00074287212 0.0012091011 793.48872)
(0.0023961651 -0.00029437592 793.48902)
(-0.00075652566 -0.0011456024 793.48888)
(-0.0045136988 -0.0014405437 793.48791)
(-0.0065577395 -0.0013536362 793.48619)
(-0.0037352999 -0.0006724003 793.48444)
(0.00074741176 0.00074741175 793.48475)
(0.0010438596 5.5974947e-05 793.48573)
(0.0016359838 -0.001102425 793.48897)
(2.9090827e-06 8.783008e-05 793.4896)
(-0.0005868892 0.00095550695 793.48908)
(0.0012665823 0.00024381301 793.48917)
(-0.0013021075 -0.0001740759 793.48887)
(-0.004562015 -0.00030176884 793.48786)
(-0.0060422394 -0.00022239207 793.48619)
(-0.0024690482 0.00021373131 793.48476)
(5.597495e-05 0.0010438596 793.48573)
(-0.0004777055 -0.00047770551 793.48531)
(0.0024153738 0.0024153737 792.09706)
(-0.0020158482 -0.002597223 792.09771)
(0.00028744079 0.00069472285 792.09677)
(0.0079105644 0.0010200051 792.0979)
(0.0036038189 0.0007508948 792.09849)
(-0.0010720991 0.00037462748 792.0982)
(-0.0034342349 -0.00017807777 792.09724)
(-0.0025596912 -0.00060157763 792.09617)
(-0.0019262531 0.00052214388 792.09588)
(-0.0013167804 0.0019276794 792.09545)
(-0.002597223 -0.0020158482 792.09771)
(-0.0037364991 -0.0037364991 792.09728)
(0.0039046689 0.000157536 792.09703)
(0.0079667364 0.00036449769 792.09822)
(0.0029584413 -0.00016574481 792.09873)
(-0.0020010717 -0.00092004139 792.09831)
(-0.00441044 -0.0020976959 792.09714)
(-0.0018594696 -0.0033549372 792.09588)
(0.0006030039 -0.0024205909 792.09601)
(8.875508e-05 2.2663989e-05 792.096)
(0.00069472286 0.00028744079 792.09677)
(0.000157536 0.0039046689 792.09703)
(0.0043884376 0.0043884376 792.09691)
(0.0075872836 0.0040494826 792.09805)
(0.0023192798 0.003526639 792.09848)
(-0.0030040502 0.0028113497 792.09794)
(-0.0058691307 0.0016729441 792.09656)
(-0.0028825862 4.9943959e-05 792.09501)
(0.0014513481 -0.001068359 792.09511)
(0.0011264745 -0.00084816189 792.09543)
(0.0010200051 0.0079105644 792.0979)
(0.00036449768 0.0079667364 792.09822)
(0.0040494826 0.0075872836 792.09805)
(0.0071049377 0.0071049378 792.09912)
(0.0017203085 0.0065765708 792.09946)
(-0.0038547665 0.0059497726 792.09881)
(-0.0071718458 0.0050877495 792.09726)
(-0.0046007727 0.0038503929 792.09545)
(-0.00029510194 0.0024073223 792.09529)
(0.00030895222 0.0010995079 792.09541)
(0.00075089481 0.0036038189 792.09849)
(-0.00016574481 0.0029584413 792.09873)
(0.0035266389 0.0023192798 792.09848)
(0.0065765708 0.0017203085 792.09946)
(0.0011641147 0.0011641147 792.09972)
(-0.0044928715 0.00061412923 792.09897)
(-0.0079685104 2.2159531e-05 792.0973)
(-0.0055630134 -0.00065537639 792.09535)
(-0.001299537 -0.0013692702 792.09503)
(-0.00018134 -0.002012738 792.09501)
(0.0003746275 -0.0010720991 792.0982)
(-0.00092004139 -0.0020010717 792.09831)
(0.0028113497 -0.0030040502 792.09794)
(0.0059497726 -0.0038547665 792.09881)
(0.00061412923 -0.0044928715 792.09897)
(-0.0049967217 -0.0049967217 792.09813)
(-0.0084413514 -0.0054093099 792.09639)
(-0.0059922025 -0.0057243567 792.09436)
(-0.0016524636 -0.0059062863 792.09398)
(-0.00033451562 -0.0059520275 792.09391)
(-0.00017807775 -0.0034342349 792.09724)
(-0.0020976959 -0.00441044 792.09714)
(0.0016729441 -0.0058691307 792.09656)
(0.0050877495 -0.0071718458 792.09726)
(2.2159531e-05 -0.0079685104 792.0973)
(-0.0054093099 -0.0084413514 792.09639)
(-0.0086961454 -0.0086961454 792.0946)
(-0.0060599898 -0.0086931625 792.09255)
(-0.0015272077 -0.008340823 792.09219)
(-0.0002270812 -0.0076339319 792.09217)
(-0.00060157762 -0.0025596912 792.09617)
(-0.0033549372 -0.0018594696 792.09588)
(4.9943952e-05 -0.0028825862 792.09501)
(0.0038503929 -0.0046007727 792.09545)
(-0.00065537639 -0.0055630134 792.09535)
(-0.0057243568 -0.0059922024 792.09436)
(-0.0086931625 -0.0060599899 792.09255)
(-0.00563688 -0.00563688 792.09056)
(-0.000593233 -0.0044840923 792.09038)
(0.00037237551 -0.0027093048 792.09068)
(0.00052214389 -0.0019262531 792.09588)
(-0.0024205909 0.00060300388 792.09601)
(-0.001068359 0.0014513481 792.09511)
(0.0024073224 -0.00029510194 792.09529)
(-0.0013692702 -0.001299537 792.09503)
(-0.0059062863 -0.0016524636 792.09398)
(-0.008340823 -0.0015272077 792.09219)
(-0.0044840923 -0.000593233 792.09038)
(0.0014003675 0.0014003675 792.09065)
(0.0015477063 0.0003530059 792.09166)
(0.0019276794 -0.0013167804 792.09545)
(2.2663989e-05 8.8755066e-05 792.096)
(-0.00084816187 0.0011264745 792.09543)
(0.0010995079 0.00030895222 792.09541)
(-0.0020127381 -0.00018134 792.09501)
(-0.0059520275 -0.00033451562 792.09391)
(-0.0076339319 -0.0002270812 792.09217)
(-0.0027093047 0.0003723755 792.09068)
(0.0003530059 0.0015477063 792.09166)
(-0.00067498612 -0.00067498612 792.09127)
(0.0027204912 0.0027204912 790.44452)
(-0.0021859868 -0.0028203886 790.4451)
(0.00033915374 0.00081061495 790.44415)
(0.0086964184 0.0011616706 790.44514)
(0.0036887227 0.00085520743 790.4456)
(-0.0017445919 0.00041839277 790.44521)
(-0.0044887999 -0.00023809026 790.44419)
(-0.003277779 -0.00075594972 790.44305)
(-0.0023091722 0.00057575409 790.44271)
(-0.0015376652 0.0021878468 790.44226)
(-0.0028203886 -0.0021859868 790.4451)
(-0.004095863 -0.004095863 790.44465)
(0.004321213 0.00019425111 790.44436)
(0.0087410109 0.00040597614 790.4454)
(0.0029454448 -0.0002015668 790.44579)
(-0.0028378896 -0.0010769382 790.44528)
(-0.0056631424 -0.0024628427 790.44405)
(-0.0024639347 -0.003954589 790.44274)
(0.00063462436 -0.0028239518 790.4428)
(7.4427596e-05 -9.3259359e-06 790.44276)
(0.00081061494 0.00033915374 790.44415)
(0.0001942511 0.004321213 790.44436)
(0.0048409929 0.0048409929 790.44418)
(0.0083006005 0.0044461528 790.44518)
(0.0022058083 0.0038414309 790.44549)
(-0.0040058678 0.0030113242 790.44486)
(-0.0073664506 0.0016852639 790.44343)
(-0.0036388881 -0.00020294498 790.44184)
(0.0016360908 -0.0014625462 790.44188)
(0.0012769607 -0.0011766443 790.44216)
(0.0011616707 0.0086964184 790.44514)
(0.00040597613 0.0087410109 790.4454)
(0.0044461528 0.0083006005 790.44518)
(0.0077414488 0.0077414488 790.44611)
(0.0015106162 0.0071278776 790.44633)
(-0.0049940565 0.006400106 790.4456)
(-0.0088774115 0.0053987319 790.44401)
(-0.0056117448 0.0039648614 790.44218)
(-0.00033907495 0.0023156649 790.44197)
(0.00036032945 0.00084039609 790.44206)
(0.00085520743 0.0036887227 790.4456)
(-0.00020156681 0.0029454448 790.44579)
(0.0038414309 0.0022058083 790.44549)
(0.0071278776 0.0015106162 790.44633)
(0.00086446542 0.00086446541 790.44648)
(-0.0057350135 0.00022633868 790.44565)
(-0.0098016952 -0.00046010303 790.44395)
(-0.0067219551 -0.0012451009 790.44198)
(-0.0014883745 -0.0020661684 790.44162)
(-0.00019830813 -0.0028024949 790.44158)
(0.00041839277 -0.0017445919 790.44521)
(-0.0010769382 -0.0028378896 790.44528)
(0.0030113242 -0.0040058678 790.44486)
(0.0064001059 -0.0049940565 790.4456)
(0.00022633869 -0.0057350135 790.44565)
(-0.0063186249 -0.0063186249 790.44475)
(-0.010348851 -0.0067943632 790.44298)
(-0.0072178102 -0.0071547915 790.44093)
(-0.0018964689 -0.0073567961 790.44051)
(-0.00037599704 -0.007400001 790.44042)
(-0.00023809026 -0.0044887999 790.44419)
(-0.0024628427 -0.0056631424 790.44405)
(0.0016852639 -0.0073664506 790.44343)
(0.0053987319 -0.0088774115 790.44401)
(-0.00046010302 -0.0098016951 790.44395)
(-0.0067943632 -0.010348851 790.44298)
(-0.010637862 -0.010637862 790.44115)
(-0.007284388 -0.010616064 790.43909)
(-0.001733584 -0.010163972 790.43869)
(-0.00024151306 -0.0092664528 790.43866)
(-0.00075594971 -0.003277779 790.44305)
(-0.003954589 -0.0024639347 790.44274)
(-0.00020294498 -0.0036388881 790.44184)
(0.0039648614 -0.0056117448 790.44218)
(-0.0012451009 -0.0067219551 790.44198)
(-0.0071547915 -0.0072178101 790.44093)
(-0.010616064 -0.007284388 790.43909)
(-0.00674392 -0.00674392 790.43709)
(-0.0005468576 -0.0052710981 790.43687)
(0.00052152174 -0.0029810485 790.43715)
(0.00057575408 -0.0023091722 790.44271)
(-0.0028239518 0.00063462435 790.4428)
(-0.0014625462 0.0016360908 790.44188)
(0.0023156649 -0.00033907495 790.44197)
(-0.0020661684 -0.0014883745 790.44162)
(-0.0073567961 -0.0018964689 790.44051)
(-0.010163972 -0.001733584 790.43869)
(-0.0052710981 -0.0005468576 790.43687)
(0.0020292875 0.0020292875 790.4371)
(0.0020485366 0.00064679158 790.43809)
(0.0021878468 -0.0015376652 790.44226)
(-9.325922e-06 7.4427596e-05 790.44276)
(-0.0011766443 0.0012769607 790.44216)
(0.00084039609 0.00036032945 790.44206)
(-0.0028024949 -0.00019830813 790.44158)
(-0.007400001 -0.00037599704 790.44042)
(-0.0092664528 -0.00024151306 790.43866)
(-0.0029810485 0.00052152174 790.43715)
(0.00064679158 0.0020485366 790.43809)
(-0.00086097419 -0.00086097418 790.43772)
(0.0029938245 0.0029938245 788.54236)
(-0.002383454 -0.0030407527 788.54288)
(0.00032963716 0.00090702482 788.54195)
(0.0093578959 0.0012817187 788.54281)
(0.0036746649 0.00093983663 788.54316)
(-0.0024832945 0.00044531505 788.54271)
(-0.0055888649 -0.00031067779 788.54164)
(-0.0040371732 -0.00091946312 788.54049)
(-0.0027163075 0.00061257812 788.54011)
(-0.0017610202 0.002421483 788.53966)
(-0.0030407527 -0.002383454 788.54288)
(-0.0044702537 -0.0044702537 788.54245)
(0.0046521086 0.00018965334 788.54213)
(0.0093907077 0.00040491376 788.54304)
(0.0028382612 -0.00027603588 788.54332)
(-0.0037338089 -0.0012667434 788.54275)
(-0.0069536431 -0.00285187 788.54149)
(-0.0031139173 -0.0045682575 788.54016)
(0.00062463868 -0.0032468711 788.54017)
(4.7884766e-05 -7.7548391e-05 788.5401)
(0.00090702482 0.00032963716 788.54195)
(0.00018965334 0.0046521086 788.54213)
(0.0052048046 0.0052048046 788.54191)
(0.0088922067 0.0047566617 788.54278)
(0.0020030077 0.0040740907 788.54299)
(-0.0050591286 0.0031347864 788.54231)
(-0.0088903791 0.0016298943 788.54086)
(-0.0044321743 -0.00051093674 788.53926)
(0.0017744017 -0.0019023948 788.53925)
(0.0014083026 -0.0015513851 788.5395)
(0.0012817188 0.0093578959 788.54281)
(0.00040491375 0.0093907077 788.54304)
(0.0047566617 0.0088922067 788.54278)