/*--------------------------------*- C++ -*----------------------------------*\
| =========                 |                                                 |
| \\      /  F ield         | OpenFOAM: The Open Source CFD Toolbox           |
|  \\    /   O peration     | Version:  v2106                                 |
|   \\  /    A nd           | Website:  www.openfoam.com                      |
|    \\/     M anipulation  |                                                 |
\*---------------------------------------------------------------------------*/
FoamFile
{
    version     2.0;
    format      ascii;
    arch        "LSB;label=32;scalar=64";
    class       volScalarField;
    location    "20";
    object      gradTy;
}
// * * * * * * * * * * * * * * * * * * * * * * * * * * * * * * * * * * * * * //

dimensions      [0 -1 0 1 0 0 0];

internalField   nonuniform List<scalar> 
4000
(
0.00046018081
-0.00095355312
-9.8002727e-05
-1.4642697e-06
-4.406427e-05
-8.3534395e-05
-0.00012260019
-0.00014755187
-0.00010111096
1.1084227e-05
-0.00087781738
-0.0014360009
-0.00045544108
-0.00038401116
-0.0004608924
-0.00053793422
-0.00063231405
-0.00072737531
-0.0007062515
-0.00046716993
-0.00068031345
0.00027177539
0.0003716763
0.00031512898
0.00025268118
0.00018229937
7.7938395e-05
-7.0221044e-05
-0.00020580453
-0.0001975228
0.0011504132
0.0012043516
0.0011449619
0.0010853565
0.0010313776
0.00097111363
0.00088907104
0.00076807513
0.00060394681
0.00043086555
0.00063956654
0.00055749641
0.00048564348
0.0004246668
0.00037140057
0.00031937054
0.0002633735
0.00019909077
0.00012649937
5.8979252e-05
0.00010181993
2.3284014e-05
-6.9601706e-05
-0.00015145877
-0.00021190825
-0.00025948585
-0.00029959271
-0.0003317289
-0.00035418283
-0.00036501692
-0.00016201784
-0.0002260353
-0.00035145891
-0.00047855573
-0.00055449742
-0.00059883551
-0.00062674047
-0.00063862951
-0.00063311358
-0.00061526343
-0.00021713411
-0.00019564489
-0.00029107156
-0.00047938781
-0.00057619579
-0.00061626193
-0.00063078594
-0.00062263504
-0.0005896829
-0.00054166568
-0.00015381875
4.8173306e-06
0.0001063866
-0.00012248441
-0.00023082297
-0.00026259593
-0.00026411098
-0.00023922985
-0.00018314161
-0.0001118239
-5.3684335e-05
5.8510845e-05
0.00018539723
6.6792582e-05
1.2315978e-05
-7.2754996e-07
1.4819153e-06
1.7122598e-05
4.949913e-05
8.8440297e-05
0.00090050878
-0.0016290806
7.9583964e-05
0.00027437836
0.00017491435
6.635047e-05
-5.3880424e-05
-0.00011947931
9.5520106e-05
0.00042366936
-0.0017682357
-0.0025891605
-0.00057203534
-0.00041592432
-0.00060213857
-0.00082138004
-0.001109779
-0.0013871002
-0.0012273964
-0.0005443082
-0.00096247721
0.00094098173
0.001210759
0.0010982813
0.00093211248
0.00072317308
0.00040727401
-3.6146256e-05
-0.00039974683
-0.00035436091
0.0030079756
0.0031033059
0.0029778723
0.0028246594
0.0026683732
0.002487391
0.0022399475
0.0018784089
0.0014105373
0.00093983848
0.001694903
0.0014868751
0.0012894473
0.0011117669
0.00095217887
0.00079542095
0.00062624832
0.00043093254
0.00021282434
7.957586e-06
0.00023400992
5.2151443e-06
-0.00027363051
-0.00051962332
-0.0007020562
-0.00084555386
-0.00096580837
-0.0010625566
-0.0011302692
-0.0011640355
-0.00052383453
-0.00070966432
-0.0010895547
-0.0014689837
-0.0016985368
-0.0018334721
-0.0019155396
-0.0019457551
-0.0019180749
-0.0018437216
-0.00066174928
-0.00051234876
-0.00077936673
-0.0013193696
-0.001608777
-0.0017327936
-0.0017732378
-0.001735329
-0.0016090942
-0.001419704
-0.00058069139
-3.7542726e-05
0.00026210063
-0.00035575738
-0.00067646978
-0.00077873234
-0.00077794865
-0.0006766989
-0.00046232373
-0.00025674366
-0.00028359185
4.455742e-05
0.00039949638
8.9943317e-05
-7.1202398e-05
-0.00011492342
-0.00010496869
-4.0570131e-05
8.4421525e-05
0.00016500995
0.0012146203
-0.0020072044
0.000158068
0.00039563811
0.00025046581
7.3145576e-05
-0.00014705065
-0.00027352903
0.00020678918
0.00090507194
-0.0019254456
-0.0029819979
-0.00041070064
-0.00022730592
-0.0005048112
-0.00086340924
-0.0013704768
-0.0018721991
-0.0015043512
-0.00028349295
-0.00051281095
0.0018900316
0.0022418811
0.0020773457
0.0018182138
0.0014759211
0.00094542882
0.0001900289
-0.00040878564
-0.00035372297
0.0045659144
0.0046583122
0.0044718039
0.004234645
0.0039815943
0.0036837952
0.0032754356
0.0026816196
0.0019381557
0.0012144104
0.0024765853
0.0021540928
0.001840482
0.0015526681
0.0012896322
0.0010298148
0.00074966694
0.0004270241
7.3002104e-05
-0.00025677441
0.00018643038
-0.00021108607
-0.00067923518
-0.001083871
-0.0013853939
-0.0016238363
-0.0018224992
-0.0019802823
-0.0020858638
-0.0021329396
-0.00099483624
-0.0013415108
-0.0020036261
-0.002627403
-0.0030058017
-0.0032301937
-0.0033622477
-0.0033983054
-0.0033209459
-0.0031431085
-0.0010467443
-0.00069290444
-0.0011806187
-0.0020471189
-0.0025178986
-0.0027237837
-0.0027812632
-0.0026824819
-0.0023954731
-0.0019719513
-0.001072806
0.00010579497
0.00051590015
-0.00043795691
-0.00095130901
-0.0011217554
-0.0011039663
-0.0008665585
-0.00039343576
-0.00033628784
-0.00066940251
2.8880245e-05
0.00055145578
8.3942915e-05
-0.00017228947
-0.0002458336
-0.00021936534
-6.7996199e-05
0.00020415644
-1.0848291e-05
0.001663945
-0.0021914197
0.00036649224
0.00063515307
0.00044649397
0.00019996732
-0.00013321797
-0.00035815324
0.00033897314
0.0013020741
-0.0018690014
-0.0031664541
-0.00013134566
6.2582519e-05
-0.00030257053
-0.00079846674
-0.001535154
-0.0022951069
-0.0017490182
-9.1075265e-05
-0.00010719478
0.002719378
0.0031218418
0.0028997416
0.002550328
0.0020792244
0.0013391116
0.00028185057
-0.0005147422
-0.00041698531
0.0058777021
0.0059577038
0.0057064773
0.00538619
0.005038794
0.0046275572
0.0040627622
0.0032456724
0.0022521663
0.0013144517
0.0030325054
0.0025973197
0.0021714562
0.0017768025
0.0014128233
0.0010525903
0.00066442617
0.00021861786
-0.00026234066
-0.00070428175
-6.1548447e-05
-0.00064126039
-0.0012941319
-0.0018524767
-0.0022701637
-0.0026008739
-0.0028745691
-0.0030883893
-0.0032233141
-0.0032732962
-0.0016291429
-0.0021872634
-0.003125783
-0.0039846373
-0.0045076678
-0.0048186097
-0.0049951832
-0.0050235902
-0.0048660032
-0.0045332997
-0.0014003751
-0.00092818397
-0.0016142393
-0.0027820378
-0.0034248352
-0.0037088046
-0.0037735803
-0.0035796247
-0.0030440281
-0.0022478912
-0.0013092091
0.00035101822
0.00089482253
-0.00034781768
-0.0010363982
-0.0012707173
-0.001221305
-0.0007804268
0.00011042849
-0.00020118573
-0.00089587356
6.7227359e-05
0.00076206935
0.00016498425
-0.00017564524
-0.00027695683
-0.00022562726
5.574672e-05
0.00057050963
-0.0002558675
0.0020690232
-0.0023822255
0.00055094874
0.000848608
0.00061869137
0.00030573714
-0.00013919286
-0.00046504326
0.00044572867
0.0016359838
-0.0018974538
-0.0034155283
5.9089053e-05
0.0002601232
-0.00018930041
-0.00081716881
-0.0017783199
-0.0027917245
-0.0020550229
2.9090688e-06
0.00015026681
0.0033811003
0.0038259183
0.0035448836
0.0031073667
0.0025119032
0.0015690393
0.00022298127
-0.00074287211
-0.00058688918
0.0069804304
0.0070481731
0.006732041
0.0063296215
0.0058902163
0.0053691307
0.0046528855
0.0036212857
0.0023961651
0.0012665823
0.0033956751
0.0028528042
0.0023183831
0.0018198238
0.0013578922
0.00090070871
0.00040835356
-0.00015593971
-0.00075652566
-0.0013021075
-0.00049698111
-0.0012548653
-0.0020860006
-0.0027931928
-0.0033233314
-0.0037427314
-0.0040878559
-0.0043539811
-0.0045136988
-0.0045620149
-0.0024625533
-0.0032333337
-0.004437109
-0.0055222556
-0.0061849539
-0.006578904
-0.0067962036
-0.0068103828
-0.0065577395
-0.0060422394
-0.0019166911
-0.0013317696
-0.0021933941
-0.0036436811
-0.0044501145
-0.0048085603
-0.0048759574
-0.0045700962
-0.0037353
-0.0024690482
-0.0015855325
0.00051549453
0.0012091011
-0.00029437592
-0.0011456024
-0.0014405437
-0.0013536362
-0.0006724003
0.00074741175
5.5974947e-05
-0.001102425
8.783008e-05
0.00095550695
0.00024381301
-0.0001740759
-0.00030176884
-0.00022239207
0.00021373131
0.0010438596
-0.00047770551
0.0024153737
-0.002597223
0.00069472285
0.0010200051
0.0007508948
0.00037462748
-0.00017807777
-0.00060157763
0.00052214388
0.0019276794
-0.0020158482
-0.0037364991
0.000157536
0.00036449769
-0.00016574481
-0.00092004139
-0.0020976959
-0.0033549372
-0.0024205909
2.2663989e-05
0.00028744079
0.0039046689
0.0043884376
0.0040494826
0.003526639
0.0028113497
0.0016729441
4.9943959e-05
-0.001068359
-0.00084816189
0.0079105644
0.0079667364
0.0075872836
0.0071049378
0.0065765708
0.0059497726
0.0050877495
0.0038503929
0.0024073223
0.0010995079
0.0036038189
0.0029584413
0.0023192798
0.0017203085
0.0011641147
0.00061412923
2.2159531e-05
-0.00065537639
-0.0013692702
-0.002012738
-0.0010720991
-0.0020010717
-0.0030040502
-0.0038547665
-0.0044928715
-0.0049967217
-0.0054093099
-0.0057243567
-0.0059062863
-0.0059520275
-0.0034342349
-0.00441044
-0.0058691307
-0.0071718458
-0.0079685104
-0.0084413514
-0.0086961454
-0.0086931625
-0.008340823
-0.0076339319
-0.0025596912
-0.0018594696
-0.0028825862
-0.0046007727
-0.0055630134
-0.0059922024
-0.0060599899
-0.00563688
-0.0044840923
-0.0027093048
-0.0019262531
0.00060300388
0.0014513481
-0.00029510194
-0.001299537
-0.0016524636
-0.0015272077
-0.000593233
0.0014003675
0.0003530059
-0.0013167804
8.8755066e-05
0.0011264745
0.00030895222
-0.00018134
-0.00033451562
-0.0002270812
0.0003723755
0.0015477063
-0.00067498612
0.0027204912
-0.0028203886
0.00081061495
0.0011616706
0.00085520743
0.00041839277
-0.00023809026
-0.00075594972
0.00057575409
0.0021878468
-0.0021859868
-0.004095863
0.00019425111
0.00040597614
-0.0002015668
-0.0010769382
-0.0024628427
-0.003954589
-0.0028239518
-9.3259359e-06
0.00033915374
0.004321213
0.0048409929
0.0044461528
0.0038414309
0.0030113242
0.0016852639
-0.00020294498
-0.0014625462
-0.0011766443
0.0086964184
0.0087410109
0.0083006005
0.0077414488
0.0071278776
0.006400106
0.0053987319
0.0039648614
0.0023156649
0.00084039609
0.0036887227
0.0029454448
0.0022058083
0.0015106162
0.00086446541
0.00022633868
-0.00046010303
-0.0012451009
-0.0020661684
-0.0028024949
-0.0017445919
-0.0028378896
-0.0040058678
-0.0049940565
-0.0057350135
-0.0063186249
-0.0067943632
-0.0071547915
-0.0073567961
-0.007400001
-0.0044887999
-0.0056631424
-0.0073664506
-0.0088774115
-0.0098016951
-0.010348851
-0.010637862
-0.010616064
-0.010163972
-0.0092664528
-0.003277779
-0.0024639347
-0.0036388881
-0.0056117448
-0.0067219551
-0.0072178101
-0.007284388
-0.00674392
-0.0052710981
-0.0029810485
-0.0023091722
0.00063462435
0.0016360908
-0.00033907495
-0.0014883745
-0.0018964689
-0.001733584
-0.0005468576
0.0020292875
0.00064679158
-0.0015376652
7.4427596e-05
0.0012769607
0.00036032945
-0.00019830813
-0.00037599704
-0.00024151306
0.00052152174
0.0020485366
-0.00086097418
0.0029938245
-0.0030407527
0.00090702482
0.0012817187
0.00093983663
0.00044531505
-0.00031067779
-0.00091946312
0.00061257812
0.002421483
-0.002383454
-0.0044702537
0.00018965334
0.00040491376
-0.00027603588
-0.0012667434
-0.00285187
-0.0045682575
-0.0032468711
-7.7548391e-05
0.00032963716
0.0046521086
0.0052048046
0.0047566617
0.0040740907
0.0031347864
0.0016298943
-0.00051093674
-0.0019023948
-0.0015513851
0.0093578959
0.0093907077
0.0088922067
0.0082599938
0.0075655229
0.0067420267
0.0056084038
0.0039879935
0.0021443411
0.00051193377
0.0036746649
0.0028382612
0.0020030077
0.0012163859
0.00048504056
-0.0002362335
-0.0010116652
-0.0018979638
-0.0028198972
-0.0036438645
-0.0024832945
-0.0037338089
-0.0050591286
-0.0061780054
-0.0070162477
-0.0076747111
-0.008209167
-0.0086113374
-0.0088312372
-0.0088717377
-0.005588865
-0.0069536431
-0.0088903791
-0.010599366
-0.011644412
-0.012261096
-0.012581039
-0.01253923
-0.011989094
-0.010905514
-0.0040371732
-0.0031139173
-0.0044321743
-0.0066462063
-0.007896237
-0.0084544382
-0.0085183071
-0.0078624935
-0.0060753903
-0.0032780365
-0.0027163075
0.00062463866
0.0017744017
-0.00041580971
-0.001701658
-0.0021617105
-0.0019620584
-0.00052799417
0.0026223986
0.00092044559
-0.0017610202
4.7884759e-05
0.0014083025
0.0003988944
-0.00022410478
-0.00042507294
-0.00026460537
0.00065850729
0.0025327484
-0.0010434457
0.003238828
-0.0032521593
0.00098805229
0.0013840953
0.0010089416
0.00045984465
-0.00039087847
-0.0010867163
0.000636382
0.0026310304
-0.0025943544
-0.0048451301
0.00015588508
0.00037344641
-0.00037656051
-0.0014762499
-0.0032505058
-0.0051805838
-0.0036760892
-0.00017132631
0.00027536817
0.0049116228
0.0054939447
0.0049954543
0.0042395383
0.003197243
0.0015232978
-0.00085636175
-0.0023703511
-0.0019558903
0.0099091702
0.0099300596
0.0093767246
0.0086756532
0.0079050154
0.0069914732
0.0057332986
0.0039371241
0.0019112233
0.00013236146
0.0035806981
0.0026564474
0.0017310018
0.00085823612
4.6821796e-05
-0.00075235566
-0.0016110689
-0.0025922349
-0.0036084812
-0.0045145132
-0.0032640734
-0.0046638935
-0.0061380186
-0.0073801339
-0.0083097354
-0.0090380246
-0.0096267928
-0.010067138
-0.010302786
-0.010340181
-0.0067075587
-0.0082541197
-0.010411893
-0.012307724
-0.013466242
-0.014147604
-0.014495355
-0.014432752
-0.013787243
-0.012523961
-0.0048152194
-0.003787959
-0.0052408029
-0.0076816079
-0.0090628781
-0.0096790201
-0.0097388713
-0.0089709089
-0.0068792583
-0.0035898267
-0.0031346127
0.00058313398
0.0018746447
-0.00051639462
-0.0019301179
-0.0024386729
-0.0022031618
-0.00052988127
0.0031779204
0.0011700097
-0.0019828002
1.1848224e-05
0.0015219628
0.00042630895
-0.00025689914
-0.00047972305
-0.00029429468
0.00078355945
0.002995137
-0.0012243513
0.0034568183
-0.003450503
0.0010559879
0.0014709646
0.0010648964
0.00046467497
-0.00047544854
-0.001253966
0.0006496269
0.0028177481
-0.0028095013
-0.0052103317
0.00010098546
0.00031960176
-0.00049469582
-0.0016963915
-0.0036486004
-0.0057802217
-0.0041016718
-0.0002829648
0.0001882085
0.0051096761
0.005718142
0.0051725542
0.0043482023
0.0032096635
0.0013773576
-0.0012260619
-0.0028528592
-0.0023772616
0.010360494
0.010369403
0.0097648131
0.0089994634
0.0081577634
0.0071602521
0.005785789
0.0038254529
0.0016302918
-0.00028371672
0.0034219999
0.0024157102
0.0014060066
0.00045281948
-0.00043320472
-0.001304794
-0.0022408547
-0.0033101852
-0.0044139087
-0.0053960776
-0.0040673689
-0.0056077138
-0.0072212734
-0.0085785585
-0.0095932478
-0.010386208
-0.011024907
-0.011499967
-0.011749336
-0.01178318
-0.0078238161
-0.0095424571
-0.011907646
-0.013978183
-0.015242445
-0.015983574
-0.016356204
-0.016272464
-0.015535052
-0.014099676
-0.0055950457
-0.0044699703
-0.0060481172
-0.0087001871
-0.010203614
-0.010873241
-0.010928043
-0.01005209
-0.007668217
-0.0039063449
-0.0035539409
0.00051777328
0.001943316
-0.00063342637
-0.0021658536
-0.0027193188
-0.0024490669
-0.00054653063
0.0036966779
0.0013963278
-0.0021993089
-3.1187643e-05
0.0016193981
0.00044441
-0.00029461042
-0.00053775896
-0.00032845513
0.00089761754
0.003433417
-0.0014027325
0.0036483592
-0.0036326492
0.0011123222
0.0015436985
0.0011092586
0.00046166471
-0.00056200049
-0.0014183379
0.00065403878
0.0029822703
-0.0030220793
-0.0055581163
3.0773634e-05
0.00024917852
-0.00062427204
-0.0019204164
-0.0040383685
-0.006358218
-0.0045158462
-0.00040669772
7.7033033e-05
0.0052533807
0.0058843278
0.0052951499
0.0044076367
0.0031801105
0.0012010066
-0.0016098522
-0.0033391998
-0.0028052736
0.010719274
0.01071621
0.010064228
0.009239519
0.0083322093
0.0072571959
0.0057752684
0.0036632075
0.0013126257
-0.00072453221
0.0032106302
0.0021285965
0.0010410353
1.3557037e-05
-0.00094128776
-0.0018795262
-0.0028867364
-0.004037215
-0.0052212518
-0.0062732835
-0.0048771103
-0.0065483694
-0.0082912067
-0.0097549995
-0.010848148
-0.011700448
-0.012384652
-0.012891021
-0.013152193
-0.013182099
-0.0089204151
-0.010800418
-0.013358217
-0.01559038
-0.016952205
-0.017748069
-0.018142778
-0.018037944
-0.017212836
-0.015614088
-0.0063632952
-0.005147256
-0.0068407729
-0.0096874624
-0.011303416
-0.012021978
-0.012070957
-0.011092036
-0.0084303486
-0.0042190226
-0.0039661832
0.00043442501
0.001985337
-0.00076099638
-0.0024024027
-0.0029970648
-0.0026934807
-0.00057320877
0.004179533
0.0016013439
-0.0024073648
-7.9133228e-05
0.0017017837
0.000454793
-0.00033537426
-0.00059723868
-0.00036527961
0.0010015099
0.0038460464
-0.0015766791
0.0038136486
-0.0037960997
0.0011580813
0.0016032162
0.001143114
0.00045217886
-0.00064867128
-0.0015775067
0.00065088481
0.0031248669
-0.0032268085
-0.0058823757
-5.0363831e-05
0.00016654582
-0.00076058326
-0.002143076
-0.0044135887
-0.0069072425
-0.0049123454
-0.0005380815
-5.1379068e-05
0.0053479368
0.0059975425
0.0053685158
0.0044234555
0.0031146793
0.0010011661
-0.001999617
-0.0038207098
-0.0032316795
0.010990855
0.010975887
0.010280635
0.0094018004
0.0084346647
0.0072889993
0.0057089829
0.0034584521
0.00096713564
-0.0011804926
0.0029561875
0.0018051501
0.0006465657
-0.0004486864
-0.0014662354
-0.0024650734
-0.0035369408
-0.0047612025
-0.0060180287
-0.0071333017
-0.0056800005
-0.0074717858
-0.009333006
-0.010894075
-0.012058688
-0.012964781
-0.01368996
-0.014224216
-0.014495346
-0.014521003
-0.0099829907
-0.012012676
-0.014747157
-0.017126973
-0.018577704
-0.019423102
-0.01983714
-0.019711565
-0.018803635
-0.017051285
-0.0071090589
-0.0058095028
-0.0076078156
-0.010631379
-0.012349663
-0.013112467
-0.013155049
-0.012078962
-0.0091557122
-0.004520831
-0.0043647848
0.00033758876
0.0020043763
-0.00089447372
-0.0026345684
-0.0032665729
-0.0029313557
-0.00060629329
0.0046267754
0.0017868112
-0.0026043053
-0.0001303232
0.0017699587
0.00045870715
-0.00037766958
-0.00065656579
-0.00040332714
0.0010957843
0.0042315541
-0.0017441799
0.0039526739
-0.0039388463
0.0011939823
0.0016501448
0.00116724
0.00043725171
-0.00073396294
-0.0017295393
0.00064112588
0.003245595
-0.0034195298
-0.0061782214
-0.00013904532
7.5077625e-05
-0.00089994837
-0.0023601873
-0.0047691727
-0.0074211706
-0.0052860154
-0.00067361295
-0.00019176333
0.0053972277
0.0060615357
0.0053966184
0.0043999399
0.0030181026
0.00078334109
-0.0023887368
-0.0042902535
-0.0036497131
0.011179155
0.011152413
0.010418252
0.0094908172
0.0084699527
0.0072608528
0.0055926517
0.0032176829
0.00060111873
-0.0016436628
0.0026664042
0.0014535111
0.00023113928
-0.00092500477
-0.0019988251
-0.0030519246
-0.0041816538
-0.0054719749
-0.0067937011
-0.0079652554
-0.0064649244
-0.0083661274
-0.010334149
-0.011982726
-0.01321145
-0.014165555
-0.014927037
-0.015485702
-0.015764971
-0.015786144
-0.01099939
-0.013166181
-0.016060373
-0.018573021
-0.020103543
-0.020993071
-0.02142369
-0.02127797
-0.020292687
-0.018397487
-0.0078232404
-0.0064481516
-0.0083400832
-0.011521746
-0.013331616
-0.014133793
-0.01416955
-0.01300279
-0.0098359176
-0.0048060433
-0.0047443714
0.00023076294
0.0020031862
-0.0010302133
-0.0028581595
-0.0035234939
-0.0031586023
-0.00064301169
0.0050381447
0.001954001
-0.0027879075
-0.00018343834
0.001824495
0.00045710211
-0.00042028652
-0.00071445221
-0.00044145955
0.0011807474
0.0045884147
-0.0019033962
0.0040653162
-0.0040592782
0.0012205351
0.001684922
0.0011822087
0.00041768859
-0.00081664477
-0.0018728018
0.00062551331
0.0033443993
-0.0035969304
-0.0064417116
-0.00023261136
-2.2562688e-05
-0.001039427
-0.0025683528
-0.0051008937
-0.0078948229
-0.00563256
-0.00081047225
-0.00033995972
0.0054042404
0.0060791892
0.005382538
0.0043404589
0.0028941638
0.00055202361
-0.0027717014
-0.0047418557
-0.0040537337
0.011287154
0.011248827
0.010480338
0.009510097
0.0084418918
0.0071769178
0.0054309281
0.0029462702
0.00022067602
-0.0021073681
0.0023476376
0.0010804042
-0.0001981525
-0.0014079701
-0.0025313317
-0.0036320783
-0.0048125801
-0.0061608904
-0.0075392773
-0.0087598368
-0.0072224748
-0.0092213282
-0.011283941
-0.013009764
-0.014294905
-0.015291012
-0.016083974
-0.016663484
-0.016949082
-0.016965592
-0.011959213
-0.014249703
-0.017285683
-0.019915569
-0.021516331
-0.022444381
-0.022888802
-0.022723726
-0.02166709
-0.019640699
-0.008498136
-0.007055978
-0.0090298024
-0.012349857
-0.014240054
-0.015076555
-0.015105163
-0.013854842
-0.010463832
-0.0050699858
-0.0051004718
0.00011672929
0.0019838788
-0.001165303
-0.0030697595
-0.0037642494
-0.0033718681
-0.00068122176
0.0054129883
0.0021037379
-0.0029563031
-0.00023741711
0.0018657846
0.00045070492
-0.00046225949
-0.00076985456
-0.00047876938
0.0012565371
0.0049150765
-0.0020527133
0.0041514256
-0.0041561162
0.0012381145
0.0017078691
0.0011884588
0.0003941357
-0.00089568741
-0.0020058966
0.00060465462
0.0034211815
-0.0037563507
-0.0066696618
-0.00032892681
-0.00012422457
-0.0011766243
-0.0027647702
-0.0054052049
-0.0083237937
-0.005948368
-0.00094634432
-0.00049261782
0.0053713675
0.0060528193
0.0053287699
0.0042477658
0.0027459884
0.00031097415
-0.0031438412
-0.0051704438
-0.0044389721
0.011317256
0.011267601
0.010469559
0.0094625471
0.008353652
0.0070406756
0.0052277378
0.0026487829
-0.00016897828
-0.0025658967
0.0020052474
0.00069151401
-0.00063529815
-0.0018912675
-0.0030571696
-0.0041986949
-0.0054226083
-0.0068205193
-0.0082470097
-0.0095090145
-0.0079445915
-0.010028738
-0.012173172
-0.013965529
-0.015299086
-0.016330968
-0.017150436
-0.017747144
-0.018037256
-0.018048972
-0.012853481
-0.015253513
-0.018412504
-0.021143343
-0.022804397
-0.023765167
-0.024220573
-0.024037093
-0.022915575
-0.020770474
-0.0091271483
-0.0076268063
-0.0096703114
-0.013108224
-0.015067027
-0.015932626
-0.015953847
-0.014627628
-0.011033372
-0.0053088327
-0.0054293219
-2.2438024e-06
0.0019481275
-0.0012973748
-0.0032665521
-0.0039858699
-0.0035683795
-0.00071925132
0.0057504155
0.0022365066
-0.0031079133
-0.00029138639
0.0018941104
0.00044008532
-0.00050280811
-0.00082191946
-0.00051452392
0.0013231816
0.0052100155
-0.0021907274
0.0042108766
-0.0042283663
0.0012470125
0.0017192429
0.0011863467
0.00036712891
-0.00097021725
-0.0021276208
0.00057905991
0.0034758505
-0.0038956454
-0.0068595094
-0.00042624012
-0.00022813043
-0.0013095533
-0.0029470989
-0.005679113
-0.0087043329
-0.0062303928
-0.0010792923
-0.00064698329
0.0053006258
0.0059843957
0.0052374402
0.0041242114
0.0025762514
6.3421414e-05
-0.0035011372
-0.0055716646
-0.0048013485
0.011271571
0.011210905
0.010388257
0.0093507204
0.008208017
0.0068551827
0.0049865261
0.0023292251
-0.00056328982
-0.0030142804
0.001643877
0.000291763
-0.0010750915
-0.0023694258
-0.0035706292
-0.0047458402
-0.0060055643
-0.0074444072
-0.0089101672
-0.010205813
-0.0086242964
-0.01078086
-0.012993856
-0.01484165
-0.016215347
-0.017276585
-0.018117453
-0.018727633
-0.019020434
-0.019027266
-0.013674402
-0.016169152
-0.019431636
-0.02224654
-0.023957594
-0.024945107
-0.025408641
-0.025207847
-0.02402834
-0.021777753
-0.0097045884
-0.0081553112
-0.010255868
-0.013790397
-0.015805684
-0.016695
-0.016708665
-0.015314699
-0.011539359
-0.0055194491
-0.0057277302
-0.00012425894
0.0018973104
-0.0014244702
-0.0034461951
-0.0041858764
-0.0037458281
-0.00075578233
0.0060494215
0.0023525566
-0.0032414026
-0.00034461199
0.0019096979
0.00042570408
-0.00054129269
-0.00086994215
-0.0005481246
0.0013806443
0.0054717854
-0.0023162207
0.0042436077
-0.0042752866
0.0012474744
0.0017192724
0.0011761818
0.00033712835
-0.0010394846
-0.0022369365
0.00054917482
0.0035083587
-0.0040130845
-0.0070092177
-0.00052308224
-0.0003327753
-0.0014365375
-0.0031133662
-0.0059200897
-0.0090332632
-0.0064760677
-0.0012076667
-0.00080074213
0.0051938168
0.0058757003
0.0051104634
0.0039718978
0.002387327
-0.00018779401
-0.0038400855
-0.0059417526
-0.0051373405
0.011152106
0.011080814
0.010238651
0.0091770111
0.0080075749
0.0066232571
0.004710438
0.0019912091
-0.00095819797
-0.0034481326
0.0012676607
-0.0001144833
-0.0015129302
-0.0028376197
-0.0040666842
-0.0052682984
-0.0065560301
-0.0080269003
-0.0095228671
-0.010844151
-0.0092555001
-0.011471166
-0.013739052
-0.015630858
-0.017036189
-0.018120204
-0.018977251
-0.01959711
-0.019890774
-0.019892669
-0.014415206
-0.016989271
-0.020335103
-0.023216683
-0.024967151
-0.025975285
-0.026444056
-0.026227163
-0.024996926
-0.022654734
-0.010225537
-0.0086368777
-0.010781515
-0.014390836
-0.016450151
-0.017357673
-0.017363674
-0.015910543
-0.011977404
-0.0056992699
-0.0059929838
-0.00024768858
0.0018326127
-0.0015449436
-0.0036067291
-0.0043621943
-0.0039022884
-0.00078976496
0.0063089846
0.0024519886
-0.003355648
-0.00039646413
0.001912753
0.00040794797
-0.0005771817
-0.00091333601
-0.00057907706
0.001428856
0.0056990573
-0.00242814
0.0042496513
-0.0042963628
0.0012397272
0.0017081864
0.001158254
0.00030454365
-0.0011028404
-0.0023329502
0.00051540454
0.003518729
-0.0041072801
-0.0071172042
-0.00061819259
-0.00043685371
-0.0015561389
-0.0032618982
-0.0061260077
-0.0093079217
-0.0066832441
-0.0013300388
-0.0009519058
0.0050526434
0.0057284446
0.0049496576
0.0037927912
0.0021813982
-0.00044011505
-0.0041575978
-0.0062774348
-0.0054438872
0.010960924
0.010879451
0.010022978
0.0089437975
0.0077548589
0.0063476148
0.0044024502
0.0016380823
-0.0013500139
-0.0038635304
0.00088037685
-0.00052326588
-0.0019446676
-0.0032915253
-0.0045408503
-0.0057614354
-0.0070692112
-0.0085630185
-0.010079952
-0.011418717
-0.0098328606
-0.012093955
-0.014402729
-0.016326861
-0.017755138
-0.018855222
-0.019723141
-0.020348838
-0.020641541
-0.020638482
-0.01507002
-0.017707514
-0.021116044
-0.02404651
-0.025825576
-0.026848093
-0.027319192
-0.027087523
-0.025814136
-0.023394785
-0.010685746
-0.0090675008
-0.011242982
-0.014904821
-0.016995446
-0.017915561
-0.017913846
-0.016410505
-0.012343829
-0.0058462074
-0.0062227811
-0.00037110191
0.0017551019
-0.0016573913
-0.0037465108
-0.00451309
-0.0040361549
-0.00082035229
0.0065281423
0.0025348228
-0.0034497167
-0.00044639226
0.0019034887
0.00038715535
-0.00061002786
-0.00095160998
-0.00060696879
0.0014677407
0.0058906524
-0.0025255789
0.0042291547
-0.0042912896
0.0012239991
0.0016862336
0.0011328525
0.00026975248
-0.0011597195
-0.0024148972
0.00047813183
0.0035070746
-0.0041771313
-0.0071822869
-0.0007104638
-0.00053920519
-0.0016671055
-0.0033912693
-0.0062950934
-0.0095261165
-0.0068501458
-0.0014451507
-0.0010987251
0.004878798
0.0055443566
0.0047568295
0.0035888054
0.0019605373
-0.00069119081
-0.0044509293
-0.0065758597
-0.0057183176
0.010700247
0.0106091
0.0097436051
0.0086535489
0.0074524513
0.0060309713
0.0040654691
0.001273021
-0.00173533
-0.0042569255
0.0004855603
-0.00093092076
-0.0023665038
-0.0037272129
-0.0049890814
-0.0062210966
-0.0075408387
-0.0090483594
-0.010576896
-0.011924883
-0.01035168
-0.012644252
-0.014979668
-0.016924248
-0.01836665
-0.019476006
-0.020349432
-0.020977098
-0.021267028
-0.02125903
-0.015633786
-0.018318436
-0.021768633
-0.024729902
-0.026526584
-0.027557165
-0.028027676
-0.02778265
-0.026473963
-0.023992377
-0.011081564
-0.0094437128
-0.011636617
-0.015328382
-0.017437416
-0.018364439
-0.018355011
-0.016810727
-0.012635599
-0.0059585787
-0.0064151825
-0.00049321068
0.0016657833
-0.0017605989
-0.0038641632
-0.0046371223
-0.0041460951
-0.00084684942
0.006706053
0.002601053
-0.0035228497
-0.00049390692
0.0018821454
0.0003636352
-0.00063945011
-0.00098435123
-0.00063145212
0.0014972348
0.0060455683
-0.0026077652
0.0041823966
-0.004259955
0.0012005355
0.0016536976
0.0011002809
0.00023311485
-0.0012096281
-0.0024821308
0.00043773061
0.0034736146
-0.0042217814
-0.0072036425
-0.00079889928
-0.00063877242
-0.00176833
-0.0035002628
-0.0064258903
-0.0096860933
-0.0069753332
-0.0015518772
-0.0012396238
0.0046740288
0.0053252462
0.0045338395
0.0033618651
0.0017267679
-0.0009388177
-0.0047176227
-0.0068345427
-0.0059582952
0.010372541
0.010272286
0.0094031101
0.0083089052
0.0071030612
0.0056761176
0.0037024045
0.00089910127
-0.0021109512
-0.0046250771
8.6587984e-05
-0.0013339947
-0.0027749024
-0.0041410663
-0.00540769
-0.0066435308
-0.0079670939
-0.0094790259
-0.011009737
-0.012358631
-0.010807827
-0.013117736
-0.015465388
-0.017418419
-0.018866044
-0.019977823
-0.020851364
-0.021477122
-0.021762487
-0.021749598
-0.016102191
-0.018817436
-0.022288021
-0.025261827
-0.027065037
-0.028097322
-0.028564337
-0.028307462
-0.026971544
-0.02444303
-0.011409886
-0.0097625272
-0.011959329
-0.015658252
-0.017772684
-0.018700895
-0.018683808
-0.017108103
-0.012850277
-0.006035047
-0.0065685733
-0.00061282796
0.0015656427
-0.0018535005
-0.0039585357
-0.0047331051
-0.0042310118
-0.00086867298
0.0068420444
0.002650691
-0.0035744496
-0.00053856561
0.0018490064
0.00033768188
-0.00066511958
-0.0010112117
-0.00065223044
0.0015173031
0.0061629995
-0.0026740503
0.0041097991
-0.0042024271
0.0011696114
0.0016109094
0.0010608694
0.00019498445
-0.0012521324
-0.0025341121
0.00039457691
0.0034186853
-0.0042405819
-0.0071807697
-0.00088257882
-0.00073456768
-0.0018588172
-0.003587839
-0.0065172288
-0.0097865069
-0.0070576739
-0.0016491944
-0.001373145
0.0044401914
0.005073057
0.0042826522
0.0031139556
0.0014821131
-0.0011808925
-0.0049554631
-0.0070513223
-0.0061617737
0.0099805817
0.0098718397
0.0090043433
0.0079127383
0.0067095857
0.0052859793
0.0033162274
0.00051935533
-0.00247384
-0.0049649974
-0.00031325399
-0.0017291789
-0.0031665253
-0.0045297181
-0.0057932844
-0.0070253278
-0.0083445484
-0.0098515673
-0.011375013
-0.012716497
-0.011197673
-0.013510675
-0.015856085
-0.017805523
-0.019249443
-0.020356787
-0.021225053
-0.021845044
-0.022124084
-0.022106383
-0.016471615
-0.019200712
-0.022670283
-0.025638288
-0.027436907
-0.028464527
-0.028925165
-0.028658023
-0.027303114
-0.024743265
-0.011668104
-0.010021395
-0.012208549
-0.015891825
-0.017998617
-0.01892229
-0.018897648
-0.017300239
-0.012985976
-0.0060745725
-0.0066816327
-0.00072883522
0.0014556798
-0.0019351458
-0.004028673
-0.0048000756
-0.0042900118
-0.00088531737
0.0069356551
0.0026838029
-0.0036040702
-0.00057996177
0.0018044093
0.00030958685
-0.00068674819
-0.0010318969
-0.0006690471
0.001527952
0.006242356
-0.0027239002
0.0040119378
-0.004118941
0.0011315417
0.0015582572
0.0010149844
0.00015571845
-0.0012868503
-0.0025704022
0.00034905823
0.0033427501
-0.0042330611
-0.0071134572
-0.0009606288
-0.00082564357
-0.0019376548
-0.0036531069
-0.0065681989
-0.009826396
-0.0070963155
-0.001736152
-0.0014979046
0.0041792936
0.004789909
0.0040053792
0.0028471649
0.0012286367
-0.001415372
-0.005162439
-0.00722432
-0.0063269561
0.0095275054
0.0094109481
0.0085504794
0.0074682039
0.0062751597