/*--------------------------------*- C++ -*----------------------------------*\
| =========                 |                                                 |
| \\      /  F ield         | OpenFOAM: The Open Source CFD Toolbox           |
|  \\    /   O peration     | Version:  v2106                                 |
|   \\  /    A nd           | Website:  www.openfoam.com                      |
|    \\/     M anipulation  |                                                 |
\*---------------------------------------------------------------------------*/
FoamFile
{
    version     2.0;
    format      ascii;
    arch        "LSB;label=32;scalar=64";
    class       volVectorField;
    location    "20";
    object      gradT;
}
// * * * * * * * * * * * * * * * * * * * * * * * * * * * * * * * * * * * * * //

dimensions      [0 -1 0 1 0 0 0];

internalField   nonuniform List<vector> 
4000
(
(-0.00062403873 -0.00062403873 680.54078)
(0.0010874938 0.0012291798 680.53896)
(0.0010608763 0.0001236886 680.54415)
(-0.001015145 6.6937518e-05 680.54193)
(-0.00049705759 8.6558306e-05 680.54061)
(-0.00013461468 0.00011833104 680.54013)
(5.1141206e-05 0.0001553934 680.54015)
(0.00010207002 0.0001789463 680.54037)
(7.1457867e-05 0.00012651946 680.54056)
(2.2574869e-05 -5.5674458e-06 680.5408)
(0.0012291798 0.0010874938 680.53896)
(0.0018352212 0.0018352212 680.54229)
(-0.00010136597 0.00067501369 680.54422)
(-0.0010522753 0.00064264528 680.54181)
(-0.00044566407 0.00068551436 680.54057)
(-6.5779587e-05 0.00074402969 680.54021)
(0.00011175645 0.00082398201 680.54038)
(7.3196081e-05 0.00090900084 680.54068)
(-0.00011305588 0.00087968916 680.54056)
(-0.00010951203 0.00058973854 680.54028)
(0.00012368861 0.0010608763 680.54415)
(0.00067501369 -0.00010136596 680.54422)
(-0.00013169961 -0.0001316996 680.54591)
(-0.0010046443 -8.4751116e-05 680.54357)
(-0.00039567318 -4.3386315e-05 680.5424)
(3.8529874e-06 3.4077879e-06 680.54215)
(0.00021611236 7.7492519e-05 680.54249)
(0.00015777716 0.00019673043 680.54304)
(-0.00024780442 0.00032153754 680.54299)
(-0.00026737575 0.00029919701 680.54211)
(6.6937518e-05 -0.001015145 680.54193)
(0.00064264529 -0.0010522753 680.54181)
(-8.475113e-05 -0.0010046443 680.54357)
(-0.00096396201 -0.00096396202 680.5413)
(-0.00035750516 -0.00092961622 680.5402)
(5.5099238e-05 -0.00089258116 680.54003)
(0.0003050791 -0.00084116409 680.54049)
(0.00031724111 -0.00075705481 680.54127)
(-1.0589304e-05 -0.00061990417 680.54161)
(-0.00013185257 -0.00044055175 680.54121)
(8.6558309e-05 -0.00049705759 680.54061)
(0.00068551435 -0.00044566408 680.54057)
(-4.3386319e-05 -0.00039567319 680.5424)
(-0.00092961622 -0.00035750516 680.5402)
(-0.00032429233 -0.00032429233 680.53917)
(9.2305136e-05 -0.00029176084 680.53906)
(0.00035163871 -0.00025663491 680.53961)
(0.00037903708 -0.00021550443 680.5405)
(6.8698624e-05 -0.0001662208 680.54097)
(-8.8023342e-05 -0.00011163818 680.54076)
(0.00011833104 -0.00013461467 680.54013)
(0.00074402969 -6.577959e-05 680.54021)
(3.4077845e-06 3.8530013e-06 680.54215)
(-0.00089258117 5.5099241e-05 680.54003)
(-0.00029176083 9.2305129e-05 680.53906)
(0.00012275666 0.00012275665 680.53902)
(0.00038133551 0.00014805626 680.53962)
(0.00040765522 0.00016935569 680.54057)
(9.3276952e-05 0.00018520947 680.5411)
(-7.7269954e-05 0.00019324167 680.54094)
(0.00015539339 5.1141195e-05 680.54015)
(0.00082398202 0.00011175648 680.54038)
(7.7492516e-05 0.00021611235 680.54249)
(-0.00084116409 0.0003050791 680.54049)
(-0.00025663491 0.00035163872 680.53961)
(0.00014805625 0.00038133552 680.53962)
(0.00039823774 0.00039823773 680.54027)
(0.00041619029 0.00040399083 680.54124)
(9.258461e-05 0.00039723415 680.54178)
(-7.9991139e-05 0.00037856572 680.5416)
(0.00017894631 0.00010207002 680.54037)
(0.00090900084 7.3196081e-05 680.54068)
(0.00019673042 0.00015777716 680.54304)
(-0.0007570548 0.0003172411 680.54127)
(-0.00021550442 0.00037903708 680.5405)
(0.00016935568 0.00040765522 680.54057)
(0.00040399082 0.00041619029 680.54124)
(0.00040665163 0.00040665164 680.54221)
(6.7851835e-05 0.00037604675 680.5427)
(-9.5938389e-05 0.00032638539 680.54244)
(0.00012651945 7.1457874e-05 680.54056)
(0.00087968915 -0.00011305588 680.54056)
(0.00032153754 -0.00024780443 680.54299)
(-0.00061990416 -1.05893e-05 680.54161)
(-0.00016622079 6.8698627e-05 680.54097)
(0.00018520947 9.3276949e-05 680.5411)
(0.00039723415 9.2584617e-05 680.54178)
(0.00037604675 6.7851835e-05 680.5427)
(1.2318358e-05 1.2318369e-05 680.54309)
(-0.00012965249 -6.6196645e-05 680.54266)
(-5.5674562e-06 2.2574873e-05 680.5408)
(0.00058973854 -0.00010951203 680.54028)
(0.000299197 -0.00026737575 680.54211)
(-0.00044055175 -0.00013185257 680.54121)
(-0.00011163818 -8.8023342e-05 680.54076)
(0.00019324167 -7.7269954e-05 680.54094)
(0.00037856572 -7.9991139e-05 680.5416)
(0.00032638539 -9.5938389e-05 680.54244)
(-6.6196649e-05 -0.0001296525 680.54266)
(-0.0001744534 -0.0001744534 680.54208)
(-0.0011939109 -0.0011939109 680.97002)
(0.0022853074 0.002104264 680.96911)
(0.0019082383 -5.3910026e-05 680.97165)
(-0.002523851 -0.00017922666 680.96995)
(-0.001299435 -0.00012717546 680.9689)
(-0.0003271706 -3.8504134e-05 680.96856)
(0.00018888381 7.3331955e-05 680.96867)
(0.00030820241 0.00013079538 680.96892)
(0.00035487243 -0.00012540637 680.96898)
(0.00021616046 -0.00050920379 680.96957)
(0.002104264 0.0022853074 680.96911)
(0.0034253083 0.0034253082 680.97056)
(-0.00037525234 0.0010848085 680.97147)
(-0.0025971165 0.00099979562 680.96968)
(-0.0011587125 0.0011085414 680.96869)
(-0.0001266632 0.0012736922 680.96847)
(0.00035818332 0.0015148302 680.96875)
(0.00010946409 0.00175879 680.96909)
(-0.00028512673 0.0015481984 680.96862)
(-0.00016763695 0.00072227476 680.9685)
(-5.3910026e-05 0.0019082383 680.97165)
(0.0010848085 -0.00037525234 680.97147)
(-0.00051727434 -0.00051727434 680.97218)
(-0.0025001181 -0.00042623174 680.97042)
(-0.0010255384 -0.00032063074 680.9695)
(7.9118177e-05 -0.00018470356 680.96937)
(0.00067398155 3.8897958e-05 680.96983)
(0.00034157061 0.00039734891 680.97045)
(-0.00068164278 0.00072466973 680.97006)
(-0.00060976317 0.00063165806 680.96946)
(-0.00017922667 -0.002523851 680.96995)
(0.00099979563 -0.0025971165 680.96968)
(-0.00042623175 -0.0025001181 680.97042)
(-0.0024004729 -0.0024004729 680.96872)
(-0.0009171843 -0.0023044188 680.96785)
(0.00023286551 -0.0021940044 680.9678)
(0.00094023581 -0.0020382294 680.96838)
(0.00079523586 -0.0017852555 680.96923)
(-5.0817597e-05 -0.0013948857 680.96918)
(-0.00026064863 -0.00090813811 680.96897)
(-0.00012717546 -0.001299435 680.9689)
(0.0011085414 -0.0011587125 680.96869)
(-0.00032063074 -0.0010255384 680.9695)
(-0.0023044188 -0.0009171843 680.96785)
(-0.00081906996 -0.00081906996 680.96705)
(0.00034530758 -0.00072133401 680.96706)
(0.0010827305 -0.0006149924 680.96772)
(0.00098491436 -0.00048953464 680.96868)
(0.0001954746 -0.00033919022 680.96878)
(-0.00012301564 -0.00016548912 680.96874)
(-3.8504137e-05 -0.0003271706 680.96856)
(0.0012736922 -0.0001266632 680.96847)
(-0.00018470357 7.9118181e-05 680.96937)
(-0.0021940044 0.00023286551 680.9678)
(-0.00072133402 0.00034530758 680.96706)
(0.00043694307 0.00043694307 680.96713)
(0.0011720352 0.00051305975 680.96786)
(0.001071038 0.0005763335 680.96887)
(0.00027322794 0.00062175106 680.96902)
(-8.6947529e-05 0.00064461923 680.96903)
(7.3331955e-05 0.0001888838 680.96867)
(0.0015148302 0.00035818332 680.96875)
(3.8897961e-05 0.00067398155 680.96983)
(-0.0020382294 0.0009402358 680.96838)
(-0.0006149924 0.0010827305 680.96772)
(0.00051305975 0.0011720352 680.96786)
(0.0012221209 0.0012221209 680.96862)
(0.0010936057 0.0012355813 680.96965)
(0.00026376033 0.0012045561 680.9698)
(-0.00010014747 0.001123199 680.96978)
(0.00013079538 0.00030820242 680.96892)
(0.00175879 0.00010946409 680.96909)
(0.00039734892 0.0003415706 680.97045)
(-0.0017852555 0.00079523586 680.96923)
(-0.00048953463 0.00098491435 680.96868)
(0.00057633349 0.001071038 680.96887)
(0.0012355813 0.0010936057 680.96965)
(0.0010534732 0.0010534732 680.97067)
(0.00016084558 0.00093469072 680.97075)
(-0.00016830461 0.00073142702 680.97059)
(-0.00012540638 0.00035487243 680.96898)
(0.0015481984 -0.00028512672 680.96862)
(0.00072466973 -0.00068164278 680.97006)
(-0.0013948857 -5.081759e-05 680.96918)
(-0.00033919023 0.0001954746 680.96878)
(0.00062175107 0.00027322793 680.96902)
(0.0012045561 0.00026376033 680.9698)
(0.00093469072 0.00016084559 680.97075)
(-5.8285859e-05 -5.8285859e-05 680.97066)
(-0.00030341117 -0.00028793855 680.97022)
(-0.00050920379 0.00021616046 680.96957)
(0.00072227476 -0.00016763696 680.9685)
(0.00063165806 -0.00060976317 680.96946)
(-0.00090813811 -0.00026064864 680.96897)
(-0.00016548913 -0.00012301563 680.96874)
(0.00064461922 -8.6947529e-05 680.96903)
(0.001123199 -0.00010014747 680.96978)
(0.00073142703 -0.00016830461 680.97059)
(-0.00028793856 -0.00030341117 680.97022)
(-0.00039795731 -0.00039795731 680.97011)
(-0.0015309325 -0.0015309325 681.82389)
(0.0027151592 0.0026805629 681.82308)
(0.0019031292 -5.1411601e-05 681.82453)
(-0.0037591506 -0.00020552008 681.82309)
(-0.0018927706 -0.00012154837 681.82224)
(-0.0003691702 2.633474e-05 681.82206)
(0.00041154167 0.00023414728 681.8223)
(0.00041186994 0.00035314736 681.82262)
(0.00072281418 -0.00023125189 681.82242)
(0.00061507353 -0.001075479 681.82302)
(0.0026805629 0.0027151592 681.82308)
(0.0041946801 0.0041946801 681.824)
(-0.00098295376 0.0012117666 681.82438)
(-0.0038292874 0.0011131881 681.82288)
(-0.0016609158 0.0012828022 681.8221)
(-1.3474551e-05 0.0015542913 681.82203)
(0.00073835428 0.00198209 681.82249)
(-5.3529233e-05 0.0024396548 681.82297)
(-0.00070581216 0.001966145 681.82219)
(-0.00022915357 0.00047956696 681.822)
(-5.1411604e-05 0.0019031292 681.82453)
(0.0012117666 -0.00098295375 681.82438)
(-0.0011783628 -0.0011783628 681.82463)
(-0.003688115 -0.0010483422 681.82317)
(-0.0014516675 -0.00088565013 681.82245)
(0.00033011753 -0.00066484563 681.82248)
(0.0012969052 -0.00028982913 681.82311)
(0.00039592496 0.00033009965 681.82389)
(-0.0012372737 0.00088317554 681.82321)
(-0.00087150451 0.00076446234 681.82262)
(-0.00020552007 -0.0037591506 681.82309)
(0.0011131881 -0.0038292874 681.82288)
(-0.0010483422 -0.003688115 681.82317)
(-0.0035365747 -0.0035365747 681.82176)
(-0.0012774193 -0.0033828492 681.8211)
(0.00058234645 -0.0032015232 681.82119)
(0.0017332996 -0.0029445353 681.82194)
(0.0011194754 -0.0025285643 681.82294)
(-0.00027144948 -0.0019084993 681.82257)
(-0.00034786677 -0.0011610819 681.82229)
(-0.00012154837 -0.0018927706 681.82224)
(0.0012828022 -0.0016609158 681.8221)
(-0.00088565013 -0.0014516675 681.82245)
(-0.0033828492 -0.0012774193 681.8211)
(-0.001116616 -0.001116616 681.82049)
(0.00076843138 -0.00095527689 681.82065)
(0.0019698641 -0.00077934362 681.82148)
(0.0014319609 -0.00057196597 681.82259)
(0.00013020874 -0.00032672066 681.82235)
(-0.00012408706 -4.3060271e-05 681.82223)
(2.6334736e-05 -0.00036917021 681.82206)
(0.0015542913 -1.3474558e-05 681.82203)
(-0.00066484563 0.00033011754 681.82248)
(-0.0032015232 0.00058234645 681.82119)
(-0.00095527689 0.00076843139 681.82065)
(0.0009196188 0.0009196188 681.82088)
(0.0021166105 0.0010447366 681.82176)
(0.0015720984 0.0011463232 681.82292)
(0.00025745622 0.0012133784 681.82273)
(-6.4206376e-05 0.0012389465 681.82266)
(0.00023414728 0.00041154167 681.8223)
(0.00198209 0.00073835428 681.82249)
(-0.00028982913 0.0012969052 681.82311)
(-0.0029445353 0.0017332996 681.82194)
(-0.00077934362 0.0019698641 681.82148)
(0.0010447366 0.0021166105 681.82176)
(0.0021965684 0.0021965684 681.82269)
(0.0016006027 0.0022079868 681.82387)
(0.00022283203 0.0021271537 681.82366)
(-9.851896e-05 0.0019300861 681.82354)
(0.00035314736 0.00041186994 681.82262)
(0.0024396548 -5.3529219e-05 681.82297)
(0.00033009966 0.00039592496 681.82389)
(-0.0025285643 0.0011194754 681.82294)
(-0.00057196596 0.0014319609 681.82259)
(0.0011463232 0.0015720984 681.82292)
(0.0022079868 0.0016006027 681.82387)
(0.0015026837 0.0015026837 681.82501)
(-2.0444427e-05 0.0012283599 681.8247)
(-0.00026127399 0.00075987301 681.82435)
(-0.00023125189 0.00072281418 681.82242)
(0.001966145 -0.00070581216 681.82219)
(0.00088317553 -0.0012372737 681.82321)
(-0.0019084993 -0.00027144947 681.82257)
(-0.00032672066 0.00013020874 681.82235)
(0.0012133784 0.00025745622 681.82273)
(0.0021271537 0.00022283203 681.82366)
(0.0012283599 -2.0444434e-05 681.8247)
(-0.00051997865 -0.00051997866 681.8241)
(-0.0005670059 -0.00054038242 681.82328)
(-0.001075479 0.00061507352 681.82302)
(0.00047956696 -0.00022915357 681.822)
(0.00076446234 -0.00087150451 681.82262)
(-0.0011610819 -0.00034786677 681.82229)
(-4.3060271e-05 -0.00012408706 681.82223)
(0.0012389465 -6.4206376e-05 681.82266)
(0.0019300861 -9.851896e-05 681.82354)
(0.000759873 -0.00026127399 681.82435)
(-0.00054038242 -0.0005670059 681.82328)
(-0.00028167774 -0.00028167775 681.82363)
(-0.0020029652 -0.0020029652 683.09719)
(0.0029283832 0.0030237121 683.0963)
(0.0019157267 -0.00020927516 683.09769)
(-0.0048102217 -0.00038399569 683.09642)
(-0.0023306547 -0.00026859556 683.09572)
(-0.00026897571 -6.0541957e-05 683.09566)
(0.00075223302 0.00025686163 683.09605)
(0.0004285815 0.00048572087 683.09649)
(0.00075477135 -0.0003601497 683.09622)
(0.00081134398 -0.001526542 683.09658)
(0.0030237121 0.0029283832 683.0963)
(0.0047220731 0.0047220732 683.09698)
(-0.0014919811 0.0011876236 683.09739)
(-0.0048695421 0.0010864848 683.09608)
(-0.002007201 0.001316325 683.09545)
(0.00025648148 0.0016936808 683.09551)
(0.0012984959 0.0023180925 683.09611)
(-0.00018842983 0.0030309428 683.09677)
(-0.0012574915 0.0023380135 683.09598)
(-0.00035504828 0.00032170264 683.09574)
(-0.00020927516 0.0019157267 683.09769)
(0.0011876236 -0.0014919811 683.09739)
(-0.0017198617 -0.0017198617 683.0977)
(-0.0046815203 -0.0015475506 683.09643)
(-0.0017234587 -0.0013280663 683.09586)
(0.0007327918 -0.0010242788 683.096)
(0.002089495 -0.00050295126 683.09678)
(0.00044850246 0.00036782359 683.09773)
(-0.0019544688 0.0011076312 683.097)
(-0.0012049669 0.00092538868 683.09635)
(-0.00038399568 -0.0048102217 683.09642)
(0.0010864848 -0.0048695421 683.09608)
(-0.0015475506 -0.0046815203 683.09643)
(-0.0044777468 -0.0044777468 683.09521)
(-0.0014839292 -0.0042669492 683.09469)
(0.0010815965 -0.0040158885 683.09491)
(0.0026905982 -0.003660337 683.0958)
(0.0014221526 -0.0030873578 683.09696)
(-0.00069992639 -0.0022583729 683.09651)
(-0.00053729077 -0.0012912429 683.09613)
(-0.00026859555 -0.0023306547 683.09572)
(0.001316325 -0.002007201 683.09545)
(-0.0013280663 -0.0017234587 683.09586)
(-0.0042669492 -0.0014839292 683.09469)
(-0.0012616004 -0.0012616004 683.09423)
(0.001339404 -0.0010382829 683.09452)
(0.0030180257 -0.00079518148 683.09548)
(0.0018504665 -0.00050953735 683.09674)
(-0.00015835391 -0.00017676905 683.09641)
(-0.0002378368 0.00020350444 683.09618)
(-6.0541957e-05 -0.00026897571 683.09566)
(0.0016936808 0.00025648147 683.09551)
(-0.0010242788 0.0007327918 683.096)
(-0.0040158885 0.0010815965 683.09491)
(-0.0010382829 0.001339404 683.09452)
(0.0015480154 0.0015480154 683.09486)
(0.0032193438 0.0017194618 683.09588)
(0.002040565 0.0018552378 683.09719)
(1.3115408e-05 0.0019364515 683.09691)
(-0.00015701727 0.0019534227 683.09671)
(0.00025686163 0.00075223302 683.09605)
(0.0023180926 0.0012984959 683.09611)
(-0.00050295125 0.002089495 683.09678)
(-0.003660337 0.0026905982 683.0958)
(-0.00079518149 0.0030180257 683.09548)
(0.0017194618 0.0032193438 683.09588)
(0.0033252481 0.0033252481 683.09693)
(0.0020674562 0.0033251888 683.09826)
(-6.0168998e-05 0.0031691767 683.09796)
(-0.00022086556 0.0028045503 683.0977)
(0.00048572088 0.0004285815 683.09649)
(0.0030309428 -0.00018842983 683.09677)
(0.00036782358 0.00044850245 683.09773)
(-0.0030873578 0.0014221526 683.09696)
(-0.00050953734 0.0018504665 683.09674)
(0.0018552378 0.002040565 683.09719)
(0.0033251888 0.0020674562 683.09826)
(0.0018844936 0.0018844936 683.09954)
(-0.00050752313 0.0013697661 683.0991)
(-0.00052164369 0.00046903211 683.09855)
(-0.00036014971 0.00075477135 683.09622)
(0.0023380135 -0.0012574915 683.09598)
(0.0011076312 -0.0019544688 683.097)
(-0.0022583729 -0.0006999264 683.09651)
(-0.00017676905 -0.0001583539 683.09641)
(0.0019364515 1.3115405e-05 683.09691)
(0.0031691767 -6.0168998e-05 683.09796)
(0.0013697662 -0.00050752314 683.0991)
(-0.0014756305 -0.0014756305 683.09828)
(-0.0011215996 -0.0010000377 683.09705)
(-0.001526542 0.00081134399 683.09658)
(0.00032170264 -0.00035504828 683.09574)
(0.00092538867 -0.0012049669 683.09635)
(-0.0012912429 -0.00053729077 683.09613)
(0.00020350446 -0.00023783681 683.09618)
(0.0019534227 -0.00015701726 683.09671)
(0.0028045503 -0.00022086557 683.0977)
(0.00046903211 -0.0005216437 683.09855)
(-0.0010000376 -0.0011215996 683.09705)
(-4.6050837e-05 -4.6050837e-05 683.09751)
(-0.0024273418 -0.0024273418 684.78243)
(0.0032077794 0.0033640309 684.78163)
(0.0020237077 -0.00034836747 684.78303)
(-0.0057199529 -0.00054253188 684.7819)
(-0.0026466923 -0.00039687658 684.78133)
(-4.6106684e-05 -0.00013081536 684.78136)
(0.0012417639 0.00029328034 684.78186)
(0.00058348214 0.00063216084 684.78243)
(0.00080954504 -0.00047319999 684.78226)
(0.00097578052 -0.0019121474 684.78258)
(0.0033640309 0.0032077794 684.78163)
(0.0052867537 0.0052867537 684.78231)
(-0.0018828551 0.0012265788 684.78278)
(-0.005768462 0.0011249054 684.78162)
(-0.0022349758 0.0014138344 684.7811)
(0.00064405024 0.0018941986 684.78125)
(0.0020047401 0.002709702 684.78195)
(-0.00018299819 0.0036711798 684.78274)
(-0.0017347632 0.002742759 684.78205)
(-0.00046316692 0.00024621981 684.78185)
(-0.00034836746 0.0020237077 684.78303)
(0.0012265788 -0.0018828551 684.78278)
(-0.0021381406 -0.0021381406 684.78317)
(-0.0055326973 -0.001922295 684.78203)
(-0.0018773991 -0.0016460682 684.78157)
(0.001249761 -0.0012606101 684.78182)
(0.0030187451 -0.00059723574 684.78268)
(0.00061653907 0.00051362322 684.78375)
(-0.0026154149 0.0014105912 684.78309)
(-0.0015207587 0.0011488741 684.78248)
(-0.00054253188 -0.0057199529 684.7819)
(0.0011249054 -0.005768462 684.78162)
(-0.001922295 -0.0055326973 684.78203)
(-0.0052763895 -0.0052763895 684.78095)
(-0.0015732909 -0.0050090656 684.78055)
(0.0016928826 -0.0046897833 684.78086)
(0.0037789734 -0.0042387824 684.78184)
(0.0018248288 -0.0035149872 684.78311)
(-0.0010995123 -0.0024930122 684.78271)
(-0.00072488406 -0.0013292291 684.78234)
(-0.00039687658 -0.0026466923 684.78133)
(0.0014138344 -0.0022349758 684.7811)
(-0.0016460682 -0.0018773991 684.78157)
(-0.0050090656 -0.0015732909 684.78055)
(-0.0012907929 -0.0012907929 684.7802)
(0.0020200441 -0.0010075789 684.78057)
(0.0041935412 -0.00070025897 684.78163)
(0.0023623093 -0.00034028473 684.78299)
(-0.00042965686 7.3666982e-05 684.78271)
(-0.00035697558 0.00054119997 684.78247)
(-0.00013081536 -4.6106681e-05 684.78136)
(0.0018941986 0.00064405023 684.78125)
(-0.0012606101 0.001249761 684.78182)
(-0.0046897833 0.0016928827 684.78086)
(-0.0010075789 0.0020200441 684.78057)
(0.0022834166 0.0022834166 684.78101)
(0.0044462675 0.0024982573 684.78211)
(0.0025987547 0.0026651262 684.78352)
(-0.00021802763 0.0027568525 684.78328)
(-0.00025735108 0.0027604151 684.78308)
(0.00029328033 0.0012417639 684.78186)
(0.0027097021 0.0020047401 684.78195)
(-0.00059723574 0.0030187451 684.78268)
(-0.0042387824 0.0037789734 684.78184)
(-0.00070025897 0.0041935412 684.78163)
(0.0024982573 0.0044462675 684.78211)
(0.0045752508 0.0045752508 684.78325)
(0.0026209045 0.0045602783 684.78467)
(-0.00033436795 0.004320732 684.78441)
(-0.000353413 0.0037665909 684.78414)
(0.00063216085 0.00058348213 684.78243)
(0.0036711798 -0.00018299819 684.78274)
(0.00051362321 0.00061653906 684.78375)
(-0.0035149872 0.0018248288 684.78311)
(-0.00034028474 0.0023623093 684.78299)
(0.0026651262 0.0025987547 684.78352)
(0.0045602783 0.0026209045 684.78467)
(0.002344236 0.0023442359 684.78604)
(-0.0010117151 0.0015515108 684.78563)
(-0.00081149218 0.00010865594 684.78505)
(-0.00047319999 0.00080954506 684.78226)
(0.002742759 -0.0017347632 684.78205)
(0.0014105912 -0.0026154149 684.78309)
(-0.0024930122 -0.0010995123 684.78271)
(7.3666993e-05 -0.00042965687 684.78271)
(0.0027568525 -0.00021802763 684.78328)
(0.004320732 -0.00033436795 684.78441)
(0.0015515108 -0.0010117151 684.78563)
(-0.0025699479 -0.002569948 684.78481)
(-0.0017962678 -0.0015802548 684.78342)
(-0.0019121474 0.00097578053 684.78258)
(0.00024621981 -0.00046316691 684.78185)
(0.0011488741 -0.0015207586 684.78248)
(-0.0013292291 -0.00072488406 684.78234)
(0.00054119997 -0.00035697558 684.78247)
(0.0027604151 -0.00025735107 684.78308)
(0.0037665909 -0.000353413 684.78414)
(0.00010865595 -0.00081149218 684.78505)
(-0.0015802548 -0.0017962678 684.78342)
(0.00017820095 0.00017820094 684.78384)
(-0.0028044885 -0.0028044885 686.86993)
(0.0035357841 0.0037105965 686.86921)
(0.0021933993 -0.00045929951 686.87061)
(-0.0065183888 -0.00067199189 686.86959)
(-0.0028690561 -0.00049712179 686.8691)
(0.00026041426 -0.00017485892 686.86922)
(0.001818618 0.00035283981 686.86977)
(0.0008286453 0.00079843671 686.87042)
(0.00090533921 -0.00056595244 686.87031)
(0.0011373571 -0.0022619387 686.87063)
(0.0037105965 0.0035357841 686.86921)
(0.0058809731 0.0058809731 686.8699)
(-0.0021891891 0.0013195084 686.8704)
(-0.0065562111 0.001218203 686.86935)
(-0.0023719231 0.0015647029 686.86892)
(0.0011103758 0.0021451826 686.86914)
(0.0027919137 0.0031461394 686.8699)
(-9.0146966e-05 0.0043477111 686.87076)
(-0.0021550362 0.0031756992 686.87014)
(-0.00055862916 0.00021843954 686.86996)
(-0.00045929951 0.0021933993 686.87061)
(0.0013195084 -0.0021891891 686.8704)
(-0.0024693708 -0.0024693709 686.87082)
(-0.0062731943 -0.002210179 686.8698)
(-0.0019420765 -0.0018781707 686.86943)
(0.0018418508 -0.0014131365 686.86974)
(0.0040211465 -0.00061224607 686.87066)
(0.00085820511 0.00072956682 686.87178)
(-0.0032239323 0.0017668566 686.87119)
(-0.0018199026 0.0014202836 686.87061)
(-0.00067199187 -0.0065183888 686.86959)
(0.001218203 -0.0065562111 686.86935)
(-0.002210179 -0.0062731942 686.8698)
(-0.0059650109 -0.0059650109 686.86883)
(-0.0015748806 -0.0056424101 686.86851)
(0.0023763005 -0.0052570886 686.86889)
(0.004934617 -0.0047143325 686.86993)
(0.0022889557 -0.0038460033 686.87123)
(-0.0014643194 -0.0026430355 686.87089)
(-0.00090520219 -0.0012967626 686.87053)
(-0.00049712177 -0.0028690561 686.8691)
(0.0015647029 -0.0023719231 686.86892)
(-0.0018781707 -0.0019420765 686.86943)
(-0.0056424101 -0.0015748806 686.86851)
(-0.0012341542 -0.0012341542 686.86825)
(0.0027699283 -0.00089364165 686.86869)
(0.0054322318 -0.00052550399 686.86979)
(0.0029295021 -9.5438015e-05 686.87119)
(-0.00067469159 0.00039407417 686.87095)
(-0.00047362973 0.00094243606 686.87073)
(-0.0001748589 0.00026041425 686.86922)
(0.0021451826 0.0011103759 686.86914)
(-0.0014131365 0.0018418508 686.86974)
(-0.0052570886 0.0023763005 686.86889)
(-0.00089364165 0.0027699283 686.86869)
(0.0030849507 0.0030849507 686.86918)
(0.0057328206 0.0033398208 686.87033)
(0.0032085339 0.0035343848 686.87178)
(-0.00042644533 0.0036335318 686.87158)
(-0.0003568403 0.0036214745 686.87138)
(0.00035283983 0.001818618 686.86977)
(0.0031461394 0.0027919136 686.8699)
(-0.00061224607 0.0040211465 686.87066)
(-0.0047143325 0.004934617 686.86993)
(-0.00052550398 0.0054322319 686.86979)
(0.0033398208 0.0057328206 686.87033)
(0.005881666 0.005881666 686.87151)
(0.003223213 0.0058490202 686.87296)
(-0.00058760195 0.0055233338 686.87274)
(-0.00048568703 0.00477571 686.87247)
(0.00079843672 0.0008286453 686.87042)
(0.0043477111 -9.0146966e-05 686.87076)
(0.00072956682 0.00085820511 686.87178)
(-0.0038460032 0.0022889557 686.87123)
(-9.5438015e-05 0.0029295021 686.87119)
(0.0035343848 0.0032085338 686.87178)
(0.0058490202 0.003223213 686.87296)
(0.0028502016 0.0028502016 686.87437)
(-0.0014997555 0.0017706712 686.87399)
(-0.0011044641 -0.00025036259 686.87341)
(-0.00056595244 0.00090533921 686.87031)
(0.0031756992 -0.0021550362 686.87014)
(0.0017668566 -0.0032239323 686.87119)
(-0.0026430355 -0.0014643194 686.87089)
(0.00039407417 -0.0006746916 686.87095)
(0.0036335318 -0.00042644535 686.87158)
(0.0055233338 -0.00058760197 686.87274)
(0.0017706712 -0.0014997555 686.87399)
(-0.0036881662 -0.0036881662 686.87319)
(-0.0025067208 -0.0022069457 686.87177)
(-0.0022619387 0.0011373571 686.87063)
(0.00021843954 -0.00055862917 686.86996)
(0.0014202836 -0.0018199026 686.87061)
(-0.0012967625 -0.00090520221 686.87053)
(0.00094243606 -0.00047362973 686.87073)
(0.0036214745 -0.0003568403 686.87138)
(0.00477571 -0.00048568703 686.87247)
(-0.00025036258 -0.0011044641 686.87341)
(-0.0022069457 -0.0025067208 686.87177)
(0.00037675642 0.00037675643 686.87215)
(-0.003147528 -0.003147528 689.34676)
(0.0038806517 0.0040496826 689.34611)
(0.0023968541 -0.0005523092 689.34745)
(-0.0072236465 -0.00078229701 689.34653)
(-0.0030171011 -0.00057937303 689.34612)
(0.00062461622 -0.00020302277 689.34629)
(0.0024447863 0.00042482014 689.34689)
(0.0011236516 0.00097390087 689.34757)
(0.0010261654 -0.00064356834 689.34751)
(0.0012979037 -0.0025859754 689.34783)
(0.0040496826 0.0038806517 689.34611)
(0.0064758705 0.0064758705 689.34677)
(-0.0024351255 0.0014411527 689.34728)
(-0.0072507103 0.0013410518 689.34632)
(-0.0024378269 0.0017430862 689.34597)
(0.0016288094 0.0024200221 689.34625)
(0.0036217099 0.0035999345 689.34704)
(5.5263148e-05 0.0050331935 689.34793)
(-0.0025337108 0.0036196594 689.34737)
(-0.00064450335 0.00021883256 689.3472)
(-0.0005523092 0.0023968541 689.34745)
(0.0014411527 -0.0024351255 689.34728)
(-0.0027379645 -0.0027379645 689.34771)
(-0.006921713 -0.002436446 689.34679)
(-0.0019381308 -0.0020503983 689.34649)
(0.0024814646 -0.0015086953 689.34685)
(0.0050579577 -0.00057566509 689.3478)
(0.0011433765 0.00098775144 689.34893)
(-0.0037881955 0.0021545857 689.3484)
(-0.0021029231 0.0017223788 689.34785)
(-0.000782297 -0.0072236465 689.34653)
(0.0013410518 -0.0072507103 689.34632)
(-0.002436446 -0.006921713 689.34679)
(-0.0065631441 -0.0065631441 689.34592)
(-0.0015100762 -0.0061872062 689.34567)
(0.0031035426 -0.0057386201 689.3461)
(0.0061181567 -0.0051083275 689.34715)
(0.002785514 -0.00410211 689.34847)
(-0.0017990835 -0.0027283422 689.34816)
(-0.0010767103 -0.0012106458 689.34782)
(-0.00057937303 -0.0030171011 689.34612)
(0.0017430862 -0.0024378269 689.34597)
(-0.0020503983 -0.0019381308 689.34649)
(-0.0061872062 -0.0015100762 689.34567)
(-0.0011136069 -0.0011136069 689.34548)
(0.0035603433 -0.00071876698 689.34596)
(0.0066944678 -0.00029342442 689.34708)
(0.0035233617 0.00020243929 689.34848)
(-0.00089673129 0.00076248153 689.34828)
(-0.0005852268 0.0013865908 689.34806)
(-0.00020302277 0.00062461622 689.34629)
(0.0024200221 0.0016288094 689.34625)
(-0.0015086953 0.0024814646 689.34685)
(-0.0057386201 0.0031035426 689.3461)
(-0.00071876699 0.0035603433 689.34596)
(0.0039237251 0.0039237251 689.34649)
(0.007039363 0.0042152665 689.34765)
(0.0038414199 0.0044342714 689.3491)
(-0.00061493197 0.0045381544 689.34893)
(-0.00045260104 0.0045091201 689.34874)
(0.00042482014 0.0024447863 689.34689)
(0.0035999345 0.0036217099 689.34704)
(-0.0005756651 0.0050579577 689.3478)
(-0.0051083274 0.0061181567 689.34715)
(-0.00029342442 0.0066944678 689.34708)
(0.0042152665 0.007039363 689.34765)
(0.0072050141 0.0072050141 689.34884)
(0.0038462496 0.0071523183 689.35029)
(-0.0008218826 0.0067395194 689.35009)
(-0.0006142611 0.0058000978 689.34984)
(0.00097390087 0.0011236516 689.34757)
(0.0050331935 5.5263148e-05 689.34793)
(0.00098775145 0.0011433765 689.34893)
(-0.00410211 0.002785514 689.34847)
(0.0002024393 0.0035233617 689.34848)
(0.0044342714 0.0038414199 689.3491)
(0.0071523183 0.0038462496 689.35029)
(0.0033759252 0.0033759252 689.3517)
(-0.0019671525 0.0020103333 689.35135)
(-0.0013920227 -0.000592285 689.35078)
(-0.00064356834 0.0010261654 689.34751)
(0.0036196594 -0.0025337108 689.34737)
(0.0021545857 -0.0037881955 689.3484)
(-0.0027283422 -0.0017990835 689.34816)
(0.00076248153 -0.00089673129 689.34828)
(0.0045381544 -0.00061493199 689.34893)
(0.0067395194 -0.0008218826 689.35009)
(0.0020103333 -0.0019671525 689.35135)
(-0.0047900928 -0.0047900928 689.35058)
(-0.0032168794 -0.0028387033 689.34918)
(-0.0025859754 0.0012979037 689.34783)
(0.00021883256 -0.00064450334 689.3472)
(0.0017223788 -0.0021029231 689.34785)
(-0.0012106458 -0.0010767103 689.34782)
(0.0013865908 -0.0005852268 689.34806)
(0.0045091201 -0.00045260104 689.34874)
(0.0058000978 -0.00061426111 689.34984)
(-0.00059228499 -0.0013920227 689.35078)
(-0.0028387033 -0.0032168794 689.34918)
(0.00055936682 0.00055936683 689.34954)
(-0.0034622532 -0.0034622532 692.19757)
(0.0042245488 0.0043723954 692.19697)
(0.0026174117 -0.00063336583 692.19825)
(-0.0078462913 -0.00087921544 692.19742)
(-0.0031048633 -0.00064951237 692.19708)
(0.0010277767 -0.0002214753 692.19729)
(0.003096917 0.00050252236 692.19791)
(0.0014465065 0.0011515155 692.19861)
(0.0011614003 -0.00070981389 692.19857)
(0.0014560715 -0.0028870116 692.19889)
(0.0043723954 0.0042245488 692.19697)
(0.0070534362 0.0070534362 692.19759)
(-0.0026341992 0.0015765956 692.1981)
(-0.0078624378 0.0014784662 692.19724)
(-0.0024471232 0.0019335872 692.19695)
(0.0021798115 0.0027026807 692.19726)
(0.0044699077 0.0040540102 692.19807)
(0.00023417027 0.0057096647 692.19896)
(-0.0028771268 0.0040616364 692.19845)
(-0.00072112614 0.00023729317 692.19831)
(-0.00063336583 0.0026174117 692.19825)
(0.0015765956 -0.0026341992 692.1981)
(-0.0029575584 -0.0029575584 692.19853)
(-0.0074892997 -0.0026153366 692.1977)
(-0.0018806488 -0.0021775859 692.19747)
(0.0031481998 -0.001562749 692.19786)
(0.0061039009 -0.00050377197 692.19881)
(0.0014541327 0.0012709389 692.19994)
(-0.0043109713 0.002558432 692.19945)
(-0.0023682717 0.0020420303 692.19893)
(-0.00087921544 -0.0078462913 692.19742)
(0.0014784662 -0.0078624378 692.19724)
(-0.0026153367 -0.0074892997 692.1977)
(-0.0070824654 -0.0070824654 692.19692)
(-0.0013945355 -0.0066556663 692.19673)