/*--------------------------------*- C++ -*----------------------------------*\
| =========                 |                                                 |
| \\      /  F ield         | OpenFOAM: The Open Source CFD Toolbox           |
|  \\    /   O peration     | Version:  v2106                                 |
|   \\  /    A nd           | Website:  www.openfoam.com                      |
|    \\/     M anipulation  |                                                 |
\*---------------------------------------------------------------------------*/
FoamFile
{
    version     2.0;
    format      ascii;
    arch        "LSB;label=32;scalar=64";
    class       volScalarField;
    location    "20";
    object      laplacianT;
}
// * * * * * * * * * * * * * * * * * * * * * * * * * * * * * * * * * * * * * //

dimensions      [0 -2 0 1 0 0 0];

internalField   nonuniform List<scalar> 
4000
(
-14.278033
-15.108458
-13.909526
-14.375703
-14.455705
-14.442257
-14.430921
-14.420872
-14.405006
-14.405628
-15.108458
-14.123354
-14.018896
-14.4237
-14.459398
-14.436251
-14.418217
-14.398902
-14.392668
-14.450068
-13.909526
-14.018896
-13.695583
-14.041806
-14.073549
-14.052313
-14.029631
-13.991234
-13.962025
-14.132424
-14.375703
-14.4237
-14.041806
-14.380084
-14.413146
-14.394076
-14.372109
-14.325255
-14.258501
-14.332335
-14.455705
-14.459398
-14.073549
-14.413146
-14.447693
-14.42997
-14.410241
-14.36648
-14.301516
-14.368414
-14.442257
-14.436251
-14.052313
-14.394076
-14.42997
-14.41283
-14.393994
-14.352552
-14.291469
-14.363049
-14.430921
-14.418217
-14.029631
-14.372109
-14.410241
-14.393994
-14.374889
-14.333234
-14.272386
-14.345294
-14.420872
-14.398902
-13.991234
-14.325255
-14.36648
-14.352552
-14.333234
-14.290465
-14.228276
-14.301436
-14.405006
-14.392668
-13.962025
-14.258501
-14.301516
-14.291469
-14.272386
-14.228276
-14.16476
-14.24259
-14.405628
-14.450068
-14.132424
-14.332335
-14.368414
-14.363049
-14.345294
-14.301436
-14.24259
-14.34587
-42.509098
-43.934211
-41.83174
-42.774215
-42.929304
-42.900115
-42.870407
-42.835132
-42.784809
-42.696343
-43.934211
-42.567464
-42.316492
-43.111795
-43.185186
-43.135153
-43.081486
-43.021169
-43.082042
-43.111272
-41.83174
-42.316492
-41.661475
-42.357672
-42.425934
-42.379207
-42.310248
-42.189087
-42.20118
-42.533785
-42.774215
-43.111795
-42.357672
-43.040916
-43.112004
-43.070237
-43.002103
-42.854065
-42.766737
-42.868004
-42.929304
-43.185186
-42.425934
-43.112004
-43.186119
-43.147711
-43.085419
-42.944185
-42.85914
-42.931741
-42.900115
-43.135153
-42.379207
-43.070237
-43.147711
-43.110852
-43.050894
-42.914976
-42.838395
-42.917795
-42.870407
-43.081486
-42.310248
-43.002103
-43.085419
-43.050894
-42.990348
-42.853699
-42.777195
-42.860504
-42.835132
-43.021169
-42.189087
-42.854065
-42.944185
-42.914976
-42.853699
-42.713757
-42.633285
-42.726111
-42.784809
-43.082042
-42.20118
-42.766738
-42.85914
-42.838395
-42.777195
-42.633285
-42.550399
-42.685435
-42.696343
-43.111272
-42.533785
-42.868004
-42.931741
-42.917795
-42.860504
-42.726111
-42.685435
-42.902393
-70.589911
-72.321095
-69.847951
-71.116118
-71.312312
-71.265934
-71.210118
-71.142058
-71.127908
-70.769303
-72.321095
-70.59697
-70.384484
-71.45186
-71.545888
-71.467073
-71.355838
-71.217136
-71.505075
-71.525581
-69.847951
-70.384484
-69.657657
-70.602525
-70.691888
-70.619057
-70.481978
-70.223526
-70.389507
-70.803487
-71.116118
-71.45186
-70.602525
-71.531583
-71.625247
-71.560893
-71.426894
-71.126817
-71.143408
-71.221701
-71.312312
-71.545888
-70.691888
-71.625247
-71.72311
-71.664068
-71.539857
-71.250525
-71.270704
-71.301508
-71.265934
-71.467073
-70.619057
-71.560893
-71.664068
-71.607217
-71.486405
-71.204535
-71.236406
-71.273297
-71.210118
-71.355838
-70.481978
-71.426894
-71.539857
-71.486405
-71.364273
-71.080304
-71.110617
-71.153184
-71.142058
-71.217136
-70.223526
-71.126817
-71.250525
-71.204535
-71.080304
-70.789629
-70.812637
-70.89076
-71.127908
-71.505075
-70.389507
-71.143408
-71.270704
-71.236406
-71.110617
-70.812637
-70.840437
-71.089725
-70.769303
-71.525581
-70.803487
-71.221701
-71.301508
-71.273297
-71.153184
-70.89076
-71.089725
-71.121305
-98.120242
-100.27233
-97.337762
-98.89203
-99.129592
-99.067389
-98.977733
-98.859561
-98.943352
-98.471066
-100.27233
-98.309434
-98.04657
-99.357281
-99.474342
-99.368605
-99.187145
-98.923732
-99.448431
-99.475764
-97.337762
-98.04657
-97.173577
-98.34037
-98.453142
-98.357051
-98.142844
-97.710313
-98.068796
-98.608893
-98.89203
-99.357281
-98.34037
-99.488337
-99.606582
-99.522403
-99.313448
-98.824363
-98.987469
-99.105174
-99.129592
-99.474342
-98.453142
-99.606582
-99.729953
-99.65286
-99.457141
-98.981459
-99.147923
-99.200967
-99.067389
-99.368605
-98.357051
-99.522403
-99.65286
-99.57862
-99.387275
-98.920614
-99.100727
-99.156906
-98.977733
-99.187145
-98.142844
-99.313448
-99.457141
-99.387275
-99.193733
-98.722816
-98.897864
-98.958841
-98.859561
-98.923732
-97.710313
-98.824363
-98.981459
-98.920614
-98.722816
-98.239884
-98.402107
-98.538114
-98.943352
-99.448431
-98.068796
-98.987469
-99.147923
-99.100727
-98.897864
-98.402107
-98.587803
-99.154852
-98.471066
-99.475764
-98.608893
-99.105174
-99.200967
-99.156906
-98.958841
-98.538114
-99.154852
-98.871657
-125.19821
-127.72111
-124.31698
-126.14251
-126.42093
-126.34367
-126.21503
-126.0232
-126.16632
-125.58548
-127.72111
-125.50284
-125.17097
-126.71358
-126.85461
-126.72432
-126.46994
-126.06112
-126.79493
-126.81298
-124.31698
-125.17097
-124.13835
-125.51659
-125.65363
-125.53677
-125.24342
-124.61822
-125.15141
-125.80326
-126.14251
-126.71358
-125.51659
-126.87299
-127.01652
-126.91482
-126.62849
-125.93119
-126.22466
-126.3738
-126.42093
-126.85461
-125.65363
-127.01652
-127.16601
-127.07312
-126.80322
-126.12133
-126.41721
-126.48561
-126.34367
-126.72432
-125.53677
-126.91482
-127.07312
-126.98379
-126.71923
-126.04759
-126.35827
-126.42549
-126.21503
-126.46994
-125.24342
-126.62849
-126.80322
-126.71923
-126.45148
-125.77268
-126.07275
-126.14027
-126.0232
-126.06112
-124.61822
-125.93119
-126.12133
-126.04759
-125.77268
-125.07409
-125.35067
-125.53446
-126.16632
-126.79493
-125.15141
-126.22466
-126.41721
-126.35827
-126.07275
-125.35067
-125.6659
-126.60698
-125.58548
-126.81298
-125.80326
-126.3738
-126.48561
-126.42549
-126.14027
-125.53446
-126.60698
-125.99993
-151.53064
-154.3938
-150.53822
-152.62348
-152.94182
-152.85104
-152.68433
-152.41552
-152.60752
-151.9229
-154.3938
-151.92349
-151.52246
-153.28741
-153.45251
-153.30014
-152.97541
-152.41969
-153.35313
-153.36239
-150.53822
-151.52246
-150.33436
-151.9154
-152.0767
-151.94131
-151.57135
-150.75284
-151.45431
-152.21507
-152.62348
-153.28741
-151.9154
-153.47168
-153.64039
-153.52325
-153.16181
-152.2556
-152.67448
-152.85617
-152.94182
-153.45251
-152.0767
-153.64039
-153.81587
-153.70923
-153.36727
-152.47816
-152.89827
-152.98389
-152.85104
-153.30014
-151.94131
-153.52325
-153.70923
-153.60693
-153.27131
-152.39358
-152.82931
-152.90871
-152.68433
-152.97541
-151.57135
-153.16181
-153.36727
-153.27131
-152.93156
-152.04351
-152.46212
-152.53486
-152.41552
-152.41969
-150.75284
-152.2556
-152.47816
-152.39358
-152.04351
-151.12671
-151.50815
-151.73695
-152.60752
-153.35313
-151.45431
-152.67448
-152.89827
-152.82931
-152.46212
-151.50815
-151.93982
-153.26858
-151.9229
-153.36239
-152.21507
-152.85617
-152.98389
-152.90871
-152.53486
-151.73695
-153.26858
-152.34619
-176.92394
-180.10797
-175.82506
-178.15738
-178.51401
-178.41095
-178.20809
-177.86387
-178.10207
-177.31938
-180.10797
-177.39997
-176.93247
-178.90901
-179.09746
-178.92468
-178.5326
-177.83314
-178.95959
-178.96168
-175.82506
-176.93247
-175.59638
-177.37057
-177.55535
-177.40292
-176.95946
-175.95214
-176.81696
-177.68358
-178.15738
-178.90901
-177.37057
-179.1172
-179.31027
-179.17907
-178.74549
-177.6352
-178.17626
-178.39124
-178.51401
-179.09746
-177.55535
-179.31027
-179.5109
-179.39183
-178.98069
-177.88903
-178.43011
-178.53438
-178.41095
-178.92468
-177.40292
-179.17907
-179.39183
-179.27792
-178.87415
-177.79499
-178.35244
-178.44522
-178.20809
-178.5326
-176.95946
-178.74549
-178.98069
-178.87415
-178.46542
-177.37288
-177.90645
-177.98428
-177.86387
-177.83314
-175.95214
-177.6352
-177.88903
-177.79499
-177.37288
-176.2423
-176.72374
-176.99566
-178.10207
-178.95959
-176.81696
-178.17626
-178.43011
-178.35244
-177.90645
-176.72374
-177.26496
-178.97885
-177.31938
-178.96168
-177.68358
-178.39124
-178.53438
-178.44522
-177.98428
-176.99566
-178.97885
-177.7503
-201.22213
-204.70769
-200.0241
-202.58911
-202.98187
-202.86732
-202.62991
-202.21255
-202.49516
-201.61971
-204.70769
-201.77903
-201.24808
-203.42401
-203.63462
-203.44263
-202.98596
-202.14711
-203.45931
-203.45471
-200.0241
-201.24808
-199.77236
-201.72873
-201.93584
-201.76743
-201.2535
-200.06351
-201.08605
-202.05365
-202.58912
-203.42401
-201.72873
-203.65493
-203.87114
-203.72681
-203.22405
-201.9164
-202.57599
-202.82343
-202.98187
-203.63462
-201.93584
-203.87114
-204.09566
-203.96505
-203.48753
-202.19993
-202.85835
-202.98121
-202.86732
-203.44263
-201.76743
-203.72681
-203.96505
-203.8404
-203.37128
-202.09729
-202.77279
-202.87891
-202.62991
-202.98596
-201.2535
-203.22405
-203.48753
-203.37128
-202.89651
-201.60623
-202.2512
-202.33364
-202.21255
-202.14711
-200.06351
-201.9164
-202.19993
-202.09729
-201.60623
-200.26877
-200.84639
-201.15925
-202.49516
-203.45931
-201.08605
-202.57599
-202.85835
-202.77279
-202.2512
-200.84639
-201.49224
-203.58187
-201.61971
-203.45471
-202.05365
-202.82343
-202.98121
-202.87891
-202.33364
-201.15925
-203.58187
-202.05616
-224.27724
-228.04301
-222.98767
-225.76952
-226.19594
-226.07058
-225.80015
-225.31224
-225.6374
-224.67465
-228.04301
-224.91189
-224.32077
-226.68263
-226.91403
-226.704
-226.18562
-225.21254
-226.70224
-226.69103
-222.98767
-224.32077
-222.71454
-224.84098
-225.06907
-224.8857
-224.30452
-222.93917
-224.11297
-225.17562
-225.76952
-226.68263
-224.84098
-226.93482
-227.17279
-227.01619
-226.44739
-224.95041
-225.7243
-226.00274
-226.19594
-226.91403
-225.06907
-227.17279
-227.41974
-227.27837
-226.73747
-225.26184
-226.03338
-226.17417
-226.07058
-226.704
-224.8857
-227.01619
-227.27837
-227.14373
-226.61223
-225.15127
-225.94054
-226.05947
-225.80015
-226.18562
-224.30452
-226.44739
-226.73747
-226.61223
-226.07445
-224.59445
-225.34676
-225.43323
-225.31224
-225.21254
-222.93917
-224.95041
-225.26184
-225.15127
-224.59445
-223.05843
-223.72843
-224.08
-225.6374
-226.70224
-224.11297
-225.7243
-226.03338
-225.94054
-225.34676
-223.72843
-224.47439
-226.92692
-224.67465
-226.69103
-225.17562
-226.00274
-226.17417
-226.05947
-225.43323
-224.08
-226.92692
-225.1139
-245.94753
-249.97027
-244.57437
-247.55587
-248.01326
-247.87783
-247.57603
-247.02059
-247.38623
-246.34212
-249.97027
-246.65603
-246.00839
-248.54156
-248.79228
-248.56547
-247.98856
-246.88725
-248.5452
-248.52743
-244.57437
-246.00839
-244.28154
-246.5649
-246.81253
-246.61529
-245.97043
-244.43814
-245.7559
-246.907
-247.55587
-248.54156
-246.5649
-248.81342
-249.07163
-248.90371
-248.27237
-246.59528
-247.47862
-247.78631
-248.01326
-248.79228
-246.81253
-249.07163
-249.33945
-249.18817
-248.58722
-246.93265
-247.81248
-247.97033
-247.87783
-248.56547
-246.61529
-248.90371
-249.18817
-249.04433
-248.45372
-246.8148
-247.71294
-247.84395
-247.57603
-247.98856
-245.97043
-248.27237
-248.58722
-248.45372
-247.85626
-246.1957
-247.0507
-247.14062
-247.02059
-246.88725
-244.43814
-246.59528
-246.93265
-246.8148
-246.1957
-244.47064
-245.22883
-245.6168
-247.38623
-248.5452
-245.7559
-247.47862
-247.81248
-247.71294
-247.0507
-245.22883
-246.07012
-248.87036
-246.34212
-248.52743
-246.907
-247.78631
-247.97033
-247.84395
-247.14062
-245.6168
-248.87036
-246.78133
-266.09929
-270.35418
-264.65102
-267.81373
-268.29925
-268.15457
-267.82324
-267.20368
-267.60754
-266.48849
-270.35418
-266.87727
-266.17709
-268.86592
-269.13439
-268.89216
-268.26027
-267.03754
-268.85347
-268.82922
-264.65102
-266.17709
-264.34028
-266.76644
-267.03205
-266.82214
-266.11756
-264.42779
-265.88134
-267.11377
-267.81373
-268.86592
-266.76644
-269.15575
-269.43258
-269.25434
-268.56435
-266.71749
-267.70482
-268.03982
-268.29925
-269.13439
-267.03205
-269.43258
-269.7196
-269.55931
-268.902
-267.07869
-268.06136
-268.23527
-268.15457
-268.89216
-266.82214
-269.25434
-269.55931
-269.40714
-268.76105
-266.95427
-267.95572
-268.09799
-267.82324
-268.26027
-266.11756
-268.56435
-268.902
-268.76105
-268.10758
-266.27671
-267.22911
-267.32192
-267.20368
-267.03754
-264.42779
-266.71749
-267.07869
-266.95427
-266.27671
-264.37328
-265.21496
-265.63689
-267.60754
-268.85347
-265.88134
-267.70482
-268.06136
-267.95572
-267.22911
-265.21496
-266.14635
-269.27695
-266.48849
-268.82922
-267.11377
-268.03982
-268.23527
-268.09799
-267.32192
-265.63689
-269.27695
-266.92484
-284.60824
-289.06899
-283.09377
-286.41816
-286.9288
-286.77574
-286.41693
-285.73706
-286.17663
-284.98954
-289.06899
-285.45088
-284.70248
-287.53035
-287.8149
-287.55874
-286.87576
-285.53913
-287.50183
-287.47125
-283.09377
-284.70248
-282.76703
-285.32101
-285.60294
-285.38164
-284.62169
-282.78486
-284.36522
-285.67135
-286.41816
-287.53035
-285.32101
-287.83635
-288.13008
-287.9426
-287.1982
-285.19298
-286.27818
-286.63842
-286.9288
-287.8149
-285.60294
-288.13008
-288.4345
-288.26617
-287.55655
-285.57576
-286.65519
-286.84407
-286.77574
-287.55874
-285.38164
-287.9426
-288.26617
-288.10659
-287.409
-285.44552
-286.54407
-286.69673
-286.41693
-286.87576
-284.62169
-287.1982
-287.55655
-287.409
-286.70356
-284.71366
-285.75758
-285.8527
-285.73706
-285.53913
-282.78486
-285.19298
-285.57576
-285.44552
-284.71366
-282.64361
-283.5636
-284.01686
-286.17663
-287.50183
-284.36522
-286.27818
-286.65519
-286.54407
-285.75758
-283.5636
-284.57931
-288.02092
-284.98954
-287.47125
-285.67135
-286.63842
-286.84407
-286.69673
-285.8527
-284.01686
-288.02092
-285.42025
-301.36028
-305.99937
-299.78896
-303.2545
-303.7871
-303.6266
-303.2425
-302.50652
-302.97908
-301.73127
-305.99937
-302.26238
-301.47036
-304.41982
-304.71869
-304.45016
-303.7203
-302.27802
-304.37537
-304.33863
-299.78896
-301.47036
-299.44823
-302.11425
-302.41075
-302.17941
-301.36878
-299.39622
-301.09362
-302.4654
-303.2545
-304.41982
-302.11425
-304.74008
-305.04889
-304.85332
-304.05911
-301.90788
-303.08424
-303.46751
-303.7871
-304.71869
-302.41075
-305.04889
-305.36883
-305.19349
-304.43594
-302.30988
-303.47939
-303.68208
-303.6266
-304.45016
-302.17941
-304.85332
-305.19349
-305.02748
-304.28268
-302.17461
-303.36348
-303.52558
-303.2425
-303.7203
-301.36878
-304.05911
-304.43594
-304.28268
-303.5296
-301.39297
-302.52196
-302.61879
-302.50652
-302.27802
-299.39622
-301.90788
-302.30988
-302.17461
-301.39297
-299.16908
-300.16167
-300.64346
-302.97908
-304.37537
-301.09362
-303.08424
-303.47939
-303.36348
-302.52196
-300.16167
-301.25544
-304.98679
-301.73127
-304.33863
-302.4654
-303.46751
-303.68208
-303.52558
-302.61879
-300.64346
-304.98679
-302.15361
-316.25223
-321.04103
-314.63374
-318.21905
-318.77031
-318.60334
-318.19632
-317.40877
-317.9114
-316.61057
-321.04103
-317.2082
-316.37747
-319.4303
-319.74163
-319.46239
-318.69015
-317.15112
-319.37015
-319.32749
-314.63374
-316.37747
-314.28111
-317.04272
-317.35196
-317.112
-316.25568
-314.15956
-315.96353
-317.39247
-318.21905
-319.4303
-317.04272
-319.76283
-320.0848
-319.88235
-319.04322
-316.75927
-318.01953
-318.42343
-318.77031
-319.74163
-317.35196
-320.0848
-320.41828
-320.23702
-319.43619
-317.17799
-318.43036
-318.64559
-318.60334
-319.46239
-317.112
-319.88235
-320.23702
-320.06559
-319.27818
-317.03852
-318.31036
-318.4809
-318.19632
-318.69015
-316.25568
-319.04322
-319.43619
-319.27818
-318.4821
-316.21191
-317.41899
-317.51695
-317.40877
-317.15112
-314.15956
-316.75927
-317.17799
-317.03852
-316.21191
-313.8479
-314.90698
-315.41432
-317.9114
-319.37015
-315.96353
-318.01953
-318.43036
-318.31036
-317.41899
-314.90698
-316.07204
-320.0701
-316.61057
-319.32749
-317.39247
-318.42343
-318.64559
-318.4809
-317.51695
-315.41432
-320.0701
-317.0219
-329.19241
-334.10138
-327.53675
-331.2197
-331.78621
-331.6138
-331.18637
-330.3521
-330.88169
-329.53588
-334.10138
-330.19637
-329.33203
-332.46941
-332.79127
-332.50303
-331.69317
-330.06689
-332.39391
-332.34558
-327.53675
-329.33203
-327.1744
-330.01455
-330.33462
-330.08751
-329.19078
-326.98404
-328.88342
-330.36072
-331.2197
-332.46941
-330.01455
-332.81216
-333.1453
-332.9372
-332.05832
-329.65575
-330.99211
-331.41416
-331.78621
-332.79127
-330.33462
-333.1453
-333.49025
-333.30417
-332.46501
-330.0886
-331.41609
-331.64254
-331.6138
-332.50303
-330.08751
-332.9372
-333.30417
-333.12837
-332.3032
-329.94578
-331.29274
-331.47066
-331.18637
-331.69317
-329.19078
-332.05832
-332.46501
-332.3032
-331.46903
-329.07931
-330.35702
-330.45549
-330.3521
-330.06689
-326.98404
-329.65575
-330.0886
-329.94578
-329.07931
-326.58977
-327.70878
-328.23855
-330.88169
-332.39391
-328.88342
-330.99211
-331.41609
-331.29274
-330.35702
-327.70878
-328.93794
-333.17801
-329.53588
-332.34558
-330.36072
-331.41416
-331.64254
-331.47066
-330.45549
-328.23855
-333.17801
-329.93362
-340.10127
-345.10012
-338.41863
-342.1765
-342.75477
-342.57798
-342.13277
-341.25693
-341.81021
-340.42771
-345.10012
-341.14701
-340.25441
-343.45696
-343.78737
-343.49191
-342.64942
-340.94592
-343.36656
-343.31287
-338.41863
-340.25441
-338.04879
-340.94996
-341.27888
-341.02615
-340.09454
-337.79079
-339.77387
-341.2904
-342.1765
-343.45696
-340.94996
-343.8078
-344.15006
-343.9376
-343.02439
-340.51801
-341.92224
-342.35983
-342.75477
-343.78737
-341.27888
-344.15006
-344.50435
-344.31459
-343.44228
-340.96232
-342.35674
-342.59301
-342.57798
-343.49191
-341.02615
-343.9376
-344.31459
-344.13551
-343.27767
-340.81704
-342.2308
-342.41499
-342.13277
-342.64942
-340.09454
-343.02439
-343.44228
-343.27767
-342.41056
-339.91604
-341.2565
-341.35487
-341.25693
-340.94592
-337.79079
-340.51801
-340.96232
-340.81704
-339.91604
-337.31633
-338.48837
-339.03729
-341.81021
-343.36656
-339.77387
-341.92224
-342.35674
-342.2308
-341.2565
-338.48837
-339.77404
-344.22996
-340.42771
-343.31287
-341.2904
-342.35983
-342.59301
-342.41499
-341.35487
-339.03729
-344.22996
-340.8094
-348.91179
-353.96969
-347.21256
-351.02215
-351.60862
-351.42854
-350.96829
-350.05628
-350.62984
-349.21917
-353.96969
-349.99286
-349.07749
-352.32547
-352.66238
-352.36152
-351.49161
-349.7214
-352.22072
-352.16199
-347.21256
-349.07749
-346.83751
-349.7818
-350.11753
-349.86073
-348.89999
-346.51345
-348.56798
-350.11438
-351.02215
-352.32547
-349.7818
-352.68224
-353.03149
-352.81598
-351.87407
-349.27936
-350.74277
-351.1932
-351.60862
-352.66238
-350.11753
-353.03149
-353.39294
-353.20067
-352.30059
-349.73239
-351.18512
-351.42975
-351.42854
-352.36152
-349.86073
-352.81598
-353.20067
-353.01941
-352.1342
-349.58553
-351.05736
-351.24669
-350.96829
-351.49161
-348.89999
-351.87407
-352.30059
-352.1342
-351.23949
-348.65557
-350.0505
-350.14816
-350.05628
-349.7214
-346.51345
-349.27936
-349.73239
-349.58553
-348.65557
-345.96173
-347.17956
-347.74424
-350.62984
-352.22072
-348.56798
-350.74277
-351.18512
-351.05736
-350.0505
-347.17956
-348.5138
-353.15805
-349.21917
-352.16199
-350.11438
-351.1932
-351.42975
-351.24669
-350.14816
-347.74424
-353.15805
-349.58244
-355.56994
-360.6557
-353.86459
-357.70243
-358.29346
-358.1112
-357.63876
-356.6962
-357.28649
-355.85637
-360.6557
-356.67967
-355.74719
-359.02056
-359.36189
-359.05748
-358.1655
-356.33951
-358.90209
-358.83868
-353.86459
-355.74719
-353.48665
-356.45589
-356.79636
-356.53709
-355.55314
-353.09853
-355.21184
-356.77857
-357.70243
-359.02056
-356.45589
-359.38105
-359.73515
-359.51791
-358.55311
-355.88607
-357.39964
-357.86013
-358.29346
-359.36189
-356.79636
-359.73515
-360.10152
-359.90793
-358.98562
-356.34502
-357.8471
-358.09858
-358.1112
-359.05748
-356.53709
-359.51791
-359.90793
-359.7256
-358.81846
-356.19749
-357.71831
-357.91161
-357.63876
-358.1655
-355.55314
-358.55311
-358.98562
-358.81846
-357.90168
-355.2443
-356.68509
-356.78144
-356.6962
-356.33951
-353.09853
-355.88607
-356.34502
-356.19749
-355.2443
-352.47296
-353.72906
-354.30601
-357.28649
-358.90209
-355.21184
-357.39964
-357.8471
-357.71831
-356.68509
-353.72906
-355.10364
-359.90756
-355.85637
-358.83868
-356.77857
-357.86013
-358.09858
-357.91161
-356.78144
-354.30601
-359.90756
-356.19895
-360.03499
-365.11725
-358.33404
-362.17645
-362.76841
-362.58509
-362.10336
-361.13608
-361.73946
-360.29869
-365.11725
-361.16654
-360.22269
-363.50127
-363.84492
-363.53884
-362.6303
-360.75978
-363.36981
-363.30212
-358.33404
-360.22269
-357.95553
-360.93143
-361.27454
-361.01438
-360.01329
-357.50576
-359.6648
-361.2422
-362.17645
-363.50127
-360.93143
-363.86327
-364.22001
-364.00239
-363.02066
-360.29774
-361.85212
-362.31982
-362.76841
-363.84492
-361.27454
-364.22001
-364.58905
-364.39533
-363.45649
-360.75977
-362.30193
-362.55871
-362.58509
-363.53884
-361.01438
-364.00239
-364.39533
-364.21305
-363.2896
-360.61248
-362.1729
-362.36898
-362.10336
-362.6303
-360.01329
-363.02066
-363.45649
-363.2896
-362.3564
-359.64194
-361.1197
-361.21415
-361.13608
-360.75978
-357.50576
-360.29774
-360.75977
-360.61248
-359.64194
-356.81019
-358.09681
-358.68248
-361.73946
-363.36981
-359.6648
-361.85212
-362.30193
-362.1729
-361.1197
-358.09681
-359.50325
-364.43721
-360.29869
-363.30212
-361.2422
-362.31982
-362.55871
-362.36898
-361.21415
-358.68248
-364.43721
-360.61849
-362.27976
-367.3272
-360.5937
-364.41699
-365.00622
-364.82297
-364.33494
-363.34889
-363.96164
-362.51911
-367.3272
-363.42615
-362.47676
-365.74033
-366.08418
-365.77831
-364.85881
-362.95531
-365.59669
-365.52513
-360.5937
-362.47676
-360.21696
-363.18116
-363.52479
-363.26535
-362.25329
-359.7083
-361.89976
-363.47811
-364.41699
-365.74033
-363.18116
-366.10159
-366.4588
-366.24212
-365.24951
-362.48751
-364.07312
-364.54515
-365.00622
-366.08418
-363.52479
-366.4588
-366.82822
-366.63556
-365.68598
-362.94979
-364.52251
-364.78299
-364.82297
-365.77831
-363.26535
-366.24212
-366.63556
-366.45446
-365.52038
-362.80364
-364.39404
-364.59168
-364.33494
-364.85881
-362.25329
-365.24951
-365.68598
-365.52038
-364.57651
-361.82174
-363.32734
-363.41931
-363.34889
-362.95531
-359.7083
-362.48751
-362.94979
-362.80364
-361.82174
-358.94704
-360.25625
-360.84702
-363.96164
-365.59669
-361.89976
-364.07312
-364.52251
-364.39404
-363.32734
-360.25625
-361.68586
-366.71941
-362.51911
-365.52513
-363.47811
-364.54515
-364.78299
-364.59168
-363.41931
-360.84702
-366.71941
-362.81415
-362.29078
-367.27227
-360.62999
-364.41059
-364.99347
-364.81142
-364.32008
-363.32136
-363.93969
-362.5043
-367.27227
-363.44492
-362.49585
-365.72429
-366.06622
-365.76245
-364.83766
-362.91292
-365.56936
-365.49437
-360.62999
-362.49585
-360.25733
-363.19156
-363.5336
-363.27647
-362.2597
-359.69294
-361.90331
-363.47286
-364.41059
-365.72429
-363.19156
-366.08259
-366.43805
-366.22366
-365.2263
-362.44225
-364.0493
-364.52275
-364.99347
-366.06622
-363.5336
-366.43805
-366.80558
-366.61517
-365.66071
-362.90191
-364.4955
-364.75809
-364.81142
-365.76245
-363.27647
-366.22366
-366.61517
-366.43638
-365.49742
-362.75781
-364.36837
-364.56637
-364.32008
-364.83766
-362.2597
-365.2263
-365.66071
-365.49742
-364.54871
-361.7706
-363.29477
-363.38368
-363.32136
-362.91292
-359.69294
-362.44225
-362.90191
-362.75781
-361.7706
-358.87069
-360.19441
-360.78663
-363.93969
-365.56936
-361.90331
-364.0493
-364.4955
-364.36837
-363.29477
-360.19441
-361.63838
-366.74048
-362.5043
-365.49437
-363.47286
-364.52275
-364.75809
-364.56637
-363.38368
-360.78663
-366.74048
-362.77275
-360.06832
-364.95318
-358.44304
-362.15766
-362.73059
-362.55086
-362.05925
-361.05401
-361.67412
-360.25471
-364.95318
-361.22312
-360.2802
-363.45363
-363.79152
-363.49173
-362.56735
-360.63323
-363.28837
-363.21041
-358.44304
-360.2802
-358.07677
-360.96295
-361.30129
-361.04806
-360.03283
-357.46014
-359.67577
-361.22687
-362.15766
-363.45363
-360.96295
-363.80676
-364.15828
-363.9475
-362.95153
-360.1626
-361.78118
-362.25314
-362.73059
-363.79152
-361.30129
-364.15828
-364.52166
-364.33467
-363.3812
-360.61682
-362.22144
-362.48451
-362.55086
-363.49173
-361.04806
-363.9475
-364.33467
-364.15927
-363.22124
-360.47565
-362.09645
-362.29356
-362.05925
-362.56735
-360.03283
-362.95153
-363.3812
-363.22124
-362.27353
-359.48921
-361.02256
-361.10786
-361.05401
-360.63323
-357.46014
-360.1626
-360.61682
-360.47565
-359.48921
-356.58197
-357.91204
-358.50207
-361.67412
-363.28837
-359.67577
-361.78118
-362.22144
-362.09645
-361.02256
-357.91204
-359.36146
-364.50065
-360.25471
-363.21041
-361.22687
-362.25314
-362.48451
-362.29356
-361.10786
-358.50207
-364.50065
-360.49493
-355.62646
-360.38458
-354.0467
-357.67245
-358.2319
-358.0556
-357.56675
-356.56119
-357.17926
-355.78457
-360.38458
-356.77479
-355.84384
-358.94269
-359.27448
-358.9805
-358.06224
-356.13068
-358.76812
-358.68769
-354.0467
-355.84384
-353.68907
-356.50941
-356.84197
-356.5942
-355.58677
-353.02401
-355.23126
-356.75434
-357.67245
-358.94269
-356.50941
-359.28848
-359.6339
-359.42803
-358.43959
-355.66297
-357.28311
-357.75066
-358.2319
-359.27448
-356.84197
-359.6339
-359.99088
-359.80847
-358.86188
-356.10895
-357.71471
-357.97665
-358.0556
-358.9805
-356.5942
-359.42803
-359.80847
-359.63756
-358.70623
-355.97158
-357.59262
-357.78765
-357.56675
-358.06224
-355.58677
-358.43959
-358.86188
-358.70623
-357.76537
-354.99201
-356.52506
-356.60624
-356.56119
-356.13068
-353.02401
-355.66297
-356.10895
-355.97158
-354.99201
-352.09536
-353.42357
-354.00778
-357.17926
-358.76812
-355.23126
-357.28311
-357.71471
-357.59262
-356.52506
-353.42357
-354.86952
-360.01409
-355.78457
-358.68769
-356.75434
-357.75066
-357.97665
-357.78765
-356.60624
-354.00778
-360.01409
-355.9951
-348.99293
-353.59499
-347.46842
-350.98296
-351.52549
-351.35371
-350.87063
-349.87094
-350.48316
-349.1218
-353.59499
-350.1277
-349.21447
-352.21965
-352.54329
-352.25694
-351.35045
-349.43335
-352.03686
-351.95443
-347.46842
-349.21447
-347.12164
-349.85877
-350.18348
-349.94271
-348.9493
-346.41226
-348.59751
-350.08319
-350.98296
-352.21965
-349.85877
-352.55597
-352.89316
-352.69347
-351.71865
-348.97146
-350.58317
-351.04343
-351.52549
-352.54329
-350.18348
-352.89316
-353.24155
-353.06484
-352.13096
-349.40645
-351.00346
-351.26264
-351.35371
-352.25694
-349.94271
-352.69347
-353.06484
-352.89946
-351.98058
-349.27374
-350.88502
-351.07677
-350.87063
-351.35045
-348.9493
-351.71865
-352.13096
-351.98058
-351.05236
-348.30706
-349.83038
-349.90693
-349.87094
-349.43335
-346.41226
-348.97146
-349.40645
-349.27374
-348.30706
-345.43886
-346.75703
-347.33181
-350.48316
-352.03686
-348.59751
-350.58317
-351.00346
-350.88502
-349.83038
-346.75703
-348.19059
-353.30884
-349.1218
-351.95443
-350.08319
-351.04343
-351.26264
-351.07677
-349.90693
-347.33181
-353.30884
-349.30134
-340.20894
-344.62661
-338.74908
-342.13076
-342.65302
-342.48682
-342.01249
-341.02485
-341.62744
-340.30779
-344.62661
-341.32317
-340.43327
-343.32628
-343.63977
-343.36283
-342.4737
-340.58287
-343.1364
-343.0525
-338.74908
-340.43327
-338.41528
-341.05233
-341.36722
-341.13492
-340.16164
-337.66596
-339.81576
-341.25488
-342.13076
-343.32628
-341.05233
-343.65106
-343.97794
-343.78566
-342.83047
-340.12965
-341.72299
-342.17312
-342.65302
-343.63977
-341.36722
-343.97794
-344.31559
-344.14567
-343.23026
-340.55097
-342.12938
-342.38422
-342.48682
-343.36283
-341.13492
-343.78566
-344.14567
-343.98685
-343.08608
-340.42373
-342.01533
-342.20261
-342.01249
-342.4737
-340.16164
-342.83047
-343.23026
-343.08608
-342.17624
-339.47591
-340.9801
-341.05156
-341.02485
-340.58287
-337.66596
-340.12965
-340.55097
-340.42373
-339.47591
-336.65384
-337.95385
-338.51565
-341.62744
-343.1364
-339.81576
-341.72299
-342.12938
-342.01533
-340.9801
-337.95385
-339.36617
-344.42656
-340.30779
-343.0525
-341.25488
-342.17312
-342.38422
-342.20261
-341.05156
-338.51565
-344.42656
-340.45525
-329.32894
-333.53501
-327.94272
-331.17072
-331.6695
-331.5099
-331.04726
-330.07775
-330.66699
-329.39719
-333.53501
-330.41577
-329.55469
-332.3177
-332.61912
-332.35329
-331.487
-329.63411
-332.12192
-332.03706
-327.94272
-329.55469
-327.62395
-330.1447
-330.44781
-330.22542
-329.27829
-326.83935
-328.94045
-330.32415
-331.17072
-332.3177
-330.1447
-332.62894
-332.94351
-332.75982
-331.83016
-329.19234
-330.7575
-331.19474
-331.6695
-332.61912
-330.44781
-332.94351
-333.26834
-333.10627
-332.21497
-329.5974
-331.14749
-331.39642
-331.5099
-332.35329
-330.22542
-332.75982
-333.10627
-332.95498
-332.07787
-329.47642
-331.03854
-331.22019
-331.04726
-331.487
-329.27829
-331.83016
-332.21497
-332.07787
-331.19201
-328.55331
-330.0291
-330.09503
-330.07775
-329.63411
-326.83935
-329.19234
-329.5974
-329.47642
-328.55331
-325.79475
-327.06859
-327.61397
-330.66699
-332.12192
-328.94045
-330.7575
-331.14749
-331.03854
-330.0291
-327.06859
-328.45099
-333.42232
-329.39719
-332.03706
-330.32415
-331.19474
-331.39642
-331.22019
-330.09503
-327.61397
-333.42232
-329.51169
-316.42027
-320.38883
-315.11622
-318.17066
-318.6429
-318.49089
-318.04278
-317.09738
-317.66966
-316.45752
-320.38883
-317.473
-316.64604
-319.26205
-319.54954
-319.29645
-318.45835
-316.65481
-319.06158
-318.9763
-315.11622
-316.64604
-314.81446
-317.20337
-317.49285
-317.28175
-316.36658
-313.99942
-316.03887
-317.35864
-318.17066
-319.26205
-317.20337
-319.55783
-319.85815
-319.6842
-318.78579
-316.22723
-317.75457
-318.17622
-318.6429
-319.54954
-317.49285
-319.85815
-320.16817
-320.01495
-319.15325
-316.61354
-318.12576
-318.36724
-318.49089
-319.29645
-317.28175
-319.6842
-320.01495
-319.87213
-319.02409
-316.49957
-318.02258
-318.19749
-318.04278
-318.45835
-316.36658
-318.78579
-319.15325
-319.02409
-318.16767
-315.60685
-317.04516
-317.10515
-317.09738
-316.65481