/*--------------------------------*- C++ -*----------------------------------*\
| =========                 |                                                 |
| \\      /  F ield         | OpenFOAM: The Open Source CFD Toolbox           |
|  \\    /   O peration     | Version:  v2106                                 |
|   \\  /    A nd           | Website:  www.openfoam.com                      |
|    \\/     M anipulation  |                                                 |
\*---------------------------------------------------------------------------*/
FoamFile
{
    version     2.0;
    format      ascii;
    arch        "LSB;label=32;scalar=64";
    class       volScalarField;
    location    "20";
    object      T;
}
// * * * * * * * * * * * * * * * * * * * * * * * * * * * * * * * * * * * * * //

dimensions      [0 0 0 1 0 0 0];

internalField   nonuniform List<scalar> 
4000
(
276.98196
276.98197
276.98194
276.98195
276.98196
276.98197
276.98197
276.98196
276.98196
276.98196
276.98197
276.98195
276.98194
276.98195
276.98196
276.98197
276.98196
276.98196
276.98196
276.98196
276.98194
276.98194
276.98193
276.98195
276.98195
276.98196
276.98195
276.98195
276.98195
276.98195
276.98195
276.98195
276.98195
276.98196
276.98197
276.98197
276.98197
276.98196
276.98196
276.98196
276.98196
276.98196
276.98195
276.98197
276.98198
276.98198
276.98197
276.98196
276.98196
276.98196
276.98197
276.98197
276.98196
276.98197
276.98198
276.98198
276.98197
276.98196
276.98196
276.98196
276.98197
276.98196
276.98195
276.98197
276.98197
276.98197
276.98197
276.98196
276.98195
276.98195
276.98196
276.98196
276.98195
276.98196
276.98196
276.98196
276.98196
276.98195
276.98195
276.98195
276.98196
276.98196
276.98195
276.98196
276.98196
276.98196
276.98195
276.98195
276.98194
276.98194
276.98196
276.98196
276.98195
276.98196
276.98196
276.98196
276.98195
276.98195
276.98194
276.98194
284.94443
284.94445
284.94439
284.94443
284.94445
284.94446
284.94446
284.94445
284.94445
284.94444
284.94445
284.94442
284.9444
284.94443
284.94446
284.94446
284.94446
284.94445
284.94445
284.94445
284.94439
284.9444
284.94438
284.94442
284.94444
284.94445
284.94444
284.94442
284.94442
284.94443
284.94443
284.94443
284.94442
284.94446
284.94448
284.94448
284.94447
284.94445
284.94444
284.94444
284.94445
284.94446
284.94444
284.94448
284.9445
284.9445
284.94448
284.94446
284.94445
284.94445
284.94446
284.94446
284.94445
284.94448
284.9445
284.94449
284.94448
284.94446
284.94444
284.94444
284.94446
284.94446
284.94444
284.94447
284.94448
284.94448
284.94446
284.94444
284.94443
284.94443
284.94445
284.94445
284.94442
284.94445
284.94446
284.94446
284.94444
284.94442
284.94441
284.94441
284.94445
284.94445
284.94442
284.94444
284.94445
284.94444
284.94443
284.94441
284.94439
284.9444
284.94444
284.94445
284.94443
284.94444
284.94445
284.94444
284.94443
284.94441
284.9444
284.9444
292.90261
292.90264
292.90258
292.90263
292.90267
292.90268
292.90267
292.90266
292.90265
292.90264
292.90264
292.9026
292.90258
292.90264
292.90267
292.90268
292.90267
292.90265
292.90265
292.90265
292.90258
292.90258
292.90257
292.90262
292.90266
292.90266
292.90264
292.90262
292.90262
292.90263
292.90263
292.90264
292.90262
292.90268
292.90271
292.90271
292.90269
292.90266
292.90265
292.90265
292.90267
292.90267
292.90266
292.90271
292.90274
292.90273
292.90271
292.90267
292.90266
292.90265
292.90268
292.90268
292.90266
292.90271
292.90273
292.90273
292.9027
292.90266
292.90265
292.90264
292.90267
292.90267
292.90264
292.90269
292.90271
292.9027
292.90267
292.90263
292.90262
292.90261
292.90266
292.90265
292.90262
292.90266
292.90267
292.90266
292.90263
292.9026
292.90258
292.90258
292.90265
292.90265
292.90262
292.90265
292.90266
292.90265
292.90262
292.90258
292.90257
292.90257
292.90264
292.90265
292.90263
292.90265
292.90265
292.90264
292.90261
292.90258
292.90257
292.90257
300.85369
300.85372
300.85365
300.85372
300.85377
300.85378
300.85377
300.85375
300.85374
300.85372
300.85372
300.85368
300.85366
300.85373
300.85378
300.85379
300.85377
300.85374
300.85375
300.85375
300.85365
300.85366
300.85365
300.85372
300.85376
300.85377
300.85374
300.8537
300.85371
300.85372
300.85372
300.85373
300.85372
300.85379
300.85383
300.85383
300.85379
300.85375
300.85374
300.85374
300.85377
300.85378
300.85376
300.85383
300.85387
300.85386
300.85382
300.85377
300.85375
300.85375
300.85378
300.85379
300.85377
300.85383
300.85386
300.85385
300.85381
300.85375
300.85373
300.85373
300.85377
300.85377
300.85374
300.85379
300.85382
300.85381
300.85376
300.85371
300.85369
300.85368
300.85375
300.85374
300.8537
300.85375
300.85377
300.85375
300.85371
300.85365
300.85364
300.85364
300.85374
300.85375
300.85371
300.85374
300.85375
300.85373
300.85369
300.85364
300.85363
300.85364
300.85372
300.85375
300.85372
300.85374
300.85375
300.85373
300.85368
300.85364
300.85364
300.85363
308.79489
308.79493
308.79485
308.79493
308.79499
308.795
308.79498
308.79495
308.79494
308.79492
308.79493
308.79488
308.79486
308.79495
308.795
308.79501
308.79498
308.79494
308.79495
308.79495
308.79485
308.79486
308.79485
308.79494
308.79499
308.79498
308.79494
308.7949
308.7949
308.79492
308.79493
308.79495
308.79494
308.79502
308.79506
308.79506
308.79501
308.79495
308.79494
308.79494
308.79499
308.795
308.79499
308.79506
308.7951
308.79509
308.79504
308.79497
308.79495
308.79495
308.795
308.79501
308.79498
308.79506
308.79509
308.79508
308.79502
308.79494
308.79492
308.79491
308.79498
308.79498
308.79494
308.79501
308.79504
308.79502
308.79496
308.79488
308.79486
308.79485
308.79495
308.79494
308.7949
308.79495
308.79497
308.79494
308.79488
308.79481
308.79479
308.79479
308.79494
308.79495
308.7949
308.79494
308.79495
308.79492
308.79486
308.79479
308.79478
308.7948
308.79492
308.79495
308.79492
308.79494
308.79495
308.79491
308.79485
308.79479
308.7948
308.7948
316.72348
316.72353
316.72344
316.72354
316.7236
316.72361
316.72358
316.72354
316.72353
316.7235
316.72353
316.72348
316.72346
316.72356
316.72362
316.72362
316.72358
316.72353
316.72354
316.72354
316.72344
316.72346
316.72345
316.72355
316.7236
316.72359
316.72354
316.72347
316.72348
316.7235
316.72354
316.72356
316.72355
316.72364
316.72369
316.72367
316.72361
316.72353
316.72352
316.72352
316.7236
316.72362
316.7236
316.72369
316.72373
316.72371
316.72364
316.72355
316.72353
316.72353
316.72361
316.72362
316.72359
316.72367
316.72371
316.72369
316.72361
316.72352
316.72349
316.72348
316.72358
316.72358
316.72354
316.72361
316.72364
316.72361
316.72353
316.72344
316.72341
316.72341
316.72354
316.72353
316.72347
316.72353
316.72355
316.72352
316.72344
316.72334
316.72332
316.72333
316.72353
316.72354
316.72348
316.72352
316.72353
316.72349
316.72341
316.72332
316.72332
316.72335
316.7235
316.72354
316.7235
316.72352
316.72353
316.72348
316.72341
316.72333
316.72335
316.72334
324.63683
324.63688
324.63679
324.63689
324.63696
324.63696
324.63693
324.63688
324.63686
324.63683
324.63688
324.63683
324.6368
324.63691
324.63698
324.63697
324.63692
324.63686
324.63687
324.63687
324.63679
324.6368
324.63679
324.6369
324.63696
324.63694
324.63688
324.6368
324.6368
324.63683
324.63689
324.63691
324.6369
324.637
324.63705
324.63703
324.63695
324.63686
324.63684
324.63685
324.63696
324.63698
324.63696
324.63705
324.6371
324.63707
324.63698
324.63688
324.63685
324.63685
324.63696
324.63697
324.63694
324.63703
324.63707
324.63704
324.63694
324.63683
324.6368
324.63679
324.63693
324.63692
324.63688
324.63695
324.63698
324.63694
324.63685
324.63673
324.6367
324.6367
324.63688
324.63686
324.6368
324.63686
324.63688
324.63683
324.63673
324.63662
324.6366
324.63661
324.63686
324.63687
324.6368
324.63684
324.63685
324.6368
324.6367
324.6366
324.6366
324.63664
324.63683
324.63687
324.63683
324.63685
324.63685
324.63679
324.6367
324.63661
324.63664
324.63662
332.53237
332.53243
332.53233
332.53244
332.53251
332.53251
332.53246
332.5324
332.53238
332.53235
332.53243
332.53237
332.53234
332.53247
332.53253
332.53252
332.53246
332.53238
332.5324
332.5324
332.53233
332.53234
332.53233
332.53245
332.53251
332.53249
332.53241
332.53231
332.53232
332.53235
332.53244
332.53247
332.53245
332.53256
332.53261
332.53259
332.53249
332.53237
332.53236
332.53237
332.53251
332.53253
332.53251
332.53261
332.53266
332.53262
332.53252
332.53239
332.53236
332.53236
332.53251
332.53252
332.53249
332.53259
332.53262
332.53258
332.53247
332.53234
332.5323
332.53229
332.53246
332.53246
332.53241
332.53249
332.53252
332.53247
332.53236
332.53222
332.53218
332.53218
332.5324
332.53238
332.53231
332.53237
332.53239
332.53234
332.53222
332.53209
332.53206
332.53207
332.53238
332.5324
332.53232
332.53236
332.53236
332.5323
332.53218
332.53206
332.53206
332.53211
332.53235
332.5324
332.53235
332.53237
332.53236
332.53229
332.53218
332.53207
332.53211
332.53209
340.40768
340.40774
340.40763
340.40775
340.40782
340.40782
340.40776
340.40768
340.40766
340.40762
340.40774
340.40768
340.40764
340.40778
340.40784
340.40783
340.40775
340.40766
340.40767
340.40767
340.40763
340.40764
340.40763
340.40775
340.40782
340.40779
340.40769
340.40758
340.40759
340.40762
340.40775
340.40778
340.40775
340.40787
340.40793
340.40789
340.40778
340.40765
340.40763
340.40764
340.40782
340.40784
340.40782
340.40793
340.40797
340.40793
340.40781
340.40766
340.40763
340.40762
340.40782
340.40783
340.40779
340.40789
340.40793
340.40788
340.40775
340.40759
340.40755
340.40755
340.40776
340.40775
340.40769
340.40778
340.40781
340.40775
340.40762
340.40746
340.40742
340.40741
340.40768
340.40766
340.40758
340.40765
340.40766
340.40759
340.40746
340.40731
340.40728
340.40729
340.40766
340.40767
340.40759
340.40763
340.40763
340.40755
340.40742
340.40728
340.40728
340.40734
340.40762
340.40767
340.40762
340.40764
340.40762
340.40755
340.40741
340.40729
340.40734
340.40732
348.26042
348.26049
348.26037
348.2605
348.26057
348.26056
348.26049
348.26041
348.26038
348.26034
348.26049
348.26042
348.26039
348.26052
348.26059
348.26057
348.26048
348.26038
348.26039
348.26039
348.26037
348.26039
348.26037
348.2605
348.26056
348.26053
348.26042
348.26029
348.2603
348.26033
348.2605
348.26052
348.2605
348.26063
348.26068
348.26064
348.26051
348.26036
348.26034
348.26035
348.26057
348.26059
348.26056
348.26068
348.26073
348.26067
348.26053
348.26037
348.26033
348.26032
348.26056
348.26057
348.26053
348.26064
348.26067
348.26061
348.26047
348.26029
348.26025
348.26024
348.26049
348.26048
348.26042
348.26051
348.26053
348.26047
348.26031
348.26014
348.2601
348.26009
348.26041
348.26038
348.26029
348.26036
348.26037
348.26029
348.26014
348.25997
348.25994
348.25996
348.26038
348.26039
348.2603
348.26034
348.26033
348.26025
348.2601
348.25994
348.25994
348.26001
348.26034
348.26039
348.26033
348.26035
348.26032
348.26024
348.26009
348.25996
348.26001
348.25998
356.08843
356.08851
356.08837
356.08851
356.08859
356.08857
356.08849
356.0884
356.08836
356.08832
356.08851
356.08844
356.0884
356.08854
356.08861
356.08858
356.08848
356.08837
356.08838
356.08838
356.08837
356.0884
356.08837
356.08851
356.08858
356.08854
356.08841
356.08827
356.08827
356.08831
356.08851
356.08854
356.08851
356.08865
356.0887
356.08865
356.0885
356.08833
356.08831
356.08832
356.08859
356.08861
356.08858
356.0887
356.08874
356.08868
356.08853
356.08834
356.0883
356.08829
356.08857
356.08858
356.08854
356.08865
356.08868
356.08861
356.08845
356.08825
356.08821
356.08819
356.08849
356.08848
356.08841
356.0885
356.08853
356.08845
356.08828
356.08808
356.08804
356.08803
356.0884
356.08837
356.08827
356.08833
356.08834
356.08825
356.08808
356.08789
356.08786
356.08788
356.08836
356.08838
356.08827
356.08831
356.0883
356.08821
356.08804
356.08786
356.08787
356.08795
356.08832
356.08838
356.08831
356.08832
356.08829
356.08819
356.08803
356.08788
356.08795
356.08791
363.88969
363.88977
363.88963
363.88977
363.88985
363.88983
363.88973
363.88963
363.88959
363.88954
363.88977
363.88969
363.88965
363.8898
363.88987
363.88983
363.88972
363.88959
363.8896
363.8896
363.88963
363.88965
363.88963
363.88977
363.88983
363.88978
363.88964
363.88949
363.88949
363.88953
363.88977
363.8898
363.88977
363.88991
363.88996
363.8899
363.88974
363.88955
363.88953
363.88954
363.88985
363.88987
363.88983
363.88996
363.89
363.88993
363.88976
363.88956
363.88951
363.8895
363.88983
363.88983
363.88978
363.8899
363.88993
363.88985
363.88967
363.88946
363.88941
363.88939
363.88973
363.88972
363.88964
363.88974
363.88976
363.88967
363.88948
363.88927
363.88922
363.88921
363.88963
363.88959
363.88949
363.88955
363.88956
363.88946
363.88927
363.88906
363.88903
363.88905
363.88959
363.8896
363.88949
363.88953
363.88951
363.88941
363.88922
363.88903
363.88904
363.88912
363.88954
363.8896
363.88953
363.88954
363.8895
363.88939
363.88921
363.88905
363.88912
363.88909
371.66233
371.66241
371.66227
371.66241
371.66249
371.66246
371.66236
371.66224
371.6622
371.66215
371.66241
371.66233
371.66229
371.66244
371.66251
371.66247
371.66235
371.66221
371.66222
371.66221
371.66227
371.66229
371.66226
371.66241
371.66247
371.66242
371.66226
371.66209
371.6621
371.66213
371.66241
371.66244
371.66241
371.66255
371.6626
371.66253
371.66236
371.66216
371.66213
371.66214
371.66249
371.66251
371.66247
371.6626
371.66264
371.66256
371.66238
371.66216
371.66211
371.6621
371.66246
371.66247
371.66242
371.66253
371.66256
371.66247
371.66228
371.66205
371.66199
371.66198
371.66236
371.66235
371.66226
371.66236
371.66238
371.66228
371.66208
371.66185
371.66179
371.66179
371.66224
371.66221
371.66209
371.66216
371.66216
371.66205
371.66185
371.66163
371.66159
371.66161
371.6622
371.66222
371.6621
371.66213
371.66211
371.66199
371.66179
371.66159
371.6616
371.66169
371.66215
371.66221
371.66213
371.66214
371.6621
371.66198
371.66179
371.66161
371.66169
371.66165
379.40468
379.40476
379.40461
379.40476
379.40484
379.4048
379.40469
379.40457
379.40452
379.40446
379.40476
379.40468
379.40464
379.40479
379.40486
379.40481
379.40468
379.40453
379.40454
379.40453
379.40461
379.40464
379.40461
379.40476
379.40482
379.40475
379.40459
379.40441
379.40441
379.40445
379.40476
379.40479
379.40476
379.4049
379.40495
379.40487
379.40469
379.40447
379.40444
379.40445
379.40484
379.40486
379.40482
379.40495
379.40499
379.4049
379.4047
379.40447
379.40441
379.40441
379.4048
379.40481
379.40475
379.40487
379.4049
379.4048
379.40459
379.40435
379.40429
379.40427
379.40469
379.40468
379.40459
379.40469
379.4047
379.40459
379.40438
379.40413
379.40408
379.40407
379.40457
379.40453
379.40441
379.40447
379.40447
379.40435
379.40413
379.40389
379.40386
379.40388
379.40452
379.40454
379.40441
379.40444
379.40441
379.40429
379.40408
379.40386
379.40387
379.40396
379.40446
379.40453
379.40445
379.40445
379.40441
379.40427
379.40407
379.40388
379.40396
379.40392
387.11524
387.11533
387.11517
387.11532
387.1154
387.11536
387.11524
387.1151
387.11505
387.11499
387.11533
387.11524
387.11519
387.11535
387.11542
387.11537
387.11522
387.11506
387.11507
387.11506
387.11517
387.11519
387.11516
387.11531
387.11537
387.1153
387.11513
387.11493
387.11494
387.11497
387.11532
387.11535
387.11531
387.11546
387.1155
387.11542
387.11522
387.115
387.11496
387.11497
387.1154
387.11542
387.11537
387.1155
387.11554
387.11544
387.11523
387.11499
387.11493
387.11492
387.11536
387.11537
387.1153
387.11542
387.11544
387.11534
387.11512
387.11486
387.1148
387.11478
387.11524
387.11522
387.11513
387.11522
387.11523
387.11512
387.11489
387.11463
387.11457
387.11456
387.1151
387.11506
387.11493
387.115
387.11499
387.11486
387.11463
387.11438
387.11434
387.11437
387.11505
387.11507
387.11494
387.11496
387.11493
387.1148
387.11457
387.11434
387.11435
387.11445
387.11499
387.11506
387.11497
387.11497
387.11492
387.11478
387.11456
387.11437
387.11445
387.11441
394.79272
394.7928
394.79264
394.79279
394.79287
394.79282
394.7927
394.79255
394.7925
394.79244
394.7928
394.79272
394.79267
394.79283
394.79289
394.79283
394.79268
394.79251
394.79251
394.79251
394.79264
394.79267
394.79263
394.79279
394.79284
394.79277
394.79258
394.79238
394.79238
394.79241
394.79279
394.79283
394.79279
394.79293
394.79297
394.79288
394.79268
394.79244
394.7924
394.79241
394.79287
394.79289
394.79284
394.79297
394.79301
394.7929
394.79268
394.79242
394.79237
394.79235
394.79282
394.79283
394.79277
394.79288
394.7929
394.79279
394.79256
394.79229
394.79222
394.79221
394.7927
394.79268
394.79258
394.79268
394.79268
394.79256
394.79232
394.79205
394.79198
394.79197
394.79255
394.79251
394.79238
394.79244
394.79242
394.79229
394.79205
394.79179
394.79174
394.79177
394.7925
394.79251
394.79238
394.7924
394.79237
394.79222
394.79198
394.79174
394.79175
394.79186
394.79244
394.79251
394.79241
394.79241
394.79235
394.79221
394.79197
394.79177
394.79186
394.79182
402.43602
402.4361
402.43594
402.43609
402.43616
402.43611
402.43597
402.43582
402.43577
402.4357
402.4361
402.43602
402.43596
402.43612
402.43618
402.43612
402.43595
402.43578
402.43578
402.43577
402.43594
402.43596
402.43593
402.43608
402.43613
402.43605
402.43586
402.43564
402.43564
402.43568
402.43609
402.43612
402.43608
402.43622
402.43626
402.43617
402.43595
402.4357
402.43566
402.43567
402.43616
402.43618
402.43613
402.43626
402.43629
402.43618
402.43595
402.43568
402.43562
402.43561
402.43611
402.43612
402.43605
402.43617
402.43618
402.43606
402.43582
402.43554
402.43547
402.43545
402.43597
402.43595
402.43586
402.43595
402.43595
402.43582
402.43557
402.43529
402.43522
402.43521
402.43582
402.43578
402.43564
402.4357
402.43568
402.43554
402.43529
402.43502
402.43497
402.435
402.43577
402.43578
402.43564
402.43566
402.43562
402.43547
402.43522
402.43497
402.43498
402.4351
402.4357
402.43577
402.43568
402.43567
402.43561
402.43545
402.43521
402.435
402.4351
402.43505
410.04425
410.04434
410.04417
410.04432
410.04439
410.04434
410.04419
410.04404
410.04398
410.04391
410.04434
410.04425
410.0442
410.04435
410.04441
410.04434
410.04417
410.04399
410.04399
410.04398
410.04417
410.0442
410.04416
410.04431
410.04436
410.04427
410.04407
410.04385
410.04385
410.04388
410.04432
410.04435
410.04431
410.04445
410.04449
410.04439
410.04416
410.04391
410.04387
410.04387
410.04439
410.04441
410.04436
410.04449
410.04451
410.0444
410.04416
410.04388
410.04382
410.04381
410.04434
410.04434
410.04427
410.04439
410.0444
410.04427
410.04402
410.04373
410.04366
410.04364
410.04419
410.04417
410.04407
410.04416
410.04416
410.04402
410.04377
410.04348
410.04341
410.04339
410.04404
410.04399
410.04385
410.04391
410.04388
410.04373
410.04348
410.04319
410.04315
410.04318
410.04398
410.04399
410.04385
410.04387
410.04382
410.04366
410.04341
410.04315
410.04316
410.04328
410.04391
410.04398
410.04388
410.04387
410.04381
410.04364
410.04339
410.04318
410.04328
410.04323
417.61676
417.61685
417.61668
417.61683
417.61689
417.61684
417.61669
417.61652
417.61646
417.61639
417.61685
417.61676
417.6167
417.61686
417.61692
417.61684
417.61666
417.61647
417.61647
417.61646
417.61668
417.6167
417.61667
417.61681
417.61686
417.61677
417.61656
417.61633
417.61633
417.61637
417.61683
417.61686
417.61681
417.61695
417.61699
417.61688
417.61665
417.61639
417.61634
417.61635
417.61689
417.61692
417.61686
417.61699
417.61701
417.61689
417.61664
417.61636
417.61629
417.61628
417.61684
417.61684
417.61677
417.61688
417.61689
417.61676
417.6165
417.6162
417.61613
417.61611
417.61669
417.61666
417.61656
417.61665
417.61664
417.6165
417.61623
417.61594
417.61587
417.61586
417.61652
417.61647
417.61633
417.61639
417.61636
417.6162
417.61594
417.61565
417.6156
417.61563
417.61646
417.61647
417.61633
417.61634
417.61629
417.61613
417.61587
417.6156
417.61561
417.61574
417.61639
417.61646
417.61637
417.61635
417.61628
417.61611
417.61586
417.61563
417.61574
417.61568
425.1531
425.15318
425.15302
425.15316
425.15322
425.15316
425.15301
425.15284
425.15278
425.15271
425.15318
425.1531
425.15304
425.15319
425.15324
425.15316
425.15298
425.15279
425.15279
425.15278
425.15302
425.15304
425.153
425.15315
425.15319
425.15309
425.15288
425.15264
425.15264
425.15268
425.15316
425.15319
425.15315
425.15328
425.15331
425.1532
425.15296
425.15269
425.15265
425.15266
425.15322
425.15324
425.15319
425.15331
425.15333
425.1532
425.15295
425.15266
425.1526
425.15258
425.15316
425.15316
425.15309
425.1532
425.1532
425.15307
425.1528
425.1525
425.15243
425.15241
425.15301
425.15298
425.15288
425.15296
425.15295
425.1528
425.15253
425.15223
425.15216
425.15215
425.15284
425.15279
425.15264
425.15269
425.15266
425.1525
425.15223
425.15194
425.15189
425.15192
425.15278
425.15279
425.15264
425.15265
425.1526
425.15243
425.15216
425.15189
425.1519
425.15203
425.15271
425.15278
425.15268
425.15266
425.15258
425.15241
425.15215
425.15192
425.15203
425.15197
432.65304
432.65312
432.65296
432.6531
432.65316
432.65309
432.65293
432.65276
432.6527
432.65263
432.65312
432.65304
432.65298
432.65313
432.65318
432.65309
432.65291
432.65271
432.65271
432.65269
432.65296
432.65298
432.65294
432.65308
432.65312
432.65302
432.6528
432.65256
432.65256
432.65259
432.6531
432.65313
432.65308
432.65321
432.65324
432.65312
432.65288
432.65261
432.65257
432.65257
432.65316
432.65318
432.65312
432.65324
432.65325
432.65312
432.65287
432.65257
432.65251
432.65249
432.65309
432.65309
432.65302
432.65312
432.65312
432.65298
432.65272
432.65241
432.65234
432.65232
432.65293
432.65291
432.6528
432.65288
432.65287
432.65272
432.65244
432.65214
432.65207
432.65205
432.65276
432.65271
432.65256
432.65261
432.65257
432.65241
432.65214
432.65184
432.65179
432.65182
432.6527
432.65271
432.65256
432.65257
432.65251
432.65234
432.65207
432.65179
432.65181
432.65193
432.65263
432.65269
432.65259
432.65257
432.65249
432.65232
432.65205
432.65182
432.65193
432.65188
440.11659
440.11667
440.1165
440.11664
440.11669
440.11663
440.11646
440.11629
440.11623
440.11616
440.11667
440.11659
440.11653
440.11667
440.11672
440.11663
440.11644
440.11624
440.11623
440.11622
440.1165
440.11653
440.11649
440.11662
440.11666
440.11655
440.11633
440.11609
440.11609
440.11612
440.11664
440.11667
440.11662
440.11675
440.11677
440.11665
440.11641
440.11614
440.11609
440.1161
440.11669
440.11672
440.11666
440.11677
440.11678
440.11665
440.11639
440.1161
440.11603
440.11601
440.11663
440.11663
440.11655
440.11665
440.11665
440.11651
440.11624
440.11593
440.11586
440.11584
440.11646
440.11644
440.11633
440.11641
440.11639
440.11624
440.11596
440.11565
440.11558
440.11557
440.11629
440.11624
440.11609
440.11614
440.1161
440.11593
440.11565
440.11536
440.11531
440.11534
440.11623
440.11623
440.11609
440.11609
440.11603
440.11586
440.11558
440.11531
440.11532
440.11545
440.11616
440.11622
440.11612
440.1161
440.11601
440.11584
440.11557
440.11534
440.11545
440.11539
447.54397
447.54405
447.54389
447.54402
447.54407
447.54399
447.54383
447.54365
447.54359
447.54352
447.54405
447.54397
447.54391
447.54405
447.54409
447.544
447.5438
447.5436
447.5436
447.54358
447.54389
447.54391
447.54386
447.544
447.54403
447.54392
447.5437
447.54346
447.54345
447.54348
447.54402
447.54405
447.544
447.54412
447.54414
447.54401
447.54377
447.5435
447.54345
447.54346
447.54407
447.54409
447.54403
447.54414
447.54414
447.54401
447.54375
447.54345
447.54339
447.54337
447.54399
447.544
447.54392
447.54401
447.54401
447.54386
447.54359
447.54329
447.54321
447.54319
447.54383
447.5438
447.5437
447.54377
447.54375
447.54359
447.54332
447.54301
447.54294
447.54292
447.54365
447.5436
447.54346
447.5435
447.54345
447.54329
447.54301
447.54271
447.54266
447.54269
447.54359
447.5436
447.54345
447.54345
447.54339
447.54321
447.54294
447.54266
447.54268
447.5428
447.54352
447.54358
447.54348
447.54346
447.54337
447.54319
447.54292
447.54269
447.5428
447.54275
454.93563
454.93571
454.93555
454.93567
454.93572
454.93564
454.93548
454.9353
454.93524
454.93517
454.93571
454.93563
454.93557
454.9357
454.93574
454.93564
454.93545
454.93525
454.93524
454.93523
454.93555
454.93557
454.93553
454.93565
454.93568
454.93557
454.93535
454.93511
454.9351
454.93513
454.93567
454.9357
454.93565
454.93577
454.93578
454.93566
454.93542
454.93514
454.9351
454.9351
454.93572
454.93574
454.93568
454.93578
454.93578
454.93565
454.93539
454.9351
454.93503
454.93501
454.93564
454.93564
454.93557
454.93566
454.93565
454.9355
454.93523
454.93493
454.93486
454.93483
454.93548
454.93545
454.93535
454.93542
454.93539
454.93523
454.93496
454.93465
454.93458
454.93457
454.9353
454.93525
454.93511
454.93514
454.9351
454.93493
454.93465
454.93436
454.93431
454.93434
454.93524
454.93524
454.9351
454.9351
454.93503
454.93486
454.93458
454.93431
454.93432
454.93445
454.93517
454.93523
454.93513
454.9351
454.93501
454.93483
454.93457
454.93434
454.93445
454.93439
462.29225
462.29232
462.29216
462.29228
462.29232
462.29224
462.29208
462.29191
462.29184
462.29177
462.29232
462.29224
462.29218
462.29231
462.29234
462.29224
462.29205
462.29185
462.29185
462.29183
462.29216
462.29218
462.29214
462.29226
462.29228
462.29217
462.29195
462.29171
462.2917
462.29173
462.29228
462.29231
462.29226
462.29237
462.29238
462.29225
462.29201
462.29174
462.2917
462.2917
462.29232
462.29234
462.29228
462.29238
462.29237
462.29224
462.29198
462.29169
462.29163
462.29161
462.29224
462.29224
462.29217
462.29225
462.29224
462.29209
462.29183
462.29153
462.29145
462.29143
462.29208
462.29205
462.29195
462.29201
462.29198
462.29183
462.29156
462.29125
462.29118
462.29117
462.29191
462.29185
462.29171
462.29174
462.29169
462.29153
462.29125
462.29096
462.29092
462.29094
462.29184
462.29185
462.2917
462.2917
462.29163
462.29145
462.29118
462.29092
462.29093
462.29105
462.29177
462.29183
462.29173
462.2917
462.29161
462.29143
462.29117
462.29094
462.29105
462.291
469.61469
469.61476
469.61462
469.61472
469.61476
469.61468
469.61452
469.61435
469.61428
469.61421
469.61476
469.61469
469.61463
469.61475
469.61478
469.61468
469.61449
469.61429
469.61428
469.61427
469.61462
469.61463
469.61459
469.6147
469.61472
469.61461
469.61439
469.61416
469.61415
469.61417
469.61472
469.61475
469.6147
469.6148
469.61481
469.61468
469.61445
469.61418
469.61414
469.61414
469.61476
469.61478
469.61472
469.61481
469.6148
469.61467
469.61441
469.61413
469.61407
469.61405
469.61468
469.61468
469.61461
469.61468
469.61467
469.61452
469.61426
469.61397
469.61389
469.61387
469.61452
469.61449
469.61439
469.61445
469.61441
469.61426
469.61399
469.6137
469.61363
469.61362
469.61435
469.61429
469.61416
469.61418
469.61413
469.61397
469.6137
469.61341
469.61337
469.61339
469.61428
469.61428
469.61415
469.61414
469.61407
469.61389
469.61363
469.61337
469.61338
469.6135
469.61421
469.61427
469.61417
469.61414
469.61405
469.61387
469.61362
469.61339
469.6135
469.61345
476.90408
476.90414
476.904
476.9041
476.90413
476.90405
476.90389
476.90372
476.90366
476.90359
476.90414
476.90407
476.90402
476.90412
476.90414
476.90405
476.90386
476.90367
476.90366
476.90364
476.904
476.90402
476.90398
476.90408
476.90409
476.90398
476.90377
476.90354
476.90352
476.90355
476.9041
476.90412
476.90408
476.90417
476.90417
476.90405
476.90382
476.90356
476.90351
476.90351
476.90413
476.90414
476.90409
476.90417
476.90416
476.90403
476.90378
476.9035
476.90344
476.90343
476.90405
476.90405
476.90398
476.90405
476.90403
476.90388
476.90363
476.90334
476.90327
476.90325
476.90389
476.90386
476.90377
476.90382
476.90378
476.90363
476.90337
476.90308
476.90301
476.903
476.90372
476.90367
476.90354
476.90356
476.9035
476.90334
476.90308
476.9028
476.90276
476.90278
476.90366
476.90366
476.90352
476.90351
476.90344
476.90327
476.90301
476.90276
476.90277
476.90289
476.90359
476.90364
476.90355
476.90351
476.90343
476.90325
476.903
476.90278
476.90289
476.90284
484.16169
484.16175
484.16162
484.16171
484.16173
484.16165
484.16149
484.16133
484.16127
484.1612
484.16175
484.16168
484.16163
484.16173
484.16174
484.16165
484.16147
484.16128
484.16127
484.16125
484.16162
484.16163
484.16159
484.16168
484.16169
484.16158
484.16137
484.16115
484.16114
484.16116
484.16171
484.16173
484.16168
484.16177
484.16176
484.16164
484.16142
484.16117
484.16112
484.16112
484.16173
484.16174
484.16169
484.16176
484.16175
484.16162
484.16138
484.16111
484.16105
484.16104
484.16165
484.16165
484.16158
484.16164
484.16162
484.16148
484.16123
484.16095
484.16089
484.16087
484.16149
484.16147
484.16137
484.16142
484.16138
484.16123
484.16098
484.1607
484.16064
484.16062
484.16133
484.16128
484.16115
484.16117
484.16111
484.16095
484.1607
484.16043
484.16039
484.16042
484.16127
484.16127
484.16114
484.16112
484.16105
484.16089
484.16064
484.16039
484.1604
484.16052
484.1612
484.16125
484.16116
484.16112
484.16104
484.16087
484.16062
484.16042
484.16052
484.16046
491.38903
491.38908
491.38896
491.38904
491.38906
491.38898
491.38883
491.38867
491.3886
491.38854
491.38908
491.38902
491.38897
491.38906
491.38907
491.38898
491.3888
491.38862
491.3886
491.38859
491.38896
491.38897
491.38893
491.38902
491.38902
491.38891
491.38871
491.3885
491.38848
491.3885
491.38904
491.38906
491.38902
491.38909
491.38908
491.38896
491.38875
491.38851
491.38846
491.38846
491.38906
491.38907
491.38902
491.38908
491.38906
491.38894
491.38871
491.38845
491.38839
491.38838
491.38898
491.38898
491.38891
491.38896
491.38894
491.3888
491.38856
491.3883
491.38823
491.38821
491.38883
491.3888
491.38871
491.38875
491.38871
491.38856
491.38832
491.38805
491.38799
491.38798
491.38867
491.38862
491.3885
491.38851
491.38845
491.3883
491.38805
491.3878
491.38775
491.38778
491.3886
491.3886
491.38848
491.38846
491.38839
491.38823
491.38799
491.38775
491.38777
491.38788
491.38854
491.38859
491.3885
491.38846
491.38838
491.38821
491.38798
491.38778
491.38788
491.38783
498.58777
498.58782
498.58771
498.58778
498.58779
498.58771
498.58757
498.58741
498.58735
498.5873
498.58782
498.58777
498.58772
498.5878
498.5878
498.58771
498.58754
498.58737
498.58735
498.58734
498.58771
498.58772
498.58768
498.58775
498.58775
498.58765
498.58746
498.58725
498.58724
498.58726
498.58778
498.5878
498.58775
498.58782
498.58781
498.58769
498.58749