/*--------------------------------*- C++ -*----------------------------------*\
| =========                 |                                                 |
| \\      /  F ield         | OpenFOAM: The Open Source CFD Toolbox           |
|  \\    /   O peration     | Version:  v2106                                 |
|   \\  /    A nd           | Website:  www.openfoam.com                      |
|    \\/     M anipulation  |                                                 |
\*---------------------------------------------------------------------------*/
FoamFile
{
    version     2.0;
    format      ascii;
    arch        "LSB;label=32;scalar=64";
    class       volVectorField;
    location    "67.5";
    object      flux;
}
// * * * * * * * * * * * * * * * * * * * * * * * * * * * * * * * * * * * * * //

dimensions      [0 1 -1 1 0 0 0];

internalField   nonuniform List<vector> 
4000
(
(3.6875041e-07 3.687504e-07 0.72844522)
(8.1020772e-07 3.2694095e-07 0.72844795)
(4.0796463e-07 3.1724872e-07 0.72844926)
(2.2102289e-07 3.1348471e-07 0.72845004)
(7.0608328e-08 3.1127657e-07 0.7284504)
(-6.02296e-08 3.0925522e-07 0.7284504)
(-1.7187245e-07 3.0650249e-07 0.72845008)
(-2.5339187e-07 3.0144232e-07 0.72844948)
(-2.7064087e-07 2.9004694e-07 0.72844872)
(-8.5615926e-08 2.6232745e-07 0.72844799)
(3.2694096e-07 8.1020771e-07 0.72844795)
(7.3295519e-07 7.3295519e-07 0.72845034)
(3.8778026e-07 7.0869565e-07 0.72845157)
(2.1206466e-07 6.967218e-07 0.72845233)
(6.4264097e-08 6.8856397e-07 0.72845267)
(-6.7390719e-08 6.8085143e-07 0.72845266)
(-1.8359181e-07 6.7105026e-07 0.72845231)
(-2.780752e-07 6.5536533e-07 0.72845168)
(-3.2931317e-07 6.2611998e-07 0.72845082)
(-1.1333542e-07 5.6944707e-07 0.72844984)
(3.1724873e-07 4.0796462e-07 0.72844926)
(7.0869565e-07 3.8778027e-07 0.72845157)
(3.7173123e-07 3.7173123e-07 0.72845276)
(2.0089121e-07 3.5969083e-07 0.72845348)
(5.4737958e-08 3.4962307e-07 0.7284538)
(-7.774331e-08 3.3972911e-07 0.72845376)
(-1.9735855e-07 3.2829663e-07 0.72845339)
(-2.9832215e-07 3.1342189e-07 0.72845271)
(-3.5655913e-07 2.9356789e-07 0.72845178)
(-1.2339787e-07 2.7186414e-07 0.72845072)
(3.1348472e-07 2.2102288e-07 0.72845004)
(6.967218e-07 2.1206465e-07 0.72845233)
(3.5969083e-07 2.0089122e-07 0.72845348)
(1.8995651e-07 1.8995651e-07 0.72845417)
(4.4302373e-08 1.7952472e-07 0.72845447)
(-8.8717167e-08 1.690938e-07 0.7284544)
(-2.0989903e-07 1.5796693e-07 0.72845399)
(-3.1280394e-07 1.4566656e-07 0.72845328)
(-3.7087093e-07 1.327584e-07 0.72845231)
(-1.2780458e-07 1.2257527e-07 0.72845122)
(3.1127658e-07 7.0608332e-08 0.7284504)
(6.8856399e-07 6.4264087e-08 0.72845267)
(3.4962309e-07 5.4737958e-08 0.7284538)
(1.7952471e-07 4.4302378e-08 0.72845447)
(3.3875251e-08 3.3875262e-08 0.72845473)
(-9.9301102e-08 2.3569036e-08 0.72845464)
(-2.207858e-07 1.3248192e-08 0.7284542)
(-3.2353067e-07 3.0272349e-09 0.72845346)
(-3.7965041e-07 -6.1832122e-09 0.72845247)
(-1.3018662e-07 -1.2213582e-08 0.72845135)
(3.0925522e-07 -6.0229589e-08 0.7284504)
(6.8085143e-07 -6.7390724e-08 0.72845266)
(3.3972912e-07 -7.774333e-08 0.72845376)
(1.6909381e-07 -8.8717189e-08 0.7284544)
(2.3569031e-08 -9.9301105e-08 0.72845464)
(-1.0934424e-07 -1.0934423e-07 0.72845451)
(-2.3044083e-07 -1.1892734e-07 0.72845405)
(-3.3223535e-07 -1.2789678e-07 0.72845329)
(-3.8611174e-07 -1.3548271e-07 0.72845227)
(-1.3182483e-07 -1.4013204e-07 0.72845115)
(3.0650249e-07 -1.7187245e-07 0.72845008)
(6.7105025e-07 -1.8359182e-07 0.72845231)
(3.2829662e-07 -1.9735854e-07 0.72845339)
(1.5796693e-07 -2.0989903e-07 0.72845399)
(1.3248214e-08 -2.2078581e-07 0.7284542)
(-1.1892734e-07 -2.3044084e-07 0.72845405)
(-2.3933835e-07 -2.3933834e-07 0.72845357)
(-3.4008604e-07 -2.4764489e-07 0.72845278)
(-3.9188567e-07 -2.5489481e-07 0.72845175)
(-1.3328617e-07 -2.5962285e-07 0.72845061)
(3.0144231e-07 -2.5339187e-07 0.72844948)
(6.5536534e-07 -2.780752e-07 0.72845168)
(3.134219e-07 -2.9832214e-07 0.72845271)
(1.4566654e-07 -3.1280392e-07 0.72845328)
(3.027223e-09 -3.2353067e-07 0.72845346)
(-1.2789677e-07 -3.3223537e-07 0.72845329)
(-2.4764488e-07 -3.4008604e-07 0.72845278)
(-3.4779182e-07 -3.4779182e-07 0.72845197)
(-3.980897e-07 -3.5542993e-07 0.72845092)
(-1.3497685e-07 -3.6150965e-07 0.72844976)
(2.9004694e-07 -2.7064087e-07 0.72844872)
(6.2611999e-07 -3.2931317e-07 0.72845082)
(2.935679e-07 -3.5655914e-07 0.72845178)
(1.327584e-07 -3.7087093e-07 0.72845231)
(-6.1832314e-09 -3.7965041e-07 0.72845247)
(-1.3548271e-07 -3.8611173e-07 0.72845227)
(-2.5489481e-07 -3.9188567e-07 0.72845175)
(-3.5542992e-07 -3.9808969e-07 0.72845092)
(-4.056035e-07 -4.0560349e-07 0.72844984)
(-1.3733932e-07 -4.1382997e-07 0.72844867)
(2.6232745e-07 -8.5615924e-08 0.72844799)
(5.6944707e-07 -1.1333541e-07 0.72844984)
(2.7186413e-07 -1.2339787e-07 0.72845072)
(1.2257528e-07 -1.2780459e-07 0.72845122)
(-1.2213576e-08 -1.3018662e-07 0.72845135)
(-1.4013203e-07 -1.3182482e-07 0.72845115)
(-2.5962284e-07 -1.3328617e-07 0.72845061)
(-3.6150964e-07 -1.3497684e-07 0.72844976)
(-4.1382997e-07 -1.3733931e-07 0.72844867)
(-1.4046117e-07 -1.4046116e-07 0.72844746)
(1.6197949e-06 1.6197949e-06 1.0835542)
(3.630486e-06 1.416049e-06 1.0835576)
(1.9236249e-06 1.3708857e-06 1.0835593)
(1.0596602e-06 1.3530852e-06 1.0835604)
(3.335305e-07 1.342361e-06 1.0835609)
(-3.0827015e-07 1.3324436e-06 1.0835609)
(-8.6328488e-07 1.3188515e-06 1.0835604)
(-1.2850442e-06 1.2934203e-06 1.0835594)
(-1.4308941e-06 1.2328685e-06 1.0835582)
(-4.6944193e-07 1.0584798e-06 1.0835568)
(1.416049e-06 3.630486e-06 1.0835576)
(3.2571221e-06 3.2571221e-06 1.0835605)
(1.8291793e-06 3.143812e-06 1.0835622)
(1.0168732e-06 3.0866459e-06 1.0835632)
(3.0256797e-07 3.0469216e-06 1.0835637)
(-3.4353442e-07 3.0090868e-06 1.0835637)
(-9.2181979e-07 2.9607934e-06 1.0835631)
(-1.4140188e-06 2.8826717e-06 1.0835621)
(-1.7833048e-06 2.7314994e-06 1.0835607)
(-6.4383057e-07 2.3973803e-06 1.0835589)
(1.3708857e-06 1.9236249e-06 1.0835593)
(3.143812e-06 1.8291793e-06 1.0835622)
(1.7531488e-06 1.7531488e-06 1.0835638)
(9.6276976e-07 1.6948677e-06 1.0835648)
(2.5597132e-07 1.6456654e-06 1.0835652)
(-3.9439835e-07 1.5971189e-06 1.0835651)
(-9.8969993e-07 1.540902e-06 1.0835646)
(-1.5143382e-06 1.4675743e-06 1.0835635)
(-1.9161855e-06 1.3693388e-06 1.083562)
(-6.9218801e-07 1.2645158e-06 1.08356)
(1.3530852e-06 1.0596602e-06 1.0835604)
(3.0866459e-06 1.0168732e-06 1.0835632)
(1.6948677e-06 9.6276976e-07 1.0835648)
(9.0938987e-07 9.0938987e-07 1.0835658)
(2.0481914e-07 8.5827076e-07 1.0835662)
(-4.4829783e-07 8.0705749e-07 1.083566)
(-1.0513643e-06 7.5236743e-07 1.0835654)
(-1.585582e-06 6.9186726e-07 1.0835643)
(-1.9863633e-06 6.2837423e-07 1.0835627)
(-7.1371261e-07 5.7853747e-07 1.0835607)
(1.342361e-06 3.3353049e-07 1.0835609)
(3.0469216e-06 3.0256797e-07 1.0835637)
(1.6456654e-06 2.5597132e-07 1.0835652)
(8.5827076e-07 2.0481914e-07 1.0835662)
(1.5363894e-07 1.5363893e-07 1.0835665)
(-5.0030168e-07 1.0300128e-07 1.0835663)
(-1.1048902e-06 5.2249609e-08 1.0835657)
(-1.6383313e-06 1.9538774e-09 1.0835645)
(-2.0295153e-06 -4.3387517e-08 1.0835629)
(-7.2541252e-07 -7.3063305e-08 1.0835609)
(1.3324436e-06 -3.0827015e-07 1.0835609)
(3.0090868e-06 -3.4353442e-07 1.0835637)
(1.5971189e-06 -3.9439835e-07 1.0835651)
(8.0705749e-07 -4.4829784e-07 1.083566)
(1.0300128e-07 -5.003017e-07 1.0835663)
(-5.4968715e-07 -5.4968715e-07 1.0835661)
(-1.1524117e-06 -5.968695e-07 1.0835654)
(-1.6812191e-06 -6.4111569e-07 1.0835642)
(-2.0613805e-06 -6.7864661e-07 1.0835626)
(-7.3349647e-07 -7.0173784e-07 1.0835605)
(1.3188515e-06 -8.6328489e-07 1.0835604)
(2.9607934e-06 -9.2181978e-07 1.0835631)
(1.540902e-06 -9.8969992e-07 1.0835646)
(7.5236741e-07 -1.0513643e-06 1.0835654)
(5.2249627e-08 -1.1048902e-06 1.0835657)
(-5.9686949e-07 -1.1524117e-06 1.0835654)
(-1.1963187e-06 -1.1963187e-06 1.0835647)
(-1.7201085e-06 -1.2375314e-06 1.0835634)
(-2.0901374e-06 -1.2738905e-06 1.0835618)
(-7.4080667e-07 -1.2980679e-06 1.0835597)
(1.2934203e-06 -1.2850442e-06 1.0835594)
(2.8826717e-06 -1.4140188e-06 1.0835621)
(1.4675743e-06 -1.5143382e-06 1.0835635)
(6.9186724e-07 -1.585582e-06 1.0835643)
(1.9538787e-09 -1.6383313e-06 1.0835645)
(-6.4111569e-07 -1.6812191e-06 1.0835642)
(-1.2375314e-06 -1.7201085e-06 1.0835634)
(-1.7587909e-06 -1.7587909e-06 1.0835622)
(-2.121917e-06 -1.7983222e-06 1.0835605)
(-7.4961475e-07 -1.8319524e-06 1.0835584)
(1.2328685e-06 -1.4308941e-06 1.0835582)
(2.7314994e-06 -1.7833048e-06 1.0835607)
(1.3693389e-06 -1.9161855e-06 1.083562)
(6.2837424e-07 -1.9863633e-06 1.0835627)
(-4.3387526e-08 -2.0295153e-06 1.0835629)
(-6.7864661e-07 -2.0613805e-06 1.0835626)
(-1.2738905e-06 -2.0901374e-06 1.0835618)
(-1.7983222e-06 -2.121917e-06 1.0835605)
(-2.1632989e-06 -2.1632989e-06 1.0835587)
(-7.6322678e-07 -2.2184229e-06 1.0835566)
(1.0584798e-06 -4.6944193e-07 1.0835568)
(2.3973803e-06 -6.4383057e-07 1.0835589)
(1.2645158e-06 -6.9218801e-07 1.08356)
(5.7853748e-07 -7.1371261e-07 1.0835607)
(-7.3063313e-08 -7.2541252e-07 1.0835609)
(-7.0173784e-07 -7.3349647e-07 1.0835605)
(-1.2980679e-06 -7.4080667e-07 1.0835597)
(-1.8319523e-06 -7.4961475e-07 1.0835584)
(-2.2184228e-06 -7.6322678e-07 1.0835566)
(-7.8636406e-07 -7.8636405e-07 1.0835543)
(2.6302225e-06 2.6302225e-06 1.0835005)
(5.9731529e-06 2.2996972e-06 1.0835034)
(3.2671815e-06 2.2252402e-06 1.0835049)
(1.811015e-06 2.1948922e-06 1.0835059)
(5.4064488e-07 2.1760875e-06 1.0835063)
(-6.0672809e-07 2.1584197e-06 1.0835062)
(-1.6249044e-06 2.1339949e-06 1.0835057)
(-2.4564244e-06 2.0879086e-06 1.0835046)
(-2.9398549e-06 1.976942e-06 1.0835032)
(-1.0217429e-06 1.6531368e-06 1.0835015)
(2.2996972e-06 5.9731529e-06 1.0835034)
(5.3656793e-06 5.3656793e-06 1.0835059)
(3.1099739e-06 5.1768297e-06 1.0835074)
(1.737286e-06 5.0784291e-06 1.0835083)
(4.8593613e-07 5.0084934e-06 1.0835087)
(-6.6986701e-07 4.9410636e-06 1.0835086)
(-1.730671e-06 4.8544241e-06 1.083508)
(-2.6920039e-06 4.7134734e-06 1.0835069)
(-3.5920126e-06 4.4387155e-06 1.0835053)
(-1.3455481e-06 3.8260748e-06 1.0835032)
(2.2252402e-06 3.2671814e-06 1.0835049)
(5.1768297e-06 3.1099739e-06 1.0835074)
(2.9799313e-06 2.9799313e-06 1.0835088)
(1.6426787e-06 2.8781068e-06 1.0835097)
(4.0327938e-07 2.7909869e-06 1.0835101)
(-7.6079747e-07 2.7043803e-06 1.0835099)
(-1.8524946e-06 2.60369e-06 1.0835093)
(-2.8721329e-06 2.4720946e-06 1.0835081)
(-3.8272535e-06 2.2960106e-06 1.0835064)
(-1.4301701e-06 2.1120467e-06 1.0835042)
(2.1948922e-06 1.811015e-06 1.0835059)
(5.0784291e-06 1.737286e-06 1.0835083)
(2.8781068e-06 1.6426787e-06 1.0835097)
(1.5483416e-06 1.5483416e-06 1.0835105)
(3.1220971e-07 1.457387e-06 1.0835109)
(-8.5716386e-07 1.365886e-06 1.0835107)
(-1.9629567e-06 1.2679366e-06 1.08351)
(-2.9996832e-06 1.1594758e-06 1.0835088)
(-3.9520605e-06 1.0458095e-06 1.0835071)
(-1.4681907e-06 9.574454e-07 1.0835047)
(2.1760875e-06 5.4064488e-07 1.0835063)
(5.0084934e-06 4.8593613e-07 1.0835087)
(2.7909869e-06 4.0327939e-07 1.0835101)
(1.457387e-06 3.122097e-07 1.0835109)
(2.2082376e-07 2.2082376e-07 1.0835112)
(-9.5024781e-07 1.3018833e-07 1.0835109)
(-2.0589048e-06 3.9162692e-08 1.0835102)
(-3.09426e-06 -5.119149e-08 1.083509)
(-4.0292839e-06 -1.327029e-07 1.0835072)
(-1.4890795e-06 -1.8595649e-07 1.0835048)
(2.1584197e-06 -6.0672809e-07 1.0835062)
(4.9410637e-06 -6.6986701e-07 1.0835086)
(2.7043803e-06 -7.6079747e-07 1.0835099)
(1.365886e-06 -8.5716387e-07 1.0835107)
(1.3018834e-07 -9.5024781e-07 1.0835109)
(-1.0388249e-06 -1.0388249e-06 1.0835107)
(-2.1443365e-06 -1.1237132e-06 1.0835099)
(-3.1715488e-06 -1.2036862e-06 1.0835086)
(-4.0868255e-06 -1.2719793e-06 1.0835068)
(-1.5036931e-06 -1.3143677e-06 1.0835044)
(2.1339949e-06 -1.6249044e-06 1.0835057)
(4.8544241e-06 -1.730671e-06 1.083508)
(2.60369e-06 -1.8524946e-06 1.0835093)
(1.2679366e-06 -1.9629567e-06 1.08351)
(3.9162689e-08 -2.0589048e-06 1.0835102)
(-1.1237132e-06 -2.1443365e-06 1.0835099)
(-2.223766e-06 -2.2237661e-06 1.0835091)
(-3.2425262e-06 -2.2992533e-06 1.0835078)
(-4.1399654e-06 -2.3674534e-06 1.0835059)
(-1.5173384e-06 -2.4147947e-06 1.0835035)
(2.0879086e-06 -2.4564244e-06 1.0835046)
(4.7134734e-06 -2.6920039e-06 1.0835069)
(2.4720946e-06 -2.8721329e-06 1.0835081)
(1.1594758e-06 -2.9996832e-06 1.0835088)
(-5.11915e-08 -3.09426e-06 1.083509)
(-1.2036862e-06 -3.1715488e-06 1.0835086)
(-2.2992533e-06 -3.2425262e-06 1.0835078)
(-3.3152361e-06 -3.3152361e-06 1.0835064)
(-4.202367e-06 -3.3944687e-06 1.0835046)
(-1.535254e-06 -3.4715663e-06 1.0835021)
(1.976942e-06 -2.9398549e-06 1.0835032)
(4.4387155e-06 -3.5920126e-06 1.0835053)
(2.2960106e-06 -3.8272535e-06 1.0835064)
(1.0458095e-06 -3.9520605e-06 1.0835071)
(-1.327029e-07 -4.0292839e-06 1.0835072)
(-1.2719793e-06 -4.0868255e-06 1.0835068)
(-2.3674534e-06 -4.1399654e-06 1.0835059)
(-3.3944687e-06 -4.202367e-06 1.0835046)
(-4.2962956e-06 -4.2962956e-06 1.0835026)
(-1.5687367e-06 -4.473021e-06 1.0835002)
(1.6531368e-06 -1.0217429e-06 1.0835015)
(3.8260748e-06 -1.3455481e-06 1.0835032)
(2.1120467e-06 -1.4301701e-06 1.0835042)
(9.574454e-07 -1.4681907e-06 1.0835047)
(-1.8595649e-07 -1.4890795e-06 1.0835048)
(-1.3143677e-06 -1.5036931e-06 1.0835044)
(-2.4147947e-06 -1.5173384e-06 1.0835035)
(-3.4715663e-06 -1.535254e-06 1.0835021)
(-4.473021e-06 -1.5687367e-06 1.0835002)
(-1.6530709e-06 -1.6530709e-06 1.0834975)
(3.544987e-06 3.544987e-06 1.0834154)
(8.0831219e-06 3.1001217e-06 1.0834181)
(4.4630504e-06 2.9995433e-06 1.0834195)
(2.463627e-06 2.9577366e-06 1.0834203)
(6.7575715e-07 2.9312821e-06 1.0834207)
(-9.6845569e-07 2.9060607e-06 1.0834205)
(-2.4582709e-06 2.8709048e-06 1.0834199)
(-3.7259279e-06 2.8041855e-06 1.0834188)
(-4.5736513e-06 2.6426544e-06 1.0834173)
(-1.6186661e-06 2.1687875e-06 1.0834155)
(3.1001216e-06 8.0831219e-06 1.0834181)
(7.2649562e-06 7.2649563e-06 1.0834204)
(4.2494728e-06 7.008296e-06 1.0834217)
(2.3612352e-06 6.8718503e-06 1.0834226)
(5.9824321e-07 6.7731418e-06 1.0834229)
(-1.0590216e-06 6.6768532e-06 1.0834227)
(-2.6110836e-06 6.5523175e-06 1.083422)
(-4.0683035e-06 6.3488465e-06 1.0834209)
(-5.5267484e-06 5.9507083e-06 1.0834192)
(-2.092533e-06 5.0596525e-06 1.083417)
(2.9995433e-06 4.4630504e-06 1.0834195)
(7.008296e-06 4.2494729e-06 1.0834217)
(4.0699445e-06 4.0699445e-06 1.083423)
(2.2284728e-06 3.9271938e-06 1.0834238)
(4.8076005e-07 3.8036142e-06 1.0834241)
(-1.18928e-06 3.6798206e-06 1.0834239)
(-2.7862777e-06 3.5352746e-06 1.0834232)
(-4.3275371e-06 3.3459898e-06 1.083422)
(-5.8628452e-06 3.0928809e-06 1.0834202)
(-2.2127033e-06 2.8314349e-06 1.0834179)
(2.9577366e-06 2.463627e-06 1.0834203)
(6.8718503e-06 2.3612352e-06 1.0834226)
(3.9271938e-06 2.2284728e-06 1.0834238)
(2.0949049e-06 2.0949049e-06 1.0834245)
(3.5086998e-07 1.96527e-06 1.0834248)
(-1.3273612e-06 1.8342602e-06 1.0834246)
(-2.9449144e-06 1.6936208e-06 1.0834238)
(-4.5106972e-06 1.537697e-06 1.0834225)
(-6.0413033e-06 1.3744386e-06 1.0834207)
(-2.2668304e-06 1.2483276e-06 1.0834183)
(2.9312821e-06 6.7575716e-07 1.0834207)
(6.7731418e-06 5.9824319e-07 1.0834229)
(3.8036142e-06 4.8076006e-07 1.0834241)
(1.96527e-06 3.5086997e-07 1.0834248)
(2.2011537e-07 2.2011537e-07 1.083425)
(-1.4609292e-06 9.006529e-08 1.0834247)
(-3.082841e-06 -4.0867934e-08 1.0834239)
(-4.6467192e-06 -1.710837e-07 1.0834226)
(-6.1522146e-06 -2.886595e-07 1.0834208)
(-2.2967773e-06 -3.6537432e-07 1.0834184)
(2.9060607e-06 -9.6845569e-07 1.0834205)
(6.6768533e-06 -1.0590216e-06 1.0834227)
(3.6798206e-06 -1.18928e-06 1.0834239)
(1.8342602e-06 -1.3273612e-06 1.0834246)
(9.0065299e-08 -1.4609292e-06 1.0834247)
(-1.5883445e-06 -1.5883445e-06 1.0834244)
(-3.2060634e-06 -1.71089e-06 1.0834236)
(-4.7584888e-06 -1.8268964e-06 1.0834222)
(-6.235594e-06 -1.9265712e-06 1.0834204)
(-2.3179736e-06 -1.9888618e-06 1.0834179)
(2.8709048e-06 -2.4582709e-06 1.0834199)
(6.5523175e-06 -2.6110836e-06 1.083422)
(3.5352746e-06 -2.7862777e-06 1.0834232)
(1.6936208e-06 -2.9449144e-06 1.0834238)
(-4.0867938e-08 -3.082841e-06 1.0834239)
(-1.71089e-06 -3.2060634e-06 1.0834236)
(-3.3213929e-06 -3.3213929e-06 1.0834227)
(-4.8624005e-06 -3.4322684e-06 1.0834213)
(-6.31418e-06 -3.5342885e-06 1.0834194)
(-2.3383043e-06 -3.6069476e-06 1.083417)
(2.8041856e-06 -3.7259278e-06 1.0834188)
(6.3488465e-06 -4.0683035e-06 1.0834209)
(3.3459898e-06 -4.3275371e-06 1.083422)
(1.537697e-06 -4.5106972e-06 1.0834225)
(-1.7108371e-07 -4.6467192e-06 1.0834226)
(-1.8268964e-06 -4.7584888e-06 1.0834222)
(-3.4322684e-06 -4.8624005e-06 1.0834213)
(-4.9713843e-06 -4.9713844e-06 1.0834199)
(-6.4102732e-06 -5.0947932e-06 1.083418)
(-2.3664131e-06 -5.2212881e-06 1.0834155)
(2.6426544e-06 -4.5736513e-06 1.0834173)
(5.9507083e-06 -5.5267484e-06 1.0834192)
(3.0928809e-06 -5.8628452e-06 1.0834202)
(1.3744386e-06 -6.0413033e-06 1.0834207)
(-2.886595e-07 -6.1522146e-06 1.0834208)
(-1.9265712e-06 -6.235594e-06 1.0834204)
(-3.5342885e-06 -6.31418e-06 1.0834194)
(-5.0947932e-06 -6.4102732e-06 1.083418)
(-6.5640838e-06 -6.5640838e-06 1.083416)
(-2.4226343e-06 -6.8741671e-06 1.0834134)
(2.1687875e-06 -1.6186661e-06 1.0834155)
(5.0596525e-06 -2.092533e-06 1.083417)
(2.8314349e-06 -2.2127033e-06 1.0834179)
(1.2483276e-06 -2.2668304e-06 1.0834183)
(-3.6537432e-07 -2.2967773e-06 1.0834184)
(-1.9888618e-06 -2.3179736e-06 1.0834179)
(-3.6069476e-06 -2.3383043e-06 1.083417)
(-5.2212881e-06 -2.3664131e-06 1.0834155)
(-6.8741671e-06 -2.4226343e-06 1.0834134)
(-2.5731353e-06 -2.5731353e-06 1.0834106)
(4.4090612e-06 4.4090612e-06 1.0833002)
(1.0052684e-05 3.8541562e-06 1.0833028)
(5.5433152e-06 3.7289809e-06 1.0833041)
(3.0256697e-06 3.6764167e-06 1.0833048)
(7.4018543e-07 3.6426695e-06 1.0833051)
(-1.3891789e-06 3.6101156e-06 1.0833049)
(-3.3468294e-06 3.5644279e-06 1.0833042)
(-5.0508304e-06 3.4773733e-06 1.0833031)
(-6.2541569e-06 3.2659832e-06 1.0833016)
(-2.2281583e-06 2.644358e-06 1.0832997)
(3.8541563e-06 1.0052684e-05 1.0833028)
(9.0325629e-06 9.0325629e-06 1.083305)
(5.2767058e-06 8.7122258e-06 1.0833062)
(2.8962026e-06 8.53997e-06 1.0833069)
(6.4073379e-07 8.4137602e-06 1.0833072)
(-1.5065413e-06 8.2894559e-06 1.083307)
(-3.545943e-06 8.1277755e-06 1.0833063)
(-5.4984974e-06 7.8627763e-06 1.0833051)
(-7.5036799e-06 7.3431339e-06 1.0833034)
(-2.8497836e-06 6.1782272e-06 1.0833011)
(3.7289809e-06 5.5433152e-06 1.0833041)
(8.7122258e-06 5.2767058e-06 1.0833062)
(5.0507223e-06 5.0507223e-06 1.0833074)
(2.7272041e-06 4.8691738e-06 1.0833081)
(4.896713e-07 4.7105634e-06 1.0833083)
(-1.6751635e-06 4.5506226e-06 1.083308)
(-3.773509e-06 4.3631337e-06 1.0833073)
(-5.835472e-06 4.1171815e-06 1.083306)
(-7.938706e-06 3.7884131e-06 1.0833042)
(-3.0047627e-06 3.4511307e-06 1.0833019)
(3.6764167e-06 3.0256697e-06 1.0833048)
(8.53997e-06 2.8962026e-06 1.0833069)
(4.8691738e-06 2.7272041e-06 1.0833081)
(2.5560437e-06 2.5560437e-06 1.0833087)
(3.221826e-07 2.3889948e-06 1.0833089)
(-1.8539709e-06 2.2194649e-06 1.0833086)
(-3.9793841e-06 2.0369758e-06 1.0833078)
(-6.0732181e-06 1.8344018e-06 1.0833065)
(-8.1697307e-06 1.6224087e-06 1.0833047)
(-3.0746385e-06 1.4593285e-06 1.0833023)
(3.6426695e-06 7.4018543e-07 1.0833051)
(8.4137602e-06 6.4073379e-07 1.0833072)
(4.7105634e-06 4.896713e-07 1.0833083)
(2.3889948e-06 3.221826e-07 1.0833089)
(1.5309249e-07 1.5309249e-07 1.0833091)
(-2.0271825e-06 -1.5552146e-08 1.0833087)
(-4.1585721e-06 -1.8575661e-07 1.0833079)
(-6.2500392e-06 -3.5533839e-07 1.0833066)
(-8.3137793e-06 -5.0858602e-07 1.0833047)
(-3.1134828e-06 -6.0848055e-07 1.0833022)
(3.6101156e-06 -1.3891788e-06 1.0833049)
(8.2894559e-06 -1.5065413e-06 1.083307)
(4.5506226e-06 -1.6751635e-06 1.083308)
(2.2194649e-06 -1.8539709e-06 1.0833086)
(-1.5552148e-08 -2.0271825e-06 1.0833087)
(-2.19282e-06 -2.19282e-06 1.0833084)
(-4.3191703e-06 -2.3526641e-06 1.0833075)
(-6.3960475e-06 -2.504609e-06 1.0833061)
(-8.4228729e-06 -2.6357779e-06 1.0833042)
(-3.1412348e-06 -2.7181169e-06 1.0833017)
(3.5644279e-06 -3.3468295e-06 1.0833042)
(8.1277755e-06 -3.545943e-06 1.0833063)
(4.3631338e-06 -3.773509e-06 1.0833073)
(2.0369758e-06 -3.9793841e-06 1.0833078)
(-1.8575661e-07 -4.1585721e-06 1.0833079)
(-2.3526641e-06 -4.3191704e-06 1.0833075)
(-4.4703612e-06 -4.4703612e-06 1.0833066)
(-6.533153e-06 -4.617025e-06 1.0833052)
(-8.5272872e-06 -4.7536341e-06 1.0833032)
(-3.1683755e-06 -4.8523134e-06 1.0833007)
(3.4773733e-06 -5.0508304e-06 1.0833031)
(7.8627764e-06 -5.4984974e-06 1.0833051)
(4.1171815e-06 -5.835472e-06 1.083306)
(1.8344018e-06 -6.0732181e-06 1.0833065)
(-3.553384e-07 -6.2500392e-06 1.0833066)
(-2.504609e-06 -6.3960475e-06 1.0833061)
(-4.617025e-06 -6.533153e-06 1.0833052)
(-6.6793204e-06 -6.6793204e-06 1.0833037)
(-8.6581613e-06 -6.8484231e-06 1.0833017)
(-3.2070211e-06 -7.025575e-06 1.0832992)
(3.2659832e-06 -6.2541569e-06 1.0833016)
(7.3431339e-06 -7.5036799e-06 1.0833034)
(3.7884131e-06 -7.938706e-06 1.0833042)
(1.6224087e-06 -8.1697307e-06 1.0833047)
(-5.0858603e-07 -8.3137793e-06 1.0833047)
(-2.6357779e-06 -8.4228729e-06 1.0833042)
(-4.753634e-06 -8.5272872e-06 1.0833032)
(-6.8484231e-06 -8.6581613e-06 1.0833017)
(-8.8735418e-06 -8.8735418e-06 1.0832997)
(-3.2864767e-06 -9.3167264e-06 1.0832971)
(2.644358e-06 -2.2281583e-06 1.0832997)
(6.1782272e-06 -2.8497836e-06 1.0833011)
(3.4511307e-06 -3.0047627e-06 1.0833019)
(1.4593285e-06 -3.0746385e-06 1.0833023)
(-6.0848057e-07 -3.1134828e-06 1.0833022)
(-2.7181169e-06 -3.1412348e-06 1.0833017)
(-4.8523134e-06 -3.1683755e-06 1.0833007)
(-7.025575e-06 -3.2070211e-06 1.0832992)
(-9.3167264e-06 -3.2864767e-06 1.0832971)
(-3.5024774e-06 -3.5024774e-06 1.0832943)
(5.2320214e-06 5.2320214e-06 1.0831562)
(1.1909354e-05 4.5705575e-06 1.0831586)
(6.5287075e-06 4.4218486e-06 1.0831598)
(3.5092724e-06 4.3590502e-06 1.0831605)
(7.4303454e-07 4.3183233e-06 1.0831607)
(-1.8570058e-06 4.2786805e-06 1.0831604)
(-4.2704378e-06 4.2227428e-06 1.0831597)
(-6.3984954e-06 4.1158543e-06 1.0831585)
(-7.9397518e-06 3.8558399e-06 1.083157)
(-2.8356932e-06 3.0902247e-06 1.0831552)
(4.5705575e-06 1.1909354e-05 1.0831586)
(1.0694094e-05 1.0694094e-05 1.0831607)
(6.2114464e-06 1.0313017e-05 1.0831618)
(3.3539845e-06 1.0106692e-05 1.0831625)
(6.2248008e-07 9.9541404e-06 1.0831626)
(-2.0003766e-06 9.8027549e-06 1.0831624)
(-4.5146771e-06 9.604949e-06 1.0831616)
(-6.9488499e-06 9.2799716e-06 1.0831604)
(-9.4781963e-06 8.6418803e-06 1.0831587)
(-3.6013083e-06 7.2102269e-06 1.0831565)
(4.4218486e-06 6.5287075e-06 1.0831598)
(1.0313017e-05 6.2114464e-06 1.0831618)
(5.9413054e-06 5.9413055e-06 1.0831629)
(3.1503958e-06 5.7227661e-06 1.0831635)
(4.3909697e-07 5.5305188e-06 1.0831637)
(-2.2061972e-06 5.3356115e-06 1.0831633)
(-4.793221e-06 5.1063727e-06 1.0831626)
(-7.3615641e-06 4.8052101e-06 1.0831613)
(-1.0009497e-05 4.4027317e-06 1.0831595)
(-3.7901287e-06 3.9917153e-06 1.0831572)
(4.3590502e-06 3.5092724e-06 1.0831605)
(1.0106692e-05 3.3539845e-06 1.0831625)
(5.7227661e-06 3.1503958e-06 1.0831635)
(2.9431978e-06 2.9431978e-06 1.0831641)
(2.3532555e-07 2.7400776e-06 1.0831642)
(-2.4245226e-06 2.5332046e-06 1.0831639)
(-5.0450786e-06 2.3099809e-06 1.083163)
(-7.652491e-06 2.0619108e-06 1.0831617)
(-1.0291691e-05 1.8023886e-06 1.0831599)
(-3.8753192e-06 1.603318e-06 1.0831575)
(4.3183233e-06 7.4303454e-07 1.0831607)
(9.9541404e-06 6.2248008e-07 1.0831626)
(5.5305188e-06 4.3909695e-07 1.0831637)
(2.7400776e-06 2.3532555e-07 1.0831642)
(2.910383e-08 2.9103818e-08 1.0831643)
(-2.6362938e-06 -1.7707995e-07 1.0831639)
(-5.2645148e-06 -3.8562555e-07 1.0831631)
(-7.8691565e-06 -5.9373915e-07 1.0831617)
(-1.0468089e-05 -7.8193562e-07 1.0831598)
(-3.9228424e-06 -9.0451904e-07 1.0831574)
(4.2786805e-06 -1.8570058e-06 1.0831604)
(9.8027549e-06 -2.0003766e-06 1.0831624)
(5.3356115e-06 -2.2061972e-06 1.0831633)
(2.5332046e-06 -2.4245226e-06 1.0831639)
(-1.7707995e-07 -2.6362939e-06 1.0831639)
(-2.839252e-06 -2.839252e-06 1.0831635)
(-5.4617378e-06 -3.0356831e-06 1.0831626)
(-8.048801e-06 -3.2230337e-06 1.0831612)
(-1.0602471e-05 -3.3853258e-06 1.0831593)
(-3.9570415e-06 -3.4874944e-06 1.0831569)
(4.2227428e-06 -4.2704378e-06 1.0831597)
(9.604949e-06 -4.5146771e-06 1.0831616)
(5.1063727e-06 -4.793221e-06 1.0831626)
(2.3099809e-06 -5.0450786e-06 1.083163)
(-3.8562556e-07 -5.2645148e-06 1.0831631)
(-3.0356831e-06 -5.4617378e-06 1.0831626)
(-5.6482966e-06 -5.6482966e-06 1.0831617)
(-8.2187991e-06 -5.8304895e-06 1.0831602)
(-1.073255e-05 -6.0015853e-06 1.0831583)
(-3.9909548e-06 -6.1262098e-06 1.0831559)
(4.1158543e-06 -6.3984954e-06 1.0831585)
(9.2799716e-06 -6.9488499e-06 1.0831604)
(4.8052101e-06 -7.3615642e-06 1.0831613)
(2.0619108e-06 -7.652491e-06 1.0831617)
(-5.9373915e-07 -7.8691564e-06 1.0831617)
(-3.2230337e-06 -8.048801e-06 1.0831612)
(-5.8304895e-06 -8.2187991e-06 1.0831602)
(-8.4020897e-06 -8.4020897e-06 1.0831588)
(-1.0898191e-05 -8.616881e-06 1.0831568)
(-4.0401245e-06 -8.8444013e-06 1.0831543)
(3.8558399e-06 -7.9397518e-06 1.083157)
(8.6418803e-06 -9.4781963e-06 1.0831587)
(4.4027317e-06 -1.0009497e-05 1.0831595)
(1.8023886e-06 -1.0291691e-05 1.0831599)
(-7.8193563e-07 -1.0468089e-05 1.0831598)
(-3.3853258e-06 -1.0602471e-05 1.0831593)
(-6.0015853e-06 -1.073255e-05 1.0831583)
(-8.616881e-06 -1.0898191e-05 1.0831568)
(-1.1174862e-05 -1.1174862e-05 1.0831548)
(-4.142635e-06 -1.1749277e-05 1.0831522)
(3.0902247e-06 -2.8356932e-06 1.0831552)
(7.2102269e-06 -3.6013083e-06 1.0831565)
(3.9917153e-06 -3.7901287e-06 1.0831572)
(1.603318e-06 -3.8753192e-06 1.0831575)
(-9.0451905e-07 -3.9228424e-06 1.0831574)
(-3.4874944e-06 -3.9570415e-06 1.0831569)
(-6.1262098e-06 -3.9909548e-06 1.0831559)
(-8.8444013e-06 -4.0401245e-06 1.0831543)
(-1.1749277e-05 -4.142635e-06 1.0831522)
(-4.4230679e-06 -4.4230679e-06 1.0831495)
(6.0143947e-06 6.0143947e-06 1.0829844)
(1.3659887e-05 5.2502798e-06 1.0829867)
(7.4308095e-06 5.0790478e-06 1.0829878)
(3.9252291e-06 5.006491e-06 1.0829884)
(6.9536045e-07 4.9590904e-06 1.0829885)
(-2.3581205e-06 4.91263e-06 1.0829882)
(-5.2101656e-06 4.8467957e-06 1.0829875)
(-7.7441751e-06 4.7207324e-06 1.0829864)
(-9.603512e-06 4.4137087e-06 1.0829848)
(-3.4324903e-06 3.5089075e-06 1.0829831)
(5.2502798e-06 1.3659887e-05 1.0829867)
(1.2256867e-05 1.2256867e-05 1.0829886)
(7.0651263e-06 1.1817768e-05 1.0829897)
(3.7452929e-06 1.1578973e-05 1.0829903)
(5.5456889e-07 1.1401228e-05 1.0829904)
(-2.5265626e-06 1.1223804e-05 1.0829901)
(-5.4980121e-06 1.0991132e-05 1.0829893)
(-8.3938056e-06 1.0608187e-05 1.0829881)
(-1.1421249e-05 9.8556139e-06 1.0829865)
(-4.3372914e-06 8.1662234e-06 1.0829843)
(5.0790478e-06 7.4308095e-06 1.0829878)
(1.1817768e-05 7.0651263e-06 1.0829897)
(6.7529154e-06 6.7529154e-06 1.0829907)
(3.5086888e-06 6.4990959e-06 1.0829912)
(3.4019203e-07 6.2746423e-06 1.0829913)
(-2.7682163e-06 6.0461019e-06 1.082991)
(-5.8257824e-06 5.7765732e-06 1.0829902)
(-8.8796936e-06 5.4220596e-06 1.0829889)
(-1.2045476e-05 4.9483633e-06 1.0829872)
(-4.5587504e-06 4.4662184e-06 1.0829849)
(5.006491e-06 3.9252291e-06 1.0829884)
(1.1578973e-05 3.7452929e-06 1.0829903)
(6.4990959e-06 3.5086888e-06 1.0829912)
(3.2670197e-06 3.2670197e-06 1.0829917)
(1.0157492e-07 3.0292778e-06 1.0829918)
(-3.0246317e-06 2.7864314e-06 1.0829914)
(-6.1220544e-06 2.5238585e-06 1.0829906)
(-9.2220155e-06 2.2317822e-06 1.0829893)
(-1.2377091e-05 1.9262907e-06 1.0829875)
(-4.6587213e-06 1.6924567e-06 1.0829852)
(4.9590904e-06 6.9536046e-07 1.0829885)
(1.1401228e-05 5.545689e-07 1.0829904)
(6.2746422e-06 3.4019202e-07 1.0829913)
(3.0292778e-06 1.0157492e-07 1.0829918)
(-1.4039633e-07 -1.4039632e-07 1.0829919)
(-3.2736356e-06 -3.8282874e-07 1.0829914)
(-6.3804315e-06 -6.284959e-07 1.0829906)
(-9.4772613e-06 -8.7397955e-07 1.0829892)
(-1.2584801e-05 -1.0960881e-06 1.0829874)
(-4.7146398e-06 -1.2406684e-06 1.0829851)
(4.91263e-06 -2.3581205e-06 1.0829882)
(1.1223804e-05 -2.5265626e-06 1.0829901)
(6.0461019e-06 -2.7682163e-06 1.082991)
(2.7864314e-06 -3.0246317e-06 1.0829914)
(-3.8282875e-07 -3.2736356e-06 1.0829914)
(-3.5127312e-06 -3.5127312e-06 1.082991)
(-6.6132052e-06 -3.7447023e-06 1.0829901)
(-9.6896077e-06 -3.9665392e-06 1.0829887)
(-1.2743779e-05 -4.1591962e-06 1.0829868)
(-4.7551082e-06 -4.2807131e-06 1.0829845)
(4.8467957e-06 -5.2101656e-06 1.0829875)
(1.0991132e-05 -5.4980121e-06 1.0829893)
(5.7765732e-06 -5.8257824e-06 1.0829902)
(2.5238585e-06 -6.1220544e-06 1.0829906)
(-6.2849592e-07 -6.3804316e-06 1.0829906)
(-3.7447023e-06 -6.6132052e-06 1.0829901)
(-6.8342395e-06 -6.8342395e-06 1.0829891)
(-9.8917553e-06 -7.0511972e-06 1.0829877)
(-1.2898975e-05 -7.2561104e-06 1.0829858)
(-4.795651e-06 -7.4061726e-06 1.0829835)
(4.7207324e-06 -7.7441752e-06 1.0829864)
(1.0608187e-05 -8.3938056e-06 1.0829881)
(5.4220596e-06 -8.8796936e-06 1.0829889)
(2.2317822e-06 -9.2220155e-06 1.0829893)
(-8.7397956e-07 -9.4772614e-06 1.0829892)
(-3.9665392e-06 -9.6896077e-06 1.0829887)
(-7.0511972e-06 -9.8917553e-06 1.0829877)
(-1.0111479e-05 -1.0111479e-05 1.0829863)
(-1.3098755e-05 -1.0371142e-05 1.0829843)
(-4.8551497e-06 -1.0648028e-05 1.0829819)
(4.4137087e-06 -9.603512e-06 1.0829848)
(9.8556139e-06 -1.1421249e-05 1.0829865)
(4.9483633e-06 -1.2045476e-05 1.0829872)
(1.9262907e-06 -1.2377091e-05 1.0829875)
(-1.0960881e-06 -1.2584801e-05 1.0829874)
(-4.1591962e-06 -1.274378e-05 1.0829868)
(-7.2561103e-06 -1.2898975e-05 1.0829858)
(-1.0371142e-05 -1.3098755e-05 1.0829843)
(-1.3435525e-05 -1.3435524e-05 1.0829824)
(-4.9802413e-06 -1.4138259e-05 1.0829799)
(3.5089075e-06 -3.4324903e-06 1.0829831)
(8.1662234e-06 -4.3372914e-06 1.0829843)
(4.4662184e-06 -4.5587504e-06 1.0829849)
(1.6924567e-06 -4.6587213e-06 1.0829852)
(-1.2406684e-06 -4.7146397e-06 1.0829851)
(-4.2807131e-06 -4.7551082e-06 1.0829845)
(-7.4061726e-06 -4.795651e-06 1.0829835)
(-1.0648028e-05 -4.8551497e-06 1.0829819)
(-1.4138259e-05 -4.9802413e-06 1.0829799)
(-5.3236392e-06 -5.3236392e-06 1.0829772)
(6.7538679e-06 6.7538679e-06 1.0827862)
(1.5303025e-05 5.8916374e-06 1.0827884)
(8.2555615e-06 5.6989699e-06 1.0827894)
(4.2818999e-06 5.6171449e-06 1.0827899)
(6.0756758e-07 5.5633925e-06 1.0827901)
(-2.879374e-06 5.5104192e-06 1.0827897)
(-6.1494645e-06 5.4351065e-06 1.082789)
(-9.0683385e-06 5.2906633e-06 1.0827879)
(-1.1225505e-05 4.9385724e-06 1.0827864)
(-4.0121662e-06 3.9003235e-06 1.0827847)
(5.8916374e-06 1.5303025e-05 1.0827884)