/*--------------------------------*- C++ -*----------------------------------*\
| =========                 |                                                 |
| \\      /  F ield         | OpenFOAM: The Open Source CFD Toolbox           |
|  \\    /   O peration     | Version:  v2106                                 |
|   \\  /    A nd           | Website:  www.openfoam.com                      |
|    \\/     M anipulation  |                                                 |
\*---------------------------------------------------------------------------*/
FoamFile
{
    version     2.0;
    format      ascii;
    arch        "LSB;label=32;scalar=64";
    class       volScalarField;
    location    "67.5";
    object      T;
}
// * * * * * * * * * * * * * * * * * * * * * * * * * * * * * * * * * * * * * //

dimensions      [0 0 0 1 0 0 0];

internalField   nonuniform List<scalar> 
4000
(
275.16711
275.16712
275.16713
275.16713
275.16713
275.16713
275.16713
275.16713
275.16712
275.16712
275.16712
275.16713
275.16713
275.16714
275.16714
275.16714
275.16714
275.16713
275.16713
275.16713
275.16713
275.16713
275.16714
275.16714
275.16714
275.16714
275.16714
275.16714
275.16713
275.16713
275.16713
275.16714
275.16714
275.16714
275.16714
275.16714
275.16714
275.16714
275.16714
275.16713
275.16713
275.16714
275.16714
275.16714
275.16714
275.16714
275.16714
275.16714
275.16714
275.16713
275.16713
275.16714
275.16714
275.16714
275.16714
275.16714
275.16714
275.16714
275.16714
275.16713
275.16713
275.16714
275.16714
275.16714
275.16714
275.16714
275.16714
275.16714
275.16713
275.16713
275.16713
275.16713
275.16714
275.16714
275.16714
275.16714
275.16714
275.16714
275.16713
275.16713
275.16712
275.16713
275.16713
275.16714
275.16714
275.16714
275.16713
275.16713
275.16713
275.16713
275.16712
275.16713
275.16713
275.16713
275.16713
275.16713
275.16713
275.16713
275.16713
275.16712
283.6363
283.63634
283.63636
283.63637
283.63637
283.63637
283.63637
283.63636
283.63635
283.63634
283.63634
283.63637
283.63639
283.6364
283.6364
283.6364
283.6364
283.63639
283.63638
283.63636
283.63636
283.63639
283.63641
283.63642
283.63642
283.63642
283.63641
283.6364
283.63639
283.63637
283.63637
283.6364
283.63642
283.63643
283.63643
283.63643
283.63642
283.63641
283.6364
283.63638
283.63637
283.6364
283.63642
283.63643
283.63643
283.63643
283.63643
283.63642
283.6364
283.63638
283.63637
283.6364
283.63642
283.63643
283.63643
283.63643
283.63642
283.63641
283.6364
283.63638
283.63637
283.6364
283.63641
283.63642
283.63643
283.63642
283.63642
283.63641
283.63639
283.63637
283.63636
283.63639
283.6364
283.63641
283.63642
283.63641
283.63641
283.63639
283.63638
283.63636
283.63635
283.63638
283.63639
283.6364
283.6364
283.6364
283.63639
283.63638
283.63636
283.63634
283.63634
283.63636
283.63637
283.63638
283.63638
283.63638
283.63637
283.63636
283.63634
283.63633
292.04969
292.04975
292.04978
292.0498
292.04981
292.04981
292.0498
292.04978
292.04976
292.04974
292.04975
292.0498
292.04983
292.04985
292.04986
292.04986
292.04985
292.04983
292.04981
292.04977
292.04978
292.04983
292.04986
292.04988
292.04988
292.04988
292.04987
292.04985
292.04983
292.04979
292.0498
292.04985
292.04988
292.04989
292.0499
292.0499
292.04989
292.04987
292.04984
292.04981
292.04981
292.04986
292.04988
292.0499
292.04991
292.0499
292.04989
292.04987
292.04984
292.04981
292.04981
292.04986
292.04988
292.0499
292.0499
292.0499
292.04989
292.04987
292.04984
292.0498
292.0498
292.04985
292.04987
292.04989
292.04989
292.04989
292.04987
292.04985
292.04982
292.04979
292.04978
292.04983
292.04985
292.04987
292.04987
292.04987
292.04985
292.04983
292.0498
292.04977
292.04976
292.04981
292.04983
292.04984
292.04984
292.04984
292.04982
292.0498
292.04977
292.04974
292.04974
292.04977
292.04979
292.04981
292.04981
292.0498
292.04979
292.04977
292.04974
292.0497
300.40811
300.40819
300.40823
300.40826
300.40827
300.40827
300.40826
300.40823
300.4082
300.40816
300.40819
300.40826
300.4083
300.40833
300.40834
300.40834
300.40832
300.4083
300.40826
300.40821
300.40823
300.4083
300.40834
300.40836
300.40837
300.40837
300.40836
300.40833
300.40829
300.40824
300.40826
300.40833
300.40836
300.40839
300.4084
300.40839
300.40838
300.40835
300.40831
300.40825
300.40827
300.40834
300.40837
300.4084
300.4084
300.4084
300.40838
300.40835
300.40831
300.40826
300.40827
300.40834
300.40837
300.40839
300.4084
300.40839
300.40838
300.40834
300.4083
300.40825
300.40826
300.40832
300.40836
300.40838
300.40838
300.40838
300.40836
300.40832
300.40828
300.40823
300.40823
300.4083
300.40833
300.40835
300.40835
300.40834
300.40832
300.40829
300.40825
300.40819
300.4082
300.40826
300.40829
300.40831
300.40831
300.4083
300.40828
300.40825
300.4082
300.40815
300.40816
300.40821
300.40824
300.40825
300.40826
300.40825
300.40823
300.40819
300.40815
300.40809
308.71238
308.71249
308.71254
308.71257
308.71258
308.71258
308.71256
308.71253
308.71249
308.71243
308.71249
308.71257
308.71262
308.71265
308.71267
308.71266
308.71264
308.71261
308.71256
308.7125
308.71254
308.71262
308.71267
308.7127
308.71271
308.71271
308.71269
308.71265
308.7126
308.71253
308.71257
308.71265
308.7127
308.71273
308.71274
308.71273
308.71271
308.71267
308.71262
308.71255
308.71258
308.71267
308.71271
308.71274
308.71275
308.71274
308.71272
308.71268
308.71262
308.71255
308.71258
308.71266
308.71271
308.71273
308.71274
308.71273
308.71271
308.71267
308.71261
308.71254
308.71256
308.71264
308.71269
308.71271
308.71272
308.71271
308.71268
308.71264
308.71258
308.71251
308.71253
308.71261
308.71265
308.71267
308.71268
308.71267
308.71264
308.7126
308.71254
308.71246
308.71249
308.71256
308.7126
308.71262
308.71262
308.71261
308.71258
308.71254
308.71248
308.7124
308.71243
308.7125
308.71253
308.71255
308.71255
308.71254
308.71251
308.71246
308.7124
308.71232
316.96332
316.96343
316.9635
316.96353
316.96355
316.96355
316.96352
316.96348
316.96342
316.96336
316.96343
316.96354
316.9636
316.96363
316.96365
316.96364
316.96362
316.96357
316.96351
316.96343
316.9635
316.9636
316.96365
316.96369
316.9637
316.96369
316.96367
316.96362
316.96356
316.96347
316.96353
316.96363
316.96369
316.96372
316.96373
316.96372
316.9637
316.96365
316.96358
316.96349
316.96355
316.96365
316.9637
316.96373
316.96374
316.96373
316.9637
316.96365
316.96358
316.96349
316.96355
316.96364
316.96369
316.96372
316.96373
316.96372
316.96369
316.96364
316.96357
316.96348
316.96352
316.96362
316.96367
316.9637
316.9637
316.96369
316.96366
316.9636
316.96353
316.96344
316.96348
316.96357
316.96362
316.96365
316.96365
316.96364
316.9636
316.96355
316.96348
316.96338
316.96342
316.96351
316.96356
316.96358
316.96358
316.96357
316.96353
316.96348
316.9634
316.96331
316.96336
316.96343
316.96347
316.96349
316.96349
316.96348
316.96344
316.96338
316.96331
316.96321
325.16168
325.16182
325.16189
325.16193
325.16195
325.16194
325.16191
325.16186
325.1618
325.16172
325.16182
325.16194
325.162
325.16205
325.16206
325.16205
325.16202
325.16197
325.1619
325.1618
325.16189
325.162
325.16207
325.16211
325.16212
325.16211
325.16208
325.16202
325.16195
325.16184
325.16193
325.16205
325.16211
325.16214
325.16216
325.16214
325.16211
325.16205
325.16197
325.16187
325.16195
325.16206
325.16212
325.16216
325.16217
325.16215
325.16212
325.16206
325.16197
325.16187
325.16194
325.16205
325.16211
325.16214
325.16215
325.16214
325.1621
325.16204
325.16195
325.16185
325.16191
325.16202
325.16208
325.16211
325.16212
325.1621
325.16206
325.162
325.16191
325.1618
325.16186
325.16197
325.16202
325.16205
325.16206
325.16204
325.162
325.16193
325.16184
325.16174
325.1618
325.1619
325.16195
325.16197
325.16197
325.16195
325.16191
325.16184
325.16175
325.16164
325.16172
325.1618
325.16184
325.16187
325.16187
325.16185
325.1618
325.16174
325.16164
325.16152
333.30825
333.30841
333.30848
333.30853
333.30855
333.30854
333.30851
333.30845
333.30837
333.30828
333.30841
333.30854
333.30861
333.30866
333.30867
333.30866
333.30863
333.30857
333.30848
333.30837
333.30848
333.30861
333.30868
333.30873
333.30874
333.30873
333.30869
333.30863
333.30853
333.30841
333.30853
333.30866
333.30873
333.30877
333.30878
333.30876
333.30872
333.30866
333.30856
333.30844
333.30855
333.30867
333.30874
333.30878
333.30879
333.30877
333.30873
333.30866
333.30856
333.30844
333.30854
333.30866
333.30873
333.30876
333.30877
333.30875
333.30871
333.30864
333.30854
333.30842
333.30851
333.30863
333.30869
333.30872
333.30873
333.30871
333.30866
333.30859
333.30849
333.30836
333.30845
333.30857
333.30863
333.30866
333.30866
333.30864
333.30859
333.30851
333.30841
333.30829
333.30837
333.30848
333.30853
333.30856
333.30856
333.30854
333.30849
333.30841
333.30831
333.30818
333.30828
333.30837
333.30841
333.30844
333.30844
333.30842
333.30836
333.30829
333.30818
333.30804
341.40378
341.40395
341.40403
341.40408
341.4041
341.40409
341.40405
341.40398
341.4039
341.40379
341.40395
341.40409
341.40417
341.40422
341.40424
341.40423
341.40418
341.40412
341.40402
341.40389
341.40403
341.40417
341.40425
341.4043
341.40431
341.4043
341.40425
341.40418
341.40408
341.40394
341.40408
341.40422
341.4043
341.40434
341.40435
341.40433
341.40429
341.40421
341.40411
341.40397
341.4041
341.40424
341.40431
341.40435
341.40436
341.40434
341.40429
341.40422
341.40411
341.40397
341.40409
341.40423
341.4043
341.40433
341.40434
341.40432
341.40427
341.40419
341.40408
341.40394
341.40405
341.40418
341.40425
341.40429
341.40429
341.40427
341.40422
341.40413
341.40402
341.40388
341.40398
341.40412
341.40418
341.40421
341.40422
341.40419
341.40413
341.40405
341.40393
341.40379
341.4039
341.40402
341.40408
341.40411
341.40411
341.40408
341.40402
341.40393
341.40382
341.40367
341.40379
341.40389
341.40394
341.40397
341.40397
341.40394
341.40388
341.40379
341.40367
341.40351
349.44901
349.44919
349.44928
349.44933
349.44935
349.44933
349.44929
349.44922
349.44912
349.449
349.44919
349.44934
349.44943
349.44948
349.4495
349.44948
349.44943
349.44936
349.44925
349.44911
349.44928
349.44943
349.44951
349.44956
349.44957
349.44956
349.44951
349.44942
349.44931
349.44916
349.44933
349.44948
349.44956
349.4496
349.44962
349.4496
349.44954
349.44946
349.44934
349.44919
349.44935
349.4495
349.44957
349.44962
349.44963
349.4496
349.44955
349.44946
349.44934
349.44919
349.44933
349.44948
349.44956
349.4496
349.4496
349.44958
349.44952
349.44943
349.44931
349.44915
349.44929
349.44943
349.44951
349.44954
349.44955
349.44952
349.44946
349.44937
349.44924
349.44909
349.44922
349.44936
349.44942
349.44946
349.44946
349.44943
349.44937
349.44927
349.44915
349.44899
349.44912
349.44925
349.44931
349.44934
349.44934
349.44931
349.44924
349.44915
349.44902
349.44886
349.449
349.44911
349.44916
349.44919
349.44919
349.44915
349.44909
349.44899
349.44886
349.44868
357.44466
357.44485
357.44494
357.445
357.44502
357.445
357.44495
357.44487
357.44476
357.44464
357.44485
357.44501
357.44511
357.44516
357.44518
357.44516
357.44511
357.44502
357.4449
357.44475
357.44494
357.44511
357.44519
357.44524
357.44526
357.44524
357.44518
357.44509
357.44497
357.44481
357.445
357.44516
357.44524
357.44529
357.4453
357.44528
357.44522
357.44513
357.445
357.44483
357.44502
357.44518
357.44526
357.4453
357.44531
357.44529
357.44523
357.44513
357.445
357.44483
357.445
357.44516
357.44524
357.44528
357.44529
357.44526
357.44519
357.4451
357.44496
357.44479
357.44495
357.44511
357.44518
357.44522
357.44523
357.44519
357.44513
357.44503
357.44489
357.44472
357.44487
357.44502
357.44509
357.44513
357.44513
357.4451
357.44503
357.44492
357.44479
357.44461
357.44476
357.4449
357.44497
357.445
357.445
357.44496
357.44489
357.44479
357.44464
357.44447
357.44464
357.44475
357.44481
357.44483
357.44483
357.44479
357.44472
357.44461
357.44447
357.44428
365.39145
365.39165
365.39175
365.39181
365.39183
365.39181
365.39176
365.39167
365.39156
365.39142
365.39165
365.39183
365.39193
365.39198
365.392
365.39198
365.39192
365.39183
365.3917
365.39154
365.39175
365.39193
365.39202
365.39207
365.39208
365.39206
365.392
365.3919
365.39177
365.3916
365.39181
365.39198
365.39207
365.39212
365.39213
365.3921
365.39204
365.39194
365.3918
365.39162
365.39183
365.392
365.39208
365.39213
365.39214
365.39211
365.39204
365.39194
365.3918
365.39162
365.39181
365.39198
365.39206
365.3921
365.39211
365.39208
365.39201
365.3919
365.39176
365.39158
365.39176
365.39192
365.392
365.39204
365.39204
365.39201
365.39194
365.39183
365.39168
365.3915
365.39167
365.39183
365.3919
365.39194
365.39194
365.3919
365.39183
365.39172
365.39157
365.39138
365.39156
365.3917
365.39177
365.3918
365.3918
365.39176
365.39168
365.39157
365.39142
365.39123
365.39142
365.39154
365.3916
365.39162
365.39162
365.39158
365.3915
365.39138
365.39123
365.39102
373.29011
373.29032
373.29042
373.29048
373.2905
373.29048
373.29042
373.29033
373.2902
373.29006
373.29032
373.2905
373.2906
373.29066
373.29067
373.29065
373.29059
373.29049
373.29036
373.29018
373.29042
373.2906
373.2907
373.29075
373.29076
373.29074
373.29067
373.29057
373.29043
373.29024
373.29048
373.29066
373.29075
373.2908
373.29081
373.29078
373.29071
373.29061
373.29046
373.29027
373.2905
373.29067
373.29076
373.29081
373.29082
373.29079
373.29072
373.29061
373.29046
373.29026
373.29048
373.29065
373.29074
373.29078
373.29079
373.29075
373.29068
373.29057
373.29041
373.29022
373.29042
373.29059
373.29067
373.29071
373.29072
373.29068
373.2906
373.29049
373.29033
373.29014
373.29033
373.29049
373.29057
373.29061
373.29061
373.29057
373.29049
373.29037
373.29021
373.29001
373.2902
373.29036
373.29043
373.29046
373.29046
373.29041
373.29033
373.29021
373.29005
373.28984
373.29006
373.29018
373.29024
373.29027
373.29026
373.29022
373.29014
373.29001
373.28984
373.28963
381.14133
381.14155
381.14165
381.14171
381.14173
381.14171
381.14165
381.14155
381.14142
381.14127
381.14155
381.14174
381.14184
381.1419
381.14191
381.14189
381.14182
381.14172
381.14158
381.14139
381.14165
381.14184
381.14194
381.14199
381.142
381.14198
381.14191
381.1418
381.14165
381.14145
381.14171
381.1419
381.14199
381.14204
381.14205
381.14202
381.14195
381.14184
381.14168
381.14148
381.14173
381.14191
381.142
381.14205
381.14206
381.14203
381.14195
381.14183
381.14168
381.14147
381.14171
381.14189
381.14198
381.14202
381.14203
381.14199
381.14191
381.14179
381.14163
381.14143
381.14165
381.14182
381.14191
381.14195
381.14195
381.14191
381.14183
381.14171
381.14154
381.14134
381.14155
381.14172
381.1418
381.14184
381.14183
381.14179
381.14171
381.14158
381.14141
381.14121
381.14142
381.14158
381.14165
381.14168
381.14168
381.14163
381.14154
381.14141
381.14124
381.14103
381.14127
381.14139
381.14145
381.14148
381.14147
381.14143
381.14134
381.14121
381.14103
381.1408
388.94581
388.94604
388.94615
388.94621
388.94623
388.9462
388.94614
388.94603
388.9459
388.94574
388.94604
388.94623
388.94634
388.9464
388.94641
388.94639
388.94632
388.94621
388.94606
388.94587
388.94615
388.94634
388.94644
388.94649
388.94651
388.94648
388.9464
388.94629
388.94613
388.94593
388.94621
388.9464
388.94649
388.94654
388.94655
388.94652
388.94645
388.94633
388.94617
388.94596
388.94623
388.94641
388.94651
388.94655
388.94656
388.94652
388.94644
388.94632
388.94616
388.94595
388.9462
388.94639
388.94648
388.94652
388.94652
388.94648
388.9464
388.94628
388.94611
388.9459
388.94614
388.94632
388.9464
388.94645
388.94644
388.9464
388.94632
388.94619
388.94602
388.9458
388.94603
388.94621
388.94629
388.94633
388.94632
388.94628
388.94619
388.94606
388.94588
388.94567
388.9459
388.94606
388.94613
388.94617
388.94616
388.94611
388.94602
388.94588
388.9457
388.94548
388.94574
388.94587
388.94593
388.94596
388.94595
388.9459
388.9458
388.94567
388.94548
388.94525
396.70426
396.70449
396.7046
396.70466
396.70468
396.70465
396.70458
396.70448
396.70434
396.70417
396.70449
396.70469
396.7048
396.70485
396.70487
396.70484
396.70477
396.70466
396.7045
396.7043
396.7046
396.7048
396.7049
396.70495
396.70496
396.70493
396.70486
396.70474
396.70458
396.70437
396.70466
396.70485
396.70495
396.705
396.70501
396.70498
396.7049
396.70477
396.70461
396.70439
396.70468
396.70487
396.70496
396.70501
396.70502
396.70498
396.7049
396.70477
396.7046
396.70438
396.70465
396.70484
396.70493
396.70498
396.70498
396.70494
396.70485
396.70472
396.70455
396.70433
396.70458
396.70477
396.70486
396.7049
396.7049
396.70485
396.70476
396.70463
396.70445
396.70423
396.70448
396.70466
396.70474
396.70477
396.70477
396.70472
396.70463
396.70449
396.70431
396.70409
396.70434
396.7045
396.70458
396.70461
396.7046
396.70455
396.70445
396.70431
396.70413
396.7039
396.70417
396.7043
396.70437
396.70439
396.70438
396.70433
396.70423
396.70409
396.7039
396.70365
404.41736
404.41759
404.41771
404.41777
404.41778
404.41775
404.41768
404.41757
404.41743
404.41726
404.41759
404.4178
404.4179
404.41796
404.41797
404.41794
404.41787
404.41775
404.41759
404.41739
404.41771
404.4179
404.418
404.41806
404.41807
404.41804
404.41796
404.41784
404.41767
404.41745
404.41777
404.41796
404.41806
404.41811
404.41812
404.41808
404.418
404.41787
404.4177
404.41748
404.41778
404.41797
404.41807
404.41812
404.41812
404.41808
404.418
404.41787
404.41769
404.41747
404.41775
404.41794
404.41804
404.41808
404.41808
404.41804
404.41795
404.41781
404.41764
404.41741
404.41768
404.41787
404.41796
404.418
404.418
404.41795
404.41786
404.41772
404.41754
404.41731
404.41757
404.41775
404.41784
404.41787
404.41787
404.41781
404.41772
404.41758
404.41739
404.41717
404.41743
404.41759
404.41767
404.4177
404.41769
404.41764
404.41754
404.41739
404.4172
404.41697
404.41726
404.41739
404.41745
404.41748
404.41747
404.41741
404.41731
404.41717
404.41697
404.41672
412.0858
412.08603
412.08615
412.08621
412.08622
412.08619
412.08612
412.08601
412.08586
412.08569
412.08603
412.08624
412.08635
412.0864
412.08642
412.08638
412.08631
412.08619
412.08603
412.08582
412.08615
412.08635
412.08645
412.0865
412.08651
412.08648
412.0864
412.08627
412.0861
412.08588
412.08621
412.0864
412.0865
412.08655
412.08656
412.08652
412.08644
412.08631
412.08613
412.08591
412.08622
412.08642
412.08651
412.08656
412.08656
412.08652
412.08643
412.0863
412.08612
412.08589
412.08619
412.08638
412.08648
412.08652
412.08652
412.08647
412.08638
412.08625
412.08606
412.08584
412.08612
412.08631
412.0864
412.08644
412.08643
412.08638
412.08629
412.08615
412.08596
412.08573
412.08601
412.08619
412.08627
412.08631
412.0863
412.08625
412.08615
412.08601
412.08582
412.08558
412.08586
412.08603
412.0861
412.08613
412.08612
412.08606
412.08596
412.08582
412.08562
412.08538
412.08569
412.08582
412.08588
412.08591
412.08589
412.08584
412.08573
412.08558
412.08538
412.08513
419.71027
419.7105
419.71061
419.71068
419.71069
419.71066
419.71058
419.71047
419.71032
419.71015
419.7105
419.71071
419.71081
419.71087
419.71088
419.71085
419.71077
419.71065
419.71049
419.71027
419.71061
419.71081
419.71091
419.71097
419.71098
419.71094
419.71086
419.71073
419.71056
419.71034
419.71068
419.71087
419.71097
419.71102
419.71102
419.71098
419.7109
419.71077
419.71059
419.71036
419.71069
419.71088
419.71098
419.71102
419.71103
419.71098
419.71089
419.71076
419.71058
419.71035
419.71066
419.71085
419.71094
419.71098
419.71098
419.71093
419.71084
419.7107
419.71052
419.71029
419.71058
419.71077
419.71086
419.7109
419.71089
419.71084
419.71074
419.7106
419.71042
419.71018
419.71047
419.71065
419.71073
419.71077
419.71076
419.7107
419.7106
419.71046
419.71027
419.71003
419.71032
419.71049
419.71056
419.71059
419.71058
419.71052
419.71042
419.71027
419.71007
419.70983
419.71015
419.71027
419.71034
419.71036
419.71035
419.71029
419.71018
419.71003
419.70983
419.70957
427.29144
427.29168
427.29179
427.29185
427.29186
427.29183
427.29175
427.29164
427.29148
427.29131
427.29168
427.29188
427.29199
427.29204
427.29205
427.29202
427.29194
427.29182
427.29165
427.29144
427.29179
427.29199
427.29208
427.29214
427.29215
427.29211
427.29202
427.2919
427.29172
427.2915
427.29185
427.29204
427.29214
427.29219
427.29219
427.29215
427.29206
427.29193
427.29175
427.29152
427.29186
427.29205
427.29215
427.29219
427.29219
427.29215
427.29206
427.29192
427.29174
427.29151
427.29183
427.29202
427.29211
427.29215
427.29215
427.2921
427.292
427.29186
427.29168
427.29145
427.29175
427.29194
427.29202
427.29206
427.29206
427.292
427.29191
427.29176
427.29157
427.29134
427.29164
427.29182
427.2919
427.29193
427.29192
427.29186
427.29176
427.29162
427.29142
427.29119
427.29148
427.29165
427.29172
427.29175
427.29174
427.29168
427.29157
427.29142
427.29123
427.29098
427.29131
427.29144
427.2915
427.29152
427.29151
427.29145
427.29134
427.29119
427.29098
427.29072
434.83001
434.83024
434.83035
434.83041
434.83042
434.83039
434.83031
434.83019
434.83004
434.82987
434.83024
434.83044
434.83054
434.8306
434.83061
434.83057
434.83049
434.83037
434.83021
434.82999
434.83035
434.83054
434.83064
434.83069
434.8307
434.83066
434.83058
434.83045
434.83028
434.83005
434.83041
434.8306
434.83069
434.83074
434.83075
434.8307
434.83062
434.83048
434.8303
434.83008
434.83042
434.83061
434.8307
434.83075
434.83074
434.8307
434.83061
434.83047
434.83029
434.83006
434.83039
434.83057
434.83066
434.8307
434.8307
434.83065
434.83055
434.83041
434.83023
434.83
434.83031
434.83049
434.83058
434.83062
434.83061
434.83055
434.83046
434.83031
434.83012
434.82989
434.83019
434.83037
434.83045
434.83048
434.83047
434.83041
434.83031
434.83017
434.82997
434.82974
434.83004
434.83021
434.83028
434.8303
434.83029
434.83023
434.83012
434.82997
434.82978
434.82953
434.82987
434.82999
434.83005
434.83008
434.83006
434.83
434.82989
434.82974
434.82953
434.82927
442.32664
442.32687
442.32698
442.32703
442.32704
442.32701
442.32693
442.32682
442.32666
442.32649
442.32687
442.32707
442.32717
442.32722
442.32723
442.32719
442.32711
442.32699
442.32683
442.32662
442.32698
442.32717
442.32726
442.32731
442.32732
442.32728
442.3272
442.32707
442.3269
442.32667
442.32703
442.32722
442.32731
442.32736
442.32736
442.32732
442.32723
442.3271
442.32692
442.3267
442.32704
442.32723
442.32732
442.32736
442.32736
442.32731
442.32722
442.32709
442.32691
442.32668
442.32701
442.32719
442.32728
442.32732
442.32731
442.32726
442.32717
442.32703
442.32685
442.32662
442.32693
442.32711
442.3272
442.32723
442.32722
442.32717
442.32707
442.32693
442.32674
442.32651
442.32682
442.32699
442.32707
442.3271
442.32709
442.32703
442.32693
442.32678
442.32659
442.32636
442.32666
442.32683
442.3269
442.32692
442.32691
442.32685
442.32674
442.32659
442.32639
442.32615
442.32649
442.32662
442.32667
442.3267
442.32668
442.32662
442.32651
442.32636
442.32615
442.32589
449.78202
449.78224
449.78235
449.7824
449.78241
449.78238
449.7823
449.78218
449.78203
449.78186
449.78224
449.78244
449.78253
449.78259
449.78259
449.78256
449.78248
449.78235
449.78219
449.78198
449.78235
449.78253
449.78263
449.78267
449.78268
449.78264
449.78256
449.78243
449.78226
449.78204
449.7824
449.78259
449.78267
449.78272
449.78272
449.78268
449.78259
449.78246
449.78228
449.78206
449.78241
449.78259
449.78268
449.78272
449.78272
449.78267
449.78258
449.78245
449.78227
449.78204
449.78238
449.78256
449.78264
449.78268
449.78267
449.78262
449.78253
449.78239
449.78221
449.78198
449.7823
449.78248
449.78256
449.78259
449.78258
449.78253
449.78243
449.78229
449.7821
449.78187
449.78218
449.78235
449.78243
449.78246
449.78245
449.78239
449.78229
449.78214
449.78195
449.78172
449.78203
449.78219
449.78226
449.78228
449.78227
449.78221
449.7821
449.78195
449.78176
449.78152
449.78186
449.78198
449.78204
449.78206
449.78204
449.78198
449.78187
449.78172
449.78152
449.78127
457.19682
457.19704
457.19714
457.19719
457.19719
457.19716
457.19708
457.19697
457.19682
457.19666
457.19704
457.19722
457.19732
457.19736
457.19737
457.19733
457.19725
457.19713
457.19698
457.19677
457.19714
457.19732
457.19741
457.19745
457.19745
457.19741
457.19733
457.19721
457.19704
457.19682
457.19719
457.19736
457.19745
457.19749
457.19749
457.19745
457.19736
457.19723
457.19706
457.19684
457.19719
457.19737
457.19745
457.19749
457.19749
457.19744
457.19735
457.19722
457.19704
457.19682
457.19716
457.19733
457.19741
457.19745
457.19744
457.19739
457.1973
457.19716
457.19698
457.19676
457.19708
457.19725
457.19733
457.19736
457.19735
457.1973
457.1972
457.19706
457.19688
457.19666
457.19697
457.19713
457.19721
457.19723
457.19722
457.19716
457.19706
457.19692
457.19674
457.19651
457.19682
457.19698
457.19704
457.19706
457.19704
457.19698
457.19688
457.19674
457.19655
457.19631
457.19666
457.19677
457.19682
457.19684
457.19682
457.19676
457.19666
457.19651
457.19631
457.19606
464.57171
464.57192
464.57201
464.57206
464.57207
464.57203
464.57196
464.57185
464.5717
464.57154
464.57192
464.5721
464.57219
464.57223
464.57224
464.5722
464.57212
464.572
464.57185
464.57165
464.57201
464.57219
464.57227
464.57231
464.57232
464.57228
464.57219
464.57207
464.57191
464.5717
464.57206
464.57223
464.57231
464.57235
464.57235
464.57231
464.57222
464.5721
464.57193
464.57172
464.57207
464.57224
464.57232
464.57235
464.57235
464.5723
464.57221
464.57208
464.57191
464.5717
464.57203
464.5722
464.57228
464.57231
464.5723
464.57225
464.57216
464.57203
464.57185
464.57164
464.57196
464.57212
464.57219
464.57222
464.57221
464.57216
464.57207
464.57193
464.57175
464.57153
464.57185
464.572
464.57207
464.5721
464.57208
464.57203
464.57193
464.57179
464.57161
464.57139
464.5717
464.57185
464.57191
464.57193
464.57191
464.57185
464.57175
464.57161
464.57142
464.5712
464.57154
464.57165
464.5717
464.57172
464.5717
464.57164
464.57153
464.57139
464.5712
464.57095
471.90736
471.90756
471.90765
471.90769
471.9077
471.90766
471.90759
471.90748
471.90734
471.90718
471.90756
471.90773
471.90781
471.90786
471.90786
471.90782
471.90775
471.90763
471.90748
471.90729
471.90765
471.90781
471.90789
471.90793
471.90793
471.90789
471.90782
471.9077
471.90754
471.90734
471.90769
471.90786
471.90793
471.90797
471.90797
471.90793
471.90784
471.90772
471.90756
471.90735
471.9077
471.90786
471.90793
471.90797
471.90796
471.90792
471.90783
471.90771
471.90754
471.90733
471.90766
471.90782
471.90789
471.90793
471.90792
471.90787
471.90778
471.90765
471.90748
471.90727
471.90759
471.90775
471.90782
471.90784
471.90783
471.90778
471.90769
471.90756
471.90738
471.90717
471.90748
471.90763
471.9077
471.90772
471.90771
471.90765
471.90756
471.90742
471.90725
471.90703
471.90734
471.90748
471.90754
471.90756
471.90754
471.90748
471.90738
471.90725
471.90707
471.90685
471.90718
471.90729
471.90734
471.90735
471.90733
471.90727
471.90717
471.90703
471.90685
471.90661
479.20443
479.20462
479.20471
479.20475
479.20475
479.20472
479.20465
479.20454
479.20441
479.20426
479.20462
479.20478
479.20486
479.2049
479.20491
479.20487
479.2048
479.20469
479.20454
479.20436
479.20471
479.20486
479.20494
479.20498
479.20498
479.20494
479.20486
479.20475
479.20459
479.2044
479.20475
479.2049
479.20498
479.20501
479.20501
479.20497
479.20489
479.20477
479.20461
479.20441
479.20475
479.20491
479.20498
479.20501
479.205
479.20496
479.20487
479.20475
479.20459
479.20439
479.20472
479.20487
479.20494
479.20497
479.20496
479.20491
479.20482
479.2047
479.20454
479.20434
479.20465
479.2048
479.20486
479.20489
479.20487
479.20482
479.20473
479.20461
479.20444
479.20424
479.20454
479.20469
479.20475
479.20477
479.20475
479.2047
479.20461
479.20448
479.20431
479.2041
479.20441
479.20454
479.20459
479.20461
479.20459
479.20454
479.20444
479.20431
479.20414
479.20393
479.20426
479.20436
479.2044
479.20441
479.20439
479.20434
479.20424
479.2041
479.20393
479.2037
486.4636
486.46378
486.46386
486.4639
486.4639
486.46386
486.46379
486.46369
486.46357
486.46342
486.46378
486.46393
486.464
486.46404
486.46404
486.464
486.46393
486.46383
486.46369
486.46351
486.46386
486.464
486.46407
486.46411
486.46411
486.46407
486.46399
486.46389
486.46374
486.46356
486.4639
486.46404
486.46411
486.46414
486.46413
486.46409
486.46402
486.4639
486.46376
486.46357
486.4639
486.46404
486.46411
486.46413
486.46413
486.46408
486.464
486.46389
486.46374
486.46355
486.46386
486.464
486.46407
486.46409
486.46408
486.46404
486.46396
486.46384
486.46368
486.46349
486.46379
486.46393
486.46399
486.46402
486.464
486.46396
486.46387
486.46375
486.46359
486.4634
486.46369
486.46383
486.46389
486.4639
486.46389
486.46384
486.46375
486.46362
486.46346
486.46327
486.46357
486.46369
486.46374
486.46376
486.46374
486.46368
486.46359
486.46346
486.4633
486.4631
486.46342
486.46351
486.46356
486.46357
486.46355
486.46349
486.4634
486.46327
486.4631
486.46288
493.68552
493.68568
493.68575
493.68579
493.68579
493.68576
493.68569
493.6856
493.68548
493.68534
493.68568
493.68582
493.68589
493.68592
493.68592
493.68589
493.68582
493.68572
493.68559
493.68542
493.68575
493.68589
493.68596
493.68599
493.68598
493.68595
493.68588
493.68577
493.68564
493.68546
493.68579
493.68592
493.68599
493.68601
493.68601
493.68597
493.6859
493.68579
493.68565
493.68547
493.68579
493.68592
493.68598
493.68601
493.686
493.68596
493.68588
493.68577
493.68563
493.68545
493.68576
493.68589
493.68595
493.68597
493.68596
493.68591
493.68584
493.68572
493.68558
493.6854
493.68569
493.68582
493.68588
493.6859
493.68588
493.68584
493.68575
493.68564
493.68549
493.68531
493.6856
493.68572
493.68577
493.68579
493.68577
493.68572
493.68564
493.68552
493.68537
493.68519
493.68548
493.68559
493.68564
493.68565
493.68563
493.68558
493.68549
493.68537
493.68521
493.68502
493.68534
493.68542
493.68546
493.68547
493.68545
493.6854
493.68531
493.68519
493.68502
493.68482
500.87084
500.87099
500.87105
500.87109
500.87109
500.87105
500.87099
500.8709
500.87079
500.87066
500.87099
500.87112
500.87118
500.87121
500.87121
500.87118
500.87111
500.87102
500.8709
500.87074
500.87105
500.87118
500.87124
500.87127
500.87126
500.87123
500.87116
500.87106
500.87094
500.87077
500.87109
500.87121
500.87127
500.87129
500.87129
500.87125
500.87118
500.87108
500.87095
500.87078
500.87109
500.87121
500.87126
500.87129
500.87128