/*--------------------------------*- C++ -*----------------------------------*\
| =========                 |                                                 |
| \\      /  F ield         | OpenFOAM: The Open Source CFD Toolbox           |
|  \\    /   O peration     | Version:  v2106                                 |
|   \\  /    A nd           | Website:  www.openfoam.com                      |
|    \\/     M anipulation  |                                                 |
\*---------------------------------------------------------------------------*/
FoamFile
{
    version     2.0;
    format      ascii;
    arch        "LSB;label=32;scalar=64";
    class       volVectorField;
    location    "30";
    object      U;
}
// * * * * * * * * * * * * * * * * * * * * * * * * * * * * * * * * * * * * * //

dimensions      [0 1 -1 0 0 0 0];

internalField   nonuniform List<vector> 
4000
(
(0 0 166.224)
(0 0 226.621)
(0 0 239.304)
(0 0 242.358)
(0 0 243.116)
(0 0 243.116)
(0 0 242.358)
(0 0 239.304)
(0 0 226.621)
(0 0 166.223)
(0 0 226.621)
(0 0 330.773)
(0 0 356.958)
(0 0 364.088)
(0 0 365.989)
(0 0 365.989)
(0 0 364.088)
(0 0 356.958)
(0 0 330.773)
(0 0 226.621)
(0 0 239.304)
(0 0 356.958)
(0 0 388.682)
(0 0 397.845)
(0 0 400.388)
(0 0 400.388)
(0 0 397.845)
(0 0 388.682)
(0 0 356.958)
(0 0 239.304)
(0 0 242.358)
(0 0 364.088)
(0 0 397.845)
(0 0 407.869)
(0 0 410.71)
(0 0 410.71)
(0 0 407.869)
(0 0 397.845)
(0 0 364.088)
(0 0 242.358)
(0 0 243.116)
(0 0 365.989)
(0 0 400.388)
(0 0 410.71)
(0 0 413.66)
(0 0 413.66)
(0 0 410.71)
(0 0 400.387)
(0 0 365.989)
(0 0 243.116)
(0 0 243.116)
(0 0 365.989)
(0 0 400.388)
(0 0 410.71)
(0 0 413.66)
(0 0 413.66)
(0 0 410.71)
(0 0 400.387)
(0 0 365.989)
(0 0 243.116)
(0 0 242.358)
(0 0 364.088)
(0 0 397.845)
(0 0 407.869)
(0 0 410.71)
(0 0 410.71)
(0 0 407.869)
(0 0 397.844)
(0 0 364.088)
(0 0 242.358)
(0 0 239.304)
(0 0 356.958)
(0 0 388.682)
(0 0 397.845)
(0 0 400.387)
(0 0 400.387)
(0 0 397.844)
(0 0 388.682)
(0 0 356.958)
(0 0 239.304)
(0 0 226.621)
(0 0 330.773)
(0 0 356.958)
(0 0 364.088)
(0 0 365.989)
(0 0 365.989)
(0 0 364.088)
(0 0 356.958)
(0 0 330.773)
(0 0 226.621)
(0 0 166.223)
(0 0 226.621)
(0 0 239.304)
(0 0 242.358)
(0 0 243.116)
(0 0 243.116)
(0 0 242.358)
(0 0 239.304)
(0 0 226.621)
(0 0 166.224)
(0 0 41.1787)
(0 0 75.8231)
(0 0 88.2108)
(0 0 92.4217)
(0 0 93.698)
(0 0 93.698)
(0 0 92.4216)
(0 0 88.2106)
(0 0 75.823)
(0 0 41.1786)
(0 0 75.8231)
(0 0 149.508)
(0 0 178.709)
(0 0 189.301)
(0 0 192.63)
(0 0 192.63)
(0 0 189.301)
(0 0 178.709)
(0 0 149.508)
(0 0 75.8229)
(0 0 88.2108)
(0 0 178.709)
(0 0 216.382)
(0 0 230.572)
(0 0 235.143)
(0 0 235.143)
(0 0 230.572)
(0 0 216.382)
(0 0 178.709)
(0 0 88.2105)
(0 0 92.4217)
(0 0 189.301)
(0 0 230.572)
(0 0 246.431)
(0 0 251.613)
(0 0 251.613)
(0 0 246.431)
(0 0 230.572)
(0 0 189.3)
(0 0 92.4215)
(0 0 93.698)
(0 0 192.63)
(0 0 235.143)
(0 0 251.613)
(0 0 257.029)
(0 0 257.029)
(0 0 251.613)
(0 0 235.143)
(0 0 192.63)
(0 0 93.6979)
(0 0 93.698)
(0 0 192.63)
(0 0 235.143)
(0 0 251.613)
(0 0 257.029)
(0 0 257.029)
(0 0 251.613)
(0 0 235.143)
(0 0 192.63)
(0 0 93.6979)
(0 0 92.4216)
(0 0 189.301)
(0 0 230.572)
(0 0 246.431)
(0 0 251.613)
(0 0 251.613)
(0 0 246.431)
(0 0 230.572)
(0 0 189.301)
(0 0 92.4216)
(0 0 88.2106)
(0 0 178.709)
(0 0 216.382)
(0 0 230.572)
(0 0 235.143)
(0 0 235.143)
(0 0 230.572)
(0 0 216.382)
(0 0 178.709)
(0 0 88.2107)
(0 0 75.823)
(0 0 149.508)
(0 0 178.709)
(0 0 189.3)
(0 0 192.63)
(0 0 192.63)
(0 0 189.301)
(0 0 178.709)
(0 0 149.508)
(0 0 75.823)
(0 0 41.1786)
(0 0 75.8229)
(0 0 88.2105)
(0 0 92.4215)
(0 0 93.6979)
(0 0 93.6979)
(0 0 92.4216)
(0 0 88.2107)
(0 0 75.823)
(0 0 41.1787)
(0 0 12.569)
(0 0 28.0899)
(0 0 35.455)
(0 0 38.4866)
(0 0 39.5186)
(0 0 39.5186)
(0 0 38.4866)
(0 0 35.4549)
(0 0 28.0898)
(0 0 12.5689)
(0 0 28.0899)
(0 0 65.2453)
(0 0 83.8486)
(0 0 91.7791)
(0 0 94.5341)
(0 0 94.5341)
(0 0 91.7791)
(0 0 83.8485)
(0 0 65.2451)
(0 0 28.0898)
(0 0 35.455)
(0 0 83.8486)
(0 0 108.84)
(0 0 119.754)
(0 0 123.606)
(0 0 123.606)
(0 0 119.754)
(0 0 108.84)
(0 0 83.8485)
(0 0 35.4549)
(0 0 38.4866)
(0 0 91.7791)
(0 0 119.754)
(0 0 132.143)
(0 0 136.559)
(0 0 136.559)
(0 0 132.143)
(0 0 119.754)
(0 0 91.7792)
(0 0 38.4866)
(0 0 39.5186)
(0 0 94.5341)
(0 0 123.606)
(0 0 136.559)
(0 0 141.198)
(0 0 141.198)
(0 0 136.559)
(0 0 123.606)
(0 0 94.5342)
(0 0 39.5186)
(0 0 39.5186)
(0 0 94.5341)
(0 0 123.606)
(0 0 136.559)
(0 0 141.198)
(0 0 141.198)
(0 0 136.559)
(0 0 123.606)
(0 0 94.5343)
(0 0 39.5187)
(0 0 38.4866)
(0 0 91.7791)
(0 0 119.754)
(0 0 132.143)
(0 0 136.559)
(0 0 136.559)
(0 0 132.143)
(0 0 119.754)
(0 0 91.7794)
(0 0 38.4867)
(0 0 35.4549)
(0 0 83.8485)
(0 0 108.84)
(0 0 119.754)
(0 0 123.606)
(0 0 123.606)
(0 0 119.754)
(0 0 108.841)
(0 0 83.8489)
(0 0 35.455)
(0 0 28.0898)
(0 0 65.2451)
(0 0 83.8485)
(0 0 91.7792)
(0 0 94.5342)
(0 0 94.5343)
(0 0 91.7794)
(0 0 83.8489)
(0 0 65.2455)
(0 0 28.09)
(0 0 12.5689)
(0 0 28.0898)
(0 0 35.4549)
(0 0 38.4866)
(0 0 39.5186)
(0 0 39.5187)
(0 0 38.4867)
(0 0 35.455)
(0 0 28.09)
(0 0 12.569)
(0 0 4.34429)
(0 0 10.784)
(0 0 14.3814)
(0 0 16.0511)
(0 0 16.665)
(0 0 16.665)
(0 0 16.0511)
(0 0 14.3813)
(0 0 10.784)
(0 0 4.34424)
(0 0 10.784)
(0 0 27.2476)
(0 0 36.6985)
(0 0 41.1702)
(0 0 42.8338)
(0 0 42.8338)
(0 0 41.1702)
(0 0 36.6985)
(0 0 27.2476)
(0 0 10.784)
(0 0 14.3814)
(0 0 36.6985)
(0 0 49.7512)
(0 0 56.0224)
(0 0 58.3801)
(0 0 58.3801)
(0 0 56.0225)
(0 0 49.7513)
(0 0 36.6986)
(0 0 14.3814)
(0 0 16.0511)
(0 0 41.1702)
(0 0 56.0224)
(0 0 63.2278)
(0 0 65.9555)
(0 0 65.9556)
(0 0 63.2279)
(0 0 56.0227)
(0 0 41.1704)
(0 0 16.0512)
(0 0 16.665)
(0 0 42.8338)
(0 0 58.3801)
(0 0 65.9555)
(0 0 68.8329)
(0 0 68.833)
(0 0 65.9558)
(0 0 58.3804)
(0 0 42.8342)
(0 0 16.6652)
(0 0 16.665)
(0 0 42.8338)
(0 0 58.3801)
(0 0 65.9556)
(0 0 68.833)
(0 0 68.8331)
(0 0 65.9559)
(0 0 58.3805)
(0 0 42.8343)
(0 0 16.6652)
(0 0 16.0511)
(0 0 41.1702)
(0 0 56.0225)
(0 0 63.2279)
(0 0 65.9558)
(0 0 65.9559)
(0 0 63.2282)
(0 0 56.023)
(0 0 41.1707)
(0 0 16.0513)
(0 0 14.3813)
(0 0 36.6985)
(0 0 49.7513)
(0 0 56.0227)
(0 0 58.3804)
(0 0 58.3805)
(0 0 56.023)
(0 0 49.7518)
(0 0 36.699)
(0 0 14.3816)
(0 0 10.784)
(0 0 27.2476)
(0 0 36.6986)
(0 0 41.1704)
(0 0 42.8342)
(0 0 42.8343)
(0 0 41.1707)
(0 0 36.699)
(0 0 27.248)
(0 0 10.7842)
(0 0 4.34424)
(0 0 10.784)
(0 0 14.3814)
(0 0 16.0512)
(0 0 16.6652)
(0 0 16.6652)
(0 0 16.0513)
(0 0 14.3816)
(0 0 10.7842)
(0 0 4.34435)
(0 0 1.54961)
(0 0 4.05592)
(0 0 5.59727)
(0 0 6.37048)
(0 0 6.67017)
(0 0 6.67017)
(0 0 6.37048)
(0 0 5.59727)
(0 0 4.05592)
(0 0 1.54959)
(0 0 4.05592)
(0 0 10.699)
(0 0 14.8423)
(0 0 16.9436)
(0 0 17.7637)
(0 0 17.7638)
(0 0 16.9436)
(0 0 14.8424)
(0 0 10.6991)
(0 0 4.05594)
(0 0 5.59727)
(0 0 14.8423)
(0 0 20.6738)
(0 0 23.6606)
(0 0 24.8345)
(0 0 24.8345)
(0 0 23.6607)
(0 0 20.674)
(0 0 14.8425)
(0 0 5.59734)
(0 0 6.37048)
(0 0 16.9436)
(0 0 23.6606)
(0 0 27.1239)
(0 0 28.4918)
(0 0 28.4919)
(0 0 27.124)
(0 0 23.6608)
(0 0 16.9438)
(0 0 6.3706)
(0 0 6.67017)
(0 0 17.7637)
(0 0 24.8345)
(0 0 28.4918)
(0 0 29.94)
(0 0 29.94)
(0 0 28.4921)
(0 0 24.8348)
(0 0 17.7641)
(0 0 6.67033)
(0 0 6.67017)
(0 0 17.7638)
(0 0 24.8345)
(0 0 28.4919)
(0 0 29.94)
(0 0 29.9401)
(0 0 28.4922)
(0 0 24.8349)
(0 0 17.7642)
(0 0 6.67036)
(0 0 6.37048)
(0 0 16.9436)
(0 0 23.6607)
(0 0 27.124)
(0 0 28.4921)
(0 0 28.4922)
(0 0 27.1243)
(0 0 23.6611)
(0 0 16.944)
(0 0 6.37069)
(0 0 5.59727)
(0 0 14.8424)
(0 0 20.674)
(0 0 23.6608)
(0 0 24.8348)
(0 0 24.8349)
(0 0 23.6611)
(0 0 20.6744)
(0 0 14.8428)
(0 0 5.59748)
(0 0 4.05592)
(0 0 10.6991)
(0 0 14.8425)
(0 0 16.9438)
(0 0 17.7641)
(0 0 17.7642)
(0 0 16.944)
(0 0 14.8428)
(0 0 10.6994)
(0 0 4.05609)
(0 0 1.54959)
(0 0 4.05594)
(0 0 5.59734)
(0 0 6.3706)
(0 0 6.67033)
(0 0 6.67036)
(0 0 6.37069)
(0 0 5.59748)
(0 0 4.05609)
(0 0 1.54967)
(0 0 0.537432)
(0 0 1.44546)
(0 0 2.03755)
(0 0 2.35034)
(0 0 2.47611)
(0 0 2.47612)
(0 0 2.35035)
(0 0 2.03756)
(0 0 1.44547)
(0 0 0.537431)
(0 0 1.44546)
(0 0 3.9016)
(0 0 5.51544)
(0 0 6.37352)
(0 0 6.72009)
(0 0 6.72011)
(0 0 6.37356)
(0 0 5.51551)
(0 0 3.90168)
(0 0 1.44548)
(0 0 2.03755)
(0 0 5.51544)
(0 0 7.81656)
(0 0 9.04805)
(0 0 9.54782)
(0 0 9.54785)
(0 0 9.04815)
(0 0 7.81671)
(0 0 5.51559)
(0 0 2.03762)
(0 0 2.35034)
(0 0 6.37352)
(0 0 9.04805)
(0 0 10.4861)
(0 0 11.0717)
(0 0 11.0718)
(0 0 10.4862)
(0 0 9.04826)
(0 0 6.37374)
(0 0 2.35044)
(0 0 2.47611)
(0 0 6.72009)
(0 0 9.54782)
(0 0 11.0717)
(0 0 11.6934)
(0 0 11.6935)
(0 0 11.0719)
(0 0 9.54807)
(0 0 6.72036)
(0 0 2.47624)
(0 0 2.47612)
(0 0 6.72011)
(0 0 9.54785)
(0 0 11.0718)
(0 0 11.6935)
(0 0 11.6936)
(0 0 11.0719)
(0 0 9.54812)
(0 0 6.7204)
(0 0 2.47626)
(0 0 2.35035)
(0 0 6.37356)
(0 0 9.04815)
(0 0 10.4862)
(0 0 11.0719)
(0 0 11.0719)
(0 0 10.4864)
(0 0 9.04843)
(0 0 6.37386)
(0 0 2.35049)
(0 0 2.03756)
(0 0 5.51551)
(0 0 7.81671)
(0 0 9.04826)
(0 0 9.54807)
(0 0 9.54812)
(0 0 9.04843)
(0 0 7.81697)
(0 0 5.51579)
(0 0 2.0377)
(0 0 1.44547)
(0 0 3.90168)
(0 0 5.51559)
(0 0 6.37374)
(0 0 6.72036)
(0 0 6.7204)
(0 0 6.37386)
(0 0 5.51579)
(0 0 3.90189)
(0 0 1.44558)
(0 0 0.537431)
(0 0 1.44548)
(0 0 2.03762)
(0 0 2.35044)
(0 0 2.47624)
(0 0 2.47626)
(0 0 2.35049)
(0 0 2.0377)
(0 0 1.44558)
(0 0 0.537481)
(0 0 0.175978)
(0 0 0.480404)
(0 0 0.686442)
(0 0 0.799226)
(0 0 0.84579)
(0 0 0.845793)
(0 0 0.799234)
(0 0 0.686454)
(0 0 0.480414)
(0 0 0.17598)
(0 0 0.480404)
(0 0 1.31381)
(0 0 1.88034)
(0 0 2.19171)
(0 0 2.32063)
(0 0 2.32065)
(0 0 2.19174)
(0 0 1.88039)
(0 0 1.31385)
(0 0 0.480425)
(0 0 0.686442)
(0 0 1.88034)
(0 0 2.69555)
(0 0 3.14558)
(0 0 3.33253)
(0 0 3.33255)
(0 0 3.14563)
(0 0 2.69564)
(0 0 1.88043)
(0 0 0.686486)
(0 0 0.799226)
(0 0 2.19171)
(0 0 3.14558)
(0 0 3.6739)
(0 0 3.89395)
(0 0 3.89397)
(0 0 3.67397)
(0 0 3.1457)
(0 0 2.19184)
(0 0 0.799289)
(0 0 0.84579)
(0 0 2.32063)
(0 0 3.33253)
(0 0 3.89395)
(0 0 4.1281)
(0 0 4.12813)
(0 0 3.89404)
(0 0 3.33268)
(0 0 2.32079)
(0 0 0.845865)
(0 0 0.845793)
(0 0 2.32065)
(0 0 3.33255)
(0 0 3.89397)
(0 0 4.12813)
(0 0 4.12816)
(0 0 3.89407)
(0 0 3.33271)
(0 0 2.32081)
(0 0 0.845874)
(0 0 0.799234)
(0 0 2.19174)
(0 0 3.14563)
(0 0 3.67397)
(0 0 3.89404)
(0 0 3.89407)
(0 0 3.67407)
(0 0 3.14579)
(0 0 2.19191)
(0 0 0.799316)
(0 0 0.686454)
(0 0 1.88039)
(0 0 2.69564)
(0 0 3.1457)
(0 0 3.33268)
(0 0 3.33271)
(0 0 3.14579)
(0 0 2.69578)
(0 0 1.88054)
(0 0 0.68653)
(0 0 0.480414)
(0 0 1.31385)
(0 0 1.88043)
(0 0 2.19184)
(0 0 2.32079)
(0 0 2.32081)
(0 0 2.19191)
(0 0 1.88054)
(0 0 1.31397)
(0 0 0.480473)
(0 0 0.17598)
(0 0 0.480425)
(0 0 0.686486)
(0 0 0.799289)
(0 0 0.845865)
(0 0 0.845874)
(0 0 0.799316)
(0 0 0.68653)
(0 0 0.480473)
(0 0 0.176006)
(0 0 0.0537446)
(0 0 0.148016)
(0 0 0.213422)
(0 0 0.250141)
(0 0 0.265597)
(0 0 0.265599)
(0 0 0.250145)
(0 0 0.213429)
(0 0 0.148022)
(0 0 0.053747)
(0 0 0.148016)
(0 0 0.408041)
(0 0 0.588935)
(0 0 0.690756)
(0 0 0.733702)
(0 0 0.733708)
(0 0 0.690772)
(0 0 0.58896)
(0 0 0.408067)
(0 0 0.148028)
(0 0 0.213422)
(0 0 0.588935)
(0 0 0.850946)
(0 0 0.998883)
(0 0 1.06143)
(0 0 1.06144)
(0 0 0.998911)
(0 0 0.85099)
(0 0 0.588982)
(0 0 0.213445)
(0 0 0.250141)
(0 0 0.690756)
(0 0 0.998883)
(0 0 1.17328)
(0 0 1.24715)
(0 0 1.24717)
(0 0 1.17332)
(0 0 0.998942)
(0 0 0.690819)
(0 0 0.250172)
(0 0 0.265597)
(0 0 0.733702)
(0 0 1.06143)
(0 0 1.24715)
(0 0 1.32591)
(0 0 1.32593)
(0 0 1.2472)
(0 0 1.0615)
(0 0 0.733776)
(0 0 0.265634)
(0 0 0.265599)
(0 0 0.733708)
(0 0 1.06144)
(0 0 1.24717)
(0 0 1.32593)
(0 0 1.32594)
(0 0 1.24721)
(0 0 1.06151)
(0 0 0.733786)
(0 0 0.265638)
(0 0 0.250145)
(0 0 0.690772)
(0 0 0.998911)
(0 0 1.17332)
(0 0 1.2472)
(0 0 1.24721)
(0 0 1.17336)
(0 0 0.998983)
(0 0 0.69085)
(0 0 0.250184)
(0 0 0.213429)
(0 0 0.58896)
(0 0 0.85099)
(0 0 0.998942)
(0 0 1.0615)
(0 0 1.06151)
(0 0 0.998983)
(0 0 0.851055)
(0 0 0.58903)
(0 0 0.213464)
(0 0 0.148022)
(0 0 0.408067)
(0 0 0.588982)
(0 0 0.690819)
(0 0 0.733776)
(0 0 0.733786)
(0 0 0.69085)
(0 0 0.58903)
(0 0 0.40812)
(0 0 0.148049)
(0 0 0.053747)
(0 0 0.148028)
(0 0 0.213445)
(0 0 0.250172)
(0 0 0.265634)
(0 0 0.265638)
(0 0 0.250184)
(0 0 0.213464)
(0 0 0.148049)
(0 0 0.0537584)
(0 0 0.0152528)
(0 0 0.042243)
(0 0 0.0612955)
(0 0 0.0721912)
(0 0 0.0768453)
(0 0 0.076846)
(0 0 0.0721932)
(0 0 0.0612986)
(0 0 0.0422461)
(0 0 0.0152541)
(0 0 0.042243)
(0 0 0.117061)
(0 0 0.169967)
(0 0 0.200279)
(0 0 0.213245)
(0 0 0.213247)
(0 0 0.200286)
(0 0 0.169978)
(0 0 0.117072)
(0 0 0.0422484)
(0 0 0.0612955)
(0 0 0.169967)
(0 0 0.246971)
(0 0 0.291187)
(0 0 0.310135)
(0 0 0.310139)
(0 0 0.291199)
(0 0 0.24699)
(0 0 0.169987)
(0 0 0.0613053)
(0 0 0.0721912)
(0 0 0.200279)
(0 0 0.291187)
(0 0 0.343482)
(0 0 0.365924)
(0 0 0.365929)
(0 0 0.343497)
(0 0 0.291212)
(0 0 0.200305)
(0 0 0.0722043)
(0 0 0.0768453)
(0 0 0.213245)
(0 0 0.310135)
(0 0 0.365924)
(0 0 0.389885)
(0 0 0.389891)
(0 0 0.365942)
(0 0 0.310163)
(0 0 0.213275)
(0 0 0.0768605)
(0 0 0.076846)
(0 0 0.213247)
(0 0 0.310139)
(0 0 0.365929)
(0 0 0.389891)
(0 0 0.389898)
(0 0 0.365948)
(0 0 0.310169)
(0 0 0.213279)
(0 0 0.0768621)
(0 0 0.0721932)
(0 0 0.200286)
(0 0 0.291199)
(0 0 0.343497)
(0 0 0.365942)
(0 0 0.365948)
(0 0 0.343516)
(0 0 0.291228)
(0 0 0.200317)
(0 0 0.0722091)
(0 0 0.0612986)
(0 0 0.169978)
(0 0 0.24699)
(0 0 0.291212)
(0 0 0.310163)
(0 0 0.310169)
(0 0 0.291228)
(0 0 0.247016)
(0 0 0.170006)
(0 0 0.0613128)
(0 0 0.0422461)
(0 0 0.117072)
(0 0 0.169987)
(0 0 0.200305)
(0 0 0.213275)
(0 0 0.213279)
(0 0 0.200317)
(0 0 0.170006)
(0 0 0.117093)
(0 0 0.0422568)
(0 0 0.0152541)
(0 0 0.0422484)
(0 0 0.0613053)
(0 0 0.0722043)
(0 0 0.0768605)
(0 0 0.0768621)
(0 0 0.0722091)
(0 0 0.0613128)
(0 0 0.0422568)
(0 0 0.0152585)
(0 0 0.00402369)
(0 0 0.0111861)
(0 0 0.0163058)
(0 0 0.0192748)
(0 0 0.0205575)
(0 0 0.0205578)
(0 0 0.0192756)
(0 0 0.016307)
(0 0 0.0111873)
(0 0 0.00402423)
(0 0 0.0111861)
(0 0 0.0311097)
(0 0 0.0453681)
(0 0 0.0536477)
(0 0 0.0572285)
(0 0 0.0572294)
(0 0 0.0536504)
(0 0 0.0453722)
(0 0 0.0311141)
(0 0 0.0111882)
(0 0 0.0163058)
(0 0 0.0453681)
(0 0 0.0661975)
(0 0 0.078313)
(0 0 0.0835598)
(0 0 0.0835613)
(0 0 0.0783175)
(0 0 0.0662044)
(0 0 0.0453755)
(0 0 0.0163095)
(0 0 0.0192748)
(0 0 0.0536477)
(0 0 0.078313)
(0 0 0.0926795)
(0 0 0.0989083)
(0 0 0.0989103)
(0 0 0.0926853)
(0 0 0.078322)
(0 0 0.0536574)
(0 0 0.0192797)
(0 0 0.0205575)
(0 0 0.0572285)
(0 0 0.0835598)
(0 0 0.0989083)
(0 0 0.105567)
(0 0 0.105569)
(0 0 0.0989149)
(0 0 0.0835701)
(0 0 0.0572395)
(0 0 0.0205631)
(0 0 0.0205578)
(0 0 0.0572294)
(0 0 0.0835613)
(0 0 0.0989103)
(0 0 0.105569)
(0 0 0.105572)
(0 0 0.0989171)
(0 0 0.083572)
(0 0 0.0572409)
(0 0 0.0205636)
(0 0 0.0192756)
(0 0 0.0536504)
(0 0 0.0783175)
(0 0 0.0926853)
(0 0 0.0989149)
(0 0 0.0989171)
(0 0 0.092692)
(0 0 0.0783279)
(0 0 0.0536617)
(0 0 0.0192813)
(0 0 0.016307)
(0 0 0.0453722)
(0 0 0.0662044)
(0 0 0.078322)
(0 0 0.0835701)
(0 0 0.083572)
(0 0 0.0783279)
(0 0 0.0662136)
(0 0 0.0453822)
(0 0 0.0163121)
(0 0 0.0111873)
(0 0 0.0311141)
(0 0 0.0453755)
(0 0 0.0536574)
(0 0 0.0572395)
(0 0 0.0572409)
(0 0 0.0536617)
(0 0 0.0453822)
(0 0 0.0311214)
(0 0 0.0111911)
(0 0 0.00402423)
(0 0 0.0111882)
(0 0 0.0163095)
(0 0 0.0192797)
(0 0 0.0205631)
(0 0 0.0205636)
(0 0 0.0192813)
(0 0 0.0163121)
(0 0 0.0111911)
(0 0 0.00402577)
(0 0 0.000988725)
(0 0 0.00275619)
(0 0 0.0040315)
(0 0 0.00477916)
(0 0 0.00510507)
(0 0 0.00510516)
(0 0 0.00477943)
(0 0 0.00403192)
(0 0 0.00275661)
(0 0 0.000988916)
(0 0 0.00275619)
(0 0 0.00768519)
(0 0 0.0112448)
(0 0 0.0133336)
(0 0 0.0142449)
(0 0 0.0142452)
(0 0 0.0133345)
(0 0 0.0112462)
(0 0 0.00768664)
(0 0 0.0027569)
(0 0 0.0040315)
(0 0 0.0112448)
(0 0 0.0164598)
(0 0 0.019524)
(0 0 0.0208622)
(0 0 0.0208627)
(0 0 0.0195254)
(0 0 0.016462)
(0 0 0.0112472)
(0 0 0.00403272)
(0 0 0.00477916)
(0 0 0.0133336)
(0 0 0.019524)
(0 0 0.0231652)
(0 0 0.0247569)
(0 0 0.0247575)
(0 0 0.0231671)
(0 0 0.0195269)
(0 0 0.0133368)
(0 0 0.00478075)
(0 0 0.00510507)
(0 0 0.0142449)
(0 0 0.0208622)
(0 0 0.0247569)
(0 0 0.0264602)
(0 0 0.026461)
(0 0 0.024759)
(0 0 0.0208655)
(0 0 0.0142485)
(0 0 0.00510688)
(0 0 0.00510516)
(0 0 0.0142452)
(0 0 0.0208627)
(0 0 0.0247575)
(0 0 0.026461)
(0 0 0.0264617)
(0 0 0.0247597)
(0 0 0.0208661)
(0 0 0.0142489)
(0 0 0.00510705)
(0 0 0.00477943)
(0 0 0.0133345)
(0 0 0.0195254)
(0 0 0.0231671)
(0 0 0.024759)
(0 0 0.0247597)
(0 0 0.0231692)
(0 0 0.0195288)
(0 0 0.0133381)
(0 0 0.00478127)
(0 0 0.00403192)
(0 0 0.0112462)
(0 0 0.016462)
(0 0 0.0195269)
(0 0 0.0208655)
(0 0 0.0208661)
(0 0 0.0195288)
(0 0 0.016465)
(0 0 0.0112493)
(0 0 0.00403355)
(0 0 0.00275661)
(0 0 0.00768664)
(0 0 0.0112472)
(0 0 0.0133368)
(0 0 0.0142485)
(0 0 0.0142489)
(0 0 0.0133381)
(0 0 0.0112493)
(0 0 0.00768896)
(0 0 0.00275781)
(0 0 0.000988916)
(0 0 0.0027569)
(0 0 0.00403272)
(0 0 0.00478075)
(0 0 0.00510688)
(0 0 0.00510705)
(0 0 0.00478127)
(0 0 0.00403355)
(0 0 0.00275781)
(0 0 0.0009894)
(0 0 0.000226962)
(0 0 0.000633968)
(0 0 0.00092979)
(0 0 0.00110472)
(0 0 0.00118153)
(0 0 0.00118155)
(0 0 0.0011048)
(0 0 0.000929917)
(0 0 0.000634099)
(0 0 0.000227022)
(0 0 0.000633968)
(0 0 0.00177118)
(0 0 0.00259828)
(0 0 0.00308773)
(0 0 0.00330278)
(0 0 0.00330287)
(0 0 0.003088)
(0 0 0.00259869)
(0 0 0.00177162)
(0 0 0.000634184)
(0 0 0.00092979)
(0 0 0.00259828)
(0 0 0.0038128)
(0 0 0.00453224)
(0 0 0.00484861)
(0 0 0.00484876)
(0 0 0.00453267)
(0 0 0.00381347)
(0 0 0.002599)
(0 0 0.000930153)
(0 0 0.00110472)
(0 0 0.00308773)
(0 0 0.00453224)
(0 0 0.00538867)
(0 0 0.00576556)
(0 0 0.00576574)
(0 0 0.00538922)
(0 0 0.00453311)
(0 0 0.00308866)
(0 0 0.00110519)
(0 0 0.00118153)
(0 0 0.00330278)
(0 0 0.00484861)
(0 0 0.00576556)
(0 0 0.00616925)
(0 0 0.00616946)
(0 0 0.00576618)
(0 0 0.00484959)
(0 0 0.00330383)
(0 0 0.00118206)
(0 0 0.00118155)
(0 0 0.00330287)
(0 0 0.00484876)
(0 0 0.00576574)
(0 0 0.00616946)
(0 0 0.00616967)
(0 0 0.00576639)
(0 0 0.00484977)
(0 0 0.00330396)
(0 0 0.00118211)
(0 0 0.0011048)
(0 0 0.003088)
(0 0 0.00453267)
(0 0 0.00538922)
(0 0 0.00576618)
(0 0 0.00576639)
(0 0 0.00538985)
(0 0 0.00453365)
(0 0 0.00308905)
(0 0 0.00110534)
(0 0 0.000929917)
(0 0 0.00259869)
(0 0 0.00381347)
(0 0 0.00453311)
(0 0 0.00484959)
(0 0 0.00484977)
(0 0 0.00453365)
(0 0 0.00381433)
(0 0 0.00259961)
(0 0 0.000930389)
(0 0 0.000634099)
(0 0 0.00177162)
(0 0 0.002599)
(0 0 0.00308866)
(0 0 0.00330383)
(0 0 0.00330396)
(0 0 0.00308905)
(0 0 0.00259961)
(0 0 0.00177229)
(0 0 0.000634444)
(0 0 0.000227022)
(0 0 0.000634184)
(0 0 0.000930153)
(0 0 0.00110519)
(0 0 0.00118206)
(0 0 0.00118211)
(0 0 0.00110534)
(0 0 0.000930389)
(0 0 0.000634444)
(0 0 0.00022716)
(0 0 4.88227e-05)
(0 0 0.00013659)
(0 0 0.000200753)
(0 0 0.00023896)
(0 0 0.000255837)
(0 0 0.000255845)
(0 0 0.000238983)
(0 0 0.000200788)
(0 0 0.000136627)
(0 0 4.88399e-05)
(0 0 0.00013659)
(0 0 0.000382192)
(0 0 0.000561829)
(0 0 0.000668865)
(0 0 0.000716168)
(0 0 0.000716193)
(0 0 0.000668937)
(0 0 0.000561942)
(0 0 0.000382312)
(0 0 0.00013665)
(0 0 0.000200753)
(0 0 0.000561829)
(0 0 0.000826106)
(0 0 0.000983701)
(0 0 0.0010534)
(0 0 0.00105344)
(0 0 0.000983818)
(0 0 0.000826289)
(0 0 0.000562025)
(0 0 0.000200852)
(0 0 0.00023896)
(0 0 0.000668865)
(0 0 0.000983701)
(0 0 0.00117158)
(0 0 0.00125472)
(0 0 0.00125477)
(0 0 0.00117173)
(0 0 0.000983934)
(0 0 0.000669115)
(0 0 0.000239088)
(0 0 0.000255837)
(0 0 0.000716168)
(0 0 0.0010534)
(0 0 0.00125472)
(0 0 0.00134385)
(0 0 0.0013439)
(0 0 0.00125489)
(0 0 0.00105366)
(0 0 0.00071645)
(0 0 0.000255981)
(0 0 0.000255845)
(0 0 0.000716193)
(0 0 0.00105344)
(0 0 0.00125477)
(0 0 0.0013439)
(0 0 0.00134396)
(0 0 0.00125494)
(0 0 0.00105371)
(0 0 0.000716484)
(0 0 0.000255994)
(0 0 0.000238983)
(0 0 0.000668937)
(0 0 0.000983818)
(0 0 0.00117173)
(0 0 0.00125489)
(0 0 0.00125494)
(0 0 0.00117189)
(0 0 0.000984078)
(0 0 0.000669218)
(0 0 0.000239127)
(0 0 0.000200788)
(0 0 0.000561942)
(0 0 0.000826289)
(0 0 0.000983934)
(0 0 0.00105366)
(0 0 0.00105371)
(0 0 0.000984078)
(0 0 0.000826515)
(0 0 0.000562187)
(0 0 0.000200913)
(0 0 0.000136627)
(0 0 0.000382312)
(0 0 0.000562025)
(0 0 0.000669115)
(0 0 0.00071645)
(0 0 0.000716484)
(0 0 0.000669218)
(0 0 0.000562187)
(0 0 0.000382487)
(0 0 0.000136718)
(0 0 4.88399e-05)
(0 0 0.00013665)
(0 0 0.000200852)
(0 0 0.000239088)
(0 0 0.000255981)
(0 0 0.000255994)
(0 0 0.000239127)
(0 0 0.000200913)
(0 0 0.000136718)
(0 0 4.8876e-05)
(0 0 9.87313e-06)
(0 0 2.76567e-05)
(0 0 4.07188e-05)
(0 0 4.85424e-05)
(0 0 5.20156e-05)
(0 0 5.20175e-05)
(0 0 4.85482e-05)
(0 0 4.07277e-05)
(0 0 2.7666e-05)
(0 0 9.87757e-06)
(0 0 2.76567e-05)
(0 0 7.74811e-05)
(0 0 0.000114093)
(0 0 0.000136032)
(0 0 0.000145775)
(0 0 0.000145782)
(0 0 0.00013605)
(0 0 0.000114121)
(0 0 7.75112e-05)
(0 0 2.76717e-05)
(0 0 4.07188e-05)
(0 0 0.000114093)
(0 0 0.000168038)
(0 0 0.000200386)
(0 0 0.000214761)
(0 0 0.000214771)
(0 0 0.000200415)
(0 0 0.000168083)
(0 0 0.000114141)
(0 0 4.07435e-05)
(0 0 4.85424e-05)
(0 0 0.000136032)
(0 0 0.000200386)
(0 0 0.000238999)
(0 0 0.000256167)
(0 0 0.000256179)
(0 0 0.000239035)
(0 0 0.000200444)
(0 0 0.000136094)
(0 0 4.8574e-05)
(0 0 5.20156e-05)
(0 0 0.000145775)
(0 0 0.000214761)
(0 0 0.000256167)
(0 0 0.000274582)
(0 0 0.000274596)
(0 0 0.000256208)
(0 0 0.000214826)
(0 0 0.000145845)
(0 0 5.2051e-05)
(0 0 5.20175e-05)
(0 0 0.000145782)
(0 0 0.000214771)
(0 0 0.000256179)
(0 0 0.000274596)
(0 0 0.00027461)
(0 0 0.000256221)
(0 0 0.000214837)
(0 0 0.000145853)
(0 0 5.20542e-05)
(0 0 4.85482e-05)
(0 0 0.00013605)
(0 0 0.000200415)
(0 0 0.000239035)
(0 0 0.000256208)
(0 0 0.000256221)
(0 0 0.000239076)
(0 0 0.000200479)
(0 0 0.000136119)
(0 0 4.85835e-05)
(0 0 4.07277e-05)
(0 0 0.000114121)
(0 0 0.000168083)
(0 0 0.000200444)
(0 0 0.000214826)
(0 0 0.000214837)
(0 0 0.000200479)
(0 0 0.000168138)
(0 0 0.000114181)
(0 0 4.07585e-05)
(0 0 2.7666e-05)
(0 0 7.75112e-05)
(0 0 0.000114141)
(0 0 0.000136094)
(0 0 0.000145845)
(0 0 0.000145853)
(0 0 0.000136119)
(0 0 0.000114181)
(0 0 7.75539e-05)
(0 0 2.76881e-05)
(0 0 9.87757e-06)
(0 0 2.76717e-05)
(0 0 4.07435e-05)
(0 0 4.8574e-05)
(0 0 5.2051e-05)
(0 0 5.20542e-05)
(0 0 4.85835e-05)
(0 0 4.07585e-05)
(0 0 2.76881e-05)
(0 0 9.88628e-06)
(0 0 1.88268e-06)
(0 0 5.27922e-06)
(0 0 7.78384e-06)
(0 0 9.29134e-06)
(0 0 9.96344e-06)
(0 0 9.96389e-06)
(0 0 9.29269e-06)
(0 0 7.78592e-06)
(0 0 5.28141e-06)
(0 0 1.88373e-06)
(0 0 5.27922e-06)
(0 0 1.48049e-05)
(0 0 2.18316e-05)
(0 0 2.60626e-05)
(0 0 2.79496e-05)
(0 0 2.7951e-05)
(0 0 2.60668e-05)
(0 0 2.18381e-05)
(0 0 1.48119e-05)
(0 0 5.28272e-06)
(0 0 7.78384e-06)
(0 0 2.18316e-05)
(0 0 3.21987e-05)
(0 0 3.84446e-05)
(0 0 4.12317e-05)
(0 0 4.12339e-05)
(0 0 3.84513e-05)
(0 0 3.22091e-05)
(0 0 2.18428e-05)
(0 0 7.78954e-06)
(0 0 9.29134e-06)
(0 0 2.60626e-05)
(0 0 3.84446e-05)
(0 0 4.59082e-05)
(0 0 4.92401e-05)
(0 0 4.92429e-05)
(0 0 4.59166e-05)
(0 0 3.84578e-05)
(0 0 2.60768e-05)
(0 0 9.29859e-06)
(0 0 9.96344e-06)
(0 0 2.79496e-05)
(0 0 4.12317e-05)
(0 0 4.92401e-05)
(0 0 5.28163e-05)
(0 0 5.28194e-05)
(0 0 4.92495e-05)
(0 0 4.12464e-05)
(0 0 2.79655e-05)
(0 0 9.97156e-06)
(0 0 9.96389e-06)
(0 0 2.7951e-05)
(0 0 4.12339e-05)
(0 0 4.92429e-05)
(0 0 5.28194e-05)
(0 0 5.28226e-05)
(0 0 4.92526e-05)
(0 0 4.12491e-05)
(0 0 2.79674e-05)
(0 0 9.97226e-06)
(0 0 9.29269e-06)
(0 0 2.60668e-05)
(0 0 3.84513e-05)
(0 0 4.59166e-05)
(0 0 4.92495e-05)
(0 0 4.92526e-05)
(0 0 4.59259e-05)
(0 0 3.84658e-05)
(0 0 2.60825e-05)
(0 0 9.30072e-06)
(0 0 7.78592e-06)
(0 0 2.18381e-05)
(0 0 3.22091e-05)
(0 0 3.84578e-05)
(0 0 4.12464e-05)
(0 0 4.12491e-05)
(0 0 3.84658e-05)
(0 0 3.22216e-05)
(0 0 2.18517e-05)
(0 0 7.7929e-06)
(0 0 5.28141e-06)
(0 0 1.48119e-05)
(0 0 2.18428e-05)
(0 0 2.60768e-05)
(0 0 2.79655e-05)
(0 0 2.79674e-05)
(0 0 2.60825e-05)
(0 0 2.18517e-05)
(0 0 1.48216e-05)
(0 0 5.28642e-06)
(0 0 1.88373e-06)
(0 0 5.28272e-06)
(0 0 7.78954e-06)
(0 0 9.29859e-06)
(0 0 9.97156e-06)
(0 0 9.97226e-06)
(0 0 9.30072e-06)
(0 0 7.7929e-06)
(0 0 5.28642e-06)
(0 0 1.88569e-06)
(0 0 3.395e-07)
(0 0 9.52819e-07)
(0 0 1.40659e-06)
(0 0 1.68085e-06)
(0 0 1.80358e-06)
(0 0 1.80368e-06)
(0 0 1.68115e-06)
(0 0 1.40704e-06)
(0 0 9.53295e-07)
(0 0 3.39731e-07)
(0 0 9.52819e-07)
(0 0 2.67435e-06)
(0 0 3.94841e-06)
(0 0 4.71874e-06)
(0 0 5.06357e-06)
(0 0 5.06387e-06)
(0 0 4.71965e-06)
(0 0 3.94982e-06)
(0 0 2.67586e-06)
(0 0 9.53575e-07)
(0 0 1.40659e-06)
(0 0 3.94841e-06)
(0 0 5.83027e-06)
(0 0 6.96865e-06)
(0 0 7.47845e-06)
(0 0 7.47892e-06)
(0 0 6.97008e-06)
(0 0 5.83251e-06)
(0 0 3.95082e-06)
(0 0 1.40781e-06)
(0 0 1.68085e-06)
(0 0 4.71874e-06)
(0 0 6.96865e-06)
(0 0 8.33025e-06)
(0 0 8.94026e-06)
(0 0 8.94086e-06)
(0 0 8.33206e-06)
(0 0 6.97147e-06)
(0 0 4.72178e-06)
(0 0 1.68241e-06)
(0 0 1.80358e-06)
(0 0 5.06357e-06)
(0 0 7.47845e-06)
(0 0 8.94026e-06)
(0 0 9.59531e-06)
(0 0 9.59598e-06)
(0 0 8.94226e-06)
(0 0 7.48158e-06)
(0 0 5.06695e-06)
(0 0 1.80532e-06)
(0 0 1.80368e-06)
(0 0 5.06387e-06)
(0 0 7.47892e-06)
(0 0 8.94086e-06)
(0 0 9.59598e-06)
(0 0 9.59667e-06)
(0 0 8.94292e-06)
(0 0 7.48215e-06)
(0 0 5.06735e-06)
(0 0 1.80547e-06)
(0 0 1.68115e-06)
(0 0 4.71965e-06)
(0 0 6.97008e-06)
(0 0 8.33206e-06)
(0 0 8.94226e-06)
(0 0 8.94292e-06)
(0 0 8.33402e-06)
(0 0 6.97316e-06)
(0 0 4.72297e-06)
(0 0 1.68285e-06)
(0 0 1.40704e-06)
(0 0 3.94982e-06)
(0 0 5.83251e-06)
(0 0 6.97147e-06)
(0 0 7.48158e-06)
(0 0 7.48215e-06)
(0 0 6.97316e-06)
(0 0 5.83516e-06)
(0 0 3.95269e-06)
(0 0 1.40852e-06)
(0 0 9.53295e-07)
(0 0 2.67586e-06)
(0 0 3.95082e-06)
(0 0 4.72178e-06)
(0 0 5.06695e-06)
(0 0 5.06735e-06)
(0 0 4.72297e-06)
(0 0 3.95269e-06)
(0 0 2.67789e-06)
(0 0 9.54351e-07)
(0 0 3.39731e-07)
(0 0 9.53575e-07)
(0 0 1.40781e-06)
(0 0 1.68241e-06)
(0 0 1.80532e-06)
(0 0 1.80547e-06)
(0 0 1.68285e-06)
(0 0 1.40852e-06)
(0 0 9.54351e-07)
(0 0 3.40141e-07)
(0 0 5.80519e-08)
(0 0 1.63046e-07)
(0 0 2.4095e-07)
(0 0 2.88208e-07)
(0 0 3.09424e-07)
(0 0 3.09444e-07)
(0 0 2.88267e-07)
(0 0 2.41041e-07)
(0 0 1.63143e-07)
(0 0 5.80992e-08)
(0 0 1.63046e-07)
(0 0 4.57971e-07)
(0 0 6.76855e-07)
(0 0 8.09675e-07)
(0 0 8.6932e-07)
(0 0 8.69381e-07)
(0 0 8.09857e-07)
(0 0 6.77138e-07)
(0 0 4.58274e-07)
(0 0 1.63199e-07)
(0 0 2.4095e-07)
(0 0 6.76855e-07)
(0 0 1.00048e-06)
(0 0 1.19694e-06)
(0 0 1.28519e-06)
(0 0 1.28529e-06)
(0 0 1.19722e-06)
(0 0 1.00093e-06)
(0 0 6.77337e-07)
(0 0 2.41196e-07)
(0 0 2.88208e-07)
(0 0 8.09675e-07)
(0 0 1.19694e-06)
(0 0 1.43212e-06)
(0 0 1.53781e-06)
(0 0 1.53793e-06)
(0 0 1.43248e-06)
(0 0 1.1975e-06)
(0 0 8.10282e-07)
(0 0 2.88519e-07)
(0 0 3.09424e-07)
(0 0 8.6932e-07)
(0 0 1.28519e-06)
(0 0 1.53781e-06)
(0 0 1.65135e-06)
(0 0 1.65149e-06)
(0 0 1.53821e-06)
(0 0 1.28582e-06)
(0 0 8.69996e-07)
(0 0 3.0977e-07)
(0 0 3.09444e-07)
(0 0 8.69381e-07)
(0 0 1.28529e-06)
(0 0 1.53793e-06)
(0 0 1.65149e-06)
(0 0 1.65163e-06)
(0 0 1.53834e-06)
(0 0 1.28593e-06)
(0 0 8.70074e-07)
(0 0 3.09799e-07)
(0 0 2.88267e-07)
(0 0 8.09857e-07)
(0 0 1.19722e-06)
(0 0 1.43248e-06)
(0 0 1.53821e-06)
(0 0 1.53834e-06)
(0 0 1.43287e-06)
(0 0 1.19784e-06)
(0 0 8.10518e-07)
(0 0 2.88607e-07)
(0 0 2.41041e-07)
(0 0 6.77138e-07)
(0 0 1.00093e-06)
(0 0 1.1975e-06)
(0 0 1.28582e-06)
(0 0 1.28593e-06)
(0 0 1.19784e-06)
(0 0 1.00145e-06)
(0 0 6.77707e-07)
(0 0 2.41335e-07)
(0 0 1.63143e-07)
(0 0 4.58274e-07)
(0 0 6.77337e-07)
(0 0 8.10282e-07)
(0 0 8.69996e-07)
(0 0 8.70074e-07)
(0 0 8.10518e-07)
(0 0 6.77707e-07)
(0 0 4.58676e-07)
(0 0 1.63352e-07)
(0 0 5.80992e-08)
(0 0 1.63199e-07)
(0 0 2.41196e-07)
(0 0 2.88519e-07)
(0 0 3.0977e-07)
(0 0 3.09799e-07)
(0 0 2.88607e-07)
(0 0 2.41335e-07)
(0 0 1.63352e-07)
(0 0 5.81798e-08)
(0 0 9.43625e-09)
(0 0 2.65201e-08)
(0 0 3.92277e-08)
(0 0 4.69611e-08)
(0 0 5.04429e-08)
(0 0 5.04467e-08)
(0 0 4.69724e-08)
(0 0 3.92451e-08)
(0 0 2.65385e-08)
(0 0 9.4453e-09)
(0 0 2.65201e-08)
(0 0 7.45387e-08)
(0 0 1.10265e-07)
(0 0 1.32012e-07)
(0 0 1.41806e-07)
(0 0 1.41818e-07)
(0 0 1.32047e-07)
(0 0 1.10318e-07)
(0 0 7.45961e-08)
(0 0 2.65491e-08)
(0 0 3.92277e-08)
(0 0 1.10265e-07)
(0 0 1.63132e-07)
(0 0 1.95326e-07)
(0 0 2.0983e-07)
(0 0 2.09848e-07)
(0 0 1.9538e-07)
(0 0 1.63217e-07)
(0 0 1.10356e-07)
(0 0 3.92741e-08)
(0 0 4.69611e-08)
(0 0 1.32012e-07)
(0 0 1.95326e-07)
(0 0 2.33894e-07)
(0 0 2.51275e-07)
(0 0 2.51298e-07)
(0 0 2.33962e-07)
(0 0 1.95432e-07)
(0 0 1.32126e-07)
(0 0 4.70196e-08)
(0 0 5.04429e-08)
(0 0 1.41806e-07)
(0 0 2.0983e-07)
(0 0 2.51275e-07)
(0 0 2.69956e-07)
(0 0 2.69981e-07)
(0 0 2.5135e-07)
(0 0 2.09947e-07)
(0 0 1.41933e-07)
(0 0 5.05079e-08)
(0 0 5.04467e-08)
(0 0 1.41818e-07)
(0 0 2.09848e-07)
(0 0 2.51298e-07)
(0 0 2.69981e-07)
(0 0 2.70007e-07)
(0 0 2.51375e-07)
(0 0 2.09968e-07)
(0 0 1.41948e-07)
(0 0 5.05134e-08)
(0 0 4.69724e-08)
(0 0 1.32047e-07)
(0 0 1.9538e-07)
(0 0 2.33962e-07)
(0 0 2.5135e-07)
(0 0 2.51375e-07)
(0 0 2.34035e-07)
(0 0 1.95495e-07)
(0 0 1.3217e-07)
(0 0 4.7036e-08)
(0 0 3.92451e-08)
(0 0 1.10318e-07)
(0 0 1.63217e-07)
(0 0 1.95432e-07)
(0 0 2.09947e-07)
(0 0 2.09968e-07)
(0 0 1.95495e-07)
(0 0 1.63315e-07)
(0 0 1.10424e-07)
(0 0 3.92999e-08)
(0 0 2.65385e-08)
(0 0 7.45961e-08)
(0 0 1.10356e-07)
(0 0 1.32126e-07)
(0 0 1.41933e-07)
(0 0 1.41948e-07)
(0 0 1.3217e-07)
(0 0 1.10424e-07)
(0 0 7.46708e-08)
(0 0 2.65774e-08)
(0 0 9.4453e-09)
(0 0 2.65491e-08)
(0 0 3.92741e-08)
(0 0 4.70196e-08)
(0 0 5.05079e-08)
(0 0 5.05134e-08)
(0 0 4.7036e-08)
(0 0 3.92999e-08)
(0 0 2.65774e-08)
(0 0 9.46024e-09)
(0 0 1.46151e-09)
(0 0 4.10985e-09)
(0 0 6.08414e-09)
(0 0 7.28905e-09)
(0 0 7.83294e-09)
(0 0 7.83362e-09)
(0 0 7.29108e-09)
(0 0 6.08727e-09)
(0 0 4.11316e-09)
(0 0 1.46314e-09)
(0 0 4.10985e-09)
(0 0 1.15579e-08)
(0 0 1.71115e-08)
(0 0 2.05016e-08)
(0 0 2.20323e-08)
(0 0 2.20343e-08)
(0 0 2.05078e-08)
(0 0 1.7121e-08)
(0 0 1.15682e-08)
(0 0 4.11503e-09)
(0 0 6.08414e-09)
(0 0 1.71115e-08)
(0 0 2.5336e-08)
(0 0 3.03583e-08)
(0 0 3.26266e-08)
(0 0 3.26298e-08)
(0 0 3.03679e-08)
(0 0 2.5351e-08)
(0 0 1.71276e-08)
(0 0 6.0924e-09)
(0 0 7.28905e-09)
(0 0 2.05016e-08)
(0 0 3.03583e-08)
(0 0 3.63792e-08)
(0 0 3.90992e-08)
(0 0 3.91032e-08)
(0 0 3.63912e-08)
(0 0 3.03771e-08)
(0 0 2.05219e-08)