/*--------------------------------*- C++ -*----------------------------------*\
| =========                 |                                                 |
| \\      /  F ield         | OpenFOAM: The Open Source CFD Toolbox           |
|  \\    /   O peration     | Version:  v2106                                 |
|   \\  /    A nd           | Website:  www.openfoam.com                      |
|    \\/     M anipulation  |                                                 |
\*---------------------------------------------------------------------------*/
FoamFile
{
    version     2.0;
    format      ascii;
    arch        "LSB;label=32;scalar=64";
    class       volVectorField;
    location    "30";
    object      flux;
}
// * * * * * * * * * * * * * * * * * * * * * * * * * * * * * * * * * * * * * //

dimensions      [0 1 -1 1 0 0 0];

internalField   nonuniform List<vector> 
500
(
(6.47427e-07 6.47427e-07 1.83751)
(-2.44966e-07 -1.68963e-07 1.83751)
(-1.21149e-06 -8.69505e-08 1.83751)
(-4.2739e-07 1.42651e-08 1.83751)
(-1.08293e-07 8.35956e-08 1.83751)
(-1.68963e-07 -2.44966e-07 1.83751)
(-9.79344e-07 -9.79344e-07 1.83751)
(-1.02826e-06 -7.9176e-07 1.83751)
(-2.56844e-07 -5.48907e-07 1.83751)
(-3.89625e-08 -2.8438e-07 1.83751)
(-8.69505e-08 -1.21149e-06 1.83751)
(-7.9176e-07 -1.02826e-06 1.83751)
(-7.81054e-07 -7.81054e-07 1.83751)
(7.99889e-08 -5.51233e-07 1.83751)
(1.56233e-07 -2.99013e-07 1.83751)
(1.42652e-08 -4.2739e-07 1.83751)
(-5.48907e-07 -2.56844e-07 1.83751)
(-5.51233e-07 7.99889e-08 1.83751)
(2.25197e-07 2.25197e-07 1.83751)
(2.13258e-07 2.86654e-07 1.83751)
(8.35956e-08 -1.08293e-07 1.83751)
(-2.8438e-07 -3.89625e-08 1.83751)
(-2.99013e-07 1.56233e-07 1.83751)
(2.86654e-07 2.13258e-07 1.83751)
(2.17691e-07 2.17691e-07 1.83751)
(1.18491e-06 1.18491e-06 1.83843)
(-9.37177e-07 -4.10518e-07 1.83843)
(-2.93504e-06 -2.03349e-07 1.83843)
(-1.18833e-06 1.26949e-07 1.83843)
(-3.75375e-07 2.87429e-07 1.83843)
(-4.10518e-07 -9.37178e-07 1.83843)
(-2.32544e-06 -2.32544e-06 1.83843)
(-2.39758e-06 -1.80944e-06 1.83843)
(-6.97549e-07 -1.06041e-06 1.83843)
(-2.14895e-07 -3.87764e-07 1.83843)
(-2.03349e-07 -2.93504e-06 1.83843)
(-1.80944e-06 -2.39758e-06 1.83843)
(-1.67001e-06 -1.67001e-06 1.83843)
(2.33345e-07 -9.94844e-07 1.83843)
(2.97269e-07 -3.36281e-07 1.83843)
(1.26949e-07 -1.18833e-06 1.83843)
(-1.06041e-06 -6.97549e-07 1.83843)
(-9.94844e-07 2.33345e-07 1.83843)
(6.36181e-07 6.36181e-07 1.83843)
(4.43668e-07 7.09601e-07 1.83843)
(2.87429e-07 -3.75375e-07 1.83843)
(-3.87764e-07 -2.14895e-07 1.83843)
(-3.36281e-07 2.97269e-07 1.83843)
(7.09601e-07 4.43668e-07 1.83843)
(3.70689e-07 3.70689e-07 1.83843)
(1.27768e-06 1.27768e-06 1.84026)
(-1.68572e-06 -7.40896e-07 1.84026)
(-3.99918e-06 -3.89026e-07 1.84025)
(-1.68631e-06 2.32782e-07 1.84025)
(-6.50525e-07 5.30943e-07 1.84025)
(-7.40896e-07 -1.68572e-06 1.84026)
(-3.35242e-06 -3.35242e-06 1.84025)
(-3.0255e-06 -2.49646e-06 1.84025)
(-7.66341e-07 -1.19806e-06 1.84025)
(-3.52364e-07 -1.31517e-07 1.84025)
(-3.89026e-07 -3.99918e-06 1.84025)
(-2.49646e-06 -3.0255e-06 1.84025)
(-1.84482e-06 -1.84482e-06 1.84025)
(6.78631e-07 -7.68395e-07 1.84025)
(4.16018e-07 1.82756e-07 1.84025)
(2.32782e-07 -1.68631e-06 1.84025)
(-1.19806e-06 -7.66341e-07 1.84025)
(-7.68395e-07 6.78631e-07 1.84025)
(1.26123e-06 1.26123e-06 1.84025)
(5.98787e-07 1.04983e-06 1.84026)
(5.30943e-07 -6.50525e-07 1.84025)
(-1.31517e-07 -3.52364e-07 1.84025)
(1.82756e-07 4.16018e-07 1.84025)
(1.04983e-06 5.98787e-07 1.84026)
(2.04613e-07 2.04613e-07 1.84025)
(1.40205e-06 1.40205e-06 1.84293)
(-2.1339e-06 -9.43173e-07 1.84293)
(-4.53383e-06 -4.47074e-07 1.84293)
(-1.73923e-06 4.48967e-07 1.84293)
(-7.41357e-07 8.38713e-07 1.84293)
(-9.43173e-07 -2.1339e-06 1.84293)
(-3.98302e-06 -3.98302e-06 1.84293)
(-3.14169e-06 -2.79816e-06 1.84293)
(-4.53446e-07 -9.89641e-07 1.84293)
(-3.51611e-07 3.844e-07 1.84293)
(-4.47074e-07 -4.53383e-06 1.84293)
(-2.79816e-06 -3.14169e-06 1.84293)
(-1.54044e-06 -1.54044e-06 1.84293)
(1.44333e-06 -1.05663e-07 1.84293)
(6.32684e-07 1.06932e-06 1.84293)
(4.48967e-07 -1.73923e-06 1.84293)
(-9.89641e-07 -4.53446e-07 1.84293)
(-1.05663e-07 1.44333e-06 1.84293)
(2.15632e-06 2.15632e-06 1.84293)
(8.23373e-07 1.49475e-06 1.84294)
(8.38713e-07 -7.41357e-07 1.84293)
(3.844e-07 -3.51611e-07 1.84293)
(1.06932e-06 6.32684e-07 1.84293)
(1.49475e-06 8.23373e-07 1.84294)
(-2.88874e-08 -2.88873e-08 1.84293)
(1.54998e-06 1.54998e-06 1.8464)
(-2.36276e-06 -1.05575e-06 1.8464)
(-4.72663e-06 -4.24958e-07 1.8464)
(-1.54575e-06 7.21597e-07 1.8464)
(-7.31854e-07 1.18087e-06 1.8464)
(-1.05575e-06 -2.36276e-06 1.8464)
(-4.3377e-06 -4.3377e-06 1.8464)
(-2.94929e-06 -2.85057e-06 1.8464)
(6.00793e-08 -5.81852e-07 1.8464)
(-2.72581e-07 1.0446e-06 1.8464)
(-4.24958e-07 -4.72663e-06 1.8464)
(-2.85057e-06 -2.94929e-06 1.8464)
(-9.70789e-07 -9.70789e-07 1.8464)
(2.34943e-06 7.76549e-07 1.8464)
(8.94603e-07 2.128e-06 1.8464)
(7.21597e-07 -1.54575e-06 1.8464)
(-5.81852e-07 6.00793e-08 1.8464)
(7.76549e-07 2.34943e-06 1.8464)
(3.15887e-06 3.15887e-06 1.8464)
(1.07887e-06 2.01467e-06 1.8464)
(1.18087e-06 -7.31854e-07 1.8464)
(1.0446e-06 -2.72581e-07 1.8464)
(2.128e-06 8.94603e-07 1.8464)
(2.01467e-06 1.07887e-06 1.8464)
(-2.49597e-07 -2.49597e-07 1.8464)
(1.69531e-06 1.69531e-06 1.85057)
(-2.43688e-06 -1.10521e-06 1.85057)
(-4.67745e-06 -3.54846e-07 1.85057)
(-1.20811e-06 1.01302e-06 1.85057)
(-6.6284e-07 1.52718e-06 1.85057)
(-1.10521e-06 -2.43688e-06 1.85057)
(-4.48703e-06 -4.48703e-06 1.85057)
(-2.55923e-06 -2.73459e-06 1.85057)
(6.7392e-07 -6.47146e-08 1.85057)
(-1.48671e-07 1.76736e-06 1.85058)
(-3.54846e-07 -4.67745e-06 1.85057)
(-2.73459e-06 -2.55923e-06 1.85057)
(-2.55139e-07 -2.55139e-07 1.85057)
(3.29384e-06 1.75597e-06 1.85058)
(1.16923e-06 3.24323e-06 1.85058)
(1.01302e-06 -1.20811e-06 1.85057)
(-6.47146e-08 6.7392e-07 1.85057)
(1.75597e-06 3.29384e-06 1.85058)
(4.17229e-06 4.17229e-06 1.85058)
(1.33859e-06 2.5598e-06 1.85058)
(1.52718e-06 -6.6284e-07 1.85057)
(1.76736e-06 -1.48671e-07 1.85058)
(3.24323e-06 1.16923e-06 1.85058)
(2.5598e-06 1.33859e-06 1.85058)
(-4.43257e-07 -4.43257e-07 1.85058)
(1.81927e-06 1.81927e-06 1.85535)
(-2.39674e-06 -1.10686e-06 1.85535)
(-4.44436e-06 -2.55515e-07 1.85535)
(-7.83935e-07 1.29943e-06 1.85535)
(-5.55579e-07 1.85488e-06 1.85535)
(-1.10686e-06 -2.39674e-06 1.85535)
(-4.47152e-06 -4.47152e-06 1.85535)
(-2.03807e-06 -2.49764e-06 1.85535)
(1.32646e-06 5.05975e-07 1.85535)
(-1.28734e-10 2.4963e-06 1.85535)
(-2.55515e-07 -4.44436e-06 1.85535)
(-2.49764e-06 -2.03807e-06 1.85535)
(5.33133e-07 5.33133e-07 1.85535)
(4.21001e-06 2.75573e-06 1.85535)
(1.43475e-06 4.33932e-06 1.85535)
(1.29943e-06 -7.83935e-07 1.85535)
(5.05975e-07 1.32646e-06 1.85535)
(2.75573e-06 4.21001e-06 1.85535)
(5.13265e-06 5.13265e-06 1.85535)
(1.58346e-06 3.08745e-06 1.85535)
(1.85488e-06 -5.55579e-07 1.85535)
(2.4963e-06 -1.28743e-10 1.85535)
(4.33932e-06 1.43475e-06 1.85535)
(3.08745e-06 1.58346e-06 1.85535)
(-6.10457e-07 -6.10457e-07 1.85535)
(1.90974e-06 1.90974e-06 1.86061)
(-2.26773e-06 -1.06997e-06 1.86061)
(-4.06449e-06 -1.38746e-07 1.86061)
(-3.09922e-07 1.56473e-06 1.86061)
(-4.22913e-07 2.14747e-06 1.86061)
(-1.06997e-06 -2.26773e-06 1.86061)
(-4.31622e-06 -4.31622e-06 1.86061)
(-1.42979e-06 -2.17001e-06 1.86061)
(1.97629e-06 1.09258e-06 1.86061)
(1.59829e-07 3.19133e-06 1.86061)
(-1.38746e-07 -4.06449e-06 1.86061)
(-2.17001e-06 -1.42979e-06 1.86061)
(1.34431e-06 1.34431e-06 1.86061)
(5.05142e-06 3.72243e-06 1.86061)
(1.67584e-06 5.36226e-06 1.86061)
(1.56473e-06 -3.09922e-07 1.86061)
(1.09258e-06 1.97629e-06 1.86061)
(3.72243e-06 5.05142e-06 1.86061)
(5.99423e-06 5.99423e-06 1.86061)
(1.79966e-06 3.56537e-06 1.86061)
(2.14747e-06 -4.22913e-07 1.86061)
(3.19133e-06 1.59829e-07 1.86061)
(5.36226e-06 1.67584e-06 1.86061)
(3.56537e-06 1.79966e-06 1.86061)
(-7.53021e-07 -7.53021e-07 1.86061)
(1.95925e-06 1.95925e-06 1.86622)
(-2.06697e-06 -1.00071e-06 1.86622)
(-3.56473e-06 -1.26357e-08 1.86622)
(1.87823e-07 1.79728e-06 1.86622)
(-2.73668e-07 2.39285e-06 1.86622)
(-1.00071e-06 -2.06697e-06 1.86622)
(-4.03886e-06 -4.03886e-06 1.86622)
(-7.66735e-07 -1.77345e-06 1.86622)
(2.59331e-06 1.66741e-06 1.86622)
(3.21902e-07 3.8226e-06 1.86622)
(-1.26357e-08 -3.56473e-06 1.86622)
(-1.77345e-06 -7.66735e-07 1.86622)
(2.14153e-06 2.14153e-06 1.86622)
(5.78387e-06 4.61606e-06 1.86622)
(1.88153e-06 6.27132e-06 1.86622)
(1.79728e-06 1.87823e-07 1.86622)
(1.66741e-06 2.59331e-06 1.86622)
(4.61606e-06 5.78387e-06 1.86622)
(6.7231e-06 6.7231e-06 1.86622)
(1.97717e-06 3.96994e-06 1.86622)
(2.39285e-06 -2.73668e-07 1.86622)
(3.8226e-06 3.21902e-07 1.86622)
(6.27132e-06 1.88153e-06 1.86622)
(3.96994e-06 1.97717e-06 1.86622)
(-8.71634e-07 -8.71634e-07 1.86622)
(1.96345e-06 1.96345e-06 1.87205)
(-1.80761e-06 -9.03908e-07 1.87205)
(-2.96765e-06 1.16644e-07 1.87205)
(6.88693e-07 1.98838e-06 1.87205)
(-1.1472e-07 2.58207e-06 1.87205)
(-9.03908e-07 -1.80761e-06 1.87205)
(-3.65442e-06 -3.65442e-06 1.87205)
(-7.53595e-08 -1.32573e-06 1.87205)
(3.15412e-06 2.20849e-06 1.87205)
(4.78968e-07 4.36693e-06 1.87205)
(1.16644e-07 -2.96765e-06 1.87205)
(-1.32573e-06 -7.53595e-08 1.87205)
(2.89526e-06 2.89526e-06 1.87205)
(6.38136e-06 5.40503e-06 1.87205)
(2.04372e-06 7.03481e-06 1.87205)
(1.98838e-06 6.88693e-07 1.87205)
(2.20849e-06 3.15412e-06 1.87205)
(5.40503e-06 6.38136e-06 1.87205)
(7.29367e-06 7.29367e-06 1.87205)
(2.10874e-06 4.28384e-06 1.87205)
(2.58207e-06 -1.1472e-07 1.87205)
(4.36693e-06 4.78968e-07 1.87205)
(7.03481e-06 2.04372e-06 1.87205)
(4.28384e-06 2.10874e-06 1.87205)
(-9.66104e-07 -9.66104e-07 1.87205)
(1.92017e-06 1.92017e-06 1.87795)
(-1.50147e-06 -7.83993e-07 1.87795)
(-2.29467e-06 2.43881e-07 1.87795)
(1.17491e-06 2.13133e-06 1.87795)
(4.79339e-08 2.7085e-06 1.87795)
(-7.83993e-07 -1.50147e-06 1.87795)
(-3.17776e-06 -3.17776e-06 1.87795)
(6.2065e-07 -8.43195e-07 1.87795)
(3.63952e-06 2.6973e-06 1.87795)
(6.25103e-07 4.80579e-06 1.87795)
(2.43881e-07 -2.29467e-06 1.87795)
(-8.43195e-07 6.2065e-07 1.87795)
(3.58039e-06 3.58039e-06 1.87795)
(6.82389e-06 6.06352e-06 1.87795)
(2.15642e-06 7.62761e-06 1.87795)
(2.13133e-06 1.17491e-06 1.87795)
(2.6973e-06 3.63952e-06 1.87795)
(6.06352e-06 6.82389e-06 1.87795)
(7.68674e-06 7.68674e-06 1.87795)
(2.18919e-06 4.4943e-06 1.87795)
(2.7085e-06 4.79339e-08 1.87795)
(4.80579e-06 6.25103e-07 1.87795)
(7.62761e-06 2.15642e-06 1.87795)
(4.4943e-06 2.18919e-06 1.87795)
(-1.03601e-06 -1.03601e-06 1.87795)
(1.82872e-06 1.82872e-06 1.88378)
(-1.16067e-06 -6.45669e-07 1.88378)
(-1.56802e-06 3.64203e-07 1.88378)
(1.62992e-06 2.22087e-06 1.88378)
(2.08544e-07 2.7673e-06 1.88378)
(-6.45669e-07 -1.16067e-06 1.88378)
(-2.62519e-06 -2.62519e-06 1.88378)
(1.29852e-06 -3.42262e-07 1.88378)
(4.03301e-06 3.1173e-06 1.88378)
(7.54975e-07 5.12391e-06 1.88378)
(3.64203e-07 -1.56802e-06 1.88378)
(-3.42262e-07 1.29852e-06 1.88378)
(4.17447e-06 4.17447e-06 1.88378)
(7.09609e-06 6.56978e-06 1.88378)
(2.21515e-06 8.02966e-06 1.88378)
(2.22087e-06 1.62992e-06 1.88378)
(3.1173e-06 4.03301e-06 1.88378)
(6.56978e-06 7.09609e-06 1.88378)
(7.8882e-06 7.8882e-06 1.88378)
(2.21485e-06 4.59175e-06 1.88378)
(2.7673e-06 2.08544e-07 1.88378)
(5.12391e-06 7.54975e-07 1.88378)
(8.02966e-06 2.21515e-06 1.88378)
(4.59175e-06 2.21485e-06 1.88378)
(-1.0813e-06 -1.0813e-06 1.88378)
(1.68929e-06 1.68929e-06 1.88939)
(-7.98998e-07 -4.94419e-07 1.88939)
(-8.12234e-07 4.72569e-07 1.88939)
(2.03717e-06 2.25273e-06 1.88939)
(3.6112e-07 2.75497e-06 1.88939)
(-4.94419e-07 -7.98998e-07 1.88939)
(-2.01572e-06 -2.01572e-06 1.88939)
(1.93492e-06 1.59325e-07 1.88939)
(4.31957e-06 3.45277e-06 1.88939)
(8.63359e-07 5.30809e-06 1.88939)
(4.72569e-07 -8.12234e-07 1.88939)
(1.59325e-07 1.93492e-06 1.88939)
(4.65625e-06 4.65625e-06 1.88939)
(7.18594e-06 6.90479e-06 1.88939)
(2.21644e-06 8.22453e-06 1.88939)
(2.25273e-06 2.03717e-06 1.88939)
(3.45277e-06 4.31957e-06 1.88939)
(6.90479e-06 7.18594e-06 1.88939)
(7.88786e-06 7.88786e-06 1.88939)
(2.1831e-06 4.5686e-06 1.88939)
(2.75497e-06 3.6112e-07 1.88939)
(5.30809e-06 8.63359e-07 1.88939)
(8.22453e-06 2.21644e-06 1.88939)
(4.5686e-06 2.1831e-06 1.88939)
(-1.10281e-06 -1.10281e-06 1.88939)
(1.5022e-06 1.5022e-06 1.89465)
(-4.3353e-07 -3.37149e-07 1.89465)
(-5.59622e-08 5.63102e-07 1.89465)
(2.37863e-06 2.22291e-06 1.89465)
(4.98866e-07 2.6686e-06 1.89465)
(-3.37149e-07 -4.3353e-07 1.89465)
(-1.37262e-06 -1.37262e-06 1.89465)
(2.5041e-06 6.40919e-07 1.89465)
(4.48412e-06 3.68716e-06 1.89465)
(9.4455e-07 5.34557e-06 1.89465)
(5.63102e-07 -5.59622e-08 1.89465)
(6.40919e-07 2.5041e-06 1.89465)
(5.00383e-06 5.00383e-06 1.89465)
(7.08328e-06 7.05034e-06 1.89465)
(2.15727e-06 8.19757e-06 1.89465)
(2.22291e-06 2.37863e-06 1.89465)
(3.68716e-06 4.48412e-06 1.89465)
(7.05034e-06 7.08328e-06 1.89465)
(7.67787e-06 7.67787e-06 1.89465)
(2.09178e-06 4.41767e-06 1.89465)
(2.6686e-06 4.98866e-07 1.89465)
(5.34557e-06 9.4455e-07 1.89465)
(8.19757e-06 2.15727e-06 1.89465)
(4.41767e-06 2.09178e-06 1.89465)
(-1.10293e-06 -1.10293e-06 1.89465)
(1.26687e-06 1.26687e-06 1.89942)
(-8.70741e-08 -1.8325e-07 1.89942)
(6.65168e-07 6.27961e-07 1.89942)
(2.63244e-06 2.12649e-06 1.89943)
(6.13322e-07 2.50464e-06 1.89943)
(-1.8325e-07 -8.70741e-08 1.89942)
(-7.25986e-07 -7.25986e-07 1.89942)
(2.97491e-06 1.07628e-06 1.89943)
(4.50912e-06 3.80036e-06 1.89942)
(9.91474e-07 5.22113e-06 1.89942)
(6.27961e-07 6.65168e-07 1.89942)
(1.07628e-06 2.97491e-06 1.89943)
(5.19151e-06 5.19151e-06 1.89943)
(6.77728e-06 6.98595e-06 1.89943)
(2.03409e-06 7.93278e-06 1.89942)
(2.12649e-06 2.63244e-06 1.89943)
(3.80036e-06 4.50912e-06 1.89942)
(6.98595e-06 6.77728e-06 1.89943)
(7.25039e-06 7.25039e-06 1.89942)
(1.9383e-06 4.12996e-06 1.89942)
(2.50464e-06 6.13322e-07 1.89943)
(5.22113e-06 9.91474e-07 1.89942)
(7.93278e-06 2.03409e-06 1.89942)
(4.12996e-06 1.9383e-06 1.89942)
(-1.08633e-06 -1.08633e-06 1.89942)
(9.80614e-07 9.80614e-07 1.9036)
(2.0779e-07 -4.66497e-08 1.9036)
(1.30323e-06 6.55153e-07 1.9036)
(2.76901e-06 1.95526e-06 1.9036)
(6.92958e-07 2.2565e-06 1.9036)
(-4.66498e-08 2.0779e-07 1.9036)
(-1.17672e-07 -1.17672e-07 1.9036)
(3.30514e-06 1.42835e-06 1.9036)
(4.37036e-06 3.76324e-06 1.9036)
(9.94201e-07 4.9117e-06 1.9036)
(6.55153e-07 1.30323e-06 1.9036)
(1.42835e-06 3.30514e-06 1.9036)
(5.18414e-06 5.18414e-06 1.9036)
(6.25236e-06 6.68336e-06 1.9036)
(1.84143e-06 7.40759e-06 1.9036)
(1.95526e-06 2.76901e-06 1.9036)
(3.76324e-06 4.37036e-06 1.9036)
(6.68336e-06 6.25236e-06 1.9036)
(6.59381e-06 6.59381e-06 1.9036)
(1.71843e-06 3.69143e-06 1.9036)
(2.2565e-06 6.92958e-07 1.9036)
(4.9117e-06 9.94201e-07 1.9036)
(7.40759e-06 1.84143e-06 1.9036)
(3.69143e-06 1.71843e-06 1.9036)
(-1.06095e-06 -1.06095e-06 1.9036)
(6.38898e-07 6.38898e-07 1.90707)
(4.03061e-07 5.00405e-08 1.90707)
(1.78773e-06 6.24193e-07 1.90707)
(2.74462e-06 1.69307e-06 1.90707)
(7.21056e-07 1.9096e-06 1.90707)
(5.00405e-08 4.03061e-07 1.90707)
(3.88355e-07 3.88355e-07 1.90707)
(3.43076e-06 1.6387e-06 1.90707)
(4.03003e-06 3.52695e-06 1.90707)
(9.37586e-07 4.37558e-06 1.90707)
(6.24193e-07 1.78773e-06 1.90707)
(1.6387e-06 3.43076e-06 1.90707)
(4.92632e-06 4.92632e-06 1.90707)
(5.4815e-06 6.09645e-06 1.90707)
(1.56969e-06 6.58369e-06 1.90707)
(1.69307e-06 2.74462e-06 1.90707)
(3.52695e-06 4.03003e-06 1.90707)
(6.09645e-06 5.4815e-06 1.90707)
(5.6874e-06 5.6874e-06 1.90707)
(1.42482e-06 3.0794e-06 1.90706)
(1.9096e-06 7.21056e-07 1.90707)
(4.37558e-06 9.37586e-07 1.90707)
(6.58369e-06 1.56969e-06 1.90707)
(3.0794e-06 1.42482e-06 1.90706)
(-1.03831e-06 -1.03831e-06 1.90706)
(2.47259e-07 2.47259e-07 1.90975)
(4.33718e-07 6.88305e-08 1.90975)
(2.0051e-06 4.99156e-07 1.90975)
(2.49202e-06 1.30814e-06 1.90975)
(6.73382e-07 1.4334e-06 1.90975)
(6.88305e-08 4.33718e-07 1.90975)
(6.85615e-07 6.85615e-07 1.90975)
(3.24441e-06 1.60707e-06 1.90975)
(3.42626e-06 3.00235e-06 1.90975)
(7.98635e-07 3.53253e-06 1.90975)
(4.99156e-07 2.0051e-06 1.90975)
(1.60707e-06 3.24441e-06 1.90975)
(4.32183e-06 4.32183e-06 1.90975)
(4.41749e-06 5.14261e-06 1.90975)
(1.20357e-06 5.39154e-06 1.90974)
(1.30814e-06 2.49202e-06 1.90975)
(3.00235e-06 3.42626e-06 1.90975)
(5.14261e-06 4.41749e-06 1.90975)
(4.49597e-06 4.49597e-06 1.90974)
(1.04756e-06 2.26379e-06 1.90974)
(1.4334e-06 6.73382e-07 1.90975)
(3.53253e-06 7.98635e-07 1.90975)
(5.39154e-06 1.20357e-06 1.90974)
(2.26379e-06 1.04756e-06 1.90974)
(-1.02861e-06 -1.02861e-06 1.90974)
(-1.16747e-07 -1.16747e-07 1.91157)
(2.56097e-07 -3.31594e-08 1.91157)
(1.76458e-06 2.3757e-07 1.91157)
(1.91095e-06 7.60362e-07 1.91157)
(5.19217e-07 7.93234e-07 1.91157)
(-3.31594e-08 2.56097e-07 1.91157)
(6.10415e-07 6.10415e-07 1.91157)
(2.5581e-06 1.17613e-06 1.91157)
(2.46661e-06 2.04459e-06 1.91157)
(5.52089e-07 2.25888e-06 1.91157)
(2.3757e-07 1.76458e-06 1.91157)
(1.17613e-06 2.5581e-06 1.91157)
(3.19875e-06 3.19875e-06 1.91157)
(2.9937e-06 3.67139e-06 1.91157)
(7.33509e-07 3.71092e-06 1.91157)
(7.60362e-07 1.91095e-06 1.91157)
(2.04459e-06 2.46661e-06 1.91157)
(3.67139e-06 2.9937e-06 1.91157)
(2.97879e-06 2.97879e-06 1.91157)
(5.91618e-07 1.24221e-06 1.91157)
(7.93234e-07 5.19217e-07 1.91157)
(2.25888e-06 5.52089e-07 1.91157)
(3.71092e-06 7.33509e-07 1.91157)
(1.24221e-06 5.91618e-07 1.91157)
(-1.00307e-06 -1.00307e-06 1.91157)
(-1.42948e-07 -1.42948e-07 1.9125)
(6.99897e-08 -7.76196e-08 1.9125)
(8.53146e-07 1.62147e-08 1.9125)
(8.77159e-07 2.21813e-07 1.91249)
(2.36951e-07 2.35854e-07 1.91249)
(-7.76196e-08 6.99897e-08 1.9125)
(2.29152e-07 2.29152e-07 1.9125)
(1.15258e-06 4.19286e-07 1.9125)
(1.0968e-06 7.37163e-07 1.91249)
(2.50992e-07 7.90464e-07 1.91249)
(1.62147e-08 8.53146e-07 1.9125)
(4.19286e-07 1.15258e-06 1.9125)
(1.36116e-06 1.36116e-06 1.9125)
(1.24834e-06 1.51503e-06 1.91249)
(2.90252e-07 1.49196e-06 1.91249)
(2.21813e-07 8.77159e-07 1.91249)
(7.37163e-07 1.0968e-06 1.91249)
(1.51503e-06 1.24834e-06 1.91249)
(1.2276e-06 1.2276e-06 1.91249)
(2.27921e-07 3.0029e-07 1.91249)
(2.35854e-07 2.36951e-07 1.91249)
(7.90464e-07 2.50992e-07 1.91249)
(1.49196e-06 2.90252e-07 1.91249)
(3.0029e-07 2.27921e-07 1.91249)
(-6.37058e-07 -6.37058e-07 1.91249)
)
;

boundaryField
{
    wall_minX
    {
        type            calculated;
        value           nonuniform List<vector> 
100
(
(0 6.47427e-07 1.83751)
(0 -2.44966e-07 1.83751)
(0 -1.21149e-06 1.83751)
(0 -4.2739e-07 1.83751)
(0 -1.08293e-07 1.83751)
(0 1.18491e-06 1.83843)
(0 -9.37178e-07 1.83843)
(0 -2.93504e-06 1.83843)
(0 -1.18833e-06 1.83843)
(0 -3.75375e-07 1.83843)
(0 1.27768e-06 1.84026)
(0 -1.68572e-06 1.84026)
(0 -3.99918e-06 1.84025)
(0 -1.68631e-06 1.84025)
(0 -6.50525e-07 1.84025)
(0 1.40205e-06 1.84293)
(0 -2.1339e-06 1.84293)
(0 -4.53383e-06 1.84293)
(0 -1.73923e-06 1.84293)
(0 -7.41357e-07 1.84293)
(0 1.54998e-06 1.8464)
(0 -2.36276e-06 1.8464)
(0 -4.72663e-06 1.8464)
(0 -1.54575e-06 1.8464)
(0 -7.31854e-07 1.8464)
(0 1.69531e-06 1.85057)
(0 -2.43688e-06 1.85057)
(0 -4.67745e-06 1.85057)
(0 -1.20811e-06 1.85057)
(0 -6.6284e-07 1.85057)
(0 1.81927e-06 1.85535)
(0 -2.39674e-06 1.85535)
(0 -4.44436e-06 1.85535)
(0 -7.83935e-07 1.85535)
(0 -5.55579e-07 1.85535)
(0 1.90974e-06 1.86061)
(0 -2.26773e-06 1.86061)
(0 -4.06449e-06 1.86061)
(0 -3.09922e-07 1.86061)
(0 -4.22913e-07 1.86061)
(0 1.95925e-06 1.86622)
(0 -2.06697e-06 1.86622)
(0 -3.56473e-06 1.86622)
(0 1.87823e-07 1.86622)
(0 -2.73668e-07 1.86622)
(0 1.96345e-06 1.87205)
(0 -1.80761e-06 1.87205)
(0 -2.96765e-06 1.87205)
(0 6.88693e-07 1.87205)
(0 -1.1472e-07 1.87205)
(0 1.92017e-06 1.87795)
(0 -1.50147e-06 1.87795)
(0 -2.29467e-06 1.87795)
(0 1.17491e-06 1.87795)
(0 4.79339e-08 1.87795)
(0 1.82872e-06 1.88378)
(0 -1.16067e-06 1.88378)
(0 -1.56802e-06 1.88378)
(0 1.62992e-06 1.88378)
(0 2.08544e-07 1.88378)
(0 1.68929e-06 1.88939)
(0 -7.98998e-07 1.88939)
(0 -8.12234e-07 1.88939)
(0 2.03717e-06 1.88939)
(0 3.6112e-07 1.88939)
(0 1.5022e-06 1.89465)
(0 -4.3353e-07 1.89465)
(0 -5.59622e-08 1.89465)
(0 2.37863e-06 1.89465)
(0 4.98866e-07 1.89465)
(0 1.26687e-06 1.89942)
(0 -8.70741e-08 1.89942)
(0 6.65168e-07 1.89942)
(0 2.63244e-06 1.89943)
(0 6.13322e-07 1.89943)
(0 9.80614e-07 1.9036)
(0 2.0779e-07 1.9036)
(0 1.30323e-06 1.9036)
(0 2.76901e-06 1.9036)
(0 6.92958e-07 1.9036)
(0 6.38898e-07 1.90707)
(0 4.03061e-07 1.90707)
(0 1.78773e-06 1.90707)
(0 2.74462e-06 1.90707)
(0 7.21056e-07 1.90707)
(0 2.47259e-07 1.90975)
(0 4.33718e-07 1.90975)
(0 2.0051e-06 1.90975)
(0 2.49202e-06 1.90975)
(0 6.73382e-07 1.90975)
(0 -1.16747e-07 1.91157)
(0 2.56097e-07 1.91157)
(0 1.76458e-06 1.91157)
(0 1.91095e-06 1.91157)
(0 5.19217e-07 1.91157)
(0 -1.42948e-07 1.9125)
(0 6.99897e-08 1.9125)
(0 8.53146e-07 1.9125)
(0 8.77159e-07 1.91249)
(0 2.36951e-07 1.91249)
)
;
    }
    wall_maxX
    {
        type            calculated;
        value           nonuniform List<vector> 
100
(
(0 8.35956e-08 1.83751)
(0 -2.8438e-07 1.83751)
(0 -2.99013e-07 1.83751)
(0 2.86654e-07 1.83751)
(0 2.17691e-07 1.83751)
(0 2.87429e-07 1.83843)
(0 -3.87764e-07 1.83843)
(0 -3.36281e-07 1.83843)
(0 7.09601e-07 1.83843)
(0 3.70689e-07 1.83843)
(0 5.30943e-07 1.84025)
(0 -1.31517e-07 1.84025)
(0 1.82756e-07 1.84025)
(0 1.04983e-06 1.84026)
(0 2.04613e-07 1.84025)
(0 8.38713e-07 1.84293)
(0 3.844e-07 1.84293)
(0 1.06932e-06 1.84293)
(0 1.49475e-06 1.84294)
(0 -2.88873e-08 1.84293)
(0 1.18087e-06 1.8464)
(0 1.0446e-06 1.8464)
(0 2.128e-06 1.8464)
(0 2.01467e-06 1.8464)
(0 -2.49597e-07 1.8464)
(0 1.52718e-06 1.85057)
(0 1.76736e-06 1.85058)
(0 3.24323e-06 1.85058)
(0 2.5598e-06 1.85058)
(0 -4.43257e-07 1.85058)
(0 1.85488e-06 1.85535)
(0 2.4963e-06 1.85535)
(0 4.33932e-06 1.85535)
(0 3.08745e-06 1.85535)
(0 -6.10457e-07 1.85535)
(0 2.14747e-06 1.86061)
(0 3.19133e-06 1.86061)
(0 5.36226e-06 1.86061)
(0 3.56537e-06 1.86061)
(0 -7.53021e-07 1.86061)
(0 2.39285e-06 1.86622)
(0 3.8226e-06 1.86622)
(0 6.27132e-06 1.86622)
(0 3.96994e-06 1.86622)
(0 -8.71634e-07 1.86622)
(0 2.58207e-06 1.87205)
(0 4.36693e-06 1.87205)
(0 7.03481e-06 1.87205)
(0 4.28384e-06 1.87205)
(0 -9.66104e-07 1.87205)
(0 2.7085e-06 1.87795)
(0 4.80579e-06 1.87795)
(0 7.62761e-06 1.87795)
(0 4.4943e-06 1.87795)
(0 -1.03601e-06 1.87795)
(0 2.7673e-06 1.88378)
(0 5.12391e-06 1.88378)
(0 8.02966e-06 1.88378)
(0 4.59175e-06 1.88378)
(0 -1.0813e-06 1.88378)
(0 2.75497e-06 1.88939)
(0 5.30809e-06 1.88939)
(0 8.22453e-06 1.88939)
(0 4.5686e-06 1.88939)
(0 -1.10281e-06 1.88939)
(0 2.6686e-06 1.89465)
(0 5.34557e-06 1.89465)
(0 8.19757e-06 1.89465)
(0 4.41767e-06 1.89465)
(0 -1.10293e-06 1.89465)
(0 2.50464e-06 1.89943)
(0 5.22113e-06 1.89942)
(0 7.93278e-06 1.89942)
(0 4.12996e-06 1.89942)
(0 -1.08633e-06 1.89942)
(0 2.2565e-06 1.9036)
(0 4.9117e-06 1.9036)
(0 7.40759e-06 1.9036)
(0 3.69143e-06 1.9036)
(0 -1.06095e-06 1.9036)
(0 1.9096e-06 1.90707)
(0 4.37558e-06 1.90707)
(0 6.58369e-06 1.90707)
(0 3.0794e-06 1.90706)
(0 -1.03831e-06 1.90706)
(0 1.4334e-06 1.90975)
(0 3.53253e-06 1.90975)
(0 5.39154e-06 1.90974)
(0 2.26379e-06 1.90974)
(0 -1.02861e-06 1.90974)
(0 7.93234e-07 1.91157)
(0 2.25888e-06 1.91157)
(0 3.71092e-06 1.91157)
(0 1.24221e-06 1.91157)
(0 -1.00307e-06 1.91157)
(0 2.35854e-07 1.91249)
(0 7.90464e-07 1.91249)
(0 1.49196e-06 1.91249)
(0 3.0029e-07 1.91249)
(0 -6.37058e-07 1.91249)
)
;
    }
    wall_minY
    {
        type            calculated;
        value           nonuniform List<vector> 
100
(
(6.47427e-07 0 1.83751)
(1.18491e-06 0 1.83843)
(1.27768e-06 0 1.84026)
(1.40205e-06 0 1.84293)
(1.54998e-06 0 1.8464)
(1.69531e-06 0 1.85057)
(1.81927e-06 0 1.85535)
(1.90974e-06 0 1.86061)
(1.95925e-06 0 1.86622)
(1.96345e-06 0 1.87205)
(1.92017e-06 0 1.87795)
(1.82872e-06 0 1.88378)
(1.68929e-06 0 1.88939)
(1.5022e-06 0 1.89465)
(1.26687e-06 0 1.89942)
(9.80614e-07 0 1.9036)
(6.38898e-07 0 1.90707)
(2.47259e-07 0 1.90975)
(-1.16747e-07 0 1.91157)
(-1.42948e-07 0 1.9125)
(-2.44966e-07 0 1.83751)
(-9.37177e-07 0 1.83843)
(-1.68572e-06 0 1.84026)
(-2.1339e-06 0 1.84293)
(-2.36276e-06 0 1.8464)
(-2.43688e-06 0 1.85057)
(-2.39674e-06 0 1.85535)
(-2.26773e-06 0 1.86061)
(-2.06697e-06 0 1.86622)
(-1.80761e-06 0 1.87205)
(-1.50147e-06 0 1.87795)
(-1.16067e-06 0 1.88378)
(-7.98998e-07 0 1.88939)
(-4.3353e-07 0 1.89465)
(-8.70741e-08 0 1.89942)
(2.0779e-07 0 1.9036)
(4.03061e-07 0 1.90707)
(4.33718e-07 0 1.90975)
(2.56097e-07 0 1.91157)
(6.99897e-08 0 1.9125)
(-1.21149e-06 0 1.83751)
(-2.93504e-06 0 1.83843)
(-3.99918e-06 0 1.84025)
(-4.53383e-06 0 1.84293)
(-4.72663e-06 0 1.8464)
(-4.67745e-06 0 1.85057)
(-4.44436e-06 0 1.85535)
(-4.06449e-06 0 1.86061)
(-3.56473e-06 0 1.86622)
(-2.96765e-06 0 1.87205)
(-2.29467e-06 0 1.87795)
(-1.56802e-06 0 1.88378)
(-8.12234e-07 0 1.88939)
(-5.59622e-08 0 1.89465)
(6.65168e-07 0 1.89942)
(1.30323e-06 0 1.9036)
(1.78773e-06 0 1.90707)
(2.0051e-06 0 1.90975)
(1.76458e-06 0 1.91157)
(8.53146e-07 0 1.9125)
(-4.2739e-07 0 1.83751)
(-1.18833e-06 0 1.83843)
(-1.68631e-06 0 1.84025)
(-1.73923e-06 0 1.84293)
(-1.54575e-06 0 1.8464)
(-1.20811e-06 0 1.85057)
(-7.83935e-07 0 1.85535)
(-3.09922e-07 0 1.86061)
(1.87823e-07 0 1.86622)
(6.88693e-07 0 1.87205)
(1.17491e-06 0 1.87795)
(1.62992e-06 0 1.88378)
(2.03717e-06 0 1.88939)
(2.37863e-06 0 1.89465)
(2.63244e-06 0 1.89943)
(2.76901e-06 0 1.9036)
(2.74462e-06 0 1.90707)
(2.49202e-06 0 1.90975)
(1.91095e-06 0 1.91157)
(8.77159e-07 0 1.91249)
(-1.08293e-07 0 1.83751)
(-3.75375e-07 0 1.83843)
(-6.50525e-07 0 1.84025)
(-7.41357e-07 0 1.84293)
(-7.31854e-07 0 1.8464)
(-6.6284e-07 0 1.85057)
(-5.55579e-07 0 1.85535)
(-4.22913e-07 0 1.86061)
(-2.73668e-07 0 1.86622)
(-1.1472e-07 0 1.87205)
(4.79339e-08 0 1.87795)
(2.08544e-07 0 1.88378)
(3.6112e-07 0 1.88939)
(4.98866e-07 0 1.89465)
(6.13322e-07 0 1.89943)
(6.92958e-07 0 1.9036)
(7.21056e-07 0 1.90707)
(6.73382e-07 0 1.90975)
(5.19217e-07 0 1.91157)
(2.36951e-07 0 1.91249)
)
;
    }
    wall_maxY
    {
        type            calculated;
        value           nonuniform List<vector> 
100
(
(8.35956e-08 0 1.83751)
(2.87429e-07 0 1.83843)
(5.30943e-07 0 1.84025)
(8.38713e-07 0 1.84293)
(1.18087e-06 0 1.8464)
(1.52718e-06 0 1.85057)
(1.85488e-06 0 1.85535)
(2.14747e-06 0 1.86061)
(2.39285e-06 0 1.86622)
(2.58207e-06 0 1.87205)
(2.7085e-06 0 1.87795)
(2.7673e-06 0 1.88378)
(2.75497e-06 0 1.88939)
(2.6686e-06 0 1.89465)
(2.50464e-06 0 1.89943)
(2.2565e-06 0 1.9036)
(1.9096e-06 0 1.90707)
(1.4334e-06 0 1.90975)
(7.93234e-07 0 1.91157)
(2.35854e-07 0 1.91249)
(-2.8438e-07 0 1.83751)
(-3.87764e-07 0 1.83843)
(-1.31517e-07 0 1.84025)
(3.844e-07 0 1.84293)
(1.0446e-06 0 1.8464)
(1.76736e-06 0 1.85058)
(2.4963e-06 0 1.85535)
(3.19133e-06 0 1.86061)
(3.8226e-06 0 1.86622)
(4.36693e-06 0 1.87205)
(4.80579e-06 0 1.87795)
(5.12391e-06 0 1.88378)
(5.30809e-06 0 1.88939)
(5.34557e-06 0 1.89465)
(5.22113e-06 0 1.89942)
(4.9117e-06 0 1.9036)
(4.37558e-06 0 1.90707)
(3.53253e-06 0 1.90975)
(2.25888e-06 0 1.91157)
(7.90464e-07 0 1.91249)
(-2.99013e-07 0 1.83751)
(-3.36281e-07 0 1.83843)
(1.82756e-07 0 1.84025)
(1.06932e-06 0 1.84293)
(2.128e-06 0 1.8464)
(3.24323e-06 0 1.85058)
(4.33932e-06 0 1.85535)
(5.36226e-06 0 1.86061)
(6.27132e-06 0 1.86622)
(7.03481e-06 0 1.87205)
(7.62761e-06 0 1.87795)
(8.02966e-06 0 1.88378)
(8.22453e-06 0 1.88939)
(8.19757e-06 0 1.89465)
(7.93278e-06 0 1.89942)
(7.40759e-06 0 1.9036)
(6.58369e-06 0 1.90707)
(5.39154e-06 0 1.90974)
(3.71092e-06 0 1.91157)
(1.49196e-06 0 1.91249)
(2.86654e-07 0 1.83751)
(7.09601e-07 0 1.83843)
(1.04983e-06 0 1.84026)
(1.49475e-06 0 1.84294)
(2.01467e-06 0 1.8464)
(2.5598e-06 0 1.85058)
(3.08745e-06 0 1.85535)
(3.56537e-06 0 1.86061)
(3.96994e-06 0 1.86622)
(4.28384e-06 0 1.87205)
(4.4943e-06 0 1.87795)
(4.59175e-06 0 1.88378)
(4.5686e-06 0 1.88939)
(4.41767e-06 0 1.89465)
(4.12996e-06 0 1.89942)
(3.69143e-06 0 1.9036)
(3.0794e-06 0 1.90706)
(2.26379e-06 0 1.90974)
(1.24221e-06 0 1.91157)
(3.0029e-07 0 1.91249)
(2.17691e-07 0 1.83751)
(3.70689e-07 0 1.83843)
(2.04613e-07 0 1.84025)
(-2.88874e-08 0 1.84293)
(-2.49597e-07 0 1.8464)
(-4.43257e-07 0 1.85058)
(-6.10457e-07 0 1.85535)
(-7.53021e-07 0 1.86061)
(-8.71634e-07 0 1.86622)
(-9.66104e-07 0 1.87205)
(-1.03601e-06 0 1.87795)
(-1.0813e-06 0 1.88378)
(-1.10281e-06 0 1.88939)
(-1.10293e-06 0 1.89465)
(-1.08633e-06 0 1.89942)
(-1.06095e-06 0 1.9036)
(-1.03831e-06 0 1.90706)
(-1.02861e-06 0 1.90974)
(-1.00307e-06 0 1.91157)
(-6.37058e-07 0 1.91249)
)
;
    }
    inlet_minZ
    {
        type            calculated;
        value           nonuniform List<vector> 
25
(
(6.47427e-07 6.47427e-07 1.83728)
(-1.68963e-07 -2.44966e-07 1.83728)
(-8.69505e-08 -1.21149e-06 1.83728)
(1.42652e-08 -4.2739e-07 1.83728)
(8.35956e-08 -1.08293e-07 1.83727)
(-2.44966e-07 -1.68963e-07 1.83728)
(-9.79344e-07 -9.79344e-07 1.83728)
(-7.9176e-07 -1.02826e-06 1.83728)
(-5.48907e-07 -2.56844e-07 1.83728)
(-2.8438e-07 -3.89625e-08 1.83728)
(-1.21149e-06 -8.69505e-08 1.83728)
(-1.02826e-06 -7.9176e-07 1.83728)
(-7.81054e-07 -7.81054e-07 1.83727)
(-5.51233e-07 7.99889e-08 1.83727)
(-2.99013e-07 1.56233e-07 1.83727)
(-4.2739e-07 1.42651e-08 1.83728)
(-2.56844e-07 -5.48907e-07 1.83728)
(7.99889e-08 -5.51233e-07 1.83727)
(2.25197e-07 2.25197e-07 1.83727)
(2.86654e-07 2.13258e-07 1.83727)
(-1.08293e-07 8.35956e-08 1.83727)
(-3.89625e-08 -2.8438e-07 1.83728)
(1.56233e-07 -2.99013e-07 1.83727)
(2.13258e-07 2.86654e-07 1.83727)
(2.17691e-07 2.17691e-07 1.83727)
)
;
    }
    outlet_maxZ
    {
        type            calculated;
        value           nonuniform List<vector> 
25
(
(-1.42948e-07 -1.42948e-07 1.91273)
(-7.76196e-08 6.99897e-08 1.91273)
(1.62147e-08 8.53146e-07 1.91273)
(2.21813e-07 8.77159e-07 1.91273)
(2.35854e-07 2.36951e-07 1.91273)
(6.99897e-08 -7.76196e-08 1.91273)
(2.29152e-07 2.29152e-07 1.91273)
(4.19286e-07 1.15258e-06 1.91273)
(7.37163e-07 1.0968e-06 1.91273)
(7.90464e-07 2.50992e-07 1.91272)
(8.53146e-07 1.62147e-08 1.91273)
(1.15258e-06 4.19286e-07 1.91273)
(1.36116e-06 1.36116e-06 1.91273)
(1.51503e-06 1.24834e-06 1.91272)
(1.49196e-06 2.90252e-07 1.91272)
(8.77159e-07 2.21813e-07 1.91273)
(1.0968e-06 7.37163e-07 1.91273)
(1.24834e-06 1.51503e-06 1.91272)
(1.2276e-06 1.2276e-06 1.91272)
(3.0029e-07 2.27921e-07 1.91272)