/*--------------------------------*- C++ -*----------------------------------*\
| =========                 |                                                 |
| \\      /  F ield         | OpenFOAM: The Open Source CFD Toolbox           |
|  \\    /   O peration     | Version:  v2106                                 |
|   \\  /    A nd           | Website:  www.openfoam.com                      |
|    \\/     M anipulation  |                                                 |
\*---------------------------------------------------------------------------*/
FoamFile
{
    version     2.0;
    format      ascii;
    arch        "LSB;label=32;scalar=64";
    class       volVectorField;
    location    "30";
    object      gradT;
}
// * * * * * * * * * * * * * * * * * * * * * * * * * * * * * * * * * * * * * //

dimensions      [0 -1 0 1 0 0 0];

internalField   nonuniform List<vector> 
500
(
(0.000258971 0.000258971 735.004)
(-9.79866e-05 -6.75851e-05 735.004)
(-0.000484596 -3.47802e-05 735.003)
(-0.000170956 5.70606e-06 735.003)
(-4.33172e-05 3.34382e-05 735.003)
(-6.75851e-05 -9.79866e-05 735.004)
(-0.000391738 -0.000391738 735.004)
(-0.000411305 -0.000316704 735.003)
(-0.000102738 -0.000219563 735.003)
(-1.5585e-05 -0.000113752 735.003)
(-3.47802e-05 -0.000484596 735.003)
(-0.000316704 -0.000411305 735.003)
(-0.000312421 -0.000312421 735.002)
(3.19955e-05 -0.000220493 735.002)
(6.24934e-05 -0.000119605 735.002)
(5.70607e-06 -0.000170956 735.003)
(-0.000219563 -0.000102738 735.003)
(-0.000220493 3.19955e-05 735.002)
(9.00787e-05 9.00787e-05 735.002)
(8.53032e-05 0.000114662 735.003)
(3.34382e-05 -4.33172e-05 735.003)
(-0.000113752 -1.5585e-05 735.003)
(-0.000119605 6.24934e-05 735.002)
(0.000114662 8.53032e-05 735.003)
(8.70762e-05 8.70762e-05 735.003)
(0.000473965 0.000473965 735.373)
(-0.000374871 -0.000164207 735.373)
(-0.00117402 -8.13396e-05 735.372)
(-0.000475331 5.07797e-05 735.372)
(-0.00015015 0.000114972 735.372)
(-0.000164207 -0.000374871 735.373)
(-0.000930176 -0.000930176 735.373)
(-0.00095903 -0.000723775 735.372)
(-0.00027902 -0.000424163 735.372)
(-8.5958e-05 -0.000155106 735.372)
(-8.13396e-05 -0.00117402 735.372)
(-0.000723775 -0.00095903 735.372)
(-0.000668004 -0.000668004 735.372)
(9.3338e-05 -0.000397938 735.372)
(0.000118908 -0.000134512 735.372)
(5.07797e-05 -0.000475331 735.372)
(-0.000424163 -0.00027902 735.372)
(-0.000397938 9.3338e-05 735.372)
(0.000254472 0.000254472 735.372)
(0.000177467 0.00028384 735.372)
(0.000114972 -0.00015015 735.372)
(-0.000155106 -8.5958e-05 735.372)
(-0.000134512 0.000118908 735.372)
(0.00028384 0.000177467 735.372)
(0.000148276 0.000148276 735.372)
(0.00051107 0.00051107 736.102)
(-0.000674288 -0.000296359 736.102)
(-0.00159967 -0.000155611 736.102)
(-0.000674524 9.31129e-05 736.101)
(-0.00026021 0.000212377 736.101)
(-0.000296359 -0.000674288 736.102)
(-0.00134097 -0.00134097 736.102)
(-0.0012102 -0.000998583 736.101)
(-0.000306536 -0.000479224 736.102)
(-0.000140946 -5.26066e-05 736.102)
(-0.000155611 -0.00159967 736.102)
(-0.000998583 -0.0012102 736.101)
(-0.000737927 -0.000737927 736.101)
(0.000271452 -0.000307358 736.101)
(0.000166407 7.31024e-05 736.102)
(9.31129e-05 -0.000674524 736.101)
(-0.000479224 -0.000306536 736.102)
(-0.000307358 0.000271452 736.101)
(0.000504493 0.000504493 736.102)
(0.000239515 0.000419931 736.102)
(0.000212377 -0.00026021 736.101)
(-5.26066e-05 -0.000140946 736.102)
(7.31024e-05 0.000166407 736.102)
(0.000419931 0.000239515 736.102)
(8.18451e-05 8.18451e-05 736.102)
(0.000560818 0.000560818 737.173)
(-0.000853562 -0.000377269 737.173)
(-0.00181353 -0.00017883 737.173)
(-0.000695693 0.000179587 737.173)
(-0.000296543 0.000335485 737.173)
(-0.000377269 -0.000853562 737.173)
(-0.00159321 -0.00159321 737.173)
(-0.00125667 -0.00111926 737.173)
(-0.000181378 -0.000395856 737.173)
(-0.000140644 0.00015376 737.173)
(-0.00017883 -0.00181353 737.173)
(-0.00111926 -0.00125667 737.173)
(-0.000616177 -0.000616177 737.173)
(0.000577331 -4.2265e-05 737.173)
(0.000253074 0.000427729 737.174)
(0.000179587 -0.000695693 737.173)
(-0.000395856 -0.000181378 737.173)
(-4.2265e-05 0.000577331 737.173)
(0.000862527 0.000862527 737.174)
(0.000329349 0.000597899 737.174)
(0.000335485 -0.000296543 737.173)
(0.00015376 -0.000140644 737.173)
(0.000427729 0.000253074 737.174)
(0.000597899 0.000329349 737.174)
(-1.15549e-05 -1.15549e-05 737.174)
(0.000619991 0.000619991 738.56)
(-0.000945105 -0.0004223 738.561)
(-0.00189065 -0.000169983 738.56)
(-0.0006183 0.000288639 738.561)
(-0.000292742 0.000472348 738.561)
(-0.0004223 -0.000945105 738.561)
(-0.00173508 -0.00173508 738.561)
(-0.00117972 -0.00114023 738.56)
(2.40317e-05 -0.000232741 738.561)
(-0.000109032 0.000417842 738.561)
(-0.000169983 -0.00189065 738.56)
(-0.00114023 -0.00117972 738.56)
(-0.000388316 -0.000388316 738.56)
(0.000939772 0.00031062 738.561)
(0.000357841 0.000851202 738.561)
(0.000288639 -0.0006183 738.561)
(-0.000232741 2.40317e-05 738.561)
(0.00031062 0.000939772 738.561)
(0.00126355 0.00126355 738.562)
(0.00043155 0.000805869 738.562)
(0.000472348 -0.000292742 738.561)
(0.000417842 -0.000109032 738.561)
(0.000851202 0.000357841 738.561)
(0.000805869 0.00043155 738.562)
(-9.98388e-05 -9.98388e-05 738.562)
(0.000678122 0.000678122 740.23)
(-0.000974751 -0.000442084 740.23)
(-0.00187098 -0.000141938 740.23)
(-0.000483244 0.000405207 740.23)
(-0.000265136 0.000610874 740.23)
(-0.000442084 -0.000974751 740.23)
(-0.00179481 -0.00179481 740.23)
(-0.00102369 -0.00109384 740.23)
(0.000269568 -2.58858e-05 740.23)
(-5.94686e-05 0.000706944 740.23)
(-0.000141938 -0.00187098 740.23)
(-0.00109384 -0.00102369 740.23)
(-0.000102056 -0.000102056 740.23)
(0.00131754 0.00070239 740.23)
(0.000467694 0.00129729 740.23)
(0.000405207 -0.000483244 740.23)
(-2.58858e-05 0.000269568 740.23)
(0.00070239 0.00131754 740.23)
(0.00166892 0.00166892 740.231)
(0.000535435 0.00102392 740.231)
(0.000610874 -0.000265136 740.23)
(0.000706944 -5.94686e-05 740.23)
(0.00129729 0.000467694 740.23)
(0.00102392 0.000535435 740.231)
(-0.000177303 -0.000177303 740.231)
(0.000727707 0.000727707 742.139)
(-0.000958696 -0.000442745 742.139)
(-0.00177775 -0.000102206 742.139)
(-0.000313574 0.000519773 742.14)
(-0.000222231 0.000741953 742.14)
(-0.000442745 -0.000958696 742.139)
(-0.00178861 -0.00178861 742.139)
(-0.000815227 -0.000999058 742.139)
(0.000530585 0.00020239 742.14)
(-5.14935e-08 0.00099852 742.14)
(-0.000102206 -0.00177775 742.139)
(-0.000999058 -0.000815227 742.139)
(0.000213253 0.000213253 742.139)
(0.001684 0.00110229 742.14)
(0.000573898 0.00173573 742.14)
(0.000519773 -0.000313574 742.14)
(0.00020239 0.000530585 742.14)
(0.00110229 0.001684 742.14)
(0.00205306 0.00205306 742.141)
(0.000633384 0.00123498 742.141)
(0.000741953 -0.000222231 742.14)
(0.00099852 -5.1497e-08 742.14)
(0.00173573 0.000573898 742.14)
(0.00123498 0.000633384 742.141)
(-0.000244183 -0.000244183 742.141)
(0.000763898 0.000763898 744.242)
(-0.000907093 -0.000427988 744.242)
(-0.00162579 -5.54982e-05 744.243)
(-0.000123969 0.00062589 744.243)
(-0.000169165 0.000858987 744.243)
(-0.000427988 -0.000907093 744.242)
(-0.00172649 -0.00172649 744.243)
(-0.000571916 -0.000868006 744.243)
(0.000790516 0.000437031 744.243)
(6.39317e-05 0.00127653 744.243)
(-5.54982e-05 -0.00162579 744.243)
(-0.000868006 -0.000571916 744.243)
(0.000537726 0.000537726 744.243)
(0.00202057 0.00148897 744.243)
(0.000670336 0.0021449 744.243)
(0.00062589 -0.000123969 744.243)
(0.000437031 0.000790516 744.243)
(0.00148897 0.00202057 744.243)
(0.00239769 0.00239769 744.244)
(0.000719863 0.00142615 744.244)
(0.000858987 -0.000169165 744.243)
(0.00127653 6.39317e-05 744.243)
(0.0021449 0.000670336 744.243)
(0.00142615 0.000719863 744.244)
(-0.000301209 -0.000301209 744.244)
(0.000783701 0.000783701 746.487)
(-0.000826788 -0.000400285 746.487)
(-0.00142589 -5.05428e-06 746.488)
(7.51291e-05 0.000718913 746.488)
(-0.000109467 0.000957141 746.488)
(-0.000400285 -0.000826788 746.487)
(-0.00161554 -0.00161554 746.488)
(-0.000306694 -0.000709379 746.488)
(0.00103732 0.000666963 746.488)
(0.000128761 0.00152904 746.488)
(-5.05428e-06 -0.00142589 746.488)
(-0.000709379 -0.000306694 746.488)
(0.000856613 0.000856613 746.488)
(0.00231355 0.00184642 746.488)
(0.00075261 0.00250853 746.489)
(0.000718913 7.51291e-05 746.488)
(0.000666963 0.00103732 746.488)
(0.00184642 0.00231355 746.488)
(0.00268924 0.00268924 746.489)
(0.000790867 0.00158798 746.489)
(0.000957141 -0.000109467 746.488)
(0.00152904 0.000128761 746.488)
(0.00250853 0.00075261 746.489)
(0.00158798 0.000790867 746.489)
(-0.000348654 -0.000348654 746.489)
(0.00078538 0.00078538 748.819)
(-0.000723046 -0.000361563 748.819)
(-0.00118706 4.66578e-05 748.819)
(0.000275477 0.000795354 748.82)
(-4.5888e-05 0.00103283 748.82)
(-0.000361563 -0.000723046 748.819)
(-0.00146177 -0.00146177 748.819)
(-3.01438e-05 -0.000530292 748.819)
(0.00126165 0.000883398 748.82)
(0.000191587 0.00174677 748.82)
(4.66578e-05 -0.00118706 748.819)
(-0.000530292 -3.01438e-05 748.819)
(0.0011581 0.0011581 748.82)
(0.00255254 0.00216201 748.82)
(0.000817488 0.00281392 748.82)
(0.000795354 0.000275477 748.82)
(0.000883398 0.00126165 748.82)
(0.00216201 0.00255254 748.82)
(0.00291747 0.00291747 748.82)
(0.000843498 0.00171354 748.82)
(0.00103283 -4.5888e-05 748.82)
(0.00174677 0.000191587 748.82)
(0.00281392 0.000817488 748.82)
(0.00171354 0.000843498 748.82)
(-0.000386441 -0.000386441 748.82)
(0.000768067 0.000768067 751.18)
(-0.000600589 -0.000313597 751.18)
(-0.000917868 9.75523e-05 751.18)
(0.000469962 0.000852531 751.18)
(1.91735e-05 0.0010834 751.18)
(-0.000313597 -0.000600589 751.18)
(-0.0012711 -0.0012711 751.18)
(0.00024826 -0.000337278 751.18)
(0.00145581 0.00107892 751.18)
(0.000250041 0.00192232 751.18)
(9.75523e-05 -0.000917868 751.18)
(-0.000337278 0.00024826 751.18)
(0.00143216 0.00143216 751.18)
(0.00272956 0.00242541 751.181)
(0.00086257 0.00305104 751.181)
(0.000852531 0.000469962 751.18)
(0.00107892 0.00145581 751.18)
(0.00242541 0.00272956 751.181)
(0.0030747 0.0030747 751.181)
(0.000875677 0.00179772 751.181)
(0.0010834 1.91736e-05 751.18)
(0.00192232 0.000250041 751.18)
(0.00305104 0.00086257 751.181)
(0.00179772 0.000875677 751.181)
(-0.000414404 -0.000414404 751.181)
(0.000731488 0.000731488 753.511)
(-0.000464268 -0.000258267 753.511)
(-0.000627207 0.000145681 753.512)
(0.000651966 0.000888348 753.512)
(8.34175e-05 0.00110692 753.512)
(-0.000258267 -0.000464268 753.511)
(-0.00105007 -0.00105007 753.511)
(0.000519408 -0.000136905 753.512)
(0.00161321 0.00124692 753.512)
(0.00030199 0.00204956 753.512)
(0.000145681 -0.000627207 753.512)
(-0.000136905 0.000519408 753.512)
(0.00166979 0.00166979 753.512)
(0.00283843 0.00262791 753.512)
(0.00088606 0.00321186 753.512)
(0.000888348 0.000651966 753.512)
(0.00124692 0.00161321 753.512)
(0.00262791 0.00283843 753.512)
(0.00315528 0.00315528 753.512)
(0.000885941 0.0018367 753.512)
(0.00110692 8.34175e-05 753.512)
(0.00204956 0.00030199 753.512)
(0.00321186 0.00088606 753.512)
(0.0018367 0.000885941 753.512)
(-0.000432518 -0.000432518 753.512)
(0.000675715 0.000675715 755.756)
(-0.000319599 -0.000197767 755.756)
(-0.000324894 0.000189028 755.757)
(0.000814869 0.000901093 755.757)
(0.000144448 0.00110199 755.757)
(-0.000197767 -0.000319599 755.756)
(-0.000806287 -0.000806287 755.756)
(0.000773966 6.37301e-05 755.757)
(0.00172783 0.00138111 755.757)
(0.000345343 0.00212324 755.757)
(0.000189028 -0.000324894 755.757)
(6.37301e-05 0.000773966 755.757)
(0.0018625 0.0018625 755.757)
(0.00287438 0.00276192 755.757)
(0.000886578 0.00328981 755.757)
(0.000901093 0.000814869 755.757)
(0.00138111 0.00172783 755.757)
(0.00276192 0.00287438 755.757)
(0.00315514 0.00315514 755.757)
(0.000873242 0.00182744 755.757)
(0.00110199 0.000144448 755.757)
(0.00212324 0.000345343 755.757)
(0.00328981 0.000886578 755.757)
(0.00182744 0.000873242 755.757)
(-0.000441124 -0.000441124 755.757)
(0.000600878 0.000600878 757.86)
(-0.000173412 -0.00013486 757.86)
(-2.23849e-05 0.000225241 757.86)
(0.000951452 0.000889165 757.86)
(0.000199547 0.00106744 757.86)
(-0.00013486 -0.000173412 757.86)
(-0.000549049 -0.000549049 757.86)
(0.00100164 0.000256368 757.86)
(0.00179365 0.00147487 757.86)
(0.00037782 0.00213823 757.86)
(0.000225241 -2.23849e-05 757.86)
(0.000256368 0.00100164 757.86)
(0.00200153 0.00200153 757.86)
(0.00283331 0.00282014 757.86)
(0.000862908 0.00327903 757.86)
(0.000889165 0.000951452 757.86)
(0.00147487 0.00179365 757.86)
(0.00282014 0.00283331 757.86)
(0.00307115 0.00307115 757.86)
(0.000836713 0.00176707 757.86)
(0.00106744 0.000199547 757.86)
(0.00213823 0.00037782 757.86)
(0.00327903 0.000862908 757.86)
(0.00176707 0.000836713 757.86)
(-0.000441172 -0.000441172 757.86)
(0.000506749 0.000506749 759.77)
(-3.48297e-05 -7.32999e-05 759.77)
(0.000266067 0.000251184 759.77)
(0.00105297 0.000850595 759.77)
(0.000245329 0.00100186 759.77)
(-7.32999e-05 -3.48296e-05 759.77)
(-0.000290394 -0.000290394 759.77)
(0.00118996 0.000430511 759.77)
(0.00180365 0.00152014 759.77)
(0.00039659 0.00208845 759.77)
(0.000251184 0.000266067 759.77)
(0.000430511 0.00118996 759.77)
(0.0020766 0.0020766 759.77)
(0.00271091 0.00279438 759.77)
(0.000813637 0.00317311 759.77)
(0.000850595 0.00105297 759.77)
(0.00152014 0.00180365 759.77)
(0.00279438 0.00271091 759.77)
(0.00290016 0.00290016 759.77)
(0.000775322 0.00165199 759.77)
(0.00100186 0.000245329 759.77)
(0.00208845 0.00039659 759.77)
(0.00317311 0.000813637 759.77)
(0.00165199 0.000775322 759.77)
(-0.000434533 -0.000434533 759.77)
(0.000392246 0.000392246 761.439)
(8.31159e-05 -1.86599e-05 761.439)
(0.000521291 0.000262061 761.439)
(0.0011076 0.000782104 761.439)
(0.000277183 0.000902601 761.439)
(-1.86599e-05 8.31159e-05 761.439)
(-4.70686e-05 -4.70686e-05 761.439)
(0.00132206 0.000571342 761.439)
(0.00174814 0.00150529 761.439)
(0.00039768 0.00196468 761.439)
(0.000262061 0.000521291 761.439)
(0.000571342 0.00132206 761.439)
(0.00207365 0.00207365 761.44)
(0.00250094 0.00267334 761.439)
(0.000736571 0.00296304 761.439)
(0.000782104 0.0011076 761.439)
(0.00150529 0.00174814 761.439)
(0.00267334 0.00250094 761.439)
(0.00263753 0.00263753 761.439)
(0.000687371 0.00147657 761.439)
(0.000902601 0.000277183 761.439)
(0.00196468 0.00039768 761.439)
(0.00296304 0.000736571 761.439)
(0.00147657 0.000687371 761.439)
(-0.000424382 -0.000424382 761.439)
(0.000255559 0.000255559 762.827)
(0.000161224 2.00162e-05 762.827)
(0.000715091 0.000249677 762.827)
(0.00109785 0.000677228 762.827)
(0.000288422 0.000763839 762.827)
(2.00162e-05 0.000161224 762.827)
(0.000155342 0.000155342 762.827)
(0.0013723 0.00065548 762.827)
(0.00161201 0.00141078 762.827)
(0.000375034 0.00175023 762.827)
(0.000249677 0.000715091 762.827)
(0.00065548 0.0013723 762.827)
(0.00197053 0.00197053 762.827)
(0.0021926 0.00243858 762.827)
(0.000627875 0.00263347 762.826)
(0.000677228 0.00109785 762.827)
(0.00141078 0.00161201 762.827)
(0.00243858 0.0021926 762.827)
(0.00227496 0.00227496 762.826)
(0.000569927 0.00123176 762.826)
(0.000763839 0.000288422 762.827)
(0.00175023 0.000375034 762.827)
(0.00263347 0.000627875 762.826)
(0.00123176 0.000569927 762.826)
(-0.000415325 -0.000415325 762.826)
(9.89037e-05 9.89037e-05 763.899)
(0.000173487 2.75322e-05 763.899)
(0.000802039 0.000199662 763.899)
(0.000996808 0.000523257 763.899)
(0.000269353 0.000573358 763.899)
(2.75322e-05 0.000173487 763.899)
(0.000274246 0.000274246 763.899)
(0.00129776 0.000642826 763.899)
(0.0013705 0.00120094 763.898)
(0.000319454 0.00141301 763.898)
(0.000199663 0.000802039 763.899)
(0.000642826 0.00129776 763.899)
(0.00172873 0.00172873 763.899)
(0.001767 0.00205704 763.898)
(0.000481427 0.00215661 763.898)
(0.000523257 0.000996808 763.899)
(0.00120094 0.0013705 763.898)
(0.00205704 0.001767 763.898)
(0.00179839 0.00179839 763.897)
(0.000419026 0.000905517 763.897)
(0.000573358 0.000269353 763.899)
(0.00141301 0.000319454 763.898)
(0.00215661 0.000481427 763.898)
(0.000905517 0.000419026 763.897)
(-0.000411442 -0.000411442 763.897)
(-4.6699e-05 -4.6699e-05 764.629)
(0.000102439 -1.32638e-05 764.629)
(0.000705831 9.50282e-05 764.629)
(0.00076438 0.000304145 764.629)
(0.000207687 0.000317293 764.628)
(-1.32638e-05 0.000102439 764.629)
(0.000244166 0.000244166 764.629)
(0.00102324 0.000470451 764.629)
(0.000986645 0.000817834 764.628)
(0.000220836 0.000903551 764.628)
(9.50282e-05 0.000705831 764.629)
(0.000470451 0.00102324 764.629)
(0.0012795 0.0012795 764.629)
(0.00119748 0.00146856 764.628)
(0.000293403 0.00148437 764.627)
(0.000304145 0.00076438 764.629)
(0.000817834 0.000986645 764.628)
(0.00146856 0.00119748 764.628)
(0.00119152 0.00119152 764.627)
(0.000236647 0.000496885 764.626)
(0.000317293 0.000207687 764.628)
(0.000903551 0.000220836 764.628)
(0.00148437 0.000293403 764.627)
(0.000496885 0.000236647 764.626)
(-0.000401227 -0.000401227 764.626)
(-5.71791e-05 -5.71791e-05 764.999)
(2.79959e-05 -3.10478e-05 764.999)
(0.000341258 6.48586e-06 764.999)
(0.000350864 8.87251e-05 764.998)
(9.47804e-05 9.43416e-05 764.998)
(-3.10478e-05 2.79959e-05 764.999)
(9.16608e-05 9.16608e-05 764.999)
(0.000461031 0.000167714 764.999)
(0.000438719 0.000294865 764.997)
(0.000100397 0.000316186 764.997)
(6.48586e-06 0.000341258 764.999)
(0.000167714 0.000461031 764.999)
(0.000544463 0.000544463 764.998)
(0.000499335 0.000606012 764.997)
(0.000116101 0.000596784 764.996)
(8.87251e-05 0.000350864 764.998)
(0.000294865 0.000438719 764.997)
(0.000606012 0.000499335 764.997)
(0.00049104 0.00049104 764.995)
(9.11685e-05 0.000120116 764.995)
(9.43416e-05 9.47804e-05 764.998)
(0.000316186 0.000100397 764.997)
(0.000596784 0.000116101 764.996)
(0.000120116 9.11685e-05 764.995)
(-0.000254823 -0.000254823 764.996)
)
;

boundaryField
{
    wall_minX
    {
        type            extrapolatedCalculated;
        value           nonuniform List<vector> 
100
(
(0 0.000258971 735.004)
(0 -9.79866e-05 735.004)
(0 -0.000484596 735.003)
(0 -0.000170956 735.003)
(0 -4.33172e-05 735.003)
(0 0.000473965 735.373)
(0 -0.000374871 735.373)
(0 -0.00117402 735.372)
(0 -0.000475331 735.372)
(0 -0.00015015 735.372)
(0 0.00051107 736.102)
(0 -0.000674288 736.102)
(0 -0.00159967 736.102)
(0 -0.000674524 736.101)
(0 -0.00026021 736.101)
(0 0.000560818 737.173)
(0 -0.000853562 737.173)
(0 -0.00181353 737.173)
(0 -0.000695693 737.173)
(0 -0.000296543 737.173)
(0 0.000619991 738.56)
(0 -0.000945105 738.561)
(0 -0.00189065 738.56)
(0 -0.0006183 738.561)
(0 -0.000292742 738.561)
(0 0.000678122 740.23)
(0 -0.000974751 740.23)
(0 -0.00187098 740.23)
(0 -0.000483244 740.23)
(0 -0.000265136 740.23)
(0 0.000727707 742.139)
(0 -0.000958696 742.139)
(0 -0.00177775 742.139)
(0 -0.000313574 742.14)
(0 -0.000222231 742.14)
(0 0.000763898 744.242)
(0 -0.000907093 744.242)
(0 -0.00162579 744.243)
(0 -0.000123969 744.243)
(0 -0.000169165 744.243)
(0 0.000783701 746.487)
(0 -0.000826788 746.487)
(0 -0.00142589 746.488)
(0 7.51291e-05 746.488)
(0 -0.000109467 746.488)
(0 0.00078538 748.819)
(0 -0.000723046 748.819)
(0 -0.00118706 748.819)
(0 0.000275477 748.82)
(0 -4.5888e-05 748.82)
(0 0.000768067 751.18)
(0 -0.000600589 751.18)
(0 -0.000917868 751.18)
(0 0.000469962 751.18)
(0 1.91736e-05 751.18)
(0 0.000731488 753.511)
(0 -0.000464268 753.511)
(0 -0.000627207 753.512)
(0 0.000651966 753.512)
(0 8.34175e-05 753.512)
(0 0.000675715 755.756)
(0 -0.000319599 755.756)
(0 -0.000324894 755.757)
(0 0.000814869 755.757)
(0 0.000144448 755.757)
(0 0.000600878 757.86)
(0 -0.000173412 757.86)
(0 -2.23849e-05 757.86)
(0 0.000951452 757.86)
(0 0.000199547 757.86)
(0 0.000506749 759.77)
(0 -3.48296e-05 759.77)
(0 0.000266067 759.77)
(0 0.00105297 759.77)
(0 0.000245329 759.77)
(0 0.000392246 761.439)
(0 8.31159e-05 761.439)
(0 0.000521291 761.439)
(0 0.0011076 761.439)
(0 0.000277183 761.439)
(0 0.000255559 762.827)
(0 0.000161224 762.827)
(0 0.000715091 762.827)
(0 0.00109785 762.827)
(0 0.000288422 762.827)
(0 9.89037e-05 763.899)
(0 0.000173487 763.899)
(0 0.000802039 763.899)
(0 0.000996808 763.899)
(0 0.000269353 763.899)
(0 -4.6699e-05 764.629)
(0 0.000102439 764.629)
(0 0.000705831 764.629)
(0 0.00076438 764.629)
(0 0.000207687 764.628)
(0 -5.71791e-05 764.999)
(0 2.79959e-05 764.999)
(0 0.000341258 764.999)
(0 0.000350864 764.998)
(0 9.47804e-05 764.998)
)
;
    }
    wall_maxX
    {
        type            extrapolatedCalculated;
        value           nonuniform List<vector> 
100
(
(0 3.34382e-05 735.003)
(0 -0.000113752 735.003)
(0 -0.000119605 735.002)
(0 0.000114662 735.003)
(0 8.70762e-05 735.003)
(0 0.000114972 735.372)
(0 -0.000155106 735.372)
(0 -0.000134512 735.372)
(0 0.00028384 735.372)
(0 0.000148276 735.372)
(0 0.000212377 736.101)
(0 -5.26066e-05 736.102)
(0 7.31024e-05 736.102)
(0 0.000419931 736.102)
(0 8.18451e-05 736.102)
(0 0.000335485 737.173)
(0 0.00015376 737.173)
(0 0.000427729 737.174)
(0 0.000597899 737.174)
(0 -1.15549e-05 737.174)
(0 0.000472348 738.561)
(0 0.000417842 738.561)
(0 0.000851202 738.561)
(0 0.000805869 738.562)
(0 -9.98388e-05 738.562)
(0 0.000610874 740.23)
(0 0.000706944 740.23)
(0 0.00129729 740.23)
(0 0.00102392 740.231)
(0 -0.000177303 740.231)
(0 0.000741953 742.14)
(0 0.00099852 742.14)
(0 0.00173573 742.14)
(0 0.00123498 742.141)
(0 -0.000244183 742.141)
(0 0.000858987 744.243)
(0 0.00127653 744.243)
(0 0.0021449 744.243)
(0 0.00142615 744.244)
(0 -0.000301209 744.244)
(0 0.000957141 746.488)
(0 0.00152904 746.488)
(0 0.00250853 746.489)
(0 0.00158798 746.489)
(0 -0.000348654 746.489)
(0 0.00103283 748.82)
(0 0.00174677 748.82)
(0 0.00281392 748.82)
(0 0.00171354 748.82)
(0 -0.000386441 748.82)
(0 0.0010834 751.18)
(0 0.00192232 751.18)
(0 0.00305104 751.181)
(0 0.00179772 751.181)
(0 -0.000414404 751.181)
(0 0.00110692 753.512)
(0 0.00204956 753.512)
(0 0.00321186 753.512)
(0 0.0018367 753.512)
(0 -0.000432518 753.512)
(0 0.00110199 755.757)
(0 0.00212324 755.757)
(0 0.00328981 755.757)
(0 0.00182744 755.757)
(0 -0.000441124 755.757)
(0 0.00106744 757.86)
(0 0.00213823 757.86)
(0 0.00327903 757.86)
(0 0.00176707 757.86)
(0 -0.000441172 757.86)
(0 0.00100186 759.77)
(0 0.00208845 759.77)
(0 0.00317311 759.77)
(0 0.00165199 759.77)
(0 -0.000434533 759.77)
(0 0.000902601 761.439)
(0 0.00196468 761.439)
(0 0.00296304 761.439)
(0 0.00147657 761.439)
(0 -0.000424382 761.439)
(0 0.000763839 762.827)
(0 0.00175023 762.827)
(0 0.00263347 762.826)
(0 0.00123176 762.826)
(0 -0.000415325 762.826)
(0 0.000573358 763.899)
(0 0.00141301 763.898)
(0 0.00215661 763.898)
(0 0.000905517 763.897)
(0 -0.000411442 763.897)
(0 0.000317293 764.628)
(0 0.000903551 764.628)
(0 0.00148437 764.627)
(0 0.000496885 764.626)
(0 -0.000401227 764.626)
(0 9.43416e-05 764.998)
(0 0.000316186 764.997)
(0 0.000596784 764.996)
(0 0.000120116 764.995)
(0 -0.000254823 764.996)
)
;
    }
    wall_minY
    {
        type            extrapolatedCalculated;
        value           nonuniform List<vector> 
100
(
(0.000258971 0 735.004)
(0.000473965 0 735.373)
(0.00051107 0 736.102)
(0.000560818 0 737.173)
(0.000619991 0 738.56)
(0.000678122 0 740.23)
(0.000727707 0 742.139)
(0.000763898 0 744.242)
(0.000783701 0 746.487)
(0.00078538 0 748.819)
(0.000768067 0 751.18)
(0.000731488 0 753.511)
(0.000675715 0 755.756)
(0.000600878 0 757.86)
(0.000506749 0 759.77)
(0.000392246 0 761.439)
(0.000255559 0 762.827)
(9.89037e-05 0 763.899)
(-4.6699e-05 0 764.629)
(-5.71791e-05 0 764.999)
(-9.79866e-05 0 735.004)
(-0.000374871 0 735.373)
(-0.000674288 0 736.102)
(-0.000853562 0 737.173)
(-0.000945105 0 738.561)
(-0.000974751 0 740.23)
(-0.000958696 0 742.139)
(-0.000907093 0 744.242)
(-0.000826788 0 746.487)
(-0.000723046 0 748.819)
(-0.000600589 0 751.18)
(-0.000464268 0 753.511)
(-0.000319599 0 755.756)
(-0.000173412 0 757.86)
(-3.48297e-05 0 759.77)
(8.31159e-05 0 761.439)
(0.000161224 0 762.827)
(0.000173487 0 763.899)
(0.000102439 0 764.629)
(2.79959e-05 0 764.999)
(-0.000484596 0 735.003)
(-0.00117402 0 735.372)
(-0.00159967 0 736.102)
(-0.00181353 0 737.173)
(-0.00189065 0 738.56)
(-0.00187098 0 740.23)
(-0.00177775 0 742.139)
(-0.00162579 0 744.243)
(-0.00142589 0 746.488)
(-0.00118706 0 748.819)
(-0.000917868 0 751.18)
(-0.000627207 0 753.512)
(-0.000324894 0 755.757)
(-2.23849e-05 0 757.86)
(0.000266067 0 759.77)
(0.000521291 0 761.439)
(0.000715091 0 762.827)
(0.000802039 0 763.899)
(0.000705831 0 764.629)
(0.000341258 0 764.999)
(-0.000170956 0 735.003)
(-0.000475331 0 735.372)
(-0.000674524 0 736.101)
(-0.000695693 0 737.173)
(-0.0006183 0 738.561)
(-0.000483244 0 740.23)
(-0.000313574 0 742.14)
(-0.000123969 0 744.243)
(7.51291e-05 0 746.488)
(0.000275477 0 748.82)
(0.000469962 0 751.18)
(0.000651966 0 753.512)
(0.000814869 0 755.757)
(0.000951452 0 757.86)
(0.00105297 0 759.77)
(0.0011076 0 761.439)
(0.00109785 0 762.827)
(0.000996808 0 763.899)
(0.00076438 0 764.629)
(0.000350864 0 764.998)
(-4.33172e-05 0 735.003)
(-0.00015015 0 735.372)
(-0.00026021 0 736.101)
(-0.000296543 0 737.173)
(-0.000292742 0 738.561)
(-0.000265136 0 740.23)
(-0.000222231 0 742.14)
(-0.000169165 0 744.243)
(-0.000109467 0 746.488)
(-4.5888e-05 0 748.82)
(1.91735e-05 0 751.18)
(8.34175e-05 0 753.512)
(0.000144448 0 755.757)
(0.000199547 0 757.86)
(0.000245329 0 759.77)
(0.000277183 0 761.439)
(0.000288422 0 762.827)
(0.000269353 0 763.899)
(0.000207687 0 764.628)
(9.47804e-05 0 764.998)
)
;
    }
    wall_maxY
    {
        type            extrapolatedCalculated;
        value           nonuniform List<vector> 
100
(
(3.34382e-05 0 735.003)
(0.000114972 0 735.372)
(0.000212377 0 736.101)
(0.000335485 0 737.173)
(0.000472348 0 738.561)
(0.000610874 0 740.23)
(0.000741953 0 742.14)
(0.000858987 0 744.243)
(0.000957141 0 746.488)
(0.00103283 0 748.82)
(0.0010834 0 751.18)
(0.00110692 0 753.512)
(0.00110199 0 755.757)
(0.00106744 0 757.86)
(0.00100186 0 759.77)
(0.000902601 0 761.439)
(0.000763839 0 762.827)
(0.000573358 0 763.899)
(0.000317293 0 764.628)
(9.43416e-05 0 764.998)
(-0.000113752 0 735.003)
(-0.000155106 0 735.372)
(-5.26066e-05 0 736.102)
(0.00015376 0 737.173)
(0.000417842 0 738.561)
(0.000706944 0 740.23)
(0.00099852 0 742.14)
(0.00127653 0 744.243)
(0.00152904 0 746.488)
(0.00174677 0 748.82)
(0.00192232 0 751.18)
(0.00204956 0 753.512)
(0.00212324 0 755.757)
(0.00213823 0 757.86)
(0.00208845 0 759.77)
(0.00196468 0 761.439)
(0.00175023 0 762.827)
(0.00141301 0 763.898)
(0.000903551 0 764.628)
(0.000316186 0 764.997)
(-0.000119605 0 735.002)
(-0.000134512 0 735.372)
(7.31024e-05 0 736.102)
(0.000427729 0 737.174)
(0.000851202 0 738.561)
(0.00129729 0 740.23)
(0.00173573 0 742.14)
(0.0021449 0 744.243)
(0.00250853 0 746.489)
(0.00281392 0 748.82)
(0.00305104 0 751.181)
(0.00321186 0 753.512)
(0.00328981 0 755.757)
(0.00327903 0 757.86)
(0.00317311 0 759.77)
(0.00296304 0 761.439)
(0.00263347 0 762.826)
(0.00215661 0 763.898)
(0.00148437 0 764.627)
(0.000596784 0 764.996)
(0.000114662 0 735.003)
(0.00028384 0 735.372)
(0.000419931 0 736.102)
(0.000597899 0 737.174)
(0.000805869 0 738.562)
(0.00102392 0 740.231)
(0.00123498 0 742.141)
(0.00142615 0 744.244)
(0.00158798 0 746.489)
(0.00171354 0 748.82)
(0.00179772 0 751.181)
(0.0018367 0 753.512)
(0.00182744 0 755.757)
(0.00176707 0 757.86)
(0.00165199 0 759.77)
(0.00147657 0 761.439)
(0.00123176 0 762.826)
(0.000905517 0 763.897)
(0.000496885 0 764.626)
(0.000120116 0 764.995)
(8.70762e-05 0 735.003)
(0.000148276 0 735.372)
(8.18451e-05 0 736.102)
(-1.15549e-05 0 737.174)
(-9.98388e-05 0 738.562)
(-0.000177303 0 740.231)
(-0.000244183 0 742.141)
(-0.000301209 0 744.244)
(-0.000348654 0 746.489)
(-0.000386441 0 748.82)
(-0.000414404 0 751.181)
(-0.000432518 0 753.512)
(-0.000441124 0 755.757)
(-0.000441172 0 757.86)
(-0.000434533 0 759.77)
(-0.000424382 0 761.439)
(-0.000415325 0 762.826)
(-0.000411442 0 763.897)
(-0.000401227 0 764.626)
(-0.000254823 0 764.996)
)
;
    }
    inlet_minZ
    {
        type            extrapolatedCalculated;
        value           nonuniform List<vector> 
25
(
(0.000258971 0.000258971 734.911)
(-6.75851e-05 -9.79866e-05 734.912)
(-3.47802e-05 -0.000484596 734.911)
(5.70607e-06 -0.000170956 734.91)
(3.34382e-05 -4.33172e-05 734.91)
(-9.79866e-05 -6.75851e-05 734.912)
(-0.000391738 -0.000391738 734.912)
(-0.000316704 -0.000411305 734.91)
(-0.000219563 -0.000102738 734.91)
(-0.000113752 -1.5585e-05 734.91)
(-0.000484596 -3.47802e-05 734.911)
(-0.000411305 -0.000316704 734.91)
(-0.000312421 -0.000312421 734.909)
(-0.000220493 3.19955e-05 734.909)
(-0.000119605 6.24934e-05 734.909)
(-0.000170956 5.70606e-06 734.91)
(-0.000102738 -0.000219563 734.91)
(3.19955e-05 -0.000220493 734.909)
(9.00787e-05 9.00787e-05 734.909)
(0.000114662 8.53032e-05 734.91)
(-4.33172e-05 3.34382e-05 734.91)
(-1.5585e-05 -0.000113752 734.91)
(6.24934e-05 -0.000119605 734.909)
(8.53032e-05 0.000114662 734.91)
(8.70762e-05 8.70762e-05 734.91)
)
;
    }
    outlet_maxZ
    {
        type            extrapolatedCalculated;
        value           nonuniform List<vector> 
25
(
(-5.71791e-05 -5.71791e-05 765.092)
(-3.10478e-05 2.79959e-05 765.092)
(6.48586e-06 0.000341258 765.092)
(8.87251e-05 0.000350864 765.091)
(9.43416e-05 9.47804e-05 765.09)
(2.79959e-05 -3.10478e-05 765.092)
(9.16608e-05 9.16608e-05 765.092)
(0.000167714 0.000461031 765.092)
(0.000294865 0.000438719 765.09)
(0.000316186 0.000100397 765.09)
(0.000341258 6.48586e-06 765.092)
(0.000461031 0.000167714 765.092)
(0.000544463 0.000544463 765.091)
(0.000606012 0.000499335 765.089)
(0.000596784 0.000116101 765.089)
(0.000350864 8.87251e-05 765.091)
(0.000438719 0.000294865 765.09)
(0.000499335 0.000606012 765.089)
(0.00049104 0.00049104 765.088)
(0.000120116 9.11685e-05 765.087)
(9.47804e-05 9.43416e-05 765.09)
(0.000100397 0.000316186 765.09)
(0.000116101 0.000596784 765.089)
(9.11685e-05 0.000120116 765.087)
(-0.000254823 -0.000254823 765.089)
)
;
    }
}


// ************************************************************************* //
