/*--------------------------------*- C++ -*----------------------------------*\
| =========                 |                                                 |
| \\      /  F ield         | OpenFOAM: The Open Source CFD Toolbox           |
|  \\    /   O peration     | Version:  v2106                                 |
|   \\  /    A nd           | Website:  www.openfoam.com                      |
|    \\/     M anipulation  |                                                 |
\*---------------------------------------------------------------------------*/
FoamFile
{
    version     2.0;
    format      ascii;
    arch        "LSB;label=32;scalar=64";
    class       volVectorField;
    location    "40";
    object      U;
}
// * * * * * * * * * * * * * * * * * * * * * * * * * * * * * * * * * * * * * //

dimensions      [0 1 -1 0 0 0 0];

internalField   nonuniform List<vector> 
4000
(
(0 0 166.504)
(0 0 227.418)
(0 0 240.504)
(0 0 243.819)
(0 0 244.703)
(0 0 244.703)
(0 0 243.819)
(0 0 240.503)
(0 0 227.418)
(0 0 166.504)
(0 0 227.418)
(0 0 333.038)
(0 0 360.369)
(0 0 368.242)
(0 0 370.498)
(0 0 370.498)
(0 0 368.242)
(0 0 360.369)
(0 0 333.037)
(0 0 227.418)
(0 0 240.504)
(0 0 360.369)
(0 0 393.818)
(0 0 404.101)
(0 0 407.179)
(0 0 407.179)
(0 0 404.101)
(0 0 393.818)
(0 0 360.368)
(0 0 240.503)
(0 0 243.819)
(0 0 368.242)
(0 0 404.101)
(0 0 415.491)
(0 0 418.984)
(0 0 418.984)
(0 0 415.491)
(0 0 404.101)
(0 0 368.242)
(0 0 243.819)
(0 0 244.703)
(0 0 370.498)
(0 0 407.179)
(0 0 418.984)
(0 0 422.643)
(0 0 422.643)
(0 0 418.984)
(0 0 407.179)
(0 0 370.498)
(0 0 244.703)
(0 0 244.703)
(0 0 370.498)
(0 0 407.179)
(0 0 418.984)
(0 0 422.643)
(0 0 422.643)
(0 0 418.984)
(0 0 407.179)
(0 0 370.498)
(0 0 244.703)
(0 0 243.819)
(0 0 368.242)
(0 0 404.101)
(0 0 415.491)
(0 0 418.984)
(0 0 418.984)
(0 0 415.491)
(0 0 404.101)
(0 0 368.242)
(0 0 243.819)
(0 0 240.503)
(0 0 360.369)
(0 0 393.818)
(0 0 404.101)
(0 0 407.179)
(0 0 407.179)
(0 0 404.101)
(0 0 393.818)
(0 0 360.369)
(0 0 240.503)
(0 0 227.418)
(0 0 333.037)
(0 0 360.368)
(0 0 368.242)
(0 0 370.498)
(0 0 370.498)
(0 0 368.242)
(0 0 360.369)
(0 0 333.037)
(0 0 227.418)
(0 0 166.504)
(0 0 227.418)
(0 0 240.503)
(0 0 243.819)
(0 0 244.703)
(0 0 244.703)
(0 0 243.819)
(0 0 240.503)
(0 0 227.418)
(0 0 166.504)
(0 0 41.8897)
(0 0 77.844)
(0 0 91.2542)
(0 0 96.1295)
(0 0 97.723)
(0 0 97.723)
(0 0 96.1294)
(0 0 91.2541)
(0 0 77.8439)
(0 0 41.8896)
(0 0 77.844)
(0 0 155.253)
(0 0 187.36)
(0 0 199.841)
(0 0 204.072)
(0 0 204.072)
(0 0 199.841)
(0 0 187.36)
(0 0 155.252)
(0 0 77.8438)
(0 0 91.2542)
(0 0 187.36)
(0 0 229.412)
(0 0 246.448)
(0 0 252.379)
(0 0 252.379)
(0 0 246.448)
(0 0 229.412)
(0 0 187.36)
(0 0 91.2541)
(0 0 96.1295)
(0 0 199.841)
(0 0 246.448)
(0 0 265.775)
(0 0 272.615)
(0 0 272.615)
(0 0 265.775)
(0 0 246.448)
(0 0 199.841)
(0 0 96.1293)
(0 0 97.723)
(0 0 204.072)
(0 0 252.379)
(0 0 272.615)
(0 0 279.83)
(0 0 279.83)
(0 0 272.615)
(0 0 252.379)
(0 0 204.072)
(0 0 97.7229)
(0 0 97.723)
(0 0 204.072)
(0 0 252.379)
(0 0 272.615)
(0 0 279.83)
(0 0 279.83)
(0 0 272.615)
(0 0 252.379)
(0 0 204.072)
(0 0 97.7229)
(0 0 96.1294)
(0 0 199.841)
(0 0 246.448)
(0 0 265.775)
(0 0 272.615)
(0 0 272.615)
(0 0 265.775)
(0 0 246.448)
(0 0 199.841)
(0 0 96.1294)
(0 0 91.2541)
(0 0 187.36)
(0 0 229.412)
(0 0 246.448)
(0 0 252.379)
(0 0 252.379)
(0 0 246.448)
(0 0 229.412)
(0 0 187.36)
(0 0 91.2541)
(0 0 77.8439)
(0 0 155.252)
(0 0 187.36)
(0 0 199.841)
(0 0 204.072)
(0 0 204.072)
(0 0 199.841)
(0 0 187.36)
(0 0 155.252)
(0 0 77.8439)
(0 0 41.8896)
(0 0 77.8438)
(0 0 91.2541)
(0 0 96.1293)
(0 0 97.7229)
(0 0 97.7229)
(0 0 96.1294)
(0 0 91.2541)
(0 0 77.8439)
(0 0 41.8896)
(0 0 13.4227)
(0 0 30.517)
(0 0 39.1111)
(0 0 42.9419)
(0 0 44.3558)
(0 0 44.3558)
(0 0 42.9418)
(0 0 39.111)
(0 0 30.5169)
(0 0 13.4227)
(0 0 30.517)
(0 0 72.1454)
(0 0 94.2432)
(0 0 104.446)
(0 0 108.287)
(0 0 108.287)
(0 0 104.446)
(0 0 94.2431)
(0 0 72.1452)
(0 0 30.5169)
(0 0 39.1111)
(0 0 94.2432)
(0 0 124.5)
(0 0 138.838)
(0 0 144.327)
(0 0 144.327)
(0 0 138.838)
(0 0 124.5)
(0 0 94.2431)
(0 0 39.111)
(0 0 42.9419)
(0 0 104.446)
(0 0 138.838)
(0 0 155.401)
(0 0 161.814)
(0 0 161.814)
(0 0 155.401)
(0 0 138.838)
(0 0 104.446)
(0 0 42.9418)
(0 0 44.3558)
(0 0 108.287)
(0 0 144.327)
(0 0 161.814)
(0 0 168.621)
(0 0 168.621)
(0 0 161.814)
(0 0 144.327)
(0 0 108.287)
(0 0 44.3558)
(0 0 44.3558)
(0 0 108.287)
(0 0 144.327)
(0 0 161.814)
(0 0 168.621)
(0 0 168.621)
(0 0 161.814)
(0 0 144.327)
(0 0 108.287)
(0 0 44.3558)
(0 0 42.9418)
(0 0 104.446)
(0 0 138.838)
(0 0 155.401)
(0 0 161.814)
(0 0 161.814)
(0 0 155.401)
(0 0 138.838)
(0 0 104.446)
(0 0 42.9419)
(0 0 39.111)
(0 0 94.2431)
(0 0 124.5)
(0 0 138.838)
(0 0 144.327)
(0 0 144.327)
(0 0 138.838)
(0 0 124.5)
(0 0 94.2433)
(0 0 39.1111)
(0 0 30.5169)
(0 0 72.1452)
(0 0 94.2431)
(0 0 104.446)
(0 0 108.287)
(0 0 108.287)
(0 0 104.446)
(0 0 94.2433)
(0 0 72.1455)
(0 0 30.517)
(0 0 13.4227)
(0 0 30.5169)
(0 0 39.111)
(0 0 42.9418)
(0 0 44.3558)
(0 0 44.3558)
(0 0 42.9419)
(0 0 39.1111)
(0 0 30.517)
(0 0 13.4227)
(0 0 5.08712)
(0 0 12.8963)
(0 0 17.5643)
(0 0 19.931)
(0 0 20.8784)
(0 0 20.8784)
(0 0 19.931)
(0 0 17.5643)
(0 0 12.8962)
(0 0 5.08708)
(0 0 12.8963)
(0 0 33.2539)
(0 0 45.7496)
(0 0 52.2036)
(0 0 54.8159)
(0 0 54.8158)
(0 0 52.2036)
(0 0 45.7496)
(0 0 33.2538)
(0 0 12.8962)
(0 0 17.5643)
(0 0 45.7496)
(0 0 63.3915)
(0 0 72.651)
(0 0 76.4388)
(0 0 76.4388)
(0 0 72.651)
(0 0 63.3915)
(0 0 45.7496)
(0 0 17.5643)
(0 0 19.931)
(0 0 52.2036)
(0 0 72.651)
(0 0 83.5004)
(0 0 87.9724)
(0 0 87.9724)
(0 0 83.5004)
(0 0 72.6511)
(0 0 52.2037)
(0 0 19.931)
(0 0 20.8784)
(0 0 54.8159)
(0 0 76.4388)
(0 0 87.9724)
(0 0 92.7446)
(0 0 92.7447)
(0 0 87.9725)
(0 0 76.439)
(0 0 54.816)
(0 0 20.8785)
(0 0 20.8784)
(0 0 54.8158)
(0 0 76.4388)
(0 0 87.9724)
(0 0 92.7447)
(0 0 92.7448)
(0 0 87.9726)
(0 0 76.4391)
(0 0 54.8161)
(0 0 20.8785)
(0 0 19.931)
(0 0 52.2036)
(0 0 72.651)
(0 0 83.5004)
(0 0 87.9725)
(0 0 87.9726)
(0 0 83.5007)
(0 0 72.6514)
(0 0 52.2039)
(0 0 19.9311)
(0 0 17.5643)
(0 0 45.7496)
(0 0 63.3915)
(0 0 72.6511)
(0 0 76.439)
(0 0 76.4391)
(0 0 72.6514)
(0 0 63.3919)
(0 0 45.7499)
(0 0 17.5644)
(0 0 12.8962)
(0 0 33.2538)
(0 0 45.7496)
(0 0 52.2037)
(0 0 54.816)
(0 0 54.8161)
(0 0 52.2039)
(0 0 45.7499)
(0 0 33.2541)
(0 0 12.8963)
(0 0 5.08708)
(0 0 12.8962)
(0 0 17.5643)
(0 0 19.931)
(0 0 20.8785)
(0 0 20.8785)
(0 0 19.9311)
(0 0 17.5644)
(0 0 12.8963)
(0 0 5.08715)
(0 0 2.06843)
(0 0 5.53158)
(0 0 7.82179)
(0 0 9.08317)
(0 0 9.61672)
(0 0 9.61672)
(0 0 9.08317)
(0 0 7.82178)
(0 0 5.53155)
(0 0 2.06841)
(0 0 5.53158)
(0 0 14.8961)
(0 0 21.1697)
(0 0 24.6597)
(0 0 26.1452)
(0 0 26.1453)
(0 0 24.6597)
(0 0 21.1697)
(0 0 14.8961)
(0 0 5.53156)
(0 0 7.82179)
(0 0 21.1697)
(0 0 30.2131)
(0 0 35.2942)
(0 0 37.4717)
(0 0 37.4717)
(0 0 35.2942)
(0 0 30.2131)
(0 0 21.1697)
(0 0 7.82181)
(0 0 9.08317)
(0 0 24.6597)
(0 0 35.2942)
(0 0 41.3124)
(0 0 43.9049)
(0 0 43.905)
(0 0 41.3126)
(0 0 35.2943)
(0 0 24.6599)
(0 0 9.08323)
(0 0 9.61672)
(0 0 26.1452)
(0 0 37.4717)
(0 0 43.9049)
(0 0 46.6836)
(0 0 46.6837)
(0 0 43.9051)
(0 0 37.472)
(0 0 26.1455)
(0 0 9.61682)
(0 0 9.61672)
(0 0 26.1453)
(0 0 37.4717)
(0 0 43.905)
(0 0 46.6837)
(0 0 46.6838)
(0 0 43.9052)
(0 0 37.472)
(0 0 26.1456)
(0 0 9.61685)
(0 0 9.08317)
(0 0 24.6597)
(0 0 35.2942)
(0 0 41.3126)
(0 0 43.9051)
(0 0 43.9052)
(0 0 41.3128)
(0 0 35.2946)
(0 0 24.66)
(0 0 9.08331)
(0 0 7.82178)
(0 0 21.1697)
(0 0 30.2131)
(0 0 35.2943)
(0 0 37.472)
(0 0 37.472)
(0 0 35.2946)
(0 0 30.2135)
(0 0 21.17)
(0 0 7.82193)
(0 0 5.53155)
(0 0 14.8961)
(0 0 21.1697)
(0 0 24.6599)
(0 0 26.1455)
(0 0 26.1456)
(0 0 24.66)
(0 0 21.17)
(0 0 14.8964)
(0 0 5.53168)
(0 0 2.06841)
(0 0 5.53156)
(0 0 7.82181)
(0 0 9.08323)
(0 0 9.61682)
(0 0 9.61685)
(0 0 9.08331)
(0 0 7.82193)
(0 0 5.53168)
(0 0 2.06847)
(0 0 0.842374)
(0 0 2.31301)
(0 0 3.34596)
(0 0 3.94658)
(0 0 4.21044)
(0 0 4.21044)
(0 0 3.94659)
(0 0 3.34596)
(0 0 2.31301)
(0 0 0.842367)
(0 0 2.31301)
(0 0 6.36985)
(0 0 9.23807)
(0 0 10.9152)
(0 0 11.6548)
(0 0 11.6548)
(0 0 10.9153)
(0 0 9.23811)
(0 0 6.36989)
(0 0 2.31302)
(0 0 3.34596)
(0 0 9.23807)
(0 0 13.4314)
(0 0 15.8986)
(0 0 16.9914)
(0 0 16.9914)
(0 0 15.8987)
(0 0 13.4315)
(0 0 9.23817)
(0 0 3.346)
(0 0 3.94658)
(0 0 10.9152)
(0 0 15.8986)
(0 0 18.8448)
(0 0 20.1543)
(0 0 20.1544)
(0 0 18.845)
(0 0 15.8988)
(0 0 10.9154)
(0 0 3.94665)
(0 0 4.21044)
(0 0 11.6548)
(0 0 16.9914)
(0 0 20.1543)
(0 0 21.5628)
(0 0 21.5629)
(0 0 20.1545)
(0 0 16.9916)
(0 0 11.655)
(0 0 4.21054)
(0 0 4.21044)
(0 0 11.6548)
(0 0 16.9914)
(0 0 20.1544)
(0 0 21.5629)
(0 0 21.5629)
(0 0 20.1546)
(0 0 16.9917)
(0 0 11.6551)
(0 0 4.21056)
(0 0 3.94659)
(0 0 10.9153)
(0 0 15.8987)
(0 0 18.845)
(0 0 20.1545)
(0 0 20.1546)
(0 0 18.8452)
(0 0 15.899)
(0 0 10.9155)
(0 0 3.94671)
(0 0 3.34596)
(0 0 9.23811)
(0 0 13.4315)
(0 0 15.8988)
(0 0 16.9916)
(0 0 16.9917)
(0 0 15.899)
(0 0 13.4317)
(0 0 9.23837)
(0 0 3.34608)
(0 0 2.31301)
(0 0 6.36989)
(0 0 9.23817)
(0 0 10.9154)
(0 0 11.655)
(0 0 11.6551)
(0 0 10.9155)
(0 0 9.23837)
(0 0 6.37009)
(0 0 2.31311)
(0 0 0.842367)
(0 0 2.31302)
(0 0 3.346)
(0 0 3.94665)
(0 0 4.21054)
(0 0 4.21056)
(0 0 3.94671)
(0 0 3.34608)
(0 0 2.31311)
(0 0 0.84241)
(0 0 0.331174)
(0 0 0.92207)
(0 0 1.35286)
(0 0 1.61263)
(0 0 1.72982)
(0 0 1.72982)
(0 0 1.61264)
(0 0 1.35287)
(0 0 0.922075)
(0 0 0.331174)
(0 0 0.92207)
(0 0 2.57075)
(0 0 3.77697)
(0 0 4.50675)
(0 0 4.83672)
(0 0 4.83673)
(0 0 4.50678)
(0 0 3.77701)
(0 0 2.57078)
(0 0 0.922083)
(0 0 1.35286)
(0 0 3.77697)
(0 0 5.55758)
(0 0 6.63917)
(0 0 7.12965)
(0 0 7.12967)
(0 0 6.63923)
(0 0 5.55767)
(0 0 3.77706)
(0 0 1.3529)
(0 0 1.61263)
(0 0 4.50675)
(0 0 6.63917)
(0 0 7.93864)
(0 0 8.52936)
(0 0 8.52939)
(0 0 7.93874)
(0 0 6.63931)
(0 0 4.50688)
(0 0 1.61269)
(0 0 1.72982)
(0 0 4.83672)
(0 0 7.12965)
(0 0 8.52936)
(0 0 9.16649)
(0 0 9.16653)
(0 0 8.52948)
(0 0 7.12982)
(0 0 4.83688)
(0 0 1.72989)
(0 0 1.72982)
(0 0 4.83673)
(0 0 7.12967)
(0 0 8.52939)
(0 0 9.16653)
(0 0 9.16658)
(0 0 8.52953)
(0 0 7.12986)
(0 0 4.83692)
(0 0 1.72991)
(0 0 1.61264)
(0 0 4.50678)
(0 0 6.63923)
(0 0 7.93874)
(0 0 8.52948)
(0 0 8.52953)
(0 0 7.93887)
(0 0 6.63943)
(0 0 4.50697)
(0 0 1.61273)
(0 0 1.35287)
(0 0 3.77701)
(0 0 5.55767)
(0 0 6.63931)
(0 0 7.12982)
(0 0 7.12986)
(0 0 6.63943)
(0 0 5.55785)
(0 0 3.77719)
(0 0 1.35295)
(0 0 0.922075)
(0 0 2.57078)
(0 0 3.77706)
(0 0 4.50688)
(0 0 4.83688)
(0 0 4.83692)
(0 0 4.50697)
(0 0 3.77719)
(0 0 2.57092)
(0 0 0.922138)
(0 0 0.331174)
(0 0 0.922083)
(0 0 1.3529)
(0 0 1.61269)
(0 0 1.72989)
(0 0 1.72991)
(0 0 1.61273)
(0 0 1.35295)
(0 0 0.922138)
(0 0 0.331201)
(0 0 0.123511)
(0 0 0.346622)
(0 0 0.513243)
(0 0 0.616273)
(0 0 0.663639)
(0 0 0.663641)
(0 0 0.616279)
(0 0 0.51325)
(0 0 0.346627)
(0 0 0.123512)
(0 0 0.346622)
(0 0 0.973432)
(0 0 1.44249)
(0 0 1.73313)
(0 0 1.86695)
(0 0 1.86695)
(0 0 1.73315)
(0 0 1.44252)
(0 0 0.97346)
(0 0 0.346633)
(0 0 0.513243)
(0 0 1.44249)
(0 0 2.13962)
(0 0 2.5727)
(0 0 2.7725)
(0 0 2.77251)
(0 0 2.57274)
(0 0 2.13967)
(0 0 1.44255)
(0 0 0.513268)
(0 0 0.616273)
(0 0 1.73313)
(0 0 2.5727)
(0 0 3.09544)
(0 0 3.33701)
(0 0 3.33703)
(0 0 3.0955)
(0 0 2.57278)
(0 0 1.73321)
(0 0 0.61631)
(0 0 0.663639)
(0 0 1.86695)
(0 0 2.7725)
(0 0 3.33701)
(0 0 3.59814)
(0 0 3.59817)
(0 0 3.33708)
(0 0 2.7726)
(0 0 1.86705)
(0 0 0.663685)
(0 0 0.663641)
(0 0 1.86695)
(0 0 2.77251)
(0 0 3.33703)
(0 0 3.59817)
(0 0 3.59819)
(0 0 3.33711)
(0 0 2.77263)
(0 0 1.86706)
(0 0 0.663692)
(0 0 0.616279)
(0 0 1.73315)
(0 0 2.57274)
(0 0 3.0955)
(0 0 3.33708)
(0 0 3.33711)
(0 0 3.09557)
(0 0 2.57285)
(0 0 1.73326)
(0 0 0.61633)
(0 0 0.51325)
(0 0 1.44252)
(0 0 2.13967)
(0 0 2.57278)
(0 0 2.7726)
(0 0 2.77263)
(0 0 2.57285)
(0 0 2.13977)
(0 0 1.44262)
(0 0 0.513297)
(0 0 0.346627)
(0 0 0.97346)
(0 0 1.44255)
(0 0 1.73321)
(0 0 1.86705)
(0 0 1.86706)
(0 0 1.73326)
(0 0 1.44262)
(0 0 0.973534)
(0 0 0.346663)
(0 0 0.123512)
(0 0 0.346633)
(0 0 0.513268)
(0 0 0.61631)
(0 0 0.663685)
(0 0 0.663692)
(0 0 0.61633)
(0 0 0.513297)
(0 0 0.346663)
(0 0 0.123527)
(0 0 0.0433702)
(0 0 0.122312)
(0 0 0.182231)
(0 0 0.219949)
(0 0 0.237531)
(0 0 0.237532)
(0 0 0.219953)
(0 0 0.182236)
(0 0 0.122315)
(0 0 0.0433714)
(0 0 0.122312)
(0 0 0.345074)
(0 0 0.51437)
(0 0 0.62108)
(0 0 0.670872)
(0 0 0.670876)
(0 0 0.621092)
(0 0 0.514388)
(0 0 0.34509)
(0 0 0.122318)
(0 0 0.182231)
(0 0 0.51437)
(0 0 0.767202)
(0 0 0.926853)
(0 0 1.00145)
(0 0 1.00146)
(0 0 0.926875)
(0 0 0.767234)
(0 0 0.514401)
(0 0 0.182245)
(0 0 0.219949)
(0 0 0.62108)
(0 0 0.926853)
(0 0 1.12023)
(0 0 1.21071)
(0 0 1.21072)
(0 0 1.12027)
(0 0 0.926897)
(0 0 0.621124)
(0 0 0.219969)
(0 0 0.237531)
(0 0 0.670872)
(0 0 1.00145)
(0 0 1.21071)
(0 0 1.30867)
(0 0 1.30869)
(0 0 1.21074)
(0 0 1.00151)
(0 0 0.670925)
(0 0 0.237555)
(0 0 0.237532)
(0 0 0.670876)
(0 0 1.00146)
(0 0 1.21072)
(0 0 1.30869)
(0 0 1.3087)
(0 0 1.21076)
(0 0 1.00152)
(0 0 0.670933)
(0 0 0.237559)
(0 0 0.219953)
(0 0 0.621092)
(0 0 0.926875)
(0 0 1.12027)
(0 0 1.21074)
(0 0 1.21076)
(0 0 1.1203)
(0 0 0.926932)
(0 0 0.621149)
(0 0 0.219979)
(0 0 0.182236)
(0 0 0.514388)
(0 0 0.767234)
(0 0 0.926897)
(0 0 1.00151)
(0 0 1.00152)
(0 0 0.926932)
(0 0 0.767285)
(0 0 0.514438)
(0 0 0.18226)
(0 0 0.122315)
(0 0 0.34509)
(0 0 0.514401)
(0 0 0.621124)
(0 0 0.670925)
(0 0 0.670933)
(0 0 0.621149)
(0 0 0.514438)
(0 0 0.345127)
(0 0 0.122333)
(0 0 0.0433714)
(0 0 0.122318)
(0 0 0.182245)
(0 0 0.219969)
(0 0 0.237555)
(0 0 0.237559)
(0 0 0.219979)
(0 0 0.18226)
(0 0 0.122333)
(0 0 0.0433788)
(0 0 0.014303)
(0 0 0.0404675)
(0 0 0.0605552)
(0 0 0.073366)
(0 0 0.0793998)
(0 0 0.0794004)
(0 0 0.0733677)
(0 0 0.0605576)
(0 0 0.0404695)
(0 0 0.0143037)
(0 0 0.0404675)
(0 0 0.114522)
(0 0 0.171423)
(0 0 0.207744)
(0 0 0.224864)
(0 0 0.224866)
(0 0 0.207751)
(0 0 0.171432)
(0 0 0.11453)
(0 0 0.040471)
(0 0 0.0605552)
(0 0 0.171423)
(0 0 0.256706)
(0 0 0.311212)
(0 0 0.336929)
(0 0 0.336933)
(0 0 0.311223)
(0 0 0.256721)
(0 0 0.171438)
(0 0 0.060562)
(0 0 0.073366)
(0 0 0.207744)
(0 0 0.311212)
(0 0 0.377416)
(0 0 0.40868)
(0 0 0.408685)
(0 0 0.377431)
(0 0 0.311233)
(0 0 0.207765)
(0 0 0.0733754)
(0 0 0.0793998)
(0 0 0.224864)
(0 0 0.336929)
(0 0 0.40868)
(0 0 0.442581)
(0 0 0.442587)
(0 0 0.408697)
(0 0 0.336954)
(0 0 0.224888)
(0 0 0.0794111)
(0 0 0.0794004)
(0 0 0.224866)
(0 0 0.336933)
(0 0 0.408685)
(0 0 0.442587)
(0 0 0.442594)
(0 0 0.408703)
(0 0 0.336959)
(0 0 0.224892)
(0 0 0.0794126)
(0 0 0.0733677)
(0 0 0.207751)
(0 0 0.311223)
(0 0 0.377431)
(0 0 0.408697)
(0 0 0.408703)
(0 0 0.377448)
(0 0 0.311249)
(0 0 0.207776)
(0 0 0.0733798)
(0 0 0.0605576)
(0 0 0.171432)
(0 0 0.256721)
(0 0 0.311233)
(0 0 0.336954)
(0 0 0.336959)
(0 0 0.311249)
(0 0 0.256744)
(0 0 0.171455)
(0 0 0.0605684)
(0 0 0.0404695)
(0 0 0.11453)
(0 0 0.171438)
(0 0 0.207765)
(0 0 0.224888)
(0 0 0.224892)
(0 0 0.207776)
(0 0 0.171455)
(0 0 0.114547)
(0 0 0.0404775)
(0 0 0.0143037)
(0 0 0.040471)
(0 0 0.060562)
(0 0 0.0733754)
(0 0 0.0794111)
(0 0 0.0794126)
(0 0 0.0733798)
(0 0 0.0605684)
(0 0 0.0404775)
(0 0 0.014307)
(0 0 0.00443005)
(0 0 0.0125623)
(0 0 0.0188579)
(0 0 0.0229124)
(0 0 0.0248372)
(0 0 0.0248375)
(0 0 0.0229131)
(0 0 0.0188589)
(0 0 0.0125632)
(0 0 0.00443042)
(0 0 0.0125623)
(0 0 0.0356284)
(0 0 0.0534951)
(0 0 0.065009)
(0 0 0.070478)
(0 0 0.070479)
(0 0 0.0650116)
(0 0 0.0534988)
(0 0 0.0356319)
(0 0 0.0125638)
(0 0 0.0188579)
(0 0 0.0534951)
(0 0 0.0803459)
(0 0 0.0976652)
(0 0 0.105898)
(0 0 0.1059)
(0 0 0.0976698)
(0 0 0.0803523)
(0 0 0.0535015)
(0 0 0.0188608)
(0 0 0.0229124)
(0 0 0.065009)
(0 0 0.0976652)
(0 0 0.118747)
(0 0 0.128775)
(0 0 0.128777)
(0 0 0.118753)
(0 0 0.097674)
(0 0 0.0650176)
(0 0 0.0229164)
(0 0 0.0248372)
(0 0 0.070478)
(0 0 0.105898)
(0 0 0.128775)
(0 0 0.139662)
(0 0 0.139664)
(0 0 0.128782)
(0 0 0.105908)
(0 0 0.0704882)
(0 0 0.024842)
(0 0 0.0248375)
(0 0 0.070479)
(0 0 0.1059)
(0 0 0.128777)
(0 0 0.139664)
(0 0 0.139667)
(0 0 0.128785)
(0 0 0.105911)
(0 0 0.0704898)
(0 0 0.0248426)
(0 0 0.0229131)
(0 0 0.0650116)
(0 0 0.0976698)
(0 0 0.118753)
(0 0 0.128782)
(0 0 0.128785)
(0 0 0.11876)
(0 0 0.0976804)
(0 0 0.0650222)
(0 0 0.0229181)
(0 0 0.0188589)
(0 0 0.0534988)
(0 0 0.0803523)
(0 0 0.097674)
(0 0 0.105908)
(0 0 0.105911)
(0 0 0.0976804)
(0 0 0.0803616)
(0 0 0.0535081)
(0 0 0.0188634)
(0 0 0.0125632)
(0 0 0.0356319)
(0 0 0.0535015)
(0 0 0.0650176)
(0 0 0.0704882)
(0 0 0.0704898)
(0 0 0.0650222)
(0 0 0.0535081)
(0 0 0.0356386)
(0 0 0.0125665)
(0 0 0.00443042)
(0 0 0.0125638)
(0 0 0.0188608)
(0 0 0.0229164)
(0 0 0.024842)
(0 0 0.0248426)
(0 0 0.0229181)
(0 0 0.0188634)
(0 0 0.0125665)
(0 0 0.00443172)
(0 0 0.00129029)
(0 0 0.00366492)
(0 0 0.0055148)
(0 0 0.00671517)
(0 0 0.00728858)
(0 0 0.00728869)
(0 0 0.00671547)
(0 0 0.00551522)
(0 0 0.00366532)
(0 0 0.00129045)
(0 0 0.00366492)
(0 0 0.0104109)
(0 0 0.0156683)
(0 0 0.0190813)
(0 0 0.0207124)
(0 0 0.0207128)
(0 0 0.0190823)
(0 0 0.0156697)
(0 0 0.0104123)
(0 0 0.00366555)
(0 0 0.0055148)
(0 0 0.0156683)
(0 0 0.0235857)
(0 0 0.0287293)
(0 0 0.0311887)
(0 0 0.0311893)
(0 0 0.028731)
(0 0 0.0235882)
(0 0 0.0156707)
(0 0 0.00551592)
(0 0 0.00671517)
(0 0 0.0190813)
(0 0 0.0287293)
(0 0 0.035001)
(0 0 0.0380016)
(0 0 0.0380024)
(0 0 0.0350034)
(0 0 0.0287326)
(0 0 0.0190846)
(0 0 0.00671671)
(0 0 0.00728858)
(0 0 0.0207124)
(0 0 0.0311887)
(0 0 0.0380016)
(0 0 0.041262)
(0 0 0.0412629)
(0 0 0.0380043)
(0 0 0.0311926)
(0 0 0.0207162)
(0 0 0.00729039)
(0 0 0.00728869)
(0 0 0.0207128)
(0 0 0.0311893)
(0 0 0.0380024)
(0 0 0.0412629)
(0 0 0.0412639)
(0 0 0.0380052)
(0 0 0.0311934)
(0 0 0.0207168)
(0 0 0.00729062)
(0 0 0.00671547)
(0 0 0.0190823)
(0 0 0.028731)
(0 0 0.0350034)
(0 0 0.0380043)
(0 0 0.0380052)
(0 0 0.0350061)
(0 0 0.028735)
(0 0 0.0190863)
(0 0 0.00671735)
(0 0 0.00551522)
(0 0 0.0156697)
(0 0 0.0235882)
(0 0 0.0287326)
(0 0 0.0311926)
(0 0 0.0311934)
(0 0 0.028735)
(0 0 0.0235916)
(0 0 0.0156731)
(0 0 0.00551686)
(0 0 0.00366532)
(0 0 0.0104123)
(0 0 0.0156707)
(0 0 0.0190846)
(0 0 0.0207162)
(0 0 0.0207168)
(0 0 0.0190863)
(0 0 0.0156731)
(0 0 0.0104148)
(0 0 0.0036665)
(0 0 0.00129045)
(0 0 0.00366555)
(0 0 0.00551592)
(0 0 0.00671671)
(0 0 0.00729039)
(0 0 0.00729062)
(0 0 0.00671735)
(0 0 0.00551686)
(0 0 0.0036665)
(0 0 0.00129093)
(0 0 0.000354071)
(0 0 0.00100695)
(0 0 0.00151803)
(0 0 0.00185164)
(0 0 0.0020118)
(0 0 0.00201184)
(0 0 0.00185175)
(0 0 0.00151818)
(0 0 0.0010071)
(0 0 0.000354132)
(0 0 0.00100695)
(0 0 0.00286395)
(0 0 0.00431804)
(0 0 0.00526756)
(0 0 0.00572353)
(0 0 0.00572366)
(0 0 0.00526792)
(0 0 0.00431855)
(0 0 0.00286445)
(0 0 0.00100718)
(0 0 0.00151803)
(0 0 0.00431804)
(0 0 0.00651149)
(0 0 0.00794458)
(0 0 0.00863309)
(0 0 0.0086333)
(0 0 0.00794519)
(0 0 0.00651237)
(0 0 0.0043189)
(0 0 0.00151843)
(0 0 0.00185164)
(0 0 0.00526756)
(0 0 0.00794458)
(0 0 0.00969448)
(0 0 0.0105355)
(0 0 0.0105358)
(0 0 0.00969528)
(0 0 0.00794574)
(0 0 0.0052687)
(0 0 0.00185218)
(0 0 0.0020118)
(0 0 0.00572353)
(0 0 0.00863309)
(0 0 0.0105355)
(0 0 0.0114502)
(0 0 0.0114505)
(0 0 0.0105365)
(0 0 0.00863443)
(0 0 0.00572486)
(0 0 0.00201243)
(0 0 0.00201184)
(0 0 0.00572366)
(0 0 0.0086333)
(0 0 0.0105358)
(0 0 0.0114505)
(0 0 0.0114508)
(0 0 0.0105368)
(0 0 0.00863472)
(0 0 0.00572506)
(0 0 0.0020125)
(0 0 0.00185175)
(0 0 0.00526792)
(0 0 0.00794519)
(0 0 0.00969528)
(0 0 0.0105365)
(0 0 0.0105368)
(0 0 0.00969623)
(0 0 0.00794655)
(0 0 0.00526927)
(0 0 0.0018524)
(0 0 0.00151818)
(0 0 0.00431855)
(0 0 0.00651237)
(0 0 0.00794574)
(0 0 0.00863443)
(0 0 0.00863472)
(0 0 0.00794655)
(0 0 0.00651354)
(0 0 0.00431972)
(0 0 0.00151874)
(0 0 0.0010071)
(0 0 0.00286445)
(0 0 0.0043189)
(0 0 0.0052687)
(0 0 0.00572486)
(0 0 0.00572506)
(0 0 0.00526927)
(0 0 0.00431972)
(0 0 0.00286528)
(0 0 0.0010075)
(0 0 0.000354132)
(0 0 0.00100718)
(0 0 0.00151843)
(0 0 0.00185218)
(0 0 0.00201243)
(0 0 0.0020125)
(0 0 0.0018524)
(0 0 0.00151874)
(0 0 0.0010075)
(0 0 0.000354291)
(0 0 9.17401e-05)
(0 0 0.000261158)
(0 0 0.000394289)
(0 0 0.000481609)
(0 0 0.000523697)
(0 0 0.00052371)
(0 0 0.000481645)
(0 0 0.00039434)
(0 0 0.000261207)
(0 0 9.17609e-05)
(0 0 0.000261158)
(0 0 0.000743494)
(0 0 0.00112261)
(0 0 0.00137134)
(0 0 0.00149125)
(0 0 0.0014913)
(0 0 0.00137145)
(0 0 0.00112278)
(0 0 0.000743658)
(0 0 0.000261234)
(0 0 0.000394289)
(0 0 0.00112261)
(0 0 0.00169526)
(0 0 0.00207112)
(0 0 0.0022524)
(0 0 0.00225247)
(0 0 0.00207132)
(0 0 0.00169554)
(0 0 0.00112289)
(0 0 0.000394419)
(0 0 0.000481609)
(0 0 0.00137134)
(0 0 0.00207112)
(0 0 0.00253061)
(0 0 0.00275229)
(0 0 0.00275238)
(0 0 0.00253087)
(0 0 0.00207149)
(0 0 0.0013717)
(0 0 0.000481783)
(0 0 0.000523697)
(0 0 0.00149125)
(0 0 0.0022524)
(0 0 0.00275229)
(0 0 0.00299353)
(0 0 0.00299363)
(0 0 0.00275259)
(0 0 0.00225283)
(0 0 0.00149168)
(0 0 0.0005239)
(0 0 0.00052371)
(0 0 0.0014913)
(0 0 0.00225247)
(0 0 0.00275238)
(0 0 0.00299363)
(0 0 0.00299374)
(0 0 0.0027527)
(0 0 0.00225292)
(0 0 0.00149174)
(0 0 0.000523923)
(0 0 0.000481645)
(0 0 0.00137145)
(0 0 0.00207132)
(0 0 0.00253087)
(0 0 0.00275259)
(0 0 0.0027527)
(0 0 0.00253116)
(0 0 0.00207175)
(0 0 0.00137188)
(0 0 0.00048185)
(0 0 0.00039434)
(0 0 0.00112278)
(0 0 0.00169554)
(0 0 0.00207149)
(0 0 0.00225283)
(0 0 0.00225292)
(0 0 0.00207175)
(0 0 0.00169591)
(0 0 0.00112315)
(0 0 0.000394518)
(0 0 0.000261207)
(0 0 0.000743658)
(0 0 0.00112289)
(0 0 0.0013717)
(0 0 0.00149168)
(0 0 0.00149174)
(0 0 0.00137188)
(0 0 0.00112315)
(0 0 0.000743919)
(0 0 0.000261333)
(0 0 9.17609e-05)
(0 0 0.000261234)
(0 0 0.000394419)
(0 0 0.000481783)
(0 0 0.0005239)
(0 0 0.000523923)
(0 0 0.00048185)
(0 0 0.000394518)
(0 0 0.000261333)
(0 0 9.18105e-05)
(0 0 2.24948e-05)
(0 0 6.40867e-05)
(0 0 9.68722e-05)
(0 0 0.00011846)
(0 0 0.000128901)
(0 0 0.000128905)
(0 0 0.000118472)
(0 0 9.68878e-05)
(0 0 6.41017e-05)
(0 0 2.25012e-05)
(0 0 6.40867e-05)
(0 0 0.000182591)
(0 0 0.000276021)
(0 0 0.000337556)
(0 0 0.000367321)
(0 0 0.000367334)
(0 0 0.000337591)
(0 0 0.000276072)
(0 0 0.000182641)
(0 0 6.41097e-05)
(0 0 9.68722e-05)
(0 0 0.000276021)
(0 0 0.000417302)
(0 0 0.000510385)
(0 0 0.000555424)
(0 0 0.000555445)
(0 0 0.000510444)
(0 0 0.000417387)
(0 0 0.000276104)
(0 0 9.69114e-05)
(0 0 0.00011846)
(0 0 0.000337556)
(0 0 0.000510385)
(0 0 0.000624289)
(0 0 0.000679419)
(0 0 0.000679446)
(0 0 0.000624367)
(0 0 0.000510496)
(0 0 0.000337666)
(0 0 0.000118513)
(0 0 0.000128901)
(0 0 0.000367321)
(0 0 0.000555424)
(0 0 0.000679419)
(0 0 0.000739442)
(0 0 0.000739473)
(0 0 0.000679507)
(0 0 0.000555552)
(0 0 0.000367448)
(0 0 0.000128961)
(0 0 0.000128905)
(0 0 0.000367334)
(0 0 0.000555445)
(0 0 0.000679446)
(0 0 0.000739473)
(0 0 0.000739505)
(0 0 0.000679538)
(0 0 0.000555578)
(0 0 0.000367466)
(0 0 0.000128968)
(0 0 0.000118472)
(0 0 0.000337591)
(0 0 0.000510444)
(0 0 0.000624367)
(0 0 0.000679507)
(0 0 0.000679538)
(0 0 0.000624455)
(0 0 0.000510571)
(0 0 0.000337718)
(0 0 0.000118532)
(0 0 9.68878e-05)
(0 0 0.000276072)
(0 0 0.000417387)
(0 0 0.000510496)
(0 0 0.000555552)
(0 0 0.000555578)
(0 0 0.000510571)
(0 0 0.000417496)
(0 0 0.00027618)
(0 0 9.694e-05)
(0 0 6.41017e-05)
(0 0 0.000182641)
(0 0 0.000276104)
(0 0 0.000337666)
(0 0 0.000367448)
(0 0 0.000367466)
(0 0 0.000337718)
(0 0 0.00027618)
(0 0 0.000182717)
(0 0 6.41387e-05)
(0 0 2.25012e-05)
(0 0 6.41097e-05)
(0 0 9.69114e-05)
(0 0 0.000118513)
(0 0 0.000128961)
(0 0 0.000128968)
(0 0 0.000118532)
(0 0 9.694e-05)
(0 0 6.41387e-05)
(0 0 2.25157e-05)
(0 0 5.23165e-06)
(0 0 1.49145e-05)
(0 0 2.25668e-05)
(0 0 2.76221e-05)
(0 0 3.00737e-05)
(0 0 3.00749e-05)
(0 0 2.76252e-05)
(0 0 2.25712e-05)
(0 0 1.49187e-05)
(0 0 5.23353e-06)
(0 0 1.49145e-05)
(0 0 4.25203e-05)
(0 0 6.43406e-05)
(0 0 7.87584e-05)
(0 0 8.57518e-05)
(0 0 8.57553e-05)
(0 0 7.87684e-05)
(0 0 6.43549e-05)
(0 0 4.25344e-05)
(0 0 1.4921e-05)
(0 0 2.25668e-05)
(0 0 6.43406e-05)
(0 0 9.73669e-05)
(0 0 0.000119195)
(0 0 0.000129786)
(0 0 0.000129792)
(0 0 0.000119212)
(0 0 9.73906e-05)
(0 0 6.43639e-05)
(0 0 2.25778e-05)
(0 0 2.76221e-05)
(0 0 7.87584e-05)
(0 0 0.000119195)
(0 0 0.000145929)
(0 0 0.000158902)
(0 0 0.00015891)
(0 0 0.00014595)
(0 0 0.000119226)
(0 0 7.8789e-05)
(0 0 2.76366e-05)
(0 0 3.00737e-05)
(0 0 8.57518e-05)
(0 0 0.000129786)
(0 0 0.000158902)
(0 0 0.000173034)
(0 0 0.000173043)
(0 0 0.000158927)
(0 0 0.000129821)
(0 0 8.57869e-05)
(0 0 3.00905e-05)
(0 0 3.00749e-05)
(0 0 8.57553e-05)
(0 0 0.000129792)
(0 0 0.00015891)
(0 0 0.000173043)
(0 0 0.000173052)
(0 0 0.000158935)
(0 0 0.000129828)
(0 0 8.57919e-05)
(0 0 3.00923e-05)
(0 0 2.76252e-05)
(0 0 7.87684e-05)
(0 0 0.000119212)
(0 0 0.00014595)
(0 0 0.000158927)
(0 0 0.000158935)
(0 0 0.000145974)
(0 0 0.000119247)
(0 0 7.88033e-05)
(0 0 2.76419e-05)
(0 0 2.25712e-05)
(0 0 6.43549e-05)
(0 0 9.73906e-05)
(0 0 0.000119226)
(0 0 0.000129821)
(0 0 0.000129828)
(0 0 0.000119247)
(0 0 9.74204e-05)
(0 0 6.43847e-05)
(0 0 2.25856e-05)
(0 0 1.49187e-05)
(0 0 4.25344e-05)
(0 0 6.43639e-05)
(0 0 7.8789e-05)
(0 0 8.57869e-05)
(0 0 8.57919e-05)
(0 0 7.88033e-05)
(0 0 6.43847e-05)
(0 0 4.25552e-05)
(0 0 1.49289e-05)
(0 0 5.23353e-06)
(0 0 1.4921e-05)
(0 0 2.25778e-05)
(0 0 2.76366e-05)
(0 0 3.00905e-05)
(0 0 3.00923e-05)
(0 0 2.76419e-05)
(0 0 2.25856e-05)
(0 0 1.49289e-05)
(0 0 5.23746e-06)
(0 0 1.15661e-06)
(0 0 3.29908e-06)
(0 0 4.99593e-06)
(0 0 6.12003e-06)
(0 0 6.66648e-06)
(0 0 6.66678e-06)
(0 0 6.12086e-06)
(0 0 4.99712e-06)
(0 0 3.30021e-06)
(0 0 1.15712e-06)
(0 0 3.29908e-06)
(0 0 9.41056e-06)
(0 0 1.42516e-05)
(0 0 1.74591e-05)
(0 0 1.90186e-05)
(0 0 1.90195e-05)
(0 0 1.74617e-05)
(0 0 1.42554e-05)
(0 0 9.41426e-06)
(0 0 3.3008e-06)
(0 0 4.99593e-06)
(0 0 1.42516e-05)
(0 0 2.15845e-05)
(0 0 2.64442e-05)
(0 0 2.88075e-05)
(0 0 2.8809e-05)
(0 0 2.64485e-05)
(0 0 2.15907e-05)
(0 0 1.42577e-05)
(0 0 4.99882e-06)
(0 0 6.12003e-06)
(0 0 1.74591e-05)
(0 0 2.64442e-05)
(0 0 3.24002e-05)
(0 0 3.52972e-05)
(0 0 3.52992e-05)
(0 0 3.24058e-05)
(0 0 2.64523e-05)
(0 0 1.74671e-05)
(0 0 6.12383e-06)
(0 0 6.66648e-06)
(0 0 1.90186e-05)
(0 0 2.88075e-05)
(0 0 3.52972e-05)
(0 0 3.84543e-05)
(0 0 3.84565e-05)
(0 0 3.53036e-05)
(0 0 2.88167e-05)
(0 0 1.90277e-05)
(0 0 6.67084e-06)
(0 0 6.66678e-06)
(0 0 1.90195e-05)
(0 0 2.8809e-05)
(0 0 3.52992e-05)
(0 0 3.84565e-05)
(0 0 3.84589e-05)
(0 0 3.53058e-05)
(0 0 2.88186e-05)
(0 0 1.9029e-05)
(0 0 6.67132e-06)
(0 0 6.12086e-06)
(0 0 1.74617e-05)
(0 0 2.64485e-05)
(0 0 3.24058e-05)
(0 0 3.53036e-05)
(0 0 3.53058e-05)
(0 0 3.24121e-05)
(0 0 2.64576e-05)
(0 0 1.74707e-05)
(0 0 6.12519e-06)
(0 0 4.99712e-06)
(0 0 1.42554e-05)
(0 0 2.15907e-05)
(0 0 2.64523e-05)
(0 0 2.88167e-05)
(0 0 2.88186e-05)
(0 0 2.64576e-05)
(0 0 2.15984e-05)
(0 0 1.4263e-05)
(0 0 5.00082e-06)
(0 0 3.30021e-06)
(0 0 9.41426e-06)
(0 0 1.42577e-05)
(0 0 1.74671e-05)
(0 0 1.90277e-05)
(0 0 1.9029e-05)
(0 0 1.74707e-05)
(0 0 1.4263e-05)
(0 0 9.41961e-06)
(0 0 3.30282e-06)
(0 0 1.15712e-06)
(0 0 3.3008e-06)
(0 0 4.99882e-06)
(0 0 6.12383e-06)
(0 0 6.67084e-06)
(0 0 6.67132e-06)
(0 0 6.12519e-06)
(0 0 5.00082e-06)
(0 0 3.30282e-06)
(0 0 1.15812e-06)
(0 0 2.43578e-07)
(0 0 6.95098e-07)
(0 0 1.05337e-06)
(0 0 1.29127e-06)
(0 0 1.40716e-06)
(0 0 1.40724e-06)
(0 0 1.29148e-06)
(0 0 1.05366e-06)
(0 0 6.95383e-07)
(0 0 2.43706e-07)
(0 0 6.95098e-07)
(0 0 1.98367e-06)
(0 0 3.00625e-06)
(0 0 3.68537e-06)
(0 0 4.01624e-06)
(0 0 4.01647e-06)
(0 0 3.68602e-06)
(0 0 3.00718e-06)
(0 0 1.98459e-06)
(0 0 6.95526e-07)
(0 0 1.05337e-06)
(0 0 3.00625e-06)
(0 0 4.55625e-06)
(0 0 5.58585e-06)
(0 0 6.08757e-06)
(0 0 6.08794e-06)
(0 0 5.58691e-06)
(0 0 4.55777e-06)
(0 0 3.00776e-06)
(0 0 1.05408e-06)
(0 0 1.29127e-06)
(0 0 3.68537e-06)
(0 0 5.58585e-06)
(0 0 6.84851e-06)
(0 0 7.46391e-06)
(0 0 7.46439e-06)
(0 0 6.84989e-06)
(0 0 5.58783e-06)
(0 0 3.68733e-06)
(0 0 1.29221e-06)
(0 0 1.40716e-06)
(0 0 4.01624e-06)
(0 0 6.08757e-06)
(0 0 7.46391e-06)
(0 0 8.13479e-06)
(0 0 8.13534e-06)
(0 0 7.46547e-06)
(0 0 6.08982e-06)
(0 0 4.01847e-06)
(0 0 1.40823e-06)
(0 0 1.40724e-06)
(0 0 4.01647e-06)
(0 0 6.08794e-06)
(0 0 7.46439e-06)
(0 0 8.13534e-06)
(0 0 8.13591e-06)
(0 0 7.46601e-06)
(0 0 6.09028e-06)
(0 0 4.01878e-06)
(0 0 1.40835e-06)
(0 0 1.29148e-06)
(0 0 3.68602e-06)
(0 0 5.58691e-06)
(0 0 6.84989e-06)
(0 0 7.46547e-06)
(0 0 7.46601e-06)
(0 0 6.85142e-06)
(0 0 5.58912e-06)
(0 0 3.68822e-06)
(0 0 1.29254e-06)
(0 0 1.05366e-06)
(0 0 3.00718e-06)
(0 0 4.55777e-06)
(0 0 5.58783e-06)
(0 0 6.08982e-06)
(0 0 6.09028e-06)
(0 0 5.58912e-06)
(0 0 4.55964e-06)
(0 0 3.00905e-06)
(0 0 1.05456e-06)
(0 0 6.95383e-07)
(0 0 1.98459e-06)
(0 0 3.00776e-06)
(0 0 3.68733e-06)
(0 0 4.01847e-06)
(0 0 4.01878e-06)
(0 0 3.68822e-06)
(0 0 3.00905e-06)
(0 0 1.98589e-06)
(0 0 6.96013e-07)
(0 0 2.43706e-07)
(0 0 6.95526e-07)
(0 0 1.05408e-06)
(0 0 1.29221e-06)
(0 0 1.40823e-06)
(0 0 1.40835e-06)
(0 0 1.29254e-06)
(0 0 1.05456e-06)
(0 0 6.96013e-07)
(0 0 2.43948e-07)
(0 0 4.89621e-08)
(0 0 1.39779e-07)
(0 0 2.11956e-07)
(0 0 2.59983e-07)
(0 0 2.83422e-07)
(0 0 2.83439e-07)
(0 0 2.60032e-07)
(0 0 2.12026e-07)
(0 0 1.39847e-07)
(0 0 4.89924e-08)
(0 0 1.39779e-07)
(0 0 3.99063e-07)
(0 0 6.05151e-07)
(0 0 7.423e-07)
(0 0 8.09239e-07)
(0 0 8.09293e-07)
(0 0 7.42452e-07)
(0 0 6.05369e-07)
(0 0 3.99277e-07)
(0 0 1.3988e-07)
(0 0 2.11956e-07)
(0 0 6.05151e-07)
(0 0 9.17719e-07)
(0 0 1.12577e-06)
(0 0 1.22733e-06)
(0 0 1.22741e-06)
(0 0 1.12601e-06)
(0 0 9.18073e-07)
(0 0 6.05501e-07)
(0 0 2.12123e-07)
(0 0 2.59983e-07)
(0 0 7.423e-07)
(0 0 1.12577e-06)
(0 0 1.38105e-06)
(0 0 1.50568e-06)
(0 0 1.5058e-06)
(0 0 1.38137e-06)
(0 0 1.12622e-06)
(0 0 7.42754e-07)
(0 0 2.60201e-07)
(0 0 2.83422e-07)
(0 0 8.09239e-07)
(0 0 1.22733e-06)
(0 0 1.50568e-06)
(0 0 1.6416e-06)
(0 0 1.64173e-06)
(0 0 1.50605e-06)
(0 0 1.22785e-06)
(0 0 8.09756e-07)
(0 0 2.83669e-07)
(0 0 2.83439e-07)
(0 0 8.09293e-07)
(0 0 1.22741e-06)
(0 0 1.5058e-06)
(0 0 1.64173e-06)
(0 0 1.64186e-06)
(0 0 1.50617e-06)
(0 0 1.22795e-06)
(0 0 8.09828e-07)
(0 0 2.83695e-07)
(0 0 2.60032e-07)
(0 0 7.42452e-07)
(0 0 1.12601e-06)
(0 0 1.38137e-06)
(0 0 1.50605e-06)
(0 0 1.50617e-06)