/*--------------------------------*- C++ -*----------------------------------*\
  =========                 |
  \\      /  F ield         | OpenFOAM: The Open Source CFD Toolbox
   \\    /   O peration     | Website:  https://openfoam.org
    \\  /    A nd           | Version:  dev
     \\/     M anipulation  |
\*---------------------------------------------------------------------------*/
FoamFile
{
    format      ascii;
    class       volScalarField;
    location    "1";
    object      gradTx;
}
// * * * * * * * * * * * * * * * * * * * * * * * * * * * * * * * * * * * * * //

dimensions      [0 -1 0 1 0 0 0];

internalField   nonuniform List<scalar> 
5712
(
-0.000797239
-53.507
-0.00128494
-120.519
-0.00177967
-131.706
-0.0021602
-132.861
-0.00192447
-111.378
-0.00140455
-104.039
-0.00105247
-91.952
-0.000407085
-36.7958
-8.47682e-05
1.57096e-08
-0.0109741
0.000498953
-7.3298e-05
1.50856e-08
-0.0137839
0.000370286
-0.000848682
-0.000824494
-59.4663
-58.0163
-0.00154142
-0.00162882
-130.331
-129.076
-0.0067484
-0.000164268
0.00102461
2.95282e-08
-0.000426368
-0.00966951
-237.667
-315.713
-0.0113921
-0.0137871
-200.52
-257.662
-0.0075275
-0.008417
-218.912
-329.996
-0.0136824
-0.0295046
-374.231
-624.25
0.000416868
-0.00150347
-57.2009
-55.8468
-0.000211481
-0.00463074
-119.171
-112.081
0.00097005
-0.00127733
-0.00408807
-0.00692193
-152.144
-155.519
-267.539
-264.771
5.27921e-10
2.03329e-12
2.2428e-08
-4.07423e-11
-3.65332e-10
-3.116e-14
1.07744e-08
4.12545e-12
2.92362e-05
2.04065e-09
3.53125e-05
1.00843e-09
-3.54069e-05
6.71004e-11
3.15591e-05
1.19373e-09
-9.14182e-05
-2.32893e-09
-1.15859e-05
-1.70704e-10
0.000127349
5.32636e-09
3.52919e-05
3.39807e-09
-0.000202019
0.00025835
6.64077e-05
-0.00338404
-0.000757465
0.000243475
8.77493e-05
-0.00349718
-0.00574163
-0.00570577
7.23862e-05
-0.00325332
-0.0110646
-0.0100871
3.18524e-05
-0.00329025
0.00131168
0.00132905
-0.000966385
-0.00164551
0.000900411
0.000873259
-0.00391945
-0.00545264
0.00123995
0.00123841
-0.00194198
-0.00578029
1.38365e-09
6.62959e-13
3.88257e-05
-0.000732626
0.000298573
2.64316e-13
1.32426e-09
3.99188e-05
-0.000292783
-0.00530775
-1.37758e-13
3.70031e-12
-2.92882e-09
0.00013938
-0.00482319
2.39094e-05
1.3109e-11
-0.000432434
-8.90615e-06
3.11093e-05
-1.89845e-10
-0.00120654
-2.9271e-05
0.000106079
1.63489e-09
-0.0014221
-5.93437e-05
1.01372e-13
9.74595e-14
7.0299e-11
-1.10954e-13
1.45056e-10
-6.8302e-12
-1.34825e-05
-1.9404e-09
-0.00141152
-0.000143721
-1.21454e-13
4.5564e-14
-2.9911e-13
5.50794e-14
-2.42957e-09
-1.02063e-10
-8.76852e-05
-7.10245e-09
-0.0044496
-0.000186833
-1.07768e-12
-1.24218e-13
-2.10829e-13
3.28583e-14
-6.53234e-14
-2.26771e-14
-7.50968e-14
-2.51412e-14
-2.67465e-10
-6.12381e-11
-2.54273e-09
-6.31174e-11
1.3136e-12
-3.25359e-14
-1.0044e-12
7.14976e-14
4.21728e-12
-5.23183e-14
4.63015e-13
-5.76071e-14
-2.04784e-11
-8.73216e-11
-3.91055e-12
-8.12225e-11
-6.53429e-05
-6.30894e-09
-0.00400703
-0.000163088
-8.38357e-05
-8.00473e-09
-0.00441934
-0.000206396
-5.59281e-05
-5.25606e-09
-0.00377758
-0.000145373
-1.64736e-05
-3.45336e-09
-0.00368353
-0.000113183
-4.63945e-13
-1.39188e-14
9.08782e-14
-1.37639e-10
0
2.59965e-14
6.5986e-13
3.77668e-14
3.79381e-14
-4.42709e-10
-9.36926e-14
-9.08721e-14
1.02553e-11
-1.60573e-14
0
-8.65412e-10
4.19041e-14
-4.19222e-14
9.23906e-14
0
-8.65418e-14
6.50165e-14
1.00066e-13
0
0
0
-3.03537e-14
-3.86028e-11
-7.05198e-14
-1.98503e-14
-2.29255e-09
1.1745e-12
1.28827e-13
-3.76709e-14
0
4.87391e-14
8.7242e-14
-5.01756e-14
8.6089e-14
4.038e-14
4.42222e-14
-4.74342e-14
-8.84421e-11
3.98511e-14
-8.34074e-14
-2.55058e-09
-4.23501e-12
-2.42882e-14
5.41126e-11
0
2.68639e-08
1.30884e-12
-2.22358e-09
3.59821e-11
-3.84392e-07
1.20863e-08
8.8286e-14
0
3.46701e-14
-1.76891e-14
1.60104e-14
1.70417e-13
2.90866e-14
-1.03066e-13
-2.11591e-14
-3.3747e-14
-1.07322e-13
0
1.01602e-13
0
3.01205e-10
4.03499e-10
-2.07255e-07
-2.47845e-07
-3.11521e-12
-6.58026e-11
1.17974e-13
1.32948e-13
-9.25183e-14
0
9.58006e-14
1.43343e-13
1.33327e-13
0
0
0
0
-2.08542e-14
0
-7.65791e-14
4.53626e-14
0
2.90195e-14
8.90568e-14
0
0
2.08036e-13
-3.91017e-14
8.13166e-14
-5.64298e-14
4.08361e-14
-1.32222e-13
7.52562e-11
-9.22356e-14
1.20035e-13
0
-1.73298e-14
0
1.76274e-12
-7.63372e-14
3.83712e-14
-7.70993e-14
-2.87313e-09
-1.51493e-11
-7.10989e-10
-1.42585e-12
-3.99115e-14
-4.75339e-14
7.17506e-14
-4.76841e-14
-6.42024e-14
-4.31468e-14
-4.83459e-14
0
-2.45413e-14
-6.34572e-14
0
-6.81189e-14
1.89721e-14
-5.35077e-15
2.20317e-14
-2.47005e-14
-1.70382e-14
1.45159e-14
0
0
-1.50673e-14
2.13337e-14
7.99262e-14
0
1.82283e-14
0
3.85099e-14
6.77268e-14
7.56479e-14
-2.1923e-14
-1.28804e-13
-7.50223e-14
3.49697e-13
2.4861e-13
-7.20319e-14
3.14195e-14
0
-2.64316e-13
-2.84543e-13
0
-6.6087e-14
0
-2.82112e-13
1.19365e-13
1.03844e-13
9.11824e-14
0
2.04089e-14
0
0
-4.05164e-14
3.34792e-14
3.47416e-14
-1.14161e-13
3.65071e-14
5.87679e-14
-5.9015e-14
0
-1.68996e-14
2.02739e-13
-1.94906e-13
5.98289e-14
0
6.4584e-14
0
0
9.10428e-14
1.5952e-13
0
0
3.2713e-14
8.15753e-14
-5.50794e-14
0
-6.93007e-14
2.31304e-14
0
0
1.49804e-14
-8.13341e-14
0
-7.02764e-14
0
0
4.51511e-14
-1.76493e-13
7.47211e-14
-1.11341e-13
3.35919e-14
0
-3.1942e-14
-6.30624e-14
0
4.78287e-14
7.14976e-14
1.19468e-14
5.20601e-14
-4.78287e-14
-5.76071e-14
-6.93004e-15
0
1.16698e-13
0
2.14769e-14
0
-8.63772e-14
0
-1.04735e-13
-3.24891e-14
6.18886e-14
-3.30718e-14
8.04216e-14
8.64792e-14
-7.99243e-14
0
4.92171e-14
-3.39393e-14
-1.95223e-14
3.28822e-14
1.25265e-13
2.31979e-14
1.38481e-13
0
-2.66803e-14
0
0
0
-6.32302e-14
4.12499e-14
-9.36926e-14
-9.08721e-14
-1.31961e-13
-1.60573e-14
2.79041e-14
-7.23333e-14
-8.38081e-14
0
0
-6.0951e-14
0
0
0
0
-1.54456e-13
1.03659e-13
0
-2.70897e-14
-2.35066e-14
0
3.49096e-14
-4.19466e-14
1.28827e-13
0
8.64423e-14
4.87386e-14
-2.18105e-14
-7.52634e-14
2.86963e-14
6.057e-14
6.63333e-14
4.74342e-14
3.73962e-14
3.98511e-14
4.17037e-14
-3.25623e-14
6.61721e-14
0
8.15663e-14
4.07831e-14
-8.84424e-14
-5.28638e-14
-8.81541e-14
-2.93847e-14
3.21304e-14
3.93833e-14
-3.9516e-14
-7.90319e-14
-8.74638e-14
-4.89316e-14
4.99163e-14
3.32775e-14
-3.78164e-14
-2.58189e-14
3.89151e-14
0
9.26074e-14
8.60128e-14
2.61506e-14
2.61506e-14
3.39245e-14
-1.32123e-13
3.53453e-14
3.53453e-14
3.85101e-14
0
0
0
-4.84316e-14
-4.84316e-14
3.65765e-14
6.19603e-14
3.91893e-15
2.83933e-14
-2.5821e-14
-5.16419e-14
5.94612e-14
-6.18212e-14
0
6.28005e-14
5.16314e-14
9.78045e-15
3.1041e-14
3.1041e-14
-7.18625e-14
0
1.25906e-15
2.42819e-14
-4.12354e-15
-2.00127e-14
-2.33085e-14
-4.6617e-14
0
0
4.3611e-14
6.54164e-14
4.46979e-14
-3.99149e-14
2.16682e-14
4.33365e-14
0
0
0
1.02288e-13
0
0
-7.25501e-14
7.25501e-14
-4.01019e-14
-5.01753e-14
6.81914e-14
6.81914e-14
-3.82361e-14
-9.98826e-14
9.97976e-15
-1.99595e-14
8.71036e-14
-2.66493e-14
-4.08138e-14
-4.08138e-14
0
6.75949e-14
1.19304e-13
2.38607e-14
2.58389e-14
1.52356e-13
-1.31652e-13
-8.77679e-14
5.25492e-14
0
0
0
-5.32566e-14
1.96082e-13
0
-8.06744e-14
-9.49745e-14
0
4.09489e-14
4.09489e-14
6.8737e-14
-5.1494e-14
-8.85943e-15
6.2016e-14
7.43158e-15
-3.09652e-14
0
3.71314e-14
3.18645e-14
5.1087e-14
0
-7.81569e-14
5.87233e-14
-4.52143e-14
0
-3.61212e-14
-6.07978e-14
4.64159e-14
-7.03133e-14
-8.78916e-14
1.45843e-14
2.17978e-14
-9.90125e-14
-3.30042e-14
-8.82346e-14
0
-3.61394e-14
0
-4.5453e-14
-5.81282e-14
5.802e-14
2.901e-14
0
-2.96425e-14
6.47803e-14
9.71705e-14
2.72043e-14
2.10847e-14
-5.11399e-14
-8.52332e-14
-1.54233e-14
2.75744e-14
5.50709e-14
1.10142e-13
0
0
6.04826e-14
0
0
-7.84639e-14
0
0
-4.792e-14
3.69902e-14
1.40393e-13
1.40393e-13
-7.34504e-15
-4.45561e-14
5.45289e-14
1.63587e-13
1.36911e-13
-3.44606e-14
2.49922e-14
-4.60968e-14
2.50699e-14
4.36212e-14
0
0
0
3.60771e-14
-7.2989e-14
-7.2989e-14
-7.2989e-14
-3.64945e-14
-7.2989e-14
7.38512e-14
-2.76942e-14
-2.76942e-14
-2.76942e-14
4.6157e-14
0
3.28645e-14
-4.92968e-14
-1.80755e-13
-4.92968e-14
-1.17966e-13
-7.86437e-14
-1.17966e-13
-7.86437e-14
-1.17966e-13
5.40215e-14
-2.70107e-14
8.10322e-14
5.40215e-14
1.35054e-13
1.30746e-13
1.30746e-13
6.53729e-14
6.53729e-14
-6.53729e-14
0
3.29084e-14
0
-3.29084e-14
0
6.05395e-14
0
6.05395e-14
0
0
8.37971e-14
-5.23732e-14
-3.14239e-14
0
6.28478e-14
-3.12743e-14
-6.25485e-14
-6.25485e-14
-6.25485e-14
-3.12743e-14
-1.90859e-13
3.01356e-14
-5.02259e-14
-1.00452e-14
-5.02259e-14
-8.38074e-14
-8.38074e-14
-8.38074e-14
-8.38074e-14
-8.38074e-14
-9.82085e-15
-9.82085e-15
4.2557e-14
-1.14577e-14
-1.14577e-14
4.78291e-14
0
4.78291e-14
4.78291e-14
4.78291e-14
6.97756e-14
-6.41936e-14
-6.42017e-14
-6.4199e-14
-1.95372e-14
0
-4.76886e-14
-9.53772e-14
-4.76886e-14
0
-3.60757e-14
1.08227e-13
3.60757e-14
3.60757e-14
3.60757e-14
-1.78345e-14
7.13378e-14
7.13378e-14
8.91723e-15
-7.13378e-14
3.66148e-14
0
1.09844e-13
1.09844e-13
0
-3.74434e-14
3.74434e-14
3.74434e-14
-3.74434e-14
1.87217e-14
-5.1557e-14
-1.54671e-13
-5.1557e-14
-1.03114e-13
-1.03114e-13
0
-8.29382e-14
-8.29382e-14
-4.14691e-14
-4.14691e-14
0
0
0
-6.3678e-14
0
0
-1.80809e-13
-1.80809e-13
-9.04046e-14
-9.04046e-14
1.91306e-13
-6.37688e-14
-6.37688e-14
6.37688e-14
1.27538e-13
9.90647e-06
8.62117e-07
3.07137e-05
2.73249e-06
5.29768e-05
4.64196e-06
9.03315e-05
6.72617e-06
0.000141474
9.55929e-06
8.82592e-05
-2.32332e-06
0.000133863
4.23969e-06
5.87983e-05
-6.70206e-06
2.85343e-05
-9.53986e-06
-14.8239
-14.8242
-14.8239
-14.8237
-14.8242
-0.000339241
-0.00034722
-0.000358899
-0.000371915
-0.000379998
-47.948
-47.949
-47.9482
-47.9473
-47.9491
-0.00106568
-0.00110624
-0.00114267
-0.00118118
-0.00123081
-82.995
-82.9966
-82.9951
-82.9937
-82.9968
-0.00177229
-0.00184107
-0.00190276
-0.00196802
-0.00205224
-120.634
-120.637
-120.635
-120.633
-120.637
-0.00246761
-0.00255329
-0.0026282
-0.00270767
-0.00281331
-163.662
-163.665
-163.662
-163.659
-163.665
-0.00339889
-0.00351142
-0.00360852
-0.00371133
-0.00384934
-184.007
-184.007
-184.006
-184.006
-184.004
-0.0040912
-0.00423656
-0.00437908
-0.00453002
-0.00470086
-174.696
-174.697
-174.698
-174.695
-174.696
-0.00376747
-0.00390714
-0.00403815
-0.0041769
-0.00434417
-186.512
-186.516
-186.507
-186.509
-186.511
-0.00429291
-0.00445558
-0.00462023
-0.00479474
-0.00498428
-197.64
-197.644
-197.639
-197.639
-197.641
-0.0045247
-0.00467558
-0.00485241
-0.00498651
-0.00517666
4.0211e-08
-2.3798e-07
-1.88756e-08
1.65289e-08
-4.17565e-14
-1.82667e-12
-5.22371e-11
-3.18469e-08
4.28869e-09
2.71633e-07
-6.50126e-08
-7.27613e-07
-1.93278e-07
-9.06164e-07
8.5438e-09
6.36986e-07
-1.68892e-10
-2.39036e-08
-6.93188e-14
-2.90214e-12
6.29018e-14
3.18054e-14
0
3.646e-14
1.29729e-14
0
-1.2878e-13
-3.14208e-14
-8.89343e-14
1.8056e-14
1.43707e-14
3.93145e-14
0
6.66913e-15
4.83665e-14
-2.73229e-14
-1.27969e-13
0
2.5037e-14
4.72642e-14
2.02078e-14
0
0
-2.50076e-14
-6.51345e-14
-4.47754e-14
-3.33736e-14
2.60841e-14
-1.8575e-14
-8.45251e-14
6.18635e-14
2.3025e-14
2.84977e-14
-5.33659e-14
0
4.70111e-14
5.16088e-14
0
1.4456e-13
-6.15966e-14
-1.08508e-13
-4.78654e-14
5.54659e-14
2.42638e-14
-4.24072e-14
0
0
0
-8.48145e-14
-2.17149e-14
0
2.17149e-14
2.17149e-14
0
-3.24089e-14
-4.86133e-14
-7.56207e-14
-7.56207e-14
0
-6.91886e-14
6.91886e-14
5.18914e-14
5.18914e-14
5.18914e-14
0
-1.54808e-13
-2.0641e-13
-2.0641e-13
-1.54808e-13
-8.58534e-14
-8.58534e-14
-4.29267e-14
-4.29267e-14
-8.58534e-14
-2.30194e-14
-2.83558e-14
-2.80611e-14
2.7622e-14
0
4.39298e-14
-1.20659e-14
3.01296e-14
-1.80572e-14
1.36804e-14
-2.40746e-14
4.81493e-14
-2.40746e-14
0
9.62985e-14
5.64036e-14
3.41906e-14
-1.70504e-14
1.70054e-14
5.08808e-14
-1.11963e-14
1.37479e-14
-2.7416e-14
4.10049e-14
0
-2.13199e-14
0
2.13199e-14
2.13199e-14
2.13199e-14
-4.44608e-14
-1.77843e-14
-2.66765e-14
-2.66765e-14
-5.3353e-14
4.03054e-14
0
-1.61222e-14
0
-2.41833e-14
1.09292e-13
-3.64305e-14
0
0
0
-5.68752e-14
-1.1375e-13
5.68752e-14
5.68752e-14
0
5.90067e-14
-1.96689e-14
-3.93378e-14
-1.96689e-14
-1.96689e-14
-4.60316e-14
0
0
-2.69858e-14
7.30148e-14
-1.1458e-14
-4.58319e-14
0
-5.72899e-14
-8.59348e-14
8.08312e-14
0
0
-2.69437e-14
-2.69437e-14
9.2042e-14
5.52252e-14
-1.84084e-14
5.52252e-14
-1.84084e-14
-2.00983e-14
2.00983e-14
2.00983e-14
2.00983e-14
2.00983e-14
8.33586e-14
6.66869e-14
3.33434e-14
3.33434e-14
0
1.44743e-14
-1.44743e-14
2.89487e-14
2.89487e-14
-1.44743e-14
1.49251e-13
5.97005e-14
-2.98503e-14
-2.98503e-14
5.97005e-14
-2.96654e-14
-4.44981e-14
-8.89961e-14
-5.93308e-14
0
-6.52103e-14
7.82524e-14
8.25997e-14
6.52103e-14
4.34735e-14
-3.71499e-14
1.23833e-14
-1.23833e-14
1.23833e-14
-4.95333e-14
2.8175e-14
-2.8175e-14
-4.22626e-14
-4.22626e-14
-5.63501e-14
4.21739e-14
3.62964e-14
2.12966e-14
0
-1.837e-14
3.07e-14
9.21e-14
6.14e-14
-3.07e-14
9.21e-14
-7.55469e-14
4.77545e-14
2.35398e-14
0
8.32211e-14
1.18591e-14
5.92955e-14
0
-1.18591e-14
-2.37182e-14
7.36805e-14
0
0
2.45602e-14
-2.45602e-14
-1.25363e-13
6.26814e-14
0
6.26814e-14
6.26814e-14
6.88118e-14
-1.03218e-13
-1.37624e-13
-1.37624e-13
-1.03218e-13
-1.47979e-14
1.47979e-13
7.39895e-14
1.33181e-13
2.95958e-14
9.63736e-14
0
0
-9.63736e-14
0
-0.0011554
-59.6049
-0.00136824
-127.985
-0.00122152
-129.931
-0.0014753
-55.9058
-5.13684e-05
1.18688e-08
-0.00740544
0.000376993
-1.76594e-05
1.11577e-08
-0.00784497
0.000283693
-0.000841889
-0.000824379
-59.453
-57.9966
-0.00157257
-0.00162851
-130.329
-129.09
-0.00694334
-0.00016419
0.00102453
2.99131e-08
-0.000426235
-0.0096695
-237.667
-315.713
-0.0113921
-0.0137871
-200.52
-257.662
-0.00752745
-0.00841697
-218.912
-329.996
-0.0136823
-0.0295045
-374.225
-624.25
0.000416977
-0.00150327
-57.1845
-55.8289
-0.000211543
-0.00463085
-119.183
-112.084
0.000970039
-0.00127731
-0.00408843
-0.00692193
-152.138
-155.52
-267.539
-264.771
6.67576e-10
1.95509e-12
1.92826e-08
-3.02465e-11
-2.75469e-10
1.01061e-13
9.16153e-09
2.92668e-12
2.92361e-05
2.04073e-09
3.53125e-05
1.00846e-09
-3.53999e-05
6.73055e-11
3.15601e-05
1.19377e-09
-9.14136e-05
-2.3289e-09
-1.15853e-05
-1.70695e-10
0.000127361
5.32676e-09
3.52935e-05
3.39802e-09
-0.000201982
0.000258344
6.64077e-05
-0.00338399
-0.000757465
0.00024347
8.77494e-05
-0.00349717
-0.00574149
-0.00570574
7.23909e-05
-0.00325315
-0.0110646
-0.0100872
3.18511e-05
-0.00329046
0.00130588
0.00132289
-0.000966305
-0.00164572
0.000874548
0.000849107
-0.00391946
-0.0054522
0.00111487
0.00112233
-0.00194202
-0.00578058
1.38147e-09
6.62943e-13
3.88231e-05
-0.000732634
0.000298729
-2.64316e-13
1.32952e-09
3.99131e-05
-0.000292802
-0.00530754
2.85426e-13
3.70016e-12
-2.93182e-09
0.00013938
-0.00482343
2.39134e-05
1.16965e-11
-0.000432653
-8.89658e-06
3.11091e-05
-2.04588e-10
-0.00120616
-2.92854e-05
0.000106087
1.55229e-09
-0.00142236
-5.93443e-05
-3.04116e-13
-1.94924e-13
7.05984e-11
5.54782e-14
-1.09794e-11
-6.70811e-12
-1.34848e-05
-1.95025e-09
-0.00141149
-0.000143713
5.1486e-14
4.09185e-14
-3.53494e-13
-1.46877e-13
-2.42971e-09
-1.02011e-10
-8.7691e-05
-7.11295e-09
-0.00444981
-0.000186848
-1.20986e-12
0
-1.63979e-13
3.2857e-14
-1.02819e-13
0
3.49288e-14
-2.51403e-14
-2.67569e-10
-6.12698e-11
-2.54274e-09
-6.31489e-11
1.3137e-12
9.76083e-14
-1.14785e-12
7.14976e-14
4.26077e-12
5.23183e-14
4.70955e-13
5.76071e-14
-2.05166e-11
-8.73884e-11
-3.92013e-12
-8.12593e-11
-6.53424e-05
-6.30897e-09
-0.00400701
-0.000163081
-8.38374e-05
-8.00453e-09
-0.00441938
-0.000206399
-5.59277e-05
-5.25593e-09
-0.00377745
-0.00014537
-1.64754e-05
-3.45356e-09
-0.00368371
-0.000113188
-6.80463e-13
-4.281e-14
-1.78444e-10
3.30594e-14
7.44475e-13
7.70564e-14
-5.70939e-10
3.59049e-14
1.30358e-11
6.56445e-14
-1.09941e-09
1.41414e-13
-6.69438e-14
2.04237e-13
4.72715e-14
2.84307e-14
-2.84033e-14
-2.01423e-14
-4.80037e-11
5.60108e-14
-2.84923e-09
2.19752e-12
4.39412e-14
5.26338e-14
2.5682e-14
-3.05046e-14
-4.7405e-14
5.32136e-14
-9.72786e-11
-4.77333e-14
-2.84679e-09
5.18741e-13
1.94513e-13
8.33847e-14
-7.94895e-11
3.84954e-13
-3.89122e-10
1.74028e-11
-2.02653e-07
7.18952e-09
0
4.47793e-14
4.62265e-14
2.94812e-14
6.63627e-14
2.43459e-14
1.59973e-13
1.47232e-14
3.17376e-14
1.85613e-14
1.07322e-13
-2.47901e-13
-1.01604e-13
1.46067e-13
3.01295e-10
4.03443e-10
-2.0726e-07
-2.47847e-07
-3.3065e-12
-6.55415e-11
0
0
9.25199e-14
-2.4452e-13
-9.57986e-14
-1.43337e-13
3.17439e-14
9.06917e-14
4.05918e-14
-1.25248e-13
2.37653e-14
-4.17078e-14
5.90512e-14
2.98848e-14
9.0724e-14
-5.42684e-14
-2.90199e-14
7.12456e-14
-7.65867e-14
0
0
-1.56407e-13
7.7782e-15
-8.46451e-14
1.31662e-13
0
5.74842e-11
-3.07453e-14
1.50044e-14
-2.62049e-14
0
7.06455e-14
1.61583e-12
-7.63389e-14
6.90679e-14
-2.56985e-14
-2.87299e-09
-1.51497e-11
-7.10987e-10
-1.48169e-12
0
-4.75349e-14
-7.17505e-14
2.38409e-14
2.14008e-14
8.66048e-14
-2.41731e-14
2.71974e-14
4.90827e-14
5.00565e-14
0
6.81148e-14
-7.58883e-14
8.90257e-14
2.20322e-14
-4.94015e-14
-5.11145e-14
8.64158e-14
4.41993e-14
-2.38392e-14
0
4.26676e-14
0
4.24931e-14
1.82285e-13
0
-1.15531e-13
-1.24171e-13
0
-2.19223e-14
-1.28807e-13
-2.5008e-14
1.49867e-13
-8.28678e-14
-1.68071e-13
-6.28378e-14
4.24503e-14
-2.64316e-13
0
1.17261e-13
0
2.27653e-13
5.64201e-13
0
1.0384e-13
0
-9.22418e-14
4.08183e-14
1.31422e-13
4.3712e-14
-8.10347e-14
-3.34796e-14
-8.68591e-14
-7.61064e-14
0
2.93853e-14
-2.95057e-14
1.39895e-13
1.85889e-13
-1.0137e-13
0
-1.19658e-13
0
3.22923e-14
0
-2.27593e-14
-6.8278e-14
-6.38078e-14
-1.69566e-14
1.13647e-13
3.27129e-14
-1.08767e-13
-3.67193e-14
-2.51019e-14
0
9.25222e-14
0
6.02591e-14
-4.494e-14
-7.11682e-14
3.1054e-14
-2.34255e-14
3.2857e-14
-9.31486e-14
-2.25753e-14
4.41234e-14
7.47185e-14
-1.03918e-14
-1.34364e-13
-1.04219e-14
9.58253e-14
9.02307e-15
3.25361e-14
-4.78271e-14
0
8.36343e-14
5.20601e-14
0
-1.72821e-13
-7.97494e-14
0
1.04677e-14
-7.35711e-14
-1.5034e-13
0
-6.9102e-14
0
0
0
0
-3.3071e-14
3.01598e-14
0
-6.21644e-14
3.36904e-14
1.64052e-14
0
3.38592e-14
3.28822e-14
0
-7.45466e-14
0
1.02901e-14
-9.57182e-14
-3.85282e-14
6.14198e-14
0
-5.91863e-14
8.75259e-14
5.1989e-14
-5.65657e-14
-6.6939e-14
1.36154e-13
2.36358e-13
8.5292e-14
-5.68065e-14
-2.01423e-14
3.99033e-14
-5.60108e-14
-1.4391e-13
1.46502e-13
-8.788e-14
-5.26329e-14
7.7046e-14
-3.05046e-14
0
1.06427e-13
-4.39478e-14
-2.38666e-14
7.64186e-14
-7.78111e-14
0
4.07796e-14
0
0
-3.91778e-14
3.91778e-14
1.60643e-13
-5.25085e-14
0
0
-4.77068e-14
-1.468e-13
-3.32767e-14
-1.66383e-14
9.45369e-14
2.58176e-14
-3.89128e-14
-3.89128e-14
2.02573e-14
1.37621e-13
1.04596e-13
0
-3.39232e-14
-6.60605e-14
0
-7.0691e-14
-3.85103e-14
-4.6911e-14
4.84273e-14
9.68546e-14
4.84273e-14
4.84273e-14
-9.99343e-15
-9.99343e-15
-3.03715e-14
-1.26193e-14
7.74629e-14
1.03284e-13
-5.94616e-14
2.06074e-14
-3.1397e-14
-3.1397e-14
0
3.91229e-14
3.10372e-14
0
-3.59287e-14
0
1.25906e-15
2.41021e-14
-1.402e-14
-7.0044e-14
-2.33085e-14
6.99255e-14
5.20699e-14
6.66085e-14
4.36032e-14
6.54048e-14
7.24094e-14
0
2.16644e-14
0
4.84423e-14
-6.38715e-14
3.40961e-14
0
-1.14247e-13
4.93661e-14
3.62766e-14
3.62766e-14
1.20311e-13
0
-3.40957e-14
3.40957e-14
0
4.99426e-14
4.99045e-14
3.99236e-14
2.17778e-14
2.66503e-14
-8.16317e-14
-4.08159e-14
9.53158e-14
1.01393e-13
4.77252e-14
2.38626e-14
0
-3.04724e-14
-4.38897e-14
-4.38897e-14
1.57658e-13
-7.97148e-14
-4.81201e-14
0
0
-1.30723e-13
0
0
9.49804e-14
-7.37202e-14
8.18998e-14
8.18998e-14
0
-1.02988e-13
3.1009e-14
3.1009e-14
-3.34424e-14
-9.57088e-14
-7.42599e-14
0
-3.18632e-14
-5.10859e-14
-4.34187e-14
-4.34187e-14
-3.67e-14
6.21661e-14
0
3.61205e-14
-6.0797e-14
4.64153e-14
8.78854e-14
1.75771e-14
0
-3.26945e-14
-6.60073e-14
-6.60073e-14
-8.82346e-14
-5.0295e-14
-1.807e-14
-1.807e-14
-3.0302e-14
1.16253e-14
5.80216e-14
-8.70324e-14
-2.83086e-14
5.92857e-14
0
0
1.08814e-13
8.43368e-14
-6.81859e-14
-5.11394e-14
-4.62692e-14
-5.51483e-14
-1.10137e-13
-5.50685e-14
0
-1.12025e-13
1.20969e-13
6.04843e-14
5.61065e-14
7.8464e-14
2.84744e-14
5.69489e-14
2.39596e-14
-3.69902e-14
-6.14218e-14
8.77454e-15
2.20356e-14
-1.11392e-14
0
5.45289e-14
4.5637e-14
-3.44606e-14
3.55415e-14
7.1083e-14
2.94403e-14
-6.54306e-14
-5.77515e-14
5.77515e-14
9.6288e-14
7.21542e-14
0
-7.29904e-14
-7.29904e-14
-7.29904e-14
-7.29904e-14
-5.53873e-14
-6.46186e-14
-6.46186e-14
-6.46186e-14
-6.46186e-14
1.64326e-14
-4.92977e-14
-4.92977e-14
-4.92977e-14
1.64326e-14
0
-3.93205e-14
-3.93205e-14
-3.93205e-14
-7.8641e-14
1.35052e-13
2.43094e-13
2.43094e-13
2.43094e-13
1.62063e-13
0
1.30742e-13
1.96114e-13
1.30742e-13
6.53712e-14
-6.58174e-14
3.29087e-14
0
3.29087e-14
-3.29087e-14
0
0
6.05341e-14
6.05341e-14
0
4.18985e-14
4.18985e-14
0
4.18985e-14
9.42717e-14
6.25495e-14
-3.12747e-14
-3.12747e-14
-3.12747e-14
-3.12747e-14
-3.01377e-14
1.10505e-13
3.01377e-14
3.01377e-14
-3.01377e-14
-4.19051e-14
-4.19051e-14
-4.19051e-14
-4.19051e-14
-4.19051e-14
-1.30945e-14
-1.14577e-14
-9.82085e-15
-9.82085e-15
-1.30945e-14
9.56562e-14
4.78281e-14
0
4.78281e-14
9.56562e-14
-4.46521e-14
-4.46521e-14
-8.93043e-14
-4.46521e-14
-4.46521e-14
0
0
-9.53772e-14
-4.76886e-14
0
-7.21515e-14
0
-7.21515e-14
7.21515e-14
-7.21515e-14
-3.12093e-14
4.01262e-14
4.01262e-14
4.01262e-14
-3.12093e-14
0
0
7.3231e-14
0
7.3231e-14
5.61662e-14
-5.61662e-14
-5.61662e-14
-1.12332e-13
5.61662e-14
2.06232e-13
1.03116e-13
0
0
2.06232e-13
4.14716e-14
4.14716e-14
4.14716e-14
1.24415e-13
4.14716e-14
-6.36669e-14
-1.27334e-13
0
0
-1.27334e-13
0
1.80816e-13
1.80816e-13
1.80816e-13
9.0408e-14
-2.55011e-13
-1.27506e-13
-1.27506e-13
-1.27506e-13
-2.55011e-13
9.90202e-06
8.61548e-07
3.07184e-05
2.73368e-06
5.29899e-05
4.64308e-06
9.034e-05
6.72634e-06
0.000141479
9.55853e-06
8.82592e-05
-2.32305e-06
0.000133865
4.23987e-06
5.87975e-05
-6.70163e-06
2.85364e-05
-9.54026e-06
-14.8234
-14.8227
-14.8224
-14.8221
-14.8227
-0.00033898
-0.000346933
-0.000358602
-0.000371614
-0.000379691
-47.9401
-47.9421
-47.9413
-47.9404
-47.9422
-0.00106606
-0.00110665
-0.0011431
-0.00118162
-0.00123127
-83.0114
-83.013
-83.0116
-83.0101
-83.0132
-0.00177247
-0.00184128
-0.00190298
-0.00196823
-0.00205245
-120.633
-120.635
-120.633
-120.631
-120.635
-0.00246769
-0.00255328
-0.00262821
-0.0027076
-0.00281317
-163.671
-163.672
-163.669
-163.666
-163.672
-0.00339888
-0.0035114
-0.0036085
-0.0037113
-0.00384933
-184.005
-184.005
-184.003
-184.003
-184.002
-0.00409122
-0.00423658
-0.00437911
-0.00453005
-0.00470081
-174.694
-174.696
-174.696
-174.693
-174.695
-0.00376755
-0.00390721
-0.00403823
-0.00417686
-0.00434413
-186.507
-186.511
-186.502
-186.504
-186.506
-0.00429292
-0.00445556
-0.00462016
-0.0047947
-0.00498432
-197.651
-197.655
-197.65
-197.65
-197.652
-0.00452486
-0.0046758
-0.00485263
-0.00498669
-0.00517684
4.02114e-08
-2.37982e-07
-1.99559e-08
1.65291e-08
-4.89761e-13
1.47392e-12
-7.00656e-13
-2.53838e-12
-3.13821e-08
-5.42111e-07
-3.44946e-08
-2.6632e-07
-3.0053e-14
3.00745e-14
6.01464e-14
1.2028e-13
1.50576e-14
-9.00475e-14
4.05481e-14
-2.02878e-14
4.05712e-14
0
1.0158e-14
-1.26551e-14
-1.5942e-13
-4.71079e-14
-7.25823e-14
-9.4121e-14
0
-7.0425e-14
5.84157e-14
2.33836e-14
1.21202e-13
8.36398e-14
-4.03676e-14
9.08246e-14
6.39108e-14
1.05193e-13
-2.99729e-14
-3.01579e-14
-9.01438e-14
3.00925e-14
6.34021e-14
-5.06874e-14
8.08648e-14
2.03446e-14
2.027e-14
-1.01497e-13
0
0
8.01414e-14
4.00707e-14
1.20212e-13
8.01988e-14
4.00994e-14
0
0
0
-2.00488e-14
8.01952e-14
2.00488e-14
2.00488e-14
6.01464e-14
-4.00933e-14
2.00466e-14
-6.01399e-14
-4.00933e-14
-2.00466e-14
-3.01151e-14
-5.01919e-14
-5.01919e-14
-4.01535e-14
-4.01535e-14
-4.00211e-14
-8.00422e-14
0
-4.00211e-14
-4.00211e-14
-8.10962e-14
0
0
0
2.70321e-14
-5.41007e-14
-5.41007e-14
-2.70504e-14
-2.70504e-14
0
-1.35237e-13
-5.4095e-14
-5.4095e-14
-5.4095e-14
-5.4095e-14
4.05675e-14
-1.35225e-13
-8.1135e-14
-5.409e-14
-8.1135e-14
-5.41759e-14
9.48079e-14
1.21896e-13
8.12639e-14
1.3544e-14
6.74937e-14
-7.08684e-14
-1.68734e-14
-7.08684e-14
8.09925e-14
1.0628e-13
-9.6618e-15
1.93236e-14
2.89854e-14
-1.93236e-14
0
0
0
3.14052e-14
0
7.74211e-14
0
-5.80659e-14
-7.74211e-14
-3.87106e-14
9.4121e-14
-3.13737e-14
-6.27473e-14
-3.13737e-14
-6.27473e-14
9.70194e-14
0
0
0
1.94039e-14
0
-3.13e-14
-6.26e-14
-3.13e-14
-3.13e-14
0
9.73595e-14
7.78876e-14
7.78876e-14
0
-3.11782e-14
-3.11782e-14
3.11782e-14
-3.11782e-14
-3.11782e-14
6.06008e-14
6.06008e-14
4.04005e-14
4.04005e-14
4.04005e-14
-1.85866e-14
5.57599e-14
9.29331e-14
5.57599e-14
5.57599e-14
-4.48528e-14
-1.79411e-14
-5.38234e-14
-5.38234e-14
-8.97057e-15
0
0
3.02749e-14
3.02749e-14
-3.02749e-14
-5.01261e-15
1.00252e-14
5.01261e-14
5.51387e-14
4.51135e-14
4.00735e-14
6.01102e-14
6.01102e-14
6.01102e-14
0
-1.99819e-14
0
-1.99819e-14
-1.99819e-14
0
-6.03158e-14
-8.0421e-14
-1.00526e-13
-8.0421e-14
0
-4.00639e-14
-6.00958e-14
-8.01278e-14
-4.00639e-14
-8.01278e-14
4.01233e-14
2.00617e-14
6.0185e-14
6.0185e-14
6.0185e-14
-4.05773e-14
-1.11588e-13
-1.11588e-13
-1.31876e-13
-1.35258e-14
-1.35166e-14
8.10998e-14
5.40665e-14
1.08133e-13
5.40665e-14
1.34775e-14
8.08648e-14
1.21297e-13
1.21297e-13
-4.04324e-14
0
0
2.71261e-14
2.71261e-14
2.71261e-14
-2.70267e-14
-8.108e-14
-8.108e-14
-1.08107e-13
-1.35133e-13
-2.70659e-14
0
2.70659e-14
8.11976e-14
2.70659e-14
0
-3.00745e-14
0
-3.00681e-14
-1.50578e-14
0
4.05481e-14
0
0
0
-3.04738e-14
7.33995e-14
-1.5942e-13
-4.71079e-14
7.25842e-14
0
0
0
8.76269e-14
7.01527e-14
-3.02998e-14
8.50093e-14
-8.073e-14
-7.39677e-14
-7.51891e-14
9.01639e-14
5.99437e-14
-3.01588e-14
-1.50237e-13
9.02812e-14
-4.81862e-14
-4.055e-14
1.01086e-13
2.03443e-14
-6.08096e-14
-1.21796e-13
-8.01414e-14
8.01414e-14
8.01414e-14
8.01414e-14
8.01414e-14
-1.20298e-13
0
0
0
0
-1.00241e-13
-6.01449e-14
-6.01449e-14
-8.01932e-14
-6.01449e-14
-2.00454e-14
-4.00908e-14
2.00454e-14
2.00454e-14
-4.00908e-14
-2.0077e-14
-1.00385e-14
5.01926e-14
1.00385e-14
2.00771e-14
8.00432e-14
8.00432e-14
8.00432e-14
8.00432e-14
8.00432e-14
-1.08128e-13
0
0
-2.70321e-14
2.70321e-14
-5.41007e-14
-5.41007e-14
0
-5.41007e-14
-2.70504e-14
2.7047e-14
0
8.11411e-14
8.11411e-14
2.7047e-14
9.46608e-14
-1.3523e-14
8.11379e-14
2.7046e-14
4.05689e-14
2.70878e-14
9.48073e-14
-4.06317e-14
-6.77195e-14
-1.35439e-14
6.74937e-14
9.11166e-14
2.69975e-14
8.09925e-14
8.09925e-14
1.64251e-13
-4.8309e-14
2.89854e-14
2.89854e-14
-9.6618e-15
3.14052e-14
0
0
0
0
7.74231e-14
5.80673e-14
-1.93558e-14
-1.93558e-14
0
1.25495e-13
-3.13737e-14
-6.27474e-14
-6.27474e-14
-3.13737e-14
-7.76164e-14
-1.94041e-14
-5.82123e-14
-1.94041e-14
0
9.38975e-14
3.12992e-14
3.12992e-14
3.12992e-14
3.12992e-14
7.78906e-14
-1.94727e-14
1.94727e-14
1.94727e-14
-1.94727e-14
0
0
0
0
0
0
0
6.05995e-14
6.05995e-14
2.01998e-14
-3.77819e-14
3.77819e-14
7.55638e-14
9.44548e-14
1.8891e-14
-1.0764e-13
0
-7.176e-14
-1.0764e-13
3.588e-14
4.93118e-14
6.57491e-14
6.57491e-14
6.57491e-14
6.57491e-14
-2.00504e-14
-1.00252e-14
-1.50378e-14
-1.50378e-14
-1.00252e-14
2.00364e-14
-1.00182e-14
-3.00546e-14
-4.00729e-14
0
1.99812e-14
3.99624e-14
3.99624e-14
3.99624e-14
3.99624e-14
4.02117e-14
-4.02117e-14
-2.01058e-14
-2.01058e-14
-6.03175e-14
-4.00631e-14
8.01262e-14
4.00631e-14
4.00631e-14
4.00631e-14
4.0125e-14
4.0125e-14
0
0
0
-1.69074e-14
-9.80631e-14
-4.39593e-14
-4.39593e-14
1.01445e-14
1.35167e-14
0
-8.11001e-14
-5.40667e-14
0
-1.34782e-14
6.73909e-14
6.73909e-14
4.04345e-14
6.73909e-14
0
-2.71257e-14
2.71257e-14
8.1377e-14
-5.42513e-14
0
0
0
0
2.70265e-14
0
5.41317e-14
0
-2.70659e-14
1.08263e-13
-4.51343e-14
7.95157e-14
8.68625e-14
-5.67145e-14
4.30557e-14
-8.13876e-14
3.2196e-14
-8.98122e-15
-3.29547e-14
1.80554e-14
-5.32886e-14
3.198e-14
5.0558e-14
-1.09294e-13
-1.20168e-13
-4.36351e-14
-4.75224e-14
8.5932e-15
0
8.2837e-14
4.52191e-14
-2.5008e-14
-6.51354e-14
0
2.72551e-14
-2.83156e-14
3.71497e-14
0
-1.52145e-15
3.45363e-14
2.67321e-14
-8.89406e-14
-5.52618e-14
4.70154e-14
0
-8.87929e-14
-1.44551e-13
2.87451e-14
3.94576e-14
7.17981e-14
4.15994e-14
6.01741e-14
-1.06021e-14
-4.77094e-14
-4.77094e-14
-4.77094e-14
-1.27225e-13
5.79083e-14
5.79083e-14
8.68624e-14
8.68624e-14
8.68624e-14
1.08028e-14
-7.56194e-14
-1.1883e-13
-1.1883e-13
-3.24083e-14
-9.56793e-14
-1.91359e-14
-1.91359e-14
-1.91359e-14
0
8.13875e-14
2.71292e-14
-8.13876e-14
-2.71292e-14
2.71292e-14
-8.58559e-14
-4.29279e-14
0
0
0
4.60391e-14
0
-2.80615e-14
-2.76231e-14
4.86036e-14
3.90467e-14
-7.23932e-14
1.32571e-13
6.01913e-15
4.925e-14
-2.40738e-14
2.40738e-14
2.40738e-14
-2.40738e-14
2.40738e-14
1.50777e-14
-1.81784e-14
-1.80572e-14
-1.79377e-14
-3.56394e-14
1.4924e-13
-6.39599e-14
-8.52799e-14
-4.26399e-14
2.132e-14
-1.68527e-14
6.74107e-14
0
6.74107e-14
0
-3.64313e-14
-1.45725e-13
-7.28626e-14
-1.45725e-13
-1.45725e-13
0
-4.0056e-14
0
0
0
2.90901e-14
-8.72703e-14
-5.81802e-14
-5.81802e-14
-5.81802e-14
6.90496e-14
1.12448e-13
0
0
-2.43387e-14
4.01016e-14
-4.01016e-14
-6.30168e-14
-5.15592e-14
-1.31762e-13
-2.69433e-14
-5.38865e-14
-5.38865e-14
-5.38865e-14
-5.38865e-14
-1.28858e-13
1.84082e-14
7.36329e-14
7.36329e-14
7.36329e-14
-6.02922e-14
-8.03896e-14
0
-8.03896e-14
-4.01948e-14
-1.00032e-13
8.33601e-14
3.3344e-14
3.3344e-14
6.66881e-14
4.34236e-14
-1.44745e-14
7.23726e-14
7.23726e-14
-4.34236e-14
8.95496e-14
1.19399e-13
0
0
-8.95496e-14
0
-1.81701e-14
0
0
3.63401e-14
-1.41578e-14
-5.19119e-14
-6.13504e-14
-6.13504e-14
-2.35963e-14
4.95329e-14
8.66826e-14
8.66826e-14
8.66826e-14
4.95329e-14
4.22634e-14
-4.22634e-14
-1.40878e-14
-1.40878e-14
4.22634e-14
-1.20496e-14
2.17778e-14
0
0
3.36784e-14
7.67473e-15
-3.06989e-14
2.30242e-14
-7.67473e-15
-9.97714e-14
-3.23766e-14
0
4.70788e-14
1.15671e-14
-3.12072e-14
-4.7435e-14
-3.55762e-14
0
0
0
0
-7.36823e-14
-7.36823e-14
-4.91216e-14
-4.91216e-14
-6.26871e-14
-6.26871e-14
0
0
0
-3.44059e-14
3.44059e-14
3.44059e-14
3.44059e-14
0
1.03592e-13
4.43965e-14
1.33189e-13
1.47988e-14
-4.43965e-14
0
-9.63672e-14
-9.63672e-14
-9.63672e-14
0
0
-4.47638e-14
-4.47638e-14
0
-4.47638e-14
0
-4.02842e-10
-9.65167e-10
-5.45187e-10
-9.45933e-10
-1.29522e-09
1.89287e-11
9.87536e-11
6.26084e-12
1.43203e-09
-6.85808e-06
-2.55215e-09
-3.00572e-05
1.12436e-09
-3.70345e-09
-0.000181003
0
-1.80232e-13
-7.46974e-14
-9.01168e-14
-4.43678e-12
9.30115e-14
-9.52825e-14
9.78524e-14
-1.26741e-10
-6.73196e-06
-1.3618e-09
-2.52832e-05
3.60955e-09
-5.5957e-09
-0.00015849
-6.54558e-14
8.19404e-14
1.05341e-13
6.54583e-14
-3.64807e-14
1.06004e-14
-2.76783e-14
-3.78032e-14
-8.2449e-12
4.09905e-10
-4.74442e-11
-1.74211e-10
6.01973e-11
-2.13216e-10
-6.18028e-09
0
6.05735e-14