/*--------------------------------*- C++ -*----------------------------------*\
  =========                 |
  \\      /  F ield         | OpenFOAM: The Open Source CFD Toolbox
   \\    /   O peration     | Website:  https://openfoam.org
    \\  /    A nd           | Version:  dev
     \\/     M anipulation  |
\*---------------------------------------------------------------------------*/
FoamFile
{
    format      ascii;
    class       volScalarField;
    location    "1";
    object      gradTy;
}
// * * * * * * * * * * * * * * * * * * * * * * * * * * * * * * * * * * * * * //

dimensions      [0 -1 0 1 0 0 0];

internalField   nonuniform List<scalar> 
5712
(
-0.000195501
-12.3332
2.09914e-06
-2.2908
9.09802e-06
-0.78467
4.32037e-05
-0.23437
-3.76175e-05
-1.19893
-0.000345575
-3.07479
-0.000462541
0.790948
-0.000263395
-7.7158
-2.32065e-05
1.4938e-09
3.44955e-05
8.48733e-05
1.64388e-05
2.27816e-09
-0.000392979
3.54937e-05
1.35494e-05
-2.847e-05
0.649953
0.650956
7.89773e-06
-7.35875e-05
0.00245311
0.0693764
-0.000562835
-3.69428e-05
-0.000427924
-1.74838e-08
-0.00020852
-0.000195905
0.285658
-0.413563
-0.00273134
-0.00320875
0.258693
-0.327222
-0.000461021
-0.000613058
-0.455619
-0.411004
0.00470527
0.00395376
-0.715611
-0.795561
0.0103794
272.204
0.0105753
287.646
0.00744447
243.912
-1.0889
278.99
0.00341789
199.589
0.00472632
212.493
0.265031
204.533
0.859038
196.288
-2.72759e-09
-1.4388e-11
6.92855e-09
-8.05546e-12
-4.79894e-11
4.40742e-14
1.43386e-09
3.68942e-13
-6.22752e-05
5.34395e-08
-6.78958e-05
-1.31727e-07
-1.45783e-05
1.74558e-11
1.29794e-05
1.11897e-10
-1.19486e-05
-2.12972e-10
-1.51569e-06
-1.46499e-11
-1.05585e-05
4.32418e-08
-1.87143e-05
-8.81832e-09
0.00354099
209.769
0.00541027
223.375
0.00351129
204.008
0.0054278
232.708
0.00345513
206.16
0.00545831
224.733
0.00336177
198.241
0.0056354
233.463
0.0104219
0.0101973
272.066
271.998
0.006909
0.00660412
246.728
247.342
0.00399423
0.00368466
213.549
212.246
-2.74422e-09
-1.16018e-12
-7.04445e-05
0.00342424
195.453
-5.28632e-13
-2.66054e-09
-7.25885e-05
0.00187482
188.393
-3.52639e-14
-4.48476e-11
-5.50655e-07
0.00503038
242.551
0.000157614
1.94543e-09
1.36391e-05
-2.95798e-07
0.000139079
1.72968e-09
-5.3261e-05
1.30288e-06
0.000134799
1.74021e-09
-5.69374e-05
6.82425e-06
0
1.21824e-14
-1.41226e-10
5.54769e-14
2.30699e-09
9.22077e-11
0.000215323
3.42617e-09
-5.86489e-05
2.30411e-05
-8.5237e-14
6.54283e-14
1.04603e-12
4.0162e-14
9.5453e-09
2.40605e-10
0.000315364
5.16918e-09
-0.000122102
1.73174e-05
4.71738e-12
-2.42613e-14
3.72465e-12
4.20997e-14
0
-5.13999e-14
0
0
5.93635e-09
1.70169e-10
9.54447e-09
2.38176e-10
2.021e-12
-3.55861e-14
4.06544e-13
6.92633e-14
-4.81191e-14
2.61592e-14
-7.1743e-14
2.78437e-14
4.22418e-09
1.35767e-10
2.55312e-09
1.17534e-10
0.000190829
3.02216e-09
2.21418e-05
-2.03073e-06
0.000280879
4.44851e-09
3.95139e-05
-2.6796e-06
0.000150949
2.29088e-09
1.48771e-05
-1.8161e-06
0.000102623
1.73877e-09
1.71701e-05
-3.01859e-06
1.11347e-13
7.42334e-14
3.46203e-14
-4.48215e-12
1.06721e-13
7.79895e-14
-4.1403e-13
0
0
4.25968e-11
-2.34231e-14
0
-1.73435e-12
0
0
1.66907e-10
-6.28561e-14
-4.19222e-14
-5.77441e-14
-5.33344e-14
-3.24532e-14
1.62541e-14
-8.75581e-14
-2.95643e-14
3.8614e-14
6.91061e-14
-3.03537e-14
-4.72292e-12
-2.93833e-15
3.22568e-14
6.28545e-10
-2.51679e-13
-2.14712e-14
3.76709e-14
0
2.43696e-14
0
5.01756e-14
-5.73927e-14
4.038e-14
0
-4.74342e-14
8.90031e-12
-3.98511e-14
8.34074e-14
4.37072e-10
4.41147e-13
0
-4.66823e-11
-8.33839e-14
-1.33867e-08
-7.48926e-11
-1.63822e-08
2.67204e-10
-0.000415376
-1.1349e-08
8.8286e-14
-4.47803e-14
-7.85493e-15
6.54126e-14
4.77058e-14
0
-1.76966e-12
-1.95836e-14
-1.01299e-12
-1.61986e-13
1.60983e-13
-1.2395e-13
-1.01602e-13
0
3.06303e-09
7.19359e-10
9.1549e-05
1.21857e-05
-2.97657e-10
-3.26811e-10
5.30883e-13
1.99421e-13
-1.56305e-14
8.19046e-14
1.59629e-15
-2.78017e-15
0
-4.78042e-14
-1.39534e-14
4.38448e-14
-8.61506e-14
5.00989e-14
1.21793e-13
-1.91448e-14
-6.16648e-14
2.7135e-14
-2.15379e-15
-4.88073e-14
2.06425e-14
3.10899e-14
5.94389e-14
-4.05709e-14
1.80311e-14
-5.51073e-15
3.9604e-14
9.0985e-15
-1.2796e-11
3.07302e-14
6.00174e-14
0
6.93191e-14
5.46688e-14
1.22657e-11
-5.08915e-14
1.44276e-12
2.56998e-14
2.51078e-09
-3.68936e-12
2.65216e-10
-3.91409e-13
5.32153e-14
0
0
-4.76841e-14
1.33755e-14
1.33079e-14
-2.99801e-15
0
-4.90827e-14
1.58643e-14
0
1.70297e-14
-3.79442e-14
0
2.33226e-14
0
4.25954e-14
1.57112e-14
4.42014e-14
-2.66839e-14
4.01795e-14
0
-6.73452e-15
1.40854e-14
-3.64566e-14
4.29125e-14
-3.85099e-14
0
0
0
-2.14673e-14
0
0
1.34664e-13
0
1.3746e-14
0
0
7.11356e-14
5.86304e-14
-3.30435e-14
-4.55306e-14
1.7632e-14
-2.6111e-14
7.78831e-14
2.84945e-15
4.61186e-14
4.08178e-14
4.38062e-14
-3.41425e-14
-6.2283e-15
0
3.47416e-14
-3.80535e-14
-5.47607e-14
2.93839e-14
5.9015e-14
0
-1.68996e-14
5.06846e-14
1.21816e-14
-8.97434e-14
-2.77385e-14
-4.8438e-14
0
-1.99141e-14
3.20072e-14
3.19039e-14
0
-3.50707e-14
-4.60027e-15
-6.6811e-14
-6.99967e-14
-1.41198e-14
4.43958e-14
-4.34598e-14
-9.20794e-15
6.02577e-14
-1.49804e-14
-4.0667e-14
5.43452e-14
-4.6851e-14
-1.02682e-14
-1.89207e-14
5.58877e-14
-4.82599e-14
-4.12523e-14
7.12582e-14
1.2597e-14
4.16875e-14
-1.19782e-13
9.62383e-14
-6.4055e-14
2.39143e-14
5.58575e-15
-4.77871e-14
2.60301e-14
9.56574e-14
-8.73706e-14
0
-1.99106e-14
0
-2.2991e-15
4.49673e-14
-1.57274e-14
0
-3.39384e-14
0
-2.43668e-14
1.54721e-14
3.30718e-14
-4.95763e-14
2.88264e-14
3.55219e-14
3.36905e-14
0
8.06059e-14
4.76484e-15
-3.28822e-14
7.42312e-14
-3.71167e-14
3.46203e-14
-2.27686e-14
2.66803e-14
-7.79895e-14
5.17537e-14
-5.03558e-14
0
6.18748e-14
0
0
7.54064e-14
3.21146e-14
-2.79041e-14
3.61667e-14
-2.0952e-14
0
4.61919e-14
2.28566e-14
1.08176e-14
-4.87624e-14
7.50498e-14
0
-3.8614e-14
-5.18296e-14
-6.07073e-14
8.46553e-15
4.40749e-15
4.71445e-14
-1.74548e-14
-4.19466e-14
2.14712e-14
3.76698e-14
4.32211e-14
-4.87386e-14
4.3621e-14
-1.25439e-13
0
-8.07601e-14
0
4.74342e-14
0
7.97023e-14
0
0
2.20574e-14
-4.85763e-14
0
-2.03916e-14
1.10553e-14
1.39849e-14
3.88532e-14
-3.26417e-16
-2.61504e-14
-1.40027e-14
1.9758e-14
3.9516e-14
-1.59025e-14
0
1.66388e-14
-3.32775e-14
-1.13537e-14
1.29094e-14
0
5.83726e-14
-2.31519e-14
-3.44051e-14
0
0
-1.27217e-14
8.2577e-15
5.41959e-14
1.17789e-15
-2.75992e-14
-3.36196e-14
-3.94041e-19
-2.42162e-14
-2.42162e-14
2.42154e-14
-5.11938e-14
2.5557e-14
-7.83785e-15
-1.26192e-14
-2.57672e-14
2.58747e-14
2.97306e-14
-2.06071e-14
0
-1.57001e-14
-3.02232e-14
5.86827e-14
-3.1041e-14
0
1.79656e-14
0
4.56381e-14
-4.07597e-16
8.76251e-15
-3.55781e-14
2.32842e-14
-2.42738e-17
2.60345e-14
-6.66077e-14
-1.81668e-16
-1.81668e-16
-2.44964e-14
6.57367e-15
-2.16682e-14
-2.16682e-14
4.64845e-14
1.59683e-14
1.7048e-14
0
-4.3437e-14
-7.37321e-15
-3.02218e-16
-1.84397e-14
3.76887e-14
-1.61077e-14
0
0
1.43385e-14
0
-1.33031e-15
-2.12898e-14
-2.17759e-14
-1.33247e-14
-2.04069e-14
4.08138e-14
-1.78712e-14
1.68987e-14
-2.38856e-14
-2.38856e-14
2.58389e-14
3.04711e-14
-2.1942e-14
0
-1.97059e-14
1.99303e-14
0
0
5.32566e-14
-3.26803e-14
2.01686e-14
-2.01686e-14
4.74872e-14
-3.68649e-14
0
0
3.00986e-14
2.5747e-14
-1.77189e-14
5.31566e-14
9.92277e-15
-9.00807e-14
-1.73283e-14
-1.73283e-14
7.96612e-15
0
-1.62106e-14
1.1576e-15
3.22899e-14
7.53388e-16
-3.61124e-15
-3.61124e-15
-1.32995e-14
-2.32079e-14
3.51567e-14
-3.51567e-14
-2.62775e-14
2.17978e-14
0
0
4.59555e-15
5.02933e-14
3.61394e-14
-3.61394e-14
-1.23102e-14
0
2.901e-14
1.4505e-14
-1.06156e-14
-1.48212e-14
3.23902e-14
0
-5.27082e-14
2.10847e-14
-3.40933e-14
0
-3.08465e-14
4.13616e-14
3.6705e-15
3.6705e-15
1.79173e-14
-3.48543e-14
-4.5362e-14
4.5362e-14
1.40265e-14
0
0
4.27131e-14
0
-5.54853e-14
-3.74375e-14
3.27588e-14
-9.18129e-15
-6.68342e-14
-5.63461e-14
-1.81719e-15
3.12808e-14
5.05425e-14
-1.71797e-14
-3.4952e-14
3.90227e-14
2.18106e-14
0
-1.44379e-14
-4.8144e-14
1.80386e-14
-3.76347e-14
-1.14017e-15
-1.14017e-15
-1.93874e-14
1.82472e-14
-1.96165e-14
-3.80793e-14
-1.15364e-15
-1.15364e-15
-1.23055e-15
-1.86227e-14
-2.19043e-15
-2.19043e-15
-2.19043e-15
0
0
0
0
0
-3.93219e-14
-2.52105e-14
2.8811e-14
1.80028e-15
2.8811e-14
0
0
0
0
0
0
2.19336e-15
5.1556e-14
2.19336e-15
-1.42608e-14
1.86476e-14
-4.92551e-19
-3.02702e-14
-4.92551e-19
-4.92551e-19
0
-2.37418e-14
1.81567e-14
1.81567e-14
-2.37418e-14
0
3.12743e-14
1.56371e-14
0
-1.56371e-14
-3.12743e-14
0
0
4.01807e-14
-4.01807e-14
-2.00904e-14
6.35538e-14
6.98224e-16
6.98224e-16
6.98224e-16
-4.19037e-14
-2.61889e-14
2.61889e-14
2.61889e-14
0
0
0
2.39145e-14
0
0
0
-7.44092e-16
-4.54005e-14
-7.44092e-16
4.39123e-14
0
0
7.15329e-14
0
-4.76886e-14
-2.38443e-14
3.73531e-14
1.27737e-15
1.27737e-15
1.27737e-15
0
5.20045e-16
3.6189e-14
5.20045e-16
-3.51489e-14
3.62633e-14
-1.82978e-14
-3.66052e-14
3.66243e-14
9.53277e-18
0
1.55976e-16
1.55976e-16
1.55976e-16
3.75994e-14
0
-2.57785e-14
-2.57785e-14
0
2.57785e-14
2.57785e-14
-6.77315e-14
-4.6997e-14
3.59412e-14
1.52067e-14
-5.52787e-15
1.59195e-14
0
3.1839e-14
0
0
5.72533e-14
5.72533e-14
1.2051e-14
1.2051e-14
1.2051e-14
-4.25021e-15
2.76342e-14
-4.25021e-15
-4.25021e-15
-4.25021e-15
0.00257552
7.83996e-08
0.0026438
5.97957e-08
0.00261459
3.34823e-07
0.00254559
2.7588e-06
0.00265566
1.41979e-05
0.00261071
1.71745e-05
0.00265149
2.50739e-05
0.002561
5.79514e-06
0.00262768
5.08266e-07
0.00269619
1.25242e-05
-4.31079e-08
1.58211e-05
1.58435e-05
8.61177e-08
1.52748e-08
2.31077e-08
1.7519e-08
4.94252e-09
0.00276091
1.29939e-05
-3.71041e-08
1.63983e-05
1.64177e-05
7.01145e-08
1.35268e-08
1.49481e-08
1.74931e-08
9.42089e-09
0.0027399
1.32105e-05
-4.11289e-09
1.6661e-05
1.66638e-05
3.45013e-07
7.87967e-09
7.84051e-09
8.62193e-09
4.94592e-09
0.00275311
1.36782e-05
8.96469e-08
1.7249e-05
1.72034e-05
2.83817e-06
1.23048e-07
1.31872e-07
1.42824e-07
7.34728e-08
0.00291769
1.48579e-05
6.12372e-07
1.87546e-05
1.84366e-05
1.45503e-05
5.01063e-07
5.23282e-07
5.46513e-07
2.80715e-07
0.00276399
6.76356e-06
8.59977e-07
6.12402e-06
5.68502e-06
1.78168e-05
8.93576e-07
9.50567e-07
1.01468e-06
5.33176e-07
0.00288489
1.09125e-05
1.21858e-06
1.25229e-05
1.19081e-05
2.59881e-05
1.25311e-06
1.32762e-06
1.40717e-06
7.36122e-07
0.00268027
4.03667e-06
2.16338e-07
2.15973e-06
2.01831e-06
6.04919e-06
3.71444e-07
3.98793e-07
4.28147e-07
2.21959e-07
0.00269513
3.05063e-06
-1.64213e-08
4.07289e-07
3.93148e-07
5.29573e-07
4.83805e-08
3.88407e-08
3.92921e-08
2.71738e-08
2.87007e-07
0.00905583
0.0091916
2.72997e-07
-4.17565e-14
-8.26611e-13
-4.68889e-11
-2.12951e-08
1.25629e-09
3.09881e-07
4.57719e-05
0.0119623
0.000120747
0.0102764
9.28861e-09
9.09088e-07
-1.58348e-10
-1.97044e-08
-6.93188e-14
-1.36777e-12
0
1.59027e-14
-4.34297e-14
-1.62044e-14
2.24871e-14
-5.80529e-14
0
-8.1501e-14
-3.45899e-14
0
-7.42897e-14
0
4.79699e-14
0
-5.15902e-14
-2.73229e-14
0
-2.95033e-14
-4.06869e-14
0
2.02078e-14
2.76126e-14
6.02948e-14
-2.50076e-14
-2.17115e-14
2.23877e-14
-2.96581e-15
-5.21683e-14
0
0
0
0
3.52995e-14
-3.55773e-14
5.52603e-14
0
-5.16088e-14
-4.43937e-14
7.22802e-14
-5.47392e-16
2.37362e-14
1.81739e-14
-2.05108e-14
0
0
-4.24072e-14
0
0
0
-6.17658e-14
-3.85948e-15
-3.85948e-15
-3.85948e-15
0
0
0
-4.32119e-14
4.32119e-14
2.16059e-14
-3.92057e-14
-7.38e-14
-4.61144e-15
2.99828e-14
3.45943e-14
0
5.16025e-14
2.58013e-14
-2.58013e-14
-5.16025e-14
-5.72217e-15
3.72046e-14
-5.72217e-15
-5.72217e-15
0
0
1.41225e-14
3.39803e-15
9.46271e-14
-2.43006e-14
7.80975e-14
-1.62135e-14
-7.90901e-14
2.48287e-14
4.37773e-14
-2.40746e-14
0
-4.81493e-14
-4.81493e-14
4.81493e-14
8.87158e-15
4.85521e-14
-1.2051e-14
2.1593e-14
3.39205e-14
2.23926e-14
-2.74958e-14
0
-8.20099e-14
8.1774e-14
5.68393e-15
-3.69559e-14
5.68393e-15
5.68393e-15
0
0
0
0
0
0
-6.44729e-15
5.80414e-14
2.5797e-14
-6.44729e-15
0
2.91462e-14
2.91462e-14
-7.28432e-15
-7.28432e-15
-7.2861e-14
2.84376e-14
0
0
0
0
3.93378e-14
-3.93378e-14
-3.93378e-14
3.93378e-14
3.93378e-14
1.53401e-15
5.6442e-14
-1.72506e-14
6.21938e-14
-4.86765e-14
3.05471e-15
3.05471e-15
3.05471e-15
-6.56932e-14
6.87479e-14
3.4127e-14
-1.97605e-14
-4.67042e-14
7.18324e-15
8.08312e-14
3.4363e-14
-2.45386e-15
-2.45386e-15
-2.45386e-15
0
3.75174e-14
-2.67911e-15
-2.67911e-15
-2.67911e-15
-4.01965e-14
-6.68258e-14
-6.68258e-14
-1.38897e-16
-1.38897e-16
6.66869e-14
-3.85888e-15
2.50898e-14
-3.85888e-15
-3.85888e-15
0
-1.98953e-15
5.7711e-14
-1.98953e-15
-1.98953e-15
-5.97005e-14
2.37337e-14
5.33991e-14
-5.93163e-15
-3.5597e-14
-5.93308e-14
3.59378e-14
3.59378e-14
1.15901e-15
-3.36198e-14
-3.47788e-14
0
0
0
2.47666e-14
-2.47666e-14
0
2.8175e-14
0
2.8175e-14
-2.8175e-14
4.66929e-14
-2.94908e-14
-1.19571e-13
2.89385e-14
0
0
0
0
0
0
6.18772e-14
-3.18286e-15
-7.37574e-14
2.00507e-14
-4.16105e-14
-2.37182e-14
-4.74364e-14
-2.37182e-14
7.11546e-14
7.11546e-14
4.91203e-14
-4.91203e-14
0
-2.45602e-14
2.45602e-14
0
0
3.13407e-14
0
-3.13407e-14
-6.88118e-14
1.03218e-13
3.44059e-14
-3.44059e-14
-3.44059e-14
2.95958e-14
8.87874e-14
2.95958e-14
-2.95958e-14
2.95958e-14
2.40934e-14
-2.40934e-14
0
0
0
0.000250907
-1.82128
0.000252657
1.36278
2.81548e-05
1.31154
1.51152e-05
-1.96665
-1.74477e-05
1.1524e-09
-8.16983e-05
6.43592e-05
1.24151e-05
1.74036e-09
-0.000282296
2.72006e-05
1.59781e-05
-2.84258e-05
0.637657
0.667536
3.68622e-05
-7.38572e-05
0.000985409
0.0638742
-0.000685408
-3.69753e-05
-0.000427901
-1.73589e-08
-0.000208391
-0.000197441
0.285655
-0.413563
-0.00273133
-0.00320874
0.258693
-0.327222
-0.000461025
-0.000613057
-0.455619
-0.411004
0.00470524
0.00395375
-0.726773
-0.795561
0.0103792
272.209
-0.00684681
287.65
0.00744446
243.912
-1.08441
278.991
0.00341789
199.589
0.00472623
212.492
0.268368
204.534
0.859038
196.288
-2.6706e-09
-1.43182e-11
5.63689e-09
-7.01437e-12
-3.64992e-11
2.20371e-14
1.21499e-09
3.38199e-13
-6.22752e-05
5.34434e-08
-6.78959e-05
-1.31727e-07
-1.45754e-05
1.74562e-11
1.29798e-05
1.11917e-10
-1.1948e-05
-2.12839e-10
-1.51561e-06
-1.45094e-11
-1.05561e-05
4.32411e-08
-1.8713e-05
-8.81299e-09
0.00354099
209.769
0.00541027
223.375
0.00351129
204.008
0.00542779
232.709
0.00345513
206.161
0.00545832
224.734
0.00336177
198.241
0.00563538
233.462
0.0103766
0.0101505
272.066
271.998
0.00684593
0.00654443
246.73
247.341
0.003831
0.0035313
213.549
212.246
-2.74316e-09
-9.42622e-13
-7.04465e-05
0.00342425
195.453
-5.61672e-13
-2.67399e-09
-7.25928e-05
0.00187485
188.393
3.52626e-14
-4.48085e-11
-5.50655e-07
0.0050304
242.551
0.000157621
1.95245e-09
1.36287e-05
-2.97883e-07
0.000139102
1.72586e-09
-5.31501e-05
1.3018e-06
0.000134804
1.6913e-09
-5.69452e-05
6.82182e-06
3.80145e-14
1.21827e-13
-1.41257e-10
-1.10956e-13
2.18162e-09
9.21755e-11
0.000215323
3.42543e-09
-5.86513e-05
2.30327e-05
-2.84123e-14
0
1.06632e-12
-5.73739e-15
9.54546e-09
2.40694e-10
0.000315373
5.17334e-09
-0.000122106
1.73223e-05
4.67677e-12
-1.94088e-15
3.70123e-12
-3.08035e-15
3.74953e-14
-6.04569e-15
-1.11772e-13
-5.02806e-14
5.93651e-09
1.70149e-10
9.54463e-09
2.38123e-10
2.02117e-12
-1.86066e-13
4.30444e-13
4.4686e-14
0
-2.96462e-14
-4.78271e-14
0
4.22409e-09
1.35782e-10
2.55329e-09
1.17633e-10
0.000190827
3.02218e-09
2.21416e-05
-2.03064e-06
0.000280885
4.44832e-09
3.95121e-05
-2.67228e-06
0.000150946
2.29087e-09
1.4877e-05
-1.81607e-06
0.000102629
1.73888e-09
1.71712e-05
-3.01873e-06
1.85581e-13
-3.85197e-14
-5.82511e-12
-2.27706e-14
-4.67955e-13
3.85282e-14
5.51597e-11
3.59049e-14
-2.36745e-12
2.18815e-14
2.11926e-10
-4.24243e-14
-4.18399e-14
6.80789e-14
2.36358e-14
1.42153e-14
-7.10081e-14
2.01423e-14
-6.44065e-12
7.00135e-15
7.81172e-10
-4.88339e-13
0
0
-5.1364e-14
-3.05046e-14
0
2.66068e-14
7.91061e-12
-2.38666e-14
4.86237e-10
-6.22489e-13
-2.54423e-11
8.33847e-14
-7.71809e-09
-5.71464e-11
-1.2175e-08
2.02218e-10
-0.000313795
-9.34738e-09
-8.82846e-14
-2.71589e-14
4.00699e-12
-8.49428e-14
-9.54145e-14
4.86919e-14
4.79509e-12
6.40763e-14
-9.25681e-14
0
-1.07322e-13
-1.23951e-13
1.01604e-13
7.30337e-14
3.063e-09
7.19328e-10
9.15434e-05
1.2185e-05
-2.97791e-10
-3.26774e-10
3.53919e-13
3.98841e-13
6.86671e-15
8.22628e-14
-1.17458e-13
-1.86473e-14
-3.13099e-16
-4.36926e-16
9.89424e-14
-2.19216e-14
7.42665e-16
-2.19129e-14
-7.3814e-15
1.91442e-14
2.76425e-14
4.07013e-14
-3.29308e-14
4.55026e-14
5.90854e-14
3.03461e-14
8.91587e-14
-2.69075e-14
-3.62393e-14
-1.51298e-13
-2.89991e-14
4.90334e-14
-9.59969e-12
1.0884e-14
0
-5.24098e-14
3.46596e-14
-6.02291e-14
1.22656e-11
0
1.47345e-12
2.61267e-14
2.51069e-09
-3.76882e-12
2.65287e-10
-5.09738e-13
-5.32151e-14
4.75349e-14
0
1.43443e-13
2.94261e-14
3.99234e-14
4.13468e-14
2.71974e-14
0
0
-3.18327e-14
1.70287e-14
3.79442e-14
2.36172e-14
-4.02561e-14
-4.94015e-14
-2.55572e-14
0
-8.80304e-14
-4.76785e-14
0
-8.53352e-14
-3.99877e-14
-2.84074e-14
-3.64569e-14
-1.71644e-13
1.92551e-14
0
-1.13472e-13
4.38447e-14
4.29357e-14
5.0016e-14
-2.49778e-14
-2.0717e-14
7.20303e-14
1.57094e-14
-2.12252e-14
3.30395e-14
-7.11356e-14
-1.75891e-13
4.75e-14
-2.27653e-14
-1.76313e-14
-4.849e-14
5.19201e-14
6.26855e-14
0
4.08183e-14
4.38073e-14
9.46773e-15
7.32111e-15
-3.34796e-14
3.47436e-14
7.61064e-14
5.47622e-14
-2.93853e-14
-5.90114e-14
1.74869e-14
1.6899e-14
0
0
-2.99146e-14
5.54782e-14
3.22923e-14
6.09828e-14
-8.53473e-14
-8.67699e-14
1.59519e-14
-3.39132e-14
-2.21966e-15
1.07339e-14
4.83292e-14
7.34385e-14
-1.12762e-14
-5.19757e-14
4.00267e-14
-3.06929e-14
-1.50648e-14
4.494e-14
-8.13351e-14
3.29949e-14
-2.34255e-14
2.05356e-15
4.91941e-14
-4.92292e-14
5.65331e-14
2.02363e-14
-2.37528e-14
-1.4696e-14
0
1.99636e-15
7.21846e-14
5.69382e-14
4.78271e-14
3.01631e-14
-2.38955e-14
4.85903e-14
4.78271e-14
-5.76071e-14
-4.86092e-14
-2.09585e-15
-4.8067e-14
-2.75892e-14
1.6779e-15
-4.03e-14
-3.4551e-14
-3.39368e-14
-8.37896e-14
-5.27946e-14
0
-4.96064e-14
-1.57082e-16
-1.53138e-14
0
0
-4.37471e-14
9.54543e-15
5.07888e-14
-1.64411e-14
0
1.01989e-13
3.41937e-14
-2.27706e-14
4.25414e-14
-3.85282e-14
-3.07099e-14
3.59049e-14
0
0
7.79836e-14
0
-1.67347e-14
1.70193e-14
4.72715e-14
-2.84307e-14
-5.68065e-14
-2.01423e-14
2.99275e-14
-1.22524e-14
-4.79701e-14
4.88339e-14
-2.197e-14
5.26329e-14
2.5682e-14
0
4.7405e-14
5.32136e-14
-1.31844e-13
-4.77333e-14
9.55233e-14
-5.18741e-14
0
2.03898e-14
2.76371e-14
-3.01503e-14
-3.8525e-14
3.98306e-14
-1.23384e-14
-3.85064e-14
-5.92692e-14
1.97564e-14
9.54136e-14
-1.22333e-14
3.32685e-15
-2.99498e-14
4.45507e-15
7.91735e-14
-1.94564e-14
1.94564e-14
4.63024e-14
-5.16077e-14
-3.92236e-14
-2.61491e-14
1.27212e-14
4.12878e-14
0
0
-1.68483e-14
-1.17277e-14
0
4.84273e-14
-2.42136e-14
-4.84273e-14
2.56098e-14
-2.55565e-14
-5.68241e-14
3.78579e-14
0
0
6.68943e-14
-2.06074e-14
-1.56985e-14
0
1.00738e-14
-1.95615e-14
1.55186e-14
0
1.79644e-14
1.3034e-14
2.30468e-14
2.39763e-17
-1.62879e-14
3.55779e-14
4.74181e-14
-2.25075e-14
5.20699e-14
-4.99564e-14
0
0
2.41365e-14
-1.53874e-14
4.33289e-14
2.16644e-14
3.02764e-14
-4.79036e-14
0
3.40961e-14
-2.26114e-14
2.96055e-14
5.47171e-14
-3.59744e-14
1.42719e-14
-1.19885e-14
-1.70479e-14
3.40957e-14
-7.16936e-15
-1.24856e-14
3.99236e-14
-3.99236e-14
0
1.33252e-14
-6.12238e-14
4.08159e-14
-1.19145e-14
-6.75954e-14
-4.61099e-14
-2.22473e-14
-3.87604e-14
0
-8.78251e-14
6.57888e-14
-3.94145e-14
-6.97505e-14
-2.406e-14
0
-5.32566e-14
6.53617e-14
-2.01713e-14
-4.03427e-14
0
2.76451e-14
-3.41166e-16
-3.41166e-16
-3.43421e-14
0
-2.95252e-16
-2.95252e-16
5.12415e-15
0
-3.713e-14
0
4.77947e-14
2.55429e-14
-1.73675e-14
0
1.6515e-14
4.52117e-14
-3.73243e-14
-1.20372e-15
4.93976e-14
4.64153e-14
-5.8576e-16
3.45684e-14
2.92521e-14
-2.17963e-14
3.30037e-14
0
2.66542e-14
-2.51475e-14
-2.40875e-15
1.56613e-14
4.24865e-14
2.1701e-14
1.45054e-14
1.45054e-14
3.18472e-14
2.96429e-14
0
0
5.10066e-15
-2.10842e-14
0
5.11394e-14
1.92788e-14
-1.37871e-14
3.67033e-15
3.12046e-14
1.93932e-14
2.11597e-14
1.51211e-14
3.02422e-14
-4.90932e-14
1.30773e-14
3.79567e-15
3.79567e-15
3.19383e-15
2.09605e-14
-3.27588e-14
2.33931e-15
-3.48898e-14
2.22784e-14
-4.08966e-14
-2.72644e-14
3.20885e-14
5.16909e-14
-1.8363e-14
-5.92213e-16
0
6.54306e-14
-1.44379e-14
-2.88757e-14
2.4072e-14
5.41156e-14
-3.77114e-14
-1.94638e-14
-1.21621e-15
-1.21621e-15
0
1.30744e-15
-3.56175e-14
1.30744e-15
1.30744e-15
1.23053e-15
-2.19047e-15
3.06746e-14
-2.19047e-15
-3.50556e-14
-1.64326e-14
2.2281e-14
2.62073e-15
2.62073e-15
2.62073e-15
2.62073e-15
-2.70105e-14
0
0
0
0
3.26856e-14
-3.26856e-14
3.26856e-14
3.26856e-14
0
-4.38675e-15
-4.38675e-15
-4.38675e-15
-4.38675e-15
0
-3.02671e-14
0
0
0
0
-1.9553e-14
-1.9553e-14
1.39628e-15
1.39628e-15
2.09493e-14
0
1.56374e-14
0
0
0
-2.07614e-14
-6.69563e-16
-6.69563e-16
1.94222e-14
0
0
0
0
0
0
-2.61889e-14
-2.61889e-14
0
2.61889e-14
2.61889e-14
-2.39141e-14
0
0
0
0
7.44021e-16
7.44021e-16
-2.15821e-14
7.44021e-16
2.23261e-14
-2.38443e-14
2.38443e-14
0
-2.38443e-14
0
0
0
0
0
0
-6.68607e-16
-6.68607e-16
-6.68607e-16
-6.68607e-16
-5.94318e-16
0
-3.66155e-14
3.66155e-14
0
3.66155e-14
-3.47925e-14
2.65165e-15
4.00958e-14
2.65165e-15
-3.49485e-14
8.59089e-16
8.59089e-16
8.59089e-16
8.59089e-16
-2.5779e-14
6.63536e-14
2.4882e-14
4.14615e-15
-1.65897e-14
-1.52076e-14
-5.30428e-15
2.65292e-14
2.65292e-14
-3.71377e-14
-3.18334e-14
-2.2602e-14
-4.5204e-14
0
4.5204e-14
0
5.20637e-14
2.01873e-14
2.01873e-14
2.01873e-14
2.01873e-14
0.00257573
7.77443e-08
0.00264404
6.04072e-08
0.00261503
3.3727e-07
0.00254578
2.75767e-06
0.00265574
1.421e-05
0.00261072
1.71724e-05
0.00265147
2.50707e-05
0.002561
5.79229e-06
0.00262779
5.08433e-07
0.00306713
1.25444e-05
-4.28529e-08
1.58223e-05
1.58446e-05
7.72951e-08
1.5181e-08
2.27874e-08
1.73442e-08
4.92952e-09
0.00313752
1.30012e-05
-3.73953e-08
1.63995e-05
1.6419e-05
7.10381e-08
1.4162e-08
1.56321e-08
1.82541e-08
9.82603e-09
0.00274035
1.32184e-05
-3.87932e-09
1.66638e-05
1.66664e-05
3.47475e-07
7.83718e-09
7.83195e-09
8.59204e-09
4.93817e-09
0.00275329
1.36354e-05
9.03857e-08
1.72495e-05
1.7204e-05
2.87503e-06
1.23882e-07
1.32014e-07
1.43179e-07
7.36619e-08
0.00291776
1.48216e-05
6.13663e-07
1.87554e-05
1.84374e-05
1.45956e-05
4.98713e-07
5.23673e-07
5.47022e-07
2.80638e-07
0.00261977
6.75854e-06
8.59462e-07
6.12363e-06
5.68476e-06
1.78105e-05
8.9314e-07
9.50445e-07
1.01469e-06
5.32945e-07
0.0026711
1.09137e-05
1.21709e-06
1.25211e-05
1.19076e-05
2.59856e-05
1.25339e-06
1.32791e-06
1.4077e-06
7.35963e-07
0.00268026
4.03977e-06
2.15699e-07
2.15987e-06
2.0187e-06
6.04379e-06
3.71465e-07
3.98594e-07
4.2812e-07
2.21578e-07
0.00269524
3.05059e-06
-1.64773e-08
4.0727e-07
3.93182e-07
5.29704e-07
4.84386e-08
3.8816e-08
3.93619e-08
2.71929e-08
2.87011e-07
0.00905583
0.00919161
2.73002e-07
2.40098e-10
1.90925e-07
6.03934e-11
2.18357e-07
4.27807e-06
0.00847835
7.5941e-06
0.00853153
6.01061e-14
3.00745e-14
9.02196e-14
3.007e-14
3.01152e-14
0
0
6.08633e-14
-4.05712e-14
0
0
0
0
-6.90919e-14
2.90329e-14
-2.35303e-14
2.91058e-14
2.3475e-14
2.92079e-14
9.35346e-14
0
0
0
2.27062e-14
0
-3.00551e-14
0
0
-6.00958e-14
3.00925e-14
4.05773e-14
0
2.02162e-14
-4.06892e-14
-2.027e-14
2.02994e-14
7.88061e-14
3.87353e-14
3.87353e-14
-4.14061e-14
-4.00707e-14
4.2772e-14
-3.74267e-14
2.67264e-15
2.67264e-15
-4.00994e-14
7.48502e-14
-5.34504e-15
-5.34504e-15
-5.34504e-15
-8.01952e-14
4.00933e-14
-4.00933e-14
-4.00933e-14
0
0
3.74773e-14
-4.28298e-14
-4.28298e-14
-2.67625e-15
0
2.00057e-15
2.00057e-15
2.00057e-15
2.00057e-15
0
5.36137e-14
5.36137e-14
5.36137e-14
-4.50425e-16
-8.10962e-14
0
-5.41007e-14
0
0
0
5.22922e-14
2.52448e-14
-2.88502e-14
2.52448e-14
-2.70475e-14
-2.7045e-14
-5.409e-14
-2.7045e-14
2.7045e-14
8.1135e-14
-1.80542e-15
-5.59813e-14
-1.80542e-15
-2.88934e-14
8.12639e-14
2.74473e-14
5.44448e-14
4.49848e-16
-5.35451e-14
-2.69975e-14
-2.57585e-15
-2.57585e-15
-4.1223e-14
3.60713e-14
0
-2.93121e-14
3.34984e-14
2.09317e-15
2.09317e-15
0
3.87106e-14
0
0
0
0
3.13737e-14
9.4121e-14
0
0
-9.4121e-14
0
-3.88077e-14
0
3.88077e-14
3.88077e-14
6.26e-14
0
0
0
0
-6.48905e-16
-6.48905e-16
-6.48905e-16
-3.95927e-14
7.78876e-14
6.28759e-14
-6.18369e-14
5.1951e-16
3.16977e-14
0
1.68294e-16
1.68294e-16
1.68294e-16
1.68294e-16
0
3.68635e-14
3.68635e-14
-3.09701e-16
-3.09701e-16
0
0
0
0
-3.58823e-14
-3.58823e-14
9.08246e-14
3.02749e-14
0
3.02749e-14
-1.81649e-13
-6.68184e-16
-4.0769e-14
-6.68185e-16
-6.68185e-16
8.02017e-14
-4.00735e-14
4.00735e-14
4.00735e-14
-4.00735e-14
-4.00735e-14
-3.99639e-14
0
0
-3.99639e-14
3.99639e-14
-4.02105e-14
0
0
0
0
-1.33514e-15
-1.33514e-15
3.87288e-14
-4.1399e-14
8.01278e-14
4.07919e-14
6.68559e-16
4.07919e-14
6.68559e-16
-4.01233e-14
-8.11547e-14
-8.11547e-14
-2.70516e-14
2.70516e-14
8.11547e-14
-2.52315e-14
-2.52315e-14
1.80178e-15
2.8835e-14
2.70333e-14
-5.38967e-15
-3.23446e-14
-5.92995e-14
7.54751e-14
0
2.53182e-14
5.24443e-14
-1.80797e-15
-5.60602e-14
-2.71261e-14
2.52253e-14
5.2252e-14
-1.80134e-15
2.52253e-14
-1.08107e-13
-2.75168e-14
-8.16486e-14
-2.75168e-14
-4.50987e-16
5.41317e-14
6.01061e-14
-3.00745e-14
-3.00724e-14
-3.00681e-14
-3.01156e-14
-3.00162e-14
-4.05481e-14
0
-2.02853e-14
0
-4.06317e-14
-4.04963e-14
0
-4.86777e-14
0
-1.72571e-14
-2.91062e-14
-2.34744e-14
0
2.33842e-14
0
0
-2.691e-14
-4.60252e-14
0
3.00546e-14
-5.99437e-14
-3.01588e-14
3.00473e-14
3.00937e-14
-2.02889e-14
4.055e-14
2.02173e-14
-2.03443e-14
-2.02699e-14
0
4.00707e-14
0
8.01414e-14
-4.00707e-14
-4.00707e-14
3.74267e-14
-2.67264e-15
-4.2772e-14
-2.67264e-15
-4.00994e-14
0
0
-4.00966e-14
8.01932e-14
0
2.67207e-15
4.27629e-14
2.67207e-15
2.67207e-15
0
-3.8816e-14
4.14922e-14
1.33814e-15
1.33814e-15
4.01541e-14
4.00216e-14
4.00216e-14
4.00216e-14
-8.00432e-14
0
8.15466e-14
5.45146e-14
5.45146e-14
4.50425e-16
-8.10962e-14
3.60583e-15
3.60583e-15
-2.34445e-14
3.06562e-14
0
-1.8027e-15
5.22914e-14
-1.8027e-15
-5.58968e-14
5.40941e-14
0
5.40919e-14
2.7046e-14
-2.7046e-14
-5.40919e-14
0
5.41756e-14
0
-2.70878e-14
0
5.35451e-14
-4.49848e-16
-5.44448e-14
-4.49848e-16
0
-3.60713e-14
-3.60713e-14
2.57585e-15
2.57585e-15
7.72944e-14
-3.24518e-14
3.03587e-14
-1.04659e-15
-1.04659e-15
0
-3.35513e-14
-3.35513e-14
5.16028e-15
5.16028e-15
0
8.36427e-15
7.11116e-14
3.9738e-14
-2.30094e-14
-3.13737e-14
7.76164e-14
3.88082e-14
0
0
-7.76164e-14
0
0
0
3.12992e-14
0
4.54251e-15
4.54251e-15
4.54251e-15
4.54251e-15
0
5.19523e-16
-3.06595e-14
3.16985e-14
-3.06595e-14
6.2358e-14
5.21702e-15
-3.51826e-14
4.56167e-14
-3.51826e-14
0
-3.80967e-14
-3.80967e-14
-3.14772e-16
-3.14772e-16
7.55638e-14
0
3.588e-14
7.176e-14
-7.176e-14
-3.588e-14
-2.84923e-14
7.01313e-14
3.72567e-14
-2.84923e-14
-3.28745e-14
3.87645e-14
-1.33637e-15
-1.33637e-15
-1.33637e-15
-4.01009e-14
3.7402e-14
-2.67087e-15
7.74748e-14
-4.27437e-14
-4.00729e-14
-2.66351e-15
-2.66351e-15
-4.2626e-14
3.72989e-14
-3.99624e-14
0
4.02117e-14
0
0
-8.04234e-14
3.73929e-14
-2.67022e-15
-2.67022e-15
3.73929e-14
-4.00631e-14
7.82442e-14
3.81192e-14
-4.21307e-14
-2.00576e-15
-4.0125e-14
2.70519e-14
2.70519e-14
0
0
-5.41038e-14
-3.60357e-15
-5.76703e-14
-3.60357e-15
5.04631e-14
2.70334e-14
5.39127e-14
0
-1.07825e-13
5.39127e-14
0
-3.61587e-15
-3.61587e-15
-3.61587e-15
2.35098e-14
-2.71257e-14
-8.10795e-14
0
2.70265e-14
-2.70265e-14
2.70265e-14
4.50987e-16
4.50987e-16
-2.66149e-14
-2.66149e-14
5.41317e-14
2.88096e-14
-1.59031e-14
0
1.62042e-14
8.99376e-14
6.10407e-14
-3.2196e-14
-2.03754e-14
0
-5.41661e-14
7.87786e-14
9.59399e-14
0
0
0
-1.6001e-14
-4.06882e-14
-5.15592e-14
0
0
-3.01461e-14
2.5008e-14
4.34236e-14
0
3.63313e-15
2.83156e-14
9.28742e-14
2.11317e-14
4.22564e-14
2.30242e-14
0
3.55762e-14
-1.84206e-14
0
2.58044e-14
0
7.22754e-14
3.28515e-14
3.69915e-15
-4.42007e-14
-9.34542e-14
6.21152e-14
-4.24084e-14
0
-4.24084e-14
-4.24084e-14
8.48168e-14
-2.70243e-14
-5.59785e-14
1.92981e-15
5.98381e-14
2.89541e-14
-4.32111e-14
-4.32111e-14
0
4.32111e-14
8.64221e-14
8.41959e-14
7.65247e-15
7.65247e-15
-3.06192e-14
-3.82717e-14
8.13875e-14
0
0
0
-8.13876e-14
0
0
0
6.43919e-14
-2.1464e-14
2.30196e-14
3.71065e-15
-7.50864e-14
3.73343e-14
7.29055e-14
-1.30124e-15
-2.18688e-14
-4.93374e-14
-6.05675e-14
8.75555e-14
-5.13567e-14
-7.54305e-14
-3.20906e-15
4.49386e-14
2.40738e-14
-6.23207e-14
-7.51368e-14
-3.85215e-14
1.05235e-13
-3.56394e-14
-6.96438e-14
-1.33604e-13
-5.68394e-15
3.6956e-14
1.066e-13
-2.24647e-15
-3.59518e-14
-2.24647e-15
-2.24647e-15
-3.37053e-14
4.12876e-14
4.85632e-15
-3.1575e-14
4.85632e-15
0
-1.0679e-14
-1.0679e-14
2.9377e-14
-5.0735e-14
0
7.75546e-15
3.68456e-14
7.75546e-15
7.75546e-15
-8.72703e-14
1.53406e-15
1.45172e-13
2.41517e-14
-1.62975e-13
9.73547e-14
-6.87456e-14
0
0
-9.16608e-14
1.60406e-13
1.79578e-15
-2.51475e-14
1.79578e-15
-2.51475e-14
2.69433e-14
-2.45383e-15
3.43626e-14
-2.45383e-15
-2.45383e-15
-3.68165e-14
4.01948e-14
4.01948e-14
0
0
-4.01948e-14
2.6538e-14
-4.01501e-14
-6.80608e-15
-6.80608e-15
0
0
0
0
0
-8.68472e-14
2.88551e-14
-9.94753e-16
-9.94753e-16
-3.08446e-14
-5.96997e-14
4.36064e-14
-2.90739e-14
7.26625e-15
7.26625e-15
0
3.64959e-14
-1.25816e-15
-1.25816e-15
-1.25816e-15
0
5.28343e-14
-4.62315e-14
3.30139e-15
5.28343e-14
-4.95329e-14
2.81756e-14
0
0
-2.81756e-14
2.81756e-14
2.2493e-14
2.45e-14
6.21142e-15
-8.63826e-14
4.89867e-14
3.06989e-14
3.06989e-14
6.13978e-14
-6.13978e-14
-3.06989e-14
0
0
4.70788e-14
4.62683e-14
-4.16096e-14
-4.7435e-14
-7.11525e-14
0
4.7435e-14
2.37175e-14
0
0
0
0
0
0
0
3.13436e-14
0
-3.13436e-14
-3.44059e-14
-3.44059e-14
3.44059e-14
0
0
0
5.91953e-14
2.95976e-14
0
0
4.81836e-14
-2.40918e-14
0
-2.40918e-14
7.22754e-14
-4.47638e-14
4.47638e-14
2.23819e-14
1.1191e-13
4.47638e-14
1.67864e-14
-1.03541e-10
2.71404e-09
9.17998e-10
1.94531e-10
-1.56172e-10
-4.92831e-12
-1.53059e-11
3.91369e-13
-1.71203e-09
-5.36735e-05
-5.57013e-09
-7.32117e-05
-3.99954e-08
-3.18671e-09
-0.000236206
-5.97847e-13
-7.93019e-12
9.01176e-14
-2.95938e-14
-1.15573e-10
3.18201e-11
4.92403e-14
0
-1.89177e-09
-5.10869e-05
-6.1506e-09
-6.25031e-05
-4.05877e-08
-4.50004e-09
-0.00020944
5.21451e-14
-4.89715e-14
3.27289e-14
-6.54583e-14
-1.25077e-13
-1.69606e-13
3.57658e-14
3.6298e-14
-1.2967e-10
2.87897e-09
-2.36271e-10
-1.46596e-09
-9.70127e-10
-1.38899e-10
-2.11508e-08
2.17796e-14
-7.03428e-14
3.27295e-14
-3.27288e-14
-6.84531e-14
1.1531e-13
0
3.50608e-14
-2.64908e-14
-9.35489e-11
-5.22178e-14
-1.49122e-10
-1.01304e-13
-2.64722e-13
-4.43535e-10
-4.76629e-14
2.27054e-14
3.00904e-14
-3.00901e-14
-2.15981e-14
5.13357e-14
0
0
-1.83298e-14
-8.43298e-14
-8.64115e-14