/*--------------------------------*- C++ -*----------------------------------*\
| =========                 |                                                 |
| \\      /  F ield         | OpenFOAM: The Open Source CFD Toolbox           |
|  \\    /   O peration     | Version:  v2106                                 |
|   \\  /    A nd           | Website:  www.openfoam.com                      |
|    \\/     M anipulation  |                                                 |
\*---------------------------------------------------------------------------*/
FoamFile
{
    version     2.0;
    format      ascii;
    arch        "LSB;label=32;scalar=64";
    class       volVectorField;
    location    "72.5";
    object      flux;
}
// * * * * * * * * * * * * * * * * * * * * * * * * * * * * * * * * * * * * * //

dimensions      [0 1 -1 1 0 0 0];

internalField   nonuniform List<vector> 
4000
(
(-2.8389468e-07 -2.8389468e-07 0.72287309)
(-6.2377177e-07 -2.5170603e-07 0.72287099)
(-3.1410358e-07 -2.4424407e-07 0.72286998)
(-1.7018963e-07 -2.4134618e-07 0.72286938)
(-5.4394836e-08 -2.3964625e-07 0.7228691)
(4.6330628e-08 -2.3809026e-07 0.7228691)
(1.3228087e-07 -2.3597134e-07 0.72286935)
(1.9504327e-07 -2.3207615e-07 0.72286981)
(2.0833072e-07 -2.2330391e-07 0.7228704)
(6.5905769e-08 -2.0196474e-07 0.72287095)
(-2.5170603e-07 -6.2377176e-07 0.72287099)
(-5.6429586e-07 -5.6429586e-07 0.72286915)
(-2.9856382e-07 -5.4561889e-07 0.7228682)
(-1.6329291e-07 -5.3640057e-07 0.72286762)
(-4.9510954e-08 -5.3012039e-07 0.72286735)
(5.1842995e-08 -5.2418333e-07 0.72286736)
(1.4130204e-07 -5.1663863e-07 0.72286763)
(2.1404442e-07 -5.0456457e-07 0.72286812)
(2.5349782e-07 -4.8205127e-07 0.72286878)
(8.7244934e-08 -4.3842308e-07 0.72286954)
(-2.4424408e-07 -3.1410359e-07 0.72286998)
(-5.456189e-07 -2.9856382e-07 0.7228682)
(-2.862083e-07 -2.862083e-07 0.72286728)
(-1.5469114e-07 -2.769391e-07 0.72286673)
(-4.2177594e-08 -2.6918871e-07 0.72286648)
(5.9812396e-08 -2.6157231e-07 0.72286651)
(1.5189963e-07 -2.5277164e-07 0.7228668)
(2.2963063e-07 -2.413211e-07 0.72286732)
(2.744722e-07 -2.2603734e-07 0.72286803)
(9.4991224e-08 -2.0932945e-07 0.72286885)
(-2.4134618e-07 -1.7018964e-07 0.72286938)
(-5.3640057e-07 -1.6329291e-07 0.72286762)
(-2.769391e-07 -1.5469113e-07 0.72286673)
(-1.4627332e-07 -1.4627332e-07 0.7228662)
(-3.4144156e-08 -1.3824278e-07 0.72286597)
(6.8260066e-08 -1.3021306e-07 0.72286602)
(1.6155325e-07 -1.2164762e-07 0.72286634)
(2.4077872e-07 -1.1217882e-07 0.72286688)
(2.8548947e-07 -1.0224211e-07 0.72286763)
(9.8383532e-08 -9.4403116e-08 0.72286847)
(-2.3964626e-07 -5.4394827e-08 0.7228691)
(-5.3012039e-07 -4.9510942e-08 0.72286735)
(-2.6918871e-07 -4.2177584e-08 0.72286648)
(-1.3824279e-07 -3.4144162e-08 0.72286597)
(-2.6117329e-08 -2.6117329e-08 0.72286576)
(7.6407562e-08 -1.8183601e-08 0.72286584)
(1.6993387e-07 -1.0238635e-08 0.72286617)
(2.4903614e-07 -2.3705366e-09 0.72286674)
(2.9224791e-07 4.7196885e-09 0.72286751)
(1.0021722e-07 9.3618711e-09 0.72286837)
(-2.3809026e-07 4.6330628e-08 0.7228691)
(-5.2418333e-07 5.1842997e-08 0.72286736)
(-2.6157232e-07 5.981239e-08 0.72286651)
(-1.3021306e-07 6.8260068e-08 0.72286602)
(-1.8183595e-08 7.6407565e-08 0.72286584)
(8.4138759e-08 8.4138765e-08 0.72286593)
(1.7736632e-07 9.1515855e-08 0.72286629)
(2.5573705e-07 9.8420571e-08 0.72286688)
(2.9722188e-07 1.0426031e-07 0.72286766)
(1.0147832e-07 1.0783946e-07 0.72286853)
(-2.3597134e-07 1.3228088e-07 0.72286935)
(-5.1663863e-07 1.4130204e-07 0.72286763)
(-2.5277164e-07 1.5189963e-07 0.7228668)
(-1.2164762e-07 1.6155325e-07 0.72286634)
(-1.0238632e-08 1.6993387e-07 0.72286617)
(9.1515851e-08 1.7736632e-07 0.72286629)
(1.8421567e-07 1.8421569e-07 0.72286666)
(2.617806e-07 1.9061018e-07 0.72286727)
(3.016668e-07 1.9619137e-07 0.72286806)
(1.0260332e-07 1.9983123e-07 0.72286894)
(-2.3207615e-07 1.9504327e-07 0.72286981)
(-5.0456458e-07 2.1404444e-07 0.72286812)
(-2.413211e-07 2.2963064e-07 0.72286732)
(-1.1217882e-07 2.4077872e-07 0.72286688)
(-2.3705232e-09 2.4903614e-07 0.72286674)
(9.8420576e-08 2.5573705e-07 0.72286688)
(1.9061017e-07 2.617806e-07 0.72286727)
(2.6771273e-07 2.6771273e-07 0.72286789)
(3.0644294e-07 2.7359288e-07 0.7228687)
(1.039049e-07 2.7827342e-07 0.72286959)
(-2.233039e-07 2.0833071e-07 0.7228704)
(-4.8205126e-07 2.5349783e-07 0.72286878)
(-2.2603735e-07 2.744722e-07 0.72286803)
(-1.0224211e-07 2.8548948e-07 0.72286763)
(4.7196912e-09 2.922479e-07 0.72286751)
(1.0426031e-07 2.9722188e-07 0.72286766)
(1.9619136e-07 3.0166679e-07 0.72286806)
(2.7359287e-07 3.0644294e-07 0.7228687)
(3.1222748e-07 3.1222749e-07 0.72286953)
(1.0572368e-07 3.1856076e-07 0.72287043)
(-2.0196474e-07 6.5905769e-08 0.72287095)
(-4.3842308e-07 8.7244932e-08 0.72286954)
(-2.0932946e-07 9.4991222e-08 0.72286885)
(-9.4403118e-08 9.838353e-08 0.72286847)
(9.3618773e-09 1.0021722e-07 0.72286837)
(1.0783946e-07 1.0147832e-07 0.72286853)
(1.9983123e-07 1.0260332e-07 0.72286894)
(2.7827343e-07 1.039049e-07 0.72286959)
(3.1856076e-07 1.0572369e-07 0.72287043)
(1.0812708e-07 1.0812709e-07 0.72287136)
(-1.2470699e-06 -1.2470699e-06 1.0752984)
(-2.7951276e-06 -1.0902088e-06 1.0752958)
(-1.481089e-06 -1.0554378e-06 1.0752944)
(-8.1596938e-07 -1.0417333e-06 1.0752936)
(-2.5695713e-07 -1.0334772e-06 1.0752932)
(2.3714139e-07 -1.0258428e-06 1.0752932)
(6.6443662e-07 -1.0153801e-06 1.0752936)
(9.89156e-07 -9.958033e-07 1.0752943)
(1.1014796e-06 -9.4918898e-07 1.0752953)
(3.6137653e-07 -8.1493702e-07 1.0752964)
(-1.0902088e-06 -2.7951276e-06 1.0752958)
(-2.5076794e-06 -2.5076794e-06 1.0752935)
(-1.4083758e-06 -2.4204432e-06 1.0752922)
(-7.8302851e-07 -2.3764323e-06 1.0752914)
(-2.3312148e-07 -2.3458507e-06 1.075291)
(2.6428705e-07 -2.3167252e-06 1.0752911)
(7.0949592e-07 -2.2795494e-06 1.0752915)
(1.0884427e-06 -2.219411e-06 1.0752923)
(1.372779e-06 -2.1030349e-06 1.0752934)
(4.9562849e-07 -1.8458161e-06 1.0752948)
(-1.0554378e-06 -1.481089e-06 1.0752944)
(-2.4204432e-06 -1.4083758e-06 1.0752922)
(-1.3498419e-06 -1.3498419e-06 1.075291)
(-7.4137681e-07 -1.3049739e-06 1.0752902)
(-1.9725007e-07 -1.2670963e-06 1.0752899)
(3.0344269e-07 -1.2297244e-06 1.0752899)
(7.6175078e-07 -1.1864481e-06 1.0752904)
(1.1656705e-06 -1.1299995e-06 1.0752912)
(1.4750746e-06 -1.0543757e-06 1.0752924)
(5.3285572e-07 -9.7367985e-07 1.0752939)
(-1.0417333e-06 -8.1596938e-07 1.0752936)
(-2.3764323e-06 -7.8302852e-07 1.0752914)
(-1.3049739e-06 -7.4137681e-07 1.0752902)
(-7.0028289e-07 -7.0028289e-07 1.0752895)
(-1.578719e-07 -6.6093006e-07 1.0752892)
(3.4493528e-07 -6.2150525e-07 1.0752893)
(8.0922079e-07 -5.7940418e-07 1.0752897)
(1.220515e-06 -5.3283038e-07 1.0752906)
(1.5290987e-06 -4.8395245e-07 1.0752918)
(5.4942571e-07 -4.4558742e-07 1.0752934)
(-1.0334772e-06 -2.5695713e-07 1.0752932)
(-2.3458507e-06 -2.3312148e-07 1.075291)
(-1.2670963e-06 -1.9725007e-07 1.0752899)
(-6.6093006e-07 -1.5787191e-07 1.0752892)
(-1.1847244e-07 -1.1847244e-07 1.0752889)
(3.8496857e-07 -7.9490825e-08 1.075289)
(8.5042565e-07 -4.0421523e-08 1.0752895)
(1.2611222e-06 -1.7031433e-09 1.0752904)
(1.5623175e-06 3.3201413e-08 1.0752917)
(5.5843241e-07 5.604629e-08 1.0752932)
(-1.0258428e-06 2.371414e-07 1.0752932)
(-2.3167252e-06 2.6428707e-07 1.0752911)
(-1.2297244e-06 3.0344269e-07 1.0752899)
(-6.2150526e-07 3.4493527e-07 1.0752893)
(-7.9490823e-08 3.8496857e-07 1.075289)
(4.2298619e-07 4.2298619e-07 1.0752892)
(8.8700847e-07 4.5930789e-07 1.0752897)
(1.294138e-06 4.9336949e-07 1.0752906)
(1.5868481e-06 5.2226178e-07 1.0752919)
(5.6465563e-07 5.4003834e-07 1.0752935)
(-1.0153801e-06 6.6443663e-07 1.0752936)
(-2.2795494e-06 7.0949592e-07 1.0752915)
(-1.1864481e-06 7.6175078e-07 1.0752904)
(-5.7940418e-07 8.092208e-07 1.0752897)
(-4.042152e-08 8.5042565e-07 1.0752895)
(4.5930789e-07 8.8700847e-07 1.0752897)
(9.2080896e-07 9.2080896e-07 1.0752903)
(1.3240761e-06 9.5253565e-07 1.0752912)
(1.6089864e-06 9.805264e-07 1.0752925)
(5.7028345e-07 9.9913983e-07 1.0752941)
(-9.958033e-07 9.89156e-07 1.0752943)
(-2.2194111e-06 1.0884427e-06 1.0752923)
(-1.1299995e-06 1.1656705e-06 1.0752912)
(-5.3283038e-07 1.220515e-06 1.0752906)
(-1.7031529e-09 1.2611222e-06 1.0752904)
(4.933695e-07 1.294138e-06 1.0752906)
(9.5253565e-07 1.3240761e-06 1.0752912)
(1.3538554e-06 1.3538554e-06 1.0752922)
(1.6334523e-06 1.3842888e-06 1.0752935)
(5.7706459e-07 1.4101799e-06 1.0752951)
(-9.4918898e-07 1.1014796e-06 1.0752953)
(-2.1030349e-06 1.372779e-06 1.0752934)
(-1.0543757e-06 1.4750746e-06 1.0752924)
(-4.8395245e-07 1.5290986e-06 1.0752918)
(3.3201418e-08 1.5623175e-06 1.0752917)
(5.2226178e-07 1.5868481e-06 1.0752919)
(9.805264e-07 1.6089864e-06 1.0752925)
(1.3842888e-06 1.6334523e-06 1.0752935)
(1.6653108e-06 1.6653108e-06 1.0752949)
(5.8754418e-07 1.7077491e-06 1.0752965)
(-8.1493702e-07 3.6137654e-07 1.0752964)
(-1.8458161e-06 4.9562849e-07 1.0752948)
(-9.7367985e-07 5.3285573e-07 1.0752939)
(-4.4558743e-07 5.4942572e-07 1.0752934)
(5.6046285e-08 5.5843241e-07 1.0752932)
(5.4003834e-07 5.6465563e-07 1.0752935)
(9.9913984e-07 5.7028344e-07 1.0752941)
(1.4101799e-06 5.7706459e-07 1.0752951)
(1.7077491e-06 5.8754418e-07 1.0752965)
(6.0535678e-07 6.0535678e-07 1.0752983)
(-2.0250324e-06 -2.0250324e-06 1.0753387)
(-4.5988648e-06 -1.7705647e-06 1.0753365)
(-2.5156327e-06 -1.71324e-06 1.0753352)
(-1.394587e-06 -1.6898749e-06 1.0753345)
(-4.1657009e-07 -1.6753979e-06 1.0753342)
(4.6676753e-07 -1.6617971e-06 1.0753342)
(1.2506558e-06 -1.6429952e-06 1.0753347)
(1.8908616e-06 -1.6075175e-06 1.0753355)
(2.263106e-06 -1.5220909e-06 1.0753366)
(7.8655552e-07 -1.2728074e-06 1.0753379)
(-1.7705647e-06 -4.5988648e-06 1.0753365)
(-4.1311762e-06 -4.1311762e-06 1.0753345)
(-2.394598e-06 -3.9857811e-06 1.0753334)
(-1.3378239e-06 -3.9100235e-06 1.0753326)
(-3.744534e-07 -3.856183e-06 1.0753323)
(5.1537152e-07 -3.8042742e-06 1.0753324)
(1.3320753e-06 -3.7375783e-06 1.0753329)
(2.072218e-06 -3.6290717e-06 1.0753337)
(2.7651711e-06 -3.4175522e-06 1.0753349)
(1.0358391e-06 -2.9459075e-06 1.0753366)
(-1.71324e-06 -2.5156327e-06 1.0753352)
(-3.9857811e-06 -2.394598e-06 1.0753334)
(-2.29448e-06 -2.29448e-06 1.0753323)
(-1.2649889e-06 -2.2160884e-06 1.0753316)
(-3.1082075e-07 -2.1490192e-06 1.0753313)
(5.8537223e-07 -2.0823467e-06 1.0753314)
(1.4258583e-06 -2.0048328e-06 1.0753319)
(2.2108877e-06 -1.9035269e-06 1.0753328)
(2.9462701e-06 -1.7679709e-06 1.0753341)
(1.1009853e-06 -1.6263474e-06 1.0753358)
(-1.6898749e-06 -1.394587e-06 1.0753345)
(-3.9100235e-06 -1.3378239e-06 1.0753326)
(-2.2160884e-06 -1.2649889e-06 1.0753316)
(-1.1923631e-06 -1.1923631e-06 1.0753309)
(-2.4071176e-07 -1.1223425e-06 1.0753307)
(6.5955796e-07 -1.0519021e-06 1.0753308)
(1.5108951e-06 -9.76498e-07 1.0753313)
(2.3090799e-06 -8.9300171e-07 1.0753323)
(3.0423506e-06 -8.0549782e-07 1.0753336)
(1.1302548e-06 -7.374726e-07 1.0753354)
(-1.6753979e-06 -4.1657009e-07 1.0753342)
(-3.856183e-06 -3.744534e-07 1.0753323)
(-2.1490192e-06 -3.1082075e-07 1.0753313)
(-1.1223425e-06 -2.4071176e-07 1.0753307)
(-1.7035974e-07 -1.7035974e-07 1.0753304)
(7.3121675e-07 -1.0058583e-07 1.0753306)
(1.5847587e-06 -3.0511634e-08 1.0753312)
(2.3818879e-06 3.904578e-08 1.0753321)
(3.1017993e-06 1.0179594e-07 1.0753335)
(1.1463354e-06 1.4279229e-07 1.0753353)
(-1.6617971e-06 4.6676753e-07 1.0753342)
(-3.8042741e-06 5.1537154e-07 1.0753324)
(-2.0823467e-06 5.8537223e-07 1.0753314)
(-1.0519021e-06 6.5955795e-07 1.0753308)
(-1.0058583e-07 7.3121674e-07 1.0753306)
(7.9940607e-07 7.9940606e-07 1.0753308)
(1.6505267e-06 8.6475574e-07 1.0753314)
(2.4413874e-06 9.2632177e-07 1.0753324)
(3.1460971e-06 9.788968e-07 1.0753338)
(1.1575856e-06 1.01153e-06 1.0753356)
(-1.6429952e-06 1.2506559e-06 1.0753347)
(-3.7375783e-06 1.3320753e-06 1.0753329)
(-2.0048328e-06 1.4258583e-06 1.0753319)
(-9.7649802e-07 1.5108951e-06 1.0753313)
(-3.0511626e-08 1.5847587e-06 1.0753312)
(8.6475575e-07 1.6505267e-06 1.0753314)
(1.7116744e-06 1.7116744e-06 1.075332)
(2.496029e-06 1.7697878e-06 1.0753331)
(3.1870074e-06 1.8222921e-06 1.0753345)
(1.1680909e-06 1.8587396e-06 1.0753363)
(-1.6075175e-06 1.8908616e-06 1.0753355)
(-3.6290717e-06 2.072218e-06 1.0753337)
(-1.9035269e-06 2.2108877e-06 1.0753328)
(-8.9300172e-07 2.3090799e-06 1.0753323)
(3.9045771e-08 2.3818879e-06 1.0753321)
(9.2632179e-07 2.4413874e-06 1.0753324)
(1.7697878e-06 2.496029e-06 1.0753331)
(2.5520051e-06 2.5520051e-06 1.0753341)
(3.2350489e-06 2.6130035e-06 1.0753355)
(1.181884e-06 2.6723596e-06 1.0753374)
(-1.5220909e-06 2.263106e-06 1.0753366)
(-3.4175522e-06 2.7651711e-06 1.0753349)
(-1.7679709e-06 2.9462702e-06 1.0753341)
(-8.0549783e-07 3.0423506e-06 1.0753336)
(1.0179595e-07 3.1017993e-06 1.0753335)
(9.788968e-07 3.1460971e-06 1.0753338)
(1.8222921e-06 3.1870074e-06 1.0753345)
(2.6130035e-06 3.2350489e-06 1.0753355)
(3.307362e-06 3.3073619e-06 1.075337)
(1.2076616e-06 3.443416e-06 1.0753389)
(-1.2728074e-06 7.8655553e-07 1.0753379)
(-2.9459075e-06 1.0358391e-06 1.0753366)
(-1.6263474e-06 1.1009853e-06 1.0753358)
(-7.374726e-07 1.1302548e-06 1.0753354)
(1.427923e-07 1.1463354e-06 1.0753353)
(1.01153e-06 1.1575857e-06 1.0753356)
(1.8587396e-06 1.1680909e-06 1.0753363)
(2.6723596e-06 1.181884e-06 1.0753374)
(3.443416e-06 1.2076616e-06 1.0753389)
(1.2725867e-06 1.2725867e-06 1.075341)
(-2.7294041e-06 -2.7294041e-06 1.0754032)
(-6.2235946e-06 -2.386902e-06 1.0754011)
(-3.4365647e-06 -2.3094647e-06 1.0754)
(-1.8972389e-06 -2.2772767e-06 1.0753994)
(-5.2077227e-07 -2.2569099e-06 1.0753991)
(7.4510988e-07 -2.2374938e-06 1.0753992)
(1.8921419e-06 -2.2104304e-06 1.0753997)
(2.8681587e-06 -2.1590676e-06 1.0754005)
(3.5208984e-06 -2.034711e-06 1.0754017)
(1.2461081e-06 -1.6698917e-06 1.0754031)
(-2.386902e-06 -6.2235946e-06 1.0754011)
(-5.5936854e-06 -5.5936854e-06 1.0753993)
(-3.2721268e-06 -5.3960782e-06 1.0753983)
(-1.8184067e-06 -5.2910273e-06 1.0753977)
(-4.6109782e-07 -5.2150338e-06 1.0753974)
(8.1482913e-07 -5.1409067e-06 1.0753975)
(2.0097811e-06 -5.0450351e-06 1.075398)
(3.1317378e-06 -4.8883943e-06 1.0753989)
(4.2546623e-06 -4.5818828e-06 1.0754002)
(1.6109275e-06 -3.8958801e-06 1.0754019)
(-2.3094647e-06 -3.4365647e-06 1.0754)
(-5.3960782e-06 -3.2721268e-06 1.0753983)
(-3.1339065e-06 -3.1339065e-06 1.0753973)
(-1.7161945e-06 -3.024004e-06 1.0753967)
(-3.7065171e-07 -2.9288636e-06 1.0753965)
(9.1510854e-07 -2.8335604e-06 1.0753966)
(2.1446543e-06 -2.7222819e-06 1.0753972)
(3.331311e-06 -2.5765605e-06 1.0753981)
(4.5134126e-06 -2.381702e-06 1.0753995)
(1.7034433e-06 -2.1804232e-06 1.0754013)
(-2.2772767e-06 -1.8972389e-06 1.0753994)
(-5.2910273e-06 -1.8184067e-06 1.0753977)
(-3.024004e-06 -1.7161945e-06 1.0753967)
(-1.6133638e-06 -1.6133638e-06 1.0753961)
(-2.7065426e-07 -1.5135625e-06 1.0753959)
(1.0214108e-06 -1.4127039e-06 1.0753961)
(2.266781e-06 -1.3044324e-06 1.0753967)
(3.4723176e-06 -1.1843941e-06 1.0753977)
(4.6507997e-06 -1.0587087e-06 1.0753991)
(1.7451134e-06 -9.6162177e-07 1.0754009)
(-2.2569099e-06 -5.2077227e-07 1.0753991)
(-5.2150338e-06 -4.6109781e-07 1.0753974)
(-2.9288636e-06 -3.7065171e-07 1.0753965)
(-1.5135625e-06 -2.7065427e-07 1.0753959)
(-1.6999183e-07 -1.6999184e-07 1.0753958)
(1.1242386e-06 -6.987226e-08 1.075396)
(2.3729641e-06 3.0927059e-08 1.0753966)
(3.5770347e-06 1.3117423e-07 1.0753976)
(4.736185e-06 2.2169079e-07 1.075399)
(1.768168e-06 2.8075034e-07 1.0754009)
(-2.2374937e-06 7.4510987e-07 1.0753992)
(-5.1409067e-06 8.1482914e-07 1.0753975)
(-2.8335605e-06 9.1510854e-07 1.0753966)
(-1.4127039e-06 1.0214108e-06 1.0753961)
(-6.9872247e-08 1.1242386e-06 1.075396)
(1.2223297e-06 1.2223297e-06 1.0753962)
(2.4678275e-06 1.316672e-06 1.0753969)
(3.6630814e-06 1.4059805e-06 1.0753979)
(4.8003758e-06 1.4827168e-06 1.0753993)
(1.7844864e-06 1.5306735e-06 1.0754012)
(-2.2104304e-06 1.8921419e-06 1.0753997)
(-5.0450351e-06 2.0097811e-06 1.075398)
(-2.7222819e-06 2.1446543e-06 1.0753972)
(-1.3044324e-06 2.266781e-06 1.0753967)
(3.0927055e-08 2.3729641e-06 1.0753966)
(1.316672e-06 2.4678275e-06 1.0753969)
(2.5566149e-06 2.5566149e-06 1.0753975)
(3.7430795e-06 2.6419742e-06 1.0753986)
(4.8608779e-06 2.720517e-06 1.0754001)
(1.8001391e-06 2.7764577e-06 1.075402)
(-2.1590676e-06 2.8681587e-06 1.0754005)
(-4.8883943e-06 3.1317378e-06 1.0753989)
(-2.5765605e-06 3.331311e-06 1.0753981)
(-1.1843941e-06 3.4723176e-06 1.0753977)
(1.3117423e-07 3.5770347e-06 1.0753976)
(1.4059805e-06 3.6630814e-06 1.0753979)
(2.6419742e-06 3.7430795e-06 1.0753986)
(3.8269834e-06 3.8269834e-06 1.0753997)
(4.9348593e-06 3.9219933e-06 1.0754012)
(1.8217802e-06 4.0193807e-06 1.0754031)
(-2.034711e-06 3.5208984e-06 1.0754017)
(-4.5818829e-06 4.2546623e-06 1.0754002)
(-2.3817021e-06 4.5134126e-06 1.0753995)
(-1.0587087e-06 4.6507997e-06 1.0753991)
(2.216908e-07 4.736185e-06 1.075399)
(1.4827168e-06 4.8003758e-06 1.0753993)
(2.720517e-06 4.8608779e-06 1.0754001)
(3.9219933e-06 4.9348593e-06 1.0754012)
(5.0532752e-06 5.0532752e-06 1.0754027)
(1.865064e-06 5.291997e-06 1.0754047)
(-1.6698917e-06 1.2461081e-06 1.0754031)
(-3.8958801e-06 1.6109275e-06 1.0754019)
(-2.1804232e-06 1.7034433e-06 1.0754013)
(-9.6162177e-07 1.7451134e-06 1.0754009)
(2.8075033e-07 1.768168e-06 1.0754009)
(1.5306735e-06 1.7844864e-06 1.0754012)
(2.7764577e-06 1.8001391e-06 1.075402)
(4.0193807e-06 1.8217802e-06 1.0754031)
(5.291997e-06 1.865064e-06 1.0754047)
(1.9809281e-06 1.9809281e-06 1.0754068)
(-3.3948293e-06 -3.3948293e-06 1.0754909)
(-7.740415e-06 -2.9675958e-06 1.0754889)
(-4.2686092e-06 -2.8712174e-06 1.0754879)
(-2.3302301e-06 -2.8307456e-06 1.0754873)
(-5.7057973e-07 -2.8047633e-06 1.0754871)
(1.068888e-06 -2.7797016e-06 1.0754873)
(2.5761709e-06 -2.7445292e-06 1.0754878)
(3.888188e-06 -2.6775089e-06 1.0754887)
(4.8147526e-06 -2.5147616e-06 1.0754899)
(1.7153733e-06 -2.0361688e-06 1.0754913)
(-2.9675958e-06 -7.740415e-06 1.0754889)
(-6.9549973e-06 -6.9549973e-06 1.0754872)
(-4.0633339e-06 -6.7083553e-06 1.0754863)
(-2.2305489e-06 -6.5757289e-06 1.0754857)
(-4.9401364e-07 -6.4785591e-06 1.0754855)
(1.1592392e-06 -6.3828605e-06 1.0754857)
(2.7294599e-06 -6.2583888e-06 1.0754862)
(4.2328393e-06 -6.0543727e-06 1.0754872)
(5.7767627e-06 -5.6543041e-06 1.0754885)
(2.1939662e-06 -4.7574358e-06 1.0754902)
(-2.8712174e-06 -4.2686092e-06 1.0754879)
(-6.7083553e-06 -4.0633339e-06 1.0754863)
(-3.8893408e-06 -3.8893407e-06 1.0754854)
(-2.1004339e-06 -3.7495627e-06 1.0754848)
(-3.7771137e-07 -3.6274482e-06 1.0754847)
(1.2890584e-06 -3.504312e-06 1.0754849)
(2.9046587e-06 -3.359968e-06 1.0754854)
(4.4922727e-06 -3.1706133e-06 1.0754864)
(6.1116895e-06 -2.9174971e-06 1.0754878)
(2.3132856e-06 -2.6578233e-06 1.0754896)
(-2.8307456e-06 -2.33023e-06 1.0754873)
(-6.5757289e-06 -2.2305489e-06 1.0754857)
(-3.7495627e-06 -2.1004339e-06 1.0754848)
(-1.9686564e-06 -1.9686563e-06 1.0754843)
(-2.4876296e-07 -1.8400461e-06 1.0754842)
(1.4267194e-06 -1.7095273e-06 1.0754844)
(3.0631586e-06 -1.569032e-06 1.075485)
(4.6753102e-06 -1.4130734e-06 1.075486)
(6.2895527e-06 -1.2498625e-06 1.0754874)
(2.3670821e-06 -1.1243093e-06 1.0754893)
(-2.8047633e-06 -5.7057973e-07 1.0754871)
(-6.4785591e-06 -4.9401364e-07 1.0754855)
(-3.6274482e-06 -3.7771138e-07 1.0754847)
(-1.8400461e-06 -2.4876296e-07 1.0754842)
(-1.1858232e-07 -1.1858231e-07 1.0754841)
(1.5600725e-06 1.1254761e-08 1.0754843)
(3.2011126e-06 1.4229251e-07 1.075485)
(4.8114422e-06 2.728511e-07 1.075486)
(6.4004536e-06 3.9083474e-07 1.0754874)
(2.3969877e-06 4.6774275e-07 1.0754893)
(-2.7797016e-06 1.068888e-06 1.0754873)
(-6.3828605e-06 1.1592392e-06 1.0754857)
(-3.504312e-06 1.2890583e-06 1.0754849)
(-1.7095273e-06 1.4267194e-06 1.0754844)
(1.1254759e-08 1.5600725e-06 1.0754843)
(1.6875943e-06 1.6875943e-06 1.0754846)
(3.3247549e-06 1.810656e-06 1.0754853)
(4.9238524e-06 1.9276367e-06 1.0754864)
(6.4844444e-06 2.0286231e-06 1.0754878)
(2.4183541e-06 2.0920174e-06 1.0754897)
(-2.7445292e-06 2.5761709e-06 1.0754878)
(-6.2583888e-06 2.7294599e-06 1.0754862)
(-3.359968e-06 2.9046587e-06 1.0754854)
(-1.569032e-06 3.0631586e-06 1.075485)
(1.4229251e-07 3.2011126e-06 1.075485)
(1.810656e-06 3.3247549e-06 1.0754853)
(3.4411551e-06 3.4411551e-06 1.075486)
(5.0294093e-06 3.5540707e-06 1.0754871)
(6.5648343e-06 3.6592461e-06 1.0754886)
(2.4392506e-06 3.7352223e-06 1.0754905)
(-2.6775089e-06 3.888188e-06 1.0754887)
(-6.0543727e-06 4.2328393e-06 1.0754872)
(-3.1706133e-06 4.4922727e-06 1.0754864)
(-1.4130734e-06 4.6753102e-06 1.075486)
(2.7285111e-07 4.8114422e-06 1.075486)
(1.9276367e-06 4.9238524e-06 1.0754864)
(3.5540707e-06 5.0294093e-06 1.0754871)
(5.1419435e-06 5.1419435e-06 1.0754882)
(6.665596e-06 5.2721356e-06 1.0754897)
(2.4690049e-06 5.4085259e-06 1.0754917)
(-2.5147616e-06 4.8147526e-06 1.0754899)
(-5.6543041e-06 5.7767627e-06 1.0754885)
(-2.9174971e-06 6.1116895e-06 1.0754878)
(-1.2498625e-06 6.2895527e-06 1.0754874)
(3.9083476e-07 6.4004536e-06 1.0754874)
(2.0286231e-06 6.4844444e-06 1.0754878)
(3.6592461e-06 6.5648343e-06 1.0754886)
(5.2721355e-06 6.665596e-06 1.0754897)
(6.8314167e-06 6.8314167e-06 1.0754913)
(2.5301775e-06 7.172613e-06 1.0754933)
(-2.0361688e-06 1.7153733e-06 1.0754913)
(-4.7574358e-06 2.1939662e-06 1.0754902)
(-2.6578233e-06 2.3132856e-06 1.0754896)
(-1.1243093e-06 2.3670821e-06 1.0754893)
(4.6774276e-07 2.3969877e-06 1.0754893)
(2.0920174e-06 2.4183541e-06 1.0754897)
(3.7352223e-06 2.4392506e-06 1.0754905)
(5.4085259e-06 2.4690049e-06 1.0754917)
(7.172613e-06 2.5301775e-06 1.0754933)
(2.6964691e-06 2.6964691e-06 1.0754954)
(-4.0286972e-06 -4.0286972e-06 1.0756009)
(-9.1705462e-06 -3.5194017e-06 1.075599)
(-5.0277439e-06 -3.4048987e-06 1.0755981)
(-2.7029052e-06 -3.3565447e-06 1.0755976)
(-5.7299899e-07 -3.3251873e-06 1.0755974)
(1.4289596e-06 -3.2946665e-06 1.0755976)
(3.2872589e-06 -3.2516011e-06 1.0755982)
(4.9258563e-06 -3.1693072e-06 1.075599)
(6.1126682e-06 -2.9691147e-06 1.0756002)
(2.1831829e-06 -2.3796353e-06 1.0756016)
(-3.5194017e-06 -9.1705462e-06 1.075599)
(-8.2348485e-06 -8.2348485e-06 1.0755974)
(-4.7834584e-06 -7.941426e-06 1.0755965)
(-2.5833381e-06 -7.7825611e-06 1.075596)
(-4.8018177e-07 -7.6651046e-06 1.0755959)
(1.5393389e-06 -7.548551e-06 1.0755961)
(3.4752979e-06 -7.3962598e-06 1.0755967)
(5.3495858e-06 -7.1460553e-06 1.0755976)
(7.297176e-06 -6.6547695e-06 1.0755989)
(2.7726623e-06 -5.552478e-06 1.0756006)
(-3.4048987e-06 -5.0277439e-06 1.0755981)
(-7.941426e-06 -4.7834584e-06 1.0755965)
(-4.5754565e-06 -4.5754565e-06 1.0755957)
(-2.4265838e-06 -4.4071899e-06 1.0755952)
(-3.3898892e-07 -4.2591708e-06 1.0755951)
(1.6978044e-06 -4.1091068e-06 1.0755953)
(3.6897546e-06 -3.9326113e-06 1.0755959)
(5.6673466e-06 -3.7007391e-06 1.0755969)
(7.7062456e-06 -3.3908583e-06 1.0755983)
(2.918044e-06 -3.0743998e-06 1.0756001)
(-3.3565447e-06 -2.7029052e-06 1.0755976)
(-7.7825611e-06 -2.5833381e-06 1.075596)
(-4.4071899e-06 -2.4265838e-06 1.0755952)
(-2.2670525e-06 -2.2670525e-06 1.0755948)
(-1.8209872e-07 -2.1106632e-06 1.0755947)
(1.8658985e-06 -1.9513864e-06 1.0755949)
(3.8836656e-06 -1.7795214e-06 1.0755956)
(5.8913388e-06 -1.5885262e-06 1.0755966)
(7.9235154e-06 -1.3887129e-06 1.075598)
(2.9836347e-06 -1.2354429e-06 1.0755998)
(-3.3251873e-06 -5.72999e-07 1.0755974)
(-7.6651046e-06 -4.8018177e-07 1.0755959)
(-4.2591708e-06 -3.3898893e-07 1.0755951)
(-2.1106632e-06 -1.8209871e-07 1.0755947)
(-2.3322761e-08 -2.3322734e-08 1.0755946)
(2.0289463e-06 1.3542327e-07 1.0755949)
(4.0526148e-06 2.9598743e-07 1.0755956)
(6.058155e-06 4.5621923e-07 1.0755966)
(8.0593289e-06 6.0111701e-07 1.0755981)
(3.020224e-06 6.9549806e-07 1.0755999)
(-3.2946665e-06 1.4289596e-06 1.0755976)
(-7.548551e-06 1.5393389e-06 1.0755961)
(-4.1091068e-06 1.6978044e-06 1.0755953)
(-1.9513863e-06 1.8658984e-06 1.0755949)
(1.3542326e-07 2.0289463e-06 1.0755949)
(2.1852086e-06 2.1852086e-06 1.0755952)
(4.2044615e-06 2.3364458e-06 1.0755959)
(6.1964684e-06 2.480692e-06 1.075597)
(8.1627942e-06 2.6056459e-06 1.0755985)
(3.0465554e-06 2.6843112e-06 1.0756003)
(-3.2516011e-06 3.2872589e-06 1.0755982)
(-7.3962598e-06 3.4752979e-06 1.0755967)
(-3.9326113e-06 3.6897546e-06 1.0755959)
(-1.7795213e-06 3.8836656e-06 1.0755956)
(2.9598744e-07 4.0526147e-06 1.0755956)
(2.3364457e-06 4.2044616e-06 1.0755959)
(4.3480981e-06 4.3480981e-06 1.0755966)
(6.3273552e-06 4.4883736e-06 1.0755977)
(8.2629482e-06 4.620106e-06 1.0755992)
(3.0726675e-06 4.7160618e-06 1.0756011)
(-3.1693072e-06 4.9258563e-06 1.075599)
(-7.1460553e-06 5.3495858e-06 1.0755976)
(-3.7007391e-06 5.6673466e-06 1.0755969)
(-1.5885262e-06 5.8913388e-06 1.0755966)
(4.5621924e-07 6.058155e-06 1.0755966)
(2.480692e-06 6.1964684e-06 1.075597)
(4.4883736e-06 6.3273552e-06 1.0755977)
(6.4684762e-06 6.4684763e-06 1.0755989)
(8.3904824e-06 6.6338497e-06 1.0756004)
(3.110526e-06 6.8090241e-06 1.0756023)
(-2.9691147e-06 6.1126682e-06 1.0756002)
(-6.6547695e-06 7.297176e-06 1.0755989)
(-3.3908583e-06 7.7062456e-06 1.0755983)
(-1.3887129e-06 7.9235154e-06 1.075598)
(6.0111701e-07 8.0593289e-06 1.0755981)
(2.6056459e-06 8.1627942e-06 1.0755985)
(4.620106e-06 8.2629481e-06 1.0755992)
(6.6338497e-06 8.3904825e-06 1.0756004)
(8.603496e-06 8.6034961e-06 1.0756019)
(3.1894505e-06 9.0457343e-06 1.0756039)
(-2.3796353e-06 2.1831829e-06 1.0756016)
(-5.552478e-06 2.7726623e-06 1.0756006)
(-3.0743998e-06 2.918044e-06 1.0756001)
(-1.2354429e-06 2.9836347e-06 1.0755998)
(6.9549805e-07 3.020224e-06 1.0755999)
(2.6843112e-06 3.0465554e-06 1.0756003)
(4.7160618e-06 3.0726675e-06 1.0756011)
(6.8090241e-06 3.110526e-06 1.0756023)
(9.0457343e-06 3.1894505e-06 1.0756039)
(3.4053515e-06 3.4053515e-06 1.075606)
(-4.6314264e-06 -4.6314263e-06 1.0757323)
(-1.0519215e-05 -4.0430651e-06 1.0757305)
(-5.7228956e-06 -3.9112125e-06 1.0757297)
(-3.0235761e-06 -3.8553415e-06 1.0757292)
(-5.3653547e-07 -3.8188436e-06 1.0757291)
(1.8147027e-06 -3.7830719e-06 1.0757293)
(4.0108549e-06 -3.7323841e-06 1.0757299)
(5.9621419e-06 -3.6353216e-06 1.0757307)
(7.3939547e-06 -3.3989215e-06 1.0757319)
(2.6427904e-06 -2.7022366e-06 1.0757333)
(-4.0430652e-06 -1.0519215e-05 1.0757305)
(-9.4388939e-06 -9.4388939e-06 1.075729)
(-5.4413102e-06 -9.1007772e-06 1.0757282)
(-2.8850227e-06 -8.9168994e-06 1.0757277)
(-4.2813101e-07 -8.780038e-06 1.0757276)
(1.9443919e-06 -8.6434289e-06 1.0757279)
(4.2324803e-06 -8.4642833e-06 1.0757285)
(6.4623358e-06 -8.169431e-06 1.0757294)
(8.793582e-06 -7.5899673e-06 1.0757307)
(3.3394752e-06 -6.2891565e-06 1.0757323)
(-3.9112125e-06 -5.7228956e-06 1.0757297)
(-9.1007772e-06 -5.4413102e-06 1.0757282)
(-5.2009011e-06 -5.2009011e-06 1.0757274)
(-2.7028369e-06 -5.0054584e-06 1.075727)
(-2.6306501e-07 -4.832632e-06 1.0757269)
(2.1304574e-06 -4.6566622e-06 1.0757272)
(4.4848528e-06 -4.449134e-06 1.0757278)
(6.8364579e-06 -4.176169e-06 1.0757288)
(9.2742291e-06 -3.8114329e-06 1.0757301)
(3.5099976e-06 -3.4401862e-06 1.0757319)
(-3.8553415e-06 -3.0235761e-06 1.0757292)
(-8.9168994e-06 -2.8850227e-06 1.0757277)
(-5.0054584e-06 -2.7028369e-06 1.075727)
(-2.5167536e-06 -2.5167537e-06 1.0757266)
(-7.9334794e-08 -2.3336968e-06 1.0757265)
(2.3278899e-06 -2.1467116e-06 1.0757268)
(4.7129735e-06 -1.9445384e-06 1.0757275)
(7.1000368e-06 -1.719648e-06 1.0757285)
(9.5295648e-06 -1.4844272e-06 1.0757299)
(3.5869731e-06 -1.3043804e-06 1.0757316)
(-3.8188436e-06 -5.3653549e-07 1.0757291)
(-8.780038e-06 -4.28131e-07 1.0757276)
(-4.832632e-06 -2.6306502e-07 1.0757269)
(-2.3336968e-06 -7.9334802e-08 1.0757265)
(1.0697709e-07 1.069771e-07 1.0757265)
(2.5196158e-06 2.9364319e-07 1.0757268)
(4.9119163e-06 4.8279954e-07 1.0757275)
(7.2965691e-06 6.7181487e-07 1.0757285)
(9.6894968e-06 8.4283286e-07 1.0757299)
(3.6300288e-06 9.5415703e-07 1.0757317)
(-3.7830719e-06 1.8147026e-06 1.0757293)
(-8.6434289e-06 1.9443919e-06 1.0757279)
(-4.6566622e-06 2.1304574e-06 1.0757272)
(-2.1467115e-06 2.3278899e-06 1.0757268)
(2.936432e-07 2.5196158e-06 1.0757268)
(2.7037123e-06 2.7037123e-06 1.0757272)
(5.0911452e-06 2.8823231e-06 1.0757279)
(7.4600702e-06 3.0531311e-06 1.0757289)
(9.811907e-06 3.2014724e-06 1.0757304)
(3.6611892e-06 3.2950404e-06 1.0757322)
(-3.7323841e-06 4.0108549e-06 1.0757299)
(-8.4642833e-06 4.2324803e-06 1.0757285)
(-4.449134e-06 4.4848528e-06 1.0757278)
(-1.9445384e-06 4.7129735e-06 1.0757275)
(4.8279954e-07 4.9119163e-06 1.0757275)
(2.8823231e-06 5.0911452e-06 1.0757279)
(5.2613351e-06 5.2613351e-06 1.0757286)
(7.6157185e-06 5.4283861e-06 1.0757297)
(9.9314061e-06 5.5861635e-06 1.0757311)
(3.6924075e-06 5.7017109e-06 1.075733)
(-3.6353216e-06 5.9621419e-06 1.0757307)
(-8.169431e-06 6.4623358e-06 1.0757294)
(-4.1761689e-06 6.8364579e-06 1.0757288)
(-1.719648e-06 7.1000368e-06 1.0757285)
(6.7181486e-07 7.2965691e-06 1.0757285)
(3.0531311e-06 7.4600702e-06 1.0757289)
(5.4283861e-06 7.6157185e-06 1.0757297)
(7.7848986e-06 7.7848986e-06 1.0757308)
(1.0085232e-05 7.9848292e-06 1.0757323)
(3.7382208e-06 8.1980198e-06 1.0757341)
(-3.3989215e-06 7.3939547e-06 1.0757319)
(-7.5899673e-06 8.793582e-06 1.0757307)
(-3.8114329e-06 9.2742291e-06 1.0757301)
(-1.4844272e-06 9.5295648e-06 1.0757299)
(8.4283286e-07 9.6894968e-06 1.0757299)
(3.2014724e-06 9.811907e-06 1.0757304)
(5.5861635e-06 9.9314061e-06 1.0757311)
(7.9848292e-06 1.0085232e-05 1.0757323)
(1.0344527e-05 1.0344527e-05 1.0757338)
(3.8345345e-06 1.0885577e-05 1.0757357)
(-2.7022366e-06 2.6427904e-06 1.0757333)
(-6.2891565e-06 3.3394752e-06 1.0757323)
(-3.4401862e-06 3.5099976e-06 1.0757319)
(-1.3043804e-06 3.5869731e-06 1.0757316)
(9.5415704e-07 3.6300288e-06 1.0757317)
(3.2950404e-06 3.6611892e-06 1.0757322)
(5.7017109e-06 3.6924075e-06 1.075733)
(8.1980198e-06 3.7382208e-06 1.0757341)
(1.0885577e-05 3.8345345e-06 1.0757357)
(4.0989206e-06 4.0989206e-06 1.0757378)
(-5.2012447e-06 -5.2012447e-06 1.075884)
(-1.1785468e-05 -4.5372953e-06 1.0758824)
(-6.3586413e-06 -4.3889271e-06 1.0758816)
(-3.2986765e-06 -4.3259151e-06 1.0758812)
(-4.6919065e-07 -4.2845236e-06 1.0758811)
(2.2160088e-06 -4.2437345e-06 1.0758813)
(4.7342394e-06 -4.1857449e-06 1.0758819)
(6.9820351e-06 -4.0745231e-06 1.0758827)
(8.6432977e-06 -3.8034037e-06 1.0758839)
(3.0892927e-06 -3.003912e-06 1.0758852)
(-4.5372953e-06 -1.1785468e-05 1.0758824)
(-1.0566991e-05 -1.0566991e-05 1.0758809)
(-6.0415712e-06 -1.0186379e-05 1.0758802)
(-3.1420713e-06 -9.9787441e-06 1.0758798)