/*--------------------------------*- C++ -*----------------------------------*\
| =========                 |                                                 |
| \\      /  F ield         | OpenFOAM: The Open Source CFD Toolbox           |
|  \\    /   O peration     | Version:  v2106                                 |
|   \\  /    A nd           | Website:  www.openfoam.com                      |
|    \\/     M anipulation  |                                                 |
\*---------------------------------------------------------------------------*/
FoamFile
{
    version     2.0;
    format      ascii;
    arch        "LSB;label=32;scalar=64";
    class       volVectorField;
    location    "72.5";
    object      gradT;
}
// * * * * * * * * * * * * * * * * * * * * * * * * * * * * * * * * * * * * * //

dimensions      [0 -1 0 1 0 0 0];

internalField   nonuniform List<vector> 
4000
(
(-0.00022263621 -0.00022263621 566.89236)
(-0.00048917502 -0.00019739319 566.89072)
(-0.00024632668 -0.00019154137 566.88993)
(-0.00013346631 -0.00018926878 566.88946)
(-4.2657581e-05 -0.00018793566 566.88924)
(3.6333459e-05 -0.00018671542 566.88924)
(0.00010373746 -0.00018505372 566.88944)
(0.00015295706 -0.00018199902 566.88979)
(0.00016337735 -0.00017511965 566.89026)
(5.1684699e-05 -0.00015838502 566.89069)
(-0.00019739319 -0.00048917501 566.89072)
(-0.00044253275 -0.00044253275 566.88928)
(-0.00023414006 -0.00042788588 566.88854)
(-0.00012805775 -0.00042065668 566.88808)
(-3.8827538e-05 -0.00041573163 566.88787)
(4.0656373e-05 -0.00041107566 566.88788)
(0.00011081205 -0.00040515894 566.88809)
(0.00016785817 -0.00039569021 566.88847)
(0.00019879836 -0.0003780348 566.88899)
(6.8419323e-05 -0.00034382066 566.88958)
(-0.00019154137 -0.00024632668 566.88993)
(-0.00042788589 -0.00023414007 566.88854)
(-0.0002244506 -0.00022445061 566.88782)
(-0.00012131207 -0.00021718151 566.88739)
(-3.3076562e-05 -0.00021110349 566.88719)
(4.6906146e-05 -0.00020513054 566.88722)
(0.0001191229 -0.00019822887 566.88744)
(0.0001800812 -0.00018924911 566.88785)
(0.00021524691 -0.00017726327 566.88841)
(7.4494127e-05 -0.00016416058 566.88905)
(-0.00018926878 -0.00013346632 566.88946)
(-0.00042065668 -0.00012805776 566.88808)
(-0.0002171815 -0.00012131206 566.88739)
(-0.00011471063 -0.00011471064 566.88697)
(-2.677657e-05 -0.00010841292 566.88679)
(5.3530988e-05 -0.00010211584 566.88683)
(0.00012669348 -9.5398636e-05 566.88708)
(0.00018882377 -8.7973005e-05 566.88751)
(0.00022388689 -8.0180425e-05 566.88809)
(7.7154448e-05 -7.4032921e-05 566.88875)
(-0.00018793567 -4.2657574e-05 566.88924)
(-0.00041573163 -3.8827528e-05 566.88787)
(-0.00021110349 -3.3076554e-05 566.88719)
(-0.00010841292 -2.6776575e-05 566.88679)
(-2.0481762e-05 -2.0481762e-05 566.88663)
(5.9920427e-05 -1.4259965e-05 566.88669)
(0.00013326574 -8.0293546e-06 566.88695)
(0.00019529941 -1.859025e-06 566.8874)
(0.00022918699 3.7012796e-06 566.888)
(7.8592463e-05 7.3417774e-06 566.88867)
(-0.00018671542 3.6333459e-05 566.88924)
(-0.00041107566 4.0656375e-05 566.88788)
(-0.00020513055 4.6906142e-05 566.88722)
(-0.00010211584 5.353099e-05 566.88683)
(-1.425996e-05 5.992043e-05 566.88669)
(6.5983395e-05 6.59834e-05 566.88676)
(0.00013909442 7.176867e-05 566.88704)
(0.0002005544 7.7183495e-05 566.8875)
(0.00023308769 8.1763141e-05 566.88811)
(7.9581446e-05 8.4569989e-05 566.88879)
(-0.00018505372 0.00010373746 566.88944)
(-0.00040515895 0.00011081205 566.88809)
(-0.00019822887 0.0001191229 566.88744)
(-9.5398635e-05 0.00012669348 566.88708)
(-8.0293518e-06 0.00013326574 566.88695)
(7.1768667e-05 0.00013909442 566.88704)
(0.00014446583 0.00014446584 566.88733)
(0.00020529388 0.00014948053 566.88781)
(0.00023657349 0.00015385742 566.88843)
(8.0463695e-05 0.00015671188 566.88912)
(-0.00018199903 0.00015295706 566.88979)
(-0.00039569022 0.00016785818 566.88847)
(-0.00018924911 0.0001800812 566.88785)
(-8.7973006e-05 0.00018882377 566.88751)
(-1.8590144e-06 0.00019529941 566.8874)
(7.7183498e-05 0.0002005544 566.8875)
(0.00014948053 0.00020529389 566.88781)
(0.00020994599 0.00020994599 566.8883)
(0.00024031903 0.00021455732 566.88893)
(8.1484419e-05 0.0002182279 566.88963)
(-0.00017511964 0.00016337735 566.89026)
(-0.0003780348 0.00019879836 566.88899)
(-0.00017726327 0.00021524691 566.88841)
(-8.0180426e-05 0.00022388689 566.88809)
(3.7012817e-06 0.00022918699 566.888)
(8.1763143e-05 0.00023308769 566.88811)
(0.00015385741 0.00023657348 566.88843)
(0.00021455732 0.00024031904 566.88893)
(0.0002448554 0.00024485541 566.88958)
(8.2910745e-05 0.00024982209 566.89029)
(-0.00015838502 5.1684698e-05 566.89069)
(-0.00034382066 6.8419321e-05 566.88958)
(-0.00016416059 7.4494126e-05 566.88905)
(-7.4032923e-05 7.7154446e-05 566.88875)
(7.3417823e-06 7.8592462e-05 566.88867)
(8.456999e-05 7.9581446e-05 566.88879)
(0.00015671188 8.0463693e-05 566.88912)
(0.00021822791 8.1484421e-05 566.88963)
(0.00024982209 8.2910752e-05 566.89029)
(8.4795543e-05 8.479555e-05 566.89101)
(-0.00097157481 -0.0009715748 837.74999)
(-0.002177645 -0.00084936648 837.74797)
(-0.0011538959 -0.00082227689 837.74692)
(-0.0006357104 -0.00081159991 837.74627)
(-0.00020019173 -0.00080516772 837.74598)
(0.00018475356 -0.00079921989 837.74599)
(0.00051765333 -0.00079106851 837.7463)
(0.00077063768 -0.0007758165 837.74686)
(0.00085814744 -0.00073949993 837.74761)
(0.00028154343 -0.00063490609 837.74845)
(-0.00084936648 -0.002177645 837.74797)
(-0.0019536982 -0.0019536982 837.74621)
(-0.001097246 -0.0018857337 837.74522)
(-0.00061004664 -0.0018514454 837.7446)
(-0.00018162171 -0.0018276197 837.74431)
(0.00020590237 -0.0018049284 837.74434)
(0.00055275842 -0.0017759653 837.74467)
(0.00084799056 -0.0017291123 837.74526)
(0.0010695131 -0.0016384452 837.74611)
(0.00038613726 -0.0014380496 837.74721)
(-0.0008222769 -0.0011538959 837.74692)
(-0.0018857337 -0.001097246 837.74522)
(-0.0010516431 -0.0010516431 837.74426)
(-0.00057759638 -0.0010166871 837.74367)
(-0.00015367479 -0.00098717713 837.74341)
(0.00023640799 -0.00095806118 837.74346)
(0.00059346946 -0.00092434522 837.74381)
(0.00090815769 -0.00088036691 837.74444)
(0.0011492101 -0.00082144945 837.74534)
(0.00041514049 -0.00075858044 837.74651)
(-0.0008115999 -0.0006357104 837.74627)
(-0.0018514454 -0.00061004664 837.7446)
(-0.0010166871 -0.00057759638 837.74367)
(-0.00054558068 -0.00054558068 837.7431)
(-0.00012299581 -0.00051492144 837.74286)
(0.00026873429 -0.00048420612 837.74294)
(0.00063045269 -0.00045140575 837.74332)
(0.00095088633 -0.00041512075 837.74398)
(0.0011912995 -0.00037704063 837.74491)
(0.00042804994 -0.00034715097 837.74611)
(-0.00080516772 -0.00020019173 837.74598)
(-0.0018276197 -0.00018162171 837.74431)
(-0.00098717712 -0.00015367479 837.74341)
(-0.00051492144 -0.00012299581 837.74286)
(-9.2300232e-05 -9.2300233e-05 837.74265)
(0.00029992367 -6.1930199e-05 837.74275)
(0.00066255482 -3.1491847e-05 837.74315)
(0.00098252281 -1.3268953e-06 837.74384)
(0.0012171799 2.586676e-05 837.7448)
(0.00043506693 4.3664886e-05 837.74601)
(-0.00079921989 0.00018475357 837.74599)
(-0.0018049284 0.00020590238 837.74434)
(-0.00095806118 0.00023640799 837.74346)
(-0.00048420612 0.00026873428 837.74294)
(-6.1930197e-05 0.00029992367 837.74275)
(0.00032954267 0.00032954267 837.74287)
(0.00069105599 0.0003578404 837.7433)
(0.0010082449 0.00038437732 837.74401)
(0.0012362913 0.0004068869 837.74499)
(0.00043991535 0.00042073636 837.74621)
(-0.00079106851 0.00051765334 837.7463)
(-0.0017759653 0.00055275842 837.74467)
(-0.00092434522 0.00059346946 837.74381)
(-0.00045140576 0.0006304527 837.74332)
(-3.1491845e-05 0.00066255482 837.74315)
(0.0003578404 0.00069105599 837.7433)
(0.00071738948 0.00071738948 837.74375)
(0.0010315693 0.0007421073 837.74448)
(0.0012535389 0.00076391449 837.74548)
(0.00044429991 0.00077841595 837.74671)
(-0.0007758165 0.00077063769 837.74686)
(-0.0017291123 0.00084799057 837.74526)
(-0.0008803669 0.00090815769 837.74444)
(-0.00041512075 0.00095088633 837.74398)
(-1.3269028e-06 0.00098252282 837.74384)
(0.00038437733 0.0010082449 837.74401)
(0.0007421073 0.0010315693 837.74448)
(0.00105477 0.00105477 837.74523)
(0.0012726 0.0010784802 837.74625)
(0.000449583 0.0010986515 837.7475)
(-0.00073949993 0.00085814744 837.74761)
(-0.0016384452 0.0010695131 837.74611)
(-0.00082144946 0.0011492101 837.74534)
(-0.00037704063 0.0011912995 837.74491)
(2.5866764e-05 0.0012171799 837.7448)
(0.0004068869 0.0012362913 837.74499)
(0.00076391449 0.0012535389 837.74548)
(0.0010784802 0.0012726 837.74625)
(0.0012974205 0.0012974205 837.74728)
(0.00045774749 0.0013304836 837.74856)
(-0.00063490609 0.00028154343 837.74845)
(-0.0014380497 0.00038613726 837.74721)
(-0.00075858044 0.00041514049 837.74651)
(-0.00034715097 0.00042804994 837.74611)
(4.3664882e-05 0.00043506693 837.74601)
(0.00042073636 0.00043991535 837.74621)
(0.00077841596 0.0004442999 837.74671)
(0.0010986515 0.000449583 837.7475)
(0.0013304836 0.0004577475 837.74856)
(0.00047162504 0.00047162504 837.74991)
(-0.0015674771 -0.0015674771 832.36635)
(-0.0035597533 -0.0013705064 832.36466)
(-0.0019472266 -0.0013261342 832.36374)
(-0.0010794807 -0.0013080484 832.36317)
(-0.00032244627 -0.0012968425 832.36292)
(0.00036130163 -0.0012863148 832.36297)
(0.00096807074 -0.0012717612 832.36331)
(0.0014636223 -0.0012442997 832.36391)
(0.0017517582 -0.0011781752 832.36474)
(0.00060883365 -0.00098521711 832.36576)
(-0.0013705064 -0.0035597533 832.36466)
(-0.0031977389 -0.0031977389 832.36318)
(-0.0018535398 -0.0030851958 832.36231)
(-0.0010355433 -0.0030265556 832.36176)
(-0.00028984584 -0.0029848804 832.36152)
(0.00039892358 -0.0029447003 832.36159)
(0.0010310935 -0.0028930743 832.36195)
(0.0016040014 -0.0028090847 832.36258)
(0.002140382 -0.0026453579 832.36351)
(0.00080179172 -0.0022802811 832.36479)
(-0.0013261342 -0.0019472267 832.36374)
(-0.0030851958 -0.0018535398 832.36231)
(-0.0017760434 -0.0017760434 832.36148)
(-0.0009791653 -0.0017153643 832.36095)
(-0.00024059096 -0.0016634494 832.36074)
(0.00045310767 -0.0016118415 832.36082)
(0.0011036863 -0.0015518418 832.3612)
(0.0017113387 -0.0014734259 832.36188)
(0.0022805618 -0.0013684987 832.36286)
(0.00085221818 -0.001258875 832.3642)
(-0.0013080484 -0.0010794808 832.36317)
(-0.0030265556 -0.0010355433 832.36176)
(-0.0017153643 -0.0009791653 832.36095)
(-0.0009229493 -0.00092294929 832.36045)
(-0.00018632306 -0.00086874981 832.36026)
(0.00051053118 -0.00081422538 832.36037)
(0.0011695091 -0.00075585878 832.36078)
(0.0017873444 -0.00069122842 832.36148)
(0.002354933 -0.00062349598 832.3625)
(0.00087487423 -0.00057084102 832.36387)
(-0.0012968425 -0.00032244628 832.36292)
(-0.0029848804 -0.00028984584 832.36152)
(-0.0016634494 -0.00024059096 832.36074)
(-0.00086874981 -0.00018632306 832.36026)
(-0.00013186704 -0.00013186705 832.36009)
(0.00056599871 -7.7858513e-05 832.36022)
(0.0012266833 -2.3617546e-05 832.36065)
(0.0018437015 3.0223406e-05 832.36138)
(0.0024009492 7.8795201e-05 832.36242)
(0.00088732149 0.00011052844 832.36381)
(-0.0012863148 0.00036130163 832.36297)
(-0.0029447003 0.0003989236 832.36159)
(-0.0016118415 0.00045310767 832.36082)
(-0.00081422539 0.00051053117 832.36037)
(-7.7858512e-05 0.0005659987 832.36022)
(0.00061878068 0.00061878067 832.36038)
(0.001277591 0.00066936463 832.36083)
(0.0018897572 0.00071701983 832.36158)
(0.002435238 0.00075771555 832.36264)
(0.00089602972 0.00078297524 832.36404)
(-0.0012717612 0.00096807075 832.36331)
(-0.0028930743 0.0010310935 832.36195)
(-0.0015518418 0.0011036863 832.3612)
(-0.00075585879 0.0011695091 832.36078)
(-2.361754e-05 0.0012266833 832.36065)
(0.00066936463 0.001277591 832.36083)
(0.0013249225 0.0013249225 832.36131)
(0.0019320525 0.0013699051 832.36208)
(0.0024669046 0.0014105461 832.36315)
(0.00090416128 0.0014387583 832.36457)
(-0.0012442996 0.0014636223 832.36391)
(-0.0028090847 0.0016040013 832.36258)
(-0.0014734259 0.0017113387 832.36188)
(-0.00069122843 0.0017873444 832.36148)
(3.0223399e-05 0.0018437015 832.36138)
(0.00071701984 0.0018897572 832.36158)
(0.0013699051 0.0019320524 832.36208)
(0.0019753808 0.0019753808 832.36287)
(0.0025040911 0.0020225966 832.36397)
(0.00091483785 0.0020685412 832.3654)
(-0.0011781752 0.0017517582 832.36474)
(-0.0026453579 0.002140382 832.36351)
(-0.0013684987 0.0022805618 832.36286)
(-0.00062349599 0.002354933 832.3625)
(7.8795202e-05 0.0024009493 832.36242)
(0.00075771555 0.002435238 832.36264)
(0.0014105461 0.0024669046 832.36315)
(0.0020225966 0.0025040911 832.36397)
(0.002560065 0.002560065 832.36509)
(0.00093479098 0.0026653777 832.36656)
(-0.00098521711 0.00060883365 832.36576)
(-0.0022802811 0.00080179172 832.36479)
(-0.001258875 0.00085221818 832.3642)
(-0.00057084102 0.00087487423 832.36387)
(0.00011052845 0.00088732149 832.36381)
(0.00078297524 0.00089602972 832.36404)
(0.0014387583 0.00090416129 832.36457)
(0.0020685412 0.00091483785 832.3654)
(0.0026653777 0.00093479098 832.36656)
(0.00098504627 0.00098504627 832.36814)
(-0.0020992145 -0.0020992145 827.10433)
(-0.0047866348 -0.0018357925 827.10279)
(-0.0026430996 -0.0017762347 827.10197)
(-0.0014591873 -0.0017514786 827.10147)
(-0.00040053168 -0.0017358142 827.10127)
(0.0005730722 -0.0017208811 827.10136)
(0.0014552671 -0.0017000663 827.10173)
(0.0022059324 -0.0016605626 827.10236)
(0.0027079616 -0.0015649185 827.10324)
(0.0009583954 -0.001284332 827.10429)
(-0.0018357925 -0.0047866348 827.10279)
(-0.004302165 -0.004302165 827.10144)
(-0.0025166287 -0.0041501832 827.10067)
(-0.0013985567 -0.0040693874 827.10019)
(-0.00035463542 -0.00401094 827.1)
(0.00062669407 -0.0039539281 827.1001)
(0.0015457448 -0.0038801921 827.10049)
(0.002408654 -0.0037597179 827.10116)
(0.0032723075 -0.0035239765 827.10212)
(0.001238982 -0.0029963641 827.10343)
(-0.0017762347 -0.0026430996 827.10197)
(-0.0041501832 -0.0025166287 827.10067)
(-0.0024103221 -0.0024103221 827.09993)
(-0.0013199442 -0.0023257949 827.09948)
(-0.00028507233 -0.0022526213 827.09931)
(0.00070382009 -0.0021793226 827.09943)
(0.0016494773 -0.0020937371 827.09984)
(0.002562148 -0.0019816611 827.10054)
(0.0034713154 -0.0018317933 827.10156)
(0.001310137 -0.0016769874 827.10293)
(-0.0017514786 -0.0014591873 827.10147)
(-0.0040693874 -0.0013985567 827.10019)
(-0.0023257949 -0.0013199442 827.09948)
(-0.0012408559 -0.0012408559 827.09904)
(-0.00020816318 -0.0011640977 827.09889)
(0.00078557836 -0.0010865262 827.09904)
(0.0017434063 -0.0010032534 827.09947)
(0.0026705978 -0.00091093057 827.10021)
(0.0035769812 -0.00081426454 827.10126)
(0.0013421859 -0.00073959387 827.10266)
(-0.0017358142 -0.00040053168 827.10127)
(-0.00401094 -0.00035463541 827.1)
(-0.0022526213 -0.00028507233 827.09931)
(-0.0011640977 -0.00020816319 827.09889)
(-0.0001307426 -0.0001307426 827.09877)
(0.00086466437 -5.3739528e-05 827.09893)
(0.0018250729 2.3786343e-05 827.09939)
(0.0027511369 0.00010088755 827.10015)
(0.003642652 0.00017050483 827.10123)
(0.0013599174 0.00021592817 827.10265)
(-0.0017208811 0.00057307219 827.10136)
(-0.0039539281 0.00062669408 827.1001)
(-0.0021793227 0.00070382009 827.09943)
(-0.0010865262 0.00078557836 827.09904)
(-5.3739518e-05 0.00086466437 827.09893)
(0.00094010731 0.0009401073 827.09912)
(0.0018980334 0.0010126669 827.09961)
(0.0028173163 0.0010813551 827.10039)
(0.0036920219 0.0011403738 827.10148)
(0.0013724681 0.0011772578 827.10291)
(-0.0017000663 0.0014552671 827.10173)
(-0.0038801921 0.0015457448 827.10049)
(-0.0020937371 0.0016494773 827.09984)
(-0.0010032534 0.0017434063 827.09947)
(2.378634e-05 0.0018250729 827.09939)
(0.0010126669 0.0018980334 827.09961)
(0.0019663208 0.0019663208 827.10011)
(0.0028788437 0.0020319715 827.10091)
(0.0037385547 0.0020923795 827.10202)
(0.0013845068 0.0021354041 827.10346)
(-0.0016605626 0.0022059324 827.10236)
(-0.0037597179 0.002408654 827.10116)
(-0.0019816611 0.002562148 827.10054)
(-0.00091093057 0.0026705978 827.10021)
(0.00010088754 0.0027511369 827.10015)
(0.0010813551 0.0028173163 827.10039)
(0.0020319715 0.0028788437 827.10091)
(0.0029433751 0.0029433751 827.10173)
(0.0037954545 0.0030164482 827.10287)
(0.0014011512 0.0030913497 827.10432)
(-0.0015649185 0.0027079616 827.10324)
(-0.0035239765 0.0032723076 827.10212)
(-0.0018317933 0.0034713154 827.10156)
(-0.00081426453 0.0035769813 827.10126)
(0.00017050483 0.0036426521 827.10123)
(0.0011403738 0.0036920219 827.10148)
(0.0020923795 0.0037385547 827.10202)
(0.0030164482 0.0037954545 827.10287)
(0.0038865294 0.0038865294 827.10403)
(0.0014344411 0.0040701328 827.10553)
(-0.001284332 0.0009583954 827.10429)
(-0.0029963641 0.001238982 827.10343)
(-0.0016769874 0.001310137 827.10293)
(-0.00073959387 0.0013421859 827.10266)
(0.00021592817 0.0013599174 827.10265)
(0.0011772578 0.0013724681 827.10291)
(0.0021354041 0.0013845068 827.10346)
(0.0030913497 0.0014011512 827.10432)
(0.0040701328 0.0014344411 827.10553)
(0.0015235534 0.0015235534 827.10714)
(-0.0025945474 -0.0025945474 821.95945)
(-0.0059157245 -0.0022680281 821.95801)
(-0.0032623466 -0.0021943697 821.95727)
(-0.0017809122 -0.0021634385 821.95683)
(-0.00043607386 -0.0021435812 821.95668)
(0.00081691319 -0.0021244274 821.9568)
(0.0019688761 -0.0020975463 821.95719)
(0.0029716041 -0.0020463251 821.95784)
(0.0036797445 -0.001921943 821.95872)
(0.0013109989 -0.0015561715 821.95977)
(-0.0022680281 -0.0059157245 821.95801)
(-0.0053154579 -0.0053154579 821.95675)
(-0.0031054622 -0.0051269583 821.95605)
(-0.0017047295 -0.0050255967 821.95563)
(-0.00037755713 -0.0049513334 821.95549)
(0.0008859655 -0.0048781943 821.95562)
(0.0020860295 -0.0047830649 821.95603)
(0.0032350091 -0.0046271425 821.95672)
(0.0044149749 -0.0043213841 821.95769)
(0.0016767705 -0.0036359393 821.95899)
(-0.0021943696 -0.0032623466 821.95727)
(-0.0051269583 -0.0031054622 821.95605)
(-0.0029724854 -0.0029724854 821.95539)
(-0.0016052873 -0.002865658 821.95499)
(-0.00028867144 -0.0027723303 821.95487)
(0.00098518168 -0.0026782216 821.95502)
(0.0022199278 -0.0025679046 821.95545)
(0.0034332849 -0.0024231874 821.95617)
(0.0046709477 -0.0022297396 821.95719)
(0.0017679621 -0.00203128 821.95855)
(-0.0021634385 -0.0017809122 821.95683)
(-0.0050255967 -0.0017047295 821.95563)
(-0.002865658 -0.0016052873 821.95499)
(-0.0015045744 -0.0015045744 821.95461)
(-0.00019012073 -0.0014062821 821.95451)
(0.0010903912 -0.0013065312 821.95468)
(0.0023410637 -0.0011991556 821.95514)
(0.003573174 -0.001079962 821.95589)
(0.0048068823 -0.00095522564 821.95694)
(0.0018090769 -0.00085926972 821.95833)
(-0.0021435812 -0.00043607386 821.95668)
(-0.0049513333 -0.00037755713 821.95549)
(-0.0027723303 -0.00028867144 821.95487)
(-0.0014062822 -0.00019012073 821.95451)
(-9.0628272e-05 -9.0628268e-05 821.95443)
(0.0011923082 8.6016155e-06 821.95462)
(0.0024464971 0.00010874913 821.9551)
(0.0036772149 0.00020853043 821.95588)
(0.0048916399 0.00029870115 821.95695)
(0.0018319327 0.0003574792 821.95835)
(-0.0021244274 0.00081691319 821.9568)
(-0.0048781943 0.0008859655 821.95562)
(-0.0026782216 0.00098518167 821.95502)
(-0.0013065312 0.0010903912 821.95468)
(8.6016144e-06 0.0011923082 821.95462)
(0.0012897686 0.0012897686 821.95484)
(0.0025409925 0.0013838203 821.95534)
(0.003763126 0.0014732245 821.95614)
(0.004955831 0.0015504048 821.95723)
(0.0018482623 0.0015988547 821.95864)
(-0.0020975463 0.0019688761 821.95719)
(-0.0047830649 0.0020860295 821.95603)
(-0.0025679046 0.0022199278 821.95545)
(-0.0011991556 0.0023410637 821.95514)
(0.00010874913 0.0024464971 821.9551)
(0.0013838203 0.0025409925 821.95534)
(0.002629953 0.002629953 821.95586)
(0.0038437994 0.0027162503 821.95668)
(0.0050172701 0.0027966321 821.95779)
(0.0018642327 0.0028546979 821.95922)
(-0.0020463251 0.0029716041 821.95784)
(-0.0046271425 0.0032350091 821.95672)
(-0.0024231874 0.0034332849 821.95617)
(-0.001079962 0.003573174 821.95589)
(0.00020853044 0.0036772149 821.95588)
(0.0014732245 0.0037631261 821.95614)
(0.0027162503 0.0038437994 821.95668)
(0.0039298052 0.0039298052 821.95751)
(0.0050942786 0.0040293062 821.95865)
(0.0018869728 0.0041335444 821.96009)
(-0.001921943 0.0036797445 821.95872)
(-0.0043213841 0.0044149749 821.95769)
(-0.0022297396 0.0046709477 821.95719)
(-0.00095522563 0.0048068823 821.95694)
(0.00029870116 0.0048916399 821.95695)
(0.0015504048 0.004955831 821.95723)
(0.0027966321 0.0050172701 821.95779)
(0.0040293062 0.0050942786 821.95865)
(0.0052210093 0.0052210093 821.95981)
(0.0019337248 0.0054817733 821.9613)
(-0.0015561715 0.0013109989 821.95977)
(-0.0036359393 0.0016767705 821.95899)
(-0.00203128 0.0017679621 821.95855)
(-0.00085926973 0.0018090769 821.95833)
(0.0003574792 0.0018319327 821.95835)
(0.0015988547 0.0018482623 821.95864)
(0.0028546979 0.0018642327 821.95922)
(0.0041335444 0.0018869728 821.96009)
(0.0054817733 0.0019337248 821.9613)
(0.0020608154 0.0020608154 821.96289)
(-0.0030598279 -0.0030598279 816.92752)
(-0.006965104 -0.0026730141 816.92617)
(-0.0038186123 -0.0025860482 816.92549)
(-0.0020528785 -0.002549323 816.92511)
(-0.0004351974 -0.0025255068 816.92499)
(0.0010853065 -0.0025023261 816.92514)
(0.0024966999 -0.0024696175 816.92554)
(0.0037412278 -0.0024071146 816.9262)
(0.004642621 -0.0022550667 816.92707)
(0.001658145 -0.0018073522 816.9281)
(-0.0026730141 -0.006965104 816.92617)
(-0.0062544345 -0.0062544345 816.92499)
(-0.0036330757 -0.0060315779 816.92436)
(-0.0019620665 -0.0059109188 816.92399)
(-0.00036470199 -0.0058217097 816.92388)
(0.0011691405 -0.0057331863 816.92404)
(0.0026395172 -0.0056175198 816.92446)
(0.0040630541 -0.0054274873 816.92515)
(0.0055422645 -0.0050543516 816.92611)
(0.0021058595 -0.004217152 816.92737)
(-0.0025860482 -0.0038186123 816.92549)
(-0.0060315779 -0.0036330757 816.92436)
(-0.0034750967 -0.0034750967 816.92375)
(-0.0018430103 -0.0033472969 816.9234)
(-0.00025746487 -0.0032348752 816.92332)
(0.0012894964 -0.0031209004 816.92349)
(0.0028023989 -0.0029868505 816.92394)
(0.0043043961 -0.0028107416 816.92466)
(0.0058529563 -0.0025753845 816.92567)
(0.0022162781 -0.0023350316 816.92699)
(-0.002549323 -0.0020528785 816.92511)
(-0.0059109188 -0.0019620665 816.92399)
(-0.0033472969 -0.0018430103 816.9234)
(-0.001721845 -0.001721845 816.92308)
(-0.00013830547 -0.0016030661 816.92301)
(0.0014171652 -0.001482094 816.92321)
(0.0029496759 -0.0013515611 816.92367)
(0.0044745201 -0.0012064987 816.92442)
(0.0060179746 -0.0010547388 816.92546)
(0.0022660948 -0.0009383289 816.92681)
(-0.0025255068 -0.00043519741 816.92499)
(-0.0058217097 -0.00036470199 816.92388)
(-0.0032348752 -0.00025746487 816.92332)
(-0.0016030661 -0.00013830547 816.92301)
(-1.7713829e-05 -1.7713809e-05 816.92296)
(0.0015410014 0.00010285509 816.92318)
(0.0030779942 0.00022480488 816.92367)
(0.0046012184 0.00034650224 816.92444)
(0.0061211261 0.00045655327 816.9255)
(0.0022938847 0.00052823642 816.92686)
(-0.0025023261 0.0010853065 816.92514)
(-0.0057331863 0.0011691405 816.92404)
(-0.0031209004 0.0012894964 816.92349)
(-0.001482094 0.0014171652 816.92321)
(0.00010285508 0.0015410014 816.92318)
(0.0016596839 0.0016596839 816.92342)
(0.003193323 0.0017745497 816.92393)
(0.0047062684 0.0018841058 816.92472)
(0.0061997087 0.0019790093 816.9258)
(0.0023138835 0.0020387561 816.92717)
(-0.0024696175 0.0024966999 816.92554)
(-0.0056175198 0.0026395172 816.92446)
(-0.0029868505 0.0028023989 816.92394)
(-0.0013515611 0.0029496759 816.92367)
(0.00022480489 0.0030779942 816.92367)
(0.0017745497 0.0031933231 816.92393)
(0.0033024161 0.0033024161 816.92446)
(0.0048056779 0.0034089564 816.92527)
(0.0062757764 0.0035090081 816.92637)
(0.0023337159 0.0035818871 816.92775)
(-0.0024071146 0.0037412278 816.9262)
(-0.0054274873 0.0040630541 816.92515)
(-0.0028107416 0.0043043961 816.92466)
(-0.0012064987 0.0044745201 816.92442)
(0.00034650225 0.0046012184 816.92444)
(0.0018841059 0.0047062685 816.92472)
(0.0034089564 0.004805678 816.92527)
(0.0049128604 0.0049128604 816.9261)
(0.0063726395 0.0050384626 816.92722)
(0.0023624696 0.0051715088 816.92862)
(-0.0022550667 0.004642621 816.92707)
(-0.0050543516 0.0055422645 816.92611)
(-0.0025753845 0.0058529563 816.92567)
(-0.0010547388 0.0060179746 816.92546)
(0.00045655328 0.0061211261 816.9255)
(0.0019790093 0.0061997087 816.9258)
(0.0035090081 0.0062757763 816.92637)
(0.0050384626 0.0063726395 816.92722)
(0.0065344247 0.0065344248 816.92836)
(0.0024224133 0.0068703079 816.92981)
(-0.0018073522 0.001658145 816.9281)
(-0.004217152 0.0021058595 816.92737)
(-0.0023350316 0.0022162781 816.92699)
(-0.0009383289 0.0022660948 816.92681)
(0.00052823642 0.0022938847 816.92686)
(0.0020387561 0.0023138835 816.92717)
(0.0035818871 0.0023337159 816.92775)
(0.0051715088 0.0023624696 816.92862)
(0.0068703079 0.0024224133 816.92981)
(0.0025863917 0.0025863917 816.93136)
(-0.0034959804 -0.0034959804 812.00448)
(-0.007940312 -0.0030518627 812.00321)
(-0.0043198642 -0.0029523353 812.0026)
(-0.0022823129 -0.0029101618 812.00226)
(-0.00040499786 -0.0028826118 812.00218)
(0.0013698082 -0.0028556099 812.00234)
(0.0030275494 -0.0028173488 812.00275)
(0.0045004565 -0.0027440822 812.0034)
(0.0055812443 -0.002565638 812.00425)
(0.0019948808 -0.0020397531 812.00524)
(-0.0030518627 -0.007940312 812.00321)
(-0.0071248445 -0.0071248445 812.00211)
(-0.0041073129 -0.0068696211 812.00154)
(-0.0021777276 -0.0067308231 812.00122)
(-0.00032316997 -0.0066275149 812.00114)
(0.0014677028 -0.006524397 812.00132)
(0.003194841 -0.0063891708 812.00175)
(0.0048780227 -0.0061666046 812.00242)
(0.0066377378 -0.0057292026 812.00335)
(0.0025207657 -0.0047472998 812.00457)
(-0.0029523354 -0.0043198642 812.0026)
(-0.0068696211 -0.0041073129 812.00154)
(-0.0039258428 -0.0039258429 812.00099)
(-0.0020402067 -0.0037783152 812.00068)
(-0.00019857173 -0.0036478591 812.00063)
(0.0016081523 -0.0035150302 812.00082)
(0.0033853418 -0.0033583798 812.00127)
(0.0051604248 -0.003152335 812.00198)
(0.0070005491 -0.0028770179 812.00296)
(0.0026494827 -0.0025967863 812.00423)
(-0.0029101618 -0.0022823129 812.00226)
(-0.0067308231 -0.0021777276 812.00122)
(-0.0037783152 -0.0020402067 812.00068)
(-0.0018997438 -0.0018997438 812.0004)
(-5.9884998e-05 -0.0017615654 812.00036)
(0.0017571821 -0.0016204216 812.00058)
(0.0035575362 -0.0014678134 812.00105)
(0.0053593845 -0.0012980574 812.00178)
(0.0071932866 -0.0011205034 812.00279)
(0.0027075868 -0.00098459705 812.00408)
(-0.0028826118 -0.00040499787 812.00218)
(-0.0066275149 -0.00032316997 812.00114)
(-0.0036478591 -0.00019857173 812.00063)
(-0.0017615654 -5.9885004e-05 812.00036)
(8.0750486e-05 8.075049e-05 812.00034)
(0.0019019043 0.00022165334 812.00058)
(0.003707706 0.00036443592 812.00107)
(0.0055077347 0.00050711205 812.00182)
(0.0073140095 0.00063620306 812.00285)
(0.0027400869 0.00072023484 812.00416)
(-0.0028556099 0.0013698082 812.00234)
(-0.006524397 0.0014677028 812.00132)
(-0.0035150302 0.0016081523 812.00082)
(-0.0016204216 0.0017571821 812.00058)
(0.00022165334 0.0019019043 812.00058)
(0.0020408675 0.0020408675 812.00083)
(0.0038429949 0.0021756898 812.00134)
(0.0056311517 0.0023046223 812.00212)
(0.0074064094 0.002416596 812.00316)
(0.002763608 0.0024872246 812.00448)
(-0.0028173487 0.0030275494 812.00275)
(-0.0063891708 0.003194841 812.00175)
(-0.0033583798 0.0033853418 812.00127)
(-0.0014678134 0.0035575362 812.00105)
(0.00036443592 0.003707706 812.00107)
(0.0021756898 0.0038429949 812.00134)
(0.0039714608 0.0039714608 812.00187)
(0.0057486409 0.0040975572 812.00267)
(0.0074966117 0.0042166536 812.00373)
(0.0027871727 0.004303873 812.00506)
(-0.0027440822 0.0045004565 812.0034)
(-0.0061666046 0.0048780227 812.00242)
(-0.003152335 0.0051604248 812.00198)
(-0.0012980574 0.0053593845 812.00178)
(0.00050711204 0.0055077347 812.00182)
(0.0023046223 0.0056311517 812.00212)
(0.0040975572 0.0057486409 812.00267)
(0.0058763444 0.0058763444 812.00348)
(0.0076127251 0.0060272596 812.00456)
(0.0028217542 0.0061881837 812.00591)
(-0.002565638 0.0055812443 812.00425)
(-0.0057292026 0.0066377378 812.00335)
(-0.0028770179 0.0070005491 812.00296)
(-0.0011205034 0.0071932866 812.00279)
(0.00063620306 0.0073140094 812.00285)
(0.002416596 0.0074064094 812.00316)
(0.0042166536 0.0074966117 812.00373)
(0.0060272596 0.0076127251 812.00456)
(0.007808451 0.007808451 812.00567)
(0.0028944554 0.0082168557 812.00706)
(-0.0020397531 0.0019948808 812.00524)
(-0.0047472998 0.0025207657 812.00457)
(-0.0025967863 0.0026494827 812.00423)
(-0.00098459705 0.0027075868 812.00408)
(0.00072023484 0.0027400869 812.00416)
(0.0024872246 0.002763608 812.00448)
(0.004303873 0.0027871726 812.00506)
(0.0061881837 0.0028217542 812.00591)
(0.0082168557 0.0028944554 812.00706)
(0.003094024 0.003094024 812.00855)
(-0.0039022549 -0.0039022549 807.18634)
(-0.0088420957 -0.0034041244 807.18517)
(-0.004770597 -0.0032928107 807.18461)
(-0.0024748458 -0.0032455359 807.18432)
(-0.00035201225 -0.0032144818 807.18426)
(0.0016625699 -0.0031838795 807.18444)
(0.0035518828 -0.0031403725 807.18485)
(0.0052383007 -0.0030569278 807.18547)
(0.0064846695 -0.0028535192 807.18629)
(0.0023177544 -0.0022536972 807.18724)
(-0.0034041244 -0.0088420957 807.18517)
(-0.0079279294 -0.0079279294 807.18416)
(-0.0045327142 -0.0076423733 807.18363)
(-0.0023573523 -0.0074865949 807.18335)
(-0.00025952774 -0.0073700549 807.18331)
(0.0017737337 -0.007253189 807.18349)
(0.0037423104 -0.0070994899 807.18392)
(0.0056685807 -0.006846168 807.18457)
(0.0076895155 -0.0063480061 807.18547)
(0.0029175764 -0.0052293047 807.18662)
(-0.0032928108 -0.004770597 807.18461)
(-0.0076423733 -0.0045327142 807.18363)
(-0.0043292625 -0.0043292625 807.18313)
(-0.0022025273 -0.004163257 807.18287)
(-0.00011860638 -0.004015863 807.18284)
(0.0019331348 -0.0038652695 807.18305)
(0.0039589039 -0.0036872754 807.18349)
(0.0059897845 -0.0034529344 807.18418)
(0.0081015328 -0.0031398537 807.18511)
(0.0030635553 -0.0028219942 807.18632)
(-0.0032455359 -0.0024748458 807.18432)
(-0.0074865949 -0.0023573522 807.18335)
(-0.004163257 -0.0022025273 807.18287)
(-0.0020439527 -0.0020439527 807.18262)
(3.8459724e-05 -0.0018875227 807.18261)
(0.0021023212 -0.0017273511 807.18284)
(0.0041546455 -0.0015538779 807.1833)
(0.0062160024 -0.0013607612 807.18401)
(0.0083204557 -0.0011588098 807.18498)