/*--------------------------------*- C++ -*----------------------------------*\
| =========                 |                                                 |
| \\      /  F ield         | OpenFOAM: The Open Source CFD Toolbox           |
|  \\    /   O peration     | Version:  v2106                                 |
|   \\  /    A nd           | Website:  www.openfoam.com                      |
|    \\/     M anipulation  |                                                 |
\*---------------------------------------------------------------------------*/
FoamFile
{
    version     2.0;
    format      ascii;
    arch        "LSB;label=32;scalar=64";
    class       volScalarField;
    location    "72.5";
    object      gradTz;
}
// * * * * * * * * * * * * * * * * * * * * * * * * * * * * * * * * * * * * * //

dimensions      [0 -1 0 1 0 0 0];

internalField   nonuniform List<scalar> 
4000
(
566.89236
566.89072
566.88993
566.88946
566.88924
566.88924
566.88944
566.88979
566.89026
566.89069
566.89072
566.88928
566.88854
566.88808
566.88787
566.88788
566.88809
566.88847
566.88899
566.88958
566.88993
566.88854
566.88782
566.88739
566.88719
566.88722
566.88744
566.88785
566.88841
566.88905
566.88946
566.88808
566.88739
566.88697
566.88679
566.88683
566.88708
566.88751
566.88809
566.88875
566.88924
566.88787
566.88719
566.88679
566.88663
566.88669
566.88695
566.8874
566.888
566.88867
566.88924
566.88788
566.88722
566.88683
566.88669
566.88676
566.88704
566.8875
566.88811
566.88879
566.88944
566.88809
566.88744
566.88708
566.88695
566.88704
566.88733
566.88781
566.88843
566.88912
566.88979
566.88847
566.88785
566.88751
566.8874
566.8875
566.88781
566.8883
566.88893
566.88963
566.89026
566.88899
566.88841
566.88809
566.888
566.88811
566.88843
566.88893
566.88958
566.89029
566.89069
566.88958
566.88905
566.88875
566.88867
566.88879
566.88912
566.88963
566.89029
566.89101
837.74999
837.74797
837.74692
837.74627
837.74598
837.74599
837.7463
837.74686
837.74761
837.74845
837.74797
837.74621
837.74522
837.7446
837.74431
837.74434
837.74467
837.74526
837.74611
837.74721
837.74692
837.74522
837.74426
837.74367
837.74341
837.74346
837.74381
837.74444
837.74534
837.74651
837.74627
837.7446
837.74367
837.7431
837.74286
837.74294
837.74332
837.74398
837.74491
837.74611
837.74598
837.74431
837.74341
837.74286
837.74265
837.74275
837.74315
837.74384
837.7448
837.74601
837.74599
837.74434
837.74346
837.74294
837.74275
837.74287
837.7433
837.74401
837.74499
837.74621
837.7463
837.74467
837.74381
837.74332
837.74315
837.7433
837.74375
837.74448
837.74548
837.74671
837.74686
837.74526
837.74444
837.74398
837.74384
837.74401
837.74448
837.74523
837.74625
837.7475
837.74761
837.74611
837.74534
837.74491
837.7448
837.74499
837.74548
837.74625
837.74728
837.74856
837.74845
837.74721
837.74651
837.74611
837.74601
837.74621
837.74671
837.7475
837.74856
837.74991
832.36635
832.36466
832.36374
832.36317
832.36292
832.36297
832.36331
832.36391
832.36474
832.36576
832.36466
832.36318
832.36231
832.36176
832.36152
832.36159
832.36195
832.36258
832.36351
832.36479
832.36374
832.36231
832.36148
832.36095
832.36074
832.36082
832.3612
832.36188
832.36286
832.3642
832.36317
832.36176
832.36095
832.36045
832.36026
832.36037
832.36078
832.36148
832.3625
832.36387
832.36292
832.36152
832.36074
832.36026
832.36009
832.36022
832.36065
832.36138
832.36242
832.36381
832.36297
832.36159
832.36082
832.36037
832.36022
832.36038
832.36083
832.36158
832.36264
832.36404
832.36331
832.36195
832.3612
832.36078
832.36065
832.36083
832.36131
832.36208
832.36315
832.36457
832.36391
832.36258
832.36188
832.36148
832.36138
832.36158
832.36208
832.36287
832.36397
832.3654
832.36474
832.36351
832.36286
832.3625
832.36242
832.36264
832.36315
832.36397
832.36509
832.36656
832.36576
832.36479
832.3642
832.36387
832.36381
832.36404
832.36457
832.3654
832.36656
832.36814
827.10433
827.10279
827.10197
827.10147
827.10127
827.10136
827.10173
827.10236
827.10324
827.10429
827.10279
827.10144
827.10067
827.10019
827.1
827.1001
827.10049
827.10116
827.10212
827.10343
827.10197
827.10067
827.09993
827.09948
827.09931
827.09943
827.09984
827.10054
827.10156
827.10293
827.10147
827.10019
827.09948
827.09904
827.09889
827.09904
827.09947
827.10021
827.10126
827.10266
827.10127
827.1
827.09931
827.09889
827.09877
827.09893
827.09939
827.10015
827.10123
827.10265
827.10136
827.1001
827.09943
827.09904
827.09893
827.09912
827.09961
827.10039
827.10148
827.10291
827.10173
827.10049
827.09984
827.09947
827.09939
827.09961
827.10011
827.10091
827.10202
827.10346
827.10236
827.10116
827.10054
827.10021
827.10015
827.10039
827.10091
827.10173
827.10287
827.10432
827.10324
827.10212
827.10156
827.10126
827.10123
827.10148
827.10202
827.10287
827.10403
827.10553
827.10429
827.10343
827.10293
827.10266
827.10265
827.10291
827.10346
827.10432
827.10553
827.10714
821.95945
821.95801
821.95727
821.95683
821.95668
821.9568
821.95719
821.95784
821.95872
821.95977
821.95801
821.95675
821.95605
821.95563
821.95549
821.95562
821.95603
821.95672
821.95769
821.95899
821.95727
821.95605
821.95539
821.95499
821.95487
821.95502
821.95545
821.95617
821.95719
821.95855
821.95683
821.95563
821.95499
821.95461
821.95451
821.95468
821.95514
821.95589
821.95694
821.95833
821.95668
821.95549
821.95487
821.95451
821.95443
821.95462
821.9551
821.95588
821.95695
821.95835
821.9568
821.95562
821.95502
821.95468
821.95462
821.95484
821.95534
821.95614
821.95723
821.95864
821.95719
821.95603
821.95545
821.95514
821.9551
821.95534
821.95586
821.95668
821.95779
821.95922
821.95784
821.95672
821.95617
821.95589
821.95588
821.95614
821.95668
821.95751
821.95865
821.96009
821.95872
821.95769
821.95719
821.95694
821.95695
821.95723
821.95779
821.95865
821.95981
821.9613
821.95977
821.95899
821.95855
821.95833
821.95835
821.95864
821.95922
821.96009
821.9613
821.96289
816.92752
816.92617
816.92549
816.92511
816.92499
816.92514
816.92554
816.9262
816.92707
816.9281
816.92617
816.92499
816.92436
816.92399
816.92388
816.92404
816.92446
816.92515
816.92611
816.92737
816.92549
816.92436
816.92375
816.9234
816.92332
816.92349
816.92394
816.92466
816.92567
816.92699
816.92511
816.92399
816.9234
816.92308
816.92301
816.92321
816.92367
816.92442
816.92546
816.92681
816.92499
816.92388
816.92332
816.92301
816.92296
816.92318
816.92367
816.92444
816.9255
816.92686
816.92514
816.92404
816.92349
816.92321
816.92318
816.92342
816.92393
816.92472
816.9258
816.92717
816.92554
816.92446
816.92394
816.92367
816.92367
816.92393
816.92446
816.92527
816.92637
816.92775
816.9262
816.92515
816.92466
816.92442
816.92444
816.92472
816.92527
816.9261
816.92722
816.92862
816.92707
816.92611
816.92567
816.92546
816.9255
816.9258
816.92637
816.92722
816.92836
816.92981
816.9281
816.92737
816.92699
816.92681
816.92686
816.92717
816.92775
816.92862
816.92981
816.93136
812.00448
812.00321
812.0026
812.00226
812.00218
812.00234
812.00275
812.0034
812.00425
812.00524
812.00321
812.00211
812.00154
812.00122
812.00114
812.00132
812.00175
812.00242
812.00335
812.00457
812.0026
812.00154
812.00099
812.00068
812.00063
812.00082
812.00127
812.00198
812.00296
812.00423
812.00226
812.00122
812.00068
812.0004
812.00036
812.00058
812.00105
812.00178
812.00279
812.00408
812.00218
812.00114
812.00063
812.00036
812.00034
812.00058
812.00107
812.00182
812.00285
812.00416
812.00234
812.00132
812.00082
812.00058
812.00058
812.00083
812.00134
812.00212
812.00316
812.00448
812.00275
812.00175
812.00127
812.00105
812.00107
812.00134
812.00187
812.00267
812.00373
812.00506
812.0034
812.00242
812.00198
812.00178
812.00182
812.00212
812.00267
812.00348
812.00456
812.00591
812.00425
812.00335
812.00296
812.00279
812.00285
812.00316
812.00373
812.00456
812.00567
812.00706
812.00524
812.00457
812.00423
812.00408
812.00416
812.00448
812.00506
812.00591
812.00706
812.00855
807.18634
807.18517
807.18461
807.18432
807.18426
807.18444
807.18485
807.18547
807.18629
807.18724
807.18517
807.18416
807.18363
807.18335
807.18331
807.18349
807.18392
807.18457
807.18547
807.18662
807.18461
807.18363
807.18313
807.18287
807.18284
807.18305
807.18349
807.18418
807.18511
807.18632
807.18432
807.18335
807.18287
807.18262
807.18261
807.18284
807.1833
807.18401
807.18498
807.18621
807.18426
807.18331
807.18284
807.18261
807.18262
807.18286
807.18334
807.18407
807.18506
807.1863
807.18444
807.18349
807.18305
807.18284
807.18286
807.18312
807.18362
807.18437
807.18537
807.18663
807.18485
807.18392
807.18349
807.1833
807.18334
807.18362
807.18414
807.18491
807.18593
807.18719
807.18547
807.18457
807.18418
807.18401
807.18407
807.18437
807.18491
807.1857
807.18673
807.18801
807.18629
807.18547
807.18511
807.18498
807.18506
807.18537
807.18593
807.18673
807.18779
807.18911
807.18724
807.18662
807.18632
807.18621
807.1863
807.18663
807.18719
807.18801
807.18911
807.19053
802.46922
802.46814
802.46764
802.46738
802.46735
802.46754
802.46794
802.46854
802.46931
802.4702
802.46814
802.46721
802.46674
802.4665
802.46647
802.46667
802.46708
802.46771
802.46856
802.46965
802.46764
802.46674
802.46629
802.46607
802.46606
802.46627
802.4667
802.46736
802.46824
802.46938
802.46738
802.4665
802.46607
802.46586
802.46586
802.46609
802.46654
802.46722
802.46814
802.46929
802.46735
802.46647
802.46606
802.46586
802.46589
802.46613
802.4666
802.4673
802.46823
802.4694
802.46754
802.46667
802.46627
802.46609
802.46613
802.46639
802.46688
802.4676
802.46854
802.46972
802.46794
802.46708
802.4667
802.46654
802.4666
802.46688
802.46739
802.46812
802.46908
802.47027
802.46854
802.46771
802.46736
802.46722
802.4673
802.4676
802.46812
802.46887
802.46985
802.47105
802.46931
802.46856
802.46824
802.46814
802.46823
802.46854
802.46908
802.46985
802.47085
802.47209
802.4702
802.46965
802.46938
802.46929
802.4694
802.46972
802.47027
802.47105
802.47209
802.47342
797.84928
797.8483
797.84785
797.84763
797.84762
797.84781
797.84819
797.84876
797.84949
797.85032
797.8483
797.84746
797.84704
797.84683
797.84683
797.84702
797.84742
797.84801
797.84881
797.84982
797.84785
797.84704
797.84664
797.84645
797.84646
797.84667
797.84708
797.8477
797.84853
797.84959
797.84763
797.84683
797.84645
797.84627
797.8463
797.84652
797.84695
797.84759
797.84845
797.84953
797.84762
797.84683
797.84646
797.8463
797.84633
797.84658
797.84703
797.84768
797.84855
797.84964
797.84781
797.84702
797.84667
797.84652
797.84658
797.84684
797.8473
797.84797
797.84886
797.84996
797.84819
797.84742
797.84708
797.84695
797.84703
797.8473
797.84778
797.84847
797.84937
797.85047
797.84876
797.84801
797.8477
797.84759
797.84768
797.84797
797.84847
797.84917
797.85009
797.85121
797.84949
797.84881
797.84853
797.84845
797.84855
797.84886
797.84937
797.85009
797.85103
797.85218
797.85032
797.84982
797.84959
797.84953
797.84964
797.84996
797.85047
797.85121
797.85218
797.85342
793.32276
793.32189
793.3215
793.32131
793.32132
793.3215
793.32187
793.3224
793.32307
793.32384
793.32189
793.32113
793.32077
793.3206
793.32061
793.3208
793.32118
793.32173
793.32246
793.3234
793.3215
793.32077
793.32043
793.32027
793.32029
793.3205
793.32089
793.32146
793.32223
793.32321
793.32131
793.3206
793.32027
793.32012
793.32016
793.32038
793.32079
793.32138
793.32217
793.32316
793.32132
793.32061
793.32029
793.32016
793.32021
793.32044
793.32087
793.32148
793.32228
793.32328
793.3215
793.3208
793.3205
793.32038
793.32044
793.32069
793.32113
793.32176
793.32257
793.32358
793.32187
793.32118
793.32089
793.32079
793.32087
793.32113
793.32158
793.32222
793.32305
793.32407
793.3224
793.32173
793.32146
793.32138
793.32148
793.32176
793.32222
793.32288
793.32372
793.32475
793.32307
793.32246
793.32223
793.32217
793.32228
793.32257
793.32305
793.32372
793.32459
793.32565
793.32384
793.3234
793.32321
793.32316
793.32328
793.32358
793.32407
793.32475
793.32565
793.32679
788.88599
788.88523
788.88489
788.88474
788.88476
788.88494
788.88528
788.88577
788.88639
788.88708
788.88523
788.88457
788.88426
788.88412
788.88414
788.88433
788.88468
788.88519
788.88586
788.88671
788.88489
788.88426
788.88396
788.88384
788.88387
788.88407
788.88444
788.88497
788.88567
788.88655
788.88474
788.88412
788.88384
788.88372
788.88377
788.88398
788.88436
788.88491
788.88563
788.88652
788.88476
788.88414
788.88387
788.88377
788.88383
788.88405
788.88445
788.88501
788.88574
788.88665
788.88494
788.88433
788.88407
788.88398
788.88405
788.88429
788.8847
788.88527
788.88602
788.88693
788.88528
788.88468
788.88444
788.88436
788.88445
788.8847
788.88512
788.8857
788.88646
788.88738
788.88577
788.88519
788.88497
788.88491
788.88501
788.88527
788.8857
788.8863
788.88707
788.88801
788.88639
788.88586
788.88567
788.88563
788.88574
788.88602
788.88646
788.88707
788.88786
788.88882
788.88708
788.88671
788.88655
788.88652
788.88665
788.88693
788.88738
788.88801
788.88882
788.88986
784.53537
784.53472
784.53444
784.53432
784.53435
784.53453
784.53484
784.53528
784.53584
784.53646
784.53472
784.53415
784.5339
784.53379
784.53383
784.53401
784.53433
784.53479
784.53539
784.53615
784.53444
784.5339
784.53365
784.53356
784.5336
784.5338
784.53413
784.53461
784.53523
784.53602
784.53432
784.53379
784.53356
784.53347
784.53353
784.53373
784.53408
784.53457
784.53522
784.53602
784.53435
784.53383
784.5336
784.53353
784.5336
784.53381
784.53417
784.53468
784.53533
784.53614
784.53453
784.53401
784.5338
784.53373
784.53381
784.53404
784.53441
784.53492
784.53559
784.5364
784.53484
784.53433
784.53413
784.53408
784.53417
784.53441
784.53479
784.53532
784.53599
784.53681
784.53528
784.53479
784.53461
784.53457
784.53468
784.53492
784.53532
784.53586
784.53655
784.53738
784.53584
784.53539
784.53523
784.53522
784.53533
784.53559
784.53599
784.53655
784.53725
784.53811
784.53646
784.53615
784.53602
784.53602
784.53614
784.5364
784.53681
784.53738
784.53811
784.53903
780.26738
780.26683
780.26661
780.26653
780.26657
780.26674
780.26702
780.26742
780.2679
780.26845
780.26683
780.26637
780.26617
780.26609
780.26614
780.26631
780.2666
780.26701
780.26754
780.2682
780.26661
780.26617
780.26598
780.26591
780.26597
780.26615
780.26645
780.26687
780.26742
780.26811
780.26653
780.26609
780.26591
780.26585
780.26592
780.26611
780.26642
780.26686
780.26742
780.26812
780.26657
780.26614
780.26597
780.26592
780.26599
780.26619
780.26651
780.26696
780.26754
780.26824
780.26674
780.26631
780.26615
780.26611
780.26619
780.2664
780.26673
780.26719
780.26777
780.26848
780.26702
780.2666
780.26645
780.26642
780.26651
780.26673
780.26707
780.26754
780.26813
780.26885
780.26742
780.26701
780.26687
780.26686
780.26696
780.26719
780.26754
780.26802
780.26862
780.26935
780.2679
780.26754
780.26742
780.26742
780.26754
780.26777
780.26813
780.26862
780.26924
780.26999
780.26845
780.2682
780.26811
780.26812
780.26824
780.26848
780.26885
780.26935
780.26999
780.27079
776.07857
776.07814
776.07798
776.07793
776.07798
776.07814
776.07839
776.07873
776.07915
776.07961
776.07814
776.07778
776.07763
776.07758
776.07764
776.0778
776.07806
776.07841
776.07886
776.07943
776.07798
776.07763
776.07749
776.07745
776.07752
776.07768
776.07795
776.07831
776.07879
776.07937
776.07793
776.07758
776.07745
776.07742
776.07749
776.07767
776.07794
776.07832
776.0788
776.0794
776.07798
776.07764
776.07752
776.07749
776.07757
776.07775
776.07804
776.07842
776.07892
776.07951
776.07814
776.0778
776.07768
776.07767
776.07775
776.07794
776.07824
776.07863
776.07913
776.07973
776.07839
776.07806
776.07795
776.07794
776.07804
776.07824
776.07854
776.07894
776.07944
776.08005
776.07873
776.07841
776.07831
776.07832
776.07842
776.07863
776.07894
776.07935
776.07987
776.08048
776.07915
776.07886
776.07879
776.0788
776.07892
776.07913
776.07944
776.07987
776.0804
776.08103
776.07961
776.07943
776.07937
776.0794
776.07951
776.07973
776.08005
776.08048
776.08103
776.08171
771.96559
771.96528
771.96518
771.96516
771.96522
771.96536
771.96558
771.96587
771.96622
771.9666
771.96528
771.96502
771.96492
771.96491
771.96498
771.96512
771.96534
771.96564
771.96602
771.96648
771.96518
771.96492
771.96483
771.96483
771.9649
771.96505
771.96528
771.96559
771.96597
771.96645
771.96516
771.96491
771.96483
771.96482
771.9649
771.96506
771.96529
771.96561
771.96601
771.96649
771.96522
771.96498
771.9649
771.9649
771.96498
771.96515
771.96539
771.96571
771.96612
771.96661
771.96536
771.96512
771.96505
771.96506
771.96515
771.96532
771.96557
771.9659
771.96631
771.9668
771.96558
771.96534
771.96528
771.96529
771.96539
771.96557
771.96582
771.96616
771.96658
771.96707
771.96587
771.96564
771.96559
771.96561
771.96571
771.9659
771.96616
771.9665
771.96693
771.96743
771.96622
771.96602
771.96597
771.96601
771.96612
771.96631
771.96658
771.96693
771.96736
771.96788
771.9666
771.96648
771.96645
771.96649
771.96661
771.9668
771.96707
771.96743
771.96788
771.96844
767.92519
767.92499
767.92494
767.92495
767.92503
767.92515
767.92534
767.92557
767.92585
767.92615
767.92499
767.92483
767.92479
767.9248
767.92488
767.92501
767.92519
767.92543
767.92573
767.92608
767.92494
767.92479
767.92475
767.92477
767.92485
767.92498
767.92517
767.92542
767.92572
767.92609
767.92495
767.9248
767.92477
767.92479
767.92487
767.92501
767.92521
767.92546
767.92577
767.92615
767.92503
767.92488
767.92485
767.92487
767.92496
767.9251
767.9253
767.92556
767.92588
767.92626
767.92515
767.92501
767.92498
767.92501
767.9251
767.92525
767.92546
767.92572
767.92604
767.92642
767.92534
767.92519
767.92517
767.92521
767.9253
767.92546
767.92567
767.92593
767.92626
767.92664
767.92557
767.92543
767.92542
767.92546
767.92556
767.92572
767.92593
767.92621
767.92654
767.92693
767.92585
767.92573
767.92572
767.92577
767.92588
767.92604
767.92626
767.92654
767.92688
767.92728
767.92615
767.92608
767.92609
767.92615
767.92626
767.92642
767.92664
767.92693
767.92728
767.92772
763.95417
763.95409
763.9541
763.95414
763.95422
763.95434
763.95448
763.95466
763.95486
763.95508
763.95409
763.95403
763.95404
763.95409
763.95417
763.95428
763.95443
763.95461
763.95483
763.95508
763.9541
763.95404
763.95405
763.9541
763.95418
763.9543
763.95445
763.95464
763.95486
763.95512
763.95414
763.95409
763.9541
763.95415
763.95424
763.95436
763.95451
763.9547
763.95493
763.95519
763.95422
763.95417
763.95418
763.95424
763.95432
763.95445
763.9546
763.9548
763.95502
763.95529
763.95434
763.95428
763.9543
763.95436
763.95445
763.95457
763.95473
763.95493
763.95516
763.95543
763.95448
763.95443
763.95445
763.95451
763.9546
763.95473
763.95489
763.95509
763.95533
763.9556
763.95466
763.95461
763.95464
763.9547
763.9548
763.95493
763.95509
763.9553
763.95554
763.95581
763.95486
763.95483
763.95486
763.95493
763.95502
763.95516
763.95533
763.95554
763.95578
763.95606
763.95508
763.95508
763.95512
763.95519
763.95529
763.95543
763.9556
763.95581
763.95606
763.95637
760.04948
760.04951
760.04957
760.04965
760.04973
760.04983
760.04994
760.05006
760.05019
760.05032
760.04951
760.04955
760.04961
760.04968
760.04977
760.04987
760.04998
760.0501
760.05023
760.05038
760.04957
760.04961
760.04967
760.04975
760.04983
760.04993
760.05004
760.05016
760.0503
760.05045
760.04965
760.04968
760.04975
760.04982
760.04991
760.05001
760.05012
760.05024
760.05038
760.05053
760.04973
760.04977
760.04983
760.04991
760.04999
760.0501
760.05021
760.05033
760.05047
760.05063
760.04983
760.04987
760.04993
760.05001
760.0501
760.0502
760.05031
760.05044
760.05058
760.05073
760.04994
760.04998
760.05004
760.05012
760.05021
760.05031
760.05043
760.05056
760.0507
760.05085
760.05006
760.0501
760.05016
760.05024
760.05033
760.05044
760.05056
760.05069
760.05083
760.05099
760.05019
760.05023
760.0503
760.05038
760.05047
760.05058
760.0507
760.05083
760.05098
760.05115
760.05032
760.05038
760.05045
760.05053
760.05063
760.05073
760.05085
760.05099
760.05115
760.05133
756.20811
756.20826
756.20838
756.20848
756.20857
756.20865
756.20872
756.20878
756.20884
756.20889
756.20826
756.2084
756.20851
756.20861
756.2087
756.20878
756.20885
756.20891
756.20897
756.20901
756.20838
756.20851
756.20862
756.20872
756.20881
756.20889
756.20896
756.20902
756.20907
756.20911
756.20848
756.20861
756.20872
756.20881
756.2089
756.20898
756.20905
756.20911
756.20916
756.2092
756.20857
756.2087
756.20881
756.2089
756.20899
756.20907
756.20914
756.2092
756.20925
756.20929
756.20865
756.20878
756.20889
756.20898
756.20907
756.20915
756.20921
756.20927
756.20932
756.20937
756.20872
756.20885
756.20896
756.20905
756.20914
756.20921
756.20928
756.20934
756.20939
756.20943
756.20878
756.20891
756.20902
756.20911
756.2092
756.20927
756.20934
756.2094
756.20945
756.2095
756.20884
756.20897
756.20907
756.20916
756.20925
756.20932
756.20939
756.20945
756.20951
756.20955
756.20889
756.20901
756.20911
756.2092
756.20929
756.20937
756.20943
756.2095
756.20955
756.2096
752.4272
752.42746
752.42763
752.42776
752.42785
752.42792
752.42795
752.42796
752.42794
752.4279
752.42746
752.42769
752.42785
752.42798
752.42807
752.42814
752.42817
752.42817
752.42814
752.42808
752.42763
752.42785
752.42801
752.42813
752.42822
752.42828
752.42831
752.42831
752.42828
752.42821
752.42776
752.42798
752.42813
752.42825
752.42834
752.4284
752.42843
752.42842
752.42839
752.42832
752.42785
752.42807
752.42822
752.42834
752.42843
752.42848
752.42851
752.4285
752.42846
752.42839
752.42792
752.42814
752.42828
752.4284
752.42848
752.42854
752.42856
752.42855
752.42851
752.42844
752.42795
752.42817
752.42831
752.42843
752.42851
752.42856
752.42858
752.42857
752.42853
752.42846
752.42796
752.42817
752.42831
752.42842
752.4285
752.42855
752.42857
752.42856
752.42851
752.42844
752.42794
752.42814
752.42828
752.42839
752.42846
752.42851
752.42853
752.42851
752.42847
752.4284
752.4279
752.42808
752.42821
752.42832
752.42839
752.42844
752.42846
752.42844
752.4284
752.42833
748.70397
748.70433
748.70455
748.70471
748.70481
748.70485
748.70485
748.7048
748.70471
748.70459
748.70433
748.70466
748.70487
748.70502
748.70512
748.70516
748.70515
748.70509
748.70499
748.70483
748.70455
748.70487
748.70507
748.70521
748.70531
748.70535
748.70534
748.70527
748.70516
748.70498
748.70471
748.70502
748.70521
748.70536
748.70544
748.70548
748.70546
748.7054
748.70527
748.7051
748.70481
748.70512
748.70531
748.70544
748.70553
748.70556
748.70554
748.70547
748.70534
748.70516
748.70485
748.70516
748.70535
748.70548
748.70556
748.70559
748.70557
748.70549
748.70536
748.70518
748.70485
748.70515
748.70534
748.70546
748.70554
748.70557
748.70554
748.70546
748.70533
748.70514
748.7048
748.70509
748.70527
748.7054
748.70547
748.70549
748.70546
748.70538
748.70524
748.70506
748.70471
748.70499
748.70516
748.70527
748.70534
748.70536
748.70533
748.70524
748.7051
748.70492
748.70459
748.70483
748.70498
748.7051
748.70516
748.70518
748.70514
748.70506
748.70492
748.70472
745.03574
745.03621
745.03648
745.03666
745.03676
745.03679
745.03674
745.03664
745.03647
745.03628
745.03621
745.03663
745.03688
745.03705
745.03715
745.03718
745.03713
745.03701
745.03683
745.03657
745.03648
745.03688
745.03712
745.03729
745.03738
745.0374
745.03735
745.03723
745.03703
745.03675
745.03666
745.03705
745.03729
745.03745
745.03754
745.03755
745.03749
745.03736
745.03716
745.03687
745.03676
745.03715
745.03738
745.03754
745.03762
745.03763
745.03757
745.03743
745.03722
745.03693
745.03679
745.03718
745.0374
745.03755
745.03763
745.03763
745.03756
745.03742
745.0372
745.03691
745.03674
745.03713
745.03735
745.03749
745.03757
745.03756
745.03749
745.03734
745.03712
745.03683
745.03664
745.03701
745.03723
745.03736
745.03743
745.03742
745.03734
745.03719
745.03696
745.03667
745.03647
745.03683
745.03703
745.03716
745.03722
745.0372
745.03712
745.03696
745.03673
745.03643
745.03628
745.03657
745.03675
745.03687
745.03693
745.03691
745.03683
745.03667
745.03643
745.03611
741.41996
741.42053
741.42084
741.42104
741.42114
741.42115
741.42108
741.42091
741.42068
741.4204
741.42053
741.42103
741.42132
741.42152
741.42162
741.42163
741.42154
741.42137
741.42111
741.42075
741.42084
741.42132
741.42161
741.4218
741.42189
741.42189
741.4218
741.42161
741.42133
741.42096
741.42104
741.42152
741.4218
741.42197
741.42206
741.42205
741.42195
741.42176
741.42147
741.42109
741.42114
741.42162
741.42189
741.42206
741.42214
741.42212
741.42202
741.42182
741.42152
741.42113
741.42115
741.42163
741.42189
741.42205
741.42212
741.4221
741.42199
741.42178
741.42148
741.42108
741.42108
741.42154
741.4218
741.42195
741.42202
741.42199
741.42187
741.42165
741.42135
741.42095
741.42091
741.42137
741.42161
741.42176
741.42182
741.42178
741.42165
741.42143
741.42112
741.42072
741.42068
741.42111
741.42133
741.42147
741.42152
741.42148
741.42135
741.42112
741.4208
741.42039
741.4204
741.42075
741.42096
741.42109
741.42113
741.42108
741.42095
741.42072
741.42039
741.41995
737.85417
737.85483
737.85519
737.85541
737.85551
737.85551
737.85539
737.85518
737.85487
737.85452
737.85483
737.85542
737.85575
737.85597
737.85607
737.85605
737.85593
737.8557
737.85537
737.85492
737.85519
737.85575
737.85607
737.85628
737.85637
737.85635
737.85622
737.85598
737.85562
737.85515
737.85541
737.85597
737.85628
737.85647
737.85656
737.85653
737.85639
737.85613
737.85577
737.85528
737.85551
737.85607
737.85637
737.85656
737.85663
737.85659
737.85644
737.85618
737.8558
737.85531
737.85551
737.85605
737.85635
737.85653
737.85659
737.85655
737.85639
737.85612
737.85573
737.85524
737.85539
737.85593
737.85622
737.85639
737.85644
737.85639
737.85622
737.85594
737.85555
737.85505
737.85518
737.8557
737.85598
737.85613
737.85618
737.85612
737.85594
737.85566
737.85526
737.85475
737.85487
737.85537
737.85562
737.85577
737.8558
737.85573
737.85555
737.85526
737.85485
737.85433
737.85452
737.85492
737.85515
737.85528
737.85531
737.85524
737.85505
737.85475
737.85433
737.85378
734.33603
734.33679
734.33718
734.33742
734.33753
734.3375
734.33735
734.33708
734.33672
734.33629
734.33679
734.33745
734.33782
734.33805
734.33815
734.33812
734.33796
734.33768
734.33727
734.33673
734.33718
734.33782
734.33818
734.3384
734.33849
734.33845
734.33828
734.33798
734.33755
734.33698
734.33742
734.33805
734.3384
734.33861
734.33869
734.33864
734.33846
734.33815
734.3377
734.33712
734.33753
734.33815
734.33849
734.33869
734.33876
734.3387
734.33851
734.33818
734.33773
734.33714
734.3375
734.33812
734.33845
734.33864
734.3387
734.33863
734.33842
734.33809
734.33763
734.33704
734.33735
734.33796
734.33828
734.33846
734.33851
734.33842
734.33821
734.33787
734.3374
734.3368
734.33708
734.33768
734.33798
734.33815
734.33818
734.33809
734.33787
734.33752
734.33704
734.33644
734.33672
734.33727
734.33755
734.3377
734.33773
734.33763
734.3374
734.33704
734.33655
734.33593
734.33629
734.33673
734.33698
734.33712
734.33714
734.33704
734.3368
734.33644
734.33593
734.33526
730.86333
730.86417
730.8646
730.86486
730.86496
730.86492
730.86473
730.86441
730.86398
730.86349
730.86417
730.8649
730.86531
730.86556
730.86565
730.8656
730.86541
730.86507
730.8646
730.86397
730.8646
730.86531
730.8657
730.86593
730.86602
730.86596
730.86575
730.8654
730.8649
730.86424
730.86486
730.86556
730.86593
730.86616
730.86623
730.86616
730.86594
730.86557
730.86505
730.86438
730.86496
730.86565
730.86602
730.86623
730.8663
730.86621
730.86598
730.8656
730.86507
730.86439
730.86492
730.8656
730.86596
730.86616
730.86621
730.86612
730.86587
730.86548
730.86494
730.86426
730.86473
730.86541
730.86575
730.86594
730.86598
730.86587
730.86562
730.86522
730.86467
730.86398
730.86441
730.86507
730.8654
730.86557
730.8656
730.86548
730.86522
730.8648
730.86424
730.86354
730.86398
730.8646
730.8649
730.86505
730.86507
730.86494
730.86467
730.86424
730.86367
730.86295
730.86349
730.86397
730.86424
730.86438
730.86439
730.86426
730.86398
730.86354
730.86295
730.86218
727.43395
727.43487
727.43533
727.4356
727.4357
727.43564
727.43542
727.43506
727.43457
727.434
727.43487
727.43567
727.43611
727.43637
727.43646
727.43639
727.43616
727.43577
727.43524
727.43453
727.43533
727.43611
727.43652
727.43677
727.43685
727.43677
727.43653
727.43612
727.43555
727.43481
727.4356
727.43637
727.43677
727.43701
727.43708
727.43698
727.43672
727.4363
727.43571
727.43495
727.4357
727.43646
727.43685
727.43708
727.43713
727.43703
727.43675
727.43632
727.43572
727.43495
727.43564
727.43639
727.43677
727.43698
727.43703
727.4369
727.43662
727.43617
727.43556
727.43479
727.43542
727.43616
727.43653
727.43672
727.43675
727.43662
727.43632
727.43586
727.43524
727.43446
727.43506
727.43577
727.43612
727.4363
727.43632
727.43617
727.43586
727.43539
727.43476
727.43397
727.43457
727.43524
727.43555
727.43571
727.43572
727.43556
727.43524
727.43476
727.43411
727.4333
727.434
727.43453
727.43481
727.43495
727.43495
727.43479
727.43446
727.43397
727.4333
727.43243
724.0459
724.0469
724.04739
724.04767
724.04777
724.04769
724.04743
724.04702
724.04647
724.04585
724.0469
724.04776
724.04822
724.04849
724.04858
724.04849
724.04822
724.04779
724.04719
724.04641
724.04739
724.04822
724.04867
724.04892
724.049
724.0489
724.04861
724.04816
724.04753
724.0467
724.04767
724.04849
724.04892
724.04917
724.04923
724.04911
724.04882
724.04834
724.04769
724.04685
724.04777
724.04858
724.049
724.04923
724.04928
724.04915
724.04884
724.04835
724.04768
724.04683
724.04769
724.04849
724.0489
724.04911
724.04915
724.049
724.04868
724.04817
724.0475
724.04664
724.04743
724.04822
724.04861
724.04882
724.04884
724.04868
724.04834
724.04782
724.04713
724.04627
724.04702
724.04779
724.04816
724.04834
724.04835
724.04817
724.04782
724.0473
724.04659
724.04572
724.04647
724.04719
724.04753
724.04769
724.04768
724.0475
724.04713
724.04659
724.04587
724.04497
724.04585
724.04641
724.0467
724.04685
724.04683
724.04664
724.04627
724.04572
724.04497
724.04401
720.69732
720.69838
720.6989
720.69919
720.69928
720.69917
720.69889
720.69843
720.69783
720.69715
720.69838
720.69929
720.69978
720.70006
720.70014
720.70003
720.69973
720.69925
720.6986
720.69774
720.6989
720.69978
720.70025
720.70051
720.70058
720.70045
720.70014
720.69964
720.69894
720.69805
720.69919
720.70006
720.70051
720.70076
720.70081
720.70067
720.70034