/*--------------------------------*- C++ -*----------------------------------*\
| =========                 |                                                 |
| \\      /  F ield         | OpenFOAM: The Open Source CFD Toolbox           |
|  \\    /   O peration     | Version:  v2106                                 |
|   \\  /    A nd           | Website:  www.openfoam.com                      |
|    \\/     M anipulation  |                                                 |
\*---------------------------------------------------------------------------*/
FoamFile
{
    version     2.0;
    format      ascii;
    arch        "LSB;label=32;scalar=64";
    class       volScalarField;
    location    "72.5";
    object      gradTx;
}
// * * * * * * * * * * * * * * * * * * * * * * * * * * * * * * * * * * * * * //

dimensions      [0 -1 0 1 0 0 0];

internalField   nonuniform List<scalar> 
4000
(
-0.00022263621
-0.00048917502
-0.00024632668
-0.00013346631
-4.2657581e-05
3.6333459e-05
0.00010373746
0.00015295706
0.00016337735
5.1684699e-05
-0.00019739319
-0.00044253275
-0.00023414006
-0.00012805775
-3.8827538e-05
4.0656373e-05
0.00011081205
0.00016785817
0.00019879836
6.8419323e-05
-0.00019154137
-0.00042788589
-0.0002244506
-0.00012131207
-3.3076562e-05
4.6906146e-05
0.0001191229
0.0001800812
0.00021524691
7.4494127e-05
-0.00018926878
-0.00042065668
-0.0002171815
-0.00011471063
-2.677657e-05
5.3530988e-05
0.00012669348
0.00018882377
0.00022388689
7.7154448e-05
-0.00018793567
-0.00041573163
-0.00021110349
-0.00010841292
-2.0481762e-05
5.9920427e-05
0.00013326574
0.00019529941
0.00022918699
7.8592463e-05
-0.00018671542
-0.00041107566
-0.00020513055
-0.00010211584
-1.425996e-05
6.5983395e-05
0.00013909442
0.0002005544
0.00023308769
7.9581446e-05
-0.00018505372
-0.00040515895
-0.00019822887
-9.5398635e-05
-8.0293518e-06
7.1768667e-05
0.00014446583
0.00020529388
0.00023657349
8.0463695e-05
-0.00018199903
-0.00039569022
-0.00018924911
-8.7973006e-05
-1.8590144e-06
7.7183498e-05
0.00014948053
0.00020994599
0.00024031903
8.1484419e-05
-0.00017511964
-0.0003780348
-0.00017726327
-8.0180426e-05
3.7012817e-06
8.1763143e-05
0.00015385741
0.00021455732
0.0002448554
8.2910745e-05
-0.00015838502
-0.00034382066
-0.00016416059
-7.4032923e-05
7.3417823e-06
8.456999e-05
0.00015671188
0.00021822791
0.00024982209
8.4795543e-05
-0.00097157481
-0.002177645
-0.0011538959
-0.0006357104
-0.00020019173
0.00018475356
0.00051765333
0.00077063768
0.00085814744
0.00028154343
-0.00084936648
-0.0019536982
-0.001097246
-0.00061004664
-0.00018162171
0.00020590237
0.00055275842
0.00084799056
0.0010695131
0.00038613726
-0.0008222769
-0.0018857337
-0.0010516431
-0.00057759638
-0.00015367479
0.00023640799
0.00059346946
0.00090815769
0.0011492101
0.00041514049
-0.0008115999
-0.0018514454
-0.0010166871
-0.00054558068
-0.00012299581
0.00026873429
0.00063045269
0.00095088633
0.0011912995
0.00042804994
-0.00080516772
-0.0018276197
-0.00098717712
-0.00051492144
-9.2300232e-05
0.00029992367
0.00066255482
0.00098252281
0.0012171799
0.00043506693
-0.00079921989
-0.0018049284
-0.00095806118
-0.00048420612
-6.1930197e-05
0.00032954267
0.00069105599
0.0010082449
0.0012362913
0.00043991535
-0.00079106851
-0.0017759653
-0.00092434522
-0.00045140576
-3.1491845e-05
0.0003578404
0.00071738948
0.0010315693
0.0012535389
0.00044429991
-0.0007758165
-0.0017291123
-0.0008803669
-0.00041512075
-1.3269028e-06
0.00038437733
0.0007421073
0.00105477
0.0012726
0.000449583
-0.00073949993
-0.0016384452
-0.00082144946
-0.00037704063
2.5866764e-05
0.0004068869
0.00076391449
0.0010784802
0.0012974205
0.00045774749
-0.00063490609
-0.0014380497
-0.00075858044
-0.00034715097
4.3664882e-05
0.00042073636
0.00077841596
0.0010986515
0.0013304836
0.00047162504
-0.0015674771
-0.0035597533
-0.0019472266
-0.0010794807
-0.00032244627
0.00036130163
0.00096807074
0.0014636223
0.0017517582
0.00060883365
-0.0013705064
-0.0031977389
-0.0018535398
-0.0010355433
-0.00028984584
0.00039892358
0.0010310935
0.0016040014
0.002140382
0.00080179172
-0.0013261342
-0.0030851958
-0.0017760434
-0.0009791653
-0.00024059096
0.00045310767
0.0011036863
0.0017113387
0.0022805618
0.00085221818
-0.0013080484
-0.0030265556
-0.0017153643
-0.0009229493
-0.00018632306
0.00051053118
0.0011695091
0.0017873444
0.002354933
0.00087487423
-0.0012968425
-0.0029848804
-0.0016634494
-0.00086874981
-0.00013186704
0.00056599871
0.0012266833
0.0018437015
0.0024009492
0.00088732149
-0.0012863148
-0.0029447003
-0.0016118415
-0.00081422539
-7.7858512e-05
0.00061878068
0.001277591
0.0018897572
0.002435238
0.00089602972
-0.0012717612
-0.0028930743
-0.0015518418
-0.00075585879
-2.361754e-05
0.00066936463
0.0013249225
0.0019320525
0.0024669046
0.00090416128
-0.0012442996
-0.0028090847
-0.0014734259
-0.00069122843
3.0223399e-05
0.00071701984
0.0013699051
0.0019753808
0.0025040911
0.00091483785
-0.0011781752
-0.0026453579
-0.0013684987
-0.00062349599
7.8795202e-05
0.00075771555
0.0014105461
0.0020225966
0.002560065
0.00093479098
-0.00098521711
-0.0022802811
-0.001258875
-0.00057084102
0.00011052845
0.00078297524
0.0014387583
0.0020685412
0.0026653777
0.00098504627
-0.0020992145
-0.0047866348
-0.0026430996
-0.0014591873
-0.00040053168
0.0005730722
0.0014552671
0.0022059324
0.0027079616
0.0009583954
-0.0018357925
-0.004302165
-0.0025166287
-0.0013985567
-0.00035463542
0.00062669407
0.0015457448
0.002408654
0.0032723075
0.001238982
-0.0017762347
-0.0041501832
-0.0024103221
-0.0013199442
-0.00028507233
0.00070382009
0.0016494773
0.002562148
0.0034713154
0.001310137
-0.0017514786
-0.0040693874
-0.0023257949
-0.0012408559
-0.00020816318
0.00078557836
0.0017434063
0.0026705978
0.0035769812
0.0013421859
-0.0017358142
-0.00401094
-0.0022526213
-0.0011640977
-0.0001307426
0.00086466437
0.0018250729
0.0027511369
0.003642652
0.0013599174
-0.0017208811
-0.0039539281
-0.0021793227
-0.0010865262
-5.3739518e-05
0.00094010731
0.0018980334
0.0028173163
0.0036920219
0.0013724681
-0.0017000663
-0.0038801921
-0.0020937371
-0.0010032534
2.378634e-05
0.0010126669
0.0019663208
0.0028788437
0.0037385547
0.0013845068
-0.0016605626
-0.0037597179
-0.0019816611
-0.00091093057
0.00010088754
0.0010813551
0.0020319715
0.0029433751
0.0037954545
0.0014011512
-0.0015649185
-0.0035239765
-0.0018317933
-0.00081426453
0.00017050483
0.0011403738
0.0020923795
0.0030164482
0.0038865294
0.0014344411
-0.001284332
-0.0029963641
-0.0016769874
-0.00073959387
0.00021592817
0.0011772578
0.0021354041
0.0030913497
0.0040701328
0.0015235534
-0.0025945474
-0.0059157245
-0.0032623466
-0.0017809122
-0.00043607386
0.00081691319
0.0019688761
0.0029716041
0.0036797445
0.0013109989
-0.0022680281
-0.0053154579
-0.0031054622
-0.0017047295
-0.00037755713
0.0008859655
0.0020860295
0.0032350091
0.0044149749
0.0016767705
-0.0021943696
-0.0051269583
-0.0029724854
-0.0016052873
-0.00028867144
0.00098518168
0.0022199278
0.0034332849
0.0046709477
0.0017679621
-0.0021634385
-0.0050255967
-0.002865658
-0.0015045744
-0.00019012073
0.0010903912
0.0023410637
0.003573174
0.0048068823
0.0018090769
-0.0021435812
-0.0049513333
-0.0027723303
-0.0014062822
-9.0628272e-05
0.0011923082
0.0024464971
0.0036772149
0.0048916399
0.0018319327
-0.0021244274
-0.0048781943
-0.0026782216
-0.0013065312
8.6016144e-06
0.0012897686
0.0025409925
0.003763126
0.004955831
0.0018482623
-0.0020975463
-0.0047830649
-0.0025679046
-0.0011991556
0.00010874913
0.0013838203
0.002629953
0.0038437994
0.0050172701
0.0018642327
-0.0020463251
-0.0046271425
-0.0024231874
-0.001079962
0.00020853044
0.0014732245
0.0027162503
0.0039298052
0.0050942786
0.0018869728
-0.001921943
-0.0043213841
-0.0022297396
-0.00095522563
0.00029870116
0.0015504048
0.0027966321
0.0040293062
0.0052210093
0.0019337248
-0.0015561715
-0.0036359393
-0.00203128
-0.00085926973
0.0003574792
0.0015988547
0.0028546979
0.0041335444
0.0054817733
0.0020608154
-0.0030598279
-0.006965104
-0.0038186123
-0.0020528785
-0.0004351974
0.0010853065
0.0024966999
0.0037412278
0.004642621
0.001658145
-0.0026730141
-0.0062544345
-0.0036330757
-0.0019620665
-0.00036470199
0.0011691405
0.0026395172
0.0040630541
0.0055422645
0.0021058595
-0.0025860482
-0.0060315779
-0.0034750967
-0.0018430103
-0.00025746487
0.0012894964
0.0028023989
0.0043043961
0.0058529563
0.0022162781
-0.002549323
-0.0059109188
-0.0033472969
-0.001721845
-0.00013830547
0.0014171652
0.0029496759
0.0044745201
0.0060179746
0.0022660948
-0.0025255068
-0.0058217097
-0.0032348752
-0.0016030661
-1.7713829e-05
0.0015410014
0.0030779942
0.0046012184
0.0061211261
0.0022938847
-0.0025023261
-0.0057331863
-0.0031209004
-0.001482094
0.00010285508
0.0016596839
0.003193323
0.0047062684
0.0061997087
0.0023138835
-0.0024696175
-0.0056175198
-0.0029868505
-0.0013515611
0.00022480489
0.0017745497
0.0033024161
0.0048056779
0.0062757764
0.0023337159
-0.0024071146
-0.0054274873
-0.0028107416
-0.0012064987
0.00034650225
0.0018841059
0.0034089564
0.0049128604
0.0063726395
0.0023624696
-0.0022550667
-0.0050543516
-0.0025753845
-0.0010547388
0.00045655328
0.0019790093
0.0035090081
0.0050384626
0.0065344247
0.0024224133
-0.0018073522
-0.004217152
-0.0023350316
-0.0009383289
0.00052823642
0.0020387561
0.0035818871
0.0051715088
0.0068703079
0.0025863917
-0.0034959804
-0.007940312
-0.0043198642
-0.0022823129
-0.00040499786
0.0013698082
0.0030275494
0.0045004565
0.0055812443
0.0019948808
-0.0030518627
-0.0071248445
-0.0041073129
-0.0021777276
-0.00032316997
0.0014677028
0.003194841
0.0048780227
0.0066377378
0.0025207657
-0.0029523354
-0.0068696211
-0.0039258428
-0.0020402067
-0.00019857173
0.0016081523
0.0033853418
0.0051604248
0.0070005491
0.0026494827
-0.0029101618
-0.0067308231
-0.0037783152
-0.0018997438
-5.9884998e-05
0.0017571821
0.0035575362
0.0053593845
0.0071932866
0.0027075868
-0.0028826118
-0.0066275149
-0.0036478591
-0.0017615654
8.0750486e-05
0.0019019043
0.003707706
0.0055077347
0.0073140095
0.0027400869
-0.0028556099
-0.006524397
-0.0035150302
-0.0016204216
0.00022165334
0.0020408675
0.0038429949
0.0056311517
0.0074064094
0.002763608
-0.0028173487
-0.0063891708
-0.0033583798
-0.0014678134
0.00036443592
0.0021756898
0.0039714608
0.0057486409
0.0074966117
0.0027871727
-0.0027440822
-0.0061666046
-0.003152335
-0.0012980574
0.00050711204
0.0023046223
0.0040975572
0.0058763444
0.0076127251
0.0028217542
-0.002565638
-0.0057292026
-0.0028770179
-0.0011205034
0.00063620306
0.002416596
0.0042166536
0.0060272596
0.007808451
0.0028944554
-0.0020397531
-0.0047472998
-0.0025967863
-0.00098459705
0.00072023484
0.0024872246
0.004303873
0.0061881837
0.0082168557
0.003094024
-0.0039022549
-0.0088420957
-0.004770597
-0.0024748458
-0.00035201225
0.0016625699
0.0035518828
0.0052383007
0.0064846695
0.0023177544
-0.0034041244
-0.0079279294
-0.0045327142
-0.0023573523
-0.00025952774
0.0017737337
0.0037423104
0.0056685807
0.0076895155
0.0029175764
-0.0032928108
-0.0076423733
-0.0043292625
-0.0022025273
-0.00011860638
0.0019331348
0.0039589039
0.0059897845
0.0081015328
0.0030635553
-0.0032455359
-0.0074865949
-0.004163257
-0.0020439527
3.8459724e-05
0.0021023212
0.0041546455
0.0062160024
0.0083204557
0.0031294828
-0.0032144817
-0.0073700549
-0.004015863
-0.0018875227
0.00019799517
0.0022667796
0.0043254938
0.0063848526
0.0084578086
0.0031664382
-0.0031838795
-0.007253189
-0.0038652695
-0.0017273511
0.00035811388
0.0024249487
0.0044797191
0.0065257138
0.0085633346
0.0031933043
-0.0031403725
-0.0070994899
-0.0036872754
-0.0015538779
0.00052062263
0.0025787148
0.0046266218
0.006660443
0.0086670277
0.0032204319
-0.0030569278
-0.006846168
-0.0034529344
-0.0013607612
0.00068318744
0.0027260767
0.0047713816
0.0068077765
0.0088015711
0.0032605934
-0.0028535192
-0.0063480061
-0.0031398537
-0.0011588098
0.00083033402
0.0028543052
0.0049086845
0.0069829366
0.0090298079
0.003345512
-0.0022536971
-0.0052293047
-0.0028219942
-0.0010044854
0.00092606631
0.0029352957
0.0050096182
0.0071705567
0.0095076437
0.0035791506
-0.0042773533
-0.0096692371
-0.0051732986
-0.0026346827
-0.00028175452
0.0019568262
0.0040617454
0.0059460087
0.0073443374
0.0026240565
-0.0037288066
-0.008663007
-0.0049118682
-0.0025051872
-0.00017933131
0.0020803997
0.0042738385
0.0064256723
0.0086881935
0.0032931631
-0.0036065332
-0.0083492677
-0.0046880071
-0.0023342692
-2.318821e-05
0.0022575158
0.0045148515
0.0067831951
0.0091462222
0.0034552698
-0.0035545197
-0.0081777155
-0.0045048239
-0.0021588275
0.00015103192
0.0024455509
0.0047326357
0.0070349326
0.0093896436
0.0035285115
-0.0035202029
-0.0080488542
-0.0043416475
-0.0019853678
0.00032823255
0.0026284861
0.0049228635
0.0072230011
0.0095425804
0.0035696397
-0.0034862375
-0.0079191492
-0.0041744606
-0.0018074068
0.00050634239
0.0028046663
0.0050948722
0.0073802586
0.0096604455
0.0035996494
-0.0034378205
-0.0077481647
-0.0039764963
-0.0016143975
0.00068734794
0.0029762315
0.0052591337
0.0075312467
0.0097768735
0.0036301414
-0.0033448422
-0.0074660431
-0.0037156634
-0.0013993948
0.00086857892
0.0031409366
0.0054215078
0.0076971491
0.0099288729
0.0036755902
-0.0031180447
-0.0069109783
-0.003367236
-0.0011745915
0.0010326739
0.0032844771
0.0055760241
0.0078952866
0.010187951
0.0037721015
-0.0024489381
-0.0056641583
-0.0030142134
-0.0010030366
0.0011393808
0.0033752297
0.0056899352
0.0081082268
0.010731684
0.0040380784
-0.0046198419
-0.010419747
-0.0055293081
-0.0027649312
-0.00019870953
0.0022469271
0.0045505364
0.0066164083
0.0081531884
0.002911525
-0.0040247623
-0.0093286013
-0.0052462279
-0.0026243917
-8.7111442e-05
0.0023819862
0.004782705
0.0071418518
0.0096259463
0.0036448824
-0.0038924112
-0.008988962
-0.0050036142
-0.0024386573
8.3083174e-05
0.00257549
0.0050463312
0.0075330093
0.010126539
0.003821895
-0.0038360422
-0.0088029074
-0.0048046218
-0.002247664
0.00027315179
0.0027809681
0.0052845314
0.0078083842
0.010392635
0.0039019014
-0.0037987182
-0.008662688
-0.0046268865
-0.0020584744
0.00046669407
0.0029810192
0.0054927272
0.0080142752
0.010560017
0.0039468952
-0.0037616435
-0.0085211147
-0.0044443586
-0.0018640531
0.00066147166
0.0031739096
0.0056812552
0.0081867752
0.010689355
0.0039798273
-0.0037086788
-0.0083341251
-0.0042279046
-0.0016529452
0.00085963558
0.003362016
0.0058616798
0.0083529272
0.010817673
0.0040134617
-0.0036068644
-0.0080253199
-0.0039425321
-0.0014176571
0.0010581955
0.0035428622
0.006040494
0.0085362037
0.010986032
0.0040638693
-0.0033583831
-0.0074175241
-0.0035613722
-0.0011716793
0.0012380266
0.0037006681
0.0062111083
0.0087558914
0.011274081
0.0041712752
-0.0026250258
-0.0060519691
-0.0031758437
-0.00098417896
0.0013549155
0.0038005178
0.0063371712
0.0089926117
0.011879771
0.0044676629
-0.0049283266
-0.011091426
-0.0058393165
-0.0028679026
-0.0001064832
0.0025282073
0.0050127707
0.0072435185
0.0089052471
0.0031782207
-0.0042908584
-0.0099229818
-0.0055365941
-0.0027173299
1.3481016e-05
0.0026737684
0.0052633179
0.0078108931
0.010496111
0.0039704521
-0.0041493638
-0.0095598554
-0.0052769724
-0.0025181237
0.00019648932
0.002882249
0.0055476312
0.008232822
0.011035596
0.0041610708
-0.0040890435
-0.0093606377
-0.0050636111
-0.0023129662
0.00040102344
0.003103674
0.0058045114
0.0085298239
0.01132242
0.0042472561
-0.004048982
-0.0092100765
-0.0048726087
-0.0021094228
0.00060950068
0.0033193886
0.0060291643
0.0087520418
0.011503029
0.0042957875
-0.0040090674
-0.0090576652
-0.0046760687
-0.0018999549
0.00081953334
0.0035275942
0.0062328508
0.0089385399
0.011642905
0.0043314034
-0.0039519413
-0.0088560348
-0.0044427031
-0.0016722831
0.0010334209
0.0037308863
0.0064281437
0.0091186662
0.011782194
0.0043679389
-0.0038420359
-0.0085228046
-0.0041348752
-0.0014184218
0.0012478727
0.0039265735
0.0066221198
0.0093180107
0.011965714
0.0044229461
-0.0035736916
-0.0078667313
-0.0037237723
-0.0011530632
0.0014421369
0.0040975107
0.0068076146
0.0095576863
0.012280685
0.0045404829
-0.0027814602
-0.0063924561
-0.0033085662
-0.00095098816
0.0015683578
0.0042057378
0.0069449286
0.0098165022
0.012944027
0.004865174
-0.0052015369
-0.011682149
-0.0061036683
-0.0029453515
-7.9803925e-06
0.0027968223
0.00544388
0.0078223112
0.0095954112
0.0034224694
-0.0045260561
-0.010444443
-0.0057834116
-0.0027858055
0.00011949976
0.0029518482
0.0057110143
0.0084275524
0.011292976
0.004267895
-0.0043763998
-0.010060362
-0.0055086082
-0.0025745364
0.00031402157
0.0031738194
0.0060139827
0.0088772313
0.011867483
0.0044707514
-0.0043125516
-0.0098493833
-0.0052823865
-0.0023566698
0.00053156713
0.0034096143
0.0062877104
0.009193738
0.012172983
0.0045624986
-0.0042700358
-0.0096895464
-0.0050794725
-0.0021402186
0.00075349744
0.0036394589
0.0065272222
0.0094307002
0.012365532
0.0046142208
-0.0042275648
-0.0095273813
-0.0048703191
-0.0019171939
0.00097729309
0.0038615024
0.0067446234
0.0096298743
0.012514952
0.0046522673
-0.0041666852
-0.0093125494
-0.0046217064
-0.001674579
0.0012053855
0.0040785408
0.0069534049
0.0098227041
0.012664229
0.0046914461
-0.0040494752
-0.0089572785
-0.0042936231
-0.0014039544
0.001434206
0.004287685
0.0071611766
0.010036716
0.012861622
0.0047506669
-0.0037631911
-0.0082576293
-0.0038555208
-0.0011211101
0.0016415218
0.0044705447
0.007360247
0.0102947
0.013201311
0.0048775118
-0.0029177655
-0.0066852064
-0.0034136154
-0.000905906
0.0017761749
0.0045863827
0.0075078464
0.010573798
0.013917664
0.0052282356
-0.0054383717
-0.012190034
-0.006322554
-0.0029986561
9.4436206e-05
0.003049598
0.005840058
0.0083485585
0.010219333
0.0036428332
-0.0047294555
-0.010891467
-0.0059869573
-0.0028312397
0.00022854569
0.0032130051
0.006121906
0.0089874147
0.012011668
0.0045355107
-0.00457266
-0.010489064
-0.0056988708
-0.0026093736
0.00043322568
0.0034469149
0.0064414059
0.0094616862
0.012617159
0.0047491775
-0.0045057244
-0.010267784
-0.0054613576
-0.002380313
0.00066226598
0.0036954323
0.0067300651
0.0097954791
0.012939191
0.0048458425
-0.0044610491
-0.010099782
-0.0052479441
-0.0021524622
0.00089610166
0.0039378027
0.0069827628
0.010045528
0.01314233
0.004900393
-0.004416318
-0.0099289942
-0.0050276373
-0.001917437
0.0011320994
0.0041721362
0.0072123634
0.01025599
0.013300253
0.0049406044
-0.0043521111
-0.0097024648
-0.0047655169
-0.0016615744
0.0013728056
0.0044014095
0.0074331819
0.010460184
0.013458482
0.0049821543
-0.0042284193
-0.0093276463
-0.0044194782
-0.00137608
0.0016143977
0.0046225553
0.0076533071
0.010687382
0.013668382
0.0050451792
-0.003926207
-0.0085893371
-0.0039574525
-0.0010777321
0.0018333166
0.0048160652
0.0078645738
0.01096189
0.014030445
0.0051804574
-0.0030335295
-0.0069298207
-0.0034919549
-0.00085090896
0.0019754595
0.0049387071
0.008021436
0.011259345
0.01479487
0.0055547962
-0.0056379259
-0.01261354
-0.0064961356
-0.0030289501
0.00019881828
0.0032839082
0.0061981431
0.0088187286
0.010773351
0.0038380938
-0.0049003211
-0.011262816
-0.006147466
-0.0028548026
0.0003386397
0.0034545737
0.0064927625
0.0094867911
0.012648081
0.0047718597
-0.0047374432
-0.010844813
-0.0058480552
-0.0026238536
0.00055207591
0.0036988146
0.0068265931
0.0099823839
0.013280375
0.004994861
-0.0046678747
-0.010614736
-0.0056008706
-0.0023851653
0.00079104114
0.0039583479
0.0071281981
0.010331163
0.013616719
0.005095777
-0.0046213449
-0.010439716
-0.0053784179
-0.0021474757
0.0010351788
0.0042115805
0.0073923456
0.01059258
0.01382905
0.0051527801
-0.0045746604
-0.010261478
-0.0051484692
-0.0019020624
0.0012817599
0.0044565968
0.0076325707
0.010812886
0.013994392
0.0051948802
-0.0045075679
-0.01002481
-0.0048746437
-0.0016347098
0.0015334278
0.0046965332
0.0078639138
0.011027046
0.014160489
0.0052385167
-0.0043782475
-0.0096330279
-0.0045130335
-0.0013363099
0.0017861325
0.0049281651
0.0080948872
0.011265878
0.014381465
0.005304916
-0.0040621929
-0.0088611545
-0.0040302714
-0.0010245132
0.0020151501
0.0051309991
0.0083169065
0.01155504
0.014763435
0.0054477066
-0.0031284271
-0.0071260038
-0.0035443954
-0.00078763447
0.0021638049
0.005259604
0.0084819603
0.011868825
0.015570731
0.0058431134
-0.0057995068
-0.012951528
-0.0066246321
-0.0030372196
0.00030353362
0.0034975795
0.0065155307
0.0092299135
0.011254437
0.0040072424
-0.0050380975
-0.011557599
-0.0062652144
-0.0028575091
0.00044812481
0.0036743487
0.0068209235
0.0099226466
0.01319883
0.004975754
-0.0048702212
-0.011126784
-0.0059564858
-0.0026190298
0.00066887768
0.0039272688
0.0071668223
0.010436197
0.013853633
0.0052065749
-0.0047984857
-0.010889453
-0.0057012909
-0.0023723211
0.00091615519
0.004196063
0.0074793307
0.010797599
0.014202008
0.0053110574
-0.0047504142
-0.010708594
-0.0054712978
-0.002126396
0.0011689464
0.0044584465
0.007753141
0.011068614
0.014422092
0.0053701267
-0.0047020915
-0.010524109
-0.0052332605
-0.0018722524
0.001424445
0.0047124901
0.0080023673
0.011297274
0.014593734
0.0054138305
-0.0046325681
-0.010278905
-0.0049495835
-0.0015952183
0.0016853735
0.0049614688
0.0082426731
0.011519956
0.014766579
0.0054592593
-0.0044984964
-0.0098728173
-0.0045748534
-0.0012859336
0.0019474816
0.0052020222
0.0084829363
0.011768812
0.014997142
0.0055285859
-0.004170746
-0.0090726208
-0.0040746309
-0.00096280165
0.002185048
0.0054128103
0.0087142116
0.012070681
0.015396452
0.0056779285
-0.0032022344
-0.007273622
-0.0035716759
-0.0007174739
0.0023392078
0.0055465092
0.0088863446
0.012398684
0.01624119
0.0060917449
-0.0059226444
-0.013203303
-0.0067083786
-0.0030243722
0.00040719263
0.003688819
0.0067901084
0.0095797767
0.011660173
0.0041494726
-0.0051424196
-0.01177531
-0.0063405795
-0.002840288
0.00055559286
0.0038705136
0.0071042342
0.010292548
0.013661221
0.0051462504
-0.0049706488
-0.011334521
-0.0060245745
-0.0025958594
0.00078219457
0.0041304268
0.0074598913
0.010820624
0.014334153
0.0053833472
-0.0048972202
-0.011091506
-0.0057630606
-0.0023427685
0.0010361393
0.0044066908
0.0077812178
0.011192234
0.014692232
0.005490698
-0.004847926
-0.010906008
-0.005527055
-0.0020902432
0.0012959015
0.0046764769
0.0080628653
0.011471039
0.014918601
0.0055514392
-0.0047982868
-0.010716504
-0.0052825141
-0.0018290616
0.0015586158
0.0049378555
0.0083194319
0.011706528
0.015095398
0.0055964552
-0.0047267963
-0.0104644
-0.0049908778
-0.0015441931
0.0018270661
0.0051942176
0.0085670996
0.011936248
0.01527384
0.0056433736
-0.0045888696
-0.010046721
-0.0046055305
-0.0012260876
0.0020968298
0.0054420898
0.0088150529
0.012193473
0.015512456
0.0057151661
-0.0042516156
-0.0092235528
-0.0040911912
-0.00089377835
0.0023413601
0.0056594273
0.0090540445
0.01250604
0.015926448
0.0058700677
-0.0032548378
-0.0073727409
-0.0035745198
-0.00064164036
0.0024999959
0.0057973289
0.0092321109
0.012846081
0.016803011
0.0062995418
-0.0060070964
-0.013368642
-0.0067478647
-0.0029912866
0.00050859382
0.0038561605
0.0070202059
0.0098665133
0.011988717
0.0042641751
-0.0052131175
-0.011915851
-0.0063740781
-0.0028040315
0.00065983
0.0040415855
0.0073409953
0.010594623
0.014033223
0.005282645
-0.0050385688
-0.011467957
-0.0060528598
-0.0025552531
0.00089079395
0.004306783
0.007704069
0.011133745
0.01471985
0.005524455
-0.0049639264
-0.011220846
-0.0057867375
-0.0022974383
0.0011497392
0.0045887007
0.008032099
0.011513117
0.015085273
0.0056339672
-0.0049137321
-0.011031924
-0.0055462666
-0.0020399698
0.0014147663
0.0048641162
0.008319731
0.011797876
0.015316436
0.0056959802
-0.0048631023
-0.010838646
-0.0052968283
-0.001773466
0.00168297
0.0051311113
0.0085819505
0.012038646
0.015497225
0.0057420121
-0.0047901154
-0.010581301
-0.0049991514
-0.0014826366
0.0019571768
0.0053931712
0.0088353514
0.012273893
0.01568009
0.0057901113
-0.0046492427
-0.010154783
-0.0046057246
-0.001157804
0.0022328214
0.0056467317
0.0090893638
0.012537794
0.015925189
0.0058638975
-0.0043047089
-0.0093140695
-0.0040806575
-0.00081850585
0.002482706
0.0058691888
0.0093344995
0.012859003
0.01635114
0.0060233387
-0.0032862391
-0.0074236496
-0.0035536742
-0.00056121812
0.0026447734
0.0060103855
0.0095173277
0.013208845
0.01725376
0.0064656439
-0.0060528509
-0.013447802
-0.0067437619
-0.002938848
0.00060668357
0.0039984228
0.0072045573
0.01008882
0.012238789
0.0043509325
-0.0052502186
-0.011979547
-0.0063663934
-0.0027496307
0.0007597765
0.0041863746
0.0075299252
0.010827532
0.01431345
0.0053844677
-0.0050740145
-0.011527432
-0.0060420333
-0.0024981102
0.00099360674
0.0044551355
0.0078980566
0.011374195
0.015009309
0.0056294196
-0.0049986396
-0.011277819
-0.0057730219
-0.0022372397
0.0012558745
0.0047408778
0.0082306599
0.011758864
0.015379702
0.0057403815
-0.0049478697
-0.011086695
-0.0055296423
-0.0019764958
0.0015244481
0.0050201353
0.0085224086
0.012047727
0.015614157
0.0058032634
-0.0048965777
-0.010890896
-0.005276924
-0.0017063984
0.0017964011
0.005291014
0.008788578
0.012292214
0.015797764
0.005850012
-0.0048225685
-0.010629982
-0.0049751391
-0.0014114959
0.0020745843
0.0055570698
0.0090460658
0.012531459
0.015983862
0.0058989793
-0.0046796657
-0.010197396
-0.0045761893
-0.0010820465
0.0023543192
0.0058146712
0.009304486
0.01280032
0.016233849
0.0059742787
-0.0043300935
-0.0093446062
-0.0040438075
-0.00073796409
0.0026079346
0.0060408018
0.0095541714
0.01312808
0.016668984
0.0061372208
-0.0032965583
-0.0074268757
-0.0035099368
-0.00047719826
0.0027723804
0.0061843756
0.0097405715
0.013485442
0.017591778
0.0065894744
-0.0060601256
-0.013441529
-0.0066969401
-0.0028679734
0.00070052606
0.0041146782
0.0073422711
0.010245867
0.012409647
0.0044095151
-0.0052539481
-0.011967155
-0.0063183918
-0.002678001
0.00085449655
0.0043039522
0.0076701296
0.010990439
0.01450114
0.0054514779
-0.0050772096
-0.011513696
-0.0059929571
-0.0024253442
0.0010896972
0.0045745542
0.0080409576
0.011541136
0.015201768
0.0056980008
-0.0050015825
-0.011263172
-0.0057227738
-0.0021630854
0.0013536087
0.0048622902
0.0083760013
0.011928633
0.015574756
0.0058097011
-0.0049505614
-0.011071067
-0.0054780415
-0.0019007346
0.0016240089
0.0051436
0.0086699956
0.012219749
0.015810999
0.0058730485
-0.0048989355
-0.010874001
-0.0052236616
-0.0016287737
0.0018979682
0.0054166251
0.0089384073
0.012466382
0.015996243
0.0059202137
-0.0048243788
-0.010611191
-0.0049197035
-0.0013316888
0.0021783438
0.0056849697
0.0091983285
0.012708088
0.016184378
0.0059697339
-0.0046803632
-0.010175314
-0.0045177899
-0.0009997356
0.0024603743
0.0059449579
0.0094594955
0.012980178
0.016437643
0.0060460613
-0.0043279971
-0.0093159215
-0.0039815092
-0.00065307642
0.0027160928
0.0061733092
0.0097121239
0.013312377
0.016879156
0.0062114528
-0.0032860343
-0.007383193
-0.0034441745
-0.00039050485
0.0028818616
0.0063183373
0.0099008954
0.013674955
0.017816166
0.0066707348
-0.006029365
-0.013351055
-0.0066084772
-0.0027796286
0.0007892805
0.0042042272
0.0074328042
0.010337278
0.012501075
0.0044398756
-0.005224726
-0.011879856
-0.006231133
-0.002590099
0.00094315541
0.0043936248
0.0077610756
0.01108299
0.014596137
0.0054836581
-0.005048566
-0.011427909
-0.005906674
-0.0023379003
0.0011782397
0.0046643553
0.0081322513
0.011634231
0.015297097
0.0057301917
-0.0049731631
-0.011178053
-0.0056370233
-0.0020759096
0.0014421261
0.0049522634
0.0084676132
0.012022103
0.015670317
0.0058419231
-0.0049222129
-0.010986181
-0.0053924846
-0.0018136107
0.0017126417
0.005233844
0.0087619906
0.012313625
0.015906851
0.0059053347
-0.0048705799
-0.010789094
-0.0051380526
-0.0015415076
0.0019868725
0.0055072854
0.0090309424
0.012560841
0.016092558
0.005952617
-0.0047959478
-0.010526053
-0.0048338461
-0.001244122
0.0022676637
0.0057762168
0.0092916467
0.012803471
0.016281533
0.0060023752
-0.0046517323
-0.010089647
-0.0044315149
-0.00091176829
0.0025502016
0.0060369416
0.0095539
0.013077057
0.01653646
0.0060792434
-0.0042988065
-0.0092290989
-0.0038947327
-0.00056472873
0.0028064016
0.0062660629
0.0098078627
0.013411575
0.016981529
0.0062460267
-0.0032550239
-0.0072936247
-0.0033573352
-0.00030201427
0.0029724424
0.0064116236
0.0099978022
0.013777053
0.017926762
0.0067093986
-0.0059612362
-0.013178093
-0.0064796643
-0.0026748415
0.00087218288
0.0042665764
0.0074759399
0.010363107
0.01251336
0.0044421437
-0.0051631636
-0.011719259
-0.0061058755
-0.0024869362
0.001025001
0.0044549129
0.0078025691
0.011105288
0.014598869
0.0054812077
-0.0049886798
-0.011271638
-0.0057844132
-0.0022367685
0.0012585004
0.0047240785
0.0081717698
0.011653626
0.015295778
0.0057262116
-0.004913971
-0.011024007
-0.0055169765
-0.0019766816
0.0015207124
0.0050103579
0.0085053514
0.012039444
0.015666896
0.0058372754
-0.0048634097
-0.010833565
-0.0052741586
-0.0017160738
0.0017896515
0.0052904469
0.0087982685
0.012329547
0.015902239
0.0059003542
-0.0048120923
-0.01063769
-0.0050212651
-0.0014455305
0.0020624373
0.0055625918
0.0090660744
0.012575795
0.016087244
0.0059474571
-0.004737852
-0.010376063
-0.0047187136
-0.0011497054
0.0023418854
0.0058304237
0.0093259251
0.012817823
0.01627587
0.0059971397
-0.0045943395
-0.00994186
-0.0043184828
-0.00081903183
0.0026231603
0.0060902484
0.0095876148
0.013091181
0.016530849
0.0060740627
-0.0042430641
-0.0090855439
-0.0037845577
-0.00047378415
0.0028782359
0.0063187003
0.0098413112
0.013425904
0.016976655
0.0062411812
-0.0032040001
-0.0071594421
-0.0032504562
-0.00021257013
0.0030435084
0.0064638785
0.01003122
0.013791966
0.017924117
0.0067057043
-0.0058566225
-0.012924825
-0.0063120071
-0.0025547109
0.00094853044
0.0043014196
0.0074717657
0.010323816
0.012447275
0.0044166202
-0.0050700582
-0.011487382
-0.0059440785
-0.0023695883
0.0010993481
0.0044875307
0.0077947325
0.011057877
0.014510326
0.0054445362
-0.0048983271
-0.011046847
-0.0056275925
-0.0021229941
0.0013298209
0.004753468
0.0081596758
0.01159992
0.015198881
0.0056864985
-0.0048247725
-0.010802967
-0.0053640184
-0.0018664159
0.0015887387
0.0050363488
0.0084894143
0.0119813
0.015565603
0.0057962089
-0.004774912
-0.01061513
-0.0051244201
-0.001609109
0.0018544387
0.0053132136
0.0087790582
0.012268188
0.015798301
0.0058585648
-0.0047242273
-0.010421677
-0.0048746279
-0.001341798
0.0021240917
0.0055823766
0.0090440585
0.012511941
0.015981455
0.0059051959
-0.0046508379
-0.010163082
-0.0045756019
-0.0010493634
0.0024004665
0.0058474484
0.0093014415
0.012751862
0.016168556
0.0059544932
-0.0045089161
-0.0097337668
-0.0041799461
-0.00072241563
0.002678736
0.0061047599
0.0095609386
0.013023285
0.016421992
0.0060309893