/*--------------------------------*- C++ -*----------------------------------*\
| =========                 |                                                 |
| \\      /  F ield         | OpenFOAM: The Open Source CFD Toolbox           |
|  \\    /   O peration     | Version:  v2106                                 |
|   \\  /    A nd           | Website:  www.openfoam.com                      |
|    \\/     M anipulation  |                                                 |
\*---------------------------------------------------------------------------*/
FoamFile
{
    version     2.0;
    format      ascii;
    arch        "LSB;label=32;scalar=64";
    class       volScalarField;
    location    "72.5";
    object      T;
}
// * * * * * * * * * * * * * * * * * * * * * * * * * * * * * * * * * * * * * //

dimensions      [0 0 0 1 0 0 0];

internalField   nonuniform List<scalar> 
4000
(
275.15051
275.1505
275.1505
275.1505
275.1505
275.1505
275.1505
275.1505
275.1505
275.1505
275.1505
275.1505
275.1505
275.15049
275.15049
275.15049
275.15049
275.15049
275.1505
275.1505
275.1505
275.1505
275.15049
275.15049
275.15049
275.15049
275.15049
275.15049
275.15049
275.1505
275.1505
275.15049
275.15049
275.15049
275.15049
275.15049
275.15049
275.15049
275.15049
275.1505
275.1505
275.15049
275.15049
275.15049
275.15049
275.15049
275.15049
275.15049
275.15049
275.1505
275.1505
275.15049
275.15049
275.15049
275.15049
275.15049
275.15049
275.15049
275.15049
275.1505
275.1505
275.15049
275.15049
275.15049
275.15049
275.15049
275.15049
275.15049
275.15049
275.1505
275.1505
275.15049
275.15049
275.15049
275.15049
275.15049
275.15049
275.15049
275.1505
275.1505
275.1505
275.1505
275.15049
275.15049
275.15049
275.15049
275.15049
275.1505
275.1505
275.1505
275.1505
275.1505
275.1505
275.1505
275.1505
275.1505
275.1505
275.1505
275.1505
275.1505
283.55524
283.55521
283.5552
283.55519
283.55518
283.55518
283.55519
283.55519
283.5552
283.55521
283.55521
283.55518
283.55517
283.55516
283.55516
283.55516
283.55516
283.55517
283.55518
283.55519
283.5552
283.55517
283.55516
283.55515
283.55515
283.55515
283.55515
283.55516
283.55517
283.55518
283.55519
283.55516
283.55515
283.55514
283.55514
283.55514
283.55514
283.55515
283.55516
283.55518
283.55518
283.55516
283.55515
283.55514
283.55514
283.55514
283.55514
283.55515
283.55516
283.55517
283.55518
283.55516
283.55515
283.55514
283.55514
283.55514
283.55514
283.55515
283.55516
283.55518
283.55519
283.55516
283.55515
283.55514
283.55514
283.55514
283.55515
283.55516
283.55517
283.55518
283.55519
283.55517
283.55516
283.55515
283.55515
283.55515
283.55516
283.55517
283.55518
283.55519
283.5552
283.55518
283.55517
283.55516
283.55516
283.55516
283.55517
283.55518
283.55519
283.5552
283.55521
283.55519
283.55518
283.55518
283.55517
283.55518
283.55518
283.55519
283.5552
283.55522
291.90551
291.90546
291.90544
291.90542
291.90542
291.90542
291.90542
291.90544
291.90545
291.90547
291.90546
291.90542
291.9054
291.90539
291.90538
291.90538
291.90539
291.9054
291.90542
291.90544
291.90544
291.9054
291.90538
291.90536
291.90536
291.90536
291.90537
291.90538
291.9054
291.90543
291.90542
291.90539
291.90536
291.90535
291.90535
291.90535
291.90536
291.90537
291.90539
291.90542
291.90542
291.90538
291.90536
291.90535
291.90534
291.90534
291.90535
291.90537
291.90539
291.90542
291.90542
291.90538
291.90536
291.90535
291.90534
291.90535
291.90536
291.90537
291.90539
291.90542
291.90542
291.90539
291.90537
291.90536
291.90535
291.90536
291.90537
291.90538
291.9054
291.90543
291.90544
291.9054
291.90538
291.90537
291.90537
291.90537
291.90538
291.9054
291.90542
291.90545
291.90545
291.90542
291.9054
291.90539
291.90539
291.90539
291.9054
291.90542
291.90544
291.90547
291.90547
291.90544
291.90543
291.90542
291.90542
291.90542
291.90543
291.90545
291.90547
291.9055
300.20257
300.2025
300.20247
300.20245
300.20244
300.20244
300.20245
300.20247
300.2025
300.20253
300.2025
300.20245
300.20242
300.2024
300.20239
300.20239
300.2024
300.20242
300.20245
300.20249
300.20247
300.20242
300.20239
300.20237
300.20236
300.20236
300.20237
300.2024
300.20243
300.20247
300.20245
300.2024
300.20237
300.20235
300.20234
300.20235
300.20236
300.20238
300.20241
300.20245
300.20244
300.20239
300.20236
300.20234
300.20234
300.20234
300.20235
300.20238
300.20241
300.20245
300.20244
300.20239
300.20236
300.20235
300.20234
300.20235
300.20236
300.20238
300.20242
300.20246
300.20245
300.2024
300.20237
300.20236
300.20235
300.20236
300.20237
300.2024
300.20243
300.20247
300.20247
300.20242
300.2024
300.20238
300.20238
300.20238
300.2024
300.20242
300.20246
300.2025
300.2025
300.20245
300.20243
300.20241
300.20241
300.20242
300.20243
300.20246
300.20249
300.20254
300.20253
300.20249
300.20247
300.20245
300.20245
300.20246
300.20247
300.2025
300.20254
300.20258
308.4476
308.44752
308.44748
308.44745
308.44744
308.44745
308.44746
308.44748
308.44752
308.44756
308.44752
308.44745
308.44741
308.44739
308.44738
308.44738
308.4474
308.44742
308.44746
308.44751
308.44748
308.44741
308.44738
308.44735
308.44734
308.44735
308.44736
308.44739
308.44743
308.44749
308.44745
308.44739
308.44735
308.44733
308.44732
308.44733
308.44735
308.44737
308.44742
308.44747
308.44744
308.44738
308.44734
308.44732
308.44732
308.44732
308.44734
308.44737
308.44741
308.44747
308.44745
308.44738
308.44735
308.44733
308.44732
308.44733
308.44735
308.44738
308.44742
308.44748
308.44746
308.4474
308.44736
308.44735
308.44734
308.44735
308.44737
308.4474
308.44744
308.4475
308.44748
308.44742
308.44739
308.44737
308.44737
308.44738
308.4474
308.44743
308.44748
308.44754
308.44752
308.44746
308.44743
308.44742
308.44741
308.44742
308.44744
308.44748
308.44753
308.44758
308.44756
308.44751
308.44749
308.44747
308.44747
308.44748
308.4475
308.44754
308.44758
308.44764
316.64175
316.64166
316.64162
316.64159
316.64157
316.64158
316.6416
316.64163
316.64167
316.64172
316.64166
316.64158
316.64154
316.64151
316.6415
316.6415
316.64152
316.64156
316.6416
316.64167
316.64162
316.64154
316.64149
316.64147
316.64146
316.64146
316.64148
316.64152
316.64157
316.64164
316.64159
316.64151
316.64147
316.64144
316.64143
316.64144
316.64146
316.6415
316.64155
316.64162
316.64157
316.6415
316.64146
316.64143
316.64143
316.64143
316.64146
316.6415
316.64155
316.64162
316.64158
316.6415
316.64146
316.64144
316.64143
316.64144
316.64147
316.64151
316.64156
316.64163
316.6416
316.64152
316.64148
316.64146
316.64146
316.64147
316.64149
316.64153
316.64159
316.64166
316.64163
316.64156
316.64152
316.6415
316.6415
316.64151
316.64153
316.64157
316.64163
316.6417
316.64167
316.6416
316.64157
316.64155
316.64155
316.64156
316.64159
316.64163
316.64169
316.64176
316.64172
316.64167
316.64164
316.64162
316.64162
316.64163
316.64166
316.6417
316.64176
316.64184
324.78615
324.78604
324.78599
324.78596
324.78594
324.78595
324.78597
324.78601
324.78606
324.78612
324.78604
324.78595
324.7859
324.78587
324.78586
324.78586
324.78589
324.78593
324.78598
324.78606
324.78599
324.7859
324.78585
324.78582
324.78581
324.78582
324.78584
324.78589
324.78595
324.78603
324.78596
324.78587
324.78582
324.78579
324.78578
324.78579
324.78582
324.78586
324.78593
324.78601
324.78594
324.78586
324.78581
324.78578
324.78578
324.78579
324.78581
324.78586
324.78592
324.78601
324.78595
324.78586
324.78582
324.78579
324.78579
324.7858
324.78583
324.78587
324.78594
324.78602
324.78597
324.78589
324.78584
324.78582
324.78581
324.78583
324.78586
324.78591
324.78597
324.78606
324.78601
324.78593
324.78589
324.78586
324.78586
324.78587
324.78591
324.78596
324.78602
324.78611
324.78606
324.78598
324.78595
324.78593
324.78592
324.78594
324.78597
324.78602
324.78609
324.78618
324.78612
324.78606
324.78603
324.78601
324.78601
324.78602
324.78606
324.78611
324.78618
324.78627
332.88184
332.88173
332.88167
332.88163
332.88162
332.88162
332.88165
332.8817
332.88176
332.88183
332.88173
332.88163
332.88157
332.88153
332.88152
332.88153
332.88156
332.8816
332.88167
332.88176
332.88167
332.88157
332.88151
332.88148
332.88147
332.88148
332.88151
332.88156
332.88163
332.88172
332.88163
332.88153
332.88148
332.88145
332.88144
332.88145
332.88148
332.88153
332.88161
332.8817
332.88162
332.88152
332.88147
332.88144
332.88143
332.88145
332.88148
332.88153
332.88161
332.8817
332.88162
332.88153
332.88148
332.88145
332.88145
332.88146
332.88149
332.88155
332.88162
332.88172
332.88165
332.88156
332.88151
332.88148
332.88148
332.88149
332.88153
332.88159
332.88166
332.88176
332.8817
332.8816
332.88156
332.88153
332.88153
332.88155
332.88159
332.88164
332.88172
332.88182
332.88176
332.88167
332.88163
332.88161
332.88161
332.88162
332.88166
332.88172
332.8818
332.8819
332.88183
332.88176
332.88172
332.8817
332.8817
332.88172
332.88176
332.88182
332.8819
332.88201
340.92987
340.92975
340.92968
340.92964
340.92963
340.92964
340.92967
340.92972
340.92979
340.92987
340.92975
340.92963
340.92957
340.92954
340.92952
340.92953
340.92956
340.92962
340.92969
340.92979
340.92968
340.92957
340.92951
340.92948
340.92947
340.92948
340.92951
340.92957
340.92965
340.92975
340.92964
340.92954
340.92948
340.92945
340.92944
340.92945
340.92948
340.92954
340.92963
340.92973
340.92963
340.92952
340.92947
340.92944
340.92943
340.92944
340.92948
340.92954
340.92962
340.92973
340.92964
340.92953
340.92948
340.92945
340.92944
340.92946
340.9295
340.92956
340.92965
340.92975
340.92967
340.92956
340.92951
340.92948
340.92948
340.9295
340.92954
340.9296
340.92969
340.9298
340.92972
340.92962
340.92957
340.92954
340.92954
340.92956
340.9296
340.92967
340.92976
340.92987
340.92979
340.92969
340.92965
340.92963
340.92962
340.92965
340.92969
340.92976
340.92985
340.92996
340.92987
340.92979
340.92975
340.92973
340.92973
340.92975
340.9298
340.92987
340.92996
340.93008
348.93123
348.93109
348.93102
348.93098
348.93096
348.93098
348.93101
348.93107
348.93114
348.93123
348.93109
348.93097
348.9309
348.93086
348.93085
348.93086
348.9309
348.93096
348.93104
348.93115
348.93102
348.9309
348.93084
348.9308
348.93079
348.93081
348.93084
348.93091
348.93099
348.93111
348.93098
348.93086
348.9308
348.93077
348.93076
348.93077
348.93081
348.93088
348.93097
348.93109
348.93096
348.93085
348.93079
348.93076
348.93075
348.93077
348.93081
348.93088
348.93097
348.93109
348.93098
348.93086
348.93081
348.93077
348.93077
348.93079
348.93083
348.9309
348.93099
348.93111
348.93101
348.9309
348.93084
348.93081
348.93081
348.93083
348.93088
348.93095
348.93104
348.93116
348.93107
348.93096
348.93091
348.93088
348.93088
348.9309
348.93095
348.93102
348.93112
348.93124
348.93114
348.93104
348.93099
348.93097
348.93097
348.93099
348.93104
348.93112
348.93122
348.93134
348.93123
348.93115
348.93111
348.93109
348.93109
348.93111
348.93116
348.93124
348.93134
348.93148
356.88686
356.88671
356.88664
356.8866
356.88658
356.88659
356.88663
356.88669
356.88678
356.88687
356.88671
356.88658
356.88651
356.88647
356.88646
356.88647
356.88651
356.88658
356.88667
356.88679
356.88664
356.88651
356.88645
356.88641
356.8864
356.88641
356.88645
356.88652
356.88662
356.88674
356.8866
356.88647
356.88641
356.88637
356.88636
356.88638
356.88642
356.8865
356.88659
356.88672
356.88658
356.88646
356.8864
356.88636
356.88635
356.88637
356.88642
356.88649
356.8866
356.88672
356.88659
356.88647
356.88641
356.88638
356.88637
356.8864
356.88644
356.88652
356.88662
356.88675
356.88663
356.88651
356.88645
356.88642
356.88642
356.88644
356.8865
356.88657
356.88668
356.88681
356.88669
356.88658
356.88652
356.8865
356.88649
356.88652
356.88657
356.88665
356.88676
356.88689
356.88678
356.88667
356.88662
356.88659
356.8866
356.88662
356.88668
356.88676
356.88687
356.88701
356.88687
356.88679
356.88674
356.88672
356.88672
356.88675
356.88681
356.88689
356.88701
356.88715
364.79768
364.79753
364.79745
364.79741
364.79739
364.79741
364.79745
364.79751
364.7976
364.79771
364.79753
364.79739
364.79732
364.79728
364.79726
364.79728
364.79732
364.79739
364.79749
364.79762
364.79745
364.79732
364.79725
364.79721
364.7972
364.79721
364.79726
364.79734
364.79744
364.79757
364.79741
364.79728
364.79721
364.79717
364.79716
364.79718
364.79723
364.79731
364.79741
364.79755
364.79739
364.79726
364.7972
364.79716
364.79715
364.79718
364.79723
364.79731
364.79742
364.79755
364.79741
364.79728
364.79721
364.79718
364.79718
364.7972
364.79725
364.79734
364.79745
364.79759
364.79745
364.79732
364.79726
364.79723
364.79723
364.79725
364.79731
364.79739
364.79751
364.79765
364.79751
364.79739
364.79734
364.79731
364.79731
364.79734
364.79739
364.79748
364.79759
364.79774
364.7976
364.79749
364.79744
364.79741
364.79742
364.79745
364.79751
364.79759
364.79771
364.79786
364.79771
364.79762
364.79757
364.79755
364.79755
364.79759
364.79765
364.79774
364.79786
364.79801
372.66458
372.66442
372.66434
372.66429
372.66428
372.66429
372.66434
372.66441
372.6645
372.66461
372.66442
372.66427
372.6642
372.66415
372.66414
372.66416
372.66421
372.66428
372.66439
372.66452
372.66434
372.6642
372.66413
372.66408
372.66407
372.66409
372.66414
372.66422
372.66433
372.66447
372.66429
372.66415
372.66408
372.66405
372.66404
372.66406
372.66411
372.66419
372.66431
372.66445
372.66428
372.66414
372.66407
372.66404
372.66403
372.66406
372.66411
372.66419
372.66431
372.66446
372.66429
372.66416
372.66409
372.66406
372.66406
372.66408
372.66414
372.66423
372.66434
372.66449
372.66434
372.66421
372.66414
372.66411
372.66411
372.66414
372.6642
372.66429
372.66441
372.66456
372.66441
372.66428
372.66422
372.66419
372.66419
372.66423
372.66429
372.66438
372.6645
372.66465
372.6645
372.66439
372.66433
372.66431
372.66431
372.66434
372.66441
372.6645
372.66463
372.66478
372.66461
372.66452
372.66447
372.66445
372.66446
372.66449
372.66456
372.66465
372.66478
372.66495
380.48839
380.48822
380.48814
380.48809
380.48808
380.4881
380.48814
380.48822
380.48832
380.48844
380.48822
380.48808
380.488
380.48795
380.48794
380.48796
380.48801
380.48809
380.4882
380.48834
380.48814
380.488
380.48792
380.48788
380.48787
380.48789
380.48794
380.48803
380.48814
380.48829
380.48809
380.48795
380.48788
380.48784
380.48783
380.48786
380.48791
380.488
380.48812
380.48827
380.48808
380.48794
380.48787
380.48783
380.48783
380.48785
380.48791
380.488
380.48812
380.48828
380.4881
380.48796
380.48789
380.48786
380.48785
380.48788
380.48794
380.48803
380.48816
380.48831
380.48814
380.48801
380.48794
380.48791
380.48791
380.48794
380.488
380.4881
380.48823
380.48838
380.48822
380.48809
380.48803
380.488
380.488
380.48803
380.4881
380.4882
380.48832
380.48848
380.48832
380.4882
380.48814
380.48812
380.48812
380.48816
380.48823
380.48832
380.48846
380.48862
380.48844
380.48834
380.48829
380.48827
380.48828
380.48831
380.48838
380.48848
380.48862
380.4888
388.26993
388.26975
388.26967
388.26962
388.26961
388.26963
388.26968
388.26976
388.26986
388.26998
388.26975
388.2696
388.26952
388.26948
388.26946
388.26949
388.26954
388.26962
388.26974
388.26989
388.26967
388.26952
388.26945
388.2694
388.26939
388.26942
388.26947
388.26956
388.26968
388.26984
388.26962
388.26948
388.2694
388.26936
388.26936
388.26938
388.26944
388.26953
388.26966
388.26981
388.26961
388.26946
388.26939
388.26936
388.26935
388.26938
388.26944
388.26953
388.26966
388.26982
388.26963
388.26949
388.26942
388.26938
388.26938
388.26941
388.26947
388.26957
388.2697
388.26986
388.26968
388.26954
388.26947
388.26944
388.26944
388.26947
388.26954
388.26964
388.26977
388.26993
388.26976
388.26962
388.26956
388.26953
388.26953
388.26957
388.26964
388.26974
388.26987
388.27004
388.26986
388.26974
388.26968
388.26966
388.26966
388.2697
388.26977
388.26987
388.27001
388.27018
388.26998
388.26989
388.26984
388.26981
388.26982
388.26986
388.26993
388.27004
388.27018
388.27036
396.00996
396.00978
396.0097
396.00965
396.00964
396.00966
396.00971
396.00979
396.0099
396.01003
396.00978
396.00963
396.00955
396.0095
396.00949
396.00951
396.00957
396.00966
396.00978
396.00993
396.0097
396.00955
396.00947
396.00943
396.00942
396.00944
396.0095
396.00959
396.00972
396.00988
396.00965
396.0095
396.00943
396.00939
396.00938
396.00941
396.00947
396.00956
396.00969
396.00986
396.00964
396.00949
396.00942
396.00938
396.00938
396.00941
396.00947
396.00957
396.0097
396.00987
396.00966
396.00951
396.00944
396.00941
396.00941
396.00944
396.00951
396.00961
396.00974
396.00991
396.00971
396.00957
396.0095
396.00947
396.00947
396.00951
396.00958
396.00968
396.00981
396.00998
396.00979
396.00966
396.00959
396.00956
396.00957
396.00961
396.00968
396.00978
396.00992
396.01009
396.0099
396.00978
396.00972
396.00969
396.0097
396.00974
396.00981
396.00992
396.01006
396.01024
396.01003
396.00993
396.00988
396.00986
396.00987
396.00991
396.00998
396.01009
396.01024
396.01043
403.70924
403.70906
403.70897
403.70892
403.70891
403.70893
403.70899
403.70907
403.70919
403.70931
403.70906
403.7089
403.70882
403.70877
403.70876
403.70879
403.70885
403.70893
403.70906
403.70922
403.70897
403.70882
403.70874
403.7087
403.70869
403.70872
403.70878
403.70887
403.709
403.70917
403.70892
403.70877
403.7087
403.70866
403.70865
403.70868
403.70875
403.70884
403.70898
403.70914
403.70891
403.70876
403.70869
403.70865
403.70865
403.70868
403.70875
403.70885
403.70898
403.70915
403.70893
403.70879
403.70872
403.70868
403.70868
403.70872
403.70878
403.70889
403.70903
403.7092
403.70899
403.70885
403.70878
403.70875
403.70875
403.70878
403.70886
403.70896
403.7091
403.70927
403.70907
403.70893
403.70887
403.70884
403.70885
403.70889
403.70896
403.70907
403.70921
403.70939
403.70919
403.70906
403.709
403.70898
403.70898
403.70903
403.7091
403.70921
403.70936
403.70954
403.70931
403.70922
403.70917
403.70914
403.70915
403.7092
403.70927
403.70939
403.70954
403.70973
411.36847
411.36828
411.3682
411.36815
411.36814
411.36816
411.36822
411.36831
411.36842
411.36855
411.36828
411.36813
411.36805
411.368
411.36799
411.36802
411.36807
411.36817
411.36829
411.36845
411.3682
411.36805
411.36797
411.36792
411.36792
411.36794
411.36801
411.3681
411.36823
411.3684
411.36815
411.368
411.36792
411.36788
411.36788
411.36791
411.36797
411.36807
411.36821
411.36838
411.36814
411.36799
411.36792
411.36788
411.36788
411.36791
411.36798
411.36808
411.36822
411.36839
411.36816
411.36802
411.36794
411.36791
411.36791
411.36795
411.36802
411.36812
411.36826
411.36844
411.36822
411.36807
411.36801
411.36797
411.36798
411.36802
411.36809
411.3682
411.36834
411.36852
411.36831
411.36817
411.3681
411.36807
411.36808
411.36812
411.3682
411.36831
411.36845
411.36863
411.36842
411.36829
411.36823
411.36821
411.36822
411.36826
411.36834
411.36845
411.3686
411.36879
411.36855
411.36845
411.3684
411.36838
411.36839
411.36844
411.36852
411.36863
411.36879
411.36898
418.98832
418.98814
418.98805
418.98801
418.988
418.98802
418.98808
418.98817
418.98828
418.98842
418.98814
418.98798
418.9879
418.98786
418.98785
418.98787
418.98793
418.98803
418.98815
418.98832
418.98805
418.9879
418.98782
418.98778
418.98777
418.9878
418.98787
418.98796
418.9881
418.98827
418.98801
418.98786
418.98778
418.98774
418.98774
418.98777
418.98784
418.98794
418.98807
418.98825
418.988
418.98785
418.98777
418.98774
418.98774
418.98777
418.98784
418.98794
418.98808
418.98826
418.98802
418.98787
418.9878
418.98777
418.98777
418.98781
418.98788
418.98799
418.98813
418.98831
418.98808
418.98793
418.98787
418.98784
418.98784
418.98788
418.98795
418.98806
418.98821
418.98839
418.98817
418.98803
418.98796
418.98794
418.98794
418.98799
418.98806
418.98818
418.98832
418.9885
418.98828
418.98815
418.9881
418.98807
418.98808
418.98813
418.98821
418.98832
418.98847
418.98866
418.98842
418.98832
418.98827
418.98825
418.98826
418.98831
418.98839
418.9885
418.98866
418.98886
426.56946
426.56927
426.56919
426.56914
426.56913
426.56916
426.56922
426.56931
426.56942
426.56956
426.56927
426.56912
426.56904
426.56899
426.56899
426.56901
426.56907
426.56917
426.5693
426.56946
426.56919
426.56904
426.56896
426.56892
426.56891
426.56894
426.56901
426.56911
426.56924
426.56941
426.56914
426.56899
426.56892
426.56888
426.56888
426.56891
426.56898
426.56908
426.56922
426.56939
426.56913
426.56899
426.56891
426.56888
426.56888
426.56891
426.56898
426.56909
426.56923
426.56941
426.56916
426.56901
426.56894
426.56891
426.56891
426.56895
426.56902
426.56913
426.56927
426.56945
426.56922
426.56907
426.56901
426.56898
426.56898
426.56902
426.5691
426.56921
426.56935
426.56953
426.56931
426.56917
426.56911
426.56908
426.56909
426.56913
426.56921
426.56932
426.56947
426.56965
426.56942
426.5693
426.56924
426.56922
426.56923
426.56927
426.56935
426.56947
426.56962
426.56981
426.56956
426.56946
426.56941
426.56939
426.56941
426.56945
426.56953
426.56965
426.56981
426.57001
434.11248
434.11231
434.11222
434.11218
434.11217
434.11219
434.11225
434.11234
434.11246
434.11259
434.11231
434.11215
434.11207
434.11203
434.11202
434.11205
434.11211
434.11221
434.11233
434.1125
434.11222
434.11207
434.112
434.11196
434.11195
434.11198
434.11205
434.11214
434.11228
434.11245
434.11218
434.11203
434.11196
434.11192
434.11192
434.11195
434.11202
434.11212
434.11226
434.11243
434.11217
434.11202
434.11195
434.11192
434.11192
434.11195
434.11202
434.11213
434.11227
434.11245
434.11219
434.11205
434.11198
434.11195
434.11195
434.11199
434.11206
434.11217
434.11231
434.11249
434.11225
434.11211
434.11205
434.11202
434.11202
434.11206
434.11214
434.11225
434.1124
434.11258
434.11234
434.11221
434.11214
434.11212
434.11213
434.11217
434.11225
434.11236
434.11251
434.11269
434.11246
434.11233
434.11228
434.11226
434.11227
434.11231
434.1124
434.11251
434.11266
434.11285
434.11259
434.1125
434.11245
434.11243
434.11245
434.11249
434.11258
434.11269
434.11285
434.11305
441.618
441.61782
441.61774
441.6177
441.61769
441.61772
441.61778
441.61787
441.61798
441.61812
441.61782
441.61767
441.61759
441.61755
441.61755
441.61758
441.61764
441.61773
441.61786
441.61802
441.61774
441.61759
441.61752
441.61748
441.61748
441.61751
441.61757
441.61767
441.6178
441.61798
441.6177
441.61755
441.61748
441.61745
441.61744
441.61748
441.61755
441.61765
441.61778
441.61796
441.61769
441.61755
441.61748
441.61744
441.61745
441.61748
441.61755
441.61766
441.6178
441.61797
441.61772
441.61758
441.61751
441.61748
441.61748
441.61752
441.61759
441.6177
441.61784
441.61802
441.61778
441.61764
441.61757
441.61755
441.61755
441.61759
441.61767
441.61778
441.61792
441.6181
441.61787
441.61773
441.61767
441.61765
441.61766
441.6177
441.61778
441.61789
441.61804
441.61822
441.61798
441.61786
441.6178
441.61778
441.6178
441.61784
441.61792
441.61804
441.61819
441.61838
441.61812
441.61802
441.61798
441.61796
441.61797
441.61802
441.6181
441.61822
441.61838
441.61858
449.08656
449.08639
449.08631
449.08627
449.08626
449.08629
449.08635
449.08644
449.08655
449.08669
449.08639
449.08624
449.08617
449.08613
449.08612
449.08615
449.08621
449.08631
449.08643
449.08659
449.08631
449.08617
449.0861
449.08606
449.08606
449.08609
449.08615
449.08625
449.08638
449.08655
449.08627
449.08613
449.08606
449.08603
449.08603
449.08606
449.08613
449.08623
449.08636
449.08653
449.08626
449.08612
449.08606
449.08603
449.08603
449.08606
449.08613
449.08624
449.08638
449.08655
449.08629
449.08615
449.08609
449.08606
449.08606
449.0861
449.08617
449.08628
449.08642
449.0866
449.08635
449.08621
449.08615
449.08613
449.08613
449.08617
449.08625
449.08636
449.0865
449.08668
449.08644
449.08631
449.08625
449.08623
449.08624
449.08628
449.08636
449.08647
449.08662
449.0868
449.08655
449.08643
449.08638
449.08636
449.08638
449.08642
449.0865
449.08662
449.08677
449.08695
449.08669
449.08659
449.08655
449.08653
449.08655
449.0866
449.08668
449.0868
449.08695
449.08715
456.51871
456.51855
456.51847
456.51843
456.51843
456.51845
456.51851
456.5186
456.51871
456.51884
456.51855
456.5184
456.51833
456.51829
456.51829
456.51832
456.51838
456.51847
456.51859
456.51875
456.51847
456.51833
456.51826
456.51823
456.51823
456.51826
456.51832
456.51842
456.51855
456.51871
456.51843
456.51829
456.51823
456.51819
456.5182
456.51823
456.5183
456.51839
456.51853
456.5187
456.51843
456.51829
456.51823
456.5182
456.5182
456.51823
456.5183
456.51841
456.51854
456.51871
456.51845
456.51832
456.51826
456.51823
456.51823
456.51827
456.51834
456.51845
456.51859
456.51876
456.51851
456.51838
456.51832
456.5183
456.5183
456.51834
456.51842
456.51853
456.51867
456.51884
456.5186
456.51847
456.51842
456.51839
456.51841
456.51845
456.51853
456.51864
456.51878
456.51895
456.51871
456.51859
456.51855
456.51853
456.51854
456.51859
456.51867
456.51878
456.51893
456.51911
456.51884
456.51875
456.51871
456.5187
456.51871
456.51876
456.51884
456.51895
456.51911
456.5193
463.91496
463.9148
463.91473
463.91469
463.91469
463.91471
463.91477
463.91486
463.91497
463.91509
463.9148
463.91466
463.9146
463.91456
463.91456
463.91459
463.91464
463.91473
463.91485
463.91501
463.91473
463.9146
463.91453
463.9145
463.91449
463.91453
463.91459
463.91468
463.91481
463.91497
463.91469
463.91456
463.9145
463.91447
463.91447
463.9145
463.91456
463.91466
463.91479
463.91496
463.91469
463.91456
463.91449
463.91447
463.91447
463.91451
463.91457
463.91467
463.91481
463.91497
463.91471
463.91459
463.91453
463.9145
463.91451
463.91454
463.91461
463.91472
463.91485
463.91502
463.91477
463.91464
463.91459
463.91456
463.91457
463.91461
463.91469
463.91479
463.91493
463.9151
463.91486
463.91473
463.91468
463.91466
463.91467
463.91472
463.91479
463.9149
463.91504
463.91521
463.91497
463.91485
463.91481
463.91479
463.91481
463.91485
463.91493
463.91504
463.91518
463.91536
463.91509
463.91501
463.91497
463.91496
463.91497
463.91502
463.9151
463.91521
463.91536
463.91555
471.2758
471.27564
471.27557
471.27554
471.27554
471.27556
471.27562
471.2757
471.27581
471.27593
471.27564
471.27551
471.27545
471.27541
471.27541
471.27544
471.2755
471.27559
471.2757
471.27585
471.27557
471.27545
471.27538
471.27535
471.27535
471.27538
471.27544
471.27554
471.27566
471.27581
471.27554
471.27541
471.27535
471.27532
471.27533
471.27536
471.27542
471.27552
471.27564
471.2758
471.27554
471.27541
471.27535
471.27533
471.27533
471.27537
471.27543
471.27553
471.27566
471.27582
471.27556
471.27544
471.27538
471.27536
471.27537
471.2754
471.27547
471.27557
471.2757
471.27586
471.27562
471.2755
471.27544
471.27542
471.27543
471.27547
471.27554
471.27564
471.27578
471.27594
471.2757
471.27559
471.27554
471.27552
471.27553
471.27557
471.27564
471.27575
471.27588
471.27605
471.27581
471.2757
471.27566
471.27564
471.27566
471.2757
471.27578
471.27588
471.27602
471.27619
471.27593
471.27585
471.27581
471.2758
471.27582
471.27586
471.27594
471.27605
471.27619
471.27637
478.60168
478.60154
478.60147
478.60144
478.60144
478.60146
478.60152
478.6016
478.6017
478.60182
478.60154
478.60141
478.60135
478.60132
478.60132
478.60135
478.6014
478.60149
478.6016
478.60174
478.60147
478.60135
478.60129
478.60126
478.60126
478.60129
478.60135
478.60144
478.60156
478.60171
478.60144
478.60132
478.60126
478.60124
478.60124
478.60127
478.60133
478.60143
478.60155
478.6017
478.60144
478.60132
478.60126
478.60124
478.60125
478.60128
478.60134
478.60144
478.60156
478.60171
478.60146
478.60135
478.60129
478.60127
478.60128
478.60132
478.60138
478.60148
478.6016
478.60176
478.60152
478.6014
478.60135
478.60133
478.60134
478.60138
478.60145
478.60155
478.60168
478.60183
478.6016
478.60149
478.60144
478.60143
478.60144
478.60148
478.60155
478.60165
478.60178
478.60194
478.6017
478.6016
478.60156
478.60155
478.60156
478.6016
478.60168
478.60178
478.60191
478.60208
478.60182
478.60174
478.60171
478.6017
478.60171
478.60176
478.60183
478.60194
478.60208
478.60225
485.89306
485.89293
485.89287
485.89284
485.89283
485.89286
485.89291
485.89299
485.89309
485.8932
485.89293
485.89281
485.89275
485.89272
485.89272
485.89275
485.89281
485.89289
485.89299
485.89313
485.89287
485.89275
485.8927
485.89267
485.89267
485.8927
485.89276
485.89284
485.89296
485.8931
485.89284
485.89272
485.89267
485.89265
485.89265
485.89268
485.89274
485.89283
485.89294
485.89309
485.89283
485.89272
485.89267
485.89265
485.89266
485.89269
485.89275
485.89284
485.89296
485.89311
485.89286
485.89275
485.8927
485.89268
485.89269
485.89273
485.89279
485.89288
485.893
485.89315
485.89291
485.89281
485.89276
485.89274
485.89275
485.89279
485.89286
485.89295
485.89307
485.89322
485.89299
485.89289
485.89284
485.89283
485.89284
485.89288
485.89295
485.89305
485.89317
485.89332
485.89309
485.89299
485.89296
485.89294
485.89296
485.893
485.89307
485.89317
485.8933
485.89345
485.8932
485.89313
485.8931
485.89309
485.89311
485.89315
485.89322
485.89332
485.89345
485.89362
493.15036
493.15024
493.15018
493.15015
493.15015
493.15018
493.15023
493.1503
493.15039
493.1505
493.15024
493.15013
493.15007
493.15005
493.15005
493.15008
493.15013
493.1502
493.15031
493.15043
493.15018
493.15007
493.15002
493.15
493.15
493.15003
493.15008
493.15016
493.15027
493.1504
493.15015
493.15005
493.15
493.14998
493.14998
493.15001
493.15007
493.15015
493.15026
493.1504
493.15015
493.15005
493.15
493.14998
493.14999
493.15002
493.15008
493.15016
493.15028
493.15041
493.15018
493.15008
493.15003
493.15001
493.15002
493.15005
493.15012
493.1502
493.15032
493.15046
493.15023
493.15013
493.15008
493.15007
493.15008
493.15012
493.15018
493.15027
493.15038
493.15052
493.1503
493.1502
493.15016
493.15015
493.15016
493.1502
493.15027
493.15036
493.15047
493.15062
493.15039
493.15031
493.15027
493.15026
493.15028
493.15032
493.15038
493.15047
493.1506
493.15074
493.1505
493.15043
493.1504
493.1504
493.15041
493.15046
493.15052
493.15062
493.15074
493.1509
500.37398
500.37387
500.37381
500.37379
500.37379
500.37381
500.37386
500.37393
500.37402
500.37412
500.37387
500.37377
500.37372
500.37369
500.3737
500.37372
500.37377
500.37384
500.37394
500.37406
500.37381
500.37372
500.37367
500.37365
500.37365
500.37368
500.37373
500.37381
500.37391
500.37403
500.37379
500.37369
500.37365
500.37363
500.37364
500.37366
500.37372
500.3738
500.3739
500.37403
500.37379
500.3737
500.37365