/*--------------------------------*- C++ -*----------------------------------*\
| =========                 |                                                 |
| \\      /  F ield         | OpenFOAM: The Open Source CFD Toolbox           |
|  \\    /   O peration     | Version:  v2106                                 |
|   \\  /    A nd           | Website:  www.openfoam.com                      |
|    \\/     M anipulation  |                                                 |
\*---------------------------------------------------------------------------*/
FoamFile
{
    version     2.0;
    format      ascii;
    arch        "LSB;label=32;scalar=64";
    class       volScalarField;
    location    "35";
    object      DT;
}
// * * * * * * * * * * * * * * * * * * * * * * * * * * * * * * * * * * * * * //

dimensions      [0 2 -1 0 0 0 0];

internalField   nonuniform List<scalar> 
4000
(
0.00054922636
0.00054922637
0.00054922636
0.00054922636
0.00054922636
0.00054922636
0.00054922636
0.00054922636
0.00054922636
0.00054922636
0.00054922637
0.00054922637
0.00054922637
0.00054922636
0.00054922636
0.00054922636
0.00054922636
0.00054922637
0.00054922637
0.00054922637
0.00054922636
0.00054922637
0.00054922636
0.00054922636
0.00054922636
0.00054922636
0.00054922636
0.00054922636
0.00054922636
0.00054922636
0.00054922636
0.00054922636
0.00054922636
0.00054922635
0.00054922635
0.00054922635
0.00054922635
0.00054922636
0.00054922636
0.00054922636
0.00054922636
0.00054922636
0.00054922636
0.00054922635
0.00054922635
0.00054922635
0.00054922635
0.00054922636
0.00054922636
0.00054922636
0.00054922636
0.00054922636
0.00054922636
0.00054922635
0.00054922635
0.00054922635
0.00054922635
0.00054922636
0.00054922636
0.00054922636
0.00054922636
0.00054922636
0.00054922636
0.00054922635
0.00054922635
0.00054922635
0.00054922636
0.00054922636
0.00054922636
0.00054922636
0.00054922636
0.00054922637
0.00054922636
0.00054922636
0.00054922636
0.00054922636
0.00054922636
0.00054922636
0.00054922636
0.00054922637
0.00054922636
0.00054922637
0.00054922636
0.00054922636
0.00054922636
0.00054922636
0.00054922636
0.00054922636
0.00054922637
0.00054922637
0.00054922636
0.00054922637
0.00054922636
0.00054922636
0.00054922636
0.00054922636
0.00054922636
0.00054922637
0.00054922637
0.00054922637
0.00057784525
0.00057784532
0.00057784525
0.00057784522
0.00057784521
0.00057784522
0.00057784522
0.00057784524
0.00057784525
0.00057784525
0.00057784532
0.00057784532
0.00057784526
0.00057784524
0.00057784523
0.00057784523
0.00057784524
0.00057784525
0.00057784527
0.00057784527
0.00057784525
0.00057784526
0.00057784519
0.00057784517
0.00057784517
0.00057784517
0.00057784518
0.0005778452
0.00057784522
0.00057784523
0.00057784522
0.00057784524
0.00057784517
0.00057784515
0.00057784515
0.00057784515
0.00057784516
0.00057784518
0.00057784521
0.00057784522
0.00057784521
0.00057784523
0.00057784517
0.00057784515
0.00057784514
0.00057784515
0.00057784516
0.00057784518
0.00057784521
0.00057784522
0.00057784522
0.00057784523
0.00057784517
0.00057784515
0.00057784515
0.00057784515
0.00057784516
0.00057784518
0.00057784521
0.00057784522
0.00057784522
0.00057784524
0.00057784518
0.00057784516
0.00057784516
0.00057784516
0.00057784518
0.0005778452
0.00057784522
0.00057784524
0.00057784524
0.00057784525
0.0005778452
0.00057784518
0.00057784518
0.00057784518
0.0005778452
0.00057784522
0.00057784525
0.00057784526
0.00057784525
0.00057784527
0.00057784522
0.00057784521
0.00057784521
0.00057784521
0.00057784522
0.00057784525
0.00057784527
0.00057784528
0.00057784525
0.00057784527
0.00057784523
0.00057784522
0.00057784522
0.00057784522
0.00057784524
0.00057784526
0.00057784528
0.00057784529
0.00060505189
0.00060505197
0.00060505185
0.00060505181
0.0006050518
0.0006050518
0.00060505182
0.00060505184
0.00060505186
0.00060505185
0.00060505197
0.00060505196
0.00060505185
0.00060505182
0.0006050518
0.00060505181
0.00060505182
0.00060505186
0.00060505189
0.00060505188
0.00060505185
0.00060505185
0.00060505175
0.00060505172
0.0006050517
0.00060505171
0.00060505173
0.00060505177
0.00060505182
0.00060505183
0.00060505181
0.00060505182
0.00060505172
0.00060505168
0.00060505167
0.00060505168
0.0006050517
0.00060505174
0.00060505179
0.00060505181
0.0006050518
0.0006050518
0.0006050517
0.00060505167
0.00060505166
0.00060505167
0.00060505169
0.00060505173
0.00060505179
0.00060505181
0.0006050518
0.00060505181
0.00060505171
0.00060505168
0.00060505167
0.00060505168
0.0006050517
0.00060505174
0.0006050518
0.00060505182
0.00060505182
0.00060505182
0.00060505173
0.0006050517
0.00060505169
0.0006050517
0.00060505173
0.00060505177
0.00060505182
0.00060505184
0.00060505184
0.00060505186
0.00060505177
0.00060505174
0.00060505173
0.00060505174
0.00060505177
0.00060505181
0.00060505186
0.00060505188
0.00060505186
0.00060505189
0.00060505182
0.00060505179
0.00060505179
0.0006050518
0.00060505182
0.00060505186
0.00060505192
0.00060505193
0.00060505185
0.00060505188
0.00060505183
0.00060505181
0.00060505181
0.00060505182
0.00060505184
0.00060505188
0.00060505193
0.00060505193
0.00063098305
0.00063098313
0.00063098298
0.00063098292
0.00063098291
0.00063098291
0.00063098294
0.00063098298
0.00063098302
0.00063098301
0.00063098313
0.0006309831
0.00063098296
0.00063098292
0.0006309829
0.00063098291
0.00063098293
0.00063098298
0.00063098305
0.00063098304
0.00063098298
0.00063098296
0.00063098283
0.00063098279
0.00063098277
0.00063098278
0.00063098281
0.00063098287
0.00063098295
0.00063098298
0.00063098292
0.00063098292
0.00063098279
0.00063098274
0.00063098273
0.00063098274
0.00063098277
0.00063098283
0.00063098292
0.00063098295
0.00063098291
0.0006309829
0.00063098277
0.00063098273
0.00063098272
0.00063098273
0.00063098276
0.00063098282
0.00063098292
0.00063098294
0.00063098291
0.00063098291
0.00063098278
0.00063098274
0.00063098273
0.00063098274
0.00063098278
0.00063098284
0.00063098293
0.00063098296
0.00063098294
0.00063098293
0.00063098281
0.00063098277
0.00063098276
0.00063098278
0.00063098281
0.00063098287
0.00063098297
0.00063098299
0.00063098298
0.00063098298
0.00063098287
0.00063098283
0.00063098282
0.00063098284
0.00063098287
0.00063098294
0.00063098303
0.00063098305
0.00063098302
0.00063098305
0.00063098295
0.00063098292
0.00063098292
0.00063098293
0.00063098297
0.00063098303
0.00063098312
0.00063098314
0.00063098301
0.00063098304
0.00063098298
0.00063098295
0.00063098294
0.00063098296
0.00063098299
0.00063098305
0.00063098314
0.00063098313
0.00065575039
0.00065575046
0.00065575028
0.00065575022
0.0006557502
0.00065575021
0.00065575024
0.0006557503
0.00065575036
0.00065575035
0.00065575046
0.00065575042
0.00065575025
0.0006557502
0.00065575018
0.00065575019
0.00065575023
0.0006557503
0.00065575039
0.00065575039
0.00065575028
0.00065575025
0.0006557501
0.00065575004
0.00065575003
0.00065575004
0.00065575008
0.00065575016
0.00065575028
0.00065575031
0.00065575022
0.0006557502
0.00065575004
0.00065575
0.00065574998
0.00065575
0.00065575004
0.00065575011
0.00065575024
0.00065575028
0.0006557502
0.00065575018
0.00065575003
0.00065574998
0.00065574997
0.00065574999
0.00065575003
0.00065575011
0.00065575024
0.00065575027
0.00065575021
0.00065575019
0.00065575004
0.00065575
0.00065574999
0.00065575
0.00065575005
0.00065575013
0.00065575026
0.0006557503
0.00065575024
0.00065575023
0.00065575008
0.00065575004
0.00065575003
0.00065575005
0.00065575009
0.00065575017
0.0006557503
0.00065575034
0.0006557503
0.0006557503
0.00065575016
0.00065575011
0.00065575011
0.00065575013
0.00065575017
0.00065575025
0.00065575038
0.00065575042
0.00065575036
0.00065575039
0.00065575028
0.00065575024
0.00065575024
0.00065575026
0.0006557503
0.00065575038
0.00065575051
0.00065575055
0.00065575035
0.00065575039
0.00065575031
0.00065575028
0.00065575027
0.0006557503
0.00065575034
0.00065575042
0.00065575055
0.00065575052
0.00067944684
0.00067944691
0.0006794467
0.00067944664
0.00067944662
0.00067944663
0.00067944668
0.00067944675
0.00067944683
0.00067944683
0.00067944691
0.00067944685
0.00067944666
0.00067944661
0.00067944659
0.00067944661
0.00067944665
0.00067944674
0.00067944686
0.00067944687
0.0006794467
0.00067944666
0.00067944649
0.00067944643
0.00067944642
0.00067944644
0.00067944649
0.00067944658
0.00067944673
0.00067944678
0.00067944664
0.00067944661
0.00067944643
0.00067944638
0.00067944637
0.00067944639
0.00067944644
0.00067944653
0.00067944669
0.00067944674
0.00067944662
0.00067944659
0.00067944642
0.00067944637
0.00067944636
0.00067944638
0.00067944643
0.00067944653
0.00067944669
0.00067944674
0.00067944663
0.00067944661
0.00067944644
0.00067944639
0.00067944638
0.0006794464
0.00067944646
0.00067944655
0.00067944671
0.00067944677
0.00067944668
0.00067944665
0.00067944649
0.00067944644
0.00067944643
0.00067944646
0.00067944651
0.00067944661
0.00067944677
0.00067944683
0.00067944675
0.00067944674
0.00067944658
0.00067944653
0.00067944653
0.00067944655
0.00067944661
0.0006794467
0.00067944687
0.00067944692
0.00067944683
0.00067944686
0.00067944673
0.00067944669
0.00067944669
0.00067944671
0.00067944677
0.00067944687
0.00067944703
0.00067944708
0.00067944683
0.00067944687
0.00067944678
0.00067944674
0.00067944674
0.00067944677
0.00067944683
0.00067944692
0.00067944708
0.00067944706
0.00070215116
0.00070215122
0.00070215099
0.00070215093
0.00070215091
0.00070215093
0.00070215098
0.00070215107
0.00070215117
0.00070215118
0.00070215122
0.00070215115
0.00070215094
0.00070215089
0.00070215087
0.00070215089
0.00070215095
0.00070215105
0.0007021512
0.00070215122
0.00070215099
0.00070215094
0.00070215075
0.0007021507
0.00070215069
0.00070215071
0.00070215077
0.00070215087
0.00070215106
0.00070215112
0.00070215093
0.00070215089
0.0007021507
0.00070215064
0.00070215064
0.00070215066
0.00070215072
0.00070215083
0.00070215101
0.00070215108
0.00070215091
0.00070215087
0.00070215069
0.00070215064
0.00070215063
0.00070215065
0.00070215071
0.00070215082
0.00070215101
0.00070215108
0.00070215093
0.00070215089
0.00070215071
0.00070215066
0.00070215065
0.00070215068
0.00070215074
0.00070215085
0.00070215104
0.00070215111
0.00070215098
0.00070215095
0.00070215077
0.00070215072
0.00070215071
0.00070215074
0.0007021508
0.00070215091
0.00070215111
0.00070215118
0.00070215107
0.00070215105
0.00070215087
0.00070215083
0.00070215082
0.00070215085
0.00070215091
0.00070215103
0.00070215122
0.00070215129
0.00070215117
0.0007021512
0.00070215106
0.00070215101
0.00070215101
0.00070215104
0.00070215111
0.00070215122
0.00070215141
0.00070215148
0.00070215118
0.00070215122
0.00070215112
0.00070215108
0.00070215108
0.00070215111
0.00070215118
0.00070215129
0.00070215148
0.00070215146
0.00072393111
0.00072393117
0.00072393092
0.00072393086
0.00072393085
0.00072393087
0.00072393093
0.00072393103
0.00072393115
0.00072393117
0.00072393117
0.00072393108
0.00072393087
0.00072393081
0.0007239308
0.00072393083
0.00072393089
0.000723931
0.00072393118
0.00072393121
0.00072393092
0.00072393087
0.00072393067
0.00072393061
0.00072393061
0.00072393063
0.0007239307
0.00072393081
0.00072393102
0.0007239311
0.00072393086
0.00072393081
0.00072393061
0.00072393056
0.00072393056
0.00072393059
0.00072393065
0.00072393077
0.00072393098
0.00072393106
0.00072393085
0.0007239308
0.00072393061
0.00072393056
0.00072393055
0.00072393058
0.00072393065
0.00072393077
0.00072393098
0.00072393106
0.00072393087
0.00072393083
0.00072393063
0.00072393059
0.00072393058
0.00072393061
0.00072393068
0.0007239308
0.00072393101
0.0007239311
0.00072393093
0.00072393089
0.0007239307
0.00072393065
0.00072393065
0.00072393068
0.00072393075
0.00072393087
0.00072393108
0.00072393117
0.00072393103
0.000723931
0.00072393081
0.00072393077
0.00072393077
0.0007239308
0.00072393087
0.00072393099
0.00072393121
0.0007239313
0.00072393115
0.00072393118
0.00072393102
0.00072393098
0.00072393098
0.00072393101
0.00072393108
0.00072393121
0.00072393143
0.00072393152
0.00072393117
0.00072393121
0.0007239311
0.00072393106
0.00072393106
0.0007239311
0.00072393117
0.0007239313
0.00072393152
0.0007239315
0.00074484588
0.00074484593
0.00074484567
0.00074484561
0.0007448456
0.00074484563
0.0007448457
0.0007448458
0.00074484594
0.00074484596
0.00074484593
0.00074484583
0.00074484561
0.00074484555
0.00074484555
0.00074484558
0.00074484565
0.00074484577
0.00074484596
0.000744846
0.00074484567
0.00074484561
0.0007448454
0.00074484535
0.00074484535
0.00074484538
0.00074484545
0.00074484557
0.0007448458
0.00074484589
0.00074484561
0.00074484555
0.00074484535
0.0007448453
0.0007448453
0.00074484534
0.0007448454
0.00074484553
0.00074484576
0.00074484586
0.0007448456
0.00074484555
0.00074484535
0.0007448453
0.0007448453
0.00074484534
0.00074484541
0.00074484553
0.00074484576
0.00074484586
0.00074484563
0.00074484558
0.00074484538
0.00074484534
0.00074484534
0.00074484537
0.00074484544
0.00074484556
0.0007448458
0.0007448459
0.0007448457
0.00074484565
0.00074484545
0.0007448454
0.00074484541
0.00074484544
0.00074484551
0.00074484564
0.00074484587
0.00074484597
0.0007448458
0.00074484577
0.00074484557
0.00074484553
0.00074484553
0.00074484556
0.00074484564
0.00074484576
0.000744846
0.00074484611
0.00074484594
0.00074484596
0.0007448458
0.00074484576
0.00074484576
0.0007448458
0.00074484587
0.000744846
0.00074484625
0.00074484635
0.00074484596
0.000744846
0.00074484589
0.00074484586
0.00074484586
0.0007448459
0.00074484597
0.00074484611
0.00074484635
0.00074484633
0.00076494778
0.00076494783
0.00076494756
0.00076494751
0.00076494751
0.00076494754
0.00076494761
0.00076494772
0.00076494787
0.0007649479
0.00076494783
0.00076494773
0.0007649475
0.00076494745
0.00076494745
0.00076494749
0.00076494756
0.00076494768
0.00076494789
0.00076494794
0.00076494756
0.0007649475
0.00076494729
0.00076494724
0.00076494725
0.00076494728
0.00076494735
0.00076494748
0.00076494773
0.00076494783
0.00076494751
0.00076494745
0.00076494724
0.0007649472
0.00076494721
0.00076494724
0.00076494731
0.00076494744
0.00076494769
0.00076494779
0.00076494751
0.00076494745
0.00076494725
0.00076494721
0.00076494721
0.00076494725
0.00076494732
0.00076494744
0.00076494769
0.0007649478
0.00076494754
0.00076494749
0.00076494728
0.00076494724
0.00076494725
0.00076494729
0.00076494735
0.00076494748
0.00076494773
0.00076494784
0.00076494761
0.00076494756
0.00076494735
0.00076494731
0.00076494732
0.00076494735
0.00076494743
0.00076494755
0.0007649478
0.00076494791
0.00076494772
0.00076494768
0.00076494748
0.00076494744
0.00076494744
0.00076494748
0.00076494755
0.00076494768
0.00076494794
0.00076494805
0.00076494787
0.00076494789
0.00076494773
0.00076494769
0.00076494769
0.00076494773
0.0007649478
0.00076494794
0.0007649482
0.00076494832
0.0007649479
0.00076494794
0.00076494783
0.00076494779
0.0007649478
0.00076494784
0.00076494791
0.00076494805
0.00076494832
0.0007649483
0.00078428368
0.00078428372
0.00078428345
0.0007842834
0.00078428341
0.00078428345
0.00078428352
0.00078428363
0.00078428379
0.00078428382
0.00078428372
0.00078428361
0.00078428338
0.00078428334
0.00078428335
0.00078428339
0.00078428346
0.00078428359
0.00078428381
0.00078428386
0.00078428345
0.00078428338
0.00078428317
0.00078428314
0.00078428315
0.00078428318
0.00078428325
0.00078428338
0.00078428364
0.00078428375
0.0007842834
0.00078428334
0.00078428314
0.00078428311
0.00078428311
0.00078428315
0.00078428322
0.00078428335
0.0007842836
0.00078428372
0.00078428341
0.00078428335
0.00078428315
0.00078428311
0.00078428312
0.00078428316
0.00078428323
0.00078428335
0.00078428361
0.00078428372
0.00078428345
0.00078428339
0.00078428318
0.00078428315
0.00078428316
0.0007842832
0.00078428327
0.00078428339
0.00078428365
0.00078428376
0.00078428352
0.00078428346
0.00078428325
0.00078428322
0.00078428323
0.00078428327
0.00078428333
0.00078428346
0.00078428372
0.00078428384
0.00078428363
0.00078428359
0.00078428338
0.00078428335
0.00078428335
0.00078428339
0.00078428346
0.00078428359
0.00078428386
0.00078428398
0.00078428379
0.00078428381
0.00078428364
0.0007842836
0.00078428361
0.00078428365
0.00078428372
0.00078428386
0.00078428413
0.00078428426
0.00078428382
0.00078428386
0.00078428375
0.00078428372
0.00078428372
0.00078428376
0.00078428384
0.00078428398
0.00078428426
0.00078428425
0.00080289594
0.00080289599
0.00080289572
0.00080289568
0.00080289569
0.00080289573
0.0008028958
0.00080289592
0.00080289608
0.00080289611
0.00080289599
0.00080289587
0.00080289565
0.00080289562
0.00080289563
0.00080289567
0.00080289574
0.00080289587
0.0008028961
0.00080289616
0.00080289572
0.00080289565
0.00080289544
0.00080289542
0.00080289543
0.00080289547
0.00080289554
0.00080289566
0.00080289593
0.00080289605
0.00080289568
0.00080289562
0.00080289542
0.00080289539
0.00080289541
0.00080289545
0.00080289551
0.00080289563
0.00080289589
0.00080289601
0.00080289569
0.00080289563
0.00080289543
0.00080289541
0.00080289542
0.00080289546
0.00080289552
0.00080289564
0.0008028959
0.00080289602
0.00080289573
0.00080289567
0.00080289547
0.00080289545
0.00080289546
0.0008028955
0.00080289556
0.00080289568
0.00080289594
0.00080289606
0.0008028958
0.00080289574
0.00080289554
0.00080289551
0.00080289552
0.00080289556
0.00080289562
0.00080289575
0.00080289601
0.00080289613
0.00080289592
0.00080289587
0.00080289566
0.00080289563
0.00080289564
0.00080289568
0.00080289575
0.00080289587
0.00080289614
0.00080289627
0.00080289608
0.0008028961
0.00080289593
0.00080289589
0.0008028959
0.00080289594
0.00080289601
0.00080289614
0.00080289642
0.00080289656
0.00080289611
0.00080289616
0.00080289605
0.00080289601
0.00080289602
0.00080289606
0.00080289613
0.00080289627
0.00080289656
0.00080289655
0.00082082333
0.00082082337
0.0008208231
0.00082082307
0.00082082309
0.00082082313
0.0008208232
0.00082082332
0.00082082348
0.00082082352
0.00082082337
0.00082082326
0.00082082304
0.00082082302
0.00082082304
0.00082082308
0.00082082315
0.00082082327
0.0008208235
0.00082082356
0.0008208231
0.00082082304
0.00082082284
0.00082082282
0.00082082284
0.00082082288
0.00082082294
0.00082082307
0.00082082333
0.00082082345
0.00082082307
0.00082082302
0.00082082282
0.00082082281
0.00082082283
0.00082082286
0.00082082292
0.00082082304
0.0008208233
0.00082082342
0.00082082309
0.00082082304
0.00082082284
0.00082082283
0.00082082284
0.00082082288
0.00082082294
0.00082082305
0.00082082331
0.00082082343
0.00082082313
0.00082082308
0.00082082288
0.00082082286
0.00082082288
0.00082082292
0.00082082297
0.00082082309
0.00082082334
0.00082082346
0.0008208232
0.00082082315
0.00082082294
0.00082082292
0.00082082294
0.00082082297
0.00082082303
0.00082082315
0.00082082341
0.00082082353
0.00082082332
0.00082082327
0.00082082307
0.00082082304
0.00082082305
0.00082082309
0.00082082315
0.00082082326
0.00082082353
0.00082082367
0.00082082348
0.0008208235
0.00082082333
0.0008208233
0.00082082331
0.00082082334
0.00082082341
0.00082082353
0.00082082381
0.00082082396
0.00082082352
0.00082082356
0.00082082345
0.00082082342
0.00082082343
0.00082082346
0.00082082353
0.00082082367
0.00082082396
0.00082082395
0.00083810156
0.0008381016
0.00083810134
0.00083810132
0.00083810134
0.00083810139
0.00083810145
0.00083810156
0.00083810172
0.00083810176
0.0008381016
0.00083810149
0.00083810128
0.00083810127
0.00083810129
0.00083810133
0.0008381014
0.00083810152
0.00083810174
0.00083810181
0.00083810134
0.00083810128
0.00083810109
0.00083810108
0.00083810111
0.00083810114
0.0008381012
0.00083810132
0.00083810158
0.0008381017
0.00083810132
0.00083810127
0.00083810108
0.00083810108
0.0008381011
0.00083810114
0.00083810119
0.0008381013
0.00083810155
0.00083810167
0.00083810134
0.00083810129
0.00083810111
0.0008381011
0.00083810112
0.00083810116
0.00083810121
0.00083810131
0.00083810156
0.00083810168
0.00083810139
0.00083810133
0.00083810114
0.00083810114
0.00083810116
0.00083810119
0.00083810124
0.00083810134
0.00083810159
0.00083810171
0.00083810145
0.0008381014
0.0008381012
0.00083810119
0.00083810121
0.00083810124
0.00083810129
0.00083810139
0.00083810165
0.00083810177
0.00083810156
0.00083810152
0.00083810132
0.0008381013
0.00083810131
0.00083810134
0.00083810139
0.0008381015
0.00083810177
0.0008381019
0.00083810172
0.00083810174
0.00083810158
0.00083810155
0.00083810156
0.00083810159
0.00083810165
0.00083810177
0.00083810205
0.00083810219
0.00083810176
0.00083810181
0.0008381017
0.00083810167
0.00083810168
0.00083810171
0.00083810177
0.0008381019
0.00083810219
0.00083810218
0.00085476387
0.00085476392
0.00085476366
0.00085476365
0.00085476368
0.00085476372
0.00085476379
0.00085476389
0.00085476405
0.00085476408
0.00085476392
0.00085476381
0.00085476361
0.00085476361
0.00085476364
0.00085476368
0.00085476374
0.00085476384
0.00085476407
0.00085476413
0.00085476366
0.00085476361
0.00085476343
0.00085476343
0.00085476346
0.0008547635
0.00085476355
0.00085476365
0.00085476391
0.00085476403
0.00085476365
0.00085476361
0.00085476343
0.00085476344
0.00085476346
0.0008547635
0.00085476354
0.00085476364
0.00085476389
0.000854764
0.00085476368
0.00085476364
0.00085476346
0.00085476346
0.00085476349
0.00085476352
0.00085476356
0.00085476365
0.0008547639
0.00085476401
0.00085476372
0.00085476368
0.0008547635
0.0008547635
0.00085476352
0.00085476355
0.00085476359
0.00085476368
0.00085476392
0.00085476403
0.00085476379
0.00085476374
0.00085476355
0.00085476354
0.00085476356
0.00085476359
0.00085476363
0.00085476372
0.00085476397
0.00085476408
0.00085476389
0.00085476384
0.00085476365
0.00085476364
0.00085476365
0.00085476368
0.00085476372
0.00085476382
0.00085476407
0.0008547642
0.00085476405
0.00085476407
0.00085476391
0.00085476389
0.0008547639
0.00085476392
0.00085476397
0.00085476407
0.00085476435
0.0008547645
0.00085476408
0.00085476413
0.00085476403
0.000854764
0.00085476401
0.00085476403
0.00085476408
0.0008547642
0.0008547645
0.00085476448
0.00087084141
0.00087084146
0.00087084122
0.00087084122
0.00087084125
0.00087084129
0.00087084135
0.00087084144
0.00087084159
0.00087084162
0.00087084146
0.00087084136
0.00087084117
0.00087084118
0.00087084121
0.00087084125
0.0008708413
0.0008708414
0.00087084162
0.00087084168
0.00087084122
0.00087084117
0.000870841
0.00087084101
0.00087084105
0.00087084108
0.00087084113
0.00087084122
0.00087084146
0.00087084158
0.00087084122
0.00087084118
0.00087084101
0.00087084103
0.00087084106
0.00087084109
0.00087084113
0.00087084121
0.00087084144
0.00087084156
0.00087084125
0.00087084121
0.00087084105
0.00087084106
0.00087084109
0.00087084111
0.00087084115
0.00087084122
0.00087084145
0.00087084156
0.00087084129
0.00087084125
0.00087084108
0.00087084109
0.00087084111
0.00087084114
0.00087084117
0.00087084124
0.00087084147
0.00087084158
0.00087084135
0.0008708413
0.00087084113
0.00087084113
0.00087084115
0.00087084117
0.0008708412
0.00087084127
0.00087084151
0.00087084162
0.00087084144
0.0008708414
0.00087084122
0.00087084121
0.00087084122
0.00087084124
0.00087084127
0.00087084136
0.0008708416
0.00087084173
0.00087084159
0.00087084162
0.00087084146
0.00087084144
0.00087084145
0.00087084147
0.00087084151
0.0008708416
0.00087084187
0.00087084201
0.00087084162
0.00087084168
0.00087084158
0.00087084156
0.00087084156
0.00087084158
0.00087084162
0.00087084173
0.00087084201
0.000870842
0.00088636357
0.00088636362
0.00088636339
0.0008863634
0.00088636344
0.00088636348
0.00088636353
0.00088636362
0.00088636376
0.00088636378
0.00088636362
0.00088636353
0.00088636336
0.00088636337
0.00088636341
0.00088636345
0.00088636349
0.00088636358
0.00088636378
0.00088636384
0.00088636339
0.00088636336
0.0008863632
0.00088636322
0.00088636326
0.00088636329
0.00088636332
0.0008863634
0.00088636364
0.00088636375
0.0008863634
0.00088636337
0.00088636322
0.00088636324
0.00088636328
0.0008863633
0.00088636333
0.0008863634
0.00088636362
0.00088636373
0.00088636344
0.00088636341
0.00088636326
0.00088636328
0.00088636331
0.00088636333
0.00088636335
0.00088636341
0.00088636363
0.00088636373
0.00088636348
0.00088636345
0.00088636329
0.0008863633
0.00088636333
0.00088636335
0.00088636337
0.00088636343
0.00088636364
0.00088636374
0.00088636353
0.00088636349
0.00088636332
0.00088636333
0.00088636335
0.00088636337
0.00088636339
0.00088636345
0.00088636367
0.00088636377
0.00088636362
0.00088636358
0.0008863634
0.0008863634
0.00088636341
0.00088636343
0.00088636345
0.00088636351
0.00088636374
0.00088636386
0.00088636376
0.00088636378
0.00088636364
0.00088636362
0.00088636363
0.00088636364
0.00088636367
0.00088636374
0.000886364
0.00088636414
0.00088636378
0.00088636384
0.00088636375
0.00088636373
0.00088636373
0.00088636374
0.00088636377
0.00088636386
0.00088636414
0.00088636412
0.00090135826
0.00090135832
0.0009013581
0.00090135812
0.00090135816
0.0009013582
0.00090135824
0.00090135831
0.00090135844
0.00090135846
0.00090135832
0.00090135823
0.00090135807
0.0009013581
0.00090135814
0.00090135817
0.00090135821
0.00090135828
0.00090135847
0.00090135852
0.0009013581
0.00090135807
0.00090135793
0.00090135796
0.000901358
0.00090135802
0.00090135805
0.00090135811
0.00090135833
0.00090135843
0.00090135812
0.0009013581
0.00090135796
0.00090135799
0.00090135802
0.00090135805
0.00090135806
0.00090135811
0.00090135832
0.00090135842
0.00090135816
0.00090135814
0.000901358
0.00090135802
0.00090135806
0.00090135807
0.00090135808
0.00090135813
0.00090135833
0.00090135842
0.0009013582
0.00090135817
0.00090135802
0.00090135805
0.00090135807
0.00090135809
0.00090135809
0.00090135813
0.00090135833
0.00090135842
0.00090135824
0.00090135821
0.00090135805
0.00090135806
0.00090135808
0.00090135809
0.0009013581
0.00090135814
0.00090135834
0.00090135844
0.00090135831
0.00090135828
0.00090135811
0.00090135811
0.00090135813
0.00090135813
0.00090135814
0.00090135819
0.0009013584
0.00090135852
0.00090135844
0.00090135847
0.00090135833
0.00090135832
0.00090135833
0.00090135833
0.00090135834
0.0009013584
0.00090135864
0.00090135878
0.00090135846
0.00090135852
0.00090135843
0.00090135842
0.00090135842
0.00090135842
0.00090135844
0.00090135852
0.00090135878
0.00090135876
0.00091585211
0.00091585217
0.00091585197
0.000915852
0.00091585204
0.00091585208
0.00091585211
0.00091585217
0.00091585229
0.00091585231
0.00091585217
0.0009158521
0.00091585195
0.00091585199
0.00091585203
0.00091585206
0.00091585209
0.00091585215
0.00091585233
0.00091585237
0.00091585197
0.00091585195
0.00091585182
0.00091585186
0.0009158519
0.00091585193
0.00091585194
0.00091585199
0.00091585219
0.00091585228
0.000915852
0.00091585199
0.00091585186
0.0009158519
0.00091585194
0.00091585196
0.00091585196
0.00091585199
0.00091585218
0.00091585227
0.00091585204
0.00091585203
0.0009158519
0.00091585194
0.00091585197
0.00091585198
0.00091585198
0.00091585201
0.00091585219
0.00091585227
0.00091585208
0.00091585206
0.00091585193
0.00091585196
0.00091585198
0.00091585199
0.00091585199
0.00091585201
0.00091585219
0.00091585227
0.00091585211
0.00091585209
0.00091585194
0.00091585196
0.00091585198
0.00091585199
0.00091585198
0.000915852
0.00091585219
0.00091585227
0.00091585217
0.00091585215
0.00091585199
0.00091585199
0.00091585201
0.00091585201
0.000915852
0.00091585203
0.00091585223
0.00091585233
0.00091585229
0.00091585233
0.00091585219
0.00091585218
0.00091585219
0.00091585219
0.00091585219
0.00091585223
0.00091585245
0.00091585258
0.00091585231
0.00091585237
0.00091585228
0.00091585227
0.00091585227
0.00091585227
0.00091585227
0.00091585233
0.00091585258
0.00091585255
0.00092987069
0.00092987076
0.00092987058
0.00092987061
0.00092987066
0.00092987069
0.00092987071
0.00092987076
0.00092987087
0.00092987087
0.00092987076
0.00092987069
0.00092987057
0.00092987061
0.00092987065
0.00092987068
0.00092987069
0.00092987074
0.0009298709
0.00092987094
0.00092987058
0.00092987057
0.00092987045
0.0009298705
0.00092987054
0.00092987056
0.00092987056
0.00092987059
0.00092987078
0.00092987086
0.00092987061
0.00092987061
0.0009298705
0.00092987054
0.00092987058
0.00092987059
0.00092987059
0.0009298706
0.00092987077
0.00092987085
0.00092987066
0.00092987065
0.00092987054
0.00092987058
0.00092987061
0.00092987062
0.00092987061
0.00092987061
0.00092987077
0.00092987084
0.00092987069
0.00092987068
0.00092987056
0.00092987059
0.00092987062
0.00092987062
0.0009298706
0.00092987061
0.00092987077
0.00092987083
0.00092987071
0.00092987069
0.00092987056
0.00092987059
0.00092987061
0.0009298706
0.00092987058
0.00092987059
0.00092987075
0.00092987082
0.00092987076
0.00092987074
0.00092987059
0.0009298706
0.00092987061
0.00092987061
0.00092987059
0.0009298706
0.00092987078
0.00092987087
0.00092987087
0.0009298709
0.00092987078
0.00092987077
0.00092987077
0.00092987077
0.00092987075
0.00092987078
0.00092987098
0.0009298711
0.00092987087
0.00092987094
0.00092987086
0.00092987085
0.00092987084
0.00092987083
0.00092987082
0.00092987087
0.0009298711
0.00092987107
0.00094343863
0.0009434387
0.00094343853
0.00094343858
0.00094343862
0.00094343865
0.00094343867
0.0009434387
0.00094343879
0.00094343879
0.0009434387
0.00094343865
0.00094343853
0.00094343858
0.00094343863
0.00094343865
0.00094343865
0.00094343868
0.00094343883
0.00094343886
0.00094343853
0.00094343853
0.00094343843
0.00094343848
0.00094343853
0.00094343854
0.00094343853
0.00094343855
0.00094343871
0.00094343878
0.00094343858
0.00094343858
0.00094343848
0.00094343854
0.00094343857
0.00094343858
0.00094343856
0.00094343856
0.00094343871
0.00094343877
0.00094343862
0.00094343863
0.00094343853
0.00094343857
0.00094343861
0.00094343861
0.00094343858
0.00094343857
0.00094343871
0.00094343877
0.00094343865
0.00094343865
0.00094343854
0.00094343858
0.00094343861
0.0009434386
0.00094343857
0.00094343856
0.0009434387
0.00094343875
0.00094343867
0.00094343865
0.00094343853
0.00094343856
0.00094343858
0.00094343857
0.00094343854
0.00094343853
0.00094343867
0.00094343873
0.0009434387
0.00094343868
0.00094343855
0.00094343856
0.00094343857
0.00094343856
0.00094343853
0.00094343852
0.00094343868
0.00094343875
0.00094343879
0.00094343883
0.00094343871
0.00094343871
0.00094343871
0.0009434387
0.00094343867
0.00094343868
0.00094343886
0.00094343897
0.00094343879
0.00094343886
0.00094343878
0.00094343877