/*--------------------------------*- C++ -*----------------------------------*\
| =========                 |                                                 |
| \\      /  F ield         | OpenFOAM: The Open Source CFD Toolbox           |
|  \\    /   O peration     | Version:  v2106                                 |
|   \\  /    A nd           | Website:  www.openfoam.com                      |
|    \\/     M anipulation  |                                                 |
\*---------------------------------------------------------------------------*/
FoamFile
{
    version     2.0;
    format      ascii;
    arch        "LSB;label=32;scalar=64";
    class       volVectorField;
    location    "35";
    object      gradT;
}
// * * * * * * * * * * * * * * * * * * * * * * * * * * * * * * * * * * * * * //

dimensions      [0 -1 0 1 0 0 0];

internalField   nonuniform List<vector> 
4000
(
(0.0001083279 0.0001083279 615.00146)
(-0.00030310284 -0.00020190181 615.00202)
(-0.00041883919 -7.3533818e-05 614.99998)
(0.00010863442 -5.7565444e-05 615.00016)
(0.00010424047 -5.8327512e-05 615.00046)
(7.8868528e-05 -6.0521264e-05 615.00068)
(7.7155469e-05 -6.2550381e-05 615.00087)
(8.5994766e-05 -6.0589307e-05 615.00109)
(7.6571821e-05 -4.641514e-05 615.00133)
(2.0817028e-05 -2.343561e-05 615.00147)
(-0.00020190181 -0.00030310284 615.00202)
(-0.00057589541 -0.0005758954 615.00082)
(-0.00020233464 -0.00035180269 614.99955)
(0.00013144388 -0.00032466469 614.99984)
(9.980674e-05 -0.00032748744 615.00013)
(7.2534225e-05 -0.00033497786 615.00033)
(7.7053405e-05 -0.00034475745 615.00051)
(0.00011019763 -0.0003476899 615.00074)
(0.00013230237 -0.00031610775 615.00111)
(4.3796558e-05 -0.00023106261 615.00139)
(-7.3533813e-05 -0.00041883919 614.99998)
(-0.00035180269 -0.00020233463 614.99955)
(-0.00016760848 -0.00016760847 614.99843)
(0.00013294968 -0.00016471099 614.99875)
(9.3927305e-05 -0.00016856003 614.99903)
(6.1598516e-05 -0.00017709113 614.99921)
(6.4443425e-05 -0.00019128201 614.99935)
(0.00011464446 -0.00020933165 614.99956)
(0.00019319911 -0.00021662542 614.99998)
(7.7513794e-05 -0.00018535775 615.00053)
(-5.756544e-05 0.00010863442 615.00016)
(-0.00032466469 0.00013144387 614.99984)
(-0.000164711 0.00013294968 614.99875)
(0.00013049232 0.00013049232 614.99906)
(8.7426599e-05 0.00012537791 614.99934)
(4.9812243e-05 0.00011709388 614.99949)
(4.4812891e-05 0.00010435754 614.99959)
(8.4854221e-05 8.5092201e-05 614.99973)
(0.00015627627 5.8525129e-05 615.00008)
(6.4641673e-05 3.0228815e-05 615.00053)
(-5.8327509e-05 0.00010424047 615.00046)
(-0.00032748743 9.9806729e-05 615.00013)
(-0.00016856003 9.3927307e-05 614.99903)
(0.00012537791 8.7426597e-05 614.99934)
(8.0528868e-05 8.0528866e-05 614.9996)
(4.0578149e-05 7.2853831e-05 614.99973)
(3.2441748e-05 6.3953243e-05 614.99981)
(6.8812043e-05 5.3314189e-05 614.99991)
(0.00013833573 4.1026806e-05 615.00021)
(5.8649585e-05 2.9547651e-05 615.00062)
(-6.0521268e-05 7.8868531e-05 615.00068)
(-0.00033497785 7.2534224e-05 615.00033)
(-0.00017709113 6.1598515e-05 614.99921)
(0.00011709387 4.9812245e-05 614.99949)
(7.2853833e-05 4.0578152e-05 614.99973)
(3.3236621e-05 3.3236617e-05 614.99985)
(2.5273249e-05 2.7228214e-05 614.9999)
(6.1927783e-05 2.2417359e-05 614.99999)
(0.00013250973 1.8842387e-05 615.00027)
(5.6988903e-05 1.6803025e-05 615.00066)
(-6.255038e-05 7.7155472e-05 615.00087)
(-0.00034475745 7.7053405e-05 615.00051)
(-0.00019128201 6.4443421e-05 614.99935)
(0.00010435755 4.4812893e-05 614.99959)
(6.395324e-05 3.2441755e-05 614.99981)
(2.7228211e-05 2.5273245e-05 614.9999)
(2.162249e-05 2.1622491e-05 614.99994)
(6.0426217e-05 2.1054213e-05 615.00002)
(0.00013272139 2.3114271e-05 615.0003)
(5.7290009e-05 2.645224e-05 615.0007)
(-6.0589312e-05 8.5994769e-05 615.00109)
(-0.00034768991 0.00011019763 615.00074)
(-0.00020933164 0.00011464446 614.99956)
(8.5092208e-05 8.4854219e-05 614.99973)
(5.3314185e-05 6.8812042e-05 614.99991)
(2.2417357e-05 6.1927787e-05 614.99999)
(2.1054217e-05 6.0426216e-05 615.00002)
(6.3419563e-05 6.3419569e-05 615.0001)
(0.00013790776 7.0098197e-05 615.00039)
(5.9214216e-05 7.7917927e-05 615.00081)
(-4.6415142e-05 7.6571816e-05 615.00133)
(-0.00031610775 0.00013230236 615.00111)
(-0.00021662542 0.00019319912 614.99998)
(5.8525127e-05 0.00015627627 615.00008)
(4.1026808e-05 0.00013833572 615.00021)
(1.8842384e-05 0.00013250974 615.00027)
(2.3114272e-05 0.00013272139 615.0003)
(7.0098199e-05 0.00013790776 615.00039)
(0.00014721975 0.00014721975 615.00071)
(6.2503162e-05 0.00015653073 615.00115)
(-2.3435613e-05 2.0817026e-05 615.00147)
(-0.0002310626 4.3796554e-05 615.00139)
(-0.00018535774 7.7513792e-05 615.00053)
(3.0228813e-05 6.4641675e-05 615.00053)
(2.954765e-05 5.8649583e-05 615.00062)
(1.6803025e-05 5.6988903e-05 615.00066)
(2.6452238e-05 5.7290011e-05 615.0007)
(7.7917925e-05 5.9214214e-05 615.00081)
(0.00015653073 6.2503161e-05 615.00115)
(6.5421536e-05 6.5421535e-05 615.00161)
(0.00023084031 0.00023084031 908.02613)
(-0.0013167847 -0.00059858186 908.02625)
(-0.001526263 -0.00021316024 908.02442)
(0.00039894252 -0.0001553072 908.02461)
(0.00046093258 -0.00015670922 908.02497)
(0.00037486344 -0.00016667675 908.02526)
(0.00037678133 -0.00017665235 908.02552)
(0.00042694802 -0.00016428708 908.02585)
(0.00034375754 -8.2948368e-05 908.02626)
(7.8333087e-05 -5.0540827e-06 908.02633)
(-0.00059858186 -0.0013167847 908.02625)
(-0.0019827855 -0.0019827855 908.02519)
(-0.000861351 -0.0012655186 908.02394)
(0.00048361906 -0.0011537968 908.02422)
(0.00044387826 -0.0011611792 908.02459)
(0.00034494874 -0.001196503 908.02485)
(0.00038036582 -0.0012447945 908.02508)
(0.00056750399 -0.0012533902 908.02544)
(0.00058260703 -0.0010675784 908.02612)
(0.00015622737 -0.00071823027 908.02645)
(-0.00021316024 -0.001526263 908.02442)
(-0.0012655186 -0.00086135099 908.02394)
(-0.0006972743 -0.00069727431 908.02286)
(0.00050328185 -0.00066946858 908.02318)
(0.00041822642 -0.00068453193 908.02353)
(0.00029124822 -0.00072619965 908.02376)
(0.00031989411 -0.00079621138 908.02393)
(0.00060416409 -0.00088167452 908.02423)
(0.00087891746 -0.00089342511 908.025)
(0.00031123183 -0.00073276247 908.02564)
(-0.0001553072 0.00039894251 908.02461)
(-0.0011537968 0.00048361905 908.02422)
(-0.00066946859 0.00050328185 908.02318)
(0.00049636144 0.00049636143 908.0235)
(0.00038714719 0.00047221581 908.02384)
(0.00023326928 0.00043147322 908.02404)
(0.00022489096 0.00036874641 908.02415)
(0.00047029026 0.00027550552 908.02436)
(0.00073151909 0.00015709436 908.02502)
(0.0002633358 4.2579441e-05 908.02557)
(-0.00015670921 0.00046093258 908.02497)
(-0.0011611792 0.00044387825 908.02459)
(-0.00068453193 0.00041822643 908.02353)
(0.0004722158 0.00038714719 908.02384)
(0.00035333821 0.00035333821 908.02415)
(0.00018777882 0.00031564711 908.02432)
(0.00016392641 0.00027188197 908.02439)
(0.00039251205 0.00021946365 908.02455)
(0.00064599138 0.00016008797 908.02514)
(0.00023488855 0.00010439711 908.02563)
(-0.00016667675 0.00037486345 908.02526)
(-0.001196503 0.00034494873 908.02485)
(-0.00072619965 0.00029124821 908.02376)
(0.00043147322 0.00023326928 908.02404)
(0.00031564711 0.00018777882 908.02432)
(0.00015181304 0.00015181305 908.02445)
(0.0001287075 0.00012261357 908.0245)
(0.00035849627 9.9328946e-05 908.02463)
(0.00061645254 8.2224572e-05 908.0252)
(0.00022620856 7.2158912e-05 908.02567)
(-0.00017665235 0.00037678133 908.02552)
(-0.0012447945 0.00038036583 908.02508)
(-0.00079621138 0.0003198941 908.02393)
(0.00036874641 0.00022489096 908.02415)
(0.00027188198 0.00016392641 908.02439)
(0.00012261357 0.0001287075 908.0245)
(0.00011144231 0.00011144232 908.02453)
(0.00035212305 0.00010999491 908.02465)
(0.00061882134 0.00012233892 908.02522)
(0.00022817811 0.00014230164 908.0257)
(-0.00016428708 0.00042694801 908.02585)
(-0.0012533902 0.00056750399 908.02544)
(-0.00088167452 0.00060416409 908.02423)
(0.00027550553 0.00047029026 908.02436)
(0.00021946364 0.00039251204 908.02455)
(9.9328943e-05 0.00035849626 908.02463)
(0.00010999491 0.00035212305 908.02465)
(0.00036939286 0.00036939286 908.02478)
(0.00064875927 0.00040630878 908.02538)
(0.00023951704 0.00045018735 908.0259)
(-8.2948369e-05 0.00034375753 908.02626)
(-0.0010675784 0.00058260703 908.02612)
(-0.00089342511 0.00087891747 908.025)
(0.00015709436 0.00073151909 908.02502)
(0.00016008798 0.00064599138 908.02514)
(8.2224578e-05 0.00061645255 908.0252)
(0.00012233892 0.00061882135 908.02522)
(0.00040630878 0.00064875927 908.02538)
(0.00069961583 0.00069961584 908.02604)
(0.00025743048 0.00073228936 908.0266)
(-5.0540772e-06 7.8333086e-05 908.02633)
(-0.00071823027 0.00015622738 908.02645)
(-0.00073276246 0.00031123183 908.02564)
(4.2579445e-05 0.00026333581 908.02557)
(0.0001043971 0.00023488855 908.02563)
(7.2158913e-05 0.00022620856 908.02567)
(0.00014230163 0.00022817811 908.0257)
(0.00045018735 0.00023951703 908.0259)
(0.00073228936 0.00025743049 908.0266)
(0.00026129939 0.00026129939 908.02702)
(0.00018378604 0.00018378603 900.84322)
(-0.0020188338 -0.00090280172 900.84316)
(-0.0020586779 -0.00039119508 900.84204)
(0.00066320418 -0.00031146858 900.84225)
(0.0007585431 -0.00031493296 900.84257)
(0.00063021656 -0.00033455944 900.84281)
(0.00066631658 -0.00035743581 900.84303)
(0.00082325888 -0.0003351713 900.84336)
(0.00055336848 -0.00013809827 900.8439)
(6.4922319e-05 6.0897664e-05 900.84396)
(-0.00090280172 -0.0020188338 900.84316)
(-0.0028813054 -0.0028813054 900.8424)
(-0.0011716782 -0.0019119496 900.84163)
(0.00077759737 -0.0017527826 900.8419)
(0.00072390681 -0.001767898 900.8422)
(0.00056646229 -0.0018353501 900.84241)
(0.00066539879 -0.0019351561 900.84258)
(0.0011522652 -0.0019658489 900.84292)
(0.0011474719 -0.0015759809 900.84378)
(0.00026391825 -0.00091656138 900.84414)
(-0.00039119508 -0.0020586779 900.84204)
(-0.0019119496 -0.0011716782 900.84163)
(-0.00093015505 -0.00093015505 900.84097)
(0.00080725574 -0.0008861469 900.84126)
(0.00067597562 -0.00091390716 900.84155)
(0.00046295848 -0.0009902635 900.84172)
(0.0005358178 -0.0011215217 900.84183)
(0.0011824341 -0.0012889471 900.84209)
(0.001602656 -0.0013201115 900.84301)
(0.00050453534 -0.0010700943 900.84362)
(-0.00031146858 0.00066320418 900.84225)
(-0.0017527826 0.00077759736 900.8419)
(-0.0008861469 0.00080725574 900.84126)
(0.00079384525 0.00079384525 900.84154)
(0.00061979021 0.00075001546 900.84182)
(0.00035884771 0.00067681727 900.84196)
(0.00036671523 0.00056474516 900.842)
(0.00095367545 0.00039991431 900.84218)
(0.0013663247 0.00020133136 900.84301)
(0.00043059637 1.9386489e-05 900.84355)
(-0.00031493296 0.00075854309 900.84257)
(-0.001767898 0.0007239068 900.8422)
(-0.00091390716 0.00067597562 900.84155)
(0.00075001546 0.00061979021 900.84182)
(0.00055894764 0.00055894764 900.84207)
(0.00027768818 0.00049157374 900.84218)
(0.00025891484 0.00041399981 900.84218)
(0.00081902027 0.00032203236 900.8423)
(0.0012221282 0.00022081719 900.84308)
(0.00038323876 0.00012794763 900.84357)
(-0.00033455944 0.00063021656 900.84281)
(-0.0018353501 0.00056646229 900.84241)
(-0.0009902635 0.00046295848 900.84172)
(0.00067681727 0.00035884771 900.84196)
(0.00049157374 0.00027768819 900.84218)
(0.00021389988 0.00021389989 900.84226)
(0.00019717385 0.00016311816 900.84224)
(0.00076049283 0.00012425054 900.84233)
(0.00117224 9.8389603e-05 900.84308)
(0.00036868333 8.6105296e-05 900.84356)
(-0.00035743581 0.00066631658 900.84303)
(-0.0019351561 0.00066539879 900.84258)
(-0.0011215217 0.00053581781 900.84183)
(0.00056474517 0.00036671523 900.842)
(0.00041399981 0.00025891484 900.84218)
(0.00016311815 0.00019717385 900.84224)
(0.00016926549 0.00016926549 900.8422)
(0.00075429171 0.00017294767 900.84229)
(0.0011839829 0.00020615396 900.84306)
(0.00037504922 0.00025839513 900.84355)
(-0.0003351713 0.00082325888 900.84336)
(-0.0019658489 0.0011522652 900.84292)
(-0.001288947 0.0011824341 900.84209)
(0.0003999143 0.00095367545 900.84218)
(0.00032203236 0.00081902027 900.8423)
(0.00012425053 0.00076049284 900.84233)
(0.00017294766 0.00075429172 900.84229)
(0.0007973813 0.0007973813 900.84241)
(0.0012576874 0.00088417704 900.84322)
(0.00040351078 0.00098380492 900.84377)
(-0.00013809827 0.00055336848 900.8439)
(-0.0015759809 0.0011474719 900.84378)
(-0.0013201115 0.001602656 900.84301)
(0.00020133138 0.0013663247 900.84301)
(0.0002208172 0.0012221282 900.84308)
(9.8389597e-05 0.00117224 900.84308)
(0.00020615395 0.0011839829 900.84306)
(0.00088417703 0.0012576874 900.84322)
(0.0013704065 0.0013704065 900.84411)
(0.00044146781 0.0012811955 900.84476)
(6.0897667e-05 6.4922318e-05 900.84396)
(-0.00091656138 0.00026391826 900.84414)
(-0.0010700943 0.00050453535 900.84362)
(1.9386494e-05 0.00043059637 900.84355)
(0.00012794764 0.00038323876 900.84357)
(8.61053e-05 0.00036868333 900.84356)
(0.00025839512 0.00037504922 900.84355)
(0.00098380491 0.00040351078 900.84377)
(0.0012811955 0.00044146781 900.84476)
(0.00034403672 0.00034403672 900.84492)
(0.00019340471 0.00019340471 893.35562)
(-0.0024902875 -0.0011024569 893.35568)
(-0.0024324362 -0.00048709013 893.35476)
(0.00092309939 -0.000392193 893.355)
(0.0010142832 -0.0003994521 893.35528)
(0.00083513872 -0.00043065355 893.35547)
(0.00092609022 -0.00047241047 893.35563)
(0.0013011795 -0.00045526475 893.35591)
(0.00094337662 -0.00016100257 893.35652)
(0.00011486053 0.00012155431 893.35668)
(-0.0011024569 -0.0024902875 893.35568)
(-0.0035110297 -0.0035110297 893.35513)
(-0.0013670404 -0.0023413387 893.35452)
(0.0010545564 -0.0021515514 893.35479)
(0.00095659242 -0.0021792866 893.35506)
(0.00072570117 -0.0022828861 893.35522)
(0.00088917342 -0.0024448621 893.35532)
(0.0017682913 -0.0025230041 893.35558)
(0.0018086052 -0.0019559628 893.35647)
(0.00039741741 -0.0010531974 893.35686)
(-0.00048709013 -0.0024324362 893.35476)
(-0.0023413388 -0.0013670404 893.35452)
(-0.0010729579 -0.0010729579 893.35399)
(0.0010851516 -0.0010228411 893.35428)
(0.00088294847 -0.0010670065 893.35453)
(0.00056956319 -0.0011797115 893.35465)
(0.00068597224 -0.0013738999 893.35468)
(0.0017900788 -0.0016249388 893.35486)
(0.0024131833 -0.0016685839 893.35582)
(0.00071670411 -0.0013307681 893.35644)
(-0.00039219299 0.00092309939 893.355)
(-0.0021515514 0.0010545564 893.35479)
(-0.0010228411 0.0010851516 893.35428)
(0.0010605078 0.0010605078 893.35456)
(0.00079972202 0.00099489114 893.35479)
(0.00041880772 0.00088859728 893.35487)
(0.00044394606 0.00072753283 893.35485)
(0.0014736073 0.00049338133 893.35494)
(0.002102776 0.00022358733 893.35581)
(0.00062262796 -1.2498073e-05 893.35637)
(-0.0003994521 0.0010142832 893.35528)
(-0.0021792866 0.00095659241 893.35506)
(-0.0010670065 0.00088294847 893.35453)
(0.00099489113 0.00079972201 893.35479)
(0.00071103793 0.00071103793 893.355)
(0.00030220488 0.00061413035 893.35505)
(0.00029075629 0.00050381431 893.35499)
(0.0012861333 0.00037466381 893.35503)
(0.0019073039 0.00023658098 893.35585)
(0.00055931383 0.00011309847 893.35637)
(-0.00043065354 0.00083513872 893.35547)
(-0.0022828861 0.00072570116 893.35522)
(-0.0011797115 0.00056956319 893.35465)
(0.00088859727 0.00041880773 893.35487)
(0.00061413035 0.00030220488 893.35505)
(0.0002115841 0.0002115841 893.35508)
(0.00020447953 0.00014128978 893.35498)
(0.001206374 9.0529994e-05 893.35501)
(0.0018412106 6.1811643e-05 893.35581)
(0.00054030629 5.4061139e-05 893.35631)
(-0.00047241047 0.00092609023 893.35563)
(-0.0024448621 0.00088917342 893.35532)
(-0.0013738999 0.00068597224 893.35468)
(0.00072753283 0.00044394607 893.35485)
(0.00050381431 0.0002907563 893.35499)
(0.00014128978 0.00020447953 893.35498)
(0.00016970218 0.00016970219 893.35488)
(0.0012066552 0.00018618463 893.35491)
(0.0018708351 0.00025454861 893.35572)
(0.00055414683 0.00035949519 893.35625)
(-0.00045526475 0.0013011795 893.35591)
(-0.0025230041 0.0017682913 893.35558)
(-0.0016249388 0.0017900788 893.35486)
(0.00049338133 0.0014736073 893.35494)
(0.00037466382 0.0012861333 893.35503)
(9.0529991e-05 0.001206374 893.35501)
(0.00018618463 0.0012066552 893.35491)
(0.0012912204 0.0012912204 893.35496)
(0.0020145212 0.0014613519 893.35584)
(0.00061027068 0.0016612815 893.35646)
(-0.00016100257 0.00094337662 893.35652)
(-0.0019559628 0.0018086052 893.35647)
(-0.0016685839 0.0024131833 893.35582)
(0.00022358734 0.002102776 893.35581)
(0.00023658099 0.0019073039 893.35585)
(6.1811645e-05 0.0018412106 893.35581)
(0.0002545486 0.0018708351 893.35572)
(0.0014613519 0.0020145212 893.35584)
(0.0022408961 0.0022408961 893.35684)
(0.00068743318 0.0018797344 893.35761)
(0.0001215543 0.00011486053 893.35668)
(-0.0010531974 0.0003974174 893.35686)
(-0.0013307681 0.0007167041 893.35644)
(-1.2498068e-05 0.00062262797 893.35637)
(0.00011309847 0.00055931383 893.35637)
(5.4061139e-05 0.00054030629 893.35631)
(0.00035949518 0.00055414683 893.35625)
(0.0016612815 0.00061027067 893.35646)
(0.0018797344 0.00068743318 893.35761)
(0.00036949621 0.00036949621 893.35768)
(0.00021965984 0.00021965984 885.58538)
(-0.0028769843 -0.0012657205 885.58547)
(-0.0027394024 -0.00055311763 885.58467)
(0.0011770345 -0.00044547894 885.58491)
(0.0012326401 -0.00045736132 885.58517)
(0.00098004743 -0.00050065533 885.58531)
(0.0011077275 -0.0005626343 885.5854)
(0.0017143641 -0.0005544265 885.5856)
(0.0013268974 -0.00016926099 885.58615)
(0.00017526036 0.00018060959 885.58632)
(-0.0012657205 -0.0028769843 885.58547)
(-0.0040361504 -0.0040361504 885.58502)
(-0.0015090401 -0.0026825902 885.58449)
(0.001320669 -0.002469389 885.58477)
(0.0011498755 -0.0025126074 885.58502)
(0.00082213796 -0.0026538463 885.58512)
(0.0010270708 -0.002880497 885.58515)
(0.0023044241 -0.0030122699 885.58532)
(0.0024294515 -0.0022769303 885.58613)
(0.00052513094 -0.0011633021 885.58649)
(-0.00055311762 -0.0027394025 885.58467)
(-0.0026825902 -0.0015090401 885.58449)
(-0.001172641 -0.001172641 885.58404)
(0.0013470173 -0.0011223293 885.58433)
(0.0010481828 -0.0011857429 885.58455)
(0.00061215781 -0.0013359819 885.58462)
(0.00074930396 -0.0015935206 885.58458)
(0.0023179308 -0.0019276456 885.58467)
(0.0031758652 -0.0019798336 885.58554)
(0.00091767913 -0.0015588273 885.58612)
(-0.00044547893 0.0011770345 885.58491)
(-0.002469389 0.001320669 885.58477)
(-0.0011223293 0.0013470173 885.58433)
(0.0013075671 0.0013075672 885.5846)
(0.0009362229 0.0012183025 885.58481)
(0.00041436018 0.0010783267 885.58484)
(0.00043540713 0.00086868274 885.58474)
(0.0019181111 0.00056712973 885.58475)
(0.0027982699 0.00023155447 885.58554)
(0.00080580183 -5.2612411e-05 885.58606)
(-0.00045736132 0.0012326401 885.58517)
(-0.0025126074 0.0011498755 885.58502)
(-0.0011857429 0.0010481828 885.58455)
(0.0012183025 0.0009362229 885.58481)
(0.00081894234 0.00081894234 885.58499)
(0.00026253801 0.00069265242 885.58499)
(0.00023810701 0.00055059087 885.58485)
(0.0016808025 0.00038626767 885.58481)
(0.002556123 0.00021486355 885.58555)
(0.00072823454 6.4745499e-05 885.58603)
(-0.00050065533 0.00098004742 885.58531)
(-0.0026538463 0.00082213795 885.58512)
(-0.0013359819 0.00061215781 885.58462)
(0.0010783267 0.00041436017 885.58484)
(0.00069265242 0.000262538 885.58499)
(0.00014600871 0.0001460087 885.58496)
(0.00012902239 5.7955382e-05 885.5848)
(0.0015823838 -1.9075872e-06 885.58474)
(0.0024767477 -2.9531577e-05 885.58546)
(0.00070572312 -2.8685637e-05 885.58593)
(-0.0005626343 0.0011077275 885.5854)
(-0.002880497 0.0010270708 885.58515)
(-0.0015935206 0.00074930396 885.58458)
(0.00086868273 0.00043540713 885.58474)
(0.00055059087 0.00023810702 885.58485)
(5.795539e-05 0.00012902238 885.5848)
(9.0190726e-05 9.0190727e-05 885.58463)
(0.0015933156 0.00012449383 885.58457)
(0.002529345 0.00023690553 885.58532)
(0.0007287985 0.00040765484 885.58582)
(-0.00055442651 0.0017143641 885.5856)
(-0.0030122699 0.0023044241 885.58532)
(-0.0019276456 0.0023179308 885.58467)
(0.00056712973 0.0019181111 885.58475)
(0.00038626767 0.0016808025 885.58481)
(-1.9075888e-06 0.0015823838 885.58474)
(0.00012449383 0.0015933156 885.58457)
(0.0017290986 0.0017290986 885.58454)
(0.0027599087 0.0020055065 885.58536)
(0.00081955599 0.0023461467 885.58597)
(-0.00016926099 0.0013268974 885.58615)
(-0.0022769303 0.0024294515 885.58613)
(-0.0019798336 0.0031758651 885.58554)
(0.00023155448 0.0027982699 885.58554)
(0.00021486356 0.002556123 885.58555)
(-2.953158e-05 0.0024767477 885.58546)
(0.00023690553 0.002529345 885.58532)
(0.0020055065 0.0027599087 885.58536)
(0.003146393 0.003146393 885.58633)
(0.00095589198 0.0024971463 885.58713)
(0.00018060958 0.00017526037 885.58632)
(-0.0011633021 0.00052513094 885.58649)
(-0.0015588273 0.00091767913 885.58612)
(-5.2612411e-05 0.00080580182 885.58606)
(6.4745501e-05 0.00072823454 885.58603)
(-2.8685635e-05 0.00070572312 885.58593)
(0.00040765484 0.0007287985 885.58582)
(0.0023461467 0.00081955599 885.58597)
(0.0024971463 0.00095589198 885.58713)
(0.00038672484 0.00038672484 885.58718)
(0.00025190854 0.00025190854 877.55573)
(-0.0032079595 -0.0014069054 877.55583)
(-0.0029950213 -0.0006025664 877.55512)
(0.0014244497 -0.00048368472 877.55537)
(0.0014181549 -0.00050062483 877.55561)
(0.0010710457 -0.00055613702 877.55571)
(0.0012152411 -0.00063865627 877.55574)
(0.0020446416 -0.00064109414 877.55586)
(0.0016575475 -0.00017020168 877.55632)
(0.00022773837 0.00024033017 877.55646)
(-0.0014069054 -0.0032079595 877.55583)
(-0.0044896719 -0.0044896719 877.55544)
(-0.0016101902 -0.0029643865 877.55499)
(0.001577362 -0.0027320375 877.55528)
(0.0013094764 -0.0027923759 877.5555)
(0.0008639985 -0.0029718158 877.55557)
(0.0010878054 -0.0032637177 877.55553)
(0.0027473235 -0.0034520712 877.55562)
(0.002979684 -0.0025586431 877.55633)
(0.00063827022 -0.0012521482 877.55664)
(-0.0006025664 -0.0029950213 877.55512)
(-0.0029643866 -0.0016101902 877.55499)
(-0.0012373869 -0.0012373869 877.55461)
(0.0015964604 -0.0011903487 877.5549)
(0.0011783766 -0.0012747976 877.5551)
(0.00059970383 -0.0014632011 877.55513)
(0.00073498575 -0.0017839778 877.55503)
(0.0027497162 -0.0022007691 877.55503)
(0.0038574705 -0.0022623112 877.5558)
(0.001098735 -0.001764916 877.5563)
(-0.00048368472 0.0014244497 877.55537)
(-0.0027320375 0.001577362 877.55528)
(-0.0011903487 0.0015964604 877.5549)
(0.0015399513 0.0015399513 877.55517)
(0.001036624 0.0014258174 877.55535)
(0.00035481828 0.001251881 877.55534)
(0.00035023749 0.00099422016 877.55518)
(0.0022689901 0.00062684417 877.5551)
(0.0034155371 0.00022842581 877.55579)
(0.00096986703 -0.0001012287 877.55625)
(-0.00050062483 0.0014181549 877.55561)
(-0.0027923759 0.0013094764 877.5555)
(-0.0012747976 0.0011783766 877.5551)
(0.0014258174 0.001036624 877.55535)
(0.00089030621 0.0008903062 877.5555)
(0.00016810662 0.00073487352 877.55546)
(0.00010994893 0.00056195822 877.55527)
(0.0019839218 0.0003640292 877.55514)
(0.0031293976 0.00016157646 877.55578)
(0.00087896531 -1.3030433e-05 877.5562)
(-0.00055613702 0.0010710457 877.55571)
(-0.0029718158 0.0008639985 877.55557)
(-0.0014632011 0.00059970382 877.55513)
(0.001251881 0.00035481828 877.55534)
(0.00073487352 0.00016810662 877.55546)
(2.6470292e-05 2.6470288e-05 877.5554)
(-2.0606819e-05 -7.8020017e-05 877.55518)
(0.0018686084 -0.00014514831 877.55503)
(0.0030384774 -0.00016948893 877.55566)
(0.00085346243 -0.00015831297 877.55607)
(-0.00063865627 0.0012152411 877.55574)
(-0.0032637177 0.0010878054 877.55553)
(-0.0017839778 0.00073498575 877.55503)
(0.00099422017 0.00035023749 877.55518)
(0.00056195822 0.00010994894 877.55527)
(-7.8020016e-05 -2.0606819e-05 877.55518)
(-6.1669666e-05 -6.166967e-05 877.55495)
(0.0018924529 -6.8772481e-06 877.55481)
(0.0031162329 0.00015354916 877.55546)
(0.00088641595 0.00039509419 877.5559)
(-0.00064109414 0.0020446416 877.55586)
(-0.0034520712 0.0027473235 877.55562)
(-0.0022007691 0.0027497162 877.55503)
(0.00062684417 0.0022689901 877.5551)
(0.00036402921 0.0019839218 877.55514)
(-0.00014514832 0.0018686084 877.55503)
(-6.8772481e-06 0.0018924529 877.55481)
(0.0020838272 0.0020838272 877.55471)
(0.0034404489 0.0024763278 877.55543)
(0.0010144925 0.0029753856 877.55598)
(-0.00017020169 0.0016575475 877.55632)
(-0.0025586431 0.002979684 877.55633)
(-0.0022623112 0.0038574705 877.5558)
(0.00022842582 0.0034155371 877.55579)
(0.00016157646 0.0031293976 877.55578)
(-0.00016948894 0.0030384774 877.55566)
(0.00015354915 0.0031162329 877.55546)
(0.0024763278 0.0034404489 877.55543)
(0.0040077913 0.0040077913 877.55631)
(0.0012191212 0.0030871473 877.55707)
(0.00024033017 0.00022773837 877.55646)
(-0.0012521482 0.00063827023 877.55664)
(-0.001764916 0.001098735 877.5563)
(-0.0001012287 0.00096986703 877.55625)
(-1.303043e-05 0.00087896531 877.5562)
(-0.00015831297 0.00085346243 877.55607)
(0.00039509419 0.00088641595 877.5559)
(0.0029753856 0.0010144925 877.55598)
(0.0030871473 0.0012191212 877.55707)
(0.00040072975 0.00040072975 877.5571)
(0.00029004539 0.00029004539 869.29164)
(-0.0034839898 -0.001526636 869.29177)
(-0.003200962 -0.00063658755 869.29115)
(0.0016650929 -0.00050779227 869.2914)
(0.0015739332 -0.00053006338 869.29162)
(0.001114278 -0.00059778838 869.29169)
(0.0012567807 -0.00070093276 869.29166)
(0.0022948904 -0.00071548055 869.29171)
(0.0019265973 -0.00016506747 869.29209)
(0.00026743061 0.00030104911 869.29218)
(-0.001526636 -0.0034839898 869.29177)
(-0.0048739392 -0.0048739392 869.29144)
(-0.0016726963 -0.0031893405 869.29107)
(0.0018248791 -0.0029412546 869.29135)
(0.0014389391 -0.003019713 869.29155)
(0.00085797391 -0.0032374377 869.29158)
(0.0010802424 -0.0035945313 869.2915)
(0.0030986883 -0.0038420035 869.29151)
(0.0034513918 -0.0028038501 869.29211)
(0.00073354719 -0.0013205896 869.29237)
(-0.00063658755 -0.003200962 869.29115)
(-0.0031893405 -0.0016726963 869.29107)
(-0.0012682774 -0.0012682774 869.29075)
(0.0018347205 -0.0012268689 869.29104)
(0.0012777501 -0.0013334129 869.29122)
(0.00053945968 -0.0015601138 869.29121)
(0.00065221489 -0.0019435647 869.29105)
(0.0030855715 -0.0024425524 869.29098)
(0.0044480112 -0.0025166184 869.29163)
(0.0012562709 -0.0019508549 869.29207)
(-0.00050779228 0.0016650929 869.2914)
(-0.0029412546 0.0018248791 869.29135)
(-0.0012268689 0.0018347205 869.29104)
(0.0017597436 0.0017597436 869.29131)
(0.0011056942 0.0016200609 869.29147)
(0.00024782213 0.0014122065 869.29142)
(0.00019780383 0.0011072799 869.29121)
(0.0025256346 0.00067556293 869.29105)
(0.0039430893 0.00021608268 869.29163)
(0.0011107228 -0.00015772124 869.29202)
(-0.00053006338 0.0015739332 869.29162)
(-0.003019713 0.0014389391 869.29155)
(-0.0013334129 0.0012777501 869.29122)
(0.0016200609 0.0011056942 869.29147)
(0.00093021298 0.00093021299 869.29159)
(2.6678731e-05 0.00074597656 869.29152)
(-8.4428667e-05 0.00054300768 869.29127)
(0.0021943743 0.00031270054 869.29107)
(0.0036147271 8.0684288e-05 869.2916)
(0.0010070683 -0.000117132 869.29195)
(-0.00059778837 0.001114278 869.29169)
(-0.0032374377 0.00085797391 869.29158)
(-0.0015601138 0.00053945967 869.29121)
(0.0014122065 0.00024782212 869.29142)
(0.00074597656 2.6678728e-05 869.29152)
(-0.00013938318 -0.00013938318 869.29141)
(-0.00023547219 -0.00025938409 869.29114)
(0.0020633112 -0.00033268635 869.29093)
(0.0035132567 -0.00035270748 869.29144)
(0.00097884528 -0.00033067271 869.29178)
(-0.00070093276 0.0012567807 869.29166)
(-0.0035945313 0.0010802424 869.2915)
(-0.0019435647 0.00065221489 869.29105)
(0.00110728 0.00019780383 869.29121)
(0.00054300768 -8.4428664e-05 869.29127)
(-0.00025938408 -0.00023547219 869.29114)
(-0.00027773184 -0.00027773184 869.29087)
(0.0021010509 -0.00020135168 869.29065)
(0.0036167407 8.222068e-06 869.29119)
(0.0010217582 0.00032146162 869.29156)
(-0.00071548056 0.0022948903 869.29171)
(-0.0038420035 0.0030986883 869.29151)
(-0.0024425524 0.0030855716 869.29098)
(0.00067556294 0.0025256346 869.29105)
(0.00031270055 0.0021943743 869.29107)
(-0.00033268635 0.0020633112 869.29093)
(-0.00020135169 0.0021010509 869.29065)
(0.0023492651 0.0023492651 869.29048)
(0.00403607 0.0028605614 869.2911)
(0.0011876716 0.0035235426 869.29158)
(-0.00016506747 0.0019265973 869.29209)
(-0.0028038501 0.0034513918 869.29211)
(-0.0025166183 0.0044480112 869.29163)
(0.00021608268 0.0039430893 869.29163)
(8.0684283e-05 0.0036147271 869.2916)
(-0.00035270749 0.0035132567 869.29144)
(8.2220725e-06 0.0036167407 869.29119)
(0.0028605614 0.00403607 869.2911)
(0.0047910182 0.0047910182 869.29187)
(0.0014637456 0.0036202527 869.29257)
(0.00030104911 0.0002674306 869.29218)
(-0.0013205896 0.00073354719 869.29237)
(-0.0019508549 0.0012562709 869.29207)
(-0.00015772124 0.0011107228 869.29202)
(-0.00011713201 0.0010070683 869.29195)
(-0.00033067272 0.00097884528 869.29178)
(0.00032146162 0.0010217582 869.29156)
(0.0035235426 0.0011876716 869.29158)
(0.0036202527 0.0014637456 869.29257)
(0.00040716134 0.00040716134 869.29257)
(0.00033419579 0.0003341958 860.8194)
(-0.003704296 -0.0016245571 860.81954)
(-0.0033576902 -0.00065537111 860.81901)
(0.0018981292 -0.00051796365 860.81927)
(0.0017018154 -0.0005457357 860.81947)
(0.0011141495 -0.00062555275 860.8195)
(0.0012382226 -0.00074923133 860.81943)
(0.0024687121 -0.00077720711 860.81941)
(0.0021325554 -0.00015411509 860.81971)
(0.0002930014 0.00036245759 860.81976)
(-0.0016245571 -0.003704296 860.81954)
(-0.0051886463 -0.0051886463 860.81928)
(-0.0016978 -0.0033579196 860.81898)
(0.0020625823 -0.003097213 860.81926)
(0.0015404317 -0.0031943933 860.81944)
(0.00080890608 -0.0034500825 860.81944)
(0.0010107411 -0.0038717643 860.81931)
(0.0033613865 -0.0041804419 860.81924)
(0.0038420525 -0.0030124298 860.81975)
(0.00080957407 -0.0013690491 860.81995)
(-0.00065537111 -0.0033576902 860.81901)
(-0.0033579196 -0.0016978 860.81898)
(-0.0012662569 -0.0012662569 860.81873)
(0.0020616555 -0.0012323031 860.81901)
(0.0013489459 -0.0013615313 860.81917)
(0.00043677855 -0.0016262482 860.81913)
(0.00050786321 -0.0020713515 860.81893)
(0.0033280466 -0.0026516848 860.81879)
(0.0049439482 -0.0027421337 860.81932)
(0.0013885886 -0.0021166236 860.81968)
(-0.00051796365 0.0018981292 860.81927)
(-0.003097213 0.0020625823 860.81926)
(-0.0012323031 0.0020616555 860.81901)
(0.0019673079 0.0019673079 860.81928)