/*--------------------------------*- C++ -*----------------------------------*\
| =========                 |                                                 |
| \\      /  F ield         | OpenFOAM: The Open Source CFD Toolbox           |
|  \\    /   O peration     | Version:  v2106                                 |
|   \\  /    A nd           | Website:  www.openfoam.com                      |
|    \\/     M anipulation  |                                                 |
\*---------------------------------------------------------------------------*/
FoamFile
{
    version     2.0;
    format      ascii;
    arch        "LSB;label=32;scalar=64";
    class       volScalarField;
    location    "35";
    object      gradTx;
}
// * * * * * * * * * * * * * * * * * * * * * * * * * * * * * * * * * * * * * //

dimensions      [0 -1 0 1 0 0 0];

internalField   nonuniform List<scalar> 
4000
(
0.00018459001
2.7907747e-05
-0.0003052128
-7.6902773e-05
-1.8771053e-05
2.2186786e-05
5.1754453e-05
5.9437003e-05
3.187542e-05
2.6015109e-06
-5.3797761e-06
-0.00021055106
-0.00025295847
-6.9722185e-05
-1.577885e-05
2.7042355e-05
6.2832458e-05
8.15843e-05
4.9850507e-05
5.0150466e-06
2.5617471e-05
-0.00015719236
-0.00024381613
-6.5695078e-05
-1.1974438e-05
3.2659836e-05
7.4620316e-05
0.00011085392
0.00011240936
3.2692659e-05
2.9456446e-05
-0.00014915439
-0.00023961137
-6.1987279e-05
-8.3306588e-06
3.6758266e-05
7.9686814e-05
0.00011703083
0.00011834843
3.4420301e-05
3.0404526e-05
-0.00014598468
-0.00023608123
-5.8519403e-05
-5.0084575e-06
4.0087014e-05
8.3128459e-05
0.00012033511
0.00012060326
3.488719e-05
3.1451242e-05
-0.00014235778
-0.00023216318
-5.5021299e-05
-1.9412349e-06
4.2792514e-05
8.552336e-05
0.00012231595
0.00012187777
3.51628e-05
3.3641573e-05
-0.00013551162
-0.00022636532
-5.1092229e-05
1.0257963e-06
4.4997964e-05
8.705759e-05
0.00012319354
0.00012219036
3.5188757e-05
3.8836584e-05
-0.00011949191
-0.00021530882
-4.6513156e-05
3.8953099e-06
4.6721645e-05
8.7739107e-05
0.00012279622
0.00012104009
3.4738508e-05
4.8406438e-05
-8.4094702e-05
-0.00019091878
-4.1611044e-05
6.3109089e-06
4.7856391e-05
8.753786e-05
0.00012073448
0.00011706472
3.314616e-05
5.0819974e-05
-3.8957984e-05
-0.0001468109
-3.8319251e-05
7.4246628e-06
4.8308752e-05
8.690142e-05
0.00011767058
0.00010939861
2.9627771e-05
0.0011361153
-0.00016340029
-0.0024440712
-0.00078408668
-0.00018805729
0.00021804019
0.0005069111
0.00058081956
0.00027030164
-1.4104198e-06
4.7678222e-05
-0.0015703545
-0.0021753894
-0.00072711974
-0.00015894163
0.00026494163
0.00061627147
0.00080248102
0.000341405
-5.0057054e-05
0.00019814581
-0.0012826001
-0.0020880424
-0.00068440218
-0.00012194244
0.00031832103
0.00072966613
0.0010906896
0.00090313415
0.00018535048
0.00022679948
-0.0012143257
-0.0020431579
-0.00064761799
-8.7078833e-05
0.00035717009
0.00077837715
0.0011567745
0.00098090405
0.00021149526
0.00023612377
-0.0011829156
-0.0020085407
-0.00061435191
-5.5459242e-05
0.00038873002
0.00081095019
0.0011887732
0.0010044876
0.00021692514
0.00024620992
-0.0011482109
-0.0019712951
-0.0005811348
-2.6317758e-05
0.00041443769
0.00083367203
0.0012075661
0.0010165536
0.00021951308
0.00026739139
-0.0010826347
-0.0019163122
-0.00054394292
1.8083568e-06
0.00043542531
0.00084832909
0.0012159833
0.0010195851
0.00021977763
0.00031911682
-0.00092545586
-0.0018091894
-0.00049985073
2.897713e-05
0.00045181659
0.00085489094
0.0012121477
0.0010083131
0.00021533954
0.0004151657
-0.0005727647
-0.0015620188
-0.00044585931
5.259998e-05
0.00046263541
0.0008529107
0.0011913612
0.00096580693
0.00019778314
0.00036651906
-0.00029262335
-0.0011696903
-0.00039849732
6.4626714e-05
0.00046691416
0.00084665039
0.0011583695
0.0008673207
0.00014968206
0.001286916
-0.0010130142
-0.003920259
-0.0013243505
-0.00028654712
0.00045634357
0.0010198559
0.0011969033
0.00030244576
-0.0001800085
-0.00020272076
-0.0029284388
-0.0035352879
-0.0012351234
-0.00023796654
0.00053826286
0.0012382481
0.0017507317
0.00071266972
-0.00016790014
9.9662221e-06
-0.0025106463
-0.0033928702
-0.0011613962
-0.00017543924
0.00062496687
0.0014221488
0.0022424216
0.0016506066
0.00021603283
5.3926625e-05
-0.00240105
-0.0033147274
-0.0010970339
-0.00011555047
0.00069007778
0.0015025973
0.0023571901
0.0017924026
0.00026428524
6.9450987e-05
-0.0023476919
-0.0032547807
-0.0010393454
-6.106271e-05
0.00074393337
0.001557706
0.0024121512
0.0018345497
0.00027436095
8.6313676e-05
-0.0022899421
-0.0031923113
-0.00098265734
-1.0968831e-05
0.00078826292
0.0015969785
0.0024449263
0.0018560232
0.00027906822
0.00012406385
-0.0021790686
-0.0031029658
-0.00092037887
3.7122436e-05
0.00082480049
0.0016231199
0.0024606391
0.0018626964
0.00028005113
0.00023190847
-0.0018876492
-0.0029279622
-0.00084710015
8.3412431e-05
0.00085367687
0.0016356715
0.0024546061
0.001841946
0.00027159797
0.00049328275
-0.0011335503
-0.0024965074
-0.00075064925
0.00012485863
0.00087328832
0.0016327997
0.0024111941
0.0017308038
0.00022106397
0.00050539111
-0.00053948833
-0.0018482293
-0.00066315708
0.00014703311
0.00088182359
0.0016215943
0.0023227134
0.0012861961
-2.4807108e-05
0.0012964368
-0.0018945724
-0.0051085489
-0.001696381
-0.00029117122
0.00075630161
0.0016257794
0.0020645888
0.00074170034
-0.00021168147
-0.0004761525
-0.004133381
-0.0046010274
-0.0015787348
-0.00023013711
0.00085794423
0.0019208005
0.0029086616
0.001447732
-0.00015423393
-0.00019610225
-0.0035785764
-0.0044064948
-0.0014791947
-0.000149851
0.00096450771
0.0021513212
0.0035686165
0.0027052332
0.00035380136
-0.0001378048
-0.0034313269
-0.0042998948
-0.0013929362
-7.2161292e-05
0.0010457592
0.0022491504
0.0037153055
0.0028943592
0.0004186298
-0.00011767144
-0.0033613901
-0.0042206962
-0.001317069
-1.3516331e-06
0.0011145862
0.0023184015
0.0037848006
0.0029485457
0.00043164292
-9.7115386e-05
-0.0032900067
-0.004141919
-0.0012444368
6.3455269e-05
0.0011722544
0.0023697587
0.0038282384
0.0029777069
0.00043818633
-4.9909697e-05
-0.003153184
-0.0040328812
-0.0011669904
0.00012514355
0.0012206826
0.0024061882
0.0038526118
0.0029915797
0.00044136378
9.9565333e-05
-0.0027644649
-0.003813569
-0.0010773565
0.00018406353
0.0012600411
0.0024271341
0.003852018
0.0029741473
0.0004339241
0.00051280554
-0.0016491562
-0.0032262374
-0.00095080638
0.00023807644
0.0012884938
0.0024299678
0.0038011302
0.0028092052
0.00035370598
0.00057025308
-0.00080093196
-0.0023669418
-0.00083404405
0.00026741124
0.0013030751
0.0024235745
0.0036696434
0.0018214122
-0.00022460458
0.0012468109
-0.0027426941
-0.0060826323
-0.0019195601
-0.00021048498
0.0010958779
0.0022556113
0.0030025123
0.0013781995
-0.00015015086
-0.00075491826
-0.0052155334
-0.0054434695
-0.0017747543
-0.00014247044
0.0012055552
0.0026037738
0.0041005924
0.002361163
-4.6160272e-05
-0.00040174872
-0.0045130092
-0.0051957646
-0.0016530544
-5.1636299e-05
0.0013193514
0.002859015
0.0048945153
0.0038926062
0.00056919611
-0.00032880967
-0.0043286657
-0.0050638827
-0.0015501213
3.6551049e-05
0.0014063788
0.002959479
0.0050545477
0.0041100432
0.00064455769
-0.00030521154
-0.0042465035
-0.0049711316
-0.0014624233
0.00011678612
0.0014823857
0.0030338712
0.0051290421
0.004168145
0.00065823494
-0.00028346665
-0.004169817
-0.0048848612
-0.0013816989
0.00018964131
0.0015477216
0.0030925225
0.0051794738
0.0042028274
0.000666167
-0.00023209334
-0.0040230301
-0.004770308
-0.0012993889
0.00025812892
0.0016041733
0.0031381423
0.0052142584
0.0042278855
0.00067313069
-5.135834e-05
-0.0035664133
-0.004529156
-0.0012068427
0.00032268477
0.0016519928
0.0031705596
0.0052285659
0.0042300645
0.00067320842
0.00049996005
-0.0021310271
-0.0038163527
-0.0010648621
0.00038305501
0.0016893896
0.0031872345
0.005192349
0.0040534016
0.0005809527
0.00060395064
-0.0010520067
-0.0027802758
-0.00093130387
0.00041546899
0.0017117333
0.0031977966
0.005054082
0.0025257376
-0.00034523425
0.0011649965
-0.0035214283
-0.0068565346
-0.002011178
-6.1400398e-05
0.0014505862
0.0028645028
0.003921108
0.0020860799
-3.9296989e-05
-0.0010246705
-0.006163363
-0.0060828998
-0.0018411755
8.5874948e-06
0.0015580868
0.003245163
0.0052373734
0.0033317512
0.0001164496
-0.00059629329
-0.0053094567
-0.0057827474
-0.0017011302
0.00010311857
0.0016673859
0.0035046391
0.0061309391
0.0050938999
0.00082448821
-0.00050891393
-0.0050895757
-0.0056290176
-0.0015867147
0.00019468102
0.0017502356
0.0035936521
0.0062859705
0.0053209782
0.00090467141
-0.00048295831
-0.0049994089
-0.0055282865
-0.001493463
0.00027749433
0.0018257233
0.0036643222
0.0063559015
0.0053746957
0.00091669027
-0.00046225534
-0.0049250567
-0.0054429241
-0.0014123389
0.0003517511
0.0018930333
0.0037254393
0.0064095363
0.0054124912
0.00092546712
-0.00041129126
-0.0047826093
-0.0053361377
-0.0013351256
0.00042029193
0.0019535961
0.0037790561
0.0064562364
0.0054521159
0.00093752786
-0.00020848187
-0.0042849204
-0.0050944349
-0.0012526559
0.00048353822
0.0020077672
0.0038257788
0.0064941339
0.0054879621
0.00095053104
0.00046621903
-0.0025727782
-0.0042875405
-0.0011101632
0.00054385765
0.002053931
0.0038636538
0.0064924266
0.0053372561
0.00086209286
0.00062196562
-0.0012771004
-0.0031052078
-0.00097186005
0.00057505121
0.0020851874
0.0039012497
0.0063792741
0.0033291799
-0.00038818637
0.0010708223
-0.0041992942
-0.0074360442
-0.0019874467
0.0001372619
0.001796372
0.0034172024
0.0047644415
0.0027888
9.2920617e-05
-0.0012707488
-0.0069571384
-0.0065299837
-0.0017951592
0.0002044386
0.0018924559
0.0038111811
0.0062621842
0.0042770558
0.00030281747
-0.00076774058
-0.0059538747
-0.0061803173
-0.0016411106
0.00029613668
0.0019865855
0.0040562034
0.0072224487
0.0062277036
0.0010893777
-0.00066670852
-0.0057014116
-0.0060088635
-0.0015205164
0.00038426481
0.0020560548
0.0041209279
0.0073555225
0.0064471142
0.0011691543
-0.00063954891
-0.0056075386
-0.0059056745
-0.0014278186
0.00046309025
0.002123746
0.0041795907
0.0074119305
0.0064886672
0.0011773539
-0.00062192405
-0.0055425368
-0.0058290372
-0.0013535628
0.00053239176
0.0021875474
0.0042384961
0.0074650293
0.0065271147
0.0011864014
-0.00057549301
-0.0054173251
-0.0057420756
-0.0012906581
0.00059458287
0.0022483709
0.0042987238
0.0075246575
0.0065839219
0.0012045788
-0.00035927158
-0.0049035358
-0.0055192904
-0.0012301756
0.00064995993
0.0023066805
0.0043619559
0.0075934148
0.006664992
0.0012348841
0.00042300211
-0.0029593178
-0.0046487373
-0.0011011763
0.00070408964
0.0023610979
0.0044271093
0.007642889
0.0065719327
0.0011636032
0.00063289897
-0.0014646322
-0.0033492321
-0.000969212
0.00072996042
0.0024019352
0.0044998333
0.0075814256
0.0041534374
-0.00037744611
0.00097842195
-0.004755427
-0.0078291615
-0.0018646806
0.00036748583
0.0021125118
0.0038868712
0.0054942058
0.0034346266
0.00022722995
-0.0014826544
-0.0075843111
-0.0067962245
-0.0016536778
0.00042736428
0.0021889617
0.0042766371
0.007137064
0.0051398016
0.00049037339
-0.0009075008
-0.0064378199
-0.0064016245
-0.0014903342
0.00051012657
0.0022584622
0.0044906462
0.0081334538
0.0072382202
0.0013415702
-0.00079402971
-0.0061567742
-0.0062170938
-0.0013688667
0.00058846853
0.0023063093
0.0045198152
0.0082295799
0.0074344911
0.0014162587
-0.00076683224
-0.0060634735
-0.0061168135
-0.0012825252
0.00065719366
0.0023595567
0.0045590176
0.0082644449
0.0074569392
0.0014187238
-0.00075411074
-0.0060141334
-0.0060559895
-0.0012217996
0.00071565446
0.0024147342
0.0046113116
0.0083134342
0.0074936295
0.0014274697
-0.00071586566
-0.0059175231
-0.0059994659
-0.0011814307
0.00076561853
0.0024721126
0.0046765432
0.0083864099
0.0075694057
0.0014524896
-0.00049426679
-0.0054103584
-0.0058128114
-0.0011534281
0.00080715081
0.0025322597
0.0047576858
0.0084916038
0.0077047237
0.0015035145
0.00037937312
-0.0032782752
-0.00490695
-0.0010504396
0.00084947285
0.0025940776
0.0048547128
0.0086055679
0.0076953485
0.0014604754
0.00064251655
-0.0016067648
-0.0035181219
-0.0009347092
0.00086628926
0.0026447263
0.00496878
0.0086175466
0.0049353963
-0.00033645372
0.0008973727
-0.0051788906
-0.0080476279
-0.0016594156
0.00061321263
0.0023829475
0.0042551999
0.0060857919
0.003989129
0.00035035961
-0.0016539482
-0.0080408289
-0.0068959642
-0.001433636
0.00066171805
0.0024326664
0.0046251246
0.0078387621
0.0058819267
0.00066327952
-0.0010105862
-0.0067602742
-0.0064621025
-0.0012658195
0.00073000699
0.0024694101
0.0047938892
0.0088436249
0.0080895473
0.0015656803
-0.00088617241
-0.0064553035
-0.0062693875
-0.0011486028
0.00079281077
0.0024884932
0.0047779749
0.0088900489
0.0082492985
0.0016312015
-0.00086006642
-0.006366678
-0.0061770694
-0.001073969
0.00084591623
0.0025214178
0.004791244
0.0088964631
0.0082466932
0.0016263004
-0.00085383546
-0.0063385091
-0.0061382948
-0.0010326936
0.00088825351
0.0025633386
0.0048329021
0.0089380233
0.0082793423
0.0016341938
-0.0008269205
-0.0062802154
-0.0061212426
-0.0010219614
0.00092076169
0.0026137924
0.0049013464
0.0090241831
0.0083750639
0.0016665
-0.00060721897
-0.0057998198
-0.0059854445
-0.0010353387
0.00094318075
0.002673441
0.0050009858
0.0091696722
0.0085711917
0.0017407538
0.00034172626
-0.0035223825
-0.0050699557
-0.00096912315
0.00096873602
0.0027415124
0.0051329953
0.0093581254
0.0086661469
0.0017349198
0.00065464617
-0.0016994015
-0.0036180727
-0.00087819287
0.00097322454
0.0028018117
0.0052928352
0.0094607551
0.0056295614
-0.0002836365
0.00083366118
-0.0054667733
-0.0081063458
-0.0013880765
0.00086074449
0.0025964005
0.0045116028
0.0065256697
0.0044309859
0.0004535058
-0.0017814842
-0.0083297333
-0.0068460599
-0.001151604
0.00089430596
0.0026134754
0.0048481236
0.0083557939
0.0064802013
0.00081094186
-0.0010749789
-0.0069265444
-0.0063792694
-0.00098402962
0.00094326529
0.002610738
0.0049598281
0.0093446838
0.008761145
0.0017517686
-0.00094129359
-0.006602657
-0.006183261
-0.00087583798
0.00098549439
0.0025950999
0.0048911141
0.0093309891
0.0088732084
0.001804681
-0.00091733056
-0.0065224976
-0.0061035034
-0.00081768675
0.0010181605
0.0026026835
0.0048730406
0.0093032405
0.0088406634
0.0017910837
-0.00091891927
-0.0065201362
-0.0060920726
-0.00080094278
0.0010397892
0.002627285
0.0049004935
0.0093343802
0.0088671735
0.0017976123
-0.0009059473
-0.0065081601
-0.0061218789
-0.00082574128
0.0010503456
0.002667639
0.0049702479
0.0094330545
0.0089830853
0.0018373912
-0.00069457205
-0.0060719109
-0.0060490821
-0.00088773027
0.0010491686
0.0027244923
0.0050882373
0.0096210938
0.0092442918
0.0019365417
0.00031413549
-0.0036891459
-0.0051466837
-0.0008671846
0.0010537367
0.0027974529
0.0052569615
0.0098909361
0.0094591583
0.0019748784
0.00067157155
-0.0017417518
-0.003656075
-0.00080821184
0.0010431337
0.0028669142
0.0054653556
0.010097167
0.0062057222
-0.00023241569
0.00079048523
-0.005622278
-0.0080223713
-0.0010665568
0.0010987992
0.0027459305
0.0046519937
0.0068091048
0.0047489734
0.00053128155
-0.001864652
-0.0084594176
-0.0066650166
-0.00082345362
0.0011144097
0.0027256548
0.0049436859
0.0086859176
0.0069228322
0.00092682135
-0.0011009412
-0.0069466913
-0.0061719652
-0.00066056163
0.0011399433
0.0026781388
0.0049889334
0.00963771
0.0092442489
0.0018941019
-0.00095974879
-0.0066090115
-0.0059773602
-0.00056568805
0.0011573565
0.0026230465
0.0048615207
0.0095558198
0.0092996933
0.0019316136
-0.00093887242
-0.0065406962
-0.0059141996
-0.00052812588
0.0011655364
0.0026011864
0.0048077972
0.0094894218
0.0092334064
0.0019082971
-0.00094934179
-0.0065678674
-0.0059344134
-0.00054009496
0.0011626326
0.0026050387
0.0048179927
0.0095075394
0.0092519183
0.0019130012
-0.00095238949
-0.0066084878
-0.0060168079
-0.00060507829
0.0011475285
0.002632492
0.0048871298
0.0096176561
0.0093876406
0.0019602165
-0.00075488035
-0.0062309277
-0.0060165786
-0.00072123114
0.0011191046
0.0026843713
0.0050227101
0.0098490774
0.0097161277
0.0020851689
0.00029881906
-0.0037798827
-0.0051469058
-0.00075336643
0.0010992481
0.0027607263
0.0052286679
0.0102044
0.010061821
0.0021727885
0.00069435886
-0.0017356521
-0.0036397174
-0.00073207364
0.0010713295
0.0028386055
0.0054869195
0.010523258
0.006646035
-0.00019202159
0.0007689192
-0.0056530601
-0.0078139499
-0.00070985802
0.0013183977
0.0028283012
0.0046775111
0.0069381828
0.0049396205
0.0005809283
-0.0019047293
-0.0084420557
-0.006372116
-0.0004640408
0.0013136458
0.0027671624
0.0049150878
0.0088339798
0.0072067809
0.0010075059
-0.0010904112
-0.0068340712
-0.0058595563
-0.00030987607
0.0013124607
0.0026709803
0.0048868393
0.0097308674
0.0095390291
0.0019901703
-0.00094350673
-0.0064876622
-0.0056707171
-0.00023204193
0.0013016569
0.0025729261
0.0046966039
0.0095749824
0.0095311177
0.0020101312
-0.00092653308
-0.0064340893
-0.0056275575
-0.0002184485
0.0012821179
0.0025184585
0.0046040297
0.0094666656
0.0094283586
0.0019763753
-0.0009466747
-0.0064935993
-0.0056827059
-0.0002623847
0.0012516547
0.0024988045
0.0045944762
0.0094695948
0.009437292
0.0019788597
-0.00096729227
-0.0065914102
-0.0058217937
-0.00037097032
0.0012079962
0.0025109858
0.0046611269
0.009589789
0.0095919347
0.0020332876
-0.00078829025
-0.0062842711
-0.0059011898
-0.00054519428
0.001149527
0.0025559017
0.0048130579
0.0098642016
0.0099880843
0.0021842707
0.0002965724
-0.0037987256
-0.005080791
-0.00063517213
0.0011026087
0.0026341092
0.0050557336
0.010306606
0.010471294
0.0023245907
0.00072315
-0.0016848625
-0.0035768531
-0.00065586472
0.0010557013
0.0027194777
0.0053638501
0.010743561
0.0069423981
-0.00016832644
0.00076845807
-0.005569861
-0.0074997212
-0.00033182986
0.0015126712
0.0028433184
0.0045933447
0.0069201397
0.0050053293
0.00060169595
-0.0019043542
-0.0082923092
-0.0059866923
-8.6979561e-05
0.0014857498
0.0027389576
0.0047696031
0.0088101124
0.0073356142
0.0010519749
-0.0010465074
-0.006604128
-0.0054612714
5.4889682e-05
0.0014553689
0.0025915836
0.0046630707
0.0096375197
0.0096523198
0.0020399079
-0.00089566824
-0.0062538595
-0.0052821267
0.00011259057
0.0014138017
0.0024482566
0.0044075859
0.0094040104
0.0095764197
0.0020407868
-0.00088327386
-0.0062174084
-0.0052617013
9.9590746e-05
0.0013641396
0.0023589532
0.0042740449
0.0092516862
0.0094354945
0.0019961634
-0.00091361587
-0.0063111618
-0.0053540747
2.1361243e-05
0.0013038974
0.0023137278
0.0042428367
0.0092377268
0.009433577
0.0019961057
-0.00095284775
-0.0064691433
-0.0055524022
-0.00013303958
0.0012296108
0.0023087338
0.0043052619
0.0093664418
0.0096058485
0.0020573698
-0.00079611023
-0.0062414358
-0.005716092
-0.00036766456
0.0011391482
0.0023449449
0.0044719477
0.0096824324
0.010068469
0.0022340207
0.00030713405
-0.0037517633
-0.0049585043
-0.00051887306
0.0010633272
0.0024234894
0.0047499676
0.010211354
0.010692109
0.0024289295
0.00075741303
-0.0015944453
-0.0034752865
-0.00058448978
0.00099630553
0.0025152989
0.0051068401
0.010768693
0.0070942374
-0.00016456069
0.00078745536
-0.0053854228
-0.0070981123
5.4989469e-05
0.001676632
0.0027932101
0.0044077148
0.006765978
0.0049528568
0.00059434632
-0.001867104
-0.008026308
-0.0055275823
0.00029549093
0.00162633
0.0026443625
0.004517444
0.0086282502
0.0073177753
0.0010610102
-0.00097313478
-0.0062734426
-0.0049956982
0.0004220234
0.0015650816
0.0024445606
0.0043299521
0.0093746893
0.009595803
0.0020450705
-0.000820084
-0.0059238938
-0.004829679
0.00045715226
0.0014910496
0.0022547945
0.0040083862
0.0090619578
0.0094492621
0.0020259214
-0.00081280047
-0.0059064087
-0.0048340368
0.00041569354
0.0014096798
0.0021293391
0.0038328039
0.0088646627
0.0092694596
0.0019702794
-0.00085361869
-0.0060354442
-0.0049649595
0.00030175046
0.0013182367
0.0020571688
0.0037786295
0.0088325943
0.0092557432
0.0019674351
-0.00091203222
-0.0062550582
-0.0052236049
0.00010047203
0.0012120541
0.0020335868
0.0038352783
0.0089681714
0.0094440497
0.0020350379
-0.00078046586
-0.0061132069
-0.0054740173
-0.0001953978
0.00108848
0.0020596432
0.0040148792
0.0093234904
0.0099706122
0.0022364843
0.00032948257
-0.0036463469
-0.0047898972
-0.0004095546
0.00098269063
0.0021370955
0.0043261743
0.0099365043
0.010734264
0.002486505
0.00079614646
-0.0014702607
-0.0033425305
-0.00052174123
0.00089496108
0.0022342333
0.0047297483
0.010613705
0.0071066765
-0.00018190754
0.00082347127
-0.0051136436
-0.0066268974
0.00043945009
0.0018069352
0.002682075
0.0041310116
0.0064893349
0.0047920907
0.00056075375
-0.0017971657
-0.0076608677
-0.0050127339
0.00067256215
0.0017326156
0.0024884966
0.0041708737
0.0083049264
0.0071651954
0.0010367231
-0.00087467807
-0.0058590083
-0.0044804294
0.00078126917
0.0016396045
0.0022362328
0.0039017005
0.0089618148
0.0093845577
0.0020087386
-0.00072105675
-0.0055143996
-0.0043304313
0.00079204723
0.0015322228
0.0019999374
0.0035146973
0.0085701375
0.0091665596
0.0019691605
-0.00071927003
-0.0055171893
-0.0043609443
0.00072100709
0.0014183543
0.0018378846
0.0032969823
0.0083279612
0.0089480854
0.0019026061
-0.00077060309
-0.0056817302
-0.0045308241
0.00057079701
0.0012950598
0.0017380723
0.0032191176
0.0082770455
0.0089219527
0.0018968112
-0.00084832229
-0.0059630315
-0.0048495035
0.00032265891
0.0011564892
0.0016949876
0.00326867
0.0084177977
0.0091244844
0.0019701627
-0.00074402839
-0.0059110414
-0.0051870005
-3.3921151e-05
0.00099948013
0.00170976
0.0034591995
0.0088095285
0.0097113387
0.0021950995
0.00036207209
-0.0034905516
-0.0045842925
-0.00031119467
0.00086339721
0.0017848241
0.0038011531
0.0095026383
0.010611675
0.0024995496
0.00083804145
-0.0013185743
-0.0031856364
-0.00047039345
0.00075487327
0.001886159
0.0042485855
0.010296719
0.0069890384
-0.00021999126
0.00087354681
-0.0047689339
-0.0061028942
0.00081180449
0.0019016447
0.0025154065
0.0037750843
0.0061055683
0.0045350667
0.00050358425
-0.0016990804
-0.0072129024
-0.0044589425
0.0010348534
0.001803214
0.0022777921
0.0037434784
0.0078583073
0.006892184
0.00098217517
-0.00075576553
-0.0053776913
-0.0039318299
0.0011238055
0.0016782798
0.001974136
0.0033936846
0.0084197609
0.0090359063
0.0019349209
-0.00060311269
-0.0050418381
-0.0038001963
0.0011091016
0.0015374378
0.0016922172
0.0029432338
0.0079511195
0.0087473128
0.0018750125
-0.00060706626
-0.0050656903
-0.0038575817
0.0010080702
0.0013910328
0.0014939395
0.0026842086
0.0076651239
0.0084912154
0.0017978882
-0.00066873318
-0.005265203
-0.0040659725
0.00082185458
0.0012359681
0.0013664364
0.0025824983
0.0075950939
0.0084523768
0.0017890594
-0.00076547588
-0.0056069608
-0.0044431566
0.00052787374
0.001065252
0.0013034265
0.0026238945
0.0077393669
0.0086671822
0.0018675014
-0.00068980382
-0.0056466028
-0.004866217
0.00011237862
0.00087523269
0.0013061223
0.0028232992
0.0081640754
0.0093097558
0.0021142609
0.00040301679
-0.0032927682
-0.0043503444
-0.00022676325
0.00070922642
0.0013776694
0.003192876
0.0089319745
0.010340935
0.0024714041
0.00088160772
-0.0011457632
-0.0030110883
-0.00043231223
0.00058029668
0.0014820891
0.0036806783
0.0098378286
0.0067536298
-0.00027727608
0.00093441793
-0.0043657303
-0.0055417665
0.0011636773
0.0019600144
0.0022996905
0.0033526626
0.0056310273
0.0041951859
0.00042603897
-0.0015775471
-0.0066989916
-0.0038816881
0.0013743684
0.0018378841
0.0020195864
0.0032495793
0.0073074257
0.0065145473
0.00090107536
-0.0006210896
-0.0048458377
-0.0033648982
0.0014421873
0.0016815508
0.0016666072
0.0028218316
0.0077700389
0.0085685048
0.0018282393
-0.00047082815
-0.0045221233
-0.0032534207
0.0014014926
0.0015078598
0.0013408789
0.0023111337
0.0072279461
0.0082116919
0.0017485521
-0.00048062887
-0.0045673277
-0.003337774
0.0012707309
0.0013295838
0.0011075055
0.0020124571
0.0069000772
0.0079197834
0.001661414
-0.00055224836
-0.0048005868
-0.003583445
0.0010495255
0.0011435138
0.00095287312
0.0018872863
0.0068111182
0.0078682668
0.0016495463
-0.00066736498
-0.005200411
-0.0040164815
0.00071162922
0.00094157802
0.00086999194
0.0019197438
0.006957337
0.0080933147
0.0017323736
-0.00062097056
-0.0053314178
-0.0045218906
0.00024015098
0.00071966642
0.00086015983
0.0021259695
0.0074112026
0.0087862917
0.0019989903
0.00045023398
-0.0030613994
-0.0040959611
-0.00015833249
0.0005247501
0.00092725173
0.0025198282
0.0082475128
0.0099403332
0.0024061791
0.00092527038
-0.00095809895
-0.002824746
-0.00040857044
0.00037624138
0.0010336912
0.0030439943
0.0092582211
0.0064147624
-0.00035139015
0.0010026815
-0.0039181373
-0.0049579081
0.001488006
0.0019822879
0.0020420707
0.0028768933
0.0050824759
0.0037865953
0.00033165019
-0.0014372742
-0.0061350682
-0.0032950468
0.0016844257
0.0018373331
0.0017217856
0.0027037642
0.0066715809
0.0060488939
0.00079753942
-0.00047527246
-0.0042789957
-0.0027931975
0.0017302652
0.0016507518
0.0013224451
0.0022021581
0.0070342002
0.0080016308
0.0016936799
-0.00032869999
-0.0039703576
-0.0027031284
0.0016636576
0.0014454857
0.00095553755
0.0016354873
0.006423525
0.0075803226
0.0015951697
-0.00034432603
-0.0040367366
-0.0028139655
0.0015040488
0.0012366509
0.00068888653
0.0012995729
0.0060565212
0.0072550969
0.0014987641
-0.00042533656
-0.0043018937
-0.0030949758
0.0012495567
0.0010209683
0.00050825198
0.0011518312
0.0059492447
0.0071912325
0.0014839278
-0.00055784943
-0.0047563622
-0.0035802136
0.00087049015
0.00078936531
0.0004060056
0.0011748521
0.0060959494
0.0074244633
0.0015704067
-0.00054075592
-0.0049766289
-0.0041632528
0.00034697148
0.00053731225
0.00038353112
0.0013858954
0.0065748779
0.0081619429
0.0018546749
0.00050155391
-0.0028046379
-0.0038282695
-0.00010718886
0.00031508503
0.00044543375
0.0018004853
0.0074723625
0.0094290638
0.0023084839
0.00096744315
-0.00076159332
-0.0026318241
-0.00039956247
0.0001482222
0.00055289753
0.0023566058
0.0085794784
0.0059879704
-0.0004393874
0.001074923
-0.0034396656
-0.0043643846
0.0017789642
0.0019695207
0.0017500745
0.0023609748
0.004476645
0.0033237034
0.00022412047
-0.0012828679
-0.0055362003
-0.0027116581
0.0019595739
0.001803035
0.0013925905
0.0021205213
0.005969875
0.0055120927
0.0006759
-0.00032276675
-0.0036917255
-0.0022288381
0.0019830924
0.0015879238
0.00095063616
0.001550406
0.0062333731
0.0073546319
0.0015363983
-0.00018105022
-0.0034006538
-0.0021609127
0.0018911955
0.0013529559
0.00054590253
0.00093297462
0.005560168
0.0068737361
0.0014203776
-0.00020236033
-0.0034875974
-0.0022972165
0.0017041899
0.00111546
0.00024840992
0.00056290683
0.0051574679
0.006518287
0.0013156177
-0.00029204062
-0.0037822506
-0.0026109918
0.0014187317
0.00087212583
4.3416179e-05
0.00039394761
0.0050328798
0.0064426866
0.0012979535
-0.00044068304
-0.0042870358
-0.0031439044
0.0010019637
0.00061297369
-7.7267774e-05
0.0004073165
0.005178751
0.006682054
0.0013873361
-0.00045234298
-0.0045928194
-0.0037985384
0.00043123247
0.00033309882
-0.00011217414
0.00062126529
0.0056784714
0.0074576926
0.0016868623
0.00055480364
-0.0025303076
-0.0035536114
-7.3941561e-05
8.56855e-05
-5.5984657e-05
0.0010529081
0.0066292258
0.0088266213
0.0021832113
0.0010065832
-0.00056189089
-0.0024368951
-0.00040511242
-9.7950632e-05
5.1592855e-05
0.0016362713
0.0078230387
0.0054893914
-0.00053795767
0.0011478133
-0.0029430483
-0.003772919
0.0020318762
0.0019234247
0.0014313931
0.0018178731
0.0038298886
0.002820806
0.00010719677
-0.0011187504
-0.0049164441
-0.0021427293
0.0021955004
0.001737075
0.0010402774
0.0015139567
0.005220861
0.0049208553
0.00054055819
-0.00016778388
-0.003097476
-0.0016824944
0.0021968281
0.0014956563
0.0005601372
0.00088176586
0.0053879148
0.0066465042
0.0013615681
-3.1957319e-05
-0.0028260195
-0.00163696
0.0020807641
0.001233394
0.00012156056
0.0002195916
0.0046592482
0.006111952
0.0012296589
-5.8701117e-05
-0.0029325242
-0.0017972307
0.0018683226
0.00096965655
-0.00020379182
-0.00018095882
0.0042248983
0.005729892
0.0011176016
-0.00015619045
-0.0032537879
-0.0021406409
0.0015547643
0.00070113801
-0.00043103882
-0.00036936309
0.0040843639
0.0056434259
0.0010973151
-0.00031944491
-0.0038037801
-0.0027159476
0.0011043935
0.00041705717
-0.00056884626
-0.00036558679
0.00422824
0.0058869306
0.0011888526
-0.00035880143
-0.0041898951
-0.003435006
0.00049203964
0.00011218331
-0.00061566679
-0.00015052314
0.0047443869
0.006694066
0.0015011023
0.00060787001
-0.0022457539
-0.0032775603
-5.8622905e-05
-0.00015782716
-0.00056550464
0.00029443619
0.0057400075
0.0081523267
0.0020353696
0.0010412314
-0.00036419696
-0.0022439093
-0.00042457254
-0.00035634276
-0.00045862821
0.00090011694
0.007009783
0.0049352818
-0.00064359429
0.0012181813
-0.0024401142
-0.0031939059
0.0022431298
0.0018462364
0.0010937075
0.0012601074
0.0031579276
0.0022918012
-1.5426465e-05
-0.00094910089
-0.0042887517
-0.0015980672
0.0023889397
0.001642016
0.00067302768
0.0008975847
0.0044422828
0.0042914197
0.00039586891
-1.4243697e-05
-0.0025085117
-0.001163446
0.0023686413
0.0013769546
0.00015970784
0.00021067303
0.0045171585
0.0058955771
0.0011742648
0.00011479159
-0.0022582918
-0.0011400955
0.0022299824
0.001090273
-0.00030819031
-0.00048954911
0.003740954
0.0053141689
0.0010283536
8.2962915e-05
-0.0023830002
-0.0013224033
0.0019945167
0.00080317091
-0.00065794725
-0.0009164082
0.0032795186
0.0049095496
0.00091017704
-2.135529e-05
-0.0027275736
-0.0016918386
0.0016561987
0.00051237859
-0.00090493322
-0.0011221127
0.0031247248
0.0048133214
0.00088753275
-0.00019749029
-0.0033169998
-0.0023036213
0.0011768616
0.000206428
-0.0010582018
-0.0011276085
0.0032656117
0.0050590371
0.00098048541
-0.00026303709
-0.003777008
-0.0030789724
0.00052911752
-0.00012018497
-0.0011161335
-0.00091307765
0.0037937947
0.0058907984
0.0013028247
0.00065874653
-0.001957769
-0.0030049502
-6.0778265e-05
-0.00040980122
-0.0010721086
-0.00045853858
0.0048255282
0.0074249688
0.0018699509
0.0010700419
-0.00017323202
-0.0020562232
-0.00045690995
-0.00062103242
-0.00096664608
0.00016439936
0.0061597264
0.0043416425
-0.00075272617
0.0012830674
-0.0019417065
-0.0026364454
0.0024100913
0.0017406064
0.00074455589
0.00069959322
0.0024756638
0.0017499779
-0.00014018084
-0.0007778138
-0.0036649188
-0.0010861256
0.0025375854
0.0015207903
0.00029879774
0.00028417612
0.0036508903
0.0036393154
0.00024605378
0.00013425919
-0.0019358776
-0.00067963225
0.0024966209
0.0012351306
-0.00024221503
-0.00044933587
0.0036392369
0.005119283
0.00097937933
0.00025573271
-0.0017081056
-0.00067784178
0.0023373384
0.00092730712
-0.0007344633
-0.0011803564
0.0028241193
0.0044985405
0.00082157318
0.00021925529