/*--------------------------------*- C++ -*----------------------------------*\
| =========                 |                                                 |
| \\      /  F ield         | OpenFOAM: The Open Source CFD Toolbox           |
|  \\    /   O peration     | Version:  v2106                                 |
|   \\  /    A nd           | Website:  www.openfoam.com                      |
|    \\/     M anipulation  |                                                 |
\*---------------------------------------------------------------------------*/
FoamFile
{
    version     2.0;
    format      ascii;
    arch        "LSB;label=32;scalar=64";
    class       volScalarField;
    location    "35";
    object      gradTz;
}
// * * * * * * * * * * * * * * * * * * * * * * * * * * * * * * * * * * * * * //

dimensions      [0 -1 0 1 0 0 0];

internalField   nonuniform List<scalar> 
4000
(
692.07235
692.07404
692.0723
692.0718
692.07162
692.07164
692.07181
692.07208
692.07232
692.07232
692.07404
692.07407
692.07257
692.07212
692.07195
692.07198
692.07218
692.07251
692.07288
692.07284
692.0723
692.07257
692.07113
692.07069
692.07054
692.07059
692.07082
692.07122
692.07177
692.07205
692.0718
692.07212
692.07069
692.07027
692.07014
692.0702
692.07045
692.07088
692.07145
692.07177
692.07162
692.07195
692.07054
692.07014
692.07001
692.07009
692.07035
692.0708
692.07139
692.07171
692.07164
692.07198
692.07059
692.0702
692.07009
692.07018
692.07045
692.0709
692.0715
692.07183
692.07181
692.07218
692.07082
692.07045
692.07035
692.07045
692.07073
692.07119
692.07179
692.07212
692.07208
692.07251
692.07122
692.07088
692.0708
692.0709
692.07119
692.07165
692.07224
692.07256
692.07232
692.07288
692.07177
692.07145
692.07139
692.0715
692.07179
692.07224
692.07283
692.07312
692.07232
692.07284
692.07205
692.07177
692.07171
692.07183
692.07212
692.07256
692.07312
692.07336
1395.6382
1395.6399
1395.6372
1395.6363
1395.6359
1395.636
1395.6364
1395.637
1395.6375
1395.6372
1395.6399
1395.6396
1395.6372
1395.6363
1395.636
1395.6361
1395.6365
1395.6373
1395.6382
1395.6379
1395.6372
1395.6372
1395.6348
1395.634
1395.6337
1395.6338
1395.6343
1395.6352
1395.6365
1395.6367
1395.6363
1395.6363
1395.634
1395.6332
1395.633
1395.6331
1395.6336
1395.6345
1395.6359
1395.6362
1395.6359
1395.636
1395.6337
1395.633
1395.6328
1395.6329
1395.6335
1395.6344
1395.6357
1395.6361
1395.636
1395.6361
1395.6338
1395.6331
1395.6329
1395.6331
1395.6337
1395.6346
1395.636
1395.6364
1395.6364
1395.6365
1395.6343
1395.6336
1395.6335
1395.6337
1395.6342
1395.6352
1395.6366
1395.6369
1395.637
1395.6373
1395.6352
1395.6345
1395.6344
1395.6346
1395.6352
1395.6362
1395.6375
1395.6379
1395.6375
1395.6382
1395.6365
1395.6359
1395.6357
1395.636
1395.6366
1395.6375
1395.6389
1395.6391
1395.6372
1395.6379
1395.6367
1395.6362
1395.6361
1395.6364
1395.6369
1395.6379
1395.6391
1395.6391
1328.445
1328.4452
1328.4432
1328.4425
1328.4423
1328.4424
1328.4429
1328.4436
1328.4443
1328.444
1328.4452
1328.4444
1328.4426
1328.442
1328.4418
1328.4419
1328.4424
1328.4432
1328.4445
1328.4443
1328.4432
1328.4426
1328.4409
1328.4403
1328.4401
1328.4403
1328.4408
1328.4417
1328.4433
1328.4435
1328.4425
1328.442
1328.4403
1328.4397
1328.4396
1328.4398
1328.4403
1328.4412
1328.4428
1328.4431
1328.4423
1328.4418
1328.4401
1328.4396
1328.4394
1328.4396
1328.4402
1328.4411
1328.4428
1328.4431
1328.4424
1328.4419
1328.4403
1328.4398
1328.4396
1328.4398
1328.4404
1328.4414
1328.443
1328.4433
1328.4429
1328.4424
1328.4408
1328.4403
1328.4402
1328.4404
1328.441
1328.4419
1328.4436
1328.4439
1328.4436
1328.4432
1328.4417
1328.4412
1328.4411
1328.4414
1328.4419
1328.443
1328.4446
1328.4449
1328.4443
1328.4445
1328.4433
1328.4428
1328.4428
1328.443
1328.4436
1328.4446
1328.4462
1328.4464
1328.444
1328.4443
1328.4435
1328.4431
1328.4431
1328.4433
1328.4439
1328.4449
1328.4464
1328.4459
1267.4624
1267.4623
1267.4606
1267.4601
1267.46
1267.4602
1267.4607
1267.4614
1267.4625
1267.4625
1267.4623
1267.4615
1267.46
1267.4596
1267.4595
1267.4597
1267.4601
1267.461
1267.4625
1267.4627
1267.4606
1267.46
1267.4586
1267.4582
1267.4581
1267.4583
1267.4588
1267.4598
1267.4615
1267.462
1267.4601
1267.4596
1267.4582
1267.4578
1267.4577
1267.458
1267.4585
1267.4594
1267.4612
1267.4617
1267.46
1267.4595
1267.4581
1267.4577
1267.4577
1267.4579
1267.4584
1267.4594
1267.4612
1267.4617
1267.4602
1267.4597
1267.4583
1267.458
1267.4579
1267.4582
1267.4587
1267.4597
1267.4614
1267.462
1267.4607
1267.4601
1267.4588
1267.4585
1267.4584
1267.4587
1267.4592
1267.4602
1267.462
1267.4626
1267.4614
1267.461
1267.4598
1267.4594
1267.4594
1267.4597
1267.4602
1267.4612
1267.463
1267.4636
1267.4625
1267.4625
1267.4615
1267.4612
1267.4612
1267.4614
1267.462
1267.463
1267.4648
1267.4653
1267.4625
1267.4627
1267.462
1267.4617
1267.4617
1267.462
1267.4626
1267.4636
1267.4653
1267.4648
1211.5947
1211.5945
1211.5931
1211.5928
1211.5928
1211.593
1211.5935
1211.5943
1211.5953
1211.5956
1211.5945
1211.5937
1211.5925
1211.5922
1211.5922
1211.5925
1211.5929
1211.5938
1211.5953
1211.5957
1211.5931
1211.5925
1211.5914
1211.5911
1211.5912
1211.5914
1211.5919
1211.5927
1211.5944
1211.5951
1211.5928
1211.5922
1211.5911
1211.5909
1211.5909
1211.5912
1211.5916
1211.5925
1211.5942
1211.5949
1211.5928
1211.5922
1211.5912
1211.5909
1211.591
1211.5912
1211.5917
1211.5926
1211.5943
1211.595
1211.593
1211.5925
1211.5914
1211.5912
1211.5912
1211.5915
1211.5919
1211.5928
1211.5945
1211.5953
1211.5935
1211.5929
1211.5919
1211.5916
1211.5917
1211.5919
1211.5924
1211.5933
1211.595
1211.5958
1211.5943
1211.5938
1211.5927
1211.5925
1211.5926
1211.5928
1211.5933
1211.5942
1211.596
1211.5967
1211.5953
1211.5953
1211.5944
1211.5942
1211.5943
1211.5945
1211.595
1211.596
1211.5977
1211.5985
1211.5956
1211.5957
1211.5951
1211.5949
1211.595
1211.5953
1211.5958
1211.5967
1211.5985
1211.5982
1160.0193
1160.0191
1160.0179
1160.0177
1160.0178
1160.018
1160.0185
1160.0192
1160.0203
1160.0206
1160.0191
1160.0183
1160.0173
1160.0172
1160.0173
1160.0175
1160.018
1160.0187
1160.0201
1160.0207
1160.0179
1160.0173
1160.0164
1160.0163
1160.0164
1160.0167
1160.0171
1160.0179
1160.0194
1160.0202
1160.0177
1160.0172
1160.0163
1160.0162
1160.0164
1160.0166
1160.017
1160.0178
1160.0193
1160.0201
1160.0178
1160.0173
1160.0164
1160.0164
1160.0165
1160.0167
1160.0171
1160.0178
1160.0194
1160.0202
1160.018
1160.0175
1160.0167
1160.0166
1160.0167
1160.0169
1160.0173
1160.0181
1160.0196
1160.0204
1160.0185
1160.018
1160.0171
1160.017
1160.0171
1160.0173
1160.0177
1160.0185
1160.0201
1160.0209
1160.0192
1160.0187
1160.0179
1160.0178
1160.0178
1160.0181
1160.0185
1160.0193
1160.0209
1160.0217
1160.0203
1160.0201
1160.0194
1160.0193
1160.0194
1160.0196
1160.0201
1160.0209
1160.0225
1160.0234
1160.0206
1160.0207
1160.0202
1160.0201
1160.0202
1160.0204
1160.0209
1160.0217
1160.0234
1160.0233
1112.1068
1112.1065
1112.1056
1112.1056
1112.1057
1112.106
1112.1064
1112.107
1112.108
1112.1084
1112.1065
1112.1059
1112.1051
1112.1051
1112.1053
1112.1056
1112.1059
1112.1066
1112.1078
1112.1084
1112.1056
1112.1051
1112.1045
1112.1045
1112.1047
1112.1049
1112.1053
1112.1059
1112.1073
1112.108
1112.1056
1112.1051
1112.1045
1112.1046
1112.1047
1112.1049
1112.1053
1112.1059
1112.1072
1112.108
1112.1057
1112.1053
1112.1047
1112.1047
1112.1049
1112.1051
1112.1054
1112.106
1112.1073
1112.1081
1112.106
1112.1056
1112.1049
1112.1049
1112.1051
1112.1053
1112.1056
1112.1062
1112.1075
1112.1083
1112.1064
1112.1059
1112.1053
1112.1053
1112.1054
1112.1056
1112.1059
1112.1065
1112.1079
1112.1086
1112.107
1112.1066
1112.1059
1112.1059
1112.106
1112.1062
1112.1065
1112.1071
1112.1085
1112.1093
1112.108
1112.1078
1112.1073
1112.1072
1112.1073
1112.1075
1112.1079
1112.1085
1112.11
1112.1109
1112.1084
1112.1084
1112.108
1112.108
1112.1081
1112.1083
1112.1086
1112.1093
1112.1109
1112.111
1067.3679
1067.3677
1067.367
1067.3671
1067.3673
1067.3675
1067.3679
1067.3684
1067.3692
1067.3696
1067.3677
1067.3671
1067.3666
1067.3667
1067.367
1067.3672
1067.3675
1067.368
1067.3691
1067.3696
1067.367
1067.3666
1067.3662
1067.3663
1067.3665
1067.3667
1067.367
1067.3675
1067.3686
1067.3693
1067.3671
1067.3667
1067.3663
1067.3665
1067.3667
1067.3669
1067.3671
1067.3675
1067.3687
1067.3693
1067.3673
1067.367
1067.3665
1067.3667
1067.3669
1067.3671
1067.3673
1067.3677
1067.3688
1067.3694
1067.3675
1067.3672
1067.3667
1067.3669
1067.3671
1067.3672
1067.3674
1067.3678
1067.3689
1067.3696
1067.3679
1067.3675
1067.367
1067.3671
1067.3673
1067.3674
1067.3676
1067.368
1067.3691
1067.3698
1067.3684
1067.368
1067.3675
1067.3675
1067.3677
1067.3678
1067.368
1067.3685
1067.3696
1067.3704
1067.3692
1067.3691
1067.3686
1067.3687
1067.3688
1067.3689
1067.3691
1067.3696
1067.3709
1067.3717
1067.3696
1067.3696
1067.3693
1067.3693
1067.3694
1067.3696
1067.3698
1067.3704
1067.3717
1067.3719
1025.4167
1025.4165
1025.416
1025.4162
1025.4165
1025.4167
1025.417
1025.4173
1025.418
1025.4183
1025.4165
1025.4161
1025.4158
1025.416
1025.4163
1025.4165
1025.4167
1025.417
1025.4179
1025.4184
1025.416
1025.4158
1025.4155
1025.4158
1025.416
1025.4162
1025.4164
1025.4167
1025.4176
1025.4182
1025.4162
1025.416
1025.4158
1025.416
1025.4163
1025.4164
1025.4166
1025.4168
1025.4177
1025.4182
1025.4165
1025.4163
1025.416
1025.4163
1025.4165
1025.4166
1025.4167
1025.4169
1025.4178
1025.4183
1025.4167
1025.4165
1025.4162
1025.4164
1025.4166
1025.4168
1025.4168
1025.417
1025.4179
1025.4184
1025.417
1025.4167
1025.4164
1025.4166
1025.4167
1025.4168
1025.4169
1025.4171
1025.418
1025.4186
1025.4173
1025.417
1025.4167
1025.4168
1025.4169
1025.417
1025.4171
1025.4174
1025.4183
1025.4189
1025.418
1025.4179
1025.4176
1025.4177
1025.4178
1025.4179
1025.418
1025.4183
1025.4193
1025.42
1025.4183
1025.4184
1025.4182
1025.4182
1025.4183
1025.4184
1025.4186
1025.4189
1025.42
1025.4202
985.94498
985.94482
985.94454
985.94484
985.94513
985.94533
985.94549
985.94573
985.94622
985.94649
985.94482
985.9445
985.9444
985.94473
985.94501
985.94519
985.9453
985.94551
985.94615
985.94655
985.94454
985.9444
985.94435
985.94469
985.94495
985.9451
985.94516
985.9453
985.94596
985.94645
985.94484
985.94473
985.94469
985.94503
985.94527
985.94539
985.94541
985.94547
985.94607
985.94652
985.94513
985.94501
985.94495
985.94527
985.9455
985.94559
985.94558
985.94561
985.94617
985.9466
985.94533
985.94519
985.9451
985.94539
985.94559
985.94567
985.94563
985.94565
985.9462
985.94662
985.94549
985.9453
985.94516
985.94541
985.94558
985.94563
985.9456
985.94562
985.94619
985.94663
985.94573
985.94551
985.9453
985.94547
985.94561
985.94565
985.94562
985.94567
985.9463
985.94682
985.94622
985.94615
985.94596
985.94607
985.94617
985.9462
985.94619
985.9463
985.94704
985.9477
985.94649
985.94655
985.94645
985.94652
985.9466
985.94662
985.94663
985.94682
985.9477
985.94783
948.70402
948.70392
948.70383
948.70421
948.70451
948.70467
948.70474
948.70484
948.70516
948.70535
948.70392
948.70374
948.70381
948.70421
948.7045
948.70463
948.70465
948.7047
948.70513
948.70542
948.70383
948.70381
948.70393
948.70433
948.7046
948.7047
948.70466
948.70463
948.70505
948.7054
948.70421
948.70421
948.70433
948.70472
948.70497
948.70504
948.70495
948.70485
948.7052
948.7055
948.70451
948.7045
948.7046
948.70497
948.7052
948.70524
948.70511
948.70497
948.70528
948.70556
948.70467
948.70463
948.7047
948.70504
948.70524
948.70525
948.70511
948.70495
948.70524
948.70552
948.70474
948.70465
948.70466
948.70495
948.70511
948.70511
948.70496
948.7048
948.70511
948.70541
948.70484
948.7047
948.70463
948.70485
948.70497
948.70495
948.7048
948.70467
948.70504
948.70541
948.70516
948.70513
948.70505
948.7052
948.70528
948.70524
948.70511
948.70504
948.70553
948.70606
948.70535
948.70542
948.7054
948.7055
948.70556
948.70552
948.70541
948.70541
948.70606
948.70615
913.49126
913.49122
913.49131
913.49175
913.49204
913.49216
913.49214
913.4921
913.49225
913.49236
913.49122
913.49116
913.49139
913.49184
913.49213
913.49221
913.49214
913.49204
913.49226
913.49245
913.49131
913.49139
913.49165
913.4921
913.49237
913.49242
913.49228
913.49209
913.49228
913.4925
913.49175
913.49184
913.4921
913.49254
913.49278
913.49279
913.4926
913.49234
913.49245
913.49262
913.49204
913.49213
913.49237
913.49278
913.49299
913.49298
913.49275
913.49244
913.49251
913.49265
913.49216
913.49221
913.49242
913.49279
913.49298
913.49294
913.49269
913.49236
913.49242
913.49254
913.49214
913.49214
913.49228
913.4926
913.49275
913.49269
913.49243
913.49211
913.49218
913.49232
913.4921
913.49204
913.49209
913.49234
913.49244
913.49236
913.49211
913.49181
913.49194
913.49216
913.49225
913.49226
913.49228
913.49245
913.49251
913.49242
913.49218
913.49194
913.49218
913.49257
913.49236
913.49245
913.4925
913.49262
913.49265
913.49254
913.49232
913.49216
913.49257
913.49261
880.14032
880.14034
880.14058
880.14106
880.14135
880.14142
880.14131
880.14115
880.14114
880.14116
880.14034
880.1404
880.14076
880.14124
880.14152
880.14156
880.1414
880.14116
880.14119
880.14127
880.14058
880.14076
880.14114
880.14162
880.14188
880.14188
880.14165
880.14132
880.14129
880.14138
880.14106
880.14124
880.14162
880.14209
880.14231
880.14228
880.14199
880.14159
880.14148
880.1415
880.14135
880.14152
880.14188
880.14231
880.14251
880.14244
880.14212
880.14167
880.14152
880.14151
880.14142
880.14156
880.14188
880.14228
880.14244
880.14234
880.142
880.14153
880.14136
880.14134
880.14131
880.1414
880.14165
880.14199
880.14212
880.142
880.14164
880.14117
880.14102
880.14102
880.14115
880.14116
880.14132
880.14159
880.14167
880.14153
880.14117
880.14073
880.14063
880.14071
880.14114
880.14119
880.14129
880.14148
880.14152
880.14136
880.14102
880.14063
880.14065
880.14089
880.14116
880.14127
880.14138
880.1415
880.14151
880.14134
880.14102
880.14071
880.14089
880.14087
848.51355
848.51363
848.51401
848.51451
848.51478
848.5148
848.51462
848.51434
848.51419
848.51412
848.51363
848.51379
848.51426
848.51477
848.51502
848.51501
848.51477
848.51442
848.51427
848.51425
848.51401
848.51426
848.51475
848.51524
848.51548
848.51543
848.51512
848.51467
848.51445
848.5144
848.51451
848.51477
848.51524
848.51572
848.51592
848.51584
848.51548
848.51494
848.51464
848.51453
848.51478
848.51502
848.51548
848.51592
848.5161
848.51598
848.51558
848.515
848.51465
848.51451
848.5148
848.51501
848.51543
848.51584
848.51598
848.51583
848.5154
848.5148
848.51444
848.51429
848.51462
848.51477
848.51512
848.51548
848.51558
848.5154
848.51496
848.51437
848.51402
848.51388
848.51434
848.51442
848.51467
848.51494
848.515
848.5148
848.51437
848.51379
848.51349
848.51344
848.51419
848.51427
848.51445
848.51464
848.51465
848.51444
848.51402
848.51349
848.51331
848.51341
848.51412
848.51425
848.5144
848.51453
848.51451
848.51429
848.51388
848.51344
848.51341
848.51333
818.49632
818.49644
818.49693
818.49744
818.49769
818.49766
818.49741
818.49703
818.49675
818.49661
818.49644
818.4967
818.49726
818.49777
818.498
818.49794
818.49763
818.49717
818.49686
818.49674
818.49693
818.49726
818.49783
818.49832
818.49853
818.49844
818.49806
818.4975
818.4971
818.49694
818.49744
818.49777
818.49832
818.49879
818.49897
818.49884
818.49841
818.49778
818.4973
818.49707
818.49769
818.498
818.49853
818.49897
818.49912
818.49896
818.49849
818.49781
818.49729
818.49703
818.49766
818.49794
818.49844
818.49884
818.49896
818.49876
818.49826
818.49756
818.49703
818.49676
818.49741
818.49763
818.49806
818.49841
818.49849
818.49826
818.49776
818.49705
818.49653
818.49628
818.49703
818.49717
818.4975
818.49778
818.49781
818.49756
818.49705
818.49637
818.49589
818.49571
818.49675
818.49686
818.4971
818.4973
818.49729
818.49703
818.49653
818.49589
818.49552
818.4955
818.49661
818.49674
818.49694
818.49707
818.49703
818.49676
818.49628
818.49571
818.4955
818.49536
789.99253
789.99269
789.99328
789.99378
789.994
789.99393
789.99362
789.99315
789.99276
789.99256
789.99269
789.99302
789.99366
789.99416
789.99436
789.99426
789.99389
789.99334
789.99289
789.99269
789.99328
789.99366
789.99429
789.99477
789.99495
789.99481
789.99438
789.99373
789.99319
789.99292
789.99378
789.99416
789.99477
789.99523
789.99538
789.99521
789.99472
789.994
789.99338
789.99305
789.994
789.99436
789.99495
789.99538
789.9955
789.99529
789.99477
789.99401
789.99334
789.99298
789.99393
789.99426
789.99481
789.99521
789.99529
789.99506
789.99451
789.99372
789.99304
789.99267
789.99362
789.99389
789.99438
789.99472
789.99477
789.99451
789.99394
789.99316
789.99248
789.99213
789.99315
789.99334
789.99373
789.994
789.99401
789.99372
789.99316
789.99239
789.99176
789.99147
789.99276
789.99289
789.99319
789.99338
789.99334
789.99304
789.99248
789.99176
789.99123
789.99109
789.99256
789.99269
789.99292
789.99305
789.99298
789.99267
789.99213
789.99147
789.99109
789.99089
762.92118
762.92137
762.92203
762.92251
762.9227
762.92259
762.92223
762.9217
762.92121
762.92095
762.92137
762.92176
762.92245
762.92293
762.9231
762.92296
762.92254
762.92192
762.92135
762.92108
762.92203
762.92245
762.92312
762.92359
762.92373
762.92356
762.92308
762.92237
762.92169
762.92133
762.92251
762.92293
762.92359
762.92402
762.92414
762.92393
762.9234
762.92262
762.92188
762.92146
762.9227
762.9231
762.92373
762.92414
762.92423
762.92399
762.92342
762.9226
762.92181
762.92136
762.92259
762.92296
762.92356
762.92393
762.92399
762.92372
762.92313
762.92229
762.92148
762.92102
762.92223
762.92254
762.92308
762.9234
762.92342
762.92313
762.92252
762.92168
762.92088
762.92044
762.9217
762.92192
762.92237
762.92262
762.9226
762.92229
762.92168
762.92085
762.92009
762.9197
762.92121
762.92135
762.92169
762.92188
762.92181
762.92148
762.92088
762.92009
762.91942
762.91918
762.92095
762.92108
762.92133
762.92146
762.92136
762.92102
762.92044
762.9197
762.91918
762.91893
737.21354
737.21375
737.21446
737.21492
737.21508
737.21493
737.21453
737.21394
737.21337
737.21307
737.21375
737.21419
737.21491
737.21536
737.21549
737.21532
737.21487
737.21419
737.21353
737.21319
737.21446
737.21491
737.21562
737.21605
737.21616
737.21595
737.21544
737.21468
737.2139
737.21347
737.21492
737.21536
737.21605
737.21645
737.21653
737.2163
737.21574
737.21492
737.21407
737.21358
737.21508
737.21549
737.21616
737.21653
737.21659
737.21632
737.21573
737.21487
737.21399
737.21347
737.21493
737.21532
737.21595
737.2163
737.21632
737.21602
737.21541
737.21453
737.21363
737.21311
737.21453
737.21487
737.21544
737.21574
737.21573
737.21541
737.21478
737.2139
737.21301
737.21249
737.21394
737.21419
737.21468
737.21492
737.21487
737.21453
737.2139
737.21303
737.21217
737.2117
737.21337
737.21353
737.2139
737.21407
737.21399
737.21363
737.21301
737.21217
737.21139
737.21105
737.21307
737.21319
737.21347
737.21358
737.21347
737.21311
737.21249
737.2117
737.21105
737.21077
712.81095
712.81117
712.81192
712.81235
712.81247
712.81229
712.81186
712.81123
712.8106
712.81027
712.81117
712.81164
712.81238
712.8128
712.8129
712.8127
712.81221
712.81151
712.81076
712.81038
712.81192
712.81238
712.8131
712.8135
712.81357
712.81334
712.81281
712.81202
712.81116
712.81066
712.81235
712.8128
712.8135
712.81386
712.81391
712.81365
712.81308
712.81223
712.81131
712.81077
712.81247
712.8129
712.81357
712.81391
712.81394
712.81365
712.81304
712.81216
712.81121
712.81064
712.81229
712.8127
712.81334
712.81365
712.81365
712.81333
712.81271
712.81181
712.81084
712.81026
712.81186
712.81221
712.81281
712.81308
712.81304
712.81271
712.81207
712.81117
712.8102
712.80963
712.81123
712.81151
712.81202
712.81223
712.81216
712.81181
712.81117
712.81027
712.80934
712.8088
712.8106
712.81076
712.81116
712.81131
712.81121
712.81084
712.8102
712.80934
712.80847
712.80806
712.81027
712.81038
712.81066
712.81077
712.81064
712.81026
712.80963
712.8088
712.80806
712.80775
689.663
689.66321
689.664
689.66438
689.66446
689.66426
689.6638
689.66316
689.66249
689.66213
689.66321
689.66371
689.66446
689.66483
689.66489
689.66467
689.66417
689.66344
689.66264
689.66222
689.664
689.66446
689.66518
689.66552
689.66557
689.66531
689.66477
689.66397
689.66306
689.66252
689.66438
689.66483
689.66552
689.66585
689.66586
689.66558
689.66501
689.66416
689.66319
689.6626
689.66446
689.66489
689.66557
689.66586
689.66586
689.66555
689.66495
689.66407
689.66307
689.66246
689.66426
689.66467
689.66531
689.66558
689.66555
689.66522
689.6646
689.66371
689.66269
689.66208
689.6638
689.66417
689.66477
689.66501
689.66495
689.6646
689.66397
689.66307
689.66206
689.66145
689.66316
689.66344
689.66397
689.66416
689.66407
689.66371
689.66307
689.66217
689.66118
689.66061
689.66249
689.66264
689.66306
689.66319
689.66307
689.66269
689.66206
689.66118
689.66025
689.65978
689.66213
689.66222
689.66252
689.6626
689.66246
689.66208
689.66145
689.66061
689.65978
689.65946
667.72602
667.72622
667.72702
667.72736
667.7274
667.72717
667.72671
667.72606
667.72536
667.72498
667.72622
667.72673
667.72747
667.72779
667.72781
667.72757
667.72707
667.72634
667.7255
667.72506
667.72702
667.72747
667.72818
667.72847
667.72848
667.72821
667.72768
667.72688
667.72593
667.72536
667.72736
667.72779
667.72847
667.72875
667.72873
667.72844
667.72788
667.72704
667.72604
667.72543
667.7274
667.72781
667.72848
667.72873
667.72869
667.72838
667.72779
667.72693
667.72591
667.72528
667.72717
667.72757
667.72821
667.72844
667.72838
667.72805
667.72744
667.72657
667.72553
667.7249
667.72671
667.72707
667.72768
667.72788
667.72779
667.72744
667.72683
667.72595
667.72491
667.72428
667.72606
667.72634
667.72688
667.72704
667.72693
667.72657
667.72595
667.72507
667.72405
667.72344
667.72536
667.7255
667.72593
667.72604
667.72591
667.72553
667.72491
667.72405
667.72307
667.72256
667.72498
667.72506
667.72536
667.72543
667.72528
667.7249
667.72428
667.72344
667.72256
667.72223
646.96186
646.96204
646.96284
646.96312
646.96313
646.96289
646.96242
646.96178
646.96106
646.96069
646.96204
646.96255
646.96327
646.96353
646.96352
646.96327
646.96278
646.96206
646.9612
646.96074
646.96284
646.96327
646.96396
646.9642
646.96417
646.96389
646.96337
646.9626
646.96163
646.96104
646.96312
646.96353
646.9642
646.96442
646.96437
646.96408
646.96353
646.96273
646.96171
646.96109
646.96313
646.96352
646.96417
646.96437
646.9643
646.96399
646.96343
646.9626
646.96157
646.96094
646.96289
646.96327
646.96389
646.96408
646.96399
646.96366
646.96308
646.96225
646.96121
646.96057
646.96242
646.96278
646.96337
646.96353
646.96343
646.96308
646.96249
646.96165
646.96061
646.95997
646.96178
646.96206
646.9626
646.96273
646.9626
646.96225
646.96165
646.96081
646.95978
646.95916
646.96106
646.9612
646.96163
646.96171
646.96157
646.96121
646.96061
646.95978
646.95878
646.95823
646.96069
646.96074
646.96104
646.96109
646.96094
646.96057
646.95997
646.95916
646.95823
646.95791
627.33684
627.33699
627.33778
627.33801
627.33798
627.33773
627.33727
627.33664
627.33593
627.33557
627.33699
627.33749
627.33819
627.33839
627.33835
627.33808
627.33761
627.33691
627.33605
627.3356
627.33778
627.33819
627.33884
627.33902
627.33896
627.33869
627.33819
627.33745
627.33647
627.33588
627.33801
627.33839
627.33902
627.33919
627.33911
627.33882
627.3383
627.33754
627.33654
627.33592
627.33798
627.33835
627.33896
627.33911
627.33902
627.33871
627.33818
627.33741
627.33639
627.33577
627.33773
627.33808
627.33869
627.33882
627.33871
627.33839
627.33785
627.33707
627.33604
627.33541
627.33727
627.33761
627.33819
627.3383
627.33818
627.33785
627.3373
627.33651
627.33548
627.33485
627.33664
627.33691
627.33745
627.33754
627.33741
627.33707
627.33651
627.33572
627.3347
627.33408
627.33593
627.33605
627.33647
627.33654
627.33639
627.33604
627.33548
627.3347
627.3337
627.33313
627.33557
627.3356
627.33588
627.33592
627.33577
627.33541
627.33485
627.33408
627.33313
627.33283
608.82088
608.821
608.82178
608.82195
608.82188
608.82162
608.82118
608.82058
608.81989
608.81954
608.821
608.82148
608.82214
608.82229
608.82221
608.82194
608.82149
608.82083
608.81998
608.81954
608.82178
608.82214
608.82276
608.82288
608.82279
608.82251
608.82205
608.82136
608.8204
608.81982
608.82195
608.82229
608.82288
608.82299
608.82288
608.8226
608.82212
608.82142
608.82044
608.81984
608.82188
608.82221
608.82279
608.82288
608.82277
608.82247
608.82198
608.82127
608.82029
608.81969
608.82162
608.82194
608.82251
608.8226
608.82247
608.82217
608.82167
608.82095
608.81997
608.81936
608.82118
608.82149
608.82205
608.82212
608.82198
608.82167
608.82117
608.82045
608.81945
608.81885
608.82058
608.82083
608.82136
608.82142
608.82127
608.82095
608.82045
608.81972
608.81873
608.81812
608.81989
608.81998
608.8204
608.82044
608.82029
608.81997
608.81945
608.81873
608.81774
608.81717
608.81954
608.81954
608.81982
608.81984
608.81969
608.81936
608.81885
608.81812
608.81717
608.81689
591.38676
591.38684
591.38759
591.3877
591.38759
591.38734
591.38693
591.38637
591.3857
591.38538
591.38684
591.38729
591.38791
591.38799
591.38788
591.38762
591.3872
591.38659
591.38576
591.38535
591.38759
591.38791
591.38848
591.38854
591.38842
591.38815
591.38773
591.3871
591.38617
591.38561
591.3877
591.38799
591.38854
591.38859
591.38846
591.38819
591.38776
591.38713
591.38619
591.38562
591.38759
591.38788
591.38842
591.38846
591.38832
591.38805
591.38761
591.38698
591.38604
591.38547
591.38734
591.38762
591.38815
591.38819
591.38805
591.38776
591.38732
591.38669
591.38575
591.38518
591.38693
591.3872
591.38773
591.38776
591.38761
591.38732
591.38688
591.38624
591.38529
591.38472
591.38637
591.38659
591.3871
591.38713
591.38698
591.38669
591.38624
591.38559
591.38463
591.38405
591.3857
591.38576
591.38617
591.38619
591.38604
591.38575
591.38529
591.38463
591.38368
591.38312
591.38538
591.38535
591.38561
591.38562
591.38547
591.38518
591.38472
591.38405
591.38312
591.38287
575.00946
575.00949
575.0102
575.01025
575.01012
575.00986
575.00949
575.00897
575.00835
575.00806
575.00949
575.00991
575.01047
575.01049
575.01035
575.0101
575.00972
575.00917
575.00838
575.008
575.0102
575.01047
575.01099
575.01099
575.01085
575.01059
575.01021
575.00965
575.00877
575.00825
575.01025
575.01049
575.01099
575.01098
575.01083
575.01058
575.0102
575.00965
575.00877
575.00824
575.01012
575.01035
575.01085
575.01083
575.01068
575.01042
575.01005
575.0095
575.00862
575.0081
575.00986
575.0101
575.01059
575.01058
575.01042
575.01016
575.00979
575.00924
575.00836
575.00784
575.00949
575.00972
575.01021
575.0102
575.01005
575.00979
575.00941
575.00886
575.00798
575.00745
575.00897
575.00917
575.00965
575.00965
575.0095
575.00924
575.00886
575.00829
575.0074
575.00686
575.00835
575.00838
575.00877
575.00877
575.00862
575.00836
575.00798
575.0074
575.00649
575.00595
575.00806
575.008
575.00825
575.00824
575.0081
575.00784
575.00745
575.00686
575.00595
575.00574
559.66559
559.66557
559.66624
559.66623
559.66607
559.66583
559.66549
559.66504
559.66446
559.66421
559.66557
559.66595
559.66646
559.66642
559.66625
559.66601
559.66568
559.6652
559.66446
559.66412
559.66624
559.66646
559.66692
559.66686
559.6667
559.66646
559.66614
559.66566
559.66483
559.66435
559.66623
559.66642
559.66686
559.6668
559.66663
559.6664
559.66609
559.66562
559.66481
559.66433
559.66607
559.66625
559.6667
559.66663
559.66646
559.66623
559.66593
559.66547
559.66467
559.6642
559.66583
559.66601
559.66646
559.6664
559.66623
559.66601
559.6657
559.66525
559.66445
559.66398
559.66549
559.66568
559.66614
559.66609
559.66593
559.6657
559.6654
559.66494
559.66414
559.66366
559.66504
559.6652
559.66566
559.66562
559.66547
559.66525
559.66494
559.66448
559.66365
559.66315
559.66446
559.66446
559.66483
559.66481
559.66467
559.66445
559.66414
559.66365
559.6628
559.66229
559.66421
559.66412
559.66435
559.66433
559.6642
559.66398
559.66366
559.66315
559.66229
559.66213
545.33296
545.33289
545.33352
545.33345
545.33326
545.33303
545.33274
545.33235
545.33183
545.33163
545.33289
545.33322
545.33367
545.33357
545.33339
545.33317
545.33289
545.33248
545.3318
545.3315
545.33352
545.33367
545.33408
545.33396
545.33378
545.33356
545.3333
545.33291
545.33215
545.33172
545.33345
545.33357
545.33396
545.33384
545.33366
545.33345
545.33321
545.33284
545.33211
545.33169
545.33326
545.33339
545.33378
545.33366
545.33348
545.33328
545.33305
545.3327
545.33198
545.33158
545.33303
545.33317
545.33356
545.33345
545.33328
545.33309
545.33287
545.33252
545.33181
545.33141
545.33274
545.33289
545.3333
545.33321
545.33305
545.33287
545.33265
545.3323
545.33158
545.33116
545.33235
545.33248
545.33291
545.33284
545.3327
545.33252
545.3323
545.33193
545.33119
545.33075
545.33183
545.3318
545.33215
545.33211
545.33198
545.33181
545.33158
545.33119
545.33041
545.32994
545.33163
545.3315
545.33172
545.33169
545.33158
545.33141
545.33116
545.33075
545.32994
545.32983
531.99012
531.98999
531.99057
531.99044
531.99024
531.99003
531.98979
531.98947
531.98902
531.98887
531.98999
531.99027
531.99067
531.99051
531.9903
531.99011
531.98989
531.98956
531.98894
531.98871
531.99057
531.99067
531.99101
531.99084
531.99064
531.99045
531.99026
531.98996
531.98928
531.9889
531.99044
531.99051
531.99084
531.99067
531.99047
531.9903
531.99013
531.98987
531.98922
531.98887
531.99024
531.9903
531.99064
531.99047
531.99029
531.99013
531.98997
531.98973
531.98911
531.98877
531.99003
531.99011
531.99045
531.9903
531.99013
531.98998
531.98984
531.9896
531.98899
531.98865
531.98979
531.98989
531.99026
531.99013
531.98997
531.98984
531.9897
531.98946
531.98884
531.98849
531.98947
531.98956
531.98996
531.98987
531.98973
531.9896
531.98946
531.98921
531.98856
531.98818
531.98902
531.98894
531.98928
531.98922
531.98911
531.98899
531.98884
531.98856
531.98786
531.98743
531.98887
531.98871
531.9889
531.98887
531.98877
531.98865
531.98849
531.98818
531.98743
531.98739
519.61599
519.6158
519.61633
519.61615
519.61593
519.61574
519.61556
519.61532
519.61494
519.61485
519.6158
519.61603
519.61636
519.61615
519.61593
519.61576
519.61561
519.61537
519.61483
519.61466
519.61633
519.61636
519.61664
519.61642
519.61621
519.61606
519.61594
519.61574
519.61515
519.61483
519.61615
519.61615
519.61642
519.6162
519.616
519.61587
519.61578
519.61562
519.61507
519.61479
519.61593
519.61593
519.61621
519.616