/*--------------------------------*- C++ -*----------------------------------*\
| =========                 |                                                 |
| \\      /  F ield         | OpenFOAM: The Open Source CFD Toolbox           |
|  \\    /   O peration     | Version:  v2106                                 |
|   \\  /    A nd           | Website:  www.openfoam.com                      |
|    \\/     M anipulation  |                                                 |
\*---------------------------------------------------------------------------*/
FoamFile
{
    version     2.0;
    format      ascii;
    arch        "LSB;label=32;scalar=64";
    class       volScalarField;
    location    "35";
    object      gradTy;
}
// * * * * * * * * * * * * * * * * * * * * * * * * * * * * * * * * * * * * * //

dimensions      [0 -1 0 1 0 0 0];

internalField   nonuniform List<scalar> 
4000
(
0.00018459
-5.3797802e-06
2.5617468e-05
2.9456443e-05
3.0404526e-05
3.1451245e-05
3.3641572e-05
3.8836582e-05
4.8406437e-05
5.0819973e-05
2.7907742e-05
-0.00021055107
-0.00015719237
-0.0001491544
-0.00014598467
-0.00014235778
-0.00013551162
-0.00011949192
-8.4094704e-05
-3.8957981e-05
-0.0003052128
-0.00025295847
-0.00024381613
-0.00023961137
-0.00023608123
-0.00023216318
-0.00022636532
-0.00021530882
-0.00019091878
-0.0001468109
-7.6902765e-05
-6.9722183e-05
-6.569508e-05
-6.1987278e-05
-5.8519404e-05
-5.5021298e-05
-5.1092227e-05
-4.6513154e-05
-4.1611045e-05
-3.8319249e-05
-1.8771043e-05
-1.5778849e-05
-1.1974438e-05
-8.3306578e-06
-5.0084575e-06
-1.941234e-06
1.0257906e-06
3.8953109e-06
6.3109098e-06
7.4246581e-06
2.2186786e-05
2.7042357e-05
3.265984e-05
3.6758265e-05
4.0087014e-05
4.2792519e-05
4.4997964e-05
4.672165e-05
4.7856397e-05
4.8308748e-05
5.1754447e-05
6.2832461e-05
7.462032e-05
7.9686816e-05
8.3128463e-05
8.5523361e-05
8.7057594e-05
8.7739109e-05
8.7537862e-05
8.6901425e-05
5.9437001e-05
8.1584298e-05
0.00011085392
0.00011703083
0.00012033511
0.00012231595
0.00012319353
0.00012279622
0.00012073447
0.00011767058
3.1875418e-05
4.9850503e-05
0.00011240935
0.00011834842
0.00012060325
0.00012187777
0.00012219036
0.00012104009
0.00011706472
0.00010939861
2.6015101e-06
5.0150465e-06
3.2692656e-05
3.4420298e-05
3.4887185e-05
3.5162801e-05
3.5188759e-05
3.4738508e-05
3.3146162e-05
2.9627772e-05
0.0011361153
4.7678221e-05
0.00019814581
0.00022679948
0.00023612377
0.00024620992
0.00026739139
0.00031911683
0.0004151657
0.00036651906
-0.0001634003
-0.0015703545
-0.0012826001
-0.0012143257
-0.0011829156
-0.0011482109
-0.0010826347
-0.00092545585
-0.0005727647
-0.00029262335
-0.0024440713
-0.0021753894
-0.0020880424
-0.0020431579
-0.0020085407
-0.0019712951
-0.0019163122
-0.0018091894
-0.0015620188
-0.0011696903
-0.00078408667
-0.00072711973
-0.00068440218
-0.00064761799
-0.0006143519
-0.00058113479
-0.00054394291
-0.00049985073
-0.00044585931
-0.00039849732
-0.00018805728
-0.00015894162
-0.00012194243
-8.7078823e-05
-5.5459243e-05
-2.6317748e-05
1.8083598e-06
2.8977127e-05
5.2599978e-05
6.4626711e-05
0.0002180402
0.00026494163
0.00031832104
0.0003571701
0.00038873003
0.0004144377
0.00043542532
0.0004518166
0.00046263541
0.00046691415
0.00050691111
0.00061627146
0.00072966612
0.00077837715
0.00081095019
0.00083367203
0.00084832909
0.00085489094
0.00085291071
0.0008466504
0.00058081955
0.00080248101
0.0010906896
0.0011567744
0.0011887732
0.0012075661
0.0012159833
0.0012121477
0.0011913612
0.0011583695
0.00027030163
0.00034140499
0.00090313414
0.00098090404
0.0010044876
0.0010165536
0.0010195851
0.0010083131
0.00096580692
0.0008673207
-1.4104211e-06
-5.0057061e-05
0.00018535048
0.00021149525
0.00021692514
0.00021951308
0.00021977763
0.00021533954
0.00019778314
0.00014968205
0.001286916
-0.00020272076
9.9662139e-06
5.3926623e-05
6.9450987e-05
8.6313677e-05
0.00012406385
0.00023190848
0.00049328275
0.00050539111
-0.0010130142
-0.0029284388
-0.0025106463
-0.00240105
-0.0023476919
-0.0022899421
-0.0021790686
-0.0018876492
-0.0011335503
-0.00053948833
-0.003920259
-0.0035352879
-0.0033928702
-0.0033147274
-0.0032547807
-0.0031923114
-0.0031029658
-0.0029279622
-0.0024965074
-0.0018482293
-0.0013243505
-0.0012351234
-0.0011613962
-0.0010970339
-0.0010393454
-0.00098265734
-0.00092037886
-0.00084710015
-0.00075064926
-0.00066315708
-0.00028654711
-0.00023796654
-0.00017543923
-0.00011555047
-6.1062704e-05
-1.0968824e-05
3.712244e-05
8.3412432e-05
0.00012485863
0.00014703311
0.00045634357
0.00053826287
0.00062496687
0.00069007778
0.00074393338
0.00078826292
0.0008248005
0.00085367687
0.00087328832
0.00088182359
0.0010198559
0.0012382481
0.0014221488
0.0015025973
0.001557706
0.0015969785
0.0016231199
0.0016356715
0.0016327997
0.0016215943
0.0011969033
0.0017507317
0.0022424216
0.0023571901
0.0024121512
0.0024449263
0.0024606391
0.0024546061
0.0024111941
0.0023227134
0.00030244575
0.00071266971
0.0016506066
0.0017924026
0.0018345497
0.0018560232
0.0018626964
0.001841946
0.0017308038
0.0012861961
-0.0001800085
-0.00016790015
0.00021603283
0.00026428524
0.00027436094
0.00027906823
0.00028005113
0.00027159797
0.00022106397
-2.480711e-05
0.0012964368
-0.0004761525
-0.00019610225
-0.00013780479
-0.00011767144
-9.7115388e-05
-4.9909691e-05
9.9565335e-05
0.00051280553
0.00057025308
-0.0018945724
-0.004133381
-0.0035785764
-0.0034313269
-0.0033613901
-0.0032900067
-0.003153184
-0.0027644649
-0.0016491562
-0.00080093196
-0.0051085489
-0.0046010274
-0.0044064948
-0.0042998948
-0.0042206962
-0.004141919
-0.0040328813
-0.003813569
-0.0032262374
-0.0023669418
-0.001696381
-0.0015787348
-0.0014791947
-0.0013929362
-0.001317069
-0.0012444368
-0.0011669904
-0.0010773565
-0.00095080638
-0.00083404405
-0.00029117122
-0.00023013711
-0.000149851
-7.2161288e-05
-1.3516353e-06
6.3455273e-05
0.00012514356
0.00018406353
0.00023807644
0.00026741123
0.0007563016
0.00085794422
0.00096450772
0.0010457592
0.0011145862
0.0011722544
0.0012206826
0.0012600411
0.0012884938
0.0013030751
0.0016257794
0.0019208004
0.0021513212
0.0022491504
0.0023184015
0.0023697587
0.0024061882
0.0024271341
0.0024299678
0.0024235745
0.0020645888
0.0029086616
0.0035686165
0.0037153055
0.0037848006
0.0038282384
0.0038526118
0.003852018
0.0038011302
0.0036696435
0.00074170034
0.001447732
0.0027052333
0.0028943592
0.0029485457
0.0029777069
0.0029915797
0.0029741473
0.0028092052
0.0018214122
-0.00021168147
-0.00015423392
0.00035380136
0.00041862979
0.00043164292
0.00043818633
0.00044136379
0.0004339241
0.00035370598
-0.00022460459
0.0012468109
-0.00075491826
-0.00040174872
-0.00032880967
-0.00030521153
-0.00028346665
-0.00023209334
-5.1358345e-05
0.00049996006
0.00060395064
-0.002742694
-0.0052155334
-0.0045130092
-0.0043286657
-0.0042465035
-0.004169817
-0.0040230301
-0.0035664133
-0.0021310271
-0.0010520067
-0.0060826324
-0.0054434695
-0.0051957646
-0.0050638827
-0.0049711316
-0.0048848612
-0.004770308
-0.004529156
-0.0038163527
-0.0027802758
-0.0019195601
-0.0017747543
-0.0016530544
-0.0015501213
-0.0014624233
-0.0013816989
-0.0012993889
-0.0012068427
-0.0010648621
-0.00093130387
-0.00021048496
-0.00014247043
-5.1636302e-05
3.6551048e-05
0.00011678612
0.00018964131
0.00025812892
0.00032268476
0.00038305501
0.00041546898
0.0010958779
0.0012055552
0.0013193513
0.0014063788
0.0014823858
0.0015477216
0.0016041733
0.0016519928
0.0016893896
0.0017117333
0.0022556113
0.0026037738
0.002859015
0.002959479
0.0030338712
0.0030925225
0.0031381423
0.0031705596
0.0031872345
0.0031977966
0.0030025123
0.0041005924
0.0048945153
0.0050545477
0.0051290421
0.0051794738
0.0052142584
0.0052285659
0.005192349
0.005054082
0.0013781995
0.002361163
0.0038926062
0.0041100432
0.004168145
0.0042028274
0.0042278855
0.0042300645
0.0040534016
0.0025257376
-0.00015015085
-4.6160264e-05
0.0005691961
0.00064455768
0.00065823494
0.000666167
0.00067313068
0.00067320842
0.00058095269
-0.00034523426
0.0011649965
-0.0010246705
-0.00059629329
-0.00050891393
-0.00048295832
-0.00046225534
-0.00041129126
-0.00020848187
0.00046621903
0.00062196561
-0.0035214283
-0.006163363
-0.0053094567
-0.0050895757
-0.0049994089
-0.0049250567
-0.0047826093
-0.0042849204
-0.0025727782
-0.0012771004
-0.0068565346
-0.0060828998
-0.0057827474
-0.0056290176
-0.0055282865
-0.0054429241
-0.0053361377
-0.0050944349
-0.0042875406
-0.0031052078
-0.002011178
-0.0018411755
-0.0017011302
-0.0015867147
-0.001493463
-0.0014123389
-0.0013351256
-0.0012526559
-0.0011101632
-0.00097186007
-6.1400386e-05
8.587503e-06
0.00010311857
0.00019468102
0.00027749432
0.00035175109
0.00042029194
0.00048353823
0.00054385765
0.00057505121
0.0014505862
0.0015580868
0.0016673859
0.0017502356
0.0018257233
0.0018930333
0.0019535961
0.0020077672
0.002053931
0.0020851874
0.0028645028
0.003245163
0.0035046391
0.0035936521
0.0036643222
0.0037254393
0.0037790561
0.0038257788
0.0038636538
0.0039012497
0.003921108
0.0052373734
0.006130939
0.0062859705
0.0063559015
0.0064095362
0.0064562364
0.0064941339
0.0064924266
0.0063792741
0.0020860799
0.0033317512
0.0050938999
0.0053209782
0.0053746957
0.0054124912
0.0054521159
0.0054879621
0.0053372561
0.0033291799
-3.9296989e-05
0.0001164496
0.0008244882
0.00090467141
0.00091669027
0.00092546712
0.00093752786
0.00095053104
0.00086209286
-0.00038818637
0.0010708222
-0.0012707488
-0.00076774058
-0.00066670852
-0.00063954891
-0.00062192405
-0.000575493
-0.00035927158
0.00042300212
0.00063289897
-0.0041992942
-0.0069571384
-0.0059538747
-0.0057014116
-0.0056075386
-0.0055425368
-0.0054173251
-0.0049035358
-0.0029593178
-0.0014646322
-0.0074360442
-0.0065299837
-0.0061803173
-0.0060088635
-0.0059056745
-0.0058290372
-0.0057420756
-0.0055192905
-0.0046487373
-0.0033492321
-0.0019874467
-0.0017951592
-0.0016411106
-0.0015205164
-0.0014278186
-0.0013535628
-0.0012906581
-0.0012301756
-0.0011011763
-0.000969212
0.0001372619
0.0002044386
0.00029613668
0.00038426481
0.00046309024
0.00053239176
0.00059458287
0.00064995993
0.00070408965
0.00072996042
0.001796372
0.0018924559
0.0019865855
0.0020560548
0.002123746
0.0021875474
0.0022483709
0.0023066805
0.0023610979
0.0024019352
0.0034172024
0.0038111811
0.0040562034
0.0041209279
0.0041795907
0.0042384961
0.0042987237
0.0043619559
0.0044271093
0.0044998333
0.0047644415
0.0062621842
0.0072224487
0.0073555225
0.0074119305
0.0074650293
0.0075246575
0.0075934148
0.007642889
0.0075814256
0.0027888
0.0042770558
0.0062277036
0.0064471142
0.0064886672
0.0065271147
0.0065839219
0.006664992
0.0065719327
0.0041534374
9.2920611e-05
0.00030281746
0.0010893777
0.0011691543
0.0011773539
0.0011864014
0.0012045788
0.0012348841
0.0011636032
-0.00037744612
0.00097842195
-0.0014826544
-0.0009075008
-0.00079402971
-0.00076683224
-0.00075411075
-0.00071586566
-0.00049426679
0.00037937312
0.00064251655
-0.004755427
-0.0075843111
-0.0064378199
-0.0061567742
-0.0060634735
-0.0060141334
-0.0059175231
-0.0054103584
-0.0032782752
-0.0016067648
-0.0078291615
-0.0067962245
-0.0064016245
-0.0062170938
-0.0061168135
-0.0060559895
-0.0059994659
-0.0058128114
-0.00490695
-0.0035181219
-0.0018646806
-0.0016536777
-0.0014903342
-0.0013688667
-0.0012825252
-0.0012217996
-0.0011814308
-0.0011534281
-0.0010504396
-0.0009347092
0.00036748584
0.00042736429
0.00051012657
0.00058846854
0.00065719367
0.00071565446
0.00076561854
0.00080715082
0.00084947285
0.00086628925
0.0021125118
0.0021889617
0.0022584622
0.0023063093
0.0023595567
0.0024147341
0.0024721126
0.0025322597
0.0025940776
0.0026447263
0.0038868712
0.0042766371
0.0044906462
0.0045198152
0.0045590176
0.0046113116
0.0046765432
0.0047576857
0.0048547128
0.00496878
0.0054942058
0.007137064
0.0081334538
0.0082295799
0.0082644449
0.0083134342
0.0083864099
0.0084916038
0.0086055679
0.0086175466
0.0034346266
0.0051398016
0.0072382202
0.0074344911
0.0074569392
0.0074936295
0.0075694058
0.0077047237
0.0076953485
0.0049353963
0.00022722996
0.00049037339
0.0013415702
0.0014162587
0.0014187238
0.0014274697
0.0014524896
0.0015035145
0.0014604754
-0.00033645372
0.0008973727
-0.0016539482
-0.0010105862
-0.00088617241
-0.00086006642
-0.00085383546
-0.0008269205
-0.00060721898
0.00034172626
0.00065464617
-0.0051788906
-0.0080408289
-0.0067602742
-0.0064553035
-0.006366678
-0.0063385091
-0.0062802154
-0.0057998198
-0.0035223825
-0.0016994015
-0.0080476279
-0.0068959642
-0.0064621025
-0.0062693875
-0.0061770694
-0.0061382948
-0.0061212426
-0.0059854445
-0.0050699557
-0.0036180727
-0.0016594156
-0.001433636
-0.0012658195
-0.0011486028
-0.001073969
-0.0010326936
-0.0010219614
-0.0010353387
-0.00096912316
-0.00087819289
0.00061321264
0.00066171805
0.00073000699
0.00079281077
0.00084591623
0.00088825351
0.0009207617
0.00094318075
0.00096873604
0.00097322453
0.0023829475
0.0024326664
0.0024694101
0.0024884932
0.0025214178
0.0025633386
0.0026137924
0.002673441
0.0027415124
0.0028018117
0.0042551999
0.0046251246
0.0047938892
0.0047779749
0.004791244
0.0048329021
0.0049013464
0.0050009858
0.0051329953
0.0052928352
0.0060857919
0.0078387621
0.0088436248
0.0088900489
0.0088964631
0.0089380233
0.0090241831
0.0091696722
0.0093581254
0.0094607551
0.003989129
0.0058819267
0.0080895473
0.0082492985
0.0082466932
0.0082793423
0.0083750639
0.0085711917
0.0086661468
0.0056295614
0.00035035961
0.00066327952
0.0015656802
0.0016312015
0.0016263004
0.0016341939
0.0016665
0.0017407538
0.0017349198
-0.0002836365
0.00083366118
-0.0017814842
-0.0010749789
-0.00094129359
-0.00091733056
-0.00091891927
-0.0009059473
-0.00069457205
0.00031413549
0.00067157155
-0.0054667733
-0.0083297333
-0.0069265444
-0.006602657
-0.0065224976
-0.0065201362
-0.0065081601
-0.0060719109
-0.0036891459
-0.0017417518
-0.0081063458
-0.0068460598
-0.0063792694
-0.006183261
-0.0061035034
-0.0060920726
-0.0061218789
-0.0060490821
-0.0051466837
-0.003656075
-0.0013880764
-0.001151604
-0.00098402962
-0.00087583797
-0.00081768674
-0.00080094277
-0.00082574127
-0.00088773027
-0.00086718461
-0.00080821184
0.00086074448
0.00089430597
0.00094326528
0.00098549439
0.0010181605
0.0010397892
0.0010503456
0.0010491685
0.0010537367
0.0010431337
0.0025964005
0.0026134754
0.002610738
0.0025950999
0.0026026835
0.002627285
0.002667639
0.0027244923
0.002797453
0.0028669142
0.0045116028
0.0048481236
0.0049598281
0.0048911141
0.0048730406
0.0049004935
0.0049702479
0.0050882373
0.0052569615
0.0054653556
0.0065256697
0.0083557939
0.0093446838
0.0093309891
0.0093032405
0.0093343802
0.0094330545
0.0096210938
0.0098909361
0.010097167
0.0044309859
0.0064802013
0.008761145
0.0088732084
0.0088406634
0.0088671735
0.0089830853
0.0092442918
0.0094591583
0.0062057222
0.00045350579
0.00081094186
0.0017517686
0.001804681
0.0017910837
0.0017976123
0.0018373912
0.0019365417
0.0019748784
-0.00023241569
0.00079048523
-0.001864652
-0.0011009412
-0.00095974879
-0.00093887242
-0.0009493418
-0.0009523895
-0.00075488035
0.00029881906
0.00069435886
-0.005622278
-0.0084594176
-0.0069466913
-0.0066090115
-0.0065406962
-0.0065678674
-0.0066084878
-0.0062309277
-0.0037798827
-0.0017356521
-0.0080223713
-0.0066650166
-0.0061719652
-0.0059773602
-0.0059141996
-0.0059344134
-0.0060168079
-0.0060165786
-0.0051469058
-0.0036397175
-0.0010665568
-0.00082345362
-0.00066056163
-0.00056568804
-0.00052812588
-0.00054009495
-0.00060507828
-0.00072123115
-0.00075336644
-0.00073207365
0.0010987992
0.0011144097
0.0011399433
0.0011573565
0.0011655364
0.0011626326
0.0011475285
0.0011191046
0.0010992481
0.0010713295
0.0027459305
0.0027256549
0.0026781388
0.0026230465
0.0026011864
0.0026050387
0.002632492
0.0026843713
0.0027607263
0.0028386055
0.0046519937
0.0049436859
0.0049889334
0.0048615207
0.0048077972
0.0048179927
0.0048871298
0.0050227101
0.0052286679
0.0054869195
0.0068091048
0.0086859176
0.0096377099
0.0095558198
0.0094894218
0.0095075394
0.0096176561
0.0098490774
0.0102044
0.010523258
0.0047489734
0.0069228322
0.0092442489
0.0092996933
0.0092334064
0.0092519183
0.0093876406
0.0097161277
0.010061821
0.006646035
0.00053128155
0.00092682135
0.0018941019
0.0019316136
0.0019082971
0.0019130012
0.0019602165
0.0020851689
0.0021727885
-0.00019202159
0.0007689192
-0.0019047293
-0.0010904112
-0.00094350673
-0.00092653308
-0.00094667471
-0.00096729227
-0.00078829026
0.0002965724
0.00072315001
-0.0056530601
-0.0084420557
-0.0068340712
-0.0064876622
-0.0064340893
-0.0064935993
-0.0065914102
-0.0062842711
-0.0037987256
-0.0016848625
-0.0078139499
-0.006372116
-0.0058595563
-0.0056707171
-0.0056275575
-0.0056827059
-0.0058217937
-0.0059011898
-0.005080791
-0.0035768531
-0.00070985802
-0.00046404078
-0.00030987607
-0.00023204193
-0.0002184485
-0.0002623847
-0.00037097032
-0.00054519428
-0.00063517213
-0.00065586471
0.0013183977
0.0013136458
0.0013124606
0.0013016569
0.0012821179
0.0012516547
0.0012079963
0.001149527
0.0011026087
0.0010557013
0.0028283011
0.0027671624
0.0026709803
0.0025729261
0.0025184585
0.0024988045
0.0025109858
0.0025559017
0.0026341092
0.0027194777
0.0046775111
0.0049150878
0.0048868393
0.0046966039
0.0046040297
0.0045944762
0.0046611269
0.0048130579
0.0050557336
0.0053638501
0.0069381828
0.0088339798
0.0097308674
0.0095749824
0.0094666656
0.0094695948
0.009589789
0.0098642016
0.010306606
0.010743561
0.0049396205
0.0072067809
0.0095390291
0.0095311177
0.0094283586
0.009437292
0.0095919347
0.0099880843
0.010471294
0.0069423981
0.0005809283
0.0010075059
0.0019901703
0.0020101312
0.0019763753
0.0019788597
0.0020332876
0.0021842707
0.0023245907
-0.00016832643
0.00076845807
-0.0019043542
-0.0010465074
-0.00089566823
-0.00088327387
-0.00091361587
-0.00095284775
-0.00079611023
0.00030713405
0.00075741302
-0.005569861
-0.0082923093
-0.006604128
-0.0062538595
-0.0062174084
-0.0063111617
-0.0064691433
-0.0062414358
-0.0037517633
-0.0015944453
-0.0074997212
-0.0059866923
-0.0054612714
-0.0052821267
-0.0052617013
-0.0053540747
-0.0055524022
-0.005716092
-0.0049585043
-0.0034752865
-0.00033182986
-8.6979557e-05
5.4889677e-05
0.00011259056
9.9590741e-05
2.1361234e-05
-0.00013303957
-0.00036766455
-0.00051887306
-0.00058448977
0.0015126712
0.0014857498
0.0014553689
0.0014138017
0.0013641396
0.0013038974
0.0012296108
0.0011391482
0.0010633272
0.00099630554
0.0028433184
0.0027389576
0.0025915836
0.0024482566
0.0023589532
0.0023137278
0.0023087338
0.0023449449
0.0024234894
0.0025152989
0.0045933447
0.0047696032
0.0046630707
0.0044075859
0.0042740449
0.0042428367
0.0043052619
0.0044719477
0.0047499675
0.0051068401
0.0069201397
0.0088101124
0.0096375197
0.0094040104
0.0092516862
0.0092377267
0.0093664418
0.0096824323
0.010211354
0.010768693
0.0050053293
0.0073356142
0.0096523197
0.0095764197
0.0094354945
0.009433577
0.0096058485
0.010068469
0.010692109
0.0070942374
0.00060169595
0.0010519749
0.0020399079
0.0020407868
0.0019961634
0.0019961057
0.0020573698
0.0022340207
0.0024289295
-0.00016456069
0.00078745536
-0.001867104
-0.00097313478
-0.000820084
-0.00081280047
-0.00085361869
-0.00091203222
-0.00078046586
0.00032948256
0.00079614647
-0.0053854228
-0.008026308
-0.0062734426
-0.0059238938
-0.0059064086
-0.0060354442
-0.0062550582
-0.0061132069
-0.0036463469
-0.0014702606
-0.0070981123
-0.0055275823
-0.0049956982
-0.0048296791
-0.0048340368
-0.0049649595
-0.0052236049
-0.0054740173
-0.0047898972
-0.0033425305
5.4989482e-05
0.00029549094
0.00042202339
0.00045715227
0.00041569353
0.00030175047
0.00010047204
-0.0001953978
-0.0004095546
-0.00052174122
0.001676632
0.00162633
0.0015650816
0.0014910496
0.0014096798
0.0013182367
0.0012120541
0.00108848
0.00098269064
0.00089496109
0.0027932101
0.0026443625
0.0024445606
0.0022547945
0.0021293391
0.0020571688
0.0020335868
0.0020596432
0.0021370955
0.0022342333
0.0044077148
0.004517444
0.0043299521
0.0040083862
0.0038328039
0.0037786295
0.0038352783
0.0040148792
0.0043261743
0.0047297483
0.006765978
0.0086282502
0.0093746893
0.0090619578
0.0088646627
0.0088325943
0.0089681713
0.0093234904
0.0099365043
0.010613705
0.0049528568
0.0073177753
0.0095958031
0.0094492621
0.0092694596
0.0092557432
0.0094440497
0.0099706122
0.010734264
0.0071066765
0.00059434633
0.0010610102
0.0020450705
0.0020259214
0.0019702794
0.0019674351
0.0020350379
0.0022364843
0.0024865051
-0.00018190753
0.00082347128
-0.0017971657
-0.00087467807
-0.00072105675
-0.00071927004
-0.00077060309
-0.00084832229
-0.00074402839
0.00036207209
0.00083804145
-0.0051136436
-0.0076608677
-0.0058590083
-0.0055143996
-0.0055171893
-0.0056817302
-0.0059630315
-0.0059110414
-0.0034905516
-0.0013185743
-0.0066268974
-0.0050127339
-0.0044804294
-0.0043304313
-0.0043609443
-0.0045308241
-0.0048495035
-0.0051870005
-0.0045842924
-0.0031856364
0.0004394501
0.00067256215
0.00078126918
0.00079204724
0.00072100709
0.00057079702
0.00032265892
-3.3921148e-05
-0.00031119467
-0.00047039345
0.0018069352
0.0017326157
0.0016396045
0.0015322228
0.0014183543
0.0012950598
0.0011564892
0.00099948013
0.00086339721
0.00075487327
0.002682075
0.0024884966
0.0022362328
0.0019999374
0.0018378846
0.0017380723
0.0016949876
0.00170976
0.0017848241
0.001886159
0.0041310116
0.0041708737
0.0039017005
0.0035146973
0.0032969823
0.0032191176
0.00326867
0.0034591995
0.0038011531
0.0042485855
0.0064893349
0.0083049264
0.0089618148
0.0085701375
0.0083279612
0.0082770455
0.0084177977
0.0088095285
0.0095026383
0.010296719
0.0047920907
0.0071651954
0.0093845577
0.0091665596
0.0089480854
0.0089219527
0.0091244844
0.0097113387
0.010611674
0.0069890384
0.00056075375
0.0010367231
0.0020087386
0.0019691605
0.0019026061
0.0018968112
0.0019701627
0.0021950995
0.0024995496
-0.00021999126
0.00087354681
-0.0016990804
-0.00075576553
-0.00060311269
-0.00060706626
-0.00066873318
-0.00076547589
-0.00068980382
0.0004030168
0.00088160771
-0.0047689339
-0.0072129024
-0.0053776913
-0.0050418381
-0.0050656903
-0.005265203
-0.0056069608
-0.0056466028
-0.0032927682
-0.0011457632
-0.0061028942
-0.0044589425
-0.0039318299
-0.0038001963
-0.0038575817
-0.0040659725
-0.0044431566
-0.004866217
-0.0043503444
-0.0030110883
0.00081180449
0.0010348534
0.0011238055
0.0011091016
0.0010080702
0.00082185458
0.00052787374
0.00011237862
-0.00022676325
-0.00043231224
0.0019016447
0.001803214
0.0016782798
0.0015374378
0.0013910328
0.0012359681
0.001065252
0.00087523269
0.00070922642
0.00058029668
0.0025154065
0.0022777921
0.001974136
0.0016922172
0.0014939396
0.0013664364
0.0013034265
0.0013061223
0.0013776694
0.0014820891
0.0037750843
0.0037434784
0.0033936846
0.0029432338
0.0026842086
0.0025824983
0.0026238945
0.0028232992
0.003192876
0.0036806783
0.0061055683
0.0078583073
0.0084197609
0.0079511195
0.0076651239
0.0075950939
0.0077393669
0.0081640754
0.0089319745
0.0098378286
0.0045350667
0.006892184
0.0090359063
0.0087473128
0.0084912154
0.0084523767
0.0086671822
0.0093097558
0.010340935
0.0067536298
0.00050358425
0.00098217517
0.0019349209
0.0018750126
0.0017978882
0.0017890594
0.0018675014
0.0021142609
0.0024714041
-0.00027727608
0.00093441792
-0.0015775471
-0.0006210896
-0.00047082815
-0.00048062888
-0.00055224836
-0.00066736498
-0.00062097056
0.00045023398
0.00092527037
-0.0043657303
-0.0066989916
-0.0048458377
-0.0045221233
-0.0045673277
-0.0048005868
-0.005200411
-0.0053314178
-0.0030613994
-0.00095809895
-0.0055417665
-0.003881688
-0.0033648982
-0.0032534207
-0.003337774
-0.003583445
-0.0040164815
-0.0045218906
-0.0040959611
-0.002824746
0.0011636773
0.0013743684
0.0014421873
0.0014014926
0.0012707309
0.0010495255
0.00071162922
0.00024015097
-0.00015833249
-0.00040857043
0.0019600144
0.0018378841
0.0016815508
0.0015078598
0.0013295838
0.0011435138
0.00094157801
0.00071966642
0.00052475009
0.00037624138
0.0022996905
0.0020195864
0.0016666072
0.0013408789
0.0011075055
0.00095287313
0.00086999194
0.00086015983
0.00092725172
0.0010336912
0.0033526626
0.0032495793
0.0028218316
0.0023111336
0.0020124571
0.0018872863
0.0019197438
0.0021259695
0.0025198282
0.0030439943
0.0056310273
0.0073074257
0.0077700389
0.0072279461
0.0069000772
0.0068111182
0.006957337
0.0074112026
0.0082475128
0.0092582211
0.0041951859
0.0065145473
0.0085685048
0.0082116919
0.0079197833
0.0078682668
0.0080933147
0.0087862917
0.0099403332
0.0064147624
0.00042603896
0.00090107536
0.0018282393
0.0017485521
0.001661414
0.0016495463
0.0017323736
0.0019989903
0.0024061791
-0.00035139016
0.0010026815
-0.0014372742
-0.00047527246
-0.00032869999
-0.00034432604
-0.00042533656
-0.00055784942
-0.00054075592
0.00050155391
0.00096744314
-0.0039181373
-0.0061350682
-0.0042789957
-0.0039703576
-0.0040367366
-0.0043018937
-0.0047563622
-0.0049766289
-0.0028046379
-0.00076159332
-0.0049579081
-0.0032950468
-0.0027931975
-0.0027031284
-0.0028139655
-0.0030949758
-0.0035802136
-0.0041632528
-0.0038282695
-0.002631824
0.001488006
0.0016844257
0.0017302652
0.0016636576
0.0015040488
0.0012495567
0.00087049015
0.00034697148
-0.00010718885
-0.00039956246
0.0019822879
0.0018373331
0.0016507518
0.0014454857
0.0012366509
0.0010209683
0.00078936532
0.00053731226
0.00031508503
0.0001482222
0.0020420707
0.0017217856
0.0013224451
0.00095553756
0.00068888654
0.00050825198
0.00040600561
0.00038353113
0.00044543375
0.00055289752
0.0028768933
0.0027037643
0.0022021581
0.0016354873
0.0012995729
0.0011518312
0.0011748521
0.0013858954
0.0018004853
0.0023566058
0.0050824759
0.006671581
0.0070342002
0.006423525
0.0060565212
0.0059492447
0.0060959494
0.0065748779
0.0074723625
0.0085794784
0.0037865952
0.0060488939
0.0080016308
0.0075803226
0.0072550969
0.0071912325
0.0074244633
0.0081619429
0.0094290638
0.0059879704
0.00033165019
0.00079753942
0.0016936799
0.0015951697
0.0014987641
0.0014839278
0.0015704067
0.0018546749
0.0023084839
-0.0004393874
0.001074923
-0.0012828679
-0.00032276676
-0.00018105022
-0.00020236033
-0.00029204063
-0.00044068304
-0.00045234298
0.00055480365
0.0010065832
-0.0034396656
-0.0055362003
-0.0036917255
-0.0034006538
-0.0034875974
-0.0037822506
-0.0042870358
-0.0045928194
-0.0025303076
-0.00056189089
-0.0043643846
-0.0027116581
-0.0022288381
-0.0021609127
-0.0022972165
-0.0026109918
-0.0031439044
-0.0037985385
-0.0035536114
-0.0024368951
0.0017789642
0.0019595739
0.0019830924
0.0018911955
0.0017041899
0.0014187317
0.0010019637
0.00043123248
-7.3941561e-05
-0.00040511241
0.0019695207
0.0018030351
0.0015879238
0.0013529559
0.00111546
0.00087212584
0.00061297369
0.00033309882
8.5685503e-05
-9.7950621e-05
0.0017500745
0.0013925905
0.00095063616
0.00054590253
0.00024840992
4.3416199e-05
-7.7267774e-05
-0.00011217413
-5.5984657e-05
5.1592866e-05
0.0023609748
0.0021205213
0.001550406
0.00093297463
0.00056290682
0.00039394761
0.0004073165
0.00062126529
0.0010529081
0.0016362713
0.004476645
0.005969875
0.0062333731
0.005560168
0.0051574679
0.0050328798
0.005178751
0.0056784714
0.0066292258
0.0078230387
0.0033237034
0.0055120927
0.0073546319
0.006873736
0.006518287
0.0064426866
0.006682054
0.0074576926
0.0088266213
0.0054893914
0.00022412047
0.0006759
0.0015363983
0.0014203776
0.0013156177
0.0012979535
0.0013873361
0.0016868623
0.0021832113
-0.00053795767
0.0011478133
-0.0011187504
-0.00016778388
-3.1957323e-05
-5.8701109e-05
-0.00015619046
-0.00031944491
-0.00035880143
0.00060787002
0.0010412314
-0.0029430483
-0.0049164441
-0.003097476
-0.0028260196
-0.0029325242
-0.0032537879
-0.0038037801
-0.0041898951
-0.0022457539
-0.00036419696
-0.003772919
-0.0021427293
-0.0016824944
-0.00163696
-0.0017972307
-0.0021406409
-0.0027159476
-0.003435006
-0.0032775603
-0.0022439093
0.0020318762
0.0021955004
0.0021968281
0.0020807641
0.0018683226
0.0015547643
0.0011043935
0.00049203964
-5.8622908e-05
-0.00042457255
0.0019234247
0.001737075
0.0014956563
0.001233394
0.00096965654
0.00070113801
0.00041705717
0.00011218332
-0.00015782715
-0.00035634276
0.0014313931
0.0010402774
0.0005601372
0.00012156056
-0.00020379182
-0.00043103881
-0.00056884626
-0.00061566678
-0.00056550464
-0.0004586282
0.0018178731
0.0015139566
0.00088176587
0.00021959162
-0.00018095881
-0.00036936309
-0.00036558678
-0.00015052314
0.00029443618
0.00090011695
0.0038298886
0.005220861
0.0053879148
0.0046592483
0.0042248984
0.0040843639
0.00422824
0.0047443869
0.0057400075
0.007009783
0.002820806
0.0049208553
0.0066465042
0.006111952
0.005729892
0.0056434259
0.0058869306
0.006694066
0.0081523267
0.0049352818
0.00010719676
0.00054055819
0.001361568
0.0012296589
0.0011176016
0.0010973151
0.0011888526
0.0015011023
0.0020353696
-0.00064359429
0.0012181813
-0.00094910089
-1.4243703e-05
0.00011479159
8.2962921e-05
-2.135529e-05
-0.00019749029
-0.00026303709
0.00065874653
0.0010700419
-0.0024401142
-0.0042887517
-0.0025085117
-0.0022582918
-0.0023830002
-0.0027275736
-0.0033169998
-0.003777008
-0.001957769
-0.00017323203
-0.0031939059
-0.0015980672
-0.001163446
-0.0011400955
-0.0013224033
-0.0016918386
-0.0023036213
-0.0030789724
-0.0030049502
-0.0020562232
0.0022431298
0.0023889397
0.0023686413
0.0022299824
0.0019945167
0.0016561988
0.0011768616
0.00052911752
-6.0778265e-05
-0.00045690995
0.0018462364
0.0016420161
0.0013769546
0.0010902729
0.0008031709
0.00051237858
0.000206428
-0.00012018496
-0.00040980121
-0.00062103243
0.0010937075
0.00067302768
0.00015970785
-0.0003081903
-0.00065794724
-0.00090493321
-0.0010582018
-0.0011161335
-0.0010721086
-0.00096664608
0.0012601074
0.0008975847
0.00021067303
-0.0004895491
-0.00091640819
-0.0011221127
-0.0011276085
-0.00091307765
-0.00045853859
0.00016439936
0.0031579276
0.0044422828
0.0045171585
0.003740954
0.0032795186
0.0031247248
0.0032656117
0.0037937947
0.0048255282
0.0061597264
0.0022918011
0.0042914196
0.0058955771
0.0053141689
0.0049095496
0.0048133214
0.0050590371
0.0058907984
0.0074249688
0.0043416425
-1.542647e-05
0.00039586891
0.0011742648
0.0010283536
0.00091017704
0.00088753276
0.00098048541
0.0013028247
0.0018699509
-0.00075272616
0.0012830674
-0.00077781381
0.00013425919
0.00025573271
0.00021925529
0.0001091886
-7.7916809e-05
-0.00016775613
0.00070556755
0.0010918022
-0.0019417065
-0.0036649188
-0.0019358775
-0.0017081056
-0.0018493479
-0.0022135814
-0.0028361188
-0.0033625105
-0.0016725457
6.7945792e-06
-0.0026364454
-0.0010861256
-0.00067963225
-0.00067784177
-0.00087987924
-0.0012713249
-0.0019131403
-0.0027358574
-0.0027399113
-0.0018766322
0.0024100913
0.0025375854
0.0024966209
0.0023373384
0.0020816525
0.0017223185
0.0012191
0.0005427261
-7.9543787e-05
-0.00050078022
0.0017406064