/*--------------------------------*- C++ -*----------------------------------*\
| =========                 |                                                 |
| \\      /  F ield         | OpenFOAM: The Open Source CFD Toolbox           |
|  \\    /   O peration     | Version:  v2106                                 |
|   \\  /    A nd           | Website:  www.openfoam.com                      |
|    \\/     M anipulation  |                                                 |
\*---------------------------------------------------------------------------*/
FoamFile
{
    version     2.0;
    format      ascii;
    arch        "LSB;label=32;scalar=64";
    class       volScalarField;
    location    "35";
    object      gradTx;
}
// * * * * * * * * * * * * * * * * * * * * * * * * * * * * * * * * * * * * * //

dimensions      [0 -1 0 1 0 0 0];

internalField   nonuniform List<scalar> 
4000
(
0.0001083279
-0.00030310284
-0.00041883919
0.00010863442
0.00010424047
7.8868528e-05
7.7155469e-05
8.5994766e-05
7.6571821e-05
2.0817028e-05
-0.00020190181
-0.00057589541
-0.00020233464
0.00013144388
9.980674e-05
7.2534225e-05
7.7053405e-05
0.00011019763
0.00013230237
4.3796558e-05
-7.3533813e-05
-0.00035180269
-0.00016760848
0.00013294968
9.3927305e-05
6.1598516e-05
6.4443425e-05
0.00011464446
0.00019319911
7.7513794e-05
-5.756544e-05
-0.00032466469
-0.000164711
0.00013049232
8.7426599e-05
4.9812243e-05
4.4812891e-05
8.4854221e-05
0.00015627627
6.4641673e-05
-5.8327509e-05
-0.00032748743
-0.00016856003
0.00012537791
8.0528868e-05
4.0578149e-05
3.2441748e-05
6.8812043e-05
0.00013833573
5.8649585e-05
-6.0521268e-05
-0.00033497785
-0.00017709113
0.00011709387
7.2853833e-05
3.3236621e-05
2.5273249e-05
6.1927783e-05
0.00013250973
5.6988903e-05
-6.255038e-05
-0.00034475745
-0.00019128201
0.00010435755
6.395324e-05
2.7228211e-05
2.162249e-05
6.0426217e-05
0.00013272139
5.7290009e-05
-6.0589312e-05
-0.00034768991
-0.00020933164
8.5092208e-05
5.3314185e-05
2.2417357e-05
2.1054217e-05
6.3419563e-05
0.00013790776
5.9214216e-05
-4.6415142e-05
-0.00031610775
-0.00021662542
5.8525127e-05
4.1026808e-05
1.8842384e-05
2.3114272e-05
7.0098199e-05
0.00014721975
6.2503162e-05
-2.3435613e-05
-0.0002310626
-0.00018535774
3.0228813e-05
2.954765e-05
1.6803025e-05
2.6452238e-05
7.7917925e-05
0.00015653073
6.5421536e-05
0.00023084031
-0.0013167847
-0.001526263
0.00039894252
0.00046093258
0.00037486344
0.00037678133
0.00042694802
0.00034375754
7.8333087e-05
-0.00059858186
-0.0019827855
-0.000861351
0.00048361906
0.00044387826
0.00034494874
0.00038036582
0.00056750399
0.00058260703
0.00015622737
-0.00021316024
-0.0012655186
-0.0006972743
0.00050328185
0.00041822642
0.00029124822
0.00031989411
0.00060416409
0.00087891746
0.00031123183
-0.0001553072
-0.0011537968
-0.00066946859
0.00049636144
0.00038714719
0.00023326928
0.00022489096
0.00047029026
0.00073151909
0.0002633358
-0.00015670921
-0.0011611792
-0.00068453193
0.0004722158
0.00035333821
0.00018777882
0.00016392641
0.00039251205
0.00064599138
0.00023488855
-0.00016667675
-0.001196503
-0.00072619965
0.00043147322
0.00031564711
0.00015181304
0.0001287075
0.00035849627
0.00061645254
0.00022620856
-0.00017665235
-0.0012447945
-0.00079621138
0.00036874641
0.00027188198
0.00012261357
0.00011144231
0.00035212305
0.00061882134
0.00022817811
-0.00016428708
-0.0012533902
-0.00088167452
0.00027550553
0.00021946364
9.9328943e-05
0.00010999491
0.00036939286
0.00064875927
0.00023951704
-8.2948369e-05
-0.0010675784
-0.00089342511
0.00015709436
0.00016008798
8.2224578e-05
0.00012233892
0.00040630878
0.00069961583
0.00025743048
-5.0540772e-06
-0.00071823027
-0.00073276246
4.2579445e-05
0.0001043971
7.2158913e-05
0.00014230163
0.00045018735
0.00073228936
0.00026129939
0.00018378604
-0.0020188338
-0.0020586779
0.00066320418
0.0007585431
0.00063021656
0.00066631658
0.00082325888
0.00055336848
6.4922319e-05
-0.00090280172
-0.0028813054
-0.0011716782
0.00077759737
0.00072390681
0.00056646229
0.00066539879
0.0011522652
0.0011474719
0.00026391825
-0.00039119508
-0.0019119496
-0.00093015505
0.00080725574
0.00067597562
0.00046295848
0.0005358178
0.0011824341
0.001602656
0.00050453534
-0.00031146858
-0.0017527826
-0.0008861469
0.00079384525
0.00061979021
0.00035884771
0.00036671523
0.00095367545
0.0013663247
0.00043059637
-0.00031493296
-0.001767898
-0.00091390716
0.00075001546
0.00055894764
0.00027768818
0.00025891484
0.00081902027
0.0012221282
0.00038323876
-0.00033455944
-0.0018353501
-0.0009902635
0.00067681727
0.00049157374
0.00021389988
0.00019717385
0.00076049283
0.00117224
0.00036868333
-0.00035743581
-0.0019351561
-0.0011215217
0.00056474517
0.00041399981
0.00016311815
0.00016926549
0.00075429171
0.0011839829
0.00037504922
-0.0003351713
-0.0019658489
-0.001288947
0.0003999143
0.00032203236
0.00012425053
0.00017294766
0.0007973813
0.0012576874
0.00040351078
-0.00013809827
-0.0015759809
-0.0013201115
0.00020133138
0.0002208172
9.8389597e-05
0.00020615395
0.00088417703
0.0013704065
0.00044146781
6.0897667e-05
-0.00091656138
-0.0010700943
1.9386494e-05
0.00012794764
8.61053e-05
0.00025839512
0.00098380491
0.0012811955
0.00034403672
0.00019340471
-0.0024902875
-0.0024324362
0.00092309939
0.0010142832
0.00083513872
0.00092609022
0.0013011795
0.00094337662
0.00011486053
-0.0011024569
-0.0035110297
-0.0013670404
0.0010545564
0.00095659242
0.00072570117
0.00088917342
0.0017682913
0.0018086052
0.00039741741
-0.00048709013
-0.0023413388
-0.0010729579
0.0010851516
0.00088294847
0.00056956319
0.00068597224
0.0017900788
0.0024131833
0.00071670411
-0.00039219299
-0.0021515514
-0.0010228411
0.0010605078
0.00079972202
0.00041880772
0.00044394606
0.0014736073
0.002102776
0.00062262796
-0.0003994521
-0.0021792866
-0.0010670065
0.00099489113
0.00071103793
0.00030220488
0.00029075629
0.0012861333
0.0019073039
0.00055931383
-0.00043065354
-0.0022828861
-0.0011797115
0.00088859727
0.00061413035
0.0002115841
0.00020447953
0.001206374
0.0018412106
0.00054030629
-0.00047241047
-0.0024448621
-0.0013738999
0.00072753283
0.00050381431
0.00014128978
0.00016970218
0.0012066552
0.0018708351
0.00055414683
-0.00045526475
-0.0025230041
-0.0016249388
0.00049338133
0.00037466382
9.0529991e-05
0.00018618463
0.0012912204
0.0020145212
0.00061027068
-0.00016100257
-0.0019559628
-0.0016685839
0.00022358734
0.00023658099
6.1811645e-05
0.0002545486
0.0014613519
0.0022408961
0.00068743318
0.0001215543
-0.0010531974
-0.0013307681
-1.2498068e-05
0.00011309847
5.4061139e-05
0.00035949518
0.0016612815
0.0018797344
0.00036949621
0.00021965984
-0.0028769843
-0.0027394024
0.0011770345
0.0012326401
0.00098004743
0.0011077275
0.0017143641
0.0013268974
0.00017526036
-0.0012657205
-0.0040361504
-0.0015090401
0.001320669
0.0011498755
0.00082213796
0.0010270708
0.0023044241
0.0024294515
0.00052513094
-0.00055311762
-0.0026825902
-0.001172641
0.0013470173
0.0010481828
0.00061215781
0.00074930396
0.0023179308
0.0031758652
0.00091767913
-0.00044547893
-0.002469389
-0.0011223293
0.0013075671
0.0009362229
0.00041436018
0.00043540713
0.0019181111
0.0027982699
0.00080580183
-0.00045736132
-0.0025126074
-0.0011857429
0.0012183025
0.00081894234
0.00026253801
0.00023810701
0.0016808025
0.002556123
0.00072823454
-0.00050065533
-0.0026538463
-0.0013359819
0.0010783267
0.00069265242
0.00014600871
0.00012902239
0.0015823838
0.0024767477
0.00070572312
-0.0005626343
-0.002880497
-0.0015935206
0.00086868273
0.00055059087
5.795539e-05
9.0190726e-05
0.0015933156
0.002529345
0.0007287985
-0.00055442651
-0.0030122699
-0.0019276456
0.00056712973
0.00038626767
-1.9075888e-06
0.00012449383
0.0017290986
0.0027599087
0.00081955599
-0.00016926099
-0.0022769303
-0.0019798336
0.00023155448
0.00021486356
-2.953158e-05
0.00023690553
0.0020055065
0.003146393
0.00095589198
0.00018060958
-0.0011633021
-0.0015588273
-5.2612411e-05
6.4745501e-05
-2.8685635e-05
0.00040765484
0.0023461467
0.0024971463
0.00038672484
0.00025190854
-0.0032079595
-0.0029950213
0.0014244497
0.0014181549
0.0010710457
0.0012152411
0.0020446416
0.0016575475
0.00022773837
-0.0014069054
-0.0044896719
-0.0016101902
0.001577362
0.0013094764
0.0008639985
0.0010878054
0.0027473235
0.002979684
0.00063827022
-0.0006025664
-0.0029643866
-0.0012373869
0.0015964604
0.0011783766
0.00059970383
0.00073498575
0.0027497162
0.0038574705
0.001098735
-0.00048368472
-0.0027320375
-0.0011903487
0.0015399513
0.001036624
0.00035481828
0.00035023749
0.0022689901
0.0034155371
0.00096986703
-0.00050062483
-0.0027923759
-0.0012747976
0.0014258174
0.00089030621
0.00016810662
0.00010994893
0.0019839218
0.0031293976
0.00087896531
-0.00055613702
-0.0029718158
-0.0014632011
0.001251881
0.00073487352
2.6470292e-05
-2.0606819e-05
0.0018686084
0.0030384774
0.00085346243
-0.00063865627
-0.0032637177
-0.0017839778
0.00099422017
0.00056195822
-7.8020016e-05
-6.1669666e-05
0.0018924529
0.0031162329
0.00088641595
-0.00064109414
-0.0034520712
-0.0022007691
0.00062684417
0.00036402921
-0.00014514832
-6.8772481e-06
0.0020838272
0.0034404489
0.0010144925
-0.00017020169
-0.0025586431
-0.0022623112
0.00022842582
0.00016157646
-0.00016948894
0.00015354915
0.0024763278
0.0040077913
0.0012191212
0.00024033017
-0.0012521482
-0.001764916
-0.0001012287
-1.303043e-05
-0.00015831297
0.00039509419
0.0029753856
0.0030871473
0.00040072975
0.00029004539
-0.0034839898
-0.003200962
0.0016650929
0.0015739332
0.001114278
0.0012567807
0.0022948904
0.0019265973
0.00026743061
-0.001526636
-0.0048739392
-0.0016726963
0.0018248791
0.0014389391
0.00085797391
0.0010802424
0.0030986883
0.0034513918
0.00073354719
-0.00063658755
-0.0031893405
-0.0012682774
0.0018347205
0.0012777501
0.00053945968
0.00065221489
0.0030855715
0.0044480112
0.0012562709
-0.00050779228
-0.0029412546
-0.0012268689
0.0017597436
0.0011056942
0.00024782213
0.00019780383
0.0025256346
0.0039430893
0.0011107228
-0.00053006338
-0.003019713
-0.0013334129
0.0016200609
0.00093021298
2.6678731e-05
-8.4428667e-05
0.0021943743
0.0036147271
0.0010070683
-0.00059778837
-0.0032374377
-0.0015601138
0.0014122065
0.00074597656
-0.00013938318
-0.00023547219
0.0020633112
0.0035132567
0.00097884528
-0.00070093276
-0.0035945313
-0.0019435647
0.00110728
0.00054300768
-0.00025938408
-0.00027773184
0.0021010509
0.0036167407
0.0010217582
-0.00071548056
-0.0038420035
-0.0024425524
0.00067556294
0.00031270055
-0.00033268635
-0.00020135169
0.0023492651
0.00403607
0.0011876716
-0.00016506747
-0.0028038501
-0.0025166183
0.00021608268
8.0684283e-05
-0.00035270749
8.2220725e-06
0.0028605614
0.0047910182
0.0014637456
0.00030104911
-0.0013205896
-0.0019508549
-0.00015772124
-0.00011713201
-0.00033067272
0.00032146162
0.0035235426
0.0036202527
0.00040716134
0.00033419579
-0.003704296
-0.0033576902
0.0018981292
0.0017018154
0.0011141495
0.0012382226
0.0024687121
0.0021325554
0.0002930014
-0.0016245571
-0.0051886463
-0.0016978
0.0020625823
0.0015404317
0.00080890608
0.0010107411
0.0033613865
0.0038420525
0.00080957407
-0.00065537111
-0.0033579196
-0.0012662569
0.0020616555
0.0013489459
0.00043677855
0.00050786321
0.0033280466
0.0049439482
0.0013885886
-0.00051796365
-0.003097213
-0.0012323031
0.0019673079
0.0011464866
9.9085847e-05
-1.4695449e-05
0.0026906043
0.0043771136
0.0012265808
-0.0005457357
-0.0031943933
-0.0013615313
0.0018017886
0.00094197593
-0.00015589387
-0.00033780386
0.0023145557
0.0040080038
0.0011106559
-0.00062555276
-0.0034500824
-0.0016262482
0.0015603379
0.0007293741
-0.00034578371
-0.00050861085
0.0021684788
0.0038965637
0.001079866
-0.00074923134
-0.0038717643
-0.0020713515
0.0012091162
0.00049710637
-0.00048067872
-0.00055162483
0.0022202409
0.0040254336
0.001132535
-0.00077720712
-0.0041804419
-0.0026516848
0.0007146708
0.0002354587
-0.00055960468
-0.0004536084
0.0025247188
0.0045386244
0.0013357574
-0.00015411509
-0.0030124298
-0.0027421337
0.00019562533
-2.5019068e-05
-0.00057499352
-0.00019538481
0.0031538268
0.0054813263
0.0016837248
0.00036245759
-0.0013690491
-0.0021166236
-0.00022127363
-0.00024509127
-0.00054217487
0.00018845233
0.0039806115
0.0040815982
0.00040260539
0.00038397112
-0.0038693346
-0.0034663997
0.00212214
0.0018029723
0.0010742349
0.0011644185
0.0025696748
0.0022763971
0.00030441983
-0.0017007179
-0.0054344448
-0.0016873953
0.002289179
0.0016154187
0.00072081521
0.00088471168
0.003538774
0.0041518127
0.00086609829
-0.00065943565
-0.003471525
-0.0012331305
0.0022762759
0.0013937945
0.00029615937
0.00030795964
0.0034807647
0.0053450495
0.0014952297
-0.000514715
-0.0032011756
-0.00120815
0.0021619923
0.0011611585
-8.6541864e-05
-0.0002808072
0.0027679075
0.0047176385
0.0013170565
-0.00054807632
-0.0033173891
-0.0013603172
0.0019706482
0.00092798059
-0.00037459936
-0.00064360331
0.0023485371
0.0043092803
0.0011893527
-0.00063975075
-0.0036103535
-0.0016624103
0.0016961785
0.00068757061
-0.00058773907
-0.00083359221
0.0021879524
0.0041882362
0.0011560933
-0.00078368946
-0.0040954647
-0.0021676743
0.0012998895
0.00042678337
-0.00073710786
-0.00087732654
0.0022532892
0.0043415734
0.0012181438
-0.00082622195
-0.0044668123
-0.0028279291
0.00074461553
0.00013478562
-0.0008214623
-0.00075833544
0.0026123037
0.0049458094
0.0014575686
-0.00013762332
-0.0031843748
-0.0029385408
0.00016766191
-0.0001531718
-0.00083235585
-0.00045297523
0.0033561336
0.0060729509
0.0018765089
0.00042405513
-0.0013981599
-0.0022621034
-0.00029115372
-0.00039461663
-0.00078916916
-7.6226231e-07
0.0043436812
0.0044650716
0.00038564907
0.00043869327
-0.0039805724
-0.0035290947
0.0023352877
0.0018782377
0.00099782892
0.0010400548
0.0026017328
0.0023603882
0.00030223252
-0.0017555217
-0.0056129978
-0.0016440959
0.0025029373
0.0016650037
0.00059743813
0.00070744355
0.0036348558
0.0043824065
0.00090349462
-0.00064959037
-0.0035324819
-0.0011714692
0.0024770818
0.0014137173
0.00012180208
5.8461336e-05
0.0035482476
0.005653014
0.0015764589
-0.00049885579
-0.0032553723
-0.001156755
0.0023425651
0.0011514222
-0.00030450725
-0.00059409199
0.0027626189
0.004966844
0.0013825541
-0.00053782399
-0.0033906878
-0.0013318414
0.0021256682
0.00089016448
-0.0006246851
-0.00099518718
0.002301594
0.0045209206
0.0012436209
-0.00064101181
-0.0037198927
-0.0016703365
0.0018190123
0.00062265696
-0.00086044373
-0.0012038078
0.0021269202
0.0043905543
0.0012079689
-0.00080475118
-0.0042667146
-0.0022337867
0.001379181
0.000334228
-0.0010239478
-0.0012484751
0.0022050106
0.004567051
0.0012789074
-0.00086275264
-0.0047014862
-0.002971872
0.0007653638
1.2941195e-05
-0.0011137317
-0.0011096423
0.0026160529
0.0052584616
0.0015530405
-0.00011600251
-0.0033201998
-0.0031060236
0.00013252737
-0.00030147074
-0.0011205312
-0.00075934241
0.0034701212
0.0065645101
0.002041168
0.00048525959
-0.0014088603
-0.0023874345
-0.0003667296
-0.00056334851
-0.0010676013
-0.00024173502
0.004613512
0.0047692076
0.00035617219
0.00049751182
-0.0040402356
-0.0035484404
0.0025354769
0.0019282904
0.00088817728
0.00086995418
0.0025693474
0.002387611
0.00028727796
-0.0017896429
-0.0057267884
-0.0015710805
0.0027018671
0.0016901215
0.00044245422
0.00048438297
0.0036542995
0.0045366146
0.00092249455
-0.00062685674
-0.0035438317
-0.0010844034
0.0026622936
0.001409948
-8.2158165e-05
-0.00023449859
0.0035357941
0.0058707909
0.0016329692
-0.00047140297
-0.0032627514
-0.0010810473
0.0025074907
0.0011187929
-0.00055031257
-0.00094790358
0.0026806595
0.0051282473
0.0014239324
-0.00051592995
-0.0034170149
-0.0012787798
0.0022655632
0.00083027768
-0.00090142046
-0.0013856512
0.0021799285
0.0046467043
0.0012743999
-0.0006301822
-0.0037810938
-0.001652376
0.0019278204
0.00053657185
-0.0011590515
-0.0016122965
0.0019915998
0.0045072991
0.0012364336
-0.00081307866
-0.0043873504
-0.0022715466
0.0014463009
0.00022153871
-0.0013363405
-0.0016582308
0.0020813928
0.0047053785
0.0013156794
-0.00088722968
-0.0048855466
-0.0030846625
0.00077666775
-0.00012782106
-0.0014316311
-0.0015009939
0.0025413911
0.0054792899
0.0016227245
-8.9777226e-05
-0.0034209036
-0.0032451865
9.0435236e-05
-0.00046752105
-0.0014348762
-0.0011084395
0.0035001632
0.0069570073
0.0021775838
0.00054543937
-0.0014023667
-0.0024930298
-0.00044741878
-0.00074876924
-0.0013729569
-0.0005290031
0.0047930199
0.0049950409
0.00031474687
0.0005594538
-0.0040511568
-0.0035276108
0.0027204921
0.0019537725
0.00074857803
0.00065915688
0.0024774737
0.0023617505
0.00026057514
-0.0018039797
-0.0057789678
-0.0014719355
0.002883867
0.0016916617
0.00025958416
0.00022120111
0.0036023824
0.0046180101
0.00092406808
-0.00059242016
-0.003509172
-0.00097544779
0.0028300174
0.0013836668
-0.00031155276
-0.00056456167
0.0034493714
0.0060022619
0.00166575
-0.00043352948
-0.0032268047
-0.00098434247
0.0026551139
0.0010647313
-0.00081942101
-0.0013353602
0.0025286396
0.005206325
0.0014423544
-0.00048350359
-0.0033996468
-0.0012042009
0.0023889292
0.00075002858
-0.0012000108
-0.0018078202
0.0019904734
0.0046914056
0.0012829418
-0.00060827
-0.0037969104
-0.0016112729
0.0020214757
0.00043124022
-0.0014786064
-0.0020517652
0.0017890067
0.0045433005
0.0012427547
-0.0008094995
-0.0044597776
-0.0022832061
0.0015004712
9.084319e-05
-0.0016692515
-0.0020993337
0.001889319
0.0047611983
0.0013296609
-0.00090024051
-0.005020629
-0.0031678342
0.00077821721
-0.0002851648
-0.0017701199
-0.001925323
0.0023947771
0.0056122786
0.0016675669
-5.9560376e-05
-0.0034878799
-0.0033569488
4.1573215e-05
-0.00064878973
-0.001770406
-0.0014935633
0.0034518565
0.0072529675
0.0022861209
0.00060393256
-0.0013801176
-0.0025795194
-0.00053263908
-0.00094818929
-0.0017003273
-0.00085634488
0.0048865464
0.0051450997
0.00026232168
0.0006234546
-0.0040166603
-0.0034701592
0.0028881078
0.0019553698
0.00058242616
0.00041292475
0.0023315091
0.0022869799
0.00022327623
-0.0017996186
-0.005773233
-0.001350522
0.0030468369
0.0016705493
5.2630881e-05
-7.6212194e-05
0.0034849188
0.0046308224
0.00090937062
-0.00054759386
-0.0034325308
-0.00084836287
0.0029783631
0.0013360838
-0.00056214303
-0.00092516451
0.0032955142
0.0060520738
0.0016760239
-0.00038652717
-0.0031514367
-0.0008701969
0.0027837842
0.00099072813
-0.001107227
-0.0017493811
0.0023137307
0.0052063159
0.0014392161
-0.00044177445
-0.0033422755
-0.0011114156
0.0024943691
0.00065116356
-0.0015155786
-0.0022543026
0.0017407397
0.0046605715
0.0012707336
-0.00057640749
-0.0037707227
-0.0015500181
0.002098864
0.00030864268
-0.00181404
-0.0025146665
0.0015267749
0.0045041928
0.0012284423
-0.0007949713
-0.0044868447
-0.0022712735
0.0015409336
-5.5649408e-05
-0.0020174908
-0.0025642118
0.0016363559
0.0047400132
0.0013223117
-0.00090249878
-0.005108812
-0.0032231869
0.00076972592
-0.00045664279
-0.0021239492
-0.0023751745
0.0021834475
0.0056623721
0.001688805
-2.6031518e-05
-0.0035228396
-0.0034424615
-1.3840911e-05
-0.00084260523
-0.0021218746
-0.0019075393
0.0033317007
0.0074560294
0.002367487
0.00066006288
-0.001343718
-0.0026476934
-0.00062177643
-0.0011587659
-0.0020445075
-0.0012169952
0.0048994637
0.0052229313
0.00020007297
0.0006883838
-0.0039404638
-0.0033799091
0.0030361727
0.0019338636
0.0003932274
0.00013671429
0.0021372286
0.0021678796
0.0001766395
-0.0017778038
-0.0057137218
-0.0012108674
0.0031887626
0.0016277957
-0.00017451088
-0.0004017844
0.003308181
0.0045798401
0.00087971159
-0.0004937882
-0.0033182603
-0.000707045
0.0031055299
0.0012684876
-0.00082961642
-0.0013095859
0.0030812278
0.0060255222
0.0016652104
-0.00033177603
-0.0030408578
-0.00074229711
0.0028919402
0.0008983491
-0.0014090599
-0.0021827457
0.0020435518
0.0051340889
0.0014161046
-0.00039206161
-0.0032489031
-0.0010038674
0.0025805744
0.00053550635
-0.0018431772
-0.0027175648
0.0014386852
0.0045603741
0.001239451
-0.00053582129
-0.0037062338
-0.0014717437
0.002158959
0.00017084523
-0.0021601991
-0.0029932895
0.0012130079
0.0043962531
0.0011951995
-0.00077055381
-0.004471747
-0.0022384164
0.0015670136
-0.00021563283
-0.0023757578
-0.0030450926
0.0013305834
0.0046480093
0.0012952962
-0.00089482042
-0.0051525339
-0.003252705
0.00075098009
-0.00063969854
-0.002487727
-0.0028428413
0.0019152209
0.0056352769
0.0016879076
1.0081169e-05
-0.0035277477
-0.0035030457
-7.5528931e-05
-0.0010461767
-0.0024838596
-0.0023428796
0.0031468752
0.0075707158
0.0024226644
0.00071315326
-0.0012948913
-0.0026984562
-0.00071416801
-0.0013775343
-0.0024000918
-0.0016038175
0.0048379275
0.0052328516
0.00012933141
0.0007530683
-0.003826592
-0.0032608626
0.0031626734
0.0018901613
0.00018459305
-0.00016386474
0.0019007155
0.0020093661
0.00012200832
-0.0017399094
-0.0056049193
-0.0010570746
0.0033077774
0.0015645271
-0.00041786379
-0.00074930943
0.0030788177
0.0044703273
0.00083652957
-0.00043248327
-0.0031709462
-0.00055543822
0.0032098659
0.0011822711
-0.0011096012
-0.001711005
0.0028138933
0.0059284526
0.0016348958
-0.00027071733
-0.0028994949
-0.00060437327
0.0029781668
0.00078925634
-0.0017202056
-0.002628162
0.0017260626
0.0049960322
0.0013747655
-0.00033574729
-0.0031237537
-0.0008850488
0.0026463784
0.00040497336
-0.0021778208
-0.0031900087
0.0010925975
0.0043974916
0.0011909235
-0.0004878068
-0.0036073852
-0.0013796441
0.0022008691
2.0006057e-05
-0.0025118865
-0.0034798503
0.00085614845
0.0042262719
0.001144885
-0.0007373852
-0.004417948
-0.0021873906
0.0015781588
-0.00038670752
-0.0027386946
-0.0035341076
0.00098045108
0.0044919168
0.0012504441
-0.00087810326
-0.0051545254
-0.0032584966
0.00072186545
-0.00083168222
-0.0028559853
-0.0033204838
0.0015983408
0.0055373128
0.0016665332
4.8016303e-05
-0.0035047702
-0.0035401457
-0.000143137
-0.0012566216
-0.0028508411
-0.0027919152
0.0029050687
0.0076022776
0.002452866
0.00076253757
-0.0012354389
-0.0027327918
-0.0008090955
-0.0016014425
-0.0027615601
-0.0020094429
0.0047087015
0.0051797863
5.1539001e-05
0.00081631338
-0.003679298
-0.0031171225
0.0032657824
0.001825313
-3.9776737e-05
-0.0004830981
0.0016282896
0.0018166222
6.07916e-05
-0.0016874131
-0.005451574
-0.00089324705
0.0034022084
0.0014819989
-0.00067338834
-0.001112503
0.0028037706
0.0043079414
0.00078136927
-0.00036520397
-0.0029953262
-0.00039746171
0.0032899114
0.0010789419
-0.0013976919
-0.0021225644
0.0025011735
0.0057671667
0.0015868064
-0.00020482945
-0.0027319132
-0.00046012946
0.0030412354
0.00066521465
-0.0020359371
-0.0030783362
0.0013694614
0.0047989525
0.0013170739
-0.00027425328
-0.0029711972
-0.00075843477
0.0026907921
0.00026157443
-0.0025145223
-0.0036640502
0.00071098277
0.0041790002
0.0011271028
-0.00043370557
-0.0034782843
-0.0012769137
0.0022238679
-0.00014163029
-0.0028639058
-0.0039665787
0.00046486041
0.0040014394
0.0010794801
-0.00069666101
-0.0043291123
-0.0021209835
0.0015739617
-0.00056639425
-0.0031009407
-0.0040233881
0.00059465078
0.0042788908
0.001189716
-0.00085330882
-0.0051177506
-0.0032427469
0.00068238207
-0.0010298728
-0.0032232436
-0.0038002347
0.0012413398
0.0053752881
0.0016264952
8.6992977e-05
-0.0034562284
-0.0035552928
-0.00021622906
-0.0014709952
-0.0032172727
-0.0032469087
0.0026143393
0.0075565671
0.0024595006
0.00080757065
-0.0011672062
-0.0027517358
-0.00090578444
-0.0018273858
-0.003123353
-0.0024263861
0.0045190162
0.0050691521
-3.1781493e-05
0.00087692224
-0.0035029928
-0.0029528251
0.0033438932
0.0017405171
-0.00027611684
-0.00081521908
0.0013264355
0.0015950301
-5.5551063e-06
-0.0016218726
-0.0052586221
-0.000723425
0.0034706097
0.0013815989
-0.00093700976
-0.0014850604
0.0024901926
0.0040986542
0.0007158589
-0.0002934973
-0.0027962187
-0.00023694929
0.0033444295
0.00096012344
-0.0016894799
-0.0025374336
0.0021509221
0.0055483321
0.0015227825
-0.00013560591
-0.0025427463
-0.00031318602
0.003080131
0.00052808872
-0.0023515507
-0.0035260425
0.0009820871
0.0045499784
0.0012450058
-0.00020901963
-0.0027956824
-0.00062742806
0.0027130277
0.00010740548
-0.0028483339
-0.0041321945
0.00030246304
0.003912273
0.0010500347
-0.00037488473
-0.00332314
-0.0011666962
0.002227413
-0.00031174555
-0.0032111089
-0.0044457993
4.7919371e-05
0.0037292408
0.0010010594
-0.00064961493
-0.0042090455
-0.002041969
0.0015541737
-0.00075215271
-0.0034571853
-0.004505153
0.00018200225
0.0040164014
0.0011151727
-0.00082144563
-0.0050453545
-0.0032076783
0.00063265215
-0.0012315024
-0.0035840674
-0.0042742929
0.0008529206
0.0051563884
0.0015697304
0.00012622313
-0.0033845589
-0.0035500744
-0.00029428529
-0.0016863204
-0.0035776461
-0.0037001518
0.0022829916
0.0074399289
0.0024441438
0.00084763714
-0.0010920525
-0.0027563541
-0.001003407
-0.0020522399
-0.0034799391
-0.0028471453
0.0042764481
0.0049067555
-0.00011905185
0.00093371393
-0.0033021797
-0.0027720812
0.0033956479
0.0016371199
-0.00052062437
-0.0011544612
0.0010017312
0.0013501047
-7.554799e-05
-0.0015449024
-0.0050311176
-0.00055153062
0.0035117872
0.0012648458
-0.001204648
-0.0018607144
0.002145367
0.0038486741
0.00064168837
-0.00021891138
-0.0025784572
-7.7597721e-05
0.0033724284
0.0008275498
-0.0019805871
-0.0029488717
0.001771095
0.0052788948
0.0014447526
-6.4535311e-05
-0.0023366341
-0.00016703083
0.0030940716
0.00037983478
-0.0026624026
-0.0039641899
0.00057232634
0.0042564681
0.001160612
-0.00014148515
-0.0026016766
-0.00049531334
0.0027125145
-5.5363384e-05
-0.0031743881
-0.0045871064
-0.00012432136
0.0036048851
0.00096183051
-0.00031271808
-0.0031462042
-0.0010520418
0.0022111584
-0.00048796368
-0.0035484408
-0.0049100072
-0.00038588838
0.0034173573
0.00091176164
-0.00059750088
-0.0040616393
-0.0019530679
0.0015187135
-0.00094140162
-0.0038022175
-0.0049717886
-0.00024865201
0.0037121335
0.0010289461
-0.00078355354
-0.0049406148
-0.0031555173
0.00057292372
-0.001433781
-0.003933123
-0.0047350068
0.00044184721
0.0048880735
0.0014982699
0.00016492299
-0.0032922756
-0.0035261087
-0.00037670281
-0.0018996163
-0.0039265481
-0.004144053
0.0019194673
0.0072590987
0.0024085095
0.00088215936
-0.0010118247
-0.0027477232
-0.001101086
-0.0022728918
-0.0038258747
-0.0032642907
0.0039888124
0.0046987024
-0.00020866095
0.00098554002
-0.0030813943
-0.0025789252
0.0034199569
0.0015166112
-0.00076948727
-0.0014951094
0.00066078087
0.0010874306
-0.00014769267
-0.0014581526
-0.0047741685
-0.0003813204
0.0035248172
0.0011333825
-0.0014722481
-0.0022332901
0.0017766312
0.0035643708
0.00056058799
-0.00014297613
-0.002346831
7.7077624e-05
0.0033731775
0.00068305759
-0.0022666988
-0.0033502868
0.0013696671
0.0049659946
0.0013547093
6.917253e-06
-0.0021181657
-2.4977211e-05
0.0030825221
0.00022248984
-0.002963945
-0.0043858848
0.00014852569
0.0039259216
0.0010659922
-7.3069282e-05
-0.0023936104
-0.00036521752
0.00268891
-0.00022450164
-0.0034879371
-0.0050216774
-0.00056080237
0.0032645228
0.00086464139
-0.00024856857
-0.0029517194
-0.00093586988
0.0021749628
-0.00066786771
-0.0038709824
-0.0053519369
-0.00082785931
0.0030735742
0.00081376338
-0.00054157649
-0.0038908219
-0.0018569144
0.0014676717
-0.001131539
-0.0041309718
-0.0054159208
-0.00068854296
0.0033738921
0.00093321201
-0.00074068906
-0.0048068968
-0.0030884645
0.00050357225
-0.0016339198
-0.0042652258
-0.0051749506
1.6846664e-05
0.0045779821
0.0014142114
0.00020232375
-0.0031819357
-0.00348502
-0.00046279772
-0.002107924
-0.0042587124
-0.0045712148
0.0015322455
0.0070211095
0.0023544244
0.00091060441
-0.00092833271
-0.0027269137
-0.0011978996
-0.0024862672
-0.0041558564
-0.0036705428
0.0036640641
0.0044513141
-0.00029898549
0.0010313
-0.0028451489
-0.0023772676
0.0034160157
0.0013806179
-0.001018912
-0.0018315484
0.00031015005
0.0008126015
-0.00022050096
-0.001363289
-0.004492877
-0.00021634333
0.0035090605
0.00098896895
-0.00173581
-0.0025967575
0.0013913036
0.0032522047
0.00047430815
-6.718542e-05
-0.0021060313
0.00022378177
0.0033462195
0.00052857641
-0.0025435954
-0.0037352906
0.00095455397
0.0046168857
0.0012546856
7.7327199e-05
-0.0018918277
0.00010987256
0.0030452036
5.8160015e-05
-0.00325176
-0.0047844882
-0.00028108922
0.0035658979
0.00096327079
-5.1555446e-06
-0.0021758275
-0.00024007506
0.0026421077
-0.00039773225
-0.0037843887
-0.0054290844
-0.0009985675
0.0028988991
0.0007606334
-0.00018377209
-0.0027438691
-0.00082093637
0.002118895
-0.00084901617
-0.0041739886
-0.0057646244
-0.0012694582
0.0027056947
0.00070925375
-0.00048308756
-0.0037005109
-0.001756025
0.0014013143
-0.0013199609
-0.0044385696
-0.0058304798
-0.0011290628
0.0030095147
0.00083016433
-0.00069391152
-0.0046476114
-0.0030086671
0.00042510122
-0.0018291523
-0.004575384
-0.0055869903
-0.00041348089
0.0042338428
0.0013196938
0.0002376815
-0.0030561069
-0.0034284179
-0.00055180713
-0.0023083299
-0.0045690648
-0.0049745025
0.0011297514
0.006733204
0.0022838024
0.0009324906
-0.00084332715
-0.0026949739
-0.0012928854
-0.0026893554
-0.0044647685
-0.0040588423
0.0033102085
0.0041710493
-0.00038840933
0.0010699554
-0.0025978807
-0.0021708535
0.0033833169
0.0012308969
-0.0012651487
-0.0021583062
-4.3692754e-05
0.00053116471
-0.00029250652
-0.001261974
-0.0041922847
-5.9903269e-05
0.0034641736
0.00083347405
-0.0019914147
-0.0029452775
0.00099661731
0.0029186597
0.00038460026
7.0193892e-06
-0.001860601
0.00035947478
0.0032913798
0.00036611981
-0.0028071802
-0.0040977478
0.00053354021
0.0042388619
0.0011467327
0.00014532616
-0.0016619564
0.00023466006
0.002982102
-0.00011099012
-0.0035215888
-0.0051536671
-0.00070848746
0.003183938
0.00085457385
6.0923836e-05
-0.0019525381
-0.00012259684
0.0025722428
-0.00057274416
-0.0040593379
-0.0058028428
-0.0014294352
0.0025156763
0.00065196441
-0.00011962242
-0.0025267335
-0.00070980412
0.002043238
-0.0010289573
-0.0044529222
-0.0061414621
-0.0017023953
0.0023214607
0.00060041106
-0.00042325349
-0.0034945697
-0.001652771
0.0013200851
-0.0015040775
-0.0047203541
-0.0062087566
-0.0015618436
0.0026267906
0.00072199161
-0.00064426997
-0.0044661751
-0.0029181937
0.00033814288
-0.0020167523
-0.0048588359
-0.0059643426
-0.00084074278
0.0038633921
0.0012168729
0.00027028656
-0.0029173367
-0.0033578758
-0.0006428903
-0.0024979854
-0.0048527625
-0.0053471041
0.00072027505
0.0064027531
0.0021986214
0.00094739334
-0.00075847792
-0.0026529154
-0.0013850427
-0.0028792296
-0.0047477217
-0.0044224113
0.0029352198
0.0038644318
-0.00047534127
0.0011005431
-0.0023439027
-0.0019632231
0.0033216625
0.0010693304
-0.0015045128
-0.0024700923
-0.00039442897
0.0002485698
-0.00036227917
-0.0011558491
-0.0038773203
8.4975164e-05