/*--------------------------------*- C++ -*----------------------------------*\
| =========                 |                                                 |
| \\      /  F ield         | OpenFOAM: The Open Source CFD Toolbox           |
|  \\    /   O peration     | Version:  v2106                                 |
|   \\  /    A nd           | Website:  www.openfoam.com                      |
|    \\/     M anipulation  |                                                 |
\*---------------------------------------------------------------------------*/
FoamFile
{
    version     2.0;
    format      ascii;
    arch        "LSB;label=32;scalar=64";
    class       volScalarField;
    location    "35";
    object      gradTz;
}
// * * * * * * * * * * * * * * * * * * * * * * * * * * * * * * * * * * * * * //

dimensions      [0 -1 0 1 0 0 0];

internalField   nonuniform List<scalar> 
4000
(
615.00146
615.00202
614.99998
615.00016
615.00046
615.00068
615.00087
615.00109
615.00133
615.00147
615.00202
615.00082
614.99955
614.99984
615.00013
615.00033
615.00051
615.00074
615.00111
615.00139
614.99998
614.99955
614.99843
614.99875
614.99903
614.99921
614.99935
614.99956
614.99998
615.00053
615.00016
614.99984
614.99875
614.99906
614.99934
614.99949
614.99959
614.99973
615.00008
615.00053
615.00046
615.00013
614.99903
614.99934
614.9996
614.99973
614.99981
614.99991
615.00021
615.00062
615.00068
615.00033
614.99921
614.99949
614.99973
614.99985
614.9999
614.99999
615.00027
615.00066
615.00087
615.00051
614.99935
614.99959
614.99981
614.9999
614.99994
615.00002
615.0003
615.0007
615.00109
615.00074
614.99956
614.99973
614.99991
614.99999
615.00002
615.0001
615.00039
615.00081
615.00133
615.00111
614.99998
615.00008
615.00021
615.00027
615.0003
615.00039
615.00071
615.00115
615.00147
615.00139
615.00053
615.00053
615.00062
615.00066
615.0007
615.00081
615.00115
615.00161
908.02613
908.02625
908.02442
908.02461
908.02497
908.02526
908.02552
908.02585
908.02626
908.02633
908.02625
908.02519
908.02394
908.02422
908.02459
908.02485
908.02508
908.02544
908.02612
908.02645
908.02442
908.02394
908.02286
908.02318
908.02353
908.02376
908.02393
908.02423
908.025
908.02564
908.02461
908.02422
908.02318
908.0235
908.02384
908.02404
908.02415
908.02436
908.02502
908.02557
908.02497
908.02459
908.02353
908.02384
908.02415
908.02432
908.02439
908.02455
908.02514
908.02563
908.02526
908.02485
908.02376
908.02404
908.02432
908.02445
908.0245
908.02463
908.0252
908.02567
908.02552
908.02508
908.02393
908.02415
908.02439
908.0245
908.02453
908.02465
908.02522
908.0257
908.02585
908.02544
908.02423
908.02436
908.02455
908.02463
908.02465
908.02478
908.02538
908.0259
908.02626
908.02612
908.025
908.02502
908.02514
908.0252
908.02522
908.02538
908.02604
908.0266
908.02633
908.02645
908.02564
908.02557
908.02563
908.02567
908.0257
908.0259
908.0266
908.02702
900.84322
900.84316
900.84204
900.84225
900.84257
900.84281
900.84303
900.84336
900.8439
900.84396
900.84316
900.8424
900.84163
900.8419
900.8422
900.84241
900.84258
900.84292
900.84378
900.84414
900.84204
900.84163
900.84097
900.84126
900.84155
900.84172
900.84183
900.84209
900.84301
900.84362
900.84225
900.8419
900.84126
900.84154
900.84182
900.84196
900.842
900.84218
900.84301
900.84355
900.84257
900.8422
900.84155
900.84182
900.84207
900.84218
900.84218
900.8423
900.84308
900.84357
900.84281
900.84241
900.84172
900.84196
900.84218
900.84226
900.84224
900.84233
900.84308
900.84356
900.84303
900.84258
900.84183
900.842
900.84218
900.84224
900.8422
900.84229
900.84306
900.84355
900.84336
900.84292
900.84209
900.84218
900.8423
900.84233
900.84229
900.84241
900.84322
900.84377
900.8439
900.84378
900.84301
900.84301
900.84308
900.84308
900.84306
900.84322
900.84411
900.84476
900.84396
900.84414
900.84362
900.84355
900.84357
900.84356
900.84355
900.84377
900.84476
900.84492
893.35562
893.35568
893.35476
893.355
893.35528
893.35547
893.35563
893.35591
893.35652
893.35668
893.35568
893.35513
893.35452
893.35479
893.35506
893.35522
893.35532
893.35558
893.35647
893.35686
893.35476
893.35452
893.35399
893.35428
893.35453
893.35465
893.35468
893.35486
893.35582
893.35644
893.355
893.35479
893.35428
893.35456
893.35479
893.35487
893.35485
893.35494
893.35581
893.35637
893.35528
893.35506
893.35453
893.35479
893.355
893.35505
893.35499
893.35503
893.35585
893.35637
893.35547
893.35522
893.35465
893.35487
893.35505
893.35508
893.35498
893.35501
893.35581
893.35631
893.35563
893.35532
893.35468
893.35485
893.35499
893.35498
893.35488
893.35491
893.35572
893.35625
893.35591
893.35558
893.35486
893.35494
893.35503
893.35501
893.35491
893.35496
893.35584
893.35646
893.35652
893.35647
893.35582
893.35581
893.35585
893.35581
893.35572
893.35584
893.35684
893.35761
893.35668
893.35686
893.35644
893.35637
893.35637
893.35631
893.35625
893.35646
893.35761
893.35768
885.58538
885.58547
885.58467
885.58491
885.58517
885.58531
885.5854
885.5856
885.58615
885.58632
885.58547
885.58502
885.58449
885.58477
885.58502
885.58512
885.58515
885.58532
885.58613
885.58649
885.58467
885.58449
885.58404
885.58433
885.58455
885.58462
885.58458
885.58467
885.58554
885.58612
885.58491
885.58477
885.58433
885.5846
885.58481
885.58484
885.58474
885.58475
885.58554
885.58606
885.58517
885.58502
885.58455
885.58481
885.58499
885.58499
885.58485
885.58481
885.58555
885.58603
885.58531
885.58512
885.58462
885.58484
885.58499
885.58496
885.5848
885.58474
885.58546
885.58593
885.5854
885.58515
885.58458
885.58474
885.58485
885.5848
885.58463
885.58457
885.58532
885.58582
885.5856
885.58532
885.58467
885.58475
885.58481
885.58474
885.58457
885.58454
885.58536
885.58597
885.58615
885.58613
885.58554
885.58554
885.58555
885.58546
885.58532
885.58536
885.58633
885.58713
885.58632
885.58649
885.58612
885.58606
885.58603
885.58593
885.58582
885.58597
885.58713
885.58718
877.55573
877.55583
877.55512
877.55537
877.55561
877.55571
877.55574
877.55586
877.55632
877.55646
877.55583
877.55544
877.55499
877.55528
877.5555
877.55557
877.55553
877.55562
877.55633
877.55664
877.55512
877.55499
877.55461
877.5549
877.5551
877.55513
877.55503
877.55503
877.5558
877.5563
877.55537
877.55528
877.5549
877.55517
877.55535
877.55534
877.55518
877.5551
877.55579
877.55625
877.55561
877.5555
877.5551
877.55535
877.5555
877.55546
877.55527
877.55514
877.55578
877.5562
877.55571
877.55557
877.55513
877.55534
877.55546
877.5554
877.55518
877.55503
877.55566
877.55607
877.55574
877.55553
877.55503
877.55518
877.55527
877.55518
877.55495
877.55481
877.55546
877.5559
877.55586
877.55562
877.55503
877.5551
877.55514
877.55503
877.55481
877.55471
877.55543
877.55598
877.55632
877.55633
877.5558
877.55579
877.55578
877.55566
877.55546
877.55543
877.55631
877.55707
877.55646
877.55664
877.5563
877.55625
877.5562
877.55607
877.5559
877.55598
877.55707
877.5571
869.29164
869.29177
869.29115
869.2914
869.29162
869.29169
869.29166
869.29171
869.29209
869.29218
869.29177
869.29144
869.29107
869.29135
869.29155
869.29158
869.2915
869.29151
869.29211
869.29237
869.29115
869.29107
869.29075
869.29104
869.29122
869.29121
869.29105
869.29098
869.29163
869.29207
869.2914
869.29135
869.29104
869.29131
869.29147
869.29142
869.29121
869.29105
869.29163
869.29202
869.29162
869.29155
869.29122
869.29147
869.29159
869.29152
869.29127
869.29107
869.2916
869.29195
869.29169
869.29158
869.29121
869.29142
869.29152
869.29141
869.29114
869.29093
869.29144
869.29178
869.29166
869.2915
869.29105
869.29121
869.29127
869.29114
869.29087
869.29065
869.29119
869.29156
869.29171
869.29151
869.29098
869.29105
869.29107
869.29093
869.29065
869.29048
869.2911
869.29158
869.29209
869.29211
869.29163
869.29163
869.2916
869.29144
869.29119
869.2911
869.29187
869.29257
869.29218
869.29237
869.29207
869.29202
869.29195
869.29178
869.29156
869.29158
869.29257
869.29257
860.8194
860.81954
860.81901
860.81927
860.81947
860.8195
860.81943
860.81941
860.81971
860.81976
860.81954
860.81928
860.81898
860.81926
860.81944
860.81944
860.81931
860.81924
860.81975
860.81995
860.81901
860.81898
860.81873
860.81901
860.81917
860.81913
860.81893
860.81879
860.81932
860.81968
860.81927
860.81926
860.81901
860.81928
860.81942
860.81934
860.81908
860.81886
860.81932
860.81963
860.81947
860.81944
860.81917
860.81942
860.81952
860.81941
860.81912
860.81886
860.81928
860.81955
860.8195
860.81944
860.81913
860.81934
860.81941
860.81928
860.81897
860.81868
860.81909
860.81936
860.81943
860.81931
860.81893
860.81908
860.81912
860.81897
860.81864
860.81837
860.8188
860.81909
860.81941
860.81924
860.81879
860.81886
860.81886
860.81868
860.81837
860.81812
860.81863
860.81903
860.81971
860.81975
860.81932
860.81932
860.81928
860.81909
860.8188
860.81863
860.81929
860.81991
860.81976
860.81995
860.81968
860.81963
860.81955
860.81936
860.81909
860.81903
860.81991
860.81988
852.16625
852.16641
852.16598
852.16624
852.16641
852.16641
852.1663
852.16622
852.16643
852.16644
852.16641
852.16621
852.16599
852.16627
852.16643
852.16639
852.16621
852.16609
852.16649
852.16663
852.16598
852.16599
852.1658
852.16608
852.16622
852.16614
852.1659
852.1657
852.16612
852.1664
852.16624
852.16627
852.16608
852.16634
852.16646
852.16635
852.16605
852.16577
852.16612
852.16636
852.16641
852.16643
852.16622
852.16646
852.16654
852.1664
852.16607
852.16575
852.16606
852.16626
852.16641
852.16639
852.16614
852.16635
852.1664
852.16624
852.16589
852.16555
852.16585
852.16604
852.1663
852.16621
852.1659
852.16605
852.16607
852.16589
852.16553
852.16519
852.16551
852.16573
852.16622
852.16609
852.1657
852.16577
852.16575
852.16555
852.16519
852.16489
852.16528
852.16561
852.16643
852.16649
852.16612
852.16612
852.16606
852.16585
852.16551
852.16528
852.16583
852.16637
852.16644
852.16663
852.1664
852.16636
852.16626
852.16604
852.16573
852.16561
852.16637
852.1663
843.36024
843.36041
843.36007
843.36033
843.36048
843.36045
843.36029
843.36016
843.36029
843.36027
843.36041
843.36027
843.36012
843.36039
843.36053
843.36047
843.36025
843.36006
843.36037
843.36045
843.36007
843.36012
843.35999
843.36026
843.36038
843.36028
843.36
843.35974
843.36006
843.36026
843.36033
843.36039
843.36026
843.36052
843.36061
843.36048
843.36015
843.35981
843.36006
843.36022
843.36048
843.36053
843.36038
843.36061
843.36067
843.36051
843.36015
843.35977
843.35998
843.36011
843.36045
843.36047
843.36028
843.36048
843.36051
843.36032
843.35994
843.35955
843.35974
843.35986
843.36029
843.36025
843.36
843.36015
843.36015
843.35994
843.35955
843.35916
843.35938
843.35952
843.36016
843.36006
843.35974
843.35981
843.35977
843.35955
843.35916
843.3588
843.35909
843.35934
843.36029
843.36037
843.36006
843.36006
843.35998
843.35974
843.35938
843.35909
843.35952
843.35997
843.36027
843.36045
843.36026
843.36022
843.36011
843.35986
843.35952
843.35934
843.35997
843.35987
834.42995
834.43013
834.42988
834.43014
834.43027
834.43021
834.43002
834.42983
834.42989
834.42983
834.43013
834.43006
834.42997
834.43023
834.43035
834.43026
834.43001
834.42977
834.42998
834.43001
834.42988
834.42997
834.42991
834.43016
834.43026
834.43013
834.42983
834.42951
834.42973
834.42986
834.43014
834.43023
834.43016
834.43041
834.43048
834.43032
834.42996
834.42958
834.42973
834.42982
834.43027
834.43035
834.43026
834.43048
834.43052
834.43034
834.42995
834.42952
834.42964
834.42969
834.43021
834.43026
834.43013
834.43032
834.43034
834.43013
834.42972
834.42928
834.42938
834.42943
834.43002
834.43001
834.42983
834.42996
834.42995
834.42972
834.4293
834.42887
834.42899
834.42906
834.42983
834.42977
834.42951
834.42958
834.42952
834.42928
834.42887
834.42846
834.42865
834.42882
834.42989
834.42998
834.42973
834.42973
834.42964
834.42938
834.42899
834.42865
834.42897
834.42934
834.42983
834.43001
834.42986
834.42982
834.42969
834.42943
834.42906
834.42882
834.42934
834.42919
825.40438
825.40457
825.4044
825.40464
825.40475
825.40467
825.40445
825.40421
825.40421
825.40411
825.40457
825.40455
825.40452
825.40477
825.40486
825.40475
825.40448
825.40419
825.40431
825.40429
825.4044
825.40452
825.40451
825.40476
825.40483
825.40468
825.40435
825.40399
825.40411
825.40417
825.40464
825.40477
825.40476
825.40498
825.40503
825.40485
825.40448
825.40405
825.40411
825.40413
825.40475
825.40486
825.40483
825.40503
825.40506
825.40485
825.40444
825.40398
825.404
825.404
825.40467
825.40475
825.40468
825.40485
825.40485
825.40463
825.4042
825.40372
825.40373
825.40372
825.40445
825.40448
825.40435
825.40448
825.40444
825.4042
825.40376
825.40329
825.40332
825.40333
825.40421
825.40419
825.40399
825.40405
825.40398
825.40372
825.40329
825.40285
825.40293
825.40303
825.40421
825.40431
825.40411
825.40411
825.404
825.40373
825.40332
825.40293
825.40315
825.40343
825.40411
825.40429
825.40417
825.40413
825.404
825.40372
825.40333
825.40303
825.40343
825.40326
816.31267
816.31286
816.31278
816.31301
816.3131
816.31299
816.31274
816.31247
816.3124
816.31228
816.31286
816.3129
816.31293
816.31316
816.31323
816.3131
816.3128
816.31248
816.31251
816.31244
816.31278
816.31293
816.31297
816.3132
816.31325
816.31308
816.31273
816.31234
816.31236
816.31236
816.31301
816.31316
816.3132
816.31341
816.31343
816.31324
816.31284
816.31239
816.31236
816.31232
816.3131
816.31323
816.31325
816.31343
816.31344
816.31322
816.3128
816.31231
816.31224
816.31218
816.31299
816.3131
816.31308
816.31324
816.31322
816.31298
816.31254
816.31204
816.31196
816.31189
816.31274
816.3128
816.31273
816.31284
816.3128
816.31254
816.31209
816.31159
816.31153
816.31148
816.31247
816.31248
816.31234
816.31239
816.31231
816.31204
816.31159
816.31112
816.31111
816.31114
816.3124
816.31251
816.31236
816.31236
816.31224
816.31196
816.31153
816.31111
816.31123
816.31143
816.31228
816.31244
816.31236
816.31232
816.31218
816.31189
816.31148
816.31114
816.31143
816.31123
807.184
807.1842
807.18419
807.18441
807.18447
807.18434
807.18407
807.18376
807.18364
807.18349
807.1842
807.18429
807.18437
807.18458
807.18463
807.18447
807.18416
807.1838
807.18375
807.18364
807.18419
807.18437
807.18445
807.18466
807.18469
807.1845
807.18414
807.18372
807.18366
807.18359
807.18441
807.18458
807.18466
807.18485
807.18485
807.18464
807.18424
807.18377
807.18365
807.18355
807.18447
807.18463
807.18469
807.18485
807.18484
807.18461
807.18418
807.18367
807.18353
807.18341
807.18434
807.18447
807.1845
807.18464
807.18461
807.18436
807.18391
807.18339
807.18324
807.18311
807.18407
807.18416
807.18414
807.18424
807.18418
807.18391
807.18345
807.18294
807.1828
807.18269
807.18376
807.1838
807.18372
807.18377
807.18367
807.18339
807.18294
807.18244
807.18235
807.18232
807.18364
807.18375
807.18366
807.18365
807.18353
807.18324
807.1828
807.18235
807.18237
807.1825
807.18349
807.18364
807.18359
807.18355
807.18341
807.18311
807.18269
807.18232
807.1825
807.18228
798.04738
798.04757
798.04764
798.04783
798.04787
798.04773
798.04744
798.04711
798.04693
798.04675
798.04757
798.04771
798.04783
798.04802
798.04805
798.04788
798.04755
798.04717
798.04704
798.0469
798.04764
798.04783
798.04796
798.04814
798.04815
798.04795
798.04758
798.04714
798.047
798.04688
798.04783
798.04802
798.04814
798.04831
798.04829
798.04807
798.04767
798.04718
798.04699
798.04684
798.04787
798.04805
798.04815
798.04829
798.04826
798.04802
798.04759
798.04707
798.04686
798.04669
798.04773
798.04788
798.04795
798.04807
798.04802
798.04776
798.04731
798.04679
798.04657
798.04639
798.04744
798.04755
798.04758
798.04767
798.04759
798.04731
798.04686
798.04634
798.04613
798.04597
798.04711
798.04717
798.04714
798.04718
798.04707
798.04679
798.04634
798.04583
798.04566
798.04557
798.04693
798.04704
798.047
798.04699
798.04686
798.04657
798.04613
798.04566
798.04559
798.04565
798.04675
798.0469
798.04688
798.04684
798.04669
798.04639
798.04597
798.04557
798.04565
798.04541
788.93149
788.93167
788.93181
788.93198
788.93199
788.93183
788.93153
788.93118
788.93096
788.93076
788.93167
788.93185
788.93202
788.93218
788.93218
788.932
788.93166
788.93126
788.93107
788.93089
788.93181
788.93202
788.93218
788.93234
788.93232
788.93211
788.93174
788.93129
788.93108
788.93091
788.93198
788.93218
788.93234
788.93247
788.93244
788.93221
788.93181
788.93131
788.93106
788.93087
788.93199
788.93218
788.93232
788.93244
788.93239
788.93214
788.93171
788.9312
788.93092
788.93071
788.93183
788.932
788.93211
788.93221
788.93214
788.93188
788.93144
788.93091
788.93063
788.93042
788.93153
788.93166
788.93174
788.93181
788.93171
788.93144
788.931
788.93047
788.9302
788.92999
788.93118
788.93126
788.93129
788.93131
788.9312
788.93091
788.93047
788.92996
788.92973
788.92958
788.93096
788.93107
788.93108
788.93106
788.93092
788.93063
788.9302
788.92973
788.92958
788.92956
788.93076
788.93089
788.93091
788.93087
788.93071
788.93042
788.92999
788.92958
788.92956
788.92931
779.86453
779.86471
779.86491
779.86505
779.86504
779.86487
779.86456
779.86419
779.86393
779.86373
779.86471
779.86492
779.86513
779.86526
779.86524
779.86505
779.86471
779.8643
779.86405
779.86384
779.86491
779.86513
779.86533
779.86545
779.86541
779.8652
779.86483
779.86437
779.8641
779.86388
779.86505
779.86526
779.86545
779.86556
779.8655
779.86527
779.86488
779.86439
779.86408
779.86384
779.86504
779.86524
779.86541
779.8655
779.86543
779.86518
779.86477
779.86426
779.86394
779.86369
779.86487
779.86505
779.8652
779.86527
779.86518
779.86493
779.8645
779.86398
779.86365
779.8634
779.86456
779.86471
779.86483
779.86488
779.86477
779.8645
779.86407
779.86355
779.86323
779.86299
779.86419
779.8643
779.86437
779.86439
779.86426
779.86398
779.86355
779.86305
779.86275
779.86256
779.86393
779.86405
779.8641
779.86408
779.86394
779.86365
779.86323
779.86275
779.86253
779.86245
779.86373
779.86384
779.86388
779.86384
779.86369
779.8634
779.86299
779.86256
779.86245
779.86219
770.87411
770.87428
770.87453
770.87465
770.87461
770.87443
770.87412
770.87375
770.87345
770.87324
770.87428
770.87452
770.87476
770.87486
770.87481
770.87462
770.87428
770.87387
770.87357
770.87333
770.87453
770.87476
770.87498
770.87507
770.87501
770.8748
770.87444
770.87398
770.87365
770.8734
770.87465
770.87486
770.87507
770.87515
770.87508
770.87485
770.87446
770.87399
770.87363
770.87336
770.87461
770.87481
770.87501
770.87508
770.87499
770.87474
770.87435
770.87386
770.87349
770.87321
770.87443
770.87462
770.8748
770.87485
770.87474
770.87449
770.87408
770.87358
770.87321
770.87293
770.87412
770.87428
770.87444
770.87446
770.87435
770.87408
770.87368
770.87317
770.8728
770.87253
770.87375
770.87387
770.87398
770.87399
770.87386
770.87358
770.87317
770.87268
770.87234
770.8721
770.87345
770.87357
770.87365
770.87363
770.87349
770.87321
770.8728
770.87234
770.87205
770.87192
770.87324
770.87333
770.8734
770.87336
770.87321
770.87293
770.87253
770.8721
770.87192
770.87165
761.98707
761.98722
761.98753
761.98761
761.98755
761.98736
761.98705
761.98668
761.98636
761.98614
761.98722
761.98749
761.98776
761.98782
761.98775
761.98755
761.98722
761.98681
761.98647
761.98622
761.98753
761.98776
761.988
761.98806
761.98797
761.98776
761.98741
761.98697
761.98659
761.98631
761.98761
761.98782
761.98806
761.9881
761.98801
761.98778
761.98742
761.98696
761.98656
761.98627
761.98755
761.98775
761.98797
761.98801
761.9879
761.98767
761.98729
761.98682
761.98642
761.98612
761.98736
761.98755
761.98776
761.98778
761.98767
761.98742
761.98704
761.98656
761.98616
761.98585
761.98705
761.98722
761.98741
761.98742
761.98729
761.98704
761.98666
761.98618
761.98578
761.98548
761.98668
761.98681
761.98697
761.98696
761.98682
761.98656
761.98618
761.98571
761.98533
761.98506
761.98636
761.98647
761.98659
761.98656
761.98642
761.98616
761.98578
761.98533
761.98499
761.9848
761.98614
761.98622
761.98631
761.98627
761.98612
761.98585
761.98548
761.98506
761.9848
761.98453
753.22937
753.2295
753.22986
753.22991
753.22982
753.22962
753.22932
753.22896
753.22862
753.2284
753.2295
753.22979
753.23008
753.23012
753.23002
753.22982
753.2295
753.2291
753.22872
753.22846
753.22986
753.23008
753.23034
753.23036
753.23026
753.23005
753.22972
753.2293
753.22888
753.22857
753.22991
753.23012
753.23036
753.23038
753.23026
753.23004
753.22971
753.22927
753.22885
753.22853
753.22982
753.23002
753.23026
753.23026
753.23014
753.22992
753.22957
753.22913
753.2287
753.22839
753.22962
753.22982
753.23005
753.23004
753.22992
753.22968
753.22933
753.22889
753.22846
753.22814
753.22932
753.2295
753.22972
753.22971
753.22957
753.22933
753.22898
753.22854
753.22811
753.22779
753.22896
753.2291
753.2293
753.22927
753.22913
753.22889
753.22854
753.2281
753.22768
753.22739
753.22862
753.22872
753.22888
753.22885
753.2287
753.22846
753.22811
753.22768
753.2273
753.22706
753.2284
753.22846
753.22857
753.22853
753.22839
753.22814
753.22779
753.22739
753.22706
753.2268
744.626
744.6261
744.6265
744.62651
744.6264
744.6262
744.62592
744.62556
744.62521
744.625
744.6261
744.62641
744.62672
744.62671
744.6266
744.62639
744.6261
744.62572
744.62531
744.62503
744.6265
744.62672
744.62699
744.62697
744.62685
744.62664
744.62634
744.62595
744.6255
744.62517
744.62651
744.62671
744.62697
744.62695
744.62682
744.62661
744.6263
744.62591
744.62546
744.62513
744.6264
744.6266
744.62685
744.62682
744.62669
744.62647
744.62616
744.62576
744.62532
744.62499
744.6262
744.62639
744.62664
744.62661
744.62647
744.62625
744.62594
744.62554
744.62509
744.62476
744.62592
744.6261
744.62634
744.6263
744.62616
744.62594
744.62563
744.62523
744.62478
744.62445
744.62556
744.62572
744.62595
744.62591
744.62576
744.62554
744.62523
744.62483
744.62439
744.62407
744.62521
744.62531
744.6255
744.62546
744.62532
744.62509
744.62478
744.62439
744.62396
744.62369
744.625
744.62503
744.62517
744.62513
744.62499
744.62476
744.62445
744.62407
744.62369
744.62343
736.20081
736.20089
736.20132
736.20131
736.20117
736.20097
736.2007
736.20037
736.20001
736.19981
736.20089
736.20122
736.20153
736.20149
736.20136
736.20115
736.20088
736.20052
736.20009
736.19982
736.20132
736.20153
736.20181
736.20176
736.20162
736.20142
736.20115
736.20079
736.20032
736.19997
736.20131
736.20149
736.20176
736.2017
736.20156
736.20136
736.20109
736.20073
736.20027
736.19993
736.20117
736.20136
736.20162
736.20156
736.20141
736.20121
736.20094
736.20059
736.20013
736.1998
736.20097
736.20115
736.20142
736.20136
736.20121
736.20101
736.20074
736.20039
736.19993
736.1996
736.2007
736.20088
736.20115
736.20109
736.20094
736.20074
736.20047
736.20012
736.19966
736.19933
736.20037
736.20052
736.20079
736.20073
736.20059
736.20039
736.20012
736.19976
736.19931
736.19897
736.20001
736.20009
736.20032
736.20027
736.20013
736.19993
736.19966
736.19931
736.19886
736.19855
736.19981
736.19982
736.19997
736.19993
736.1998
736.1996
736.19933
736.19897
736.19855
736.19831
727.9765
727.97655
727.97701
727.97696
727.9768
727.97661
727.97636
727.97605
727.97569
727.9755
727.97655
727.97688
727.9772
727.97713
727.97697
727.97678
727.97653
727.9762
727.97576
727.97549
727.97701
727.9772
727.97749
727.9774
727.97724
727.97705
727.97682
727.97649
727.97601
727.97566
727.97696
727.97713
727.9774
727.9773
727.97715
727.97696
727.97673
727.97642
727.97596
727.97561
727.9768
727.97697
727.97724
727.97715
727.97699
727.97681
727.97659
727.97628
727.97583
727.97549
727.97661
727.97678
727.97705
727.97696
727.97681
727.97663
727.97641
727.97611
727.97566
727.97533
727.97636
727.97653
727.97682
727.97673
727.97659
727.97641
727.97619
727.97589
727.97543
727.9751
727.97605
727.9762
727.97649
727.97642
727.97628
727.97611
727.97589
727.97558
727.97512
727.97478
727.97569
727.97576
727.97601
727.97596
727.97583
727.97566
727.97543
727.97512
727.97465
727.97431
727.9755
727.97549
727.97566
727.97561
727.97549
727.97533
727.9751
727.97478
727.97431
727.97409
719.97444
719.97446
719.97494
719.97485
719.97468
719.97449
719.97426
719.97398
719.97363
719.97346
719.97446
719.97479
719.97512
719.975
719.97483
719.97464
719.97443
719.97414
719.97369
719.97342
719.97494
719.97512
719.9754
719.97527
719.9751
719.97492
719.97473
719.97445
719.97396
719.9736
719.97485
719.975
719.97527
719.97514
719.97497
719.9748
719.97462
719.97436
719.9739
719.97356
719.97468
719.97483
719.9751
719.97497
719.97481
719.97465
719.97447
719.97423
719.97378
719.97346
719.97449
719.97464
719.97492
719.9748
719.97465
719.97449
719.97432
719.97408
719.97364
719.97332
719.97426
719.97443
719.97473
719.97462
719.97447
719.97432
719.97416
719.97392
719.97347
719.97314
719.97398
719.97414
719.97445
719.97436
719.97423
719.97408
719.97392
719.97367
719.97321
719.97286
719.97363
719.97369
719.97396
719.9739
719.97378
719.97364
719.97347
719.97321
719.97273
719.97237
719.97346
719.97342
719.9736
719.97356
719.97346
719.97332
719.97314
719.97286
719.97237
719.97217
712.21462
712.21461
712.21512
712.21499
712.2148
712.21462
712.21442
712.21418
712.21384
712.21368
712.21461
712.21494
712.21527
712.21512
712.21493
712.21476
712.21458
712.21433
712.21388
712.21362
712.21512
712.21527
712.21555
712.21538
712.2152
712.21504
712.21489
712.21466
712.21417
712.21382
712.21499
712.21512
712.21538
712.21522
712.21504
712.21489
712.21476
712.21456
712.21411
712.21378
712.2148
712.21493
712.2152
712.21504
712.21487
712.21473
712.21461
712.21443
712.214
712.21369
712.21462
712.21476
712.21504
712.21489
712.21473
712.21461
712.21449
712.21432
712.21389
712.21358
712.21442
712.21458
712.21489
712.21476
712.21461
712.21449
712.21438
712.21421
712.21378
712.21346
712.21418
712.21433
712.21466
712.21456
712.21443
712.21432
712.21421
712.21402
712.21357
712.21323
712.21384
712.21388
712.21417
712.21411
712.214
712.21389
712.21378
712.21357
712.21309
712.21271
712.21368
712.21362
712.21382
712.21378
712.21369
712.21358
712.21346
712.21323
712.21271
712.21254
704.71562
704.71557
704.71609
704.71593
704.71572
704.71555
704.71539
704.71518
704.71486
704.71473
704.71557
704.7159
704.71622
704.71603
704.71583
704.71567
704.71553
704.71533
704.71488
704.71465
704.71609
704.71622
704.71649
704.71629
704.7161
704.71596
704.71585
704.71567
704.7152
704.71485
704.71593
704.71603
704.71629
704.71609
704.71591
704.71578
704.7157
704.71556
704.71513
704.71481
704.71572
704.71583
704.7161
704.71591
704.71573
704.71562
704.71556
704.71544
704.71503
704.71474
704.71555
704.71567
704.71596
704.71578
704.71562
704.71552
704.71547
704.71536
704.71496
704.71468
704.71539
704.71553
704.71585
704.7157
704.71556
704.71547
704.71542
704.71531
704.71491
704.71461
704.71518
704.71533
704.71567
704.71556
704.71544
704.71536
704.71531
704.7152
704.71476
704.71443
704.71486
704.71488
704.7152
704.71513
704.71503
704.71496
704.71491
704.71476
704.71428
704.7139
704.71473
704.71465
704.71485
704.71481
704.71474
704.71468
704.71461
704.71443
704.7139
704.71376
697.49445
697.49437
697.4949
697.4947
697.49448
697.49432
697.4942
697.49403
697.49374
697.49364
697.49437
697.49469
697.495
697.49477
697.49456
697.49442
697.49433
697.49417
697.49374
697.49353
697.4949
697.495
697.49526
697.49503
697.49482
697.49471
697.49465
697.49453
697.49407
697.49374
697.4947
697.49477
697.49503
697.4948
697.4946
697.49451
697.49448
697.49441
697.494
697.49371
697.49448
697.49456
697.49482
697.4946
697.49443
697.49435
697.49434
697.4943
697.49392
697.49365
697.49432
697.49442
697.49471
697.49451
697.49435
697.49428
697.49429
697.49426
697.49389
697.49363
697.4942
697.49433
697.49465
697.49448
697.49434
697.49429
697.4943
697.49427
697.4939
697.49362
697.49403
697.49417
697.49453
697.49441
697.4943
697.49426
697.49427
697.49423
697.49382
697.4935
697.49374
697.49374
697.49407
697.494
697.49392
697.49389
697.4939
697.49382
697.49335
697.49296
697.49364
697.49353
697.49374
697.49371
697.49365
697.49363
697.49362
697.4935
697.49296
697.49285
690.56657
690.56646
690.56699
690.56676
690.56653
690.56639
690.56631
690.56619
690.56592
690.56585
690.56646
690.56676
690.56706
690.5668
690.56658
690.56647
690.56642
690.56631
690.56591
690.56572
690.56699
690.56706
690.56731
690.56704
690.56684
690.56675
690.56674
690.56668
690.56625
690.56594
690.56676
690.5668
690.56704
690.56678
690.56659
690.56652
690.56655
690.56655
690.56618
690.56591
690.56653
690.56658
690.56684
690.56659
690.56641
690.56637
690.56642
690.56645
690.56611
690.56587
690.56639
690.56647
690.56675
690.56652
690.56637
690.56634
690.56641
690.56646
690.56613
690.56589
690.56631
690.56642
690.56674
690.56655
690.56642
690.56641
690.56649
690.56654
690.5662
690.56595
690.56619
690.56631
690.56668
690.56655
690.56645
690.56646
690.56654
690.56657
690.56619
690.56589
690.56592
690.56591
690.56625
690.56618
690.56611
690.56613
690.5662
690.56619
690.56574
690.56535
690.56585
690.56572
690.56594
690.56591
690.56587
690.56589
690.56595
690.56589
690.56535
690.56528
683.94581
683.94566
683.94619
683.94593
683.94569
683.94558
683.94554
683.94547
683.94524
683.9452
683.94566
683.94595
683.94624
683.94594
683.94572
683.94563
683.94563
683.94558
683.9452
683.94504
683.94619
683.94624
683.94647
683.94617
683.94596
683.9459
683.94595
683.94596
683.94556
683.94527
683.94593
683.94594
683.94617
683.94588
683.94569
683.94566
683.94575
683.94582
683.94548
683.94524
683.94569
683.94572
683.94596
683.94569
683.94552
683.94551
683.94563
683.94574
683.94544
683.94523
683.94558
683.94563
683.9459
683.94566
683.94551
683.94552
683.94566
683.94578
683.9455
683.9453
683.94554
683.94563
683.94595
683.94575
683.94563
683.94566
683.9458
683.94593
683.94564
683.94542
683.94547
683.94558
683.94596
683.94582
683.94574
683.94578
683.94593
683.94604
683.9457
683.94543
683.94524
683.9452
683.94556
683.94548
683.94544
683.9455
683.94564
683.9457
683.94528
683.9449
683.9452
683.94504
683.94527
683.94524
683.94523
683.9453
683.94542
683.94543
683.9449
683.94487
677.6443
677.64412
677.64465
677.64436
677.64412
677.64403
677.64404
677.64403
677.64383
677.64383
677.64412
677.64439
677.64467
677.64435
677.64412
677.64406
677.64411
677.64413
677.64378
677.64365
677.64465
677.64467
677.64488
677.64456
677.64435
677.64432
677.64443
677.64451
677.64415
677.64388
677.64436
677.64435
677.64456
677.64425
677.64406
677.64406
677.64422
677.64437
677.64407
677.64387
677.64412