/*--------------------------------*- C++ -*----------------------------------*\
| =========                 |                                                 |
| \\      /  F ield         | OpenFOAM: The Open Source CFD Toolbox           |
|  \\    /   O peration     | Version:  v2106                                 |
|   \\  /    A nd           | Website:  www.openfoam.com                      |
|    \\/     M anipulation  |                                                 |
\*---------------------------------------------------------------------------*/
FoamFile
{
    version     2.0;
    format      ascii;
    arch        "LSB;label=32;scalar=64";
    class       volScalarField;
    location    "35";
    object      laplacianT;
}
// * * * * * * * * * * * * * * * * * * * * * * * * * * * * * * * * * * * * * //

dimensions      [0 -2 0 1 0 0 0];

internalField   nonuniform List<scalar> 
4000
(
110830.93
110830.89
110830.82
110830.7
110830.67
110830.68
110830.7
110830.74
110830.78
110830.78
110830.89
110830.94
110830.79
110830.69
110830.66
110830.66
110830.7
110830.75
110830.8
110830.79
110830.82
110830.79
110830.67
110830.57
110830.54
110830.55
110830.59
110830.65
110830.73
110830.74
110830.7
110830.69
110830.57
110830.48
110830.45
110830.46
110830.5
110830.57
110830.66
110830.68
110830.67
110830.66
110830.54
110830.45
110830.43
110830.44
110830.49
110830.55
110830.64
110830.67
110830.68
110830.66
110830.55
110830.46
110830.44
110830.46
110830.5
110830.57
110830.66
110830.69
110830.7
110830.7
110830.59
110830.5
110830.49
110830.5
110830.54
110830.62
110830.71
110830.73
110830.74
110830.75
110830.65
110830.57
110830.55
110830.57
110830.62
110830.69
110830.78
110830.8
110830.78
110830.8
110830.73
110830.66
110830.64
110830.66
110830.71
110830.78
110830.86
110830.89
110830.78
110830.79
110830.74
110830.68
110830.67
110830.69
110830.73
110830.8
110830.89
110830.9
-7060.5697
-7062.1917
-7061.0654
-7061.2173
-7061.2334
-7061.2353
-7061.239
-7061.2448
-7061.2526
-7061.2642
-7062.1917
-7062.268
-7061.645
-7061.7811
-7061.794
-7061.7956
-7061.8001
-7061.8141
-7061.8708
-7061.6911
-7061.0654
-7061.645
-7060.9749
-7061.1038
-7061.116
-7061.1174
-7061.1205
-7061.1329
-7061.2403
-7061.3258
-7061.2173
-7061.7811
-7061.1038
-7061.2319
-7061.2443
-7061.2457
-7061.2478
-7061.2524
-7061.3334
-7061.371
-7061.2334
-7061.794
-7061.116
-7061.2443
-7061.2569
-7061.2587
-7061.2612
-7061.2658
-7061.3453
-7061.3778
-7061.2353
-7061.7956
-7061.1174
-7061.2457
-7061.2587
-7061.2608
-7061.2635
-7061.2685
-7061.3482
-7061.3806
-7061.239
-7061.8001
-7061.1205
-7061.2478
-7061.2612
-7061.2635
-7061.2665
-7061.2715
-7061.3513
-7061.3839
-7061.2448
-7061.8141
-7061.1329
-7061.2524
-7061.2658
-7061.2685
-7061.2715
-7061.2766
-7061.3565
-7061.3899
-7061.2526
-7061.8708
-7061.2403
-7061.3334
-7061.3453
-7061.3482
-7061.3513
-7061.3565
-7061.4367
-7061.4732
-7061.2642
-7061.6911
-7061.3258
-7061.371
-7061.3778
-7061.3806
-7061.3839
-7061.3899
-7061.4732
-7061.5083
-6376.6281
-6378.4782
-6377.0103
-6377.243
-6377.2705
-6377.2735
-6377.2776
-6377.2885
-6377.3308
-6377.0606
-6378.4782
-6378.3777
-6377.5774
-6377.7859
-6377.8082
-6377.81
-6377.8133
-6377.8422
-6378.0939
-6377.6492
-6377.0103
-6377.5774
-6376.7113
-6376.9093
-6376.9304
-6376.9311
-6376.9288
-6376.9399
-6377.2517
-6377.1846
-6377.243
-6377.7859
-6376.9093
-6377.106
-6377.1272
-6377.1279
-6377.1235
-6377.1201
-6377.3878
-6377.2482
-6377.2705
-6377.8082
-6376.9304
-6377.1272
-6377.1486
-6377.1496
-6377.1457
-6377.1419
-6377.4066
-6377.2583
-6377.2735
-6377.81
-6376.9311
-6377.1279
-6377.1496
-6377.151
-6377.1473
-6377.1439
-6377.4089
-6377.2601
-6377.2776
-6377.8133
-6376.9288
-6377.1235
-6377.1457
-6377.1473
-6377.1438
-6377.1405
-6377.4057
-6377.2578
-6377.2885
-6377.8422
-6376.9399
-6377.1201
-6377.1419
-6377.1439
-6377.1405
-6377.1374
-6377.4033
-6377.2602
-6377.3308
-6378.0939
-6377.2517
-6377.3878
-6377.4066
-6377.4089
-6377.4057
-6377.4033
-6377.6725
-6377.5511
-6377.0606
-6377.6492
-6377.1846
-6377.2482
-6377.2583
-6377.2601
-6377.2578
-6377.2602
-6377.5511
-6377.2053
-5818.3446
-5820.4398
-5818.6606
-5818.9702
-5819.0087
-5819.0125
-5819.016
-5819.0348
-5819.1855
-5818.8015
-5820.4398
-5820.2237
-5819.2662
-5819.5437
-5819.575
-5819.576
-5819.5735
-5819.6038
-5820.0933
-5819.5014
-5818.6606
-5819.2662
-5818.2241
-5818.4879
-5818.5176
-5818.5169
-5818.5051
-5818.5016
-5819.0639
-5818.951
-5818.9702
-5819.5437
-5818.4879
-5818.7498
-5818.7794
-5818.7787
-5818.7639
-5818.7391
-5819.2405
-5819.0325
-5819.0087
-5819.575
-5818.5176
-5818.7794
-5818.8093
-5818.8089
-5818.7945
-5818.769
-5819.266
-5819.0459
-5819.0125
-5819.576
-5818.5169
-5818.7787
-5818.8089
-5818.8088
-5818.7947
-5818.7696
-5819.2668
-5819.0459
-5819.016
-5819.5735
-5818.5051
-5818.7639
-5818.7945
-5818.7947
-5818.7808
-5818.7559
-5819.2534
-5819.0343
-5819.0348
-5819.6038
-5818.5016
-5818.7391
-5818.769
-5818.7696
-5818.7559
-5818.7313
-5819.2307
-5819.0251
-5819.1855
-5820.0933
-5819.0639
-5819.2405
-5819.266
-5819.2668
-5819.2534
-5819.2307
-5819.7419
-5819.6194
-5818.8015
-5819.5014
-5818.951
-5819.0325
-5819.0459
-5819.0459
-5819.0343
-5819.0251
-5819.6194
-5818.8557
-5353.6525
-5355.9334
-5353.8786
-5354.2649
-5354.3142
-5354.3182
-5354.3185
-5354.3353
-5354.577
-5354.1202
-5355.9334
-5355.5879
-5354.5004
-5354.8462
-5354.8864
-5354.8858
-5354.8745
-5354.893
-5355.5936
-5354.9101
-5353.8786
-5354.5004
-5353.3091
-5353.638
-5353.676
-5353.6733
-5353.649
-5353.6175
-5354.4011
-5354.2849
-5354.2649
-5354.8462
-5353.638
-5353.9645
-5354.0024
-5353.9996
-5353.9713
-5353.9116
-5354.6178
-5354.3842
-5354.3142
-5354.8864
-5353.676
-5354.0024
-5354.0404
-5354.038
-5354.0103
-5353.9495
-5354.6498
-5354.4007
-5354.3182
-5354.8858
-5353.6733
-5353.9996
-5354.038
-5354.0359
-5354.0085
-5353.9481
-5354.6486
-5354.3985
-5354.3185
-5354.8745
-5353.649
-5353.9713
-5354.0103
-5354.0085
-5353.9812
-5353.9209
-5354.6218
-5354.3743
-5354.3353
-5354.893
-5353.6175
-5353.9116
-5353.9495
-5353.9481
-5353.9209
-5353.861
-5354.5645
-5354.3407
-5354.577
-5355.5936
-5354.4011
-5354.6178
-5354.6498
-5354.6486
-5354.6218
-5354.5645
-5355.2892
-5355.2354
-5354.1202
-5354.9101
-5354.2849
-5354.3842
-5354.4007
-5354.3985
-5354.3743
-5354.3407
-5355.2354
-5354.1184
-4959.9847
-4962.3981
-4960.1062
-4960.5684
-4960.6282
-4960.632
-4960.6281
-4960.6386
-4960.9582
-4960.4525
-4962.3981
-4961.916
-4960.7267
-4961.14
-4961.1886
-4961.1862
-4961.1644
-4961.1645
-4962.0509
-4961.3165
-4960.1062
-4960.7267
-4959.4142
-4959.8072
-4959.8532
-4959.8481
-4959.8096
-4959.7432
-4960.719
-4960.6277
-4960.5684
-4961.14
-4959.8072
-4960.1972
-4960.243
-4960.2378
-4960.1945
-4960.0931
-4960.9754
-4960.7445
-4960.6282
-4961.1886
-4959.8532
-4960.243
-4960.289
-4960.2843
-4960.2417
-4960.1387
-4961.0137
-4960.764
-4960.632
-4961.1862
-4959.8481
-4960.2378
-4960.2843
-4960.2798
-4960.2376
-4960.135
-4961.0101
-4960.7591
-4960.6281
-4961.1644
-4959.8096
-4960.1945
-4960.2417
-4960.2376
-4960.1954
-4960.0929
-4960.9682
-4960.7205
-4960.6386
-4961.1645
-4959.7432
-4960.0931
-4960.1387
-4960.135
-4960.0929
-4959.9905
-4960.869
-4960.6552
-4960.9582
-4962.0509
-4960.719
-4960.9754
-4961.0137
-4961.0101
-4960.9682
-4960.869
-4961.7772
-4961.8281
-4960.4525
-4961.3165
-4960.6277
-4960.7445
-4960.764
-4960.7591
-4960.7205
-4960.6552
-4961.8281
-4960.4217
-4621.1725
-4623.678
-4621.186
-4621.7225
-4621.7925
-4621.7958
-4621.7868
-4621.7884
-4622.1746
-4621.6368
-4623.678
-4623.0622
-4621.7968
-4622.2757
-4622.3324
-4622.3277
-4622.2943
-4622.2712
-4623.319
-4622.5627
-4621.186
-4621.7968
-4620.3889
-4620.8441
-4620.8978
-4620.89
-4620.8363
-4620.7301
-4621.8701
-4621.8208
-4621.7225
-4622.2757
-4620.8441
-4621.2959
-4621.3493
-4621.3414
-4621.2822
-4621.1344
-4622.1652
-4621.9547
-4621.7925
-4622.3324
-4620.8978
-4621.3493
-4621.4029
-4621.3956
-4621.3371
-4621.1874
-4622.2096
-4621.977
-4621.7958
-4622.3277
-4620.89
-4621.3414
-4621.3956
-4621.3885
-4621.3305
-4621.1812
-4622.2035
-4621.969
-4621.7868
-4622.2943
-4620.8363
-4621.2822
-4621.3371
-4621.3305
-4621.2725
-4621.1231
-4622.1454
-4621.9148
-4621.7884
-4622.2712
-4620.7301
-4621.1344
-4621.1874
-4621.1812
-4621.1231
-4620.9736
-4621.9992
-4621.8128
-4622.1746
-4623.319
-4621.8701
-4622.1652
-4622.2096
-4622.2035
-4622.1454
-4621.9992
-4623.0624
-4623.2376
-4621.6368
-4622.5627
-4621.8208
-4621.9547
-4621.977
-4621.969
-4621.9148
-4621.8128
-4623.2376
-4621.5958
-4325.3742
-4327.9408
-4325.2836
-4325.8916
-4325.9713
-4325.974
-4325.9593
-4325.9497
-4326.3918
-4325.8337
-4327.9408
-4327.2002
-4325.8819
-4326.4237
-4326.488
-4326.4807
-4326.4347
-4326.3847
-4327.5702
-4326.8116
-4325.2836
-4325.8819
-4324.4018
-4324.9167
-4324.9776
-4324.9668
-4324.8973
-4324.7479
-4326.0252
-4326.0263
-4325.8916
-4326.4237
-4324.9167
-4325.4276
-4325.4882
-4325.4774
-4325.4016
-4325.2043
-4326.3575
-4326.1766
-4325.9713
-4326.488
-4324.9776
-4325.4882
-4325.549
-4325.5388
-4325.464
-4325.2644
-4326.4078
-4326.2015
-4325.974
-4326.4807
-4324.9668
-4325.4774
-4325.5388
-4325.5289
-4325.4546
-4325.2555
-4326.3989
-4326.1903
-4325.9593
-4326.4347
-4324.8973
-4325.4016
-4325.464
-4325.4546
-4325.3802
-4325.1809
-4326.324
-4326.1197
-4325.9497
-4326.3847
-4324.7479
-4325.2043
-4325.2644
-4325.2555
-4325.1809
-4324.9811
-4326.1273
-4325.9772
-4326.3918
-4327.5702
-4326.0252
-4326.3575
-4326.4078
-4326.3989
-4326.324
-4326.1273
-4327.3186
-4327.6268
-4325.8337
-4326.8116
-4326.0263
-4326.1766
-4326.2015
-4326.1903
-4326.1197
-4325.9772
-4327.6268
-4325.7943
-4063.7447
-4066.3483
-4063.5587
-4064.2346
-4064.3235
-4064.3252
-4064.3044
-4064.2819
-4064.7696
-4064.1993
-4066.3483
-4065.4964
-4064.1453
-4064.7465
-4064.8179
-4064.8078
-4064.7488
-4064.6689
-4065.9695
-4065.2207
-4063.5587
-4064.1453
-4062.6141
-4063.1853
-4063.2529
-4063.239
-4063.1533
-4062.9583
-4064.3476
-4064.4012
-4064.2346
-4064.7465
-4063.1853
-4063.752
-4063.8192
-4063.8054
-4063.7128
-4063.464
-4064.7152
-4064.567
-4064.3235
-4064.8179
-4063.2529
-4063.8192
-4063.8866
-4063.8735
-4063.7821
-4063.5308
-4064.7711
-4064.5944
-4064.3252
-4064.8078
-4063.239
-4063.8054
-4063.8735
-4063.8607
-4063.7698
-4063.5191
-4064.7593
-4064.5799
-4064.3044
-4064.7488
-4063.1533
-4063.7128
-4063.7821
-4063.7698
-4063.6789
-4063.4277
-4064.6672
-4064.4924
-4064.2819
-4064.6689
-4062.9583
-4063.464
-4063.5308
-4063.5191
-4063.4277
-4063.1756
-4064.4179
-4064.3068
-4064.7696
-4065.9695
-4064.3476
-4064.7152
-4064.7711
-4064.7593
-4064.6672
-4064.4179
-4065.7118
-4066.1541
-4064.1993
-4065.2207
-4064.4012
-4064.567
-4064.5944
-4064.5799
-4064.4924
-4064.3068
-4066.1541
-4064.1678
-3829.5645
-3832.1866
-3829.2951
-3830.0344
-3830.1317
-3830.1322
-3830.1051
-3830.0683
-3830.5921
-3830.0145
-3832.1866
-3831.2394
-3829.8733
-3830.5297
-3830.6075
-3830.5944
-3830.5221
-3830.4103
-3831.8044
-3831.0727
-3829.2951
-3829.8733
-3828.3095
-3828.9329
-3829.0066
-3828.9896
-3828.8876
-3828.6458
-3830.1234
-3830.2273
-3830.0344
-3830.5297
-3828.9329
-3829.5514
-3829.6247
-3829.6078
-3829.4985
-3829.1974
-3830.524
-3830.4075
-3830.1317
-3830.6075
-3829.0066
-3829.6247
-3829.6982
-3829.6821
-3829.5742
-3829.2705
-3830.5851
-3830.4372
-3830.1322
-3830.5944
-3828.9896
-3829.6078
-3829.6821
-3829.6664
-3829.5591
-3829.2558
-3830.5704
-3830.4193
-3830.1051
-3830.5221
-3828.8876
-3829.4985
-3829.5742
-3829.5591
-3829.4516
-3829.1478
-3830.4612
-3830.3148
-3830.0683
-3830.4103
-3828.6458
-3829.1974
-3829.2705
-3829.2558
-3829.1478
-3828.8424
-3830.158
-3830.0845
-3830.5921
-3831.8044
-3830.1234
-3830.524
-3830.5851
-3830.5704
-3830.4612
-3830.158
-3831.5309
-3832.1028
-3830.0145
-3831.0727
-3830.2273
-3830.4075
-3830.4372
-3830.4193
-3830.3148
-3830.0845
-3832.1028
-3829.9935
-3617.653
-3620.2789
-3617.3139
-3618.1114
-3618.2163
-3618.2156
-3618.182
-3618.13
-3618.681
-3618.0991
-3620.2789
-3619.254
-3617.8882
-3618.5951
-3618.6787
-3618.6626
-3618.5769
-3618.4319
-3619.8994
-3619.188
-3617.3139
-3617.8882
-3616.3083
-3616.9795
-3617.0587
-3617.0384
-3616.9206
-3616.6316
-3618.1757
-3618.3244
-3618.1114
-3618.5951
-3616.9795
-3617.6452
-3617.724
-3617.7041
-3617.5784
-3617.2252
-3618.6065
-3618.5178
-3618.2163
-3618.6787
-3617.0587
-3617.724
-3617.803
-3617.784
-3617.6599
-3617.3039
-3618.6724
-3618.5495
-3618.2156
-3618.6626
-3617.0384
-3617.7041
-3617.784
-3617.7653
-3617.6419
-3617.2864
-3618.6548
-3618.5282
-3618.182
-3618.5769
-3616.9206
-3617.5784
-3617.6599
-3617.6419
-3617.5184
-3617.1621
-3618.5287
-3618.407
-3618.13
-3618.4319
-3616.6316
-3617.2252
-3617.3039
-3617.2864
-3617.1621
-3616.8036
-3618.1717
-3618.1312
-3618.681
-3619.8994
-3618.1757
-3618.6065
-3618.6724
-3618.6548
-3618.5287
-3618.1717
-3619.6019
-3620.2947
-3618.0991
-3619.188
-3618.3244
-3618.5178
-3618.5495
-3618.5282
-3618.407
-3618.1312
-3620.2947
-3618.0882
-3423.964
-3426.5824
-3423.5698
-3424.4198
-3424.5316
-3424.5295
-3424.4894
-3424.4216
-3424.9915
-3424.4071
-3426.5824
-3425.498
-3424.1455
-3424.8977
-3424.9864
-3424.9673
-3424.8684
-3424.6896
-3426.2118
-3425.5213
-3423.5698
-3424.1455
-3422.5641
-3423.278
-3423.362
-3423.3386
-3423.2054
-3422.8697
-3424.4604
-3424.6465
-3424.4198
-3424.8977
-3423.278
-3423.9861
-3424.0697
-3424.0468
-3423.9054
-3423.5011
-3424.9184
-3424.8517
-3424.5316
-3424.9864
-3423.362
-3424.0697
-3424.1536
-3424.1316
-3423.9921
-3423.5849
-3424.9885
-3424.8852
-3424.5295
-3424.9673
-3423.3386
-3424.0468
-3424.1316
-3424.1101
-3423.9713
-3423.5646
-3424.9681
-3424.8607
-3424.4894
-3424.8684
-3423.2054
-3423.9054
-3423.9921
-3423.9713
-3423.8323
-3423.4245
-3424.8258
-3424.7231
-3424.4216
-3424.6896
-3422.8697
-3423.5011
-3423.5849
-3423.5646
-3423.4245
-3423.014
-3424.4158
-3424.402
-3424.9915
-3426.2118
-3424.4604
-3424.9184
-3424.9885
-3424.9681
-3424.8258
-3424.4158
-3425.8837
-3426.6857
-3424.4071
-3425.5213
-3424.6465
-3424.8517
-3424.8852
-3424.8607
-3424.7231
-3424.402
-3426.6857
-3424.4039
-3245.3018
-3247.9034
-3244.8675
-3245.7637
-3245.8814
-3245.878
-3245.8315
-3245.7477
-3246.329
-3245.7428
-3247.9034
-3246.7777
-3245.4497
-3246.2416
-3246.3346
-3246.3125
-3246.201
-3245.9884
-3247.5481
-3246.8771
-3244.8675
-3245.4497
-3243.8795
-3244.6309
-3244.719
-3244.6926
-3244.5446
-3244.1637
-3245.7826
-3245.9976
-3245.7637
-3246.2416
-3244.6309
-3245.376
-3245.4637
-3245.438
-3245.2817
-3244.8282
-3246.2645
-3246.2132
-3245.8814
-3246.3346
-3244.719
-3245.4637
-3245.5518
-3245.5271
-3245.3729
-3244.9163
-3246.3384
-3246.2482
-3245.878
-3246.3125
-3244.6926
-3245.438
-3245.5271
-3245.5029
-3245.3495
-3244.8935
-3246.3154
-3246.2206
-3245.8315
-3246.201
-3244.5446
-3245.2817
-3245.3729
-3245.3495
-3245.1958
-3244.7385
-3246.1577
-3246.0674
-3245.7477
-3245.9884
-3244.1637
-3244.8282
-3244.9163
-3244.8935
-3244.7385
-3244.2777
-3245.6962
-3245.7019
-3246.329
-3247.5481
-3245.7826
-3246.2645
-3246.3384
-3246.3154
-3246.1577
-3245.6962
-3247.184
-3248.0822
-3245.7428
-3246.8771
-3245.9976
-3246.2132
-3246.2482
-3246.2206
-3246.0674
-3245.7019
-3248.0822
-3245.7435
-3079.1178
-3081.6949
-3078.6577
-3079.5937
-3079.7164
-3079.7115
-3079.6588
-3079.559
-3080.1451
-3079.5573
-3081.6949
-3080.5454
-3079.2514
-3080.0771
-3080.1737
-3080.1487
-3080.0251
-3079.7795
-3081.3608
-3080.707
-3078.6577
-3079.2514
-3077.7034
-3078.4866
-3078.5782
-3078.5489
-3078.3872
-3077.9629
-3079.5938
-3079.8286
-3079.5937
-3080.0771
-3078.4866
-3079.2633
-3079.3544
-3079.326
-3079.1559
-3078.6557
-3080.096
-3080.053
-3079.7164
-3080.1737
-3078.5782
-3079.3544
-3079.446
-3079.4187
-3079.2509
-3078.7476
-3080.1732
-3080.0893
-3079.7115
-3080.1487
-3078.5489
-3079.326
-3079.4187
-3079.392
-3079.225
-3078.7224
-3080.1477
-3080.0587
-3079.6588
-3080.0251
-3078.3872
-3079.1559
-3079.2509
-3079.225
-3079.0576
-3078.5535
-3079.9755
-3079.8908
-3079.559
-3079.7795
-3077.9629
-3078.6557
-3078.7476
-3078.7224
-3078.5535
-3078.0451
-3079.4652
-3079.4825
-3080.1451
-3081.3608
-3079.5938
-3080.096
-3080.1732
-3080.1477
-3079.9755
-3079.4652
-3080.957
-3081.9369
-3079.5573
-3080.707
-3079.8286
-3080.053
-3080.0893
-3080.0587
-3079.8908
-3079.4825
-3081.9369
-3079.5575
-2923.3626
-2925.9084
-2922.8903
-2923.8591
-2923.9859
-2923.9795
-2923.9209
-2923.8055
-2924.3904
-2923.8009
-2925.9084
-2924.7517
-2923.4994
-2924.3529
-2924.4523
-2924.4246
-2924.2897
-2924.0122
-2925.6009
-2924.9611
-2922.8903
-2923.4994
-2921.9833
-2922.7926
-2922.8869
-2922.855
-2922.6807
-2922.2156
-2923.8437
-2924.0894
-2923.8591
-2924.3529
-2922.7926
-2923.5951
-2923.689
-2923.6581
-2923.4753
-2922.9316
-2924.3626
-2924.3209
-2923.9859
-2924.4523
-2922.8869
-2923.689
-2923.7833
-2923.7536
-2923.5734
-2923.0267
-2924.4425
-2924.3582
-2923.9795
-2924.4246
-2922.855
-2923.6581
-2923.7536
-2923.7246
-2923.5452
-2922.9991
-2924.4147
-2924.3249
-2923.9209
-2924.2897
-2922.6807
-2923.4753
-2923.5734
-2923.5452
-2923.3654
-2922.8175
-2924.2293
-2924.1434
-2923.8055
-2924.0122
-2922.2156
-2922.9316
-2923.0267
-2922.9991
-2922.8175
-2922.2647
-2923.6733
-2923.6946
-2924.3904
-2925.6009
-2923.8437
-2924.3626
-2924.4425
-2924.4147
-2924.2293
-2923.6733
-2925.1549
-2926.2018
-2923.8009
-2924.9611
-2924.0894
-2924.3209
-2924.3582
-2924.3249
-2924.1434
-2923.6946
-2926.2018
-2923.7959
-2776.3766
-2778.8852
-2775.9047
-2776.8992
-2777.0291
-2777.0214
-2776.9573
-2776.8268
-2777.4051
-2776.8138
-2778.8852
-2777.7367
-2776.5325
-2777.4075
-2777.5089
-2777.4787
-2777.3334
-2777.0258
-2778.6087
-2777.98
-2775.9047
-2776.5325
-2775.0564
-2775.886
-2775.9822
-2775.9479
-2775.7622
-2775.2595
-2776.8718
-2777.1197
-2776.8992
-2777.4075
-2775.886
-2776.7084
-2776.8043
-2776.7712
-2776.5771
-2775.9937
-2777.4037
-2777.3566
-2777.0291
-2777.5089
-2775.9822
-2776.8043
-2776.9007
-2776.8689
-2776.6776
-2776.0911
-2777.4858
-2777.3947
-2777.0214
-2777.4787
-2775.9479
-2776.7712
-2776.8689
-2776.8377
-2776.6473
-2776.0615
-2777.4559
-2777.3589
-2776.9573
-2777.3334
-2775.7622
-2776.5771
-2776.6776
-2776.6473
-2776.4563
-2775.8686
-2777.2585
-2777.1651
-2776.8268
-2777.0258
-2775.2595
-2775.9937
-2776.0911
-2776.0615
-2775.8686
-2775.2751
-2776.6604
-2776.6785
-2777.4051
-2778.6087
-2776.8718
-2777.4037
-2777.4858
-2777.4559
-2777.2585
-2776.6604
-2778.1197
-2779.2186
-2776.8138
-2777.98
-2777.1197
-2777.3566
-2777.3947
-2777.3589
-2777.1651
-2776.6785
-2779.2186
-2776.7988
-2636.8092
-2639.2747
-2636.3487
-2637.3619
-2637.4939
-2637.4848
-2637.4157
-2637.271
-2637.838
-2637.245
-2639.2747
-2638.1486
-2636.9974
-2637.8876
-2637.9904
-2637.9578
-2637.8032
-2637.4676
-2639.0331
-2638.4123
-2636.3487
-2636.9974
-2635.5686
-2636.4123
-2636.5099
-2636.4735
-2636.2777
-2635.741
-2637.3259
-2637.568
-2637.3619
-2637.8876
-2636.4123
-2637.2488
-2637.3461
-2637.311
-2637.107
-2636.488
-2637.867
-2637.8087
-2637.4939
-2637.9904
-2636.5099
-2637.3461
-2637.4438
-2637.4101
-2637.2091
-2636.5871
-2637.9506
-2637.8472
-2637.4848
-2637.9578
-2636.4735
-2637.311
-2637.4101
-2637.3771
-2637.177
-2636.5557
-2637.9189
-2637.8092
-2637.4157
-2637.8032
-2636.2777
-2637.107
-2637.2091
-2637.177
-2636.9763
-2636.3528
-2637.711
-2637.6044
-2637.271
-2637.4676
-2635.741
-2636.488
-2636.5871
-2636.5557
-2636.3528
-2635.7229
-2637.075
-2637.0834
-2637.838
-2639.0331
-2637.3259
-2637.867
-2637.9506
-2637.9189
-2637.711
-2637.075
-2638.5012
-2639.6379
-2637.245
-2638.4123
-2637.568
-2637.8087
-2637.8472
-2637.8092
-2637.6044
-2637.0834
-2639.6379
-2637.2156
-2503.5565
-2505.9733
-2503.1172
-2504.1417
-2504.2749
-2504.2646
-2504.1909
-2504.0331
-2504.5848
-2503.9901
-2505.9733
-2504.882
-2503.7879
-2504.6869
-2504.7903
-2504.7557
-2504.5929
-2504.2317
-2505.7695
-2505.1538
-2503.1172
-2503.7879
-2502.4122
-2503.2642
-2503.3624
-2503.3241
-2503.1198
-2502.5531
-2504.1004
-2504.3296
-2504.1417
-2504.6869
-2503.2642
-2504.1088
-2504.2067
-2504.1699
-2503.9575
-2503.3075
-2504.6468
-2504.5722
-2504.2749
-2504.7903
-2503.3624
-2504.2067
-2504.3051
-2504.2698
-2504.0606
-2503.4077
-2504.7314
-2504.6109
-2504.2646
-2504.7557
-2503.3241
-2504.1699
-2504.2698
-2504.2352
-2504.0269
-2503.3747
-2504.6981
-2504.5711
-2504.1909
-2504.5929
-2503.1198
-2503.9575
-2504.0606
-2504.0269
-2503.818
-2503.1634
-2504.4812
-2504.3567
-2504.0331
-2504.2317
-2502.5531
-2503.3075
-2503.4077
-2503.3747
-2503.1634
-2502.5016
-2503.8121
-2503.8051
-2504.5848
-2505.7695
-2504.1004
-2504.6468
-2504.7314
-2504.6981
-2504.4812
-2503.8121
-2505.196
-2506.3566
-2503.9901
-2505.1538
-2504.3296
-2504.5722
-2504.6109
-2504.5711
-2504.3567
-2503.8051
-2506.3566
-2503.9423
-2375.7144
-2378.0769
-2375.3046
-2376.3331
-2376.4666
-2376.4551
-2376.3774
-2376.2077
-2376.7407
-2376.1449
-2378.0769
-2377.0313
-2375.9972
-2376.8988
-2377.002
-2376.9656
-2376.7959
-2376.4119
-2377.9127
-2377.3001
-2375.3046
-2375.9972
-2374.6798
-2375.534
-2375.6321
-2375.5923
-2375.381
-2374.7885
-2376.2896
-2376.4996
-2376.3331
-2376.8988
-2375.534
-2376.3808
-2376.4787
-2376.4405
-2376.2213
-2375.5452
-2376.8375
-2376.7425
-2376.4666
-2377.002
-2375.6321
-2376.4787
-2376.577
-2376.5404
-2376.3246
-2375.6456
-2376.9224
-2376.7811
-2376.4551
-2376.9656
-2375.5923
-2376.4405
-2376.5404
-2376.5045
-2376.2896
-2375.6114
-2376.8878
-2376.7397
-2376.3774
-2376.7959
-2375.381
-2376.2213
-2376.3246
-2376.2896
-2376.0741
-2375.3932
-2376.6636
-2376.5174
-2376.2077
-2376.4119
-2374.7885
-2375.5452
-2375.6456
-2375.6114
-2375.3932
-2374.7046
-2375.9662
-2375.9391
-2376.7407
-2377.9127
-2376.2896
-2376.8375
-2376.9224
-2376.8878
-2376.6636
-2375.9662
-2377.3
-2378.4716
-2376.1449
-2377.3001
-2376.4996
-2376.7425
-2376.7811
-2376.7397
-2376.5174
-2375.9391
-2378.4716
-2376.0753
-2252.5422
-2254.8446
-2252.1686
-2253.1941
-2253.3269
-2253.3143
-2253.2332
-2253.0529
-2253.5643
-2252.9683
-2254.8446
-2253.8541
-2252.8821
-2253.78
-2253.8824
-2253.8445
-2253.6691
-2253.2655
-2254.7212
-2254.11
-2252.1686
-2252.8821
-2251.627
-2252.4776
-2252.575
-2252.5339
-2252.3172
-2251.7035
-2253.151
-2253.3367
-2253.1941
-2253.78
-2252.4776
-2253.3208
-2253.418
-2253.3787
-2253.1545
-2252.4572
-2253.6965
-2253.578
-2253.3269
-2253.8824
-2252.575
-2253.418
-2253.5156
-2253.478
-2253.2572
-2252.5573
-2253.7811
-2253.6163
-2253.3143
-2253.8445
-2252.5339
-2253.3787
-2253.478
-2253.4411
-2253.2213
-2252.5222
-2253.7455
-2253.5736
-2253.2332
-2253.6691
-2252.3172
-2253.1545
-2253.2572
-2253.2213
-2253.0007
-2252.2987
-2253.5157
-2253.345
-2253.0529
-2253.2655
-2251.7035
-2252.4572
-2252.5573
-2252.5222
-2252.2987
-2251.5884
-2252.7952
-2252.7445
-2253.5643
-2254.7212
-2253.151
-2253.6965
-2253.7811
-2253.7455
-2253.5157
-2252.7952
-2254.0726
-2255.2432
-2252.9683
-2254.11
-2253.3367
-2253.578
-2253.6163
-2253.5736
-2253.345
-2252.7445
-2255.2432
-2252.8742
-2133.4342
-2135.6704
-2133.1021
-2134.1174
-2134.2486
-2134.235
-2134.1512
-2133.9618
-2134.4492
-2133.8542
-2135.6704
-2134.7428
-2133.8343
-2134.7224
-2134.8232
-2134.7842
-2134.6044
-2134.1844
-2135.588
-2134.9774
-2133.1021
-2133.8343
-2132.6449
-2133.4861
-2133.5821
-2133.5402
-2133.3197
-2132.6895
-2134.077
-2134.2343
-2134.1174
-2134.7224
-2133.4861
-2134.32
-2134.4158
-2134.3758
-2134.1481
-2133.4351
-2134.6163
-2134.4723
-2134.2486
-2134.8232
-2133.5821
-2134.4158
-2134.5122
-2134.4738
-2134.2496
-2133.5342
-2134.7002
-2134.51
-2134.235
-2134.7842
-2133.5402
-2134.3758
-2134.4738
-2134.4362
-2134.213
-2133.4983
-2134.6639
-2134.4665
-2134.1512
-2134.6044
-2133.3197
-2134.1481
-2134.2496
-2134.213
-2133.9891
-2133.2713
-2134.43
-2134.2332
-2133.9618
-2134.1844
-2132.6895
-2133.4351
-2133.5342
-2133.4983
-2133.2713
-2132.5446
-2133.6919
-2133.6151
-2134.4492
-2135.588
-2134.077
-2134.6163
-2134.7002
-2134.6639
-2134.43
-2133.6919
-2134.9076
-2136.0663
-2133.8542
-2134.9774
-2134.2343
-2134.4723
-2134.51
-2134.4665
-2134.2332
-2133.6151
-2136.0663
-2133.7337
-2017.8972
-2020.061
-2017.6104
-2018.6086
-2018.7373
-2018.7229
-2018.6371
-2018.4401
-2018.9016
-2018.3092
-2020.061
-2019.2027
-2018.3581
-2019.2304
-2019.3291
-2019.2892
-2019.1065
-2018.6736
-2020.019
-2019.4088
-2017.6104
-2018.3581
-2017.2372
-2018.0634
-2018.1574
-2018.1149
-2017.8923
-2017.2505
-2018.5727
-2018.6985
-2018.6086
-2019.2304
-2018.0634
-2018.8824
-2018.9762
-2018.9358
-2018.7063
-2017.983
-2019.1022
-2018.9317
-2018.7373
-2019.3291
-2018.1574
-2018.9762
-2019.0706
-2019.0319
-2018.8059
-2018.0803
-2019.1847
-2018.9685
-2018.7229
-2019.2892
-2018.1149
-2018.9358
-2019.0319
-2018.9939
-2018.769
-2018.044
-2019.148
-2018.9244
-2018.6371
-2019.1065
-2017.8923
-2018.7063
-2018.8059
-2018.769
-2018.5433
-2017.8152
-2018.9119
-2018.6883
-2018.4401
-2018.6736
-2017.2505
-2017.983
-2018.0803
-2018.044
-2017.8152
-2017.0777
-2018.1618
-2018.0572
-2018.9016
-2020.019
-2018.5727
-2019.1022
-2019.1847
-2019.148
-2018.9119
-2018.1618
-2019.3117
-2020.4487
-2018.3092
-2019.4088
-2018.6985
-2018.9317
-2018.9685
-2018.9244
-2018.6883
-2018.0572
-2020.4487
-2018.1611
-1905.5327
-1907.6177
-1905.2936
-1906.268
-1906.3934
-1906.3784
-1906.2911
-1906.0883
-1906.5225
-1905.9346
-1907.6177
-1906.8334
-1906.0528
-1906.9036
-1906.9995
-1906.9591
-1906.7749
-1906.3326
-1907.6147
-1907.0054
-1905.2936
-1906.0528
-1905.0023
-1905.8081
-1905.8995
-1905.8569
-1905.6337
-1904.9854
-1906.2382
-1906.3305
-1906.268
-1906.9036
-1905.8081
-1906.6069
-1906.6981
-1906.6576
-1906.428
-1905.6999
-1906.7542
-1906.5571
-1906.3934
-1906.9995
-1905.8995
-1906.6981
-1906.79
-1906.7512
-1906.5252
-1905.7948
-1906.8347
-1906.5928
-1906.3784
-1906.9591
-1905.8569
-1906.6576
-1906.7512
-1906.7131
-1906.4882
-1905.7585
-1906.7979
-1906.5485
-1906.2911
-1906.7749
-1905.6337
-1906.428
-1906.5252
-1906.4882
-1906.2624
-1905.5294
-1906.5614
-1906.3113
-1906.0883
-1906.3326
-1904.9854
-1905.6999
-1905.7948
-1905.7585
-1905.5294
-1904.7867
-1905.8049
-1905.6722
-1906.5225
-1907.6147
-1906.2382
-1906.7542
-1906.8347
-1906.7979
-1906.5614
-1905.8049
-1906.8859
-1907.9926
-1905.9346
-1907.0054
-1906.3305
-1906.5571
-1906.5928
-1906.5485
-1906.3113
-1905.6722
-1907.9926
-1905.7585
-1796.0228
-1798.0222
-1795.8325
-1796.7766
-1796.8979
-1796.8823
-1796.7944
-1796.5875
-1796.9932
-1796.4122
-1798.0222
-1797.3154
-1796.5983
-1797.4221
-1797.5146
-1797.474
-1797.2897
-1796.8417
-1798.0563
-1797.4491
-1795.8325
-1796.5983
-1795.6198
-1796.3999
-1796.4882
-1796.4457
-1796.2237
-1795.5738
-1796.7538
-1796.8116
-1796.7766
-1797.4221
-1796.3999
-1797.1732
-1797.2614
-1797.2211
-1796.9931
-1796.2655
-1797.2529
-1797.0301
-1796.8979
-1797.5146
-1796.4882
-1797.2614
-1797.3501
-1797.3115
-1797.0872
-1796.3576
-1797.331
-1797.0645
-1796.8823
-1797.474
-1796.4457
-1797.2211
-1797.3115
-1797.2737
-1797.0504
-1796.3214
-1797.2943
-1797.0203
-1796.7944
-1797.2897
-1796.2237
-1796.9931
-1797.0872
-1797.0504
-1796.8262
-1796.0939
-1797.059
-1796.7837
-1796.5875
-1796.8417
-1795.5738
-1796.2655
-1796.3576
-1796.3214
-1796.0939
-1795.3514
-1796.3019
-1796.1416
-1796.9932
-1798.0563
-1796.7538
-1797.2529
-1797.331
-1797.2943
-1797.059
-1796.3019
-1797.3119
-1798.3807
-1796.4122
-1797.4491
-1796.8116
-1797.0301
-1797.0645
-1797.0203
-1796.7837
-1796.1416
-1798.3807
-1796.2084
-1689.1182
-1691.0253
-1688.9766
-1689.8843
-1690.0006
-1689.9847
-1689.8968
-1689.6876
-1690.0642
-1689.4926
-1691.0253
-1690.3981
-1689.7435
-1690.5349
-1690.6235
-1690.5831
-1690.4001
-1689.9501
-1691.0937
-1690.4905
-1688.9766
-1689.7435
-1688.8379
-1689.5874
-1689.6719
-1689.6299
-1689.4108
-1688.7643
-1689.869
-1689.8924
-1689.8843
-1690.5349
-1689.5874
-1690.3303
-1690.4148
-1690.3751
-1690.1504
-1689.4289
-1690.3479
-1690.1013
-1690.0006
-1690.6235
-1689.6719
-1690.4148
-1690.4999
-1690.4619
-1690.2408
-1689.5174
-1690.423
-1690.1341
-1689.9847
-1690.5831
-1689.6299
-1690.3751
-1690.4619
-1690.4245
-1690.2045
-1689.4817
-1690.3868
-1690.0903
-1689.8968
-1690.4001
-1689.4108
-1690.1504
-1690.2408
-1690.2045
-1689.9835
-1689.2573
-1690.1545
-1689.8561
-1689.6876
-1689.9501
-1688.7643
-1689.4289
-1689.5174
-1689.4817
-1689.2573
-1688.5208
-1689.4024
-1689.216
-1690.0642
-1691.0937
-1689.869
-1690.3479
-1690.423
-1690.3868
-1690.1545
-1689.4024
-1690.3401
-1691.3646
-1689.4926
-1690.4905
-1689.8924
-1690.1013
-1690.1341
-1690.0903
-1689.8561
-1689.216
-1691.3646
-1689.2622
-1584.6291
-1586.437
-1584.5351
-1585.4003
-1585.511
-1585.495
-1585.4078
-1585.198
-1585.5451
-1584.9859
-1586.437
-1585.8902
-1585.2968
-1586.0509
-1586.135
-1586.0952
-1585.9149
-1585.4665
-1586.5365
-1585.9398
-1584.5351
-1585.2968
-1584.4645
-1585.1787
-1585.2591
-1585.2179
-1585.0032
-1584.3652
-1585.3929
-1585.3826
-1585.4003
-1586.0509
-1585.1787
-1585.8866
-1585.967
-1585.9281
-1585.7083
-1584.9983
-1585.8484
-1585.5805
-1585.511
-1586.135
-1585.2591
-1585.967
-1586.048
-1586.0107
-1585.7945
-1585.0827
-1585.92
-1585.6115
-1585.495
-1586.0952
-1585.2179
-1585.9281
-1586.0107
-1585.9742
-1585.7589
-1585.0478
-1585.8845
-1585.5685
-1585.4078
-1585.9149
-1585.0032
-1585.7083
-1585.7945
-1585.7589
-1585.5428
-1584.8281
-1585.6568
-1585.3384
-1585.198
-1585.4665
-1584.3652
-1584.9983
-1585.0827
-1585.0478
-1584.8281
-1584.103
-1584.9155
-1584.7052
-1585.5451
-1586.5365
-1585.3929
-1585.8484
-1585.92
-1585.8845
-1585.6568
-1584.9155
-1585.7804
-1586.7552
-1584.9859
-1585.9398
-1585.3826
-1585.5805
-1585.6115
-1585.5685
-1585.3384
-1584.7052
-1586.7552
-1584.7306
-1482.4172
-1484.1188
-1482.3684
-1483.1857
-1483.2901
-1483.274
-1483.1882
-1482.9797
-1483.2972
-1482.7535
-1484.1188
-1483.6521
-1483.1183
-1483.8303
-1483.9095
-1483.8705
-1483.6943
-1483.2514
-1484.2456
-1483.6584
-1482.3684
-1483.1183
-1482.3594
-1483.0338
-1483.1096
-1483.0696
-1482.8609
-1482.2361
-1483.1858
-1483.1436
-1483.1857
-1483.8303
-1483.0338
-1483.7023
-1483.7781
-1483.7404
-1483.527
-1482.8337
-1483.615
-1483.3291
-1483.2901
-1483.9095
-1483.1096
-1483.7781
-1483.8545
-1483.8184
-1483.6085
-1482.9136
-1483.6827
-1483.3581
-1483.274
-1483.8705
-1483.0696
-1483.7404
-1483.8184
-1483.783
-1483.574
-1482.8797
-1483.6481
-1483.3163
-1483.1882
-1483.6943
-1482.8609
-1483.527
-1483.6085
-1483.574
-1483.3642
-1482.6664
-1483.4268
-1483.0919
-1482.9797
-1483.2514
-1482.2361
-1482.8337
-1482.9136
-1482.8797
-1482.6664
-1481.958
-1482.7018
-1482.4705
-1483.2972
-1484.2456