/*--------------------------------*- C++ -*----------------------------------*\
| =========                 |                                                 |
| \\      /  F ield         | OpenFOAM: The Open Source CFD Toolbox           |
|  \\    /   O peration     | Version:  v2106                                 |
|   \\  /    A nd           | Website:  www.openfoam.com                      |
|    \\/     M anipulation  |                                                 |
\*---------------------------------------------------------------------------*/
FoamFile
{
    version     2.0;
    format      ascii;
    arch        "LSB;label=32;scalar=64";
    class       volScalarField;
    location    "35";
    object      T;
}
// * * * * * * * * * * * * * * * * * * * * * * * * * * * * * * * * * * * * * //

dimensions      [0 0 0 1 0 0 0];

internalField   nonuniform List<scalar> 
4000
(
275.33366
275.33367
275.33366
275.33366
275.33366
275.33366
275.33366
275.33366
275.33366
275.33366
275.33367
275.33366
275.33366
275.33366
275.33366
275.33366
275.33366
275.33366
275.33366
275.33366
275.33366
275.33366
275.33365
275.33365
275.33365
275.33365
275.33366
275.33366
275.33366
275.33366
275.33366
275.33366
275.33365
275.33365
275.33366
275.33366
275.33366
275.33366
275.33366
275.33366
275.33366
275.33366
275.33365
275.33366
275.33366
275.33366
275.33366
275.33366
275.33366
275.33366
275.33366
275.33366
275.33365
275.33366
275.33366
275.33366
275.33366
275.33366
275.33366
275.33366
275.33366
275.33366
275.33366
275.33366
275.33366
275.33366
275.33366
275.33366
275.33366
275.33366
275.33366
275.33366
275.33366
275.33366
275.33366
275.33366
275.33366
275.33366
275.33366
275.33366
275.33366
275.33366
275.33366
275.33366
275.33366
275.33366
275.33366
275.33366
275.33366
275.33366
275.33366
275.33366
275.33366
275.33366
275.33366
275.33366
275.33366
275.33366
275.33366
275.33366
284.44905
284.44906
284.44902
284.44903
284.44903
284.44904
284.44904
284.44904
284.44905
284.44905
284.44906
284.44904
284.44902
284.44902
284.44903
284.44903
284.44903
284.44904
284.44905
284.44905
284.44902
284.44902
284.449
284.449
284.44901
284.44901
284.44902
284.44902
284.44903
284.44904
284.44903
284.44902
284.449
284.44901
284.44901
284.44902
284.44902
284.44902
284.44903
284.44904
284.44903
284.44903
284.44901
284.44901
284.44902
284.44902
284.44902
284.44902
284.44903
284.44904
284.44904
284.44903
284.44901
284.44902
284.44902
284.44902
284.44902
284.44903
284.44903
284.44904
284.44904
284.44903
284.44902
284.44902
284.44902
284.44902
284.44903
284.44903
284.44903
284.44904
284.44904
284.44904
284.44902
284.44902
284.44902
284.44903
284.44903
284.44903
284.44903
284.44904
284.44905
284.44905
284.44903
284.44903
284.44903
284.44903
284.44903
284.44903
284.44904
284.44905
284.44905
284.44905
284.44904
284.44904
284.44904
284.44904
284.44904
284.44904
284.44905
284.44906
293.49419
293.49419
293.49415
293.49415
293.49416
293.49417
293.49417
293.49418
293.49419
293.49419
293.49419
293.49417
293.49413
293.49414
293.49415
293.49416
293.49416
293.49417
293.49418
293.49419
293.49415
293.49413
293.49411
293.49412
293.49412
293.49413
293.49413
293.49414
293.49416
293.49417
293.49415
293.49414
293.49412
293.49412
293.49413
293.49414
293.49414
293.49414
293.49416
293.49417
293.49416
293.49415
293.49412
293.49413
293.49414
293.49414
293.49414
293.49415
293.49416
293.49417
293.49417
293.49416
293.49413
293.49414
293.49414
293.49415
293.49415
293.49415
293.49416
293.49417
293.49417
293.49416
293.49413
293.49414
293.49414
293.49415
293.49415
293.49415
293.49416
293.49417
293.49418
293.49417
293.49414
293.49414
293.49415
293.49415
293.49415
293.49415
293.49417
293.49418
293.49419
293.49418
293.49416
293.49416
293.49416
293.49416
293.49416
293.49417
293.49418
293.49419
293.49419
293.49419
293.49417
293.49417
293.49417
293.49417
293.49417
293.49418
293.49419
293.4942
302.46592
302.46592
302.46587
302.46587
302.46588
302.46589
302.4659
302.46591
302.46593
302.46593
302.46592
302.46589
302.46585
302.46586
302.46587
302.46588
302.46589
302.4659
302.46592
302.46593
302.46587
302.46585
302.46582
302.46583
302.46584
302.46585
302.46585
302.46586
302.46589
302.46591
302.46587
302.46586
302.46583
302.46584
302.46585
302.46586
302.46586
302.46587
302.46589
302.46591
302.46588
302.46587
302.46584
302.46585
302.46586
302.46586
302.46587
302.46587
302.46589
302.46591
302.46589
302.46588
302.46585
302.46586
302.46586
302.46587
302.46587
302.46587
302.46589
302.46591
302.4659
302.46589
302.46585
302.46586
302.46587
302.46587
302.46587
302.46587
302.46589
302.46591
302.46591
302.4659
302.46586
302.46587
302.46587
302.46587
302.46587
302.46588
302.4659
302.46592
302.46593
302.46592
302.46589
302.46589
302.46589
302.46589
302.46589
302.4659
302.46592
302.46594
302.46593
302.46593
302.46591
302.46591
302.46591
302.46591
302.46591
302.46592
302.46594
302.46595
311.3613
311.36131
311.36124
311.36125
311.36127
311.36128
311.36128
311.3613
311.36132
311.36132
311.36131
311.36127
311.36123
311.36124
311.36125
311.36126
311.36127
311.36128
311.36131
311.36133
311.36124
311.36123
311.36119
311.3612
311.36122
311.36122
311.36123
311.36124
311.36127
311.3613
311.36125
311.36124
311.3612
311.36122
311.36123
311.36123
311.36124
311.36124
311.36127
311.3613
311.36127
311.36125
311.36122
311.36123
311.36124
311.36124
311.36124
311.36125
311.36128
311.3613
311.36128
311.36126
311.36122
311.36123
311.36124
311.36125
311.36125
311.36125
311.36128
311.3613
311.36128
311.36127
311.36123
311.36124
311.36124
311.36125
311.36125
311.36125
311.36128
311.3613
311.3613
311.36128
311.36124
311.36124
311.36125
311.36125
311.36125
311.36125
311.36128
311.36131
311.36132
311.36131
311.36127
311.36127
311.36128
311.36128
311.36128
311.36128
311.36132
311.36135
311.36132
311.36133
311.3613
311.3613
311.3613
311.3613
311.3613
311.36131
311.36135
311.36136
320.17762
320.17763
320.17756
320.17757
320.17759
320.1776
320.17761
320.17762
320.17765
320.17766
320.17763
320.17759
320.17754
320.17756
320.17757
320.17758
320.17759
320.1776
320.17764
320.17766
320.17756
320.17754
320.1775
320.17752
320.17753
320.17754
320.17754
320.17755
320.1776
320.17763
320.17757
320.17756
320.17752
320.17753
320.17755
320.17755
320.17755
320.17756
320.1776
320.17763
320.17759
320.17757
320.17753
320.17755
320.17756
320.17756
320.17756
320.17757
320.1776
320.17763
320.1776
320.17758
320.17754
320.17755
320.17756
320.17757
320.17757
320.17757
320.1776
320.17763
320.17761
320.17759
320.17754
320.17755
320.17756
320.17757
320.17756
320.17756
320.1776
320.17763
320.17762
320.1776
320.17755
320.17756
320.17757
320.17757
320.17756
320.17757
320.17761
320.17764
320.17765
320.17764
320.1776
320.1776
320.1776
320.1776
320.1776
320.17761
320.17765
320.17769
320.17766
320.17766
320.17763
320.17763
320.17763
320.17763
320.17763
320.17764
320.17769
320.1777
328.91241
328.91242
328.91234
328.91236
328.91238
328.91239
328.9124
328.91242
328.91245
328.91245
328.91242
328.91238
328.91233
328.91234
328.91236
328.91237
328.91238
328.91239
328.91244
328.91246
328.91234
328.91233
328.91228
328.9123
328.91232
328.91233
328.91233
328.91234
328.91239
328.91243
328.91236
328.91234
328.9123
328.91232
328.91233
328.91234
328.91234
328.91234
328.91239
328.91242
328.91238
328.91236
328.91232
328.91233
328.91235
328.91235
328.91235
328.91235
328.91239
328.91242
328.91239
328.91237
328.91233
328.91234
328.91235
328.91236
328.91235
328.91235
328.91239
328.91242
328.9124
328.91238
328.91233
328.91234
328.91235
328.91235
328.91234
328.91235
328.91239
328.91242
328.91242
328.91239
328.91234
328.91234
328.91235
328.91235
328.91235
328.91235
328.91239
328.91243
328.91245
328.91244
328.91239
328.91239
328.91239
328.91239
328.91239
328.91239
328.91244
328.91249
328.91245
328.91246
328.91243
328.91242
328.91242
328.91242
328.91242
328.91243
328.91249
328.9125
337.56346
337.56347
337.56338
337.5634
337.56342
337.56343
337.56344
337.56346
337.56349
337.5635
337.56347
337.56342
337.56336
337.56338
337.5634
337.56341
337.56342
337.56343
337.56349
337.56351
337.56338
337.56336
337.56331
337.56334
337.56336
337.56336
337.56336
337.56337
337.56343
337.56347
337.5634
337.56338
337.56334
337.56336
337.56338
337.56338
337.56338
337.56338
337.56343
337.56347
337.56342
337.5634
337.56336
337.56338
337.56339
337.5634
337.56339
337.56339
337.56344
337.56347
337.56343
337.56341
337.56336
337.56338
337.5634
337.5634
337.56339
337.56339
337.56343
337.56346
337.56344
337.56342
337.56336
337.56338
337.56339
337.56339
337.56338
337.56338
337.56342
337.56346
337.56346
337.56343
337.56337
337.56338
337.56339
337.56339
337.56338
337.56338
337.56343
337.56347
337.56349
337.56349
337.56343
337.56343
337.56344
337.56343
337.56342
337.56343
337.56349
337.56354
337.5635
337.56351
337.56347
337.56347
337.56347
337.56346
337.56346
337.56347
337.56354
337.56355
346.1288
346.12881
346.12872
346.12874
346.12877
346.12878
346.12879
346.1288
346.12884
346.12885
346.12881
346.12876
346.1287
346.12873
346.12875
346.12876
346.12876
346.12878
346.12884
346.12886
346.12872
346.1287
346.12866
346.12868
346.1287
346.12871
346.12871
346.12871
346.12878
346.12882
346.12874
346.12873
346.12868
346.1287
346.12872
346.12873
346.12872
346.12872
346.12878
346.12882
346.12877
346.12875
346.1287
346.12872
346.12874
346.12874
346.12873
346.12873
346.12878
346.12882
346.12878
346.12876
346.12871
346.12873
346.12874
346.12874
346.12873
346.12872
346.12877
346.12881
346.12879
346.12876
346.12871
346.12872
346.12873
346.12873
346.12872
346.12871
346.12876
346.1288
346.1288
346.12878
346.12871
346.12872
346.12873
346.12872
346.12871
346.12871
346.12876
346.12881
346.12884
346.12884
346.12878
346.12878
346.12878
346.12877
346.12876
346.12876
346.12883
346.12889
346.12885
346.12886
346.12882
346.12882
346.12882
346.12881
346.1288
346.12881
346.12889
346.1289
354.60678
354.60679
354.6067
354.60672
354.60675
354.60676
354.60677
354.60678
354.60682
354.60683
354.60679
354.60674
354.60668
354.60671
354.60673
354.60674
354.60674
354.60676
354.60682
354.60684
354.6067
354.60668
354.60663
354.60666
354.60668
354.60669
354.60668
354.60669
354.60675
354.6068
354.60672
354.60671
354.60666
354.60669
354.60671
354.60671
354.6067
354.6067
354.60675
354.6068
354.60675
354.60673
354.60668
354.60671
354.60672
354.60672
354.60671
354.6067
354.60676
354.60679
354.60676
354.60674
354.60669
354.60671
354.60672
354.60672
354.60671
354.6067
354.60675
354.60678
354.60677
354.60674
354.60668
354.6067
354.60671
354.60671
354.60669
354.60668
354.60673
354.60677
354.60678
354.60676
354.60669
354.6067
354.6067
354.6067
354.60668
354.60667
354.60673
354.60678
354.60682
354.60682
354.60675
354.60675
354.60676
354.60675
354.60673
354.60673
354.6068
354.60686
354.60683
354.60684
354.6068
354.6068
354.60679
354.60678
354.60677
354.60678
354.60686
354.60688
362.99601
362.99602
362.99593
362.99595
362.99598
362.99599
362.99599
362.99601
362.99605
362.99605
362.99602
362.99597
362.99591
362.99594
362.99596
362.99597
362.99597
362.99598
362.99604
362.99607
362.99593
362.99591
362.99585
362.99589
362.99591
362.99591
362.99591
362.99591
362.99598
362.99603
362.99595
362.99594
362.99589
362.99591
362.99594
362.99594
362.99592
362.99592
362.99598
362.99602
362.99598
362.99596
362.99591
362.99594
362.99595
362.99595
362.99594
362.99592
362.99598
362.99602
362.99599
362.99597
362.99591
362.99594
362.99595
362.99595
362.99593
362.99592
362.99597
362.99601
362.99599
362.99597
362.99591
362.99592
362.99594
362.99593
362.99591
362.9959
362.99595
362.99599
362.99601
362.99598
362.99591
362.99592
362.99592
362.99592
362.9959
362.99589
362.99595
362.996
362.99605
362.99604
362.99598
362.99598
362.99598
362.99597
362.99595
362.99595
362.99602
362.99609
362.99605
362.99607
362.99603
362.99602
362.99602
362.99601
362.99599
362.996
362.99609
362.9961
371.29538
371.2954
371.2953
371.29533
371.29535
371.29537
371.29537
371.29538
371.29542
371.29543
371.2954
371.29534
371.29528
371.29531
371.29534
371.29535
371.29534
371.29535
371.29542
371.29544
371.2953
371.29528
371.29523
371.29526
371.29529
371.29529
371.29528
371.29528
371.29535
371.2954
371.29533
371.29531
371.29526
371.29529
371.29531
371.29531
371.2953
371.29529
371.29535
371.29539
371.29535
371.29534
371.29529
371.29531
371.29533
371.29533
371.29531
371.29529
371.29535
371.29539
371.29537
371.29535
371.29529
371.29531
371.29533
371.29532
371.2953
371.29528
371.29534
371.29537
371.29537
371.29534
371.29528
371.2953
371.29531
371.2953
371.29528
371.29526
371.29531
371.29535
371.29538
371.29535
371.29528
371.29529
371.29529
371.29528
371.29526
371.29524
371.29531
371.29536
371.29542
371.29542
371.29535
371.29535
371.29535
371.29534
371.29531
371.29531
371.29538
371.29545
371.29543
371.29544
371.2954
371.29539
371.29539
371.29537
371.29535
371.29536
371.29545
371.29546
379.50409
379.50411
379.50401
379.50404
379.50407
379.50408
379.50408
379.50409
379.50413
379.50414
379.50411
379.50406
379.504
379.50403
379.50406
379.50407
379.50406
379.50406
379.50413
379.50416
379.50401
379.504
379.50395
379.50398
379.504
379.50401
379.50399
379.50399
379.50406
379.50411
379.50404
379.50403
379.50398
379.50401
379.50404
379.50403
379.50401
379.504
379.50406
379.5041
379.50407
379.50406
379.504
379.50404
379.50405
379.50405
379.50402
379.504
379.50406
379.5041
379.50408
379.50407
379.50401
379.50403
379.50405
379.50404
379.50401
379.50399
379.50404
379.50408
379.50408
379.50406
379.50399
379.50401
379.50402
379.50401
379.50398
379.50396
379.50402
379.50406
379.50409
379.50406
379.50399
379.504
379.504
379.50399
379.50396
379.50394
379.50401
379.50406
379.50413
379.50413
379.50406
379.50406
379.50406
379.50404
379.50402
379.50401
379.50408
379.50415
379.50414
379.50416
379.50411
379.5041
379.5041
379.50408
379.50406
379.50406
379.50415
379.50416
387.62163
387.62165
387.62155
387.62159
387.62162
387.62163
387.62162
387.62163
387.62167
387.62167
387.62165
387.6216
387.62154
387.62158
387.6216
387.62161
387.6216
387.6216
387.62167
387.62169
387.62155
387.62154
387.62149
387.62153
387.62155
387.62155
387.62153
387.62152
387.6216
387.62165
387.62159
387.62158
387.62153
387.62156
387.62158
387.62158
387.62156
387.62154
387.6216
387.62164
387.62162
387.6216
387.62155
387.62158
387.6216
387.62159
387.62157
387.62154
387.62159
387.62163
387.62163
387.62161
387.62155
387.62158
387.62159
387.62158
387.62155
387.62152
387.62158
387.62161
387.62162
387.6216
387.62153
387.62156
387.62157
387.62155
387.62152
387.62149
387.62154
387.62158
387.62163
387.6216
387.62152
387.62154
387.62154
387.62152
387.62149
387.62147
387.62153
387.62158
387.62167
387.62167
387.6216
387.6216
387.62159
387.62158
387.62154
387.62153
387.62161
387.62168
387.62167
387.62169
387.62165
387.62164
387.62163
387.62161
387.62158
387.62158
387.62168
387.62168
395.64777
395.6478
395.6477
395.64773
395.64776
395.64777
395.64776
395.64777
395.6478
395.64781
395.6478
395.64774
395.64768
395.64772
395.64775
395.64775
395.64774
395.64774
395.6478
395.64783
395.6477
395.64768
395.64763
395.64767
395.6477
395.6477
395.64768
395.64766
395.64773
395.64778
395.64773
395.64772
395.64767
395.64771
395.64773
395.64773
395.6477
395.64767
395.64773
395.64777
395.64776
395.64775
395.6477
395.64773
395.64775
395.64774
395.64771
395.64768
395.64773
395.64777
395.64777
395.64775
395.6477
395.64773
395.64774
395.64773
395.64769
395.64766
395.64771
395.64774
395.64776
395.64774
395.64768
395.6477
395.64771
395.64769
395.64765
395.64762
395.64767
395.64771
395.64777
395.64774
395.64766
395.64767
395.64768
395.64766
395.64762
395.64759
395.64765
395.6477
395.6478
395.6478
395.64773
395.64773
395.64773
395.64771
395.64767
395.64765
395.64773
395.6478
395.64781
395.64783
395.64778
395.64777
395.64777
395.64774
395.64771
395.6477
395.6478
395.64781
403.58258
403.58261
403.58251
403.58254
403.58257
403.58258
403.58257
403.58257
403.5826
403.58261
403.58261
403.58255
403.5825
403.58254
403.58256
403.58257
403.58255
403.58254
403.58261
403.58263
403.58251
403.5825
403.58245
403.58249
403.58251
403.58251
403.58249
403.58247
403.58254
403.58258
403.58254
403.58254
403.58249
403.58253
403.58255
403.58254
403.58251
403.58248
403.58254
403.58258
403.58257
403.58256
403.58251
403.58255
403.58257
403.58255
403.58252
403.58248
403.58253
403.58256
403.58258
403.58257
403.58251
403.58254
403.58255
403.58254
403.5825
403.58246
403.58251
403.58254
403.58257
403.58255
403.58249
403.58251
403.58252
403.5825
403.58245
403.58242
403.58247
403.5825
403.58257
403.58254
403.58247
403.58248
403.58248
403.58246
403.58242
403.58238
403.58244
403.58249
403.5826
403.58261
403.58254
403.58254
403.58253
403.58251
403.58247
403.58244
403.58252
403.58259
403.58261
403.58263
403.58258
403.58258
403.58256
403.58254
403.5825
403.58249
403.58259
403.58259
411.4264
411.42643
411.42633
411.42637
411.4264
411.42641
411.4264
411.42639
411.42642
411.42642
411.42643
411.42638
411.42633
411.42637
411.42639
411.42639
411.42638
411.42637
411.42643
411.42645
411.42633
411.42633
411.42628
411.42632
411.42634
411.42634
411.42631
411.42629
411.42635
411.4264
411.42637
411.42637
411.42632
411.42636
411.42638
411.42637
411.42633
411.4263
411.42635
411.42639
411.4264
411.42639
411.42634
411.42638
411.4264
411.42638
411.42634
411.4263
411.42635
411.42638
411.42641
411.42639
411.42634
411.42637
411.42638
411.42637
411.42632
411.42628
411.42632
411.42635
411.4264
411.42638
411.42631
411.42633
411.42634
411.42632
411.42627
411.42623
411.42628
411.42631
411.42639
411.42637
411.42629
411.4263
411.4263
411.42628
411.42623
411.42619
411.42625
411.42629
411.42642
411.42643
411.42635
411.42635
411.42635
411.42632
411.42628
411.42625
411.42632
411.4264
411.42642
411.42645
411.4264
411.42639
411.42638
411.42635
411.42631
411.42629
411.4264
411.42639
419.17987
419.1799
419.17981
419.17984
419.17987
419.17988
419.17986
419.17985
419.17988
419.17988
419.1799
419.17985
419.1798
419.17984
419.17987
419.17987
419.17985
419.17983
419.17989
419.17991
419.17981
419.1798
419.17975
419.1798
419.17982
419.17981
419.17978
419.17976
419.17982
419.17986
419.17984
419.17984
419.1798
419.17984
419.17986
419.17985
419.17981
419.17977
419.17982
419.17985
419.17987
419.17987
419.17982
419.17986
419.17988
419.17986
419.17981
419.17977
419.17981
419.17984
419.17988
419.17987
419.17981
419.17985
419.17986
419.17984
419.17979
419.17974
419.17978
419.17981
419.17986
419.17985
419.17978
419.17981
419.17981
419.17979
419.17974
419.17969
419.17973
419.17976
419.17985
419.17983
419.17976
419.17977
419.17977
419.17974
419.17969
419.17964
419.1797
419.17974
419.17988
419.17989
419.17982
419.17982
419.17981
419.17978
419.17973
419.1797
419.17977
419.17984
419.17988
419.17991
419.17986
419.17985
419.17984
419.17981
419.17976
419.17974
419.17984
419.17984
426.84389
426.84392
426.84382
426.84386
426.84389
426.84389
426.84388
426.84386
426.84389
426.84389
426.84392
426.84387
426.84382
426.84386
426.84389
426.84389
426.84386
426.84384
426.8439
426.84391
426.84382
426.84382
426.84378
426.84382
426.84385
426.84384
426.8438
426.84377
426.84383
426.84387
426.84386
426.84386
426.84382
426.84386
426.84388
426.84387
426.84382
426.84378
426.84383
426.84386
426.84389
426.84389
426.84385
426.84388
426.8439
426.84388
426.84383
426.84378
426.84382
426.84384
426.84389
426.84389
426.84384
426.84387
426.84388
426.84385
426.8438
426.84375
426.84378
426.84381
426.84388
426.84386
426.8438
426.84382
426.84383
426.8438
426.84375
426.84369
426.84373
426.84376
426.84386
426.84384
426.84377
426.84378
426.84378
426.84375
426.84369
426.84364
426.84369
426.84374
426.84389
426.8439
426.84383
426.84383
426.84382
426.84378
426.84373
426.84369
426.84376
426.84383
426.84389
426.84391
426.84387
426.84386
426.84384
426.84381
426.84376
426.84374
426.84383
426.84382
434.41961
434.41964
434.41956
434.4196
434.41962
434.41962
434.4196
434.41959
434.41961
434.4196
434.41964
434.4196
434.41955
434.4196
434.41962
434.41962
434.41959
434.41957
434.41962
434.41963
434.41956
434.41955
434.41951
434.41956
434.41958
434.41957
434.41953
434.41949
434.41955
434.41959
434.4196
434.4196
434.41956
434.4196
434.41962
434.4196
434.41955
434.41951
434.41955
434.41958
434.41962
434.41962
434.41958
434.41962
434.41963
434.41961
434.41956
434.4195
434.41954
434.41956
434.41962
434.41962
434.41957
434.4196
434.41961
434.41959
434.41953
434.41947
434.4195
434.41952
434.4196
434.41959
434.41953
434.41955
434.41956
434.41953
434.41947
434.41941
434.41945
434.41947
434.41959
434.41957
434.41949
434.41951
434.4195
434.41947
434.41941
434.41936
434.4194
434.41944
434.41961
434.41962
434.41955
434.41955
434.41954
434.4195
434.41945
434.4194
434.41947
434.41954
434.4196
434.41963
434.41959
434.41958
434.41956
434.41952
434.41947
434.41944
434.41954
434.41953
441.90847
441.90851
441.90842
441.90846
441.90849
441.90849
441.90846
441.90844
441.90846
441.90845
441.90851
441.90847
441.90842
441.90847
441.90849
441.90848
441.90845
441.90842
441.90847
441.90848
441.90842
441.90842
441.90838
441.90843
441.90845
441.90844
441.90839
441.90835
441.9084
441.90844
441.90846
441.90847
441.90843
441.90847
441.90849
441.90847
441.90842
441.90837
441.9084
441.90843
441.90849
441.90849
441.90845
441.90849
441.9085
441.90848
441.90842
441.90836
441.90839
441.90841
441.90849
441.90848
441.90844
441.90847
441.90848
441.90845
441.90839
441.90833
441.90835
441.90837
441.90846
441.90845
441.90839
441.90842
441.90842
441.90839
441.90833
441.90826
441.90829
441.90832
441.90844
441.90842
441.90835
441.90837
441.90836
441.90833
441.90826
441.90821
441.90825
441.90828
441.90846
441.90847
441.9084
441.9084
441.90839
441.90835
441.90829
441.90825
441.90831
441.90838
441.90845
441.90848
441.90844
441.90843
441.90841
441.90837
441.90832
441.90828
441.90838
441.90836
449.31213
449.31217
449.31209
449.31213
449.31215
449.31215
449.31212
449.3121
449.31211
449.3121
449.31217
449.31213
449.31209
449.31213
449.31216
449.31215
449.31211
449.31208
449.31212
449.31213
449.31209
449.31209
449.31205
449.3121
449.31212
449.3121
449.31206
449.31201
449.31206
449.31209
449.31213
449.31213
449.3121
449.31214
449.31216
449.31213
449.31208
449.31202
449.31206
449.31208
449.31215
449.31216
449.31212
449.31216
449.31217
449.31214
449.31208
449.31202
449.31204
449.31206
449.31215
449.31215
449.3121
449.31213
449.31214
449.31211
449.31205
449.31198
449.312
449.31202
449.31212
449.31211
449.31206
449.31208
449.31208
449.31205
449.31198
449.31192
449.31194
449.31196
449.3121
449.31208
449.31201
449.31202
449.31202
449.31198
449.31192
449.31185
449.31189
449.31192
449.31211
449.31212
449.31206
449.31206
449.31204
449.312
449.31194
449.31189
449.31195
449.31201
449.3121
449.31213
449.31209
449.31208
449.31206
449.31202
449.31196
449.31192
449.31201
449.31199
456.63249
456.63252
456.63245
456.63249
456.63251
456.63251
456.63248
456.63245
456.63246
456.63245
456.63252
456.63249
456.63245
456.6325
456.63252
456.63251
456.63247
456.63243
456.63247
456.63248
456.63245
456.63245
456.63242
456.63246
456.63248
456.63246
456.63242
456.63237
456.63241
456.63244
456.63249
456.6325
456.63246
456.63251
456.63252
456.6325
456.63244
456.63238
456.63241
456.63243
456.63251
456.63252
456.63248
456.63252
456.63253
456.6325
456.63244
456.63237
456.63239
456.63241
456.63251
456.63251
456.63246
456.6325
456.6325
456.63247
456.6324
456.63233
456.63235
456.63236
456.63248
456.63247
456.63242
456.63244
456.63244
456.6324
456.63234
456.63227
456.63229
456.6323
456.63245
456.63243
456.63237
456.63238
456.63237
456.63233
456.63227
456.6322
456.63223
456.63226
456.63246
456.63247
456.63241
456.63241
456.63239
456.63235
456.63229
456.63223
456.63229
456.63235
456.63245
456.63248
456.63244
456.63243
456.63241
456.63236
456.6323
456.63226
456.63235
456.63233
463.87166
463.8717
463.87163
463.87167
463.87169
463.87168
463.87165
463.87162
463.87163
463.87161
463.8717
463.87167
463.87163
463.87168
463.8717
463.87168
463.87164
463.87161
463.87164
463.87164
463.87163
463.87163
463.8716
463.87165
463.87166
463.87164
463.87159
463.87154
463.87158
463.8716
463.87167
463.87168
463.87165
463.87169
463.8717
463.87167
463.87162
463.87155
463.87158
463.87159
463.87169
463.8717
463.87166
463.8717
463.87171
463.87168
463.87161
463.87154
463.87156
463.87157
463.87168
463.87168
463.87164
463.87167
463.87168
463.87164
463.87158
463.8715
463.87152
463.87153
463.87165
463.87164
463.87159
463.87162
463.87161
463.87158
463.87151
463.87143
463.87145
463.87146
463.87162
463.87161
463.87154
463.87155
463.87154
463.8715
463.87143
463.87137
463.87139
463.87142
463.87163
463.87164
463.87158
463.87158
463.87156
463.87152
463.87145
463.87139
463.87144
463.8715
463.87161
463.87164
463.8716
463.87159
463.87157
463.87153
463.87146
463.87142
463.8715
463.87148
471.03198
471.03201
471.03195
471.03199
471.03201
471.032
471.03196
471.03193
471.03194
471.03192
471.03201
471.03199
471.03195
471.032
471.03201
471.032
471.03196
471.03192
471.03195
471.03195
471.03195
471.03195
471.03193
471.03197
471.03198
471.03196
471.03191
471.03186
471.03189
471.03191
471.03199
471.032
471.03197
471.03201
471.03202
471.03199
471.03193
471.03187
471.03189
471.0319
471.03201
471.03201
471.03198
471.03202
471.03203
471.03199
471.03193
471.03186
471.03187
471.03188
471.032
471.032
471.03196
471.03199
471.03199
471.03196
471.03189
471.03182
471.03183
471.03183
471.03196
471.03196
471.03191
471.03193
471.03193
471.03189
471.03182
471.03174
471.03176
471.03177
471.03193
471.03192
471.03186
471.03187
471.03186
471.03182
471.03174
471.03168
471.0317
471.03172
471.03194
471.03195
471.03189
471.03189
471.03187
471.03183
471.03176
471.0317
471.03174
471.03179
471.03192
471.03195
471.03191
471.0319
471.03188
471.03183
471.03177
471.03172
471.03179
471.03177
478.11596
478.11599
478.11593
478.11597
478.11598
478.11597
478.11594
478.1159
478.11591
478.11589
478.11599
478.11597
478.11594
478.11598
478.11599
478.11598
478.11593
478.11589
478.11592
478.11591
478.11593
478.11594
478.11591
478.11595
478.11597
478.11594
478.11589
478.11584
478.11586
478.11588
478.11597
478.11598
478.11595
478.11599
478.116
478.11597
478.11591
478.11584
478.11586
478.11587
478.11598
478.11599
478.11597
478.116
478.116
478.11597
478.11591
478.11583
478.11584
478.11584
478.11597
478.11598
478.11594
478.11597
478.11597
478.11593
478.11587
478.11579
478.1158
478.1158
478.11594
478.11593
478.11589
478.11591
478.11591
478.11587
478.11579
478.11572
478.11573
478.11573
478.1159
478.11589
478.11584
478.11584
478.11583
478.11579
478.11572
478.11565
478.11566
478.11568
478.11591
478.11592
478.11586
478.11586
478.11584
478.1158
478.11573
478.11566
478.1157
478.11575
478.11589
478.11591
478.11588
478.11587
478.11584
478.1158
478.11573
478.11568
478.11575
478.11573
485.12629
485.12632
485.12627
485.1263
485.12632
485.12631
485.12627
485.12623
485.12623
485.12621
485.12632
485.12631
485.12628
485.12632
485.12633
485.12631
485.12627
485.12622
485.12624
485.12624
485.12627
485.12628
485.12626
485.1263
485.12631
485.12628
485.12623
485.12617
485.12619
485.12621
485.1263
485.12632
485.1263
485.12633
485.12634
485.12631
485.12625
485.12618
485.12619
485.1262
485.12632
485.12633
485.12631
485.12634
485.12634
485.12631
485.12624
485.12617
485.12617
485.12617
485.12631
485.12631
485.12628
485.12631
485.12631
485.12627
485.1262
485.12612
485.12612
485.12612
485.12627
485.12627
485.12623
485.12625
485.12624
485.1262
485.12613
485.12605
485.12606
485.12606
485.12623
485.12622
485.12617
485.12618
485.12617
485.12612
485.12605
485.12598
485.12599
485.12601
485.12623
485.12624
485.12619
485.12619
485.12617
485.12612
485.12606
485.12599
485.12603
485.12607
485.12621
485.12624
485.12621
485.1262
485.12617
485.12612
485.12606
485.12601
485.12607
485.12605
492.06584
492.06588
492.06583
492.06586
492.06587
492.06586
492.06582
492.06578
492.06578
492.06576
492.06588
492.06586
492.06584
492.06587
492.06589
492.06587
492.06582
492.06578
492.06579
492.06579
492.06583
492.06584
492.06582
492.06585
492.06586
492.06584
492.06578
492.06573
492.06574
492.06575
492.06586
492.06587
492.06585
492.06589
492.06589
492.06586
492.0658
492.06573
492.06574
492.06574
492.06587
492.06589
492.06586
492.06589
492.06589
492.06586
492.06579
492.06572
492.06572
492.06572
492.06586
492.06587
492.06584
492.06586
492.06586
492.06582
492.06575
492.06567
492.06567
492.06567
492.06582
492.06582
492.06578
492.0658
492.06579
492.06575
492.06568
492.0656
492.0656
492.0656
492.06578
492.06578
492.06573
492.06573
492.06572
492.06567
492.0656
492.06553
492.06554
492.06555
492.06578
492.06579
492.06574
492.06574
492.06572
492.06567
492.0656
492.06554
492.06557
492.06561
492.06576
492.06579
492.06575
492.06574
492.06572
492.06567
492.0656
492.06555
492.06561
492.06558
498.93762
498.93765
498.93761
498.93764
498.93765
498.93763
498.9376
498.93756
498.93755
498.93753
498.93765
498.93764
498.93762
498.93765
498.93766
498.93764
498.9376
498.93755
498.93756
498.93755
498.93761
498.93762
498.9376
498.93764
498.93764
498.93762
498.93756
498.93751
498.93752
498.93753
498.93764
498.93765
498.93764
498.93767
498.93767
498.93764
498.93758
498.93751
498.93751
498.93751
498.93765
498.93766
498.93764
498.93767
498.93767
498.93763
498.93757
498.9375
498.93749
498.93749
498.93763
498.93764
498.93762
498.93764
498.93763
498.9376
498.93753
498.93745
498.93745
498.93744
498.9376
498.9376
498.93756
498.93758
498.93757
498.93753
498.93746
498.93738
498.93738
498.93738
498.93756
498.93755
498.93751
498.93751
498.9375
498.93745
498.93738
498.93731
498.93732
498.93733
498.93755
498.93756
498.93752
498.93751
498.93749
498.93745
498.93738
498.93732
498.93734
498.93738
498.93753
498.93755
498.93753
498.93751
498.93749
498.93744
498.93738
498.93733
498.93738
498.93735
505.74476
505.74479
505.74475
505.74478
505.74479
505.74477
505.74473
505.74469
505.74468
505.74466
505.74479
505.74478
505.74476
505.74479
505.7448
505.74478
505.74473
505.74469
505.7447
505.74469
505.74475
505.74476
505.74475
505.74478
505.74478
505.74476
505.7447
505.74465
505.74466
505.74466
505.74478
505.74479
505.74478
505.7448
505.74481
505.74477
505.74472
505.74465
505.74465
505.74465