/*--------------------------------*- C++ -*----------------------------------*\
| =========                 |                                                 |
| \\      /  F ield         | OpenFOAM: The Open Source CFD Toolbox           |
|  \\    /   O peration     | Version:  v2106                                 |
|   \\  /    A nd           | Website:  www.openfoam.com                      |
|    \\/     M anipulation  |                                                 |
\*---------------------------------------------------------------------------*/
FoamFile
{
    version     2.0;
    format      ascii;
    arch        "LSB;label=32;scalar=64";
    class       volVectorField;
    location    "47.5";
    object      flux;
}
// * * * * * * * * * * * * * * * * * * * * * * * * * * * * * * * * * * * * * //

dimensions      [0 1 -1 1 0 0 0];

internalField   nonuniform List<vector> 
4000
(
(-6.594674e-07 -6.5946739e-07 0.74442338)
(-3.7471348e-07 -1.2251492e-07 0.74441901)
(8.2211032e-07 -1.8320686e-07 0.74442184)
(3.1598412e-07 -1.8615025e-07 0.74442293)
(1.3656296e-07 -1.8857047e-07 0.74442349)
(-7.26633e-09 -1.9316339e-07 0.74442363)
(-1.0759721e-07 -2.024006e-07 0.74442344)
(-1.3444239e-07 -2.2116528e-07 0.74442305)
(-6.0894367e-08 -2.5113056e-07 0.74442272)
(9.4580316e-10 -2.58143e-07 0.74442283)
(-1.2251492e-07 -3.7471347e-07 0.74441901)
(3.3967732e-07 3.3967732e-07 0.74441802)
(7.2665733e-07 2.4087018e-07 0.74442051)
(3.079387e-07 2.3256855e-07 0.74442158)
(1.2604326e-07 2.2290784e-07 0.74442213)
(-2.8011526e-08 2.0686114e-07 0.74442223)
(-1.4960005e-07 1.7835191e-07 0.74442196)
(-2.0753733e-07 1.2395934e-07 0.74442142)
(-1.1636095e-07 2.6673473e-08 0.74442086)
(-6.0666341e-09 -7.6194154e-08 0.74442102)
(-1.8320686e-07 8.2211032e-07 0.74442184)
(2.4087017e-07 7.2665732e-07 0.74442051)
(7.1500155e-07 7.1500155e-07 0.74442297)
(2.9802177e-07 7.0533408e-07 0.74442401)
(1.1085555e-07 6.9157448e-07 0.74442453)
(-5.1822259e-08 6.7235638e-07 0.74442458)
(-1.9049901e-07 6.445551e-07 0.74442424)
(-2.8612082e-07 6.016988e-07 0.74442356)
(-2.6104786e-07 5.3063408e-07 0.74442271)
(-6.7632615e-08 4.2295191e-07 0.7444224)
(-1.8615025e-07 3.1598411e-07 0.74442293)
(2.3256855e-07 3.0793871e-07 0.74442158)
(7.0533408e-07 2.9802178e-07 0.74442401)
(2.8451163e-07 2.8451163e-07 0.74442503)
(9.306556e-08 2.6795341e-07 0.7444255)
(-7.5030911e-08 2.4798648e-07 0.7444255)
(-2.2025762e-07 2.2356757e-07 0.74442509)
(-3.2145836e-07 1.9436657e-07 0.74442432)
(-2.9510784e-07 1.6319394e-07 0.74442337)
(-7.7854747e-08 1.3954579e-07 0.74442298)
(-1.8857046e-07 1.3656297e-07 0.74442349)
(2.2290784e-07 1.2604326e-07 0.74442213)
(6.9157448e-07 1.1085556e-07 0.74442453)
(2.679534e-07 9.3065561e-08 0.7444255)
(7.4330408e-08 7.4330408e-08 0.74442593)
(-9.6208103e-08 5.5050022e-08 0.74442588)
(-2.4411893e-07 3.4886239e-08 0.7444254)
(-3.4649445e-07 1.4045182e-08 0.74442457)
(-3.1586864e-07 -5.3016934e-09 0.74442355)
(-8.339805e-08 -1.7756691e-08 0.74442312)
(-1.9316339e-07 -7.2663259e-09 0.74442363)
(2.0686114e-07 -2.8011532e-08 0.74442223)
(6.7235638e-07 -5.1822261e-08 0.74442458)
(2.4798649e-07 -7.5030908e-08 0.7444255)
(5.5050021e-08 -9.6208106e-08 0.74442588)
(-1.1447508e-07 -1.1447507e-07 0.74442578)
(-2.6126246e-07 -1.3017013e-07 0.74442526)
(-3.6164629e-07 -1.431735e-07 0.74442438)
(-3.2690971e-07 -1.5273299e-07 0.74442333)
(-8.6158078e-08 -1.5776964e-07 0.74442287)
(-2.024006e-07 -1.0759721e-07 0.74442344)
(1.7835191e-07 -1.4960005e-07 0.74442196)
(6.445551e-07 -1.9049901e-07 0.74442424)
(2.2356756e-07 -2.2025762e-07 0.74442509)
(3.4886243e-08 -2.4411893e-07 0.7444254)
(-1.3017013e-07 -2.6126246e-07 0.74442526)
(-2.7281736e-07 -2.7281735e-07 0.7444247)
(-3.690573e-07 -2.7903034e-07 0.7444238)
(-3.3046477e-07 -2.8003713e-07 0.74442274)
(-8.6755816e-08 -2.7788697e-07 0.74442227)
(-2.2116528e-07 -1.3444239e-07 0.74442305)
(1.2395933e-07 -2.0753733e-07 0.74442142)
(6.016988e-07 -2.8612083e-07 0.74442356)
(1.9436657e-07 -3.2145836e-07 0.74442432)
(1.4045185e-08 -3.4649444e-07 0.74442457)
(-1.431735e-07 -3.6164629e-07 0.74442438)
(-2.7903035e-07 -3.6905731e-07 0.7444238)
(-3.6886607e-07 -3.6886606e-07 0.74442289)
(-3.2576634e-07 -3.6046397e-07 0.74442183)
(-8.472464e-08 -3.4744422e-07 0.74442139)
(-2.5113056e-07 -6.0894365e-08 0.74442272)
(2.6673474e-08 -1.1636094e-07 0.74442086)
(5.3063407e-07 -2.6104786e-07 0.74442271)
(1.6319395e-07 -2.9510784e-07 0.74442337)
(-5.3016872e-09 -3.1586864e-07 0.74442355)
(-1.52733e-07 -3.2690971e-07 0.74442333)
(-2.8003713e-07 -3.3046477e-07 0.74442274)
(-3.6046397e-07 -3.2576634e-07 0.74442183)
(-3.0904293e-07 -3.0904293e-07 0.74442082)
(-7.8075982e-08 -2.796294e-07 0.74442044)
(-2.58143e-07 9.4580481e-10 0.74442283)
(-7.6194154e-08 -6.0666342e-09 0.74442102)
(4.2295191e-07 -6.7632614e-08 0.7444224)
(1.3954579e-07 -7.7854742e-08 0.74442298)
(-1.7756692e-08 -8.3398049e-08 0.74442312)
(-1.5776964e-07 -8.6158079e-08 0.74442287)
(-2.7788698e-07 -8.675581e-08 0.74442227)
(-3.4744423e-07 -8.4724642e-08 0.74442139)
(-2.796294e-07 -7.8075983e-08 0.74442044)
(-6.511562e-08 -6.5115621e-08 0.74442021)
(-2.3923627e-06 -2.3923627e-06 1.1072135)
(-1.1899633e-06 -6.2978306e-07 1.1072096)
(3.4156572e-06 -7.7599434e-07 1.1072127)
(1.5408978e-06 -7.8855159e-07 1.1072142)
(6.5239259e-07 -8.0072878e-07 1.107215)
(-5.8474639e-08 -8.2329638e-07 1.1072152)
(-5.5693076e-07 -8.6920937e-07 1.1072148)
(-6.6918268e-07 -9.6499539e-07 1.1072141)
(-1.4320641e-07 -1.1177225e-06 1.1072136)
(1.0406091e-07 -1.0375137e-06 1.1072143)
(-6.2978305e-07 -1.1899633e-06 1.1072096)
(1.2345892e-06 1.2345892e-06 1.1072086)
(3.1775044e-06 9.7539609e-07 1.1072116)
(1.5037961e-06 9.3452252e-07 1.1072131)
(6.0027541e-07 8.8612296e-07 1.1072138)
(-1.6119553e-07 8.0715545e-07 1.1072139)
(-7.6947928e-07 6.6599026e-07 1.1072135)
(-1.0419524e-06 3.9126624e-07 1.1072125)
(-2.5198387e-07 -1.0542074e-07 1.1072115)
(1.8426971e-07 -4.1545982e-07 1.1072124)
(-7.7599434e-07 3.4156572e-06 1.1072127)
(9.7539609e-07 3.1775044e-06 1.1072116)
(3.1155905e-06 3.1155905e-06 1.1072145)
(1.4516247e-06 3.0642674e-06 1.1072159)
(5.2502552e-07 2.996004e-06 1.1072166)
(-2.7860734e-07 2.9014344e-06 1.1072167)
(-9.7281997e-07 2.7645221e-06 1.1072161)
(-1.4405937e-06 2.5513248e-06 1.1072149)
(-9.4993249e-07 2.1865e-06 1.1072135)
(-1.0263181e-07 1.6688811e-06 1.1072137)
(-7.8855159e-07 1.5408978e-06 1.1072142)
(9.3452252e-07 1.5037961e-06 1.1072131)
(3.0642674e-06 1.4516247e-06 1.1072159)
(1.3842097e-06 1.3842097e-06 1.1072174)
(4.3744237e-07 1.3026624e-06 1.107218)
(-3.9267744e-07 1.2045353e-06 1.107218)
(-1.1195889e-06 1.0846398e-06 1.1072173)
(-1.6199745e-06 9.4109472e-07 1.107216)
(-1.1344275e-06 7.8350116e-07 1.1072144)
(-1.6080954e-07 6.5644443e-07 1.1072145)
(-8.0072878e-07 6.523926e-07 1.107215)
(8.8612297e-07 6.0027542e-07 1.1072138)
(2.996004e-06 5.2502553e-07 1.1072166)
(1.3026624e-06 4.3744237e-07 1.107218)
(3.4535117e-07 3.4535117e-07 1.1072186)
(-4.9662992e-07 2.506052e-07 1.1072185)
(-1.2362606e-06 1.5163765e-07 1.1072177)
(-1.7417324e-06 4.9770702e-08 1.1072163)
(-1.2345828e-06 -4.4265653e-08 1.1072146)
(-1.873363e-07 -1.0368429e-07 1.1072146)
(-8.2329637e-07 -5.8474635e-08 1.1072152)
(8.0715545e-07 -1.6119552e-07 1.1072139)
(2.9014344e-06 -2.7860734e-07 1.1072167)
(1.2045353e-06 -3.9267743e-07 1.107218)
(2.506052e-07 -4.9662992e-07 1.1072185)
(-5.8639095e-07 -5.8639095e-07 1.1072183)
(-1.3204234e-06 -6.6342789e-07 1.1072174)
(-1.8158778e-06 -7.2707395e-07 1.107216)
(-1.2878825e-06 -7.7342499e-07 1.1072142)
(-2.0042196e-07 -7.9681832e-07 1.1072142)
(-8.6920937e-07 -5.5693076e-07 1.1072148)
(6.6599027e-07 -7.6947928e-07 1.1072135)
(2.7645221e-06 -9.7281998e-07 1.1072161)
(1.0846398e-06 -1.1195889e-06 1.1072173)
(1.5163765e-07 -1.2362606e-06 1.1072177)
(-6.6342789e-07 -1.3204234e-06 1.1072174)
(-1.3769436e-06 -1.3769436e-06 1.1072165)
(-1.8517295e-06 -1.4067171e-06 1.107215)
(-1.3043271e-06 -1.4096809e-06 1.1072133)
(-2.0293186e-07 -1.3954052e-06 1.1072133)
(-9.6499539e-07 -6.6918268e-07 1.1072141)
(3.9126625e-07 -1.0419524e-06 1.1072125)
(2.5513248e-06 -1.4405937e-06 1.1072149)
(9.4109472e-07 -1.6199745e-06 1.107216)
(4.9770692e-08 -1.7417324e-06 1.1072163)
(-7.2707395e-07 -1.8158778e-06 1.107216)
(-1.4067171e-06 -1.8517295e-06 1.107215)
(-1.848615e-06 -1.8486151e-06 1.1072136)
(-1.2765706e-06 -1.799629e-06 1.1072118)
(-1.9090485e-07 -1.7160209e-06 1.1072118)
(-1.1177225e-06 -1.4320641e-07 1.1072136)
(-1.0542073e-07 -2.5198387e-07 1.1072115)
(2.1865e-06 -9.4993249e-07 1.1072135)
(7.8350116e-07 -1.1344275e-06 1.1072144)
(-4.4265655e-08 -1.2345828e-06 1.1072146)
(-7.7342499e-07 -1.2878825e-06 1.1072142)
(-1.4096809e-06 -1.3043271e-06 1.1072133)
(-1.799629e-06 -1.2765706e-06 1.1072118)
(-1.171733e-06 -1.171733e-06 1.1072101)
(-1.4719316e-07 -9.3871556e-07 1.1072104)
(-1.0375137e-06 1.0406092e-07 1.1072143)
(-4.1545983e-07 1.8426971e-07 1.1072124)
(1.6688811e-06 -1.0263182e-07 1.1072137)
(6.5644444e-07 -1.6080954e-07 1.1072145)
(-1.0368429e-07 -1.873363e-07 1.1072146)
(-7.9681833e-07 -2.0042196e-07 1.1072142)
(-1.3954052e-06 -2.0293185e-07 1.1072133)
(-1.7160209e-06 -1.9090485e-07 1.1072118)
(-9.3871556e-07 -1.4719316e-07 1.1072104)
(-3.5559882e-08 -3.5559878e-08 1.1072112)
(-3.2330341e-06 -3.2330341e-06 1.1068679)
(-1.1115714e-06 -7.5776388e-07 1.1068656)
(5.4717226e-06 -9.365679e-07 1.1068681)
(2.6207905e-06 -9.5554783e-07 1.1068695)
(1.069983e-06 -9.7690868e-07 1.1068702)
(-2.1507009e-07 -1.0166421e-06 1.1068702)
(-1.1552112e-06 -1.0992234e-06 1.1068697)
(-1.3623004e-06 -1.2852721e-06 1.1068688)
(1.5334712e-07 -1.6379048e-06 1.106868)
(5.0562792e-07 -1.5729845e-06 1.1068691)
(-7.5776389e-07 -1.1115714e-06 1.1068656)
(2.3331277e-06 2.3331277e-06 1.1068652)
(5.1750467e-06 2.0055068e-06 1.1068677)
(2.5602793e-06 1.9380637e-06 1.106869)
(9.7834155e-07 1.851948e-06 1.1068696)
(-3.9854221e-07 1.7115791e-06 1.1068696)
(-1.5581562e-06 1.4595439e-06 1.106869)
(-2.1703225e-06 9.5139923e-07 1.1068679)
(-2.7822139e-07 -4.849545e-08 1.1068665)
(5.7054824e-07 -6.6942805e-07 1.1068676)
(-9.3656791e-07 5.4717226e-06 1.1068681)
(2.0055068e-06 5.1750467e-06 1.1068677)
(5.0766586e-06 5.0766586e-06 1.1068701)
(2.4672317e-06 4.9850987e-06 1.1068714)
(8.4349835e-07 4.8626285e-06 1.106872)
(-6.0747427e-07 4.6930858e-06 1.1068719)
(-1.9153911e-06 4.4486356e-06 1.1068712)
(-2.8703398e-06 4.0712431e-06 1.1068698)
(-1.4674802e-06 3.4212907e-06 1.106868)
(9.1672836e-08 2.5401484e-06 1.1068686)
(-9.5554783e-07 2.6207905e-06 1.1068695)
(1.9380637e-06 2.5602793e-06 1.106869)
(4.9850987e-06 2.4672317e-06 1.1068714)
(2.3462492e-06 2.3462492e-06 1.1068726)
(6.8632867e-07 2.2001046e-06 1.1068732)
(-8.1253512e-07 2.0242372e-06 1.106873)
(-2.179999e-06 1.8091513e-06 1.1068722)
(-3.1976673e-06 1.5514072e-06 1.1068707)
(-1.8093161e-06 1.264729e-06 1.1068688)
(-1.6879953e-08 1.0305667e-06 1.1068691)
(-9.7690869e-07 1.069983e-06 1.1068702)
(1.851948e-06 9.7834155e-07 1.1068696)
(4.8626285e-06 8.4349835e-07 1.106872)
(2.2001046e-06 6.8632868e-07 1.1068732)
(5.2148632e-07 5.2148632e-07 1.1068736)
(-9.9842754e-07 3.5198437e-07 1.1068734)
(-2.388221e-06 1.7514165e-07 1.1068725)
(-3.414762e-06 -6.3846799e-09 1.1068709)
(-1.9883207e-06 -1.7376554e-07 1.1068689)
(-6.4435424e-08 -2.7953129e-07 1.1068692)
(-1.0166421e-06 -2.1507009e-07 1.1068702)
(1.7115791e-06 -3.9854221e-07 1.1068696)
(4.6930858e-06 -6.0747426e-07 1.1068719)
(2.0242372e-06 -8.1253512e-07 1.106873)
(3.5198437e-07 -9.9842754e-07 1.1068734)
(-1.1588798e-06 -1.1588798e-06 1.1068731)
(-2.538368e-06 -1.2962873e-06 1.1068721)
(-3.5465745e-06 -1.4092131e-06 1.1068705)
(-2.0824627e-06 -1.4904015e-06 1.1068684)
(-8.7390452e-08 -1.5300123e-06 1.1068687)
(-1.0992234e-06 -1.1552112e-06 1.1068697)
(1.4595439e-06 -1.5581562e-06 1.106869)
(4.4486356e-06 -1.9153911e-06 1.1068712)
(1.8091513e-06 -2.179999e-06 1.1068722)
(1.7514165e-07 -2.388221e-06 1.1068725)
(-1.2962872e-06 -2.538368e-06 1.1068721)
(-2.6385543e-06 -2.6385543e-06 1.1068711)
(-3.6088763e-06 -2.6894436e-06 1.1068694)
(-2.10912e-06 -2.6886609e-06 1.1068673)
(-9.0842651e-08 -2.6521469e-06 1.1068676)
(-1.2852721e-06 -1.3623004e-06 1.1068688)
(9.5139923e-07 -2.1703225e-06 1.1068679)
(4.0712431e-06 -2.8703398e-06 1.1068698)
(1.5514072e-06 -3.1976673e-06 1.1068707)
(-6.3846784e-09 -3.414762e-06 1.1068709)
(-1.4092131e-06 -3.5465745e-06 1.1068705)
(-2.6894436e-06 -3.6088763e-06 1.1068694)
(-3.5966811e-06 -3.5966811e-06 1.1068678)
(-2.045166e-06 -3.4833467e-06 1.1068657)
(-6.3047797e-08 -3.2591193e-06 1.106866)
(-1.6379048e-06 1.5334711e-07 1.106868)
(-4.8495447e-08 -2.7822138e-07 1.1068665)
(3.4212907e-06 -1.4674802e-06 1.106868)
(1.264729e-06 -1.8093161e-06 1.1068688)
(-1.7376554e-07 -1.9883207e-06 1.1068689)
(-1.4904015e-06 -2.0824627e-06 1.1068684)
(-2.6886609e-06 -2.10912e-06 1.1068673)
(-3.4833467e-06 -2.045166e-06 1.1068657)
(-1.7715582e-06 -1.7715582e-06 1.1068637)
(5.8642244e-08 -8.8301836e-07 1.1068642)
(-1.5729845e-06 5.0562792e-07 1.1068691)
(-6.6942806e-07 5.7054824e-07 1.1068676)
(2.5401484e-06 9.167283e-08 1.1068686)
(1.0305667e-06 -1.6879949e-08 1.1068691)
(-2.7953128e-07 -6.4435419e-08 1.1068692)
(-1.5300124e-06 -8.7390444e-08 1.1068687)
(-2.6521469e-06 -9.0842652e-08 1.1068676)
(-3.2591193e-06 -6.3047795e-08 1.106866)
(-8.8301836e-07 5.8642244e-08 1.1068642)
(5.2931211e-07 5.2931211e-07 1.1068662)
(-3.9408872e-06 -3.9408872e-06 1.1063338)
(-9.6873402e-07 -8.7027228e-07 1.1063317)
(7.3086869e-06 -1.0834075e-06 1.1063341)
(3.5527637e-06 -1.1092699e-06 1.1063353)
(1.3644525e-06 -1.1398055e-06 1.1063358)
(-5.0402359e-07 -1.1960739e-06 1.1063358)
(-1.9424806e-06 -1.31269e-06 1.1063351)
(-2.3784798e-06 -1.5814807e-06 1.106334)
(8.7324946e-08 -2.1240669e-06 1.1063329)
(8.0341797e-07 -2.0288133e-06 1.1063337)
(-8.7027228e-07 -9.6873401e-07 1.1063317)
(3.3174852e-06 3.3174852e-06 1.1063314)
(6.9501905e-06 2.9188686e-06 1.1063337)
(3.4681667e-06 2.8239811e-06 1.1063348)
(1.2342464e-06 2.7001731e-06 1.1063353)
(-7.6335041e-07 2.4995365e-06 1.1063352)
(-2.5205907e-06 2.1410455e-06 1.1063345)
(-3.5955451e-06 1.4126486e-06 1.1063332)
(-5.8367389e-07 -7.209522e-08 1.1063315)
(8.9867158e-07 -9.080942e-07 1.1063324)
(-1.0834075e-06 7.3086869e-06 1.1063341)
(2.9188686e-06 6.9501905e-06 1.1063337)
(6.8151827e-06 6.8151827e-06 1.1063358)
(3.3340682e-06 6.6831799e-06 1.106337)
(1.040008e-06 6.5067247e-06 1.1063375)
(-1.0631512e-06 6.2628519e-06 1.1063373)
(-3.0293685e-06 5.9120215e-06 1.1063364)
(-4.5916207e-06 5.3734827e-06 1.1063349)
(-2.2334179e-06 4.4424484e-06 1.1063328)
(2.4608529e-07 3.2278938e-06 1.1063332)
(-1.1092699e-06 3.5527637e-06 1.1063353)
(2.8239811e-06 3.4681667e-06 1.1063348)
(6.6831799e-06 3.3340682e-06 1.106337)
(3.1597086e-06 3.1597086e-06 1.1063381)
(8.1391852e-07 2.9495486e-06 1.1063385)
(-1.3580535e-06 2.6969416e-06 1.1063382)
(-3.40996e-06 2.3881008e-06 1.1063373)
(-5.0651183e-06 2.0183746e-06 1.1063356)
(-2.7292627e-06 1.6042418e-06 1.1063334)
(8.8968515e-08 1.2663707e-06 1.1063336)
(-1.1398055e-06 1.3644526e-06 1.1063358)
(2.7001731e-06 1.2342464e-06 1.1063353)
(6.5067247e-06 1.040008e-06 1.1063375)
(2.9495486e-06 8.1391852e-07 1.1063385)
(5.7724096e-07 5.7724096e-07 1.1063388)
(-1.624599e-06 3.3415323e-07 1.1063385)
(-3.7079356e-06 8.0904877e-08 1.1063375)
(-5.3754797e-06 -1.7836444e-07 1.1063357)
(-2.9854218e-06 -4.1722124e-07 1.1063334)
(2.0837849e-08 -5.681217e-07 1.1063336)
(-1.1960739e-06 -5.040236e-07 1.1063358)
(2.4995365e-06 -7.6335043e-07 1.1063352)
(6.2628519e-06 -1.0631512e-06 1.1063373)
(2.6969417e-06 -1.3580536e-06 1.1063382)
(3.3415324e-07 -1.624599e-06 1.1063385)
(-1.8543896e-06 -1.8543896e-06 1.1063381)
(-3.9224777e-06 -2.050659e-06 1.106337)
(-5.5632444e-06 -2.2111665e-06 1.1063352)
(-3.11902e-06 -2.3256193e-06 1.1063328)
(-1.1631797e-08 -2.3807249e-06 1.106333)
(-1.31269e-06 -1.9424806e-06 1.1063351)
(2.1410455e-06 -2.5205907e-06 1.1063345)
(5.9120215e-06 -3.0293685e-06 1.1063364)
(2.3881008e-06 -3.40996e-06 1.1063373)
(8.0904891e-08 -3.7079356e-06 1.1063375)
(-2.050659e-06 -3.9224777e-06 1.106337)
(-4.0647125e-06 -4.0647125e-06 1.1063358)
(-5.6504399e-06 -4.1350806e-06 1.106334)
(-3.1549802e-06 -4.1293433e-06 1.1063316)
(-1.5899261e-08 -4.0708056e-06 1.1063318)
(-1.5814807e-06 -2.3784798e-06 1.106334)
(1.4126486e-06 -3.5955451e-06 1.1063332)
(5.3734827e-06 -4.5916207e-06 1.1063349)
(2.0183746e-06 -5.0651183e-06 1.1063356)
(-1.7836443e-07 -5.3754797e-06 1.1063357)
(-2.2111665e-06 -5.5632444e-06 1.1063352)
(-4.1350806e-06 -5.6504399e-06 1.106334)
(-5.6278752e-06 -5.6278752e-06 1.1063322)
(-3.0547449e-06 -5.4479177e-06 1.1063298)
(2.7393365e-08 -5.068156e-06 1.10633)
(-2.1240669e-06 8.732495e-08 1.1063329)
(-7.2095225e-08 -5.8367388e-07 1.1063315)
(4.4424484e-06 -2.2334179e-06 1.1063328)
(1.6042418e-06 -2.7292627e-06 1.1063334)
(-4.1722123e-07 -2.9854218e-06 1.1063334)
(-2.3256193e-06 -3.11902e-06 1.1063328)
(-4.1293433e-06 -3.1549802e-06 1.1063316)
(-5.4479177e-06 -3.0547449e-06 1.1063298)
(-2.5952609e-06 -2.5952609e-06 1.1063275)
(2.3727522e-07 -7.5486108e-07 1.106328)
(-2.0288133e-06 8.0341797e-07 1.1063337)
(-9.080942e-07 8.9867159e-07 1.1063324)
(3.2278938e-06 2.460853e-07 1.1063332)
(1.2663707e-06 8.8968518e-08 1.1063336)
(-5.681217e-07 2.0837853e-08 1.1063336)
(-2.3807249e-06 -1.1631792e-08 1.106333)
(-4.0708056e-06 -1.5899257e-08 1.1063318)
(-5.068156e-06 2.739336e-08 1.10633)
(-7.5486108e-07 2.3727521e-07 1.106328)
(1.2543266e-06 1.2543266e-06 1.1063302)
(-4.595358e-06 -4.595358e-06 1.1056151)
(-8.1377177e-07 -9.7024411e-07 1.1056132)
(9.0135967e-06 -1.221356e-06 1.1056154)
(4.3612698e-06 -1.2552507e-06 1.1056165)
(1.5413383e-06 -1.2952171e-06 1.1056169)
(-9.1451818e-07 -1.367939e-06 1.1056168)
(-2.8695881e-06 -1.5180504e-06 1.105616)
(-3.5754567e-06 -1.8673392e-06 1.1056148)
(-1.9322906e-07 -2.5954106e-06 1.1056135)
(1.0277052e-06 -2.4551098e-06 1.1056141)
(-9.7024411e-07 -8.1377176e-07 1.1056132)
(4.2472307e-06 4.2472308e-06 1.1056129)
(8.5860869e-06 3.7692877e-06 1.105615)
(4.2504781e-06 3.6441758e-06 1.1056161)
(1.3723058e-06 3.4821955e-06 1.1056165)
(-1.2487682e-06 3.2219082e-06 1.1056163)
(-3.6186885e-06 2.7588407e-06 1.1056154)
(-5.1914969e-06 1.8158554e-06 1.105614)
(-1.0748849e-06 -1.4302122e-07 1.1056121)
(1.168006e-06 -1.1560099e-06 1.1056128)
(-1.221356e-06 9.0135967e-06 1.1056154)
(3.7692877e-06 8.5860869e-06 1.105615)
(8.4105416e-06 8.4105417e-06 1.1056171)
(4.0741776e-06 8.2367055e-06 1.1056181)
(1.1190707e-06 8.006377e-06 1.1056185)
(-1.637873e-06 7.6893201e-06 1.1056182)
(-4.275641e-06 7.2342761e-06 1.1056172)
(-6.4773188e-06 6.5386104e-06 1.1056156)
(-3.1650944e-06 5.3323112e-06 1.1056133)
(3.5237938e-07 3.8038378e-06 1.1056136)
(-1.2552507e-06 4.3612698e-06 1.1056165)
(3.6441758e-06 4.2504781e-06 1.1056161)
(8.2367055e-06 4.0741776e-06 1.1056181)
(3.8463135e-06 3.8463135e-06 1.1056191)
(8.2492041e-07 3.5728247e-06 1.1056194)
(-2.0208691e-06 3.2448629e-06 1.105619)
(-4.7693982e-06 2.8443575e-06 1.105618)
(-7.0934617e-06 2.3656825e-06 1.1056162)
(-3.8096573e-06 1.8272197e-06 1.1056138)
(1.490237e-07 1.3902547e-06 1.1056139)
(-1.2952171e-06 1.5413383e-06 1.1056169)
(3.4821955e-06 1.3723058e-06 1.1056165)
(8.006377e-06 1.1190707e-06 1.1056185)
(3.5728247e-06 8.2492041e-07 1.1056194)
(5.1762007e-07 5.1762008e-07 1.1056196)
(-2.3663402e-06 2.0249672e-07 1.1056192)
(-5.1548214e-06 -1.252428e-07 1.105618)
(-7.4944565e-06 -4.5990388e-07 1.1056162)
(-4.1405223e-06 -7.6790409e-07 1.1056137)
(6.1069328e-08 -9.6211514e-07 1.1056137)
(-1.367939e-06 -9.1451818e-07 1.1056168)
(3.2219082e-06 -1.2487682e-06 1.1056163)
(7.6893201e-06 -1.637873e-06 1.1056182)
(3.2448629e-06 -2.0208691e-06 1.105619)
(2.0249672e-07 -2.3663402e-06 1.1056192)
(-2.6637319e-06 -2.6637319e-06 1.1056187)
(-5.4317988e-06 -2.9170126e-06 1.1056175)
(-7.736123e-06 -3.1230765e-06 1.1056155)
(-4.3118686e-06 -3.2688506e-06 1.105613)
(1.9549673e-08 -3.3381851e-06 1.105613)
(-1.5180504e-06 -2.8695881e-06 1.105616)
(2.7588407e-06 -3.6186885e-06 1.1056154)
(7.2342761e-06 -4.275641e-06 1.1056172)
(2.8443574e-06 -4.7693982e-06 1.105618)
(-1.2524279e-07 -5.1548214e-06 1.105618)
(-2.9170126e-06 -5.4317987e-06 1.1056175)
(-5.614166e-06 -5.614166e-06 1.1056162)
(-7.8462945e-06 -5.702018e-06 1.1056143)
(-4.3556309e-06 -5.6897632e-06 1.1056117)
(1.4846347e-08 -5.6094356e-06 1.1056117)
(-1.8673392e-06 -3.5754567e-06 1.1056148)
(1.8158554e-06 -5.1914969e-06 1.105614)
(6.5386104e-06 -6.4773188e-06 1.1056156)
(2.3656825e-06 -7.0934617e-06 1.1056162)
(-4.5990387e-07 -7.4944565e-06 1.1056162)
(-3.1230765e-06 -7.736123e-06 1.1056155)
(-5.702018e-06 -7.8462945e-06 1.1056143)
(-7.8117203e-06 -7.8117202e-06 1.1056123)
(-4.2192861e-06 -7.5660339e-06 1.1056098)
(7.3101458e-08 -7.0375672e-06 1.1056099)
(-2.5954106e-06 -1.9322906e-07 1.1056135)
(-1.4302122e-07 -1.0748849e-06 1.1056121)
(5.3323113e-06 -3.1650944e-06 1.1056133)
(1.8272197e-06 -3.8096573e-06 1.1056138)
(-7.6790409e-07 -4.1405223e-06 1.1056137)
(-3.2688506e-06 -4.3118686e-06 1.105613)
(-5.6897632e-06 -4.3556309e-06 1.1056117)
(-7.5660339e-06 -4.2192862e-06 1.1056098)
(-3.5814779e-06 -3.5814779e-06 1.1056074)
(3.6715747e-07 -7.1726168e-07 1.1056077)
(-2.4551098e-06 1.0277052e-06 1.1056141)
(-1.1560099e-06 1.168006e-06 1.1056128)
(3.8038378e-06 3.5237938e-07 1.1056136)
(1.3902547e-06 1.4902371e-07 1.1056139)
(-9.6211514e-07 6.1069333e-08 1.1056137)
(-3.3381851e-06 1.9549673e-08 1.105613)
(-5.6094356e-06 1.4846344e-08 1.1056117)
(-7.0375672e-06 7.3101448e-08 1.1056099)
(-7.1726167e-07 3.6715747e-07 1.1056077)
(1.982579e-06 1.982579e-06 1.1056098)
(-5.1975422e-06 -5.1975422e-06 1.1047189)
(-6.3334636e-07 -1.0488801e-06 1.1047172)
(1.0614121e-05 -1.3392977e-06 1.1047193)
(5.0669035e-06 -1.3819739e-06 1.1047203)
(1.6153865e-06 -1.4314819e-06 1.1047206)
(-1.4295873e-06 -1.5203545e-06 1.1047203)
(-3.9068797e-06 -1.7031427e-06 1.1047195)
(-4.8941704e-06 -2.1308844e-06 1.1047182)
(-6.1774226e-07 -3.0409158e-06 1.1047168)
(1.1991823e-06 -2.8572191e-06 1.1047172)
(-1.0488801e-06 -6.3334635e-07 1.1047172)
(5.1540198e-06 5.1540198e-06 1.104717)
(1.0114481e-05 4.5927592e-06 1.104719)
(4.9286272e-06 4.4354429e-06 1.1047199)
(1.4078156e-06 4.2351469e-06 1.1047202)
(-1.8370784e-06 3.9163674e-06 1.1047199)
(-4.8226746e-06 3.3514317e-06 1.104719)
(-6.90083e-06 2.199817e-06 1.1047174)
(-1.7072442e-06 -2.225518e-07 1.1047155)
(1.3828789e-06 -1.4045048e-06 1.1047161)
(-1.3392977e-06 1.0614121e-05 1.1047193)
(4.5927592e-06 1.0114481e-05 1.104719)
(9.8955445e-06 9.8955445e-06 1.1047209)
(4.7092912e-06 9.678787e-06 1.1047218)
(1.096311e-06 9.3949398e-06 1.1047221)
(-2.3133025e-06 9.0062358e-06 1.1047217)
(-5.6234302e-06 8.4498131e-06 1.1047207)
(-8.4681542e-06 7.601901e-06 1.1047189)
(-4.222064e-06 6.128024e-06 1.1047166)
(4.1121364e-07 4.2990607e-06 1.1047167)
(-1.3819739e-06 5.0669035e-06 1.1047203)
(4.4354429e-06 4.9286272e-06 1.1047199)
(9.678787e-06 4.7092912e-06 1.1047218)
(4.4280225e-06 4.4280224e-06 1.1047227)
(7.3526441e-07 4.0921628e-06 1.1047229)
(-2.782205e-06 3.6905803e-06 1.1047225)
(-6.2270094e-06 3.2009422e-06 1.1047213)
(-9.222619e-06 2.6167668e-06 1.1047195)
(-5.0100843e-06 1.9577805e-06 1.104717)
(1.6357007e-07 1.4258132e-06 1.104717)
(-1.4314819e-06 1.6153865e-06 1.1047206)
(4.2351469e-06 1.4078156e-06 1.1047202)
(9.3949398e-06 1.096311e-06 1.1047221)
(4.0921628e-06 7.3526442e-07 1.1047229)
(3.588689e-07 3.588689e-07 1.104723)
(-3.2045231e-06 -2.6434261e-08 1.1047225)
(-6.6972438e-06 -4.2647567e-07 1.1047213)
(-9.7113159e-06 -8.3401425e-07 1.1047194)
(-5.4130176e-06 -1.2087236e-06 1.1047168)
(5.6568732e-08 -1.44444e-06 1.1047167)
(-1.5203545e-06 -1.4295873e-06 1.1047203)
(3.9163674e-06 -1.8370784e-06 1.1047199)
(9.0062358e-06 -2.3133025e-06 1.1047217)
(3.6905803e-06 -2.782205e-06 1.1047225)
(-2.6434266e-08 -3.2045231e-06 1.1047225)
(-3.5675496e-06 -3.5675496e-06 1.1047219)
(-7.0345894e-06 -3.875931e-06 1.1047206)
(-1.0004867e-05 -4.1256829e-06 1.1047186)
(-5.62051e-06 -4.3011253e-06 1.104716)
(6.4258126e-09 -4.3835566e-06 1.1047159)
(-1.7031427e-06 -3.9068797e-06 1.1047195)
(3.3514317e-06 -4.8226746e-06 1.104719)
(8.4498131e-06 -5.6234302e-06 1.1047207)
(3.2009422e-06 -6.2270094e-06 1.1047213)
(-4.2647566e-07 -6.6972438e-06 1.1047213)
(-3.875931e-06 -7.0345894e-06 1.1047206)
(-7.2553771e-06 -7.2553771e-06 1.1047193)
(-1.013651e-05 -7.3592373e-06 1.1047173)
(-5.6708912e-06 -7.3393463e-06 1.1047147)
(1.614556e-09 -7.2368084e-06 1.1047146)
(-2.1308844e-06 -4.8941704e-06 1.1047182)
(2.1998169e-06 -6.90083e-06 1.1047174)
(7.601901e-06 -8.4681542e-06 1.1047189)
(2.6167668e-06 -9.222619e-06 1.1047195)
(-8.3401425e-07 -9.7113159e-06 1.1047194)
(-4.1256829e-06 -1.0004867e-05 1.1047186)
(-7.3592373e-06 -1.013651e-05 1.1047173)
(-1.0088836e-05 -1.0088836e-05 1.1047153)
(-5.4980811e-06 -9.7780235e-06 1.1047127)
(7.4784391e-08 -9.1070243e-06 1.1047126)
(-3.0409158e-06 -6.1774227e-07 1.1047168)
(-2.2255181e-07 -1.7072442e-06 1.1047155)
(6.1280241e-06 -4.222064e-06 1.1047166)
(1.9577805e-06 -5.0100843e-06 1.104717)
(-1.2087236e-06 -5.4130176e-06 1.1047168)
(-4.3011253e-06 -5.62051e-06 1.104716)
(-7.3393463e-06 -5.6708912e-06 1.1047147)
(-9.7780235e-06 -5.4980811e-06 1.1047127)
(-4.6890794e-06 -4.6890794e-06 1.1047102)
(4.4894735e-07 -8.0118148e-07 1.1047104)
(-2.8572191e-06 1.1991823e-06 1.1047172)
(-1.4045048e-06 1.382879e-06 1.1047161)
(4.2990607e-06 4.1121365e-07 1.1047167)
(1.4258132e-06 1.6357007e-07 1.104717)
(-1.44444e-06 5.6568735e-08 1.1047167)
(-4.3835566e-06 6.4258087e-09 1.1047159)
(-7.2368084e-06 1.6145511e-09 1.1047146)
(-9.1070243e-06 7.4784387e-08 1.1047126)
(-8.0118148e-07 4.4894735e-07 1.1047104)
(2.6667165e-06 2.6667165e-06 1.1047123)
(-5.7432953e-06 -5.7432953e-06 1.1036533)
(-4.1840408e-07 -1.1027272e-06 1.1036518)
(1.2120493e-05 -1.4324898e-06 1.1036538)
(5.6849393e-06 -1.4843409e-06 1.1036547)
(1.6035946e-06 -1.5433665e-06 1.1036549)
(-2.0279983e-06 -1.6479607e-06 1.1036546)
(-5.0258906e-06 -1.8623634e-06 1.1036537)
(-6.2974667e-06 -2.3660705e-06 1.1036523)
(-1.1529268e-06 -3.4535343e-06 1.1036508)
(1.3261716e-06 -3.2323571e-06 1.1036511)
(-1.1027272e-06 -4.1840407e-07 1.1036518)
(6.0478035e-06 6.0478035e-06 1.1036516)
(1.1548073e-05 5.4021293e-06 1.1036535)
(5.5186242e-06 5.2115769e-06 1.1036544)
(1.3581649e-06 4.9732495e-06 1.1036546)
(-2.5064937e-06 4.5975251e-06 1.1036543)
(-6.1030553e-06 3.9340625e-06 1.1036533)
(-8.6842229e-06 2.5808489e-06 1.1036516)
(-2.4523565e-06 -2.9169386e-07 1.1036496)
(1.5473489e-06 -1.6421077e-06 1.1036501)
(-1.4324898e-06 1.2120493e-05 1.1036538)
(5.4021293e-06 1.1548073e-05 1.1036535)
(1.1284267e-05 1.1284267e-05 1.1036554)
(5.2560594e-06 1.1024184e-05 1.1036562)
(9.8954282e-07 1.0687603e-05 1.1036564)
(-3.0671853e-06 1.0229186e-05 1.103656)
(-7.042567e-06 9.5747052e-06 1.1036548)
(-1.0523223e-05 8.5800358e-06 1.1036531)
(-5.3758835e-06 6.8477966e-06 1.1036507)
(4.2589568e-07 4.730368e-06 1.1036507)
(-1.4843409e-06 5.6849393e-06 1.1036547)
(5.2115769e-06 5.5186242e-06 1.1036544)
(1.1024184e-05 5.2560594e-06 1.1036562)
(4.9219604e-06 4.9219604e-06 1.103657)
(5.6316696e-07 4.5250754e-06 1.1036571)
(-3.6193913e-06 4.0519725e-06 1.1036566)
(-7.7522055e-06 3.4761106e-06 1.1036554)
(-1.1411131e-05 2.790202e-06 1.1036535)
(-6.302024e-06 2.014964e-06 1.103651)
(1.3572983e-07 1.3917799e-06 1.1036509)
(-1.5433665e-06 1.6035946e-06 1.1036549)
(4.9732495e-06 1.3581649e-06 1.1036546)
(1.0687603e-05 9.8954282e-07 1.1036564)
(4.5250754e-06 5.6316696e-07 1.1036571)
(1.1955489e-07 1.1955488e-07 1.1036572)
(-4.1161502e-06 -3.3377983e-07 1.1036566)
(-8.3043375e-06 -8.0370782e-07 1.1036553)
(-1.198437e-05 -1.2815022e-06 1.1036534)
(-6.7743054e-06 -1.7204556e-06 1.1036508)
(1.0439647e-08 -1.9960141e-06 1.1036506)
(-1.6479607e-06 -2.0279983e-06 1.1036546)
(4.5975251e-06 -2.5064937e-06 1.1036543)
(1.0229186e-05 -3.0671853e-06 1.103656)
(4.0519725e-06 -3.6193913e-06 1.1036566)
(-3.3377983e-07 -4.1161502e-06 1.1036566)
(-4.542654e-06 -4.542654e-06 1.1036559)
(-8.6999279e-06 -4.9042148e-06 1.1036546)
(-1.2327879e-05 -5.1960189e-06 1.1036526)
(-7.0165358e-06 -5.3999384e-06 1.1036499)
(-4.7975811e-08 -5.4948479e-06 1.1036497)
(-1.8623635e-06 -5.0258906e-06 1.1036537)
(3.9340625e-06 -6.1030553e-06 1.1036533)
(9.5747052e-06 -7.042567e-06 1.1036548)
(3.4761106e-06 -7.7522055e-06 1.1036554)
(-8.0370781e-07 -8.3043375e-06 1.1036553)
(-4.9042147e-06 -8.6999279e-06 1.1036546)
(-8.9577024e-06 -8.9577024e-06 1.1036532)
(-1.2480094e-05 -9.0768577e-06 1.1036512)
(-7.0731344e-06 -9.0494344e-06 1.1036485)
(-5.2833354e-08 -8.9253093e-06 1.1036483)
(-2.3660705e-06 -6.2974667e-06 1.1036523)
(2.5808489e-06 -8.6842229e-06 1.1036516)
(8.5800358e-06 -1.0523223e-05 1.1036531)
(2.790202e-06 -1.1411131e-05 1.1036535)
(-1.2815022e-06 -1.198437e-05 1.1036534)
(-5.1960189e-06 -1.2327879e-05 1.1036526)
(-9.0768577e-06 -1.2480094e-05 1.1036512)
(-1.2419611e-05 -1.2419611e-05 1.1036491)
(-6.8649875e-06 -1.2046111e-05 1.1036465)
(3.477426e-08 -1.1239212e-05 1.1036463)
(-3.4535343e-06 -1.1529268e-06 1.1036508)
(-2.9169386e-07 -2.4523565e-06 1.1036496)
(6.8477966e-06 -5.3758835e-06 1.1036507)
(2.014964e-06 -6.302024e-06 1.103651)
(-1.7204556e-06 -6.7743054e-06 1.1036508)
(-5.3999384e-06 -7.0165358e-06 1.1036499)
(-9.0494344e-06 -7.0731344e-06 1.1036485)
(-1.2046111e-05 -6.8649875e-06 1.1036465)
(-5.8927353e-06 -5.8927353e-06 1.103644)
(4.8509919e-07 -1.0053258e-06 1.103644)
(-3.2323571e-06 1.3261716e-06 1.1036511)
(-1.6421077e-06 1.5473489e-06 1.1036501)
(4.730368e-06 4.2589568e-07 1.1036507)
(1.3917799e-06 1.3572982e-07 1.1036509)
(-1.9960141e-06 1.0439646e-08 1.1036506)
(-5.4948479e-06 -4.797581e-08 1.1036497)
(-8.9253093e-06 -5.2833358e-08 1.1036483)
(-1.1239212e-05 3.4774259e-08 1.1036463)
(-1.0053258e-06 4.8509919e-07 1.103644)
(3.2930474e-06 3.2930474e-06 1.1036458)
(-6.2289458e-06 -6.2289458e-06 1.1024274)
(-1.6482991e-07 -1.130572e-06 1.1024261)
(1.3535499e-05 -1.4990314e-06 1.102428)
(6.2261572e-06 -1.5602266e-06 1.1024288)
(1.5213798e-06 -1.6286306e-06 1.102429)
(-2.6894448e-06 -1.7484108e-06 1.1024286)
(-6.2010418e-06 -1.9931751e-06 1.1024276)
(-7.7563396e-06 -2.5699057e-06 1.1024262)
(-1.7770956e-06 -3.8290889e-06 1.1024247)
(1.4131867e-06 -3.577229e-06 1.1024249)