/*--------------------------------*- C++ -*----------------------------------*\
| =========                 |                                                 |
| \\      /  F ield         | OpenFOAM: The Open Source CFD Toolbox           |
|  \\    /   O peration     | Version:  v2106                                 |
|   \\  /    A nd           | Website:  www.openfoam.com                      |
|    \\/     M anipulation  |                                                 |
\*---------------------------------------------------------------------------*/
FoamFile
{
    version     2.0;
    format      ascii;
    arch        "LSB;label=32;scalar=64";
    class       volScalarField;
    location    "47.5";
    object      gradTy;
}
// * * * * * * * * * * * * * * * * * * * * * * * * * * * * * * * * * * * * * //

dimensions      [0 -1 0 1 0 0 0];

internalField   nonuniform List<scalar> 
4000
(
-0.00051714223
-9.6073952e-05
-0.00014366746
-0.00014597561
-0.0001478735
-0.00015147518
-0.00015871884
-0.00017343376
-0.00019693198
-0.00020243101
-0.00029384343
0.00026636873
0.00018888598
0.00018237599
0.00017480024
0.00016221672
0.0001398603
9.7206641e-05
2.0916848e-05
-5.9750058e-05
0.00064468383
0.00056983135
0.0005606911
0.00055311004
0.00054232002
0.00052724954
0.00050544828
0.00047184116
0.00041611351
0.00033167113
0.00024778894
0.00024147989
0.00023370321
0.0002231088
0.00021012415
0.00019446645
0.00017531758
0.0001524187
0.00012797369
0.00010942925
0.00010709017
9.8840812e-05
8.6930894e-05
7.2980306e-05
5.8288543e-05
4.3169217e-05
2.7357149e-05
1.1013974e-05
-4.1574907e-06
-1.3924471e-05
-5.6981195e-06
-2.1966129e-05
-4.0638066e-05
-5.8837862e-05
-7.5444632e-05
-8.9769253e-05
-0.00010207703
-0.00011227403
-0.00011977041
-0.00012372005
-8.4375755e-05
-0.00011731361
-0.00014938583
-0.00017272199
-0.00019143358
-0.00020487723
-0.00021393836
-0.00021881048
-0.00021959998
-0.00021791387
-0.00010542726
-0.00016274697
-0.0002243707
-0.00025208175
-0.00027171458
-0.00028359639
-0.00028940797
-0.000289258
-0.00028266924
-0.00027245939
-4.7752244e-05
-9.1248119e-05
-0.00020470894
-0.00023141815
-0.00024769839
-0.0002563566
-0.00025914441
-0.00025545999
-0.0002423458
-0.00021928025
7.4168279e-07
-4.7573433e-06
-5.3036256e-05
-6.1052261e-05
-6.5399221e-05
-6.7563585e-05
-6.8032315e-05
-6.6439511e-05
-6.1225754e-05
-5.1062476e-05
-0.0018634014
-0.00049053543
-0.00060441877
-0.00061419955
-0.00062368431
-0.00064126212
-0.00067702356
-0.0007516309
-0.00087058941
-0.00080811511
-0.00092685747
0.00096161646
0.00075973198
0.00072789571
0.0006901975
0.00062869003
0.00051873705
0.00030475566
-8.2111777e-05
-0.00032359994
0.0026604412
0.002474945
0.0024267205
0.0023867451
0.0023335751
0.0022599152
0.0021532748
0.0019872163
0.0017030558
0.0012998846
0.0012001989
0.0011713006
0.0011306644
0.0010781552
0.0010146383
0.00093820754
0.00084482144
0.00073301476
0.0006102658
0.00051130183
0.00050814588
0.00046755203
0.0004089402
0.00034072203
0.00026899258
0.00019519534
0.00011810994
3.8766192e-05
-3.4478333e-05
-8.0759259e-05
-4.554565e-05
-0.00012555452
-0.0002170061
-0.00030585481
-0.00038682297
-0.00045673746
-0.00051674121
-0.00056631487
-0.00060241751
-0.00062063848
-0.00043379105
-0.00059934422
-0.00075772543
-0.00087204309
-0.00096291822
-0.0010284722
-0.0010724956
-0.0010956861
-0.0010979946
-0.0010868753
-0.00052122361
-0.00081157237
-0.0011220724
-0.0012617914
-0.0013566281
-0.0014143796
-0.0014423044
-0.0014398786
-0.0014017235
-0.0013366016
-0.00011154288
-0.00019626919
-0.00073989847
-0.00088360088
-0.00096161138
-0.0010031263
-0.001015935
-0.00099431557
-0.000912658
-0.00073116167
8.1052617e-05
0.00014352691
-7.9939498e-05
-0.00012525388
-0.00014591546
-0.00015610783
-0.00015806278
-0.000148695
-0.00011464814
-2.7697442e-05
-0.0025014524
-0.00058629457
-0.00072463819
-0.00073932326
-0.00075585051
-0.00078659295
-0.00085048746
-0.00099443645
-0.0012672742
-0.0012170443
-0.00086004138
0.0018051799
0.0015516941
0.0014995122
0.001432883
0.0013242772
0.0011292734
0.00073611344
-3.7521739e-05
-0.00051794764
0.004233563
0.0040040199
0.0039278953
0.0038570538
0.0037622965
0.0036311185
0.0034419833
0.0031499885
0.0026471096
0.0019653551
0.0020277492
0.0019809308
0.0019089382
0.001815332
0.0017022575
0.0015661859
0.0013997704
0.0012003496
0.00097854192
0.00079736658
0.00082786367
0.00075695915
0.0006526287
0.0005310239
0.00040348262
0.00027233615
0.00013551
-4.939933e-06
-0.00013444529
-0.00021627801
-0.00016640331
-0.00030835874
-0.00047001293
-0.00062867192
-0.00077249997
-0.00089664454
-0.001002959
-0.0010903316
-0.0011531485
-0.001183796
-0.00089380616
-0.0012055714
-0.0014819699
-0.0016867014
-0.0018478063
-0.0019639775
-0.0020414933
-0.0020808672
-0.0020802617
-0.0020520103
-0.0010540345
-0.0016792147
-0.0022208296
-0.0024740884
-0.0026420582
-0.0027440437
-0.0027922476
-0.0027828121
-0.0026951234
-0.002521635
0.00011864722
-0.00021526452
-0.0011354139
-0.0013998979
-0.0015383968
-0.001611236
-0.0016318613
-0.0015823791
-0.0013706842
-0.00068320604
0.00039121274
0.00044144268
7.0928796e-05
-1.3060297e-05
-4.9854756e-05
-6.7615442e-05
-7.0286473e-05
-4.878113e-05
4.5372483e-05
0.00040953761
-0.0030291291
-0.00066892738
-0.00083275188
-0.00085263076
-0.00087610168
-0.00091935195
-0.0010089879
-0.0012155916
-0.0016326458
-0.0015594299
-0.00074460914
0.0025499568
0.0022435634
0.0021706288
0.0020754649
0.0019212473
0.0016456963
0.0010858203
-5.5415375e-05
-0.00069799884
0.0056177596
0.0053422045
0.0052384317
0.0051369686
0.0050013378
0.0048138871
0.0045442244
0.0041302813
0.0034146499
0.0024810929
0.0027308013
0.0026657766
0.0025627028
0.0024286828
0.002267145
0.0020729809
0.0018355931
0.0015514062
0.0012330867
0.00097338495
0.0010487747
0.00094869293
0.00079939315
0.00062561144
0.00044369127
0.00025684399
6.2186835e-05
-0.00013709829
-0.00032069352
-0.00043668187
-0.00038741341
-0.00058674276
-0.00081718203
-0.0010438561
-0.0012487339
-0.0014253606
-0.0015762214
-0.0016995941
-0.0017875673
-0.0018299238
-0.001493071
-0.0019374305
-0.002328498
-0.0026210363
-0.0028500727
-0.0030149786
-0.0031243062
-0.0031783942
-0.0031739844
-0.0031289898
-0.0018281981
-0.002763685
-0.0035293098
-0.0038932596
-0.0041318162
-0.0042761399
-0.0043431621
-0.0043258181
-0.0041874954
-0.0038955948
6.7121575e-05
-0.00044863594
-0.0017166975
-0.0020978244
-0.0022947188
-0.0023974079
-0.0024250485
-0.0023480036
-0.0019948252
-0.00058021754
0.00061754032
0.00069075623
0.00018915135
6.8384888e-05
1.6016837e-05
-8.9406774e-06
-1.2220828e-05
2.1055672e-05
0.00018237957
0.00096412746
-0.0035093259
-0.00074094402
-0.00093270999
-0.0009585942
-0.00098911527
-0.0010446506
-0.0011592859
-0.0014260264
-0.0019820309
-0.0018748877
-0.00062145116
0.0032434727
0.0028784829
0.0027829389
0.0026592397
0.0024604668
0.0021068372
0.0013867099
-0.00010922067
-0.0008828073
0.0068833916
0.0065569163
0.0064228577
0.0062901045
0.00611421
0.005872084
0.0055245818
0.0049933246
0.0040721133
0.0029048676
0.0033305602
0.0032459523
0.0031113171
0.0029373046
0.00272845
0.0024779963
0.0021721434
0.001806595
0.0013953885
0.0010616924
0.00117707
0.0010479854
0.00085459793
0.0006299649
0.00039528962
0.00015464016
-9.5643856e-05
-0.00035121366
-0.00058642345
-0.00073473613
-0.00069838785
-0.00095364374
-0.0012507904
-0.001543272
-0.0018070971
-0.0020342055
-0.0022276278
-0.0023849922
-0.0024963153
-0.0025492637
-0.0021914114
-0.002763475
-0.0032651682
-0.0036422344
-0.0039365696
-0.0041480882
-0.0042873562
-0.0043544462
-0.0043450878
-0.0042837442
-0.0027304603
-0.0039645779
-0.0049465182
-0.0054170464
-0.0057232731
-0.005907826
-0.0059919606
-0.0059655576
-0.0057779352
-0.0053743623
-0.00014756277
-0.00082085477
-0.00241708
-0.0029093118
-0.0031619826
-0.0032928342
-0.0033262542
-0.0032221323
-0.0027350588
-0.00054774955
0.00078482513
0.00089196835
0.00026910071
0.00011380457
4.6636669e-05
1.4929451e-05
1.1337672e-05
5.5825209e-05
0.00028038628
0.0015140314
-0.0039438565
-0.00079588254
-0.0010162492
-0.0010486315
-0.0010861978
-0.0011536336
-0.001292332
-0.0016168993
-0.0023074244
-0.0021680367
-0.00048057856
0.0039108324
0.0034849517
0.0033655812
0.003213598
0.0029717105
0.0025430415
0.0016692048
-0.00016887067
-0.0010657279
0.0080539167
0.0076747933
0.0075086655
0.0073441912
0.0071288099
0.0068338643
0.006411655
0.0057682659
0.0046498993
0.0032620954
0.0038447287
0.0037398058
0.0035733749
0.0033599502
0.0031051024
0.0028003846
0.002428851
0.0019855831
0.0014855494
0.0010818965
0.0012257433
0.00106824
0.00083187259
0.00055791311
0.00027230702
-2.0058118e-05
-0.00032360654
-0.00063284379
-0.00091717051
-0.0010960304
-0.0010847602
-0.0013939614
-0.0017553166
-0.0021111163
-0.002431568
-0.0027070298
-0.0029410274
-0.0031305374
-0.003263662
-0.0033262103
-0.0029645112
-0.0036594097
-0.0042670169
-0.0047250081
-0.0050818184
-0.0053377937
-0.005505326
-0.0055841346
-0.0055690418
-0.0054912369
-0.0037136602
-0.0052362988
-0.0064255724
-0.0069980545
-0.0073688741
-0.0075916185
-0.0076915086
-0.0076553344
-0.0074194925
-0.0069103432
-0.00046873827
-0.0012954443
-0.003203671
-0.0038016148
-0.0041073576
-0.0042648014
-0.0043030304
-0.0041719036
-0.0035580393
-0.00060793066
0.00090993066
0.0010493183
0.00031202587
0.00012411576
4.2923937e-05
4.875856e-06
1.2251094e-06
5.6745844e-05
0.00034065797
0.0020234849
-0.004330525
-0.00083147184
-0.0010801173
-0.0011192137
-0.0011637199
-0.0012425854
-0.001404248
-0.0017840503
-0.0026040133
-0.0024372425
-0.00031548255
0.004560129
0.0040732812
0.0039296018
0.0037498996
0.0034665982
0.0029663381
0.0019459963
-0.00021994127
-0.0012381723
0.0091390215
0.0087074087
0.0085084944
0.0083123881
0.0080586011
0.0077129485
0.0072194611
0.0064694669
0.0051633347
0.0035667638
0.0042865236
0.0041611198
0.0039631419
0.0037112265
0.0034119697
0.0030552435
0.0026210357
0.0021038512
0.0015193111
0.0010494216
0.0012091327
0.0010240753
0.00074612905
0.0004246357
9.014604e-05
-0.00025167462
-0.00060600687
-0.00096627053
-0.0012972476
-0.0015050226
-0.001529139
-0.0018899313
-0.0023127004
-0.0027290713
-0.0031036343
-0.0034252242
-0.0036978462
-0.0039178708
-0.0040716293
-0.0041431924
-0.0037895917
-0.0046017891
-0.0053101936
-0.0058452708
-0.0062615859
-0.0065598667
-0.0067542325
-0.0068440777
-0.0068234007
-0.0067298086
-0.004748378
-0.0065480258
-0.0079346574
-0.0086041522
-0.0090363821
-0.009295393
-0.0094101652
-0.0093645612
-0.0090829374
-0.0084745242
-0.00086932298
-0.0018491113
-0.0040534915
-0.0047518144
-0.0051079211
-0.0052905664
-0.0053332427
-0.0051762973
-0.0044432058
-0.00075802988
0.00099995197
0.0011667228
0.00032113131
0.00010234219
7.8716391e-06
-3.6174433e-05
-3.9837094e-05
2.6220281e-05
0.00036577165
0.0024830042
-0.0046675322
-0.00084717092
-0.0011232683
-0.0011691236
-0.0012203807
-0.0013101355
-0.0014935446
-0.0019257059
-0.002869249
-0.0026805229
-0.0001235119
0.0051928839
0.0046462206
0.0044782679
0.0042716997
0.0039489253
0.0033808597
0.0022218842
-0.00025578484
-0.0013940307
0.010142547
0.0096596182
0.0094279311
0.0092007406
0.0089099435
0.0085159651
0.0079549214
0.0071042176
0.005620595
0.0038273699
0.0046654423
0.0045197737
0.0042909215
0.004001786
0.0036599827
0.0032537436
0.0027600961
0.0021729963
0.0015085385
0.00097614483
0.0011400145
0.00092849666
0.00061067192
0.00024372122
-0.0001373705
-0.0005262063
-0.00092871208
-0.0013372946
-0.0017124219
-0.0019475229
-0.0020152799
-0.0024250258
-0.0029061198
-0.0033800479
-0.0038060064
-0.0041713894
-0.0044806791
-0.0047296998
-0.0049031331
-0.004983354
-0.0046466227
-0.0055699782
-0.0063736638
-0.0069817257
-0.0074544111
-0.007792814
-0.0080127214
-0.0081132808
-0.0080877569
-0.0079796761
-0.0058120533
-0.0078756098
-0.0094486978
-0.010209936
-0.010700255
-0.010993646
-0.011122709
-0.011068681
-0.010744764
-0.010044105
-0.00133163
-0.0024638555
-0.0049475448
-0.0057407032
-0.0061443963
-0.0063509315
-0.0063980505
-0.0062173267
-0.005373474
-0.00098867111
0.0010589423
0.0012476685
0.00030011179
5.2185106e-05
-5.4817346e-05
-0.0001045489
-0.00010829796
-3.2495005e-05
0.00035880773
0.0028907069
-0.0049539851
-0.0008434196
-0.0011458095
-0.0011983565
-0.0012561086
-0.0013561458
-0.0015599682
-0.0020413263
-0.0031018271
-0.0028964918
9.5099725e-05
0.0058073631
0.0052028419
0.0050110138
0.004778677
0.004418605
0.0037868606
0.0024978237
-0.00027363381
-0.0015296964
0.011065187
0.010532782
0.010268838
0.010011474
0.0096853481
0.0092456942
0.008621129
0.0076760414
0.0060260891
0.0040491865
0.0049881745
0.0048227258
0.0045640096
0.0042392359
0.0038570178
0.0034040073
0.0028544032
0.0022016438
0.0014621701
0.00087119692
0.0010290237
0.00079233972
0.00043661484
2.6560172e-05
-0.0003986138
-0.00083182983
-0.0012797404
-0.0017338119
-0.0021504888
-0.0024112875
-0.0025290729
-0.0029848622
-0.0035208892
-0.0040490814
-0.0045235039
-0.004930208
-0.005274151
-0.0055506688
-0.0057428914
-0.0058314975
-0.0055184656
-0.0065462365
-0.007439247
-0.0081158893
-0.0086416104
-0.0090178713
-0.0092620713
-0.0093731962
-0.0093438505
-0.009222894
-0.0068861285
-0.0091989168
-0.010946623
-0.011793957
-0.012338856
-0.012664705
-0.012807596
-0.012746484
-0.012384335
-0.011599047
-0.0018419044
-0.0031246526
-0.0058694244
-0.0067515075
-0.0071998713
-0.0074289832
-0.0074806999
-0.0072786809
-0.0063332622
-0.0012890543
0.0010898604
0.0012951956
0.0002524853
-2.2739476e-05
-0.00014149679
-0.00019660527
-0.00020056754
-0.00011596762
0.0003229579
0.0032468376
-0.0051897897
-0.00082128378
-0.0011485377
-0.0012076239
-0.0012715585
-0.0013812079
-0.001603998
-0.0021311112
-0.0033012164
-0.0030843564
0.00033814826
0.0064000264
0.0057402441
0.0055252208
0.0052684236
0.004873454
0.0041824975
0.002772673
-0.00027289462
-0.0016434018
0.011905811
0.011326301
0.011031005
0.010744676
0.010385162
0.0099027451
0.0092190152
0.0081863284
0.0063820787
0.0042354498
0.0052593511
0.0050748198
0.0047875306
0.0044289766
0.004008731
0.0035119384
0.002910126
0.0021962541
0.0013870113
0.00074164617
0.00088480934
0.0006244333
0.00023304261
-0.00021749797
-0.00068399563
-0.0011587485
-0.0016491077
-0.0021456691
-0.0026011432
-0.0028859234
-0.0030584939
-0.0035571531
-0.00414442
-0.0047233
-0.005243025
-0.005688412
-0.0060648867
-0.0063673473
-0.0065774572
-0.0066741825
-0.0063903873
-0.0075152421
-0.0084911683
-0.0092316589
-0.0098068526
-0.010218579
-0.010485788
-0.010607379
-0.010575351
-0.010443266
-0.0079546587
-0.010500486
-0.012410051
-0.013337423
-0.013933166
-0.014289458
-0.014445736
-0.014379021
-0.01398299
-0.01312111
-0.002388329
-0.0038181968
-0.0068044038
-0.0077690753
-0.0082590117
-0.0085093296
-0.0085658469
-0.008345217
-0.0073079358
-0.0016482805
0.0010952484
0.0013121084
0.00018157695
-0.00011897749
-0.00024866648
-0.00030883095
-0.00031314995
-0.00022077446
0.00026143665
0.0035523291
-0.0053754942
-0.00078224727
-0.0011326967
-0.0011980966
-0.0012678508
-0.0013863835
-0.0016265891
-0.0021957534
-0.0034674281
-0.0032437956
0.00060211499
0.0069663113
0.0062544269
0.0060171323
0.0057373725
0.005310117
0.0045647406
0.0030440691
-0.00025431298
-0.0017346545
0.012662253
0.012038479
0.011713074
0.011399252
0.011008526
0.010486511
0.0097482893
0.0086352415
0.0066895516
0.0043880866
0.005482138
0.0052794069
0.0049650835
0.0045748585
0.0041192148
0.0035818746
0.0029318727
0.0021617402
0.001288328
0.00059303598
0.00071439224
0.00043196195
7.3769871e-06
-0.00048077972
-0.00098560692
-0.001498837
-0.0020284827
-0.0025643364
-0.0030556733
-0.0033626068
-0.0035932928
-0.0041314003
-0.0047659246
-0.0053916367
-0.0059532667
-0.0064345125
-0.0068412533
-0.0071679955
-0.0073950182
-0.0074995605
-0.0072495691
-0.008463624
-0.009515617
-0.010314893
-0.010935751
-0.011380392
-0.011669235
-0.01180116
-0.011767605
-0.011626181
-0.0090035563
-0.011764815
-0.01382261
-0.014823552
-0.015466155
-0.015850743
-0.016019919
-0.015949114
-0.01552368
-0.014593532
-0.0029601905
-0.0045322538
-0.0077389141
-0.0087794087
-0.0093076184
-0.0095776791
-0.0096391833
-0.0094027004
-0.0082836014
-0.0020556276
0.0010774937
0.0013011261
9.059933e-05
-0.00023318383
-0.00037292872
-0.00043780615
-0.00044262359
-0.00034352332
0.00017747509
0.0038084592
-0.0055121666
-0.00072807992
-0.0010998364
-0.0011712572
-0.0012464219
-0.0013730545
-0.0016290262
-0.002236299
-0.0036008852
-0.0033748601
0.00088261199
0.0075011073
0.0067407957
0.0064823761
0.0061813253
0.0057245926
0.0049298906
0.0033089229
-0.00021950743
-0.0018038491
0.013331835
0.012667069
0.012313103
0.0119735
0.011553957
0.010995747
0.010208008
0.0090222633
0.0069487436
0.004508185
0.0056586951
0.0054388168
0.0050992247
0.0046796707
0.004191487
0.0036170705
0.002923162
0.0021019201
0.0011702785
0.00042979133
0.00052353021
0.00022083416
-0.00023425327
-0.00075691875
-0.0012968534
-0.0018452851
-0.0024108424
-0.0029825811
-0.0035066536
-0.003833792
-0.0041246577
-0.0046985641
-0.0053760924
-0.0060445136
-0.0066444174
-0.0071585025
-0.0075930804
-0.0079423066
-0.0081851615
-0.0082971601
-0.008084726
-0.0093795928
-0.010500396
-0.011353076
-0.012015546
-0.012490372
-0.01279935
-0.012941397
-0.012907429
-0.012758444
-0.010020162
-0.012977951
-0.01516956
-0.016237215
-0.016922444
-0.017333026
-0.017514525
-0.017441105
-0.016990782
-0.016000873
-0.0035475035
-0.0052553451
-0.0086602754
-0.0097694234
-0.010332404
-0.010620634
-0.010687258
-0.010437681
-0.0092470259
-0.0025005921
0.0010389324
0.0012649575
-1.7295395e-05
-0.0003620816
-0.00051095348
-0.00058017387
-0.00058561919
-0.00048085089
7.4320093e-05
0.0040167716
-0.0056013037
-0.00066074699
-0.0010517194
-0.0011288054
-0.0012089293
-0.001342829
-0.0016128302
-0.0022540579
-0.0037023397
-0.0034779006
0.0011746928
0.0079990691
0.0071944828
0.006916292
0.0065957827
0.0061125612
0.0052738996
0.0035637284
-0.00017067701
-0.0018520041
0.013911717
0.01320963
0.01282894
0.012465488
0.01201973
0.011428946
0.01059694
0.0093465474
0.0071594753
0.0045963124
0.0057905224
0.0055547076
0.0051918223
0.0047454973
0.0042278459
0.003620047
0.0028867642
0.0020198446
0.001036227
0.0002555201
0.00031702886
-4.0066533e-06
-0.00048670197
-0.0010405478
-0.0016121522
-0.002192301
-0.0027901868
-0.003394196
-0.0039476866
-0.0042929631
-0.0046449293
-0.0052507806
-0.0059668123
-0.0066735708
-0.007307894
-0.0078516054
-0.0083114203
-0.0086811829
-0.0089386683
-0.0090576918
-0.0088858286
-0.010252672
-0.011434661
-0.012335071
-0.013034864
-0.013536966
-0.013864441
-0.014016288
-0.01398294
-0.013828134
-0.010992994
-0.014127258
-0.016437571
-0.017564723
-0.018288108
-0.018722222
-0.018915356
-0.018840721
-0.018369995
-0.017328934
-0.0041408341
-0.0059765982
-0.0095565665
-0.010726833
-0.011320891
-0.0116256
-0.0116974
-0.011437446
-0.010185612
-0.0029728957
0.00098189072
0.0012063298
-0.000138994
-0.00050244554
-0.00065946528
-0.0007326299
-0.00073881425
-0.00062942584
-4.4773457e-05
0.0041790519
-0.0056447602
-0.00058234226
-0.00099025476
-0.0010725911
-0.0011571837
-0.001297474
-0.0015796927
-0.0022505398
-0.0037728116
-0.0035535151
0.0014730794
0.0084548375
0.0076105688
0.0073141552
0.0069761672
0.0064696064
0.005592589
0.0038047731
-0.00011040132
-0.0018805783
0.014399154
0.013663781
0.013258472
0.012873311
0.012404124
0.011784591
0.010913811
0.0096071559
0.0073213796
0.0046527346
0.005878717
0.0056283235
0.0052443155
0.0047739762
0.0042301259
0.0035928429
0.0028249453
0.0019180326
0.00088897153
7.3233726e-05
9.8984351e-05
-0.00023833994
-0.00074556445
-0.0013270602
-0.0019266977
-0.0025348847
-0.0031613198
-0.0037937893
-0.004373202
-0.0047344393
-0.0051473793
-0.0057811427
-0.0065309575
-0.0072714565
-0.0079361381
-0.0085060786
-0.0089883625
-0.0093765616
-0.0096473495
-0.0097728911
-0.009643908
-0.011073507
-0.012308741
-0.013250941
-0.013983552
-0.014509846
-0.014854035
-0.015015235
-0.014983441
-0.01482449
-0.011911593
-0.015201272
-0.017614584
-0.018793703
-0.019550557
-0.020005585
-0.020209544
-0.020134991
-0.019648272
-0.018564698
-0.0047312185
-0.0066856815
-0.01041657
-0.011640103
-0.012261369
-0.012580753
-0.012657698
-0.012390007
-0.011087405
-0.0034625008
0.00090869844
0.001127995
-0.00027141955
-0.00065110169
-0.00081524476
-0.00089192655
-0.00089893918
-0.0007859591
-0.00017655641
0.0042973105
-0.00564469
-0.00049503547
-0.00091744601
-0.0010045627
-0.0010930981
-0.0012388642
-0.0015314254
-0.002227405
-0.0038135432
-0.0036025084
0.0017723361
0.008863202
0.007984244
0.0076713368
0.0073179835
0.0067913732
0.0058818044
0.0040282899
-4.1494749e-05
-0.0018913366
0.014791671
0.01402738
0.013599805
0.013195266
0.012705606
0.01206132
0.011157474
0.0098032231
0.0074340614
0.0046775716
0.0059241622
0.0056606841
0.0052579017
0.0047664852
0.0041998815
0.0035371949
0.0027396421
0.0017986409
0.00073090711
-0.0001144923
-0.00012703442
-0.00047848666
-0.0010069981
-0.001612433
-0.0022362884
-0.002868659
-0.0035196862
-0.0041766291
-0.0047783074
-0.0051532287
-0.0056260471
-0.006283538
-0.0070622262
-0.0078316709
-0.0085224656
-0.0091150688
-0.0096168959
-0.010021285
-0.010303922
-0.0104354
-0.010350921
-0.011833733
-0.013114005
-0.01409183
-0.014852559
-0.0153998
-0.015758775
-0.015928752
-0.01589933
-0.015737833
-0.012766435
-0.016189612
-0.018689734
-0.019913024
-0.020698469
-0.021171645
-0.021385496
-0.0213122
-0.020813788
-0.019696307
-0.0053101309
-0.007372786
-0.011229757
-0.012498438
-0.013142891
-0.013475037
-0.013557005
-0.013284118
-0.011941112
-0.0039596375
0.00082168859
0.0010327233
-0.00041153934
-0.00080493653
-0.00097513894
-0.0010548841
-0.0010627904
-0.00094721919
-0.00031780326
0.004373764
-0.0056034958
-0.00040102922
-0.00083534923
-0.00092672539
-0.001018646
-0.0011689416
-0.0014699197
-0.0021864247
-0.0038259597
-0.0036258596
0.0020670057
0.0092192257
0.0083109311
0.0079834253
0.0076169381
0.0070736867
0.0061375329
0.004230572
3.3104709e-05
-0.0018862484
0.015087194
0.01429865
0.013851394
0.013429979
0.01292295
0.012258058
0.011327026
0.0099340722
0.0074972107
0.0046709084
0.0059276657
0.0056527206
0.0052336727
0.0047242761
0.0041385189
0.003454666
0.0026325877
0.0016635858
0.00056414485
-0.00030540185
-0.00035785243
-0.00072117675
-0.0012675911
-0.0018930984
-0.0025372011
-0.0031897472
-0.0038612543
-0.0045385293
-0.0051586773
-0.0055449206
-0.0060756216
-0.0067525322
-0.0075550268
-0.0083484552
-0.009060958
-0.0096725084
-0.01019081
-0.010609006
-0.010901922
-0.011038678
-0.010999661
-0.012525886
-0.013842776
-0.014849872
-0.015633856
-0.016198654
-0.016570354
-0.016748399
-0.016722045
-0.016559511
-0.013548878
-0.017082938
-0.019653306
-0.020912754
-0.021721749
-0.022210176
-0.022432861
-0.022361868
-0.021855919
-0.020713047
-0.0058694795
-0.0080286318
-0.0119863
-0.013291796
-0.013955288
-0.014298187
-0.01438496
-0.014109299
-0.012736138
-0.0044548429
0.00072319024
0.0009232903
-0.00055637851
-0.00096091125
-0.0011360763
-0.0012184068
-0.0012272471
-0.0011100505
-0.00046533246
0.0044108132
-0.0055237851
-0.00030252279
-0.00074603771
-0.00084110604
-0.00093582689
-0.0010896803
-0.0013971121
-0.0021294465
-0.0038116368
-0.0036246937
0.0023517211
0.0095183422
0.008586379
0.0082463197
0.0078690322
0.0073126436
0.0063559939
0.0044080619
0.00011042312
-0.0018674078
0.015284149
0.014476274
0.014012126
0.013576492
0.013055322
0.012374095
0.011421896
0.0099992968
0.007510684
0.0046328756
0.0058900589
0.0056053751
0.0051727122
0.0046485708
0.0040473908
0.0033467387
0.0025054015
0.0015146306
0.00039059741
-0.00049747357
-0.00059059213
-0.00096345347
-0.0015242682
-0.0021658506
-0.0028261004
-0.0034946853
-0.0041824303
-0.0048757675
-0.0055104742
-0.0059056067
-0.0064913583
-0.0071832862
-0.0080043966
-0.0088167116
-0.0095463859
-0.010173042
-0.010704624
-0.011134122
-0.011435636
-0.011576945
-0.011583694
-0.013143343
-0.014488275
-0.015518141
-0.016320383
-0.016899223
-0.017281464
-0.017466741
-0.017444023
-0.017281861
-0.01425113
-0.017872917
-0.020496701
-0.02178413
-0.022611505
-0.023112174
-0.023342517
-0.023274732
-0.022765234
-0.021605341
-0.0064016182
-0.008644489
-0.012677088
-0.01401091
-0.014689192
-0.015040749
-0.015132015
-0.01485587
-0.013462624
-0.0049390049
0.00061551713
0.00080246016
-0.00070303681
-0.0011160788
-0.0012950841
-0.0013795005
-0.0013892901
-0.0012713928
-0.00061602809
0.0044110198
-0.0054083293
-0.000201681
-0.00065157151
-0.00074972343
-0.00084663655
-0.001003057
-0.001314955
-0.0020583653
-0.0037722713
-0.0036002581
0.0026212955
0.0097564322
0.0088067377
0.0084563027
0.0080706339
0.0075046839
0.0065337097
0.0045574229
0.00018752149
-0.0018369696
0.015381519
0.014559455
0.014081389
0.013634323
0.013102348
0.012409149
0.011441899
0.0099988199
0.0074745623
0.0045637084
0.0058122694
0.0055196718
0.0050761655
0.00454063
0.0039278631
0.0032148798
0.0023596533
0.0013534485
0.00021204117
-0.00068885927
-0.00082260428
-0.0012026047
-0.0017742231
-0.0024277794
-0.0030999733
-0.0037803591
-0.0044799971
-0.005185026
-0.0058302904
-0.006231825
-0.0068690201
-0.0075714978
-0.0084059443
-0.0092319469
-0.0099741541
-0.010611971
-0.011153535
-0.011591725
-0.011900058
-0.012045129
-0.012097318
-0.01368028
-0.015044579
-0.016090609
-0.01690601
-0.017495276
-0.017885764
-0.018077315
-0.018058669
-0.017898184
-0.014866241
-0.018552215
-0.021212429
-0.022519552
-0.023360041
-0.023869845
-0.024106564
-0.02404275
-0.0235335
-0.022364762
-0.0068993676
-0.0092122068
-0.01329376
-0.014647318
-0.015336068
-0.015694117
-0.015789472
-0.015514987
-0.014111484
-0.0054034113
0.00050095422
0.00067296747
-0.00084870653
-0.0012676018
-0.0014493068
-0.0015352916
-0.0015460207
-0.0014283016
-0.00076686169
0.0043770802
-0.0052600272
-0.00010060716
-0.00055397111
-0.00065456198
-0.00075304076
-0.00091102556
-0.0012253905
-0.0019750967
-0.0037096548
-0.0035539
0.0028707996
0.0099298837
0.0089686174
0.0086100992
0.0082185354
0.0076466481
0.0066675627
0.0046755966
0.00026155444
-0.0017970966
0.015378899
0.014547967
0.014059115
0.013603516
0.013064149
0.012363407
0.011387277
0.0099329342
0.0073891929
0.004463789
0.0056953722
0.0053967677
0.0049452902
0.0044018022
0.0037813638
0.0030605885
0.0021969101
0.0011816692
3.0161772e-05
-0.00087783834
-0.0010514178
-0.0014361131
-0.0020148688
-0.0026762223
-0.0033560825
-0.0040439574
-0.0047510697
-0.0054633473
-0.0061151051
-0.0065205165
-0.0072048353
-0.0079133599
-0.008755808
-0.0095902319
-0.010340262
-0.010985219
-0.011533385
-0.011977566
-0.012290856
-0.012438839
-0.012535539
-0.014131646
-0.015506591
-0.016562119
-0.01738551
-0.017981509
-0.018377858
-0.01857461
-0.018560343
-0.018402726
-0.01538809
-0.019114486
-0.021794098
-0.02311257
-0.023960846
-0.024476606
-0.024718317
-0.024659091
-0.024153677
-0.022984028
-0.0073560392
-0.0097242441
-0.013828732
-0.015193389
-0.01588824
-0.016250558
-0.016349513
-0.016078675
-0.014674449
-0.0058397981
0.00038174336
0.00053749822
-0.00099069067
-0.001412771
-0.0015960241
-0.0016830453
-0.0016946796
-0.0015779673
-0.00091491365
0.0043118
-0.0050818709
-1.3193944e-06
-0.00045519406
-0.00055754871
-0.00065695253
-0.0008154933
-0.0011303272
-0.001881554
-0.0036256495
-0.0034870472
0.0030956254
0.010035641
0.0090691349
0.0087049217
0.0083099991
0.0077358225
0.0067548416
0.0047598493
0.00032981939
-0.0017499146
0.015276523
0.01444218
0.013945804
0.013484661
0.012941375
0.012237553
0.011258733
0.0098023307
0.0072552194
0.0043336796
0.0055406278
0.0052379901
0.004781492
0.0042335602
0.0036094178
0.0028854312
0.0020187704
0.0010009122
-0.00015341158
-0.0010627832
-0.0012747025
-0.0016616194
-0.0022438017
-0.002908728
-0.0035919307
-0.0042829379
-0.0049930608
-0.0057081012
-0.0063622514
-0.0067689929
-0.0074954659
-0.0082055278
-0.0090506234
-0.0098881696
-0.010641271
-0.0112893
-0.011840626
-0.012288031
-0.012604342
-0.012754337
-0.012894048
-0.014493139
-0.015870021
-0.016928361
-0.01775454
-0.018353524
-0.018753272
-0.018954049
-0.018944339
-0.018790666
-0.015811384
-0.019554368
-0.022236407
-0.023557881
-0.024408589
-0.024927072
-0.025172304
-0.025118139
-0.024619921
-0.023457015
-0.0077654604
-0.0101737
-0.014275224
-0.015642351
-0.01633892
-0.016703243
-0.016805225
-0.016539859
-0.0151441
-0.0062403968
0.00026006889
0.00039867117
-0.0011264204
-0.001549022
-0.0017326682
-0.001820183
-0.0018326647
-0.0017177341
-0.0010573936
0.0042180682
-0.0048769136
9.4270276e-05
-0.0003571143
-0.00046053273
-0.00056021165
-0.00071830111
-0.0010316198
-0.0017796263
-0.0035221658
-0.0034011895
0.0032915418
0.010071241
0.0091059511
0.0087385073
0.0083427939
0.0077699759
0.006793278
0.0048078119
0.0003897989
-0.0016974739
0.015075287
0.014243082
0.013742553
0.01327892
0.012735217
0.012032785
0.011057442
0.0096081181
0.0070736036
0.0041741459
0.0053495097
0.0050448637
0.0045863524
0.0040375271
0.0034136738
0.0026910672
0.0018268906
0.00081281406
-0.00033707872
-0.0012421313
-0.0014902402
-0.0018768927
-0.0024587716
-0.0031230273
-0.0038052316
-0.004494998
-0.0052036525
-0.0059169564
-0.0065693882
-0.0069749085
-0.0077379815
-0.0084450937
-0.0092874973
-0.010122868
-0.01087428
-0.011521289
-0.0120723
-0.01252011
-0.012837451
-0.012988512
-0.0131692
-0.014761188
-0.016131364
-0.017185855
-0.018009617
-0.018607813
-0.019008438
-0.019211972
-0.019206871
-0.019058098
-0.016131658
-0.019867477
-0.022535137
-0.023851315
-0.024699106
-0.025217051
-0.025464257
-0.025415484
-0.024927583
-0.023778751
-0.0081219979
-0.010554343
-0.014627284
-0.015988315
-0.016682229
-0.017046267
-0.017150631
-0.016892393
-0.015513898
-0.0065979768
0.0001380438
0.00025902013
-0.0012534714
-0.0016739516
-0.0018568397
-0.0019442985
-0.0019575474
-0.0018451164
-0.0011916593
0.0040988313
-0.0046482392
0.00018437451
-0.00026150363
-0.00036526685
-0.00046456628
-0.00062120476
-0.00093105044
-0.0016711594
-0.0034011412
-0.0032978606
0.0034547423
0.010034846
0.0090773015
0.0087091478
0.0083152246
0.0077473895
0.0067810777
0.0048175118
0.00043919787
-0.0016417147
0.014776756
0.013952294
0.013451058
0.012988031
0.012447423
0.011750828
0.010785069
0.0093518365
0.0068456415
0.0039861775
0.0051237271
0.0048191332
0.0043616502
0.0038154985
0.0031959256
0.0024792712
0.0016230071
0.00061905103
-0.00051924495
-0.0014143606
-0.0016958984
-0.0020798052
-0.0026576567
-0.0033170077
-0.0039938839
-0.0046780495