/*--------------------------------*- C++ -*----------------------------------*\
| =========                 |                                                 |
| \\      /  F ield         | OpenFOAM: The Open Source CFD Toolbox           |
|  \\    /   O peration     | Version:  v2106                                 |
|   \\  /    A nd           | Website:  www.openfoam.com                      |
|    \\/     M anipulation  |                                                 |
\*---------------------------------------------------------------------------*/
FoamFile
{
    version     2.0;
    format      ascii;
    arch        "LSB;label=32;scalar=64";
    class       volScalarField;
    location    "47.5";
    object      laplacianT;
}
// * * * * * * * * * * * * * * * * * * * * * * * * * * * * * * * * * * * * * //

dimensions      [0 -2 0 1 0 0 0];

internalField   nonuniform List<scalar> 
4000
(
42244.937
42245.376
42245.131
42245.239
42245.272
42245.28
42245.27
42245.249
42245.233
42245.245
42245.376
42245.314
42245.259
42245.354
42245.386
42245.392
42245.378
42245.353
42245.336
42245.357
42245.131
42245.259
42245.177
42245.269
42245.299
42245.302
42245.283
42245.249
42245.219
42245.262
42245.239
42245.354
42245.269
42245.359
42245.386
42245.387
42245.364
42245.324
42245.285
42245.312
42245.272
42245.386
42245.299
42245.386
42245.411
42245.409
42245.383
42245.339
42245.297
42245.322
42245.28
42245.392
42245.302
42245.387
42245.409
42245.403
42245.375
42245.329
42245.285
42245.309
42245.27
42245.378
42245.283
42245.364
42245.383
42245.375
42245.345
42245.297
42245.252
42245.276
42245.249
42245.353
42245.249
42245.324
42245.339
42245.329
42245.297
42245.249
42245.205
42245.23
42245.233
42245.336
42245.219
42245.285
42245.297
42245.285
42245.252
42245.205
42245.163
42245.192
42245.245
42245.357
42245.262
42245.312
42245.322
42245.309
42245.276
42245.23
42245.192
42245.228
-599.95439
-597.83838
-599.09292
-598.97351
-598.97003
-598.97023
-598.96915
-598.9653
-598.9512
-598.95876
-597.83838
-597.56099
-598.26361
-598.17214
-598.17001
-598.16947
-598.16428
-598.14057
-598.04657
-598.25589
-599.09292
-598.26361
-599.01456
-598.92754
-598.92581
-598.92597
-598.92357
-598.90506
-598.78032
-598.74958
-598.97351
-598.17214
-598.92754
-598.84093
-598.83908
-598.83895
-598.83659
-598.82204
-598.71454
-598.71822
-598.97003
-598.17001
-598.92581
-598.83908
-598.83711
-598.83677
-598.83382
-598.81791
-598.70876
-598.71364
-598.97023
-598.16947
-598.92597
-598.83895
-598.83677
-598.83637
-598.83334
-598.81728
-598.70772
-598.71226
-598.96915
-598.16428
-598.92357
-598.83659
-598.83382
-598.83334
-598.83022
-598.81407
-598.70433
-598.70852
-598.9653
-598.14057
-598.90506
-598.82204
-598.81791
-598.81728
-598.81407
-598.79773
-598.68744
-598.69042
-598.9512
-598.04657
-598.78032
-598.71454
-598.70876
-598.70772
-598.70433
-598.68744
-598.57524
-598.57469
-598.95876
-598.25589
-598.74958
-598.71822
-598.71364
-598.71226
-598.70852
-598.69042
-598.57469
-598.59792
-603.02638
-600.33943
-602.04332
-601.883
-601.8764
-601.87582
-601.87145
-601.85259
-601.77817
-602.11662
-600.33943
-600.06284
-601.04008
-600.91472
-600.91025
-600.90921
-600.89968
-600.84255
-600.53882
-601.11997
-602.04332
-601.04008
-602.07557
-601.95618
-601.95227
-601.95229
-601.94836
-601.90779
-601.56778
-601.78254
-601.883
-600.91472
-601.95618
-601.83743
-601.83336
-601.83284
-601.82853
-601.79392
-601.48054
-601.74383
-601.8764
-600.91025
-601.95227
-601.83336
-601.82916
-601.82838
-601.8232
-601.78666
-601.47128
-601.73744
-601.87582
-600.90921
-601.95229
-601.83284
-601.82838
-601.82753
-601.82225
-601.78544
-601.4694
-601.73521
-601.87145
-600.89968
-601.94836
-601.82853
-601.8232
-601.82225
-601.81683
-601.77982
-601.46327
-601.72805
-601.85259
-600.84255
-601.90779
-601.79392
-601.78666
-601.78544
-601.77982
-601.7422
-601.42371
-601.68351
-601.77817
-600.53882
-601.56778
-601.48054
-601.47128
-601.4694
-601.46327
-601.42371
-601.09804
-601.33892
-602.11662
-601.11997
-601.78254
-601.74383
-601.73744
-601.73521
-601.72805
-601.68351
-601.33892
-601.91819
-605.92502
-602.62542
-604.7519
-604.55411
-604.54458
-604.54348
-604.53633
-604.49806
-604.30296
-604.84107
-602.62542
-602.26742
-603.50808
-603.35149
-603.34476
-603.34349
-603.33173
-603.24678
-602.69278
-603.59107
-604.7519
-603.50808
-604.81616
-604.66696
-604.6609
-604.66082
-604.65638
-604.59704
-603.99511
-604.40592
-604.55411
-603.35149
-604.66696
-604.5186
-604.51237
-604.51156
-604.5064
-604.45524
-603.88871
-604.36011
-604.54458
-603.34476
-604.6609
-604.51237
-604.50599
-604.50487
-604.49855
-604.44497
-603.87628
-604.35199
-604.54348
-603.34349
-604.66082
-604.51156
-604.50487
-604.50367
-604.49723
-604.44329
-603.8737
-604.34908
-604.53633
-603.33173
-604.65638
-604.5064
-604.49855
-604.49723
-604.49062
-604.43638
-603.86593
-604.33932
-604.49806
-603.24678
-604.59704
-604.45524
-604.44497
-604.44329
-604.43638
-604.38102
-603.80648
-604.26714
-604.30296
-602.69278
-603.99511
-603.88871
-603.87628
-603.8737
-603.86593
-603.80648
-603.21359
-603.60227
-604.84107
-603.59107
-604.40592
-604.36011
-604.35199
-604.34908
-604.33932
-604.26714
-603.60227
-604.82196
-608.3163
-604.43798
-606.96731
-606.73383
-606.72148
-606.71997
-606.71112
-606.65854
-606.34975
-607.06611
-604.43798
-604.00536
-605.49748
-605.31112
-605.30215
-605.30052
-605.28685
-605.17868
-604.38162
-605.58072
-606.96731
-605.49748
-607.06574
-606.88813
-606.87997
-606.8797
-606.87501
-606.8012
-605.94294
-606.53939
-606.73383
-605.31112
-606.88813
-606.71155
-606.7032
-606.70202
-606.6963
-606.63296
-605.81837
-606.48675
-606.72148
-605.30215
-606.87997
-606.7032
-606.6947
-606.69316
-606.68599
-606.61979
-605.80289
-606.47692
-606.71997
-605.30052
-606.8797
-606.70202
-606.69316
-606.69154
-606.68422
-606.61758
-605.79961
-606.47336
-606.71112
-605.28685
-606.87501
-606.6963
-606.68599
-606.68422
-606.67673
-606.60975
-605.79071
-606.46184
-606.65854
-605.17868
-606.8012
-606.63296
-606.61979
-606.61758
-606.60975
-606.54135
-605.7166
-606.3674
-606.34975
-604.38162
-605.94294
-605.81837
-605.80289
-605.79961
-605.79071
-605.7166
-604.8626
-605.37055
-607.06611
-605.58072
-606.53939
-606.48675
-606.47692
-606.47336
-606.46184
-606.3674
-605.37055
-607.22496
-610.13365
-605.72154
-608.63066
-608.36319
-608.34808
-608.34605
-608.33537
-608.26931
-607.85139
-608.73279
-605.72154
-605.22778
-606.95675
-606.74202
-606.73088
-606.72881
-606.71309
-606.58293
-605.55087
-607.02933
-608.63066
-606.95675
-608.77011
-608.56542
-608.55521
-608.55468
-608.54957
-608.46239
-607.35613
-608.12302
-608.36319
-606.74202
-608.56542
-608.36195
-608.35154
-608.34993
-608.34346
-608.26902
-607.21425
-608.06389
-608.34808
-606.73088
-608.55521
-608.35154
-608.34096
-608.33894
-608.33076
-608.25304
-607.19581
-608.05237
-608.34605
-606.72881
-608.55468
-608.34993
-608.33894
-608.33685
-608.32848
-608.25025
-607.19178
-608.04811
-608.33537
-606.71309
-608.54957
-608.34346
-608.33076
-608.32848
-608.31992
-608.2413
-607.1816
-608.03484
-608.26931
-606.58293
-608.46239
-608.26902
-608.25304
-608.25025
-608.2413
-608.16104
-607.09433
-607.9207
-607.85139
-605.55087
-607.35613
-607.21425
-607.19581
-607.19178
-607.1816
-607.09433
-605.98893
-606.598
-608.73279
-607.02933
-608.12302
-608.06389
-608.05237
-608.04811
-608.03484
-607.9207
-606.598
-609.06055
-611.322
-606.42301
-609.68666
-609.38705
-609.3693
-609.36674
-609.35425
-609.27524
-608.7524
-609.7855
-606.42301
-605.881
-607.83082
-607.58926
-607.57602
-607.57351
-607.55581
-607.40479
-606.14735
-607.88187
-609.68666
-607.83082
-609.87276
-609.64245
-609.63027
-609.62947
-609.62393
-609.52426
-608.18037
-609.10109
-609.38705
-607.58926
-609.64245
-609.41355
-609.40115
-609.3991
-609.39189
-609.30713
-608.02213
-609.03582
-609.3693
-607.57602
-609.63027
-609.40115
-609.38858
-609.38608
-609.37688
-609.28845
-608.00086
-609.02269
-609.36674
-607.57351
-609.62947
-609.3991
-609.38608
-609.38351
-609.3741
-609.28508
-607.99608
-609.01771
-609.35425
-607.55581
-609.62393
-609.39189
-609.37688
-609.3741
-609.36447
-609.27502
-607.9846
-609.0027
-609.27524
-607.40479
-609.52426
-609.30713
-609.28845
-609.28508
-609.27502
-609.18369
-607.88504
-608.87031
-608.7524
-606.14735
-608.18037
-608.02213
-608.00086
-607.99608
-607.9846
-607.88504
-606.53907
-607.23322
-609.7855
-607.88187
-609.10109
-609.03582
-609.02269
-609.01771
-609.0027
-608.87031
-607.23322
-610.27025
-611.83108
-606.49373
-610.08482
-609.75513
-609.73486
-609.73178
-609.71755
-609.62623
-609.00317
-610.17434
-606.49373
-605.9158
-608.06938
-607.80268
-607.78744
-607.78451
-607.76495
-607.59432
-606.12252
-608.0891
-610.08482
-608.06938
-610.32222
-610.06793
-610.05387
-610.05278
-610.04686
-609.93558
-608.36602
-609.42373
-609.75513
-607.80268
-610.06793
-609.81521
-609.80091
-609.79843
-609.79051
-609.6962
-608.19248
-609.35274
-609.73486
-607.78744
-610.05387
-609.80091
-609.78643
-609.78346
-609.77329
-609.67497
-608.16851
-609.33807
-609.73178
-607.78451
-610.05278
-609.79843
-609.78346
-609.78043
-609.77002
-609.67103
-608.16301
-609.33241
-609.71755
-607.76495
-610.04686
-609.79051
-609.77329
-609.77002
-609.75938
-609.65991
-608.1503
-609.31572
-609.62623
-607.59432
-609.93558
-609.6962
-609.67497
-609.67103
-609.65991
-609.55832
-608.03932
-609.16632
-609.00317
-606.12252
-608.36602
-608.19248
-608.16851
-608.16301
-608.1503
-608.03932
-606.46484
-607.22895
-610.17434
-608.0891
-609.42373
-609.35274
-609.33807
-609.33241
-609.31572
-609.16632
-607.22895
-610.80336
-611.61808
-605.89211
-609.78193
-609.42441
-609.40176
-609.39818
-609.3823
-609.2794
-608.56138
-609.85669
-605.89211
-605.28993
-607.62924
-607.33926
-607.32213
-607.31878
-607.2975
-607.10864
-605.43475
-607.60896
-609.78193
-607.62924
-610.07435
-609.79784
-609.78199
-609.78063
-609.77435
-609.65243
-607.87046
-609.04832
-609.42441
-607.33926
-609.79784
-609.52306
-609.50696
-609.50405
-609.49547
-609.39244
-607.68277
-608.97206
-609.40176
-607.32213
-609.78199
-609.50696
-609.49067
-609.48724
-609.47618
-609.36879
-607.65626
-608.95594
-609.39818
-607.31878
-609.78063
-609.50405
-609.48724
-609.48376
-609.47243
-609.36431
-607.65006
-608.94962
-609.3823
-607.2975
-609.77435
-609.49547
-609.47618
-609.47243
-609.46085
-609.3522
-607.63621
-608.93137
-609.2794
-607.10864
-609.65243
-609.39244
-609.36879
-609.36431
-609.3522
-609.24122
-607.51473
-608.76619
-608.56138
-605.43475
-607.87046
-607.68277
-607.65626
-607.65006
-607.63621
-607.51473
-605.72509
-606.54462
-609.85669
-607.60896
-609.04832
-608.97206
-608.95594
-608.94962
-608.93137
-608.76619
-606.54462
-610.61694
-610.64768
-604.58366
-608.74216
-608.35922
-608.33436
-608.33029
-608.31288
-608.19919
-607.392
-608.79728
-604.58366
-603.96816
-606.4744
-606.16313
-606.14424
-606.14049
-606.11765
-605.91201
-604.04944
-606.40657
-608.74216
-606.4744
-609.09231
-608.79548
-608.77796
-608.77632
-608.76973
-608.63817
-606.65821
-607.93954
-608.35922
-606.16313
-608.79548
-608.50053
-608.48274
-608.47943
-608.47025
-608.35934
-606.45763
-607.8585
-608.33436
-606.14424
-608.77796
-608.48274
-608.46477
-608.4609
-608.44901
-608.33344
-606.42876
-607.84103
-608.33029
-606.14049
-608.77632
-608.47943
-608.4609
-608.45698
-608.4448
-608.32844
-606.4219
-607.83409
-608.31288
-606.11765
-608.76973
-608.47025
-608.44901
-608.4448
-608.43236
-608.31543
-606.407
-607.81439
-608.19919
-605.91201
-608.63817
-608.35934
-608.33344
-608.32844
-608.31543
-608.19596
-606.27599
-607.63477
-607.392
-604.04944
-606.65821
-606.45763
-606.42876
-606.4219
-606.407
-606.27599
-604.2857
-605.1467
-608.79728
-606.40657
-607.93954
-607.8585
-607.84103
-607.83409
-607.81439
-607.63477
-605.1467
-609.67553
-608.89194
-602.54089
-606.93684
-606.53107
-606.50416
-606.49963
-606.48081
-606.35718
-605.46714
-606.96807
-602.54089
-601.92218
-604.57591
-604.24547
-604.22494
-604.22081
-604.19658
-603.97571
-601.9389
-604.45416
-606.93684
-604.57591
-607.34645
-607.03133
-607.01226
-607.01035
-607.00351
-606.86334
-604.70088
-606.06925
-606.53107
-604.24547
-607.03133
-606.71822
-606.69887
-606.69517
-606.68545
-606.56755
-604.48872
-605.98394
-606.50416
-604.22494
-607.01226
-606.69887
-606.67934
-606.67505
-606.66241
-606.53957
-604.45768
-605.96524
-606.49963
-604.22081
-607.01035
-606.69517
-606.67505
-606.67072
-606.65777
-606.53408
-604.4502
-605.95771
-606.48081
-604.19658
-607.00351
-606.68545
-606.66241
-606.65777
-606.64455
-606.52026
-604.43435
-605.93671
-606.35718
-603.97571
-606.86334
-606.56755
-606.53957
-606.53408
-606.52026
-606.39324
-604.29484
-605.74401
-605.46714
-601.9389
-604.70088
-604.48872
-604.45768
-604.4502
-604.43435
-604.29484
-602.11946
-603.00867
-606.96807
-604.45416
-606.06925
-605.98394
-605.96524
-605.95771
-605.93671
-605.74401
-603.00867
-607.95105
-606.33002
-599.74306
-604.34433
-603.91842
-603.88965
-603.88469
-603.86459
-603.73193
-602.76578
-604.34805
-599.74306
-599.13037
-601.91164
-601.56426
-601.54223
-601.53776
-601.51229
-601.27783
-599.0821
-601.73085
-604.34433
-601.91164
-604.81413
-604.48284
-604.46236
-604.46019
-604.45314
-604.30544
-601.97687
-603.41626
-603.91842
-601.56426
-604.48284
-604.15369
-604.13292
-604.12884
-604.11864
-603.99467
-601.75454
-603.32722
-603.88965
-601.54223
-604.46236
-604.13292
-604.11196
-604.10727
-604.09397
-603.9648
-601.72153
-603.3074
-603.88469
-601.53776
-604.46019
-604.12884
-604.10727
-604.10255
-604.08892
-603.95886
-601.71348
-603.29934
-603.86459
-601.51229
-604.45314
-604.11864
-604.09397
-604.08892
-604.07501
-603.94431
-601.69678
-603.27717
-603.73193
-601.27783
-604.30544
-603.99467
-603.9648
-603.95886
-603.94431
-603.81071
-601.54983
-603.07286
-602.76578
-599.0821
-601.97687
-601.75454
-601.72153
-601.71348
-601.69678
-601.54983
-599.20587
-600.11076
-604.34805
-601.73085
-603.41626
-603.32722
-603.3074
-603.29934
-603.27717
-603.07286
-600.11076
-605.42252
-602.94794
-596.17596
-600.94973
-600.50651
-600.47608
-600.47072
-600.44948
-600.30874
-599.27362
-600.923
-596.17596
-595.57761
-598.46612
-598.10411
-598.08075
-598.07595
-598.04943
-597.80307
-595.46454
-598.22239
-600.94973
-598.46612
-601.47949
-601.13425
-601.11248
-601.11008
-601.10286
-600.94874
-598.47125
-599.96612
-600.50651
-598.10411
-601.13425
-600.79124
-600.76919
-600.76477
-600.75417
-600.62505
-598.2402
-599.87392
-600.47608
-598.08075
-601.11248
-600.76919
-600.74695
-600.7419
-600.72803
-600.59349
-598.20544
-599.85312
-600.47072
-598.07595
-601.11008
-600.76477
-600.7419
-600.73682
-600.72261
-600.58713
-598.19687
-599.84458
-600.44948
-598.04943
-601.10286
-600.75417
-600.72803
-600.72261
-600.7081
-600.57196
-598.17944
-599.82139
-600.30874
-597.80307
-600.94874
-600.62505
-600.59349
-600.58713
-600.57196
-600.43277
-598.02613
-599.60694
-599.27362
-595.46454
-598.47125
-598.2402
-598.20544
-598.19687
-598.17944
-598.02613
-595.5309
-596.43978
-600.923
-598.22239
-599.96612
-599.87392
-599.85312
-599.84458
-599.82139
-599.60694
-596.43978
-602.07586
-598.7384
-591.83172
-596.74471
-596.28708
-596.2552
-596.24947
-596.22722
-596.07941
-594.9828
-596.68523
-591.83172
-591.25507
-594.23029
-593.85605
-593.8315
-593.82642
-593.79903
-593.54251
-591.07795
-593.92098
-596.74471
-594.23029
-597.33323
-596.97631
-596.95342
-596.95078
-596.94346
-596.78402
-594.17548
-595.7109
-596.28708
-593.85605
-596.97631
-596.62173
-596.59855
-596.5938
-596.58287
-596.44954
-593.93721
-595.61613
-596.2552
-593.8315
-596.95342
-596.59855
-596.57518
-596.56979
-596.55544
-596.41651
-593.90093
-595.59448
-596.24947
-593.82642
-596.95078
-596.5938
-596.56979
-596.56438
-596.54968
-596.40977
-593.89189
-595.5855
-596.22722
-593.79903
-596.94346
-596.58287
-596.55544
-596.54968
-596.53467
-596.39407
-593.87385
-595.56146
-596.07941
-593.54251
-596.78402
-596.44954
-596.41651
-596.40977
-596.39407
-596.2503
-593.71528
-595.33841
-594.9828
-591.07795
-594.17548
-593.93721
-593.90093
-593.89189
-593.87385
-593.71528
-591.08678
-591.98886
-596.68523
-593.92098
-595.7109
-595.61613
-595.59448
-595.5855
-595.56146
-595.33841
-591.98886
-597.90364
-593.70043
-586.70851
-591.72719
-591.25814
-591.22501
-591.21895
-591.19586
-591.04199
-589.89165
-591.63333
-586.70851
-586.15995
-589.20126
-588.81725
-588.79168
-588.78634
-588.75827
-588.49336
-585.92012
-588.82496
-591.72719
-589.20126
-592.37234
-592.0061
-591.98223
-591.97938
-591.972
-591.80838
-589.08718
-590.6489
-591.25814
-588.81725
-592.0061
-591.64226
-591.61811
-591.61307
-591.60187
-591.46529
-588.84323
-590.55216
-591.22501
-588.79168
-591.98223
-591.61811
-591.59376
-591.58807
-591.57334
-591.431
-588.80566
-590.52979
-591.21895
-588.78634
-591.97938
-591.61307
-591.58807
-591.58237
-591.56727
-591.42392
-588.79621
-590.52044
-591.19586
-588.75827
-591.972
-591.60187
-591.57334
-591.56727
-591.55186
-591.40781
-588.77767
-590.4957
-591.04199
-588.49336
-591.80838
-591.46529
-591.431
-591.42392
-591.40781
-591.26047
-588.61497
-590.26562
-589.89165
-585.92012
-589.08718
-588.84323
-588.80566
-588.79621
-588.77767
-588.61497
-585.87176
-586.7572
-591.63333
-588.82496
-590.6489
-590.55216
-590.52979
-590.52044
-590.4957
-590.26562
-586.7572
-592.9048
-587.83916
-580.81031
-585.90111
-585.42368
-585.38952
-585.38318
-585.35939
-585.20052
-584.00444
-585.77193
-580.81031
-580.29523
-583.38207
-582.99077
-582.96436
-582.9588
-582.93023
-582.65873
-579.99455
-582.93858
-585.90111
-583.38207
-586.5999
-586.22671
-586.20203
-586.19898
-586.19159
-586.02492
-583.20986
-584.78439
-585.42368
-582.99077
-586.22671
-585.85598
-585.83101
-585.82572
-585.81433
-585.67543
-582.9618
-584.68629
-585.38952
-582.96436
-586.20203
-585.83101
-585.80586
-585.7999
-585.78488
-585.64011
-582.92319
-584.66335
-585.38318
-582.9588
-586.19898
-585.82572
-585.7999
-585.79395
-585.77855
-585.63275
-582.91339
-584.65369
-585.35939
-582.93023
-586.19159
-585.81433
-585.78488
-585.77855
-585.76284
-585.61632
-582.89448
-584.62841
-585.20052
-582.65873
-586.02492
-585.67543
-585.64011
-585.63275
-585.61632
-585.46642
-582.72876
-584.39287
-584.00444
-579.99455
-583.20986
-582.9618
-582.92319
-582.91339
-582.89448
-582.72876
-579.8898
-580.74975
-585.77193
-582.93858
-584.78439
-584.68629
-584.66335
-584.65369
-584.62841
-584.39287
-580.74975
-587.08435
-581.16546
-574.14661
-579.27616
-578.79341
-578.75845
-578.75186
-578.72753
-578.56473
-577.33107
-579.11135
-574.14661
-573.66941
-576.78137
-576.38531
-576.35823
-576.35248
-576.3236
-576.04734
-573.31026
-576.2717
-579.27616
-576.78137
-580.02474
-579.647
-579.62166
-579.61844
-579.61109
-579.44249
-576.55268
-578.12733
-578.79341
-576.38531
-579.647
-579.27178
-579.24615
-579.24063
-579.22913
-579.08886
-576.30209
-578.0285
-578.75845
-576.35823
-579.62166
-579.24615
-579.22035
-579.21417
-579.19896
-579.05274
-576.26268
-578.00514
-578.75186
-576.35248
-579.61844
-579.24063
-579.21417
-579.208
-579.1924
-579.04513
-576.2526
-577.99522
-578.72753
-576.3236
-579.61109
-579.22913
-579.19896
-579.1924
-579.17649
-579.02849
-576.23343
-577.96957
-578.56473
-576.04734
-579.44249
-579.08886
-579.05274
-579.04513
-579.02849
-578.87705
-576.06581
-577.73016
-577.33107
-573.31026
-576.55268
-576.30209
-576.26268
-576.2526
-576.23343
-576.06581
-573.15038
-573.97701
-579.11135
-576.2717
-578.12733
-578.0285
-578.00514
-577.99522
-577.96957
-577.73016
-573.97701
-580.45309
-573.69574
-566.73213
-571.86744
-571.38244
-571.3469
-571.34011
-571.31541
-571.14975
-569.88679
-571.66731
-566.73213
-566.29623
-569.41321
-569.01492
-568.98734
-568.98144
-568.95244
-568.67322
-565.88149
-568.8395
-571.86744
-569.41321
-572.66117
-572.2813
-572.25548
-572.25209
-572.24483
-572.07542
-569.1301
-570.69308
-571.38244
-569.01492
-572.2813
-571.90398
-571.87786
-571.87216
-571.86061
-571.7199
-568.87857
-570.59413
-571.3469
-568.98734
-572.25548
-571.87786
-571.85158
-571.84522
-571.82991
-571.6832
-568.83862
-570.57049
-571.34011
-568.98144
-572.25209
-571.87216
-571.84522
-571.83887
-571.82317
-571.6754
-568.82831
-570.56039
-571.31541
-568.95244
-572.24483
-571.86061
-571.82991
-571.82317
-571.80716
-571.65866
-568.80902
-570.53454
-571.14975
-568.67322
-572.07542
-571.7199
-571.6832
-571.6754
-571.65866
-571.50667
-568.64059
-570.29283
-569.88679
-565.88149
-569.1301
-568.87857
-568.83862
-568.82831
-568.80902
-568.64059
-565.66813
-566.45467
-571.66731
-568.8395
-570.69308
-570.59413
-570.57049
-570.56039
-570.53454
-570.29283
-566.45467
-573.02731
-565.45151
-558.58654
-563.69517
-563.211
-563.17512
-563.16816
-563.14324
-562.97581
-561.69189
-563.46068
-558.58654
-558.19439
-561.29669
-560.89869
-560.87078
-560.86477
-560.83583
-560.55548
-557.72738
-560.66217
-563.69517
-561.29669
-564.52871
-564.14911
-564.12296
-564.11944
-564.11232
-563.94319
-560.96164
-562.50206
-563.211
-560.89869
-564.14911
-563.77208
-563.74565
-563.73979
-563.72827
-563.58802
-560.71077
-562.40363
-563.17512
-560.87078
-564.12296
-563.74565
-563.71905
-563.71254
-563.69723
-563.55099
-560.67053
-562.37986
-563.16816
-560.86477
-564.11944
-563.73979
-563.71254
-563.70605
-563.69036
-563.54304
-560.66006
-562.36963
-563.14324
-560.83583
-564.11232
-563.72827
-563.69723
-563.69036
-563.67435
-563.5263
-560.64075
-562.34374
-562.97581
-560.55548
-563.94319
-563.58802
-563.55099
-563.54304
-563.5263
-563.37475
-560.47262
-562.10132
-561.69189
-557.72738
-560.96164
-560.71077
-560.67053
-560.66006
-560.64075
-560.47262
-557.46261
-558.2033
-563.46068
-560.66217
-562.50206
-562.40363
-562.37986
-562.36963
-562.34374
-562.10132
-558.2033
-564.82843
-556.45913
-549.73411
-554.78441
-554.30411
-554.2681
-554.26103
-554.23605
-554.06793
-552.77139
-554.51707
-549.73411
-549.38723
-552.45566
-552.06045
-552.03239
-552.02631
-551.99762
-551.71791
-548.87169
-551.76459
-554.78441
-552.45566
-555.65174
-555.2748
-555.2485
-555.24486
-555.23791
-555.07013
-552.07157
-553.57949
-554.30411
-552.06045
-555.2748
-554.90042
-554.87384
-554.86787
-554.85645
-554.71755
-551.82291
-553.48218
-554.2681
-552.03239
-555.2485
-554.87384
-554.8471
-554.84049
-554.82527
-554.68041
-551.78264
-553.45844
-554.26103
-552.02631
-555.24486
-554.86787
-554.84049
-554.8339
-554.8183
-554.67237
-551.77208
-553.44815
-554.23605
-551.99762
-555.23791
-554.85645
-554.82527
-554.8183
-554.80239
-554.65574
-551.75288
-553.42238
-554.06793
-551.71791
-555.07013
-554.71755
-554.68041
-554.67237
-554.65574
-554.50559
-551.58611
-553.18078
-552.77139
-548.87169
-552.07157
-551.82291
-551.78264
-551.77208
-551.75288
-551.58611
-548.55795
-549.24811
-554.51707
-551.76459
-553.57949
-553.48218
-553.45844
-553.44815
-553.42238
-553.18078
-549.24811
-555.88274
-546.74945
-540.20345
-545.16469
-544.69126
-544.65535
-544.64821
-544.62333
-544.45558
-543.15474
-544.86658
-540.20345
-539.90246
-542.91845
-542.52848
-542.50045
-542.49434
-542.46607
-542.18876
-539.34251
-542.17606
-545.16469
-542.91845
-546.05922
-545.68728
-545.66098
-545.65726
-545.65052
-545.48514
-542.48855
-543.955
-544.69126
-542.52848
-545.68728
-545.31788
-545.29132
-545.28527
-545.27402
-545.13733
-542.24367
-543.85943
-544.65535
-542.50045
-545.66098
-545.29132
-545.2646
-545.25793
-545.2429
-545.10032
-542.20361
-543.83587
-544.64821
-542.49434
-545.65726
-545.28527
-545.25793
-545.25129
-545.23588
-545.09224
-542.19303
-543.82557
-544.62333
-542.46607
-545.65052
-545.27402
-545.2429
-545.23588
-545.22017
-545.07581
-542.17406
-543.80009
-544.45558
-542.18876
-545.48514
-545.13733
-545.10032
-545.09224
-545.07581
-544.92799
-542.00968
-543.56084
-543.15474
-539.34251
-542.48855
-542.24367
-542.20361
-542.19303
-542.17406
-542.00968
-538.98258
-539.61855
-544.86658
-542.17606
-543.955
-543.85943
-543.83587
-543.82557
-543.80009
-543.56084
-539.61855
-546.221
-536.3575
-530.02716
-534.86971
-534.40607
-534.37049
-534.36333
-534.33871
-534.17239
-532.87544
-534.54342
-530.02716
-529.77182
-532.7175
-532.33518
-532.30735
-532.30125
-532.27357
-532.00038
-529.17192
-531.9299
-534.86971
-532.7175
-535.78432
-535.41968
-535.39354
-535.38976
-535.38328
-535.22128
-532.24538
-533.66237
-534.40607
-532.33518
-535.41968
-535.05755
-535.03116
-535.02507
-535.01406
-534.88041
-532.00578
-533.56913
-534.37049
-532.30735
-535.39354
-535.03116
-535.00463
-534.99794
-534.98319
-534.84376
-531.96619
-533.54589
-534.36333
-532.30125
-535.38976
-535.02507
-534.99794
-534.99129
-534.97616
-534.83569
-531.95564
-533.53566
-534.33871
-532.27357
-535.38328
-535.01406
-534.98319
-534.97616
-534.96074
-534.81956
-531.93702
-533.51061
-534.17239
-532.00038
-535.22128
-534.88041
-534.84376
-534.83569
-534.81956
-534.67496
-531.77604
-533.27519
-532.87544
-529.17192
-532.24538
-532.00578
-531.96619
-531.95564
-531.93702
-531.77604
-528.76891
-529.34803
-534.54342
-531.9299
-533.66237
-533.56913
-533.54589
-533.53566
-533.51061
-533.27519
-529.34803
-535.87812
-525.32209
-519.24152
-523.93699
-523.48601
-523.45096
-523.44383
-523.41962
-523.25575
-521.97078
-523.58558
-519.24152
-519.03076
-521.88907
-521.51675
-521.4893
-521.48324
-521.45632
-521.1889
-518.39567
-521.06318
-523.93699
-521.88907
-524.86413
-524.50902
-524.48321
-524.47939
-524.4732
-524.31556
-521.3786
-522.73913
-523.48601
-521.51675
-524.50902
-524.15637
-524.13032
-524.12423
-524.11353
-523.9837
-521.14576
-522.64881
-523.45096
-521.4893
-524.48321
-524.13032
-524.10414
-524.09747
-524.0831
-523.94764
-521.10689
-522.62603
-523.44383
-521.48324
-524.47939
-524.12423
-524.09747
-524.09085
-524.07611
-523.93962
-521.09645
-522.61594
-523.41962
-521.45632
-524.4732
-524.11353
-524.0831
-524.07611
-524.06107
-523.9239
-521.07828
-522.59148
-523.25575
-521.1889
-524.31556
-523.9837
-523.94764
-523.93962
-523.9239
-523.78338
-520.92165
-522.36131
-521.97078
-518.39567
-521.3786
-521.14576
-521.10689
-521.09645
-521.07828
-520.92165
-517.95299
-518.47358
-523.58558
-521.06318
-522.73913
-522.64881
-522.62603
-522.61594
-522.59148
-522.36131
-518.47358
-524.89283
-513.68552
-507.88614
-512.40756
-511.97198
-511.93768
-511.93062
-511.90697
-511.74656
-510.48144
-512.03453
-507.88614
-507.71814
-510.47292
-510.11285
-510.08593
-510.07996
-510.05397
-509.79392
-507.0529
-509.61636
-512.40756
-510.47292
-513.33931
-512.99588
-512.97056
-512.96672
-512.96085
-512.80849
-509.92823
-511.22629
-511.97198
-510.11285
-512.99588
-512.65485
-512.6293
-512.62326
-512.61292
-512.48767
-509.70358
-511.13944
-511.93768
-510.08593
-512.97056
-512.6293
-512.60363
-512.59703
-512.58311
-512.45241
-509.66565
-511.11726
-511.93062
-510.07996
-512.96672
-512.62326
-512.59703
-512.59048
-512.5762
-512.4445
-509.65539
-511.10737
-511.90697
-510.05397
-512.96085
-512.61292
-512.58311
-512.5762
-512.56164
-512.42928
-509.63779
-511.08365
-511.74656
-509.79392
-512.80849
-512.48767
-512.45241
-512.4445
-512.42928
-512.29366
-509.48643
-510.8601
-510.48144
-507.0529
-509.92823
-509.70358
-509.66565
-509.65539
-509.63779
-509.48643
-506.57419
-507.03553
-512.03453
-509.61636
-511.22629
-511.13944
-511.11726
-511.10737
-511.08365
-510.8601
-507.03553
-513.30733
-501.49318
-496.00366
-500.32558
-499.90803
-499.87469
-499.86774
-499.8448
-499.68882
-498.4512
-499.9348
-496.00366
-495.8759
-498.51193
-498.16627
-498.14006
-498.1342
-498.10929
-497.85816
-495.18574
-497.63297
-500.32558
-498.51193
-501.25375
-500.92407
-500.89938
-500.89555
-500.89004
-500.74381
-497.9374
-499.16793
-499.90803
-498.16627
-500.92407
-500.5967
-500.5718
-500.56584
-500.55593
-500.43597
-497.72229
-499.08508
-499.87469
-498.14006
-500.89938
-500.5718
-500.5468
-500.54031
-500.52692
-500.40172
-497.68554
-499.06366
-499.86774
-498.1342
-500.89555
-500.56584
-500.54031
-500.53387
-500.52014
-500.39397
-497.67552
-499.05402
-499.8448
-498.10929
-500.89004
-500.55593
-500.52692
-500.52014
-500.50614
-500.37933
-497.65859
-499.03118
-499.68882
-497.85816
-500.74381
-500.43597
-500.40172
-500.39397
-500.37933
-500.24938
-497.51337
-498.81556
-498.4512
-495.18574
-497.9374
-497.72229
-497.68554
-497.67552
-497.65859
-497.51337
-494.67491
-495.07716
-499.9348
-497.63297
-499.16793
-499.08508
-499.06366
-499.05402
-499.03118
-498.81556
-495.07716
-501.16692
-488.79324
-483.63941
-487.73801
-487.34101
-487.30883
-487.30204
-487.27994
-487.12931
-485.92658
-487.3337
-483.63941
-483.54873
-486.05181
-485.72263
-485.69727
-485.69158
-485.66789
-485.42712
-482.83908
-485.15923
-487.73801
-486.05181
-488.65421
-488.34024
-488.31634
-488.31255
-488.30741
-488.16813
-485.45199
-486.6109
-487.34101
-485.72263
-488.34024
-488.02849
-488.00439
-487.99855
-487.98913
-487.87511
-485.24773
-486.53258
-487.30883
-485.69727
-488.31634
-488.00439
-487.9802
-487.97386
-487.96109
-487.84208
-485.21239
-486.51203
-487.30204
-485.69158
-488.31255
-487.99855
-487.97386
-487.96758
-487.95448
-487.83454
-485.20266
-486.50271
-487.27994
-485.66789
-488.30741
-487.98913
-487.96109
-487.95448
-487.94112
-487.82057
-485.1865
-486.48088
-487.12931
-485.42712
-488.16813
-487.87511
-487.84208
-487.83454
-487.82057
-487.69701
-485.04824
-486.27445
-485.92658
-482.83908
-485.45199
-485.24773
-485.21239
-485.20266
-485.1865
-485.04824
-482.30021
-482.64439
-487.3337
-485.15923
-486.6109
-486.53258
-486.51203
-486.50271
-486.48088
-486.27445
-482.64439
-488.51966
-475.63628
-470.84107
-474.69429
-474.3202
-474.28937
-474.28279
-474.26167
-474.11727
-472.95648
-474.28095
-470.84107
-470.78372
-473.14075
-472.82999
-472.80564
-472.80014
-472.77781
-472.54878
-470.06013
-472.24377
-474.69429
-473.14075
-475.59001
-475.2936
-475.27063
-475.2669
-475.26217
-475.13059
-472.52036
-473.60448
-474.3202
-472.82999
-475.2936
-474.99931
-474.97616
-474.97048
-474.96159
-474.85412
-472.32817
-473.53116
-474.28937
-472.80564
-475.27063
-474.97616
-474.95292
-474.94677
-474.93469
-474.82252
-472.29445
-473.51162
-474.28279
-472.80014
-475.2669
-474.97048
-474.94677
-474.94069
-474.92829
-474.81523
-472.28508
-473.50268
-474.26167
-472.77781
-475.26217
-474.96159
-474.93469
-474.92829
-474.91565
-474.80202
-472.26979
-473.482
-474.11727
-472.54878
-475.13059
-474.85412
-474.82252
-474.81523
-474.80202
-474.68552
-472.13923