/*--------------------------------*- C++ -*----------------------------------*\
| =========                 |                                                 |
| \\      /  F ield         | OpenFOAM: The Open Source CFD Toolbox           |
|  \\    /   O peration     | Version:  v2106                                 |
|   \\  /    A nd           | Website:  www.openfoam.com                      |
|    \\/     M anipulation  |                                                 |
\*---------------------------------------------------------------------------*/
FoamFile
{
    version     2.0;
    format      ascii;
    arch        "LSB;label=32;scalar=64";
    class       volVectorField;
    location    "50";
    object      flux;
}
// * * * * * * * * * * * * * * * * * * * * * * * * * * * * * * * * * * * * * //

dimensions      [0 1 -1 1 0 0 0];

internalField   nonuniform List<vector> 
500
(
(-4.2908965e-07 -4.2908965e-07 1.8732531)
(-8.6261308e-07 -3.7812966e-07 1.8732507)
(-2.4689552e-07 -3.5892278e-07 1.8732499)
(4.6401842e-08 -3.368392e-07 1.8732498)
(4.9545839e-08 -2.8843916e-07 1.8732502)
(-3.7812966e-07 -8.6261308e-07 1.8732507)
(-7.5736277e-07 -7.5736277e-07 1.8732486)
(-1.8495982e-07 -7.007456e-07 1.8732479)
(1.5212728e-07 -6.3999095e-07 1.873248)
(9.7945881e-08 -5.405704e-07 1.8732487)
(-3.5892278e-07 -2.4689552e-07 1.8732499)
(-7.007456e-07 -1.8495983e-07 1.8732479)
(-1.295237e-07 -1.295237e-07 1.8732473)
(2.0657704e-07 -7.9831313e-08 1.8732475)
(1.1582621e-07 -3.7194807e-08 1.8732483)
(-3.368392e-07 4.6401842e-08 1.8732498)
(-6.3999094e-07 1.5212728e-07 1.873248)
(-7.9831308e-08 2.0657704e-07 1.8732475)
(2.4445617e-07 2.4445616e-07 1.8732478)
(1.2637022e-07 2.7159225e-07 1.8732486)
(-2.8843916e-07 4.9545843e-08 1.8732502)
(-5.405704e-07 9.7945885e-08 1.8732487)
(-3.7194814e-08 1.158262e-07 1.8732483)
(2.7159225e-07 1.2637021e-07 1.8732486)
(1.3391693e-07 1.3391693e-07 1.8732495)
(-1.1076589e-06 -1.1076589e-06 1.8732987)
(-2.2428763e-06 -9.6923091e-07 1.8732969)
(-6.0993464e-07 -9.1374222e-07 1.8732963)
(2.967949e-07 -8.4544792e-07 1.8732964)
(2.1689435e-07 -6.8198695e-07 1.873297)
(-9.692309e-07 -2.2428763e-06 1.8732969)
(-1.9520013e-06 -1.9520013e-06 1.8732953)
(-4.2426015e-07 -1.7868627e-06 1.8732948)
(6.444278e-07 -1.6015797e-06 1.873295)
(3.8035532e-07 -1.2767566e-06 1.873296)
(-9.1374222e-07 -6.0993465e-07 1.8732963)
(-1.7868627e-06 -4.2426016e-07 1.8732948)
(-2.5951295e-07 -2.5951296e-07 1.8732944)
(8.06901e-07 -1.0972887e-07 1.8732947)
(4.3344303e-07 1.975878e-08 1.8732958)
(-8.4544791e-07 2.9679491e-07 1.8732964)
(-1.6015796e-06 6.4442781e-07 1.873295)
(-1.0972887e-07 8.0690099e-07 1.8732947)
(9.2369955e-07 9.2369954e-07 1.8732952)
(4.6668042e-07 1.0209029e-06 1.8732963)
(-6.8198695e-07 2.1689436e-07 1.873297)
(-1.2767566e-06 3.8035532e-07 1.873296)
(1.9758778e-08 4.3344303e-07 1.8732958)
(1.0209029e-06 4.6668042e-07 1.8732963)
(4.982453e-07 4.9824529e-07 1.8732976)
(-1.6365362e-06 -1.6365362e-06 1.8733827)
(-3.2909153e-06 -1.4286701e-06 1.8733812)
(-7.7274322e-07 -1.3405873e-06 1.8733808)
(7.8773754e-07 -1.2278174e-06 1.873381)
(4.8291314e-07 -9.5443776e-07 1.8733819)
(-1.4286701e-06 -3.2909153e-06 1.8733812)
(-2.846992e-06 -2.846992e-06 1.8733799)
(-4.7146414e-07 -2.5820546e-06 1.8733796)
(1.3669619e-06 -2.276519e-06 1.87338)
(7.5629273e-07 -1.735633e-06 1.8733811)
(-1.3405873e-06 -7.7274322e-07 1.8733808)
(-2.5820545e-06 -4.7146415e-07 1.8733796)
(-2.0227017e-07 -2.0227018e-07 1.8733794)
(1.6341591e-06 4.6559052e-08 1.8733799)
(8.435038e-07 2.6533426e-07 1.8733811)
(-1.2278174e-06 7.8773756e-07 1.873381)
(-2.276519e-06 1.3669619e-06 1.87338)
(4.6559064e-08 1.6341591e-06 1.8733799)
(1.8345663e-06 1.8345663e-06 1.8733804)
(9.0214287e-07 2.0298507e-06 1.8733817)
(-9.5443776e-07 4.8291315e-07 1.8733819)
(-1.735633e-06 7.5629274e-07 1.8733811)
(2.6533425e-07 8.4350381e-07 1.8733811)
(2.0298507e-06 9.0214287e-07 1.8733817)
(9.7369344e-07 9.7369343e-07 1.8733832)
(-2.0809754e-06 -2.0809754e-06 1.8735069)
(-4.1274881e-06 -1.8118636e-06 1.8735057)
(-7.9013063e-07 -1.6942618e-06 1.8735054)
(1.3755026e-06 -1.5398668e-06 1.8735057)
(7.7307212e-07 -1.1629203e-06 1.8735066)
(-1.8118636e-06 -4.1274881e-06 1.8735057)
(-3.5474178e-06 -3.5474178e-06 1.8735046)
(-3.8213542e-07 -3.1911827e-06 1.8735044)
(2.1725148e-06 -2.7728506e-06 1.8735049)
(1.1500186e-06 -2.0282524e-06 1.8735061)
(-1.6942618e-06 -7.9013063e-07 1.8735054)
(-3.1911827e-06 -3.8213542e-07 1.8735044)
(-1.5563412e-08 -1.5563419e-08 1.8735043)
(2.5384329e-06 3.2733881e-07 1.8735049)
(1.2694709e-06 6.3185956e-07 1.8735061)
(-1.5398668e-06 1.3755026e-06 1.8735057)
(-2.7728505e-06 2.1725148e-06 1.8735049)
(3.2733881e-07 2.5384329e-06 1.8735049)
(2.8199378e-06 2.8199378e-06 1.8735055)
(1.3530324e-06 3.1116954e-06 1.8735069)
(-1.1629203e-06 7.7307213e-07 1.8735066)
(-2.0282524e-06 1.1500186e-06 1.8735061)
(6.3185957e-07 1.2694709e-06 1.8735061)
(3.1116954e-06 1.3530324e-06 1.8735069)
(1.463976e-06 1.463976e-06 1.8735083)
(-2.454688e-06 -2.454688e-06 1.8736681)
(-4.7950322e-06 -2.1315125e-06 1.8736671)
(-7.1268831e-07 -1.9875651e-06 1.8736669)
(1.9929267e-06 -1.7953831e-06 1.8736673)
(1.0617431e-06 -1.3240612e-06 1.8736682)
(-2.1315125e-06 -4.7950322e-06 1.8736671)
(-4.0943479e-06 -4.0943479e-06 1.8736662)
(-2.0849432e-07 -3.6562406e-06 1.8736661)
(2.9881825e-06 -3.1354083e-06 1.8736666)
(1.5330651e-06 -2.2051505e-06 1.8736677)
(-1.9875651e-06 -7.1268831e-07 1.8736669)
(-3.6562406e-06 -2.0849432e-07 1.8736661)
(2.4625129e-07 2.4625129e-07 1.8736661)
(3.4440167e-06 6.7515108e-07 1.8736667)
(1.681915e-06 1.0583999e-06 1.8736679)
(-1.7953831e-06 1.9929267e-06 1.8736673)
(-3.1354083e-06 2.9881825e-06 1.8736666)
(6.7515108e-07 3.4440167e-06 1.8736667)
(3.8003311e-06 3.8003311e-06 1.8736674)
(1.7885643e-06 4.1818027e-06 1.8736686)
(-1.3240612e-06 1.0617431e-06 1.8736682)
(-2.2051505e-06 1.5330651e-06 1.8736677)
(1.0583999e-06 1.681915e-06 1.8736679)
(4.1818027e-06 1.7885643e-06 1.8736686)
(1.9362294e-06 1.9362294e-06 1.87367)
(-2.7581801e-06 -2.7581801e-06 1.8738622)
(-5.3081846e-06 -2.3890109e-06 1.8738614)
(-5.7474268e-07 -2.2223403e-06 1.8738613)
(2.5964609e-06 -1.9971182e-06 1.8738617)
(1.3335261e-06 -1.4430117e-06 1.8738625)
(-2.3890109e-06 -5.3081846e-06 1.8738614)
(-4.504425e-06 -4.504425e-06 1.8738607)
(1.309635e-08 -3.9954295e-06 1.8738607)
(3.7654538e-06 -3.3849313e-06 1.8738612)
(1.8876325e-06 -2.2918607e-06 1.8738622)
(-2.2223403e-06 -5.7474268e-07 1.8738613)
(-3.9954295e-06 1.3096339e-08 1.8738607)
(5.4475101e-07 5.4475101e-07 1.8738608)
(4.3000297e-06 1.0491835e-06 1.8738613)
(2.0622398e-06 1.5018339e-06 1.8738624)
(-1.9971182e-06 2.5964609e-06 1.8738617)
(-3.3849313e-06 3.7654537e-06 1.8738612)
(1.0491835e-06 4.3000297e-06 1.8738613)
(4.7225366e-06 4.7225366e-06 1.8738619)
(2.1893995e-06 5.1844148e-06 1.8738631)
(-1.4430117e-06 1.3335261e-06 1.8738625)
(-2.2918607e-06 1.8876325e-06 1.8738622)
(1.5018339e-06 2.0622398e-06 1.8738624)
(5.1844149e-06 2.1893995e-06 1.8738631)
(2.3701586e-06 2.3701586e-06 1.8738643)
(-2.9885886e-06 -2.9885886e-06 1.8740844)
(-5.6708149e-06 -2.5825384e-06 1.8740838)
(-3.9863588e-07 -2.397269e-06 1.8740838)
(3.1555371e-06 -2.1445578e-06 1.8740841)
(1.5774939e-06 -1.5213095e-06 1.8740848)
(-2.5825384e-06 -5.6708149e-06 1.8740838)
(-4.7838356e-06 -4.7838356e-06 1.8740833)
(2.583351e-07 -4.2165417e-06 1.8740833)
(4.4694764e-06 -3.5314183e-06 1.8740838)
(2.2007422e-06 -2.3024437e-06 1.8740847)
(-2.397269e-06 -3.9863588e-07 1.8740838)
(-4.2165417e-06 2.5833511e-07 1.8740833)
(8.537815e-07 8.5378151e-07 1.8740834)
(5.0696351e-06 1.421343e-06 1.874084)
(2.3968103e-06 1.9322648e-06 1.8740849)
(-2.1445578e-06 3.1555371e-06 1.8740841)
(-3.5314183e-06 4.4694764e-06 1.8740838)
(1.421343e-06 5.0696351e-06 1.874084)
(5.5479598e-06 5.5479597e-06 1.8740845)
(2.5413568e-06 6.0788785e-06 1.8740855)
(-1.5213095e-06 1.5774939e-06 1.8740848)
(-2.3024437e-06 2.2007422e-06 1.8740847)
(1.9322648e-06 2.3968103e-06 1.8740849)
(6.0788785e-06 2.5413568e-06 1.8740855)
(2.7507561e-06 2.7507561e-06 1.8740865)
(-3.1426315e-06 -3.1426315e-06 1.8743291)
(-5.883014e-06 -2.7097022e-06 1.8743287)
(-1.9948748e-07 -2.5104009e-06 1.8743288)
(3.6476114e-06 -2.2364249e-06 1.8743291)
(1.7853548e-06 -1.5593819e-06 1.8743297)
(-2.7097022e-06 -5.883014e-06 1.8743287)
(-4.934668e-06 -4.934668e-06 1.8743285)
(5.1042844e-07 -4.3230602e-06 1.8743286)
(5.0741399e-06 -3.5801873e-06 1.874329)
(2.4623978e-06 -2.2455738e-06 1.8743296)
(-2.5104009e-06 -1.9948749e-07 1.8743288)
(-4.3230602e-06 5.1042843e-07 1.8743286)
(1.1549933e-06 1.1549933e-06 1.8743287)
(5.7250979e-06 1.7717065e-06 1.8743291)
(2.6750971e-06 2.3283141e-06 1.8743299)
(-2.2364249e-06 3.6476114e-06 1.8743291)
(-3.5801872e-06 5.0741399e-06 1.874329)
(1.7717065e-06 5.7250979e-06 1.8743291)
(6.2474607e-06 6.2474607e-06 1.8743296)
(2.8334696e-06 6.8343377e-06 1.8743304)
(-1.5593819e-06 1.7853548e-06 1.8743297)
(-2.2455738e-06 2.4623978e-06 1.8743296)
(2.3283141e-06 2.6750971e-06 1.8743299)
(6.8343377e-06 2.8334696e-06 1.8743304)
(3.0663484e-06 3.0663484e-06 1.8743312)
(-3.217824e-06 -3.217824e-06 1.8745903)
(-5.9446066e-06 -2.7686754e-06 1.8745902)
(1.165013e-08 -2.5602508e-06 1.8745904)
(4.0555916e-06 -2.271757e-06 1.8745907)
(1.9507139e-06 -1.557591e-06 1.8745911)
(-2.7686754e-06 -5.9446066e-06 1.8745902)
(-4.9582468e-06 -4.9582468e-06 1.8745902)
(7.5702772e-07 -4.3173899e-06 1.8745903)
(5.5595812e-06 -3.535063e-06 1.8745906)
(2.6648799e-06 -2.1276773e-06 1.8745911)
(-2.5602508e-06 1.1650136e-08 1.8745904)
(-4.3173899e-06 7.5702772e-07 1.8745903)
(1.4348339e-06 1.4348339e-06 1.8745905)
(6.2453042e-06 2.0855085e-06 1.8745908)
(2.888971e-06 2.6740894e-06 1.8745914)
(-2.271757e-06 4.0555916e-06 1.8745907)
(-3.535063e-06 5.5595812e-06 1.8745906)
(2.0855085e-06 6.2453042e-06 1.8745908)
(6.7988367e-06 6.7988367e-06 1.8745912)
(3.0572671e-06 7.4272116e-06 1.8745918)
(-1.557591e-06 1.9507139e-06 1.8745911)
(-2.1276773e-06 2.6648798e-06 1.8745911)
(2.6740894e-06 2.888971e-06 1.8745914)
(7.4272116e-06 3.0572671e-06 1.8745918)
(3.3078876e-06 3.3078876e-06 1.8745924)
(-3.2130738e-06 -3.2130738e-06 1.8748617)
(-5.8570392e-06 -2.7587651e-06 1.8748618)
(2.2593898e-07 -2.5463497e-06 1.874862)
(4.3664907e-06 -2.2504423e-06 1.8748623)
(2.0687488e-06 -1.5167388e-06 1.8748625)
(-2.7587651e-06 -5.8570392e-06 1.8748618)
(-4.856953e-06 -4.856953e-06 1.874862)
(9.8842315e-07 -4.2026295e-06 1.8748621)
(5.9109071e-06 -3.4001148e-06 1.8748624)
(2.8024523e-06 -1.9546139e-06 1.8748627)
(-2.5463497e-06 2.2593898e-07 1.874862)
(-4.2026295e-06 9.8842314e-07 1.8748621)
(1.6827773e-06 1.6827773e-06 1.8748623)
(6.6145063e-06 2.3513872e-06 1.8748626)
(3.032416e-06 2.9574436e-06 1.8748629)
(-2.2504423e-06 4.3664907e-06 1.8748623)
(-3.4001148e-06 5.9109071e-06 1.8748624)
(2.3513872e-06 6.6145063e-06 1.8748626)
(7.1855734e-06 7.1855734e-06 1.8748629)
(3.2064899e-06 7.8399674e-06 1.8748632)
(-1.5167388e-06 2.0687488e-06 1.8748625)
(-1.954614e-06 2.8024523e-06 1.8748627)
(2.9574436e-06 3.032416e-06 1.8748629)
(7.8399674e-06 3.2064899e-06 1.8748632)
(3.4686787e-06 3.4686787e-06 1.8748636)
(-3.1289974e-06 -3.1289974e-06 1.8751365)
(-5.6244258e-06 -2.6807153e-06 1.8751368)
(4.3568822e-07 -2.4695402e-06 1.8751371)
(4.5707023e-06 -2.173506e-06 1.8751372)
(2.1360563e-06 -1.4383313e-06 1.8751374)
(-2.6807153e-06 -5.6244258e-06 1.8751368)
(-4.6352399e-06 -4.63524e-06 1.8751372)
(1.1965021e-06 -3.983564e-06 1.8751374)
(6.1175156e-06 -3.1806246e-06 1.8751375)
(2.8712309e-06 -1.7326034e-06 1.8751376)
(-2.4695402e-06 4.3568824e-07 1.8751371)
(-3.983564e-06 1.1965021e-06 1.8751374)
(1.8903036e-06 1.8903036e-06 1.8751376)
(6.8216629e-06 2.560382e-06 1.8751378)
(3.1014037e-06 3.1689874e-06 1.8751378)
(-2.173506e-06 4.5707023e-06 1.8751372)
(-3.1806246e-06 6.1175156e-06 1.8751375)
(2.560382e-06 6.8216629e-06 1.8751378)
(7.3961994e-06 7.3961994e-06 1.8751379)
(3.2769679e-06 8.0604956e-06 1.875138)
(-1.4383313e-06 2.1360563e-06 1.8751374)
(-1.7326034e-06 2.871231e-06 1.8751376)
(3.1689874e-06 3.1014037e-06 1.8751378)
(8.0604956e-06 3.2769679e-06 1.875138)
(3.5442679e-06 3.5442679e-06 1.8751381)
(-2.9680873e-06 -2.9680873e-06 1.8754079)
(-5.254153e-06 -2.5368713e-06 1.8754085)
(6.3368436e-07 -2.3321377e-06 1.8754087)
(4.6615427e-06 -2.0432674e-06 1.8754088)
(2.1505575e-06 -1.3247242e-06 1.8754088)
(-2.5368713e-06 -5.254153e-06 1.8754085)
(-4.3002286e-06 -4.3002286e-06 1.875409)
(1.3740903e-06 -3.667251e-06 1.8754092)
(6.1726629e-06 -2.8836618e-06 1.8754093)
(2.8691006e-06 -1.4687771e-06 1.8754092)
(-2.3321377e-06 6.3368437e-07 1.8754087)
(-3.667251e-06 1.3740903e-06 1.8754092)
(2.0502511e-06 2.0502512e-06 1.8754095)
(6.8600165e-06 2.7052944e-06 1.8754095)
(3.093814e-06 3.3014604e-06 1.8754094)
(-2.0432674e-06 4.6615427e-06 1.8754088)
(-2.8836618e-06 6.1726629e-06 1.8754093)
(2.7052944e-06 6.8600165e-06 1.8754095)
(7.4238721e-06 7.4238721e-06 1.8754095)
(3.2665446e-06 8.0817114e-06 1.8754094)
(-1.3247242e-06 2.1505575e-06 1.8754088)
(-1.4687772e-06 2.8691006e-06 1.8754092)
(3.3014604e-06 3.0938139e-06 1.8754094)
(8.0817114e-06 3.2665446e-06 1.8754094)
(3.5323735e-06 3.5323735e-06 1.8754092)
(-2.7348055e-06 -2.7348055e-06 1.8756693)
(-4.7572975e-06 -2.3312763e-06 1.8756701)
(8.1263813e-07 -2.1380281e-06 1.8756704)
(4.634827e-06 -1.8634367e-06 1.8756704)
(2.1113997e-06 -1.179219e-06 1.8756702)
(-2.3312763e-06 -4.7572975e-06 1.8756701)
(-3.8621314e-06 -3.8621314e-06 1.8756708)
(1.5143975e-06 -3.2634459e-06 1.875671)
(6.0730407e-06 -2.5185087e-06 1.875671)
(2.7956175e-06 -1.171603e-06 1.8756707)
(-2.1380281e-06 8.1263814e-07 1.8756704)
(-3.2634459e-06 1.5143975e-06 1.875671)
(2.1562608e-06 2.1562608e-06 1.8756713)
(6.72667e-06 2.7801324e-06 1.8756712)
(3.0093369e-06 3.3491757e-06 1.8756708)
(-1.8634368e-06 4.634827e-06 1.8756704)
(-2.5185087e-06 6.0730407e-06 1.875671)
(2.7801324e-06 6.72667e-06 1.8756712)
(7.2659555e-06 7.2659555e-06 1.8756711)
(3.1749797e-06 7.9011376e-06 1.8756707)
(-1.179219e-06 2.1113997e-06 1.8756702)
(-1.171603e-06 2.7956175e-06 1.8756707)
(3.3491757e-06 3.0093369e-06 1.8756708)
(7.9011376e-06 3.1749797e-06 1.8756707)
(3.4327916e-06 3.4327916e-06 1.8756703)
(-2.4356586e-06 -2.4356585e-06 1.8759142)
(-4.1490648e-06 -2.0697571e-06 1.8759152)
(9.6450578e-07 -1.8927569e-06 1.8759155)
(4.4882851e-06 -1.6392104e-06 1.8759154)
(2.0188016e-06 -1.0061682e-06 1.8759151)
(-2.0697571e-06 -4.1490648e-06 1.8759152)
(-3.3347123e-06 -3.3347123e-06 1.875916)
(1.6103258e-06 -2.7850735e-06 1.8759163)
(5.8181682e-06 -2.0971452e-06 1.8759162)
(2.6518439e-06 -8.5139198e-07 1.8759156)
(-1.8927569e-06 9.6450577e-07 1.8759155)
(-2.7850735e-06 1.6103258e-06 1.8759163)
(2.2020728e-06 2.2020728e-06 1.8759165)
(6.4219667e-06 2.7793955e-06 1.8759163)
(2.8493038e-06 3.3072953e-06 1.8759157)
(-1.6392104e-06 4.4882852e-06 1.8759154)
(-2.0971452e-06 5.8181682e-06 1.8759162)
(2.7793955e-06 6.4219667e-06 1.8759163)
(6.9233907e-06 6.9233907e-06 1.8759161)
(3.0037771e-06 7.5202693e-06 1.8759155)
(-1.0061682e-06 2.0188016e-06 1.8759151)
(-8.5139199e-07 2.6518439e-06 1.8759156)
(3.3072953e-06 2.8493038e-06 1.8759157)
(7.5202693e-06 3.0037771e-06 1.8759155)
(3.2472228e-06 3.2472228e-06 1.8759148)
(-2.0793347e-06 -2.0793347e-06 1.8761366)
(-3.4495142e-06 -1.7600757e-06 1.8761378)
(1.0794061e-06 -1.6036868e-06 1.8761381)
(4.2205941e-06 -1.3774368e-06 1.8761379)
(1.8737839e-06 -8.1116447e-07 1.8761374)
(-1.7600757e-06 -3.4495141e-06 1.8761378)
(-2.7360424e-06 -2.7360424e-06 1.8761387)
(1.6533645e-06 -2.2490012e-06 1.876139)
(5.4093777e-06 -1.6350496e-06 1.8761388)
(2.4400562e-06 -5.2114635e-07 1.876138)
(-1.6036868e-06 1.0794061e-06 1.8761381)
(-2.2490012e-06 1.6533645e-06 1.876139)
(2.1803989e-06 2.1803989e-06 1.8761392)
(5.948449e-06 2.6969211e-06 1.8761389)
(2.6163861e-06 3.1706524e-06 1.8761381)
(-1.3774368e-06 4.2205941e-06 1.8761379)
(-1.6350496e-06 5.4093777e-06 1.8761388)
(2.6969211e-06 5.948449e-06 1.8761389)
(6.3996312e-06 6.3996312e-06 1.8761385)
(2.7558771e-06 6.9434871e-06 1.8761377)
(-8.1116448e-07 1.8737839e-06 1.8761374)
(-5.2114636e-07 2.4400562e-06 1.876138)
(3.1706524e-06 2.6163861e-06 1.8761381)
(6.9434871e-06 2.7558771e-06 1.8761377)
(2.9789567e-06 2.9789567e-06 1.8761367)
(-1.6770534e-06 -1.6770534e-06 1.8763311)
(-2.6850079e-06 -1.4122915e-06 1.8763324)
(1.143751e-06 -1.2803627e-06 1.8763327)
(3.8297138e-06 -1.0869965e-06 1.8763324)
(1.67769e-06 -6.0145847e-07 1.8763318)
(-1.4122915e-06 -2.6850079e-06 1.8763324)
(-2.0899718e-06 -2.0899718e-06 1.8763335)
(1.6316935e-06 -1.677524e-06 1.8763337)
(4.8480701e-06 -1.1527257e-06 1.8763333)
(2.1632281e-06 -1.9816792e-07 1.8763324)
(-1.2803627e-06 1.1437509e-06 1.8763327)
(-1.677524e-06 1.6316935e-06 1.8763337)
(2.080997e-06 2.080997e-06 1.8763338)
(5.3090698e-06 2.5239136e-06 1.8763334)
(2.3140619e-06 2.9317321e-06 1.8763324)
(-1.0869965e-06 3.8297138e-06 1.8763324)
(-1.1527257e-06 4.8480701e-06 1.8763333)
(2.5239136e-06 5.3090699e-06 1.8763334)
(5.6988052e-06 5.6988052e-06 1.8763329)
(2.4351071e-06 6.1761708e-06 1.8763318)
(-6.0145848e-07 1.67769e-06 1.8763318)
(-1.9816792e-07 2.1632281e-06 1.8763324)
(2.9317321e-06 2.3140619e-06 1.8763324)
(6.1761708e-06 2.4351071e-06 1.8763318)
(2.6323057e-06 2.6323057e-06 1.8763307)
(-1.2435213e-06 -1.2435213e-06 1.876493)
(-1.8912637e-06 -1.0396939e-06 1.8764943)
(1.1370938e-06 -9.3542796e-07 1.8764945)
(3.3100191e-06 -7.7974142e-07 1.8764941)
(1.4312957e-06 -3.8696832e-07 1.8764933)
(-1.0396939e-06 -1.8912637e-06 1.8764943)
(-1.4291237e-06 -1.4291237e-06 1.8764954)
(1.5270225e-06 -1.101328e-06 1.8764956)
(4.1327085e-06 -6.7873096e-07 1.8764951)
(1.8240688e-06 9.276004e-08 1.876494)
(-9.3542795e-07 1.1370937e-06 1.8764945)
(-1.1013279e-06 1.5270225e-06 1.8764956)
(1.8874865e-06 1.8874865e-06 1.8764956)
(4.5041071e-06 2.245681e-06 1.876495)
(1.945623e-06 2.5773066e-06 1.8764938)
(-7.7974141e-07 3.310019e-06 1.8764941)
(-6.7873094e-07 4.1327085e-06 1.8764951)
(2.245681e-06 4.5041071e-06 1.876495)
(4.8225286e-06 4.8225286e-06 1.8764944)
(2.0451525e-06 5.2213878e-06 1.8764931)
(-3.8696832e-07 1.4312957e-06 1.8764933)
(9.276006e-08 1.8240688e-06 1.876494)
(2.5773066e-06 1.945623e-06 1.8764938)
(5.2213878e-06 2.0451525e-06 1.8764931)
(2.2115292e-06 2.2115292e-06 1.8764917)
(-7.997329e-07 -7.997329e-07 1.8766182)
(-1.1200546e-06 -6.6138617e-07 1.8766195)
(1.0274772e-06 -5.8712286e-07 1.8766196)
(2.6473632e-06 -4.7303758e-07 1.8766191)
(1.1329539e-06 -1.8301882e-07 1.8766181)
(-6.6138617e-07 -1.1200546e-06 1.8766195)
(-8.0113951e-07 -8.0113952e-07 1.8766206)
(1.31e-06 -5.6554835e-07 1.8766206)
(3.2535193e-06 -2.5583827e-07 1.87662)
(1.4229726e-06 3.1282764e-07 1.8766187)
(-5.8712286e-07 1.0274771e-06 1.8766196)
(-5.6554835e-07 1.31e-06 1.8766206)
(1.5727784e-06 1.5727784e-06 1.8766206)
(3.5257392e-06 1.8369366e-06 1.8766198)
(1.5120645e-06 2.0835091e-06 1.8766184)
(-4.7303759e-07 2.6473632e-06 1.8766191)
(-2.5583826e-07 3.2535193e-06 1.87662)
(1.8369366e-06 3.5257392e-06 1.8766198)
(3.76425e-06 3.76425e-06 1.876619)
(1.5873543e-06 4.0738652e-06 1.8766175)
(-1.8301881e-07 1.1329539e-06 1.8766181)
(3.1282765e-07 1.4229726e-06 1.8766187)
(2.0835091e-06 1.5120645e-06 1.8766184)
(4.0738652e-06 1.5873543e-06 1.8766175)
(1.7184746e-06 1.7184746e-06 1.8766159)
(-3.8219115e-07 -3.8219115e-07 1.876704)
(-4.550301e-07 -3.1028066e-07 1.876705)
(7.6775869e-07 -2.6700013e-07 1.876705)
(1.8103319e-06 -1.9759031e-07 1.8767043)
(7.7388657e-07 -1.9000597e-08 1.8767031)
(-3.1028066e-07 -4.5503009e-07 1.876705)
(-2.8224357e-07 -2.8224356e-07 1.8767059)
(9.3679421e-07 -1.4275959e-07 1.8767058)
(2.1823312e-06 4.5809365e-08 1.876705)
(9.5247628e-07 3.9475316e-07 1.8767034)
(-2.6700013e-07 7.6775868e-07 1.876705)
(-1.427596e-07 9.3679419e-07 1.8767058)
(1.0958116e-06 1.0958116e-06 1.8767056)
(2.3478447e-06 1.2583781e-06 1.8767047)
(1.0065158e-06 1.4120176e-06 1.876703)
(-1.9759031e-07 1.8103319e-06 1.8767043)
(4.5809372e-08 2.1823312e-06 1.876705)
(1.2583781e-06 2.3478447e-06 1.8767047)
(2.4985372e-06 2.4985371e-06 1.8767036)
(1.0549026e-06 2.707913e-06 1.8767019)
(-1.90006e-08 7.7388657e-07 1.8767031)
(3.9475317e-07 9.5247629e-07 1.8767034)
(1.4120176e-06 1.0065158e-06 1.876703)
(2.707913e-06 1.0549026e-06 1.8767019)
(1.1460997e-06 1.1460997e-06 1.8767)
(-7.7251216e-08 -7.7251216e-08 1.8767526)
(-5.3398131e-08 -6.070508e-08 1.8767532)
(3.1011441e-07 -4.7197576e-08 1.876753)
(7.3279917e-07 -2.4768733e-08 1.8767521)
(3.234423e-07 2.9845097e-08 1.8767504)
(-6.070508e-08 -5.3398131e-08 1.8767532)
(-8.3176701e-09 -8.3176701e-09 1.8767537)
(3.6401893e-07 3.6486545e-08 1.8767534)
(8.4836318e-07 9.8322042e-08 1.8767524)
(3.7805613e-07 2.0714688e-07 1.8767503)
(-4.7197576e-08 3.1011441e-07 1.876753)
(3.6486545e-08 3.6401894e-07 1.8767534)
(4.1675412e-07 4.1675412e-07 1.8767531)
(9.034595e-07 4.7200444e-07 1.8767519)
(3.9599219e-07 5.2600702e-07 1.8767497)
(-2.4768729e-08 7.3279916e-07 1.8767521)
(9.8322042e-08 8.4836318e-07 1.8767524)
(4.7200443e-07 9.0345952e-07 1.8767519)
(9.5761608e-07 9.5761609e-07 1.8767506)
(4.1405786e-07 1.0481577e-06 1.8767483)
(2.9845099e-08 3.234423e-07 1.8767504)
(2.071469e-07 3.7805613e-07 1.8767503)
(5.2600703e-07 3.959922e-07 1.8767497)
(1.0481577e-06 4.1405786e-07 1.8767483)
(4.5635327e-07 4.5635328e-07 1.8767458)
)
;

boundaryField
{
    wall_minX
    {
        type            calculated;
        value           nonuniform List<vector> 
100
(
(0 -4.2908965e-07 1.8732531)
(0 -8.6261308e-07 1.8732507)
(0 -2.4689552e-07 1.8732499)
(0 4.6401842e-08 1.8732498)
(0 4.9545843e-08 1.8732502)
(0 -1.1076589e-06 1.8732987)
(0 -2.2428763e-06 1.8732969)
(0 -6.0993465e-07 1.8732963)
(0 2.9679491e-07 1.8732964)
(0 2.1689436e-07 1.873297)
(0 -1.6365362e-06 1.8733827)
(0 -3.2909153e-06 1.8733812)
(0 -7.7274322e-07 1.8733808)
(0 7.8773756e-07 1.873381)
(0 4.8291315e-07 1.8733819)
(0 -2.0809754e-06 1.8735069)
(0 -4.1274881e-06 1.8735057)
(0 -7.9013063e-07 1.8735054)
(0 1.3755026e-06 1.8735057)
(0 7.7307213e-07 1.8735066)
(0 -2.454688e-06 1.8736681)
(0 -4.7950322e-06 1.8736671)
(0 -7.1268831e-07 1.8736669)
(0 1.9929267e-06 1.8736673)
(0 1.0617431e-06 1.8736682)
(0 -2.7581801e-06 1.8738622)
(0 -5.3081846e-06 1.8738614)
(0 -5.7474268e-07 1.8738613)
(0 2.5964609e-06 1.8738617)
(0 1.3335261e-06 1.8738625)
(0 -2.9885886e-06 1.8740844)
(0 -5.6708149e-06 1.8740838)
(0 -3.9863588e-07 1.8740838)
(0 3.1555371e-06 1.8740841)
(0 1.5774939e-06 1.8740848)
(0 -3.1426315e-06 1.8743291)
(0 -5.883014e-06 1.8743287)
(0 -1.9948749e-07 1.8743288)
(0 3.6476114e-06 1.8743291)
(0 1.7853548e-06 1.8743297)
(0 -3.217824e-06 1.8745903)
(0 -5.9446066e-06 1.8745902)
(0 1.1650136e-08 1.8745904)
(0 4.0555916e-06 1.8745907)
(0 1.9507139e-06 1.8745911)
(0 -3.2130738e-06 1.8748617)
(0 -5.8570392e-06 1.8748618)
(0 2.2593898e-07 1.874862)
(0 4.3664907e-06 1.8748623)
(0 2.0687488e-06 1.8748625)
(0 -3.1289974e-06 1.8751365)
(0 -5.6244258e-06 1.8751368)
(0 4.3568824e-07 1.8751371)
(0 4.5707023e-06 1.8751372)
(0 2.1360563e-06 1.8751374)
(0 -2.9680873e-06 1.8754079)
(0 -5.254153e-06 1.8754085)
(0 6.3368437e-07 1.8754087)
(0 4.6615427e-06 1.8754088)
(0 2.1505575e-06 1.8754088)
(0 -2.7348055e-06 1.8756693)
(0 -4.7572975e-06 1.8756701)
(0 8.1263814e-07 1.8756704)
(0 4.634827e-06 1.8756704)
(0 2.1113997e-06 1.8756702)
(0 -2.4356585e-06 1.8759142)
(0 -4.1490648e-06 1.8759152)
(0 9.6450577e-07 1.8759155)
(0 4.4882852e-06 1.8759154)
(0 2.0188016e-06 1.8759151)
(0 -2.0793347e-06 1.8761366)
(0 -3.4495141e-06 1.8761378)
(0 1.0794061e-06 1.8761381)
(0 4.2205941e-06 1.8761379)
(0 1.8737839e-06 1.8761374)
(0 -1.6770534e-06 1.8763311)
(0 -2.6850079e-06 1.8763324)
(0 1.1437509e-06 1.8763327)
(0 3.8297138e-06 1.8763324)
(0 1.67769e-06 1.8763318)
(0 -1.2435213e-06 1.876493)
(0 -1.8912637e-06 1.8764943)
(0 1.1370937e-06 1.8764945)
(0 3.310019e-06 1.8764941)
(0 1.4312957e-06 1.8764933)
(0 -7.997329e-07 1.8766182)
(0 -1.1200546e-06 1.8766195)
(0 1.0274771e-06 1.8766196)
(0 2.6473632e-06 1.8766191)
(0 1.1329539e-06 1.8766181)
(0 -3.8219115e-07 1.876704)
(0 -4.5503009e-07 1.876705)
(0 7.6775868e-07 1.876705)
(0 1.8103319e-06 1.8767043)
(0 7.7388657e-07 1.8767031)
(0 -7.7251216e-08 1.8767526)
(0 -5.3398131e-08 1.8767532)
(0 3.1011441e-07 1.876753)
(0 7.3279916e-07 1.8767521)
(0 3.234423e-07 1.8767504)
)
;
    }
    wall_maxX
    {
        type            calculated;
        value           nonuniform List<vector> 
100
(
(0 -2.8843916e-07 1.8732502)
(0 -5.405704e-07 1.8732487)
(0 -3.7194807e-08 1.8732483)
(0 2.7159225e-07 1.8732486)
(0 1.3391693e-07 1.8732495)
(0 -6.8198695e-07 1.873297)
(0 -1.2767566e-06 1.873296)
(0 1.975878e-08 1.8732958)
(0 1.0209029e-06 1.8732963)
(0 4.9824529e-07 1.8732976)
(0 -9.5443776e-07 1.8733819)
(0 -1.735633e-06 1.8733811)
(0 2.6533426e-07 1.8733811)
(0 2.0298507e-06 1.8733817)
(0 9.7369343e-07 1.8733832)
(0 -1.1629203e-06 1.8735066)
(0 -2.0282524e-06 1.8735061)
(0 6.3185956e-07 1.8735061)
(0 3.1116954e-06 1.8735069)
(0 1.463976e-06 1.8735083)
(0 -1.3240612e-06 1.8736682)
(0 -2.2051505e-06 1.8736677)
(0 1.0583999e-06 1.8736679)
(0 4.1818027e-06 1.8736686)
(0 1.9362294e-06 1.87367)
(0 -1.4430117e-06 1.8738625)
(0 -2.2918607e-06 1.8738622)
(0 1.5018339e-06 1.8738624)
(0 5.1844148e-06 1.8738631)
(0 2.3701586e-06 1.8738643)
(0 -1.5213095e-06 1.8740848)
(0 -2.3024437e-06 1.8740847)
(0 1.9322648e-06 1.8740849)
(0 6.0788785e-06 1.8740855)
(0 2.7507561e-06 1.8740865)
(0 -1.5593819e-06 1.8743297)
(0 -2.2455738e-06 1.8743296)
(0 2.3283141e-06 1.8743299)
(0 6.8343377e-06 1.8743304)
(0 3.0663484e-06 1.8743312)
(0 -1.557591e-06 1.8745911)
(0 -2.1276773e-06 1.8745911)
(0 2.6740894e-06 1.8745914)
(0 7.4272116e-06 1.8745918)
(0 3.3078876e-06 1.8745924)
(0 -1.5167388e-06 1.8748625)
(0 -1.9546139e-06 1.8748627)
(0 2.9574436e-06 1.8748629)
(0 7.8399674e-06 1.8748632)
(0 3.4686787e-06 1.8748636)
(0 -1.4383313e-06 1.8751374)
(0 -1.7326034e-06 1.8751376)
(0 3.1689874e-06 1.8751378)
(0 8.0604956e-06 1.875138)
(0 3.5442679e-06 1.8751381)
(0 -1.3247242e-06 1.8754088)
(0 -1.4687771e-06 1.8754092)
(0 3.3014604e-06 1.8754094)
(0 8.0817114e-06 1.8754094)
(0 3.5323735e-06 1.8754092)
(0 -1.179219e-06 1.8756702)
(0 -1.171603e-06 1.8756707)
(0 3.3491757e-06 1.8756708)
(0 7.9011376e-06 1.8756707)
(0 3.4327916e-06 1.8756703)
(0 -1.0061682e-06 1.8759151)
(0 -8.5139198e-07 1.8759156)
(0 3.3072953e-06 1.8759157)
(0 7.5202693e-06 1.8759155)
(0 3.2472228e-06 1.8759148)
(0 -8.1116447e-07 1.8761374)
(0 -5.2114635e-07 1.876138)
(0 3.1706524e-06 1.8761381)
(0 6.9434871e-06 1.8761377)
(0 2.9789567e-06 1.8761367)
(0 -6.0145847e-07 1.8763318)
(0 -1.9816792e-07 1.8763324)
(0 2.9317321e-06 1.8763324)
(0 6.1761708e-06 1.8763318)
(0 2.6323057e-06 1.8763307)
(0 -3.8696832e-07 1.8764933)
(0 9.276004e-08 1.876494)
(0 2.5773066e-06 1.8764938)
(0 5.2213878e-06 1.8764931)
(0 2.2115292e-06 1.8764917)
(0 -1.8301882e-07 1.8766181)
(0 3.1282764e-07 1.8766187)
(0 2.0835091e-06 1.8766184)
(0 4.0738652e-06 1.8766175)
(0 1.7184746e-06 1.8766159)
(0 -1.9000597e-08 1.8767031)
(0 3.9475316e-07 1.8767034)
(0 1.4120176e-06 1.876703)
(0 2.707913e-06 1.8767019)
(0 1.1460997e-06 1.8767)
(0 2.9845097e-08 1.8767504)
(0 2.0714688e-07 1.8767503)
(0 5.2600702e-07 1.8767497)
(0 1.0481577e-06 1.8767483)
(0 4.5635328e-07 1.8767458)
)
;
    }
    wall_minY
    {
        type            calculated;
        value           nonuniform List<vector> 
100
(
(-4.2908965e-07 0 1.8732531)
(-1.1076589e-06 0 1.8732987)
(-1.6365362e-06 0 1.8733827)
(-2.0809754e-06 0 1.8735069)
(-2.454688e-06 0 1.8736681)
(-2.7581801e-06 0 1.8738622)
(-2.9885886e-06 0 1.8740844)
(-3.1426315e-06 0 1.8743291)
(-3.217824e-06 0 1.8745903)
(-3.2130738e-06 0 1.8748617)
(-3.1289974e-06 0 1.8751365)
(-2.9680873e-06 0 1.8754079)
(-2.7348055e-06 0 1.8756693)
(-2.4356586e-06 0 1.8759142)
(-2.0793347e-06 0 1.8761366)
(-1.6770534e-06 0 1.8763311)
(-1.2435213e-06 0 1.876493)
(-7.997329e-07 0 1.8766182)
(-3.8219115e-07 0 1.876704)
(-7.7251216e-08 0 1.8767526)
(-8.6261308e-07 0 1.8732507)
(-2.2428763e-06 0 1.8732969)
(-3.2909153e-06 0 1.8733812)
(-4.1274881e-06 0 1.8735057)
(-4.7950322e-06 0 1.8736671)
(-5.3081846e-06 0 1.8738614)
(-5.6708149e-06 0 1.8740838)
(-5.883014e-06 0 1.8743287)
(-5.9446066e-06 0 1.8745902)
(-5.8570392e-06 0 1.8748618)
(-5.6244258e-06 0 1.8751368)
(-5.254153e-06 0 1.8754085)
(-4.7572975e-06 0 1.8756701)
(-4.1490648e-06 0 1.8759152)
(-3.4495142e-06 0 1.8761378)
(-2.6850079e-06 0 1.8763324)
(-1.8912637e-06 0 1.8764943)
(-1.1200546e-06 0 1.8766195)
(-4.550301e-07 0 1.876705)
(-5.3398131e-08 0 1.8767532)
(-2.4689552e-07 0 1.8732499)
(-6.0993464e-07 0 1.8732963)
(-7.7274322e-07 0 1.8733808)
(-7.9013063e-07 0 1.8735054)
(-7.1268831e-07 0 1.8736669)
(-5.7474268e-07 0 1.8738613)
(-3.9863588e-07 0 1.8740838)
(-1.9948748e-07 0 1.8743288)
(1.165013e-08 0 1.8745904)
(2.2593898e-07 0 1.874862)
(4.3568822e-07 0 1.8751371)
(6.3368436e-07 0 1.8754087)
(8.1263813e-07 0 1.8756704)
(9.6450578e-07 0 1.8759155)
(1.0794061e-06 0 1.8761381)
(1.143751e-06 0 1.8763327)
(1.1370938e-06 0 1.8764945)
(1.0274772e-06 0 1.8766196)
(7.6775869e-07 0 1.876705)
(3.1011441e-07 0 1.876753)
(4.6401842e-08 0 1.8732498)
(2.967949e-07 0 1.8732964)
(7.8773754e-07 0 1.873381)
(1.3755026e-06 0 1.8735057)
(1.9929267e-06 0 1.8736673)
(2.5964609e-06 0 1.8738617)
(3.1555371e-06 0 1.8740841)
(3.6476114e-06 0 1.8743291)
(4.0555916e-06 0 1.8745907)
(4.3664907e-06 0 1.8748623)
(4.5707023e-06 0 1.8751372)
(4.6615427e-06 0 1.8754088)
(4.634827e-06 0 1.8756704)
(4.4882851e-06 0 1.8759154)
(4.2205941e-06 0 1.8761379)
(3.8297138e-06 0 1.8763324)
(3.3100191e-06 0 1.8764941)
(2.6473632e-06 0 1.8766191)
(1.8103319e-06 0 1.8767043)
(7.3279917e-07 0 1.8767521)
(4.9545839e-08 0 1.8732502)
(2.1689435e-07 0 1.873297)
(4.8291314e-07 0 1.8733819)
(7.7307212e-07 0 1.8735066)
(1.0617431e-06 0 1.8736682)
(1.3335261e-06 0 1.8738625)
(1.5774939e-06 0 1.8740848)
(1.7853548e-06 0 1.8743297)
(1.9507139e-06 0 1.8745911)
(2.0687488e-06 0 1.8748625)
(2.1360563e-06 0 1.8751374)
(2.1505575e-06 0 1.8754088)
(2.1113997e-06 0 1.8756702)
(2.0188016e-06 0 1.8759151)
(1.8737839e-06 0 1.8761374)
(1.67769e-06 0 1.8763318)
(1.4312957e-06 0 1.8764933)
(1.1329539e-06 0 1.8766181)
(7.7388657e-07 0 1.8767031)
(3.234423e-07 0 1.8767504)
)
;
    }