/*--------------------------------*- C++ -*----------------------------------*\
| =========                 |                                                 |
| \\      /  F ield         | OpenFOAM: The Open Source CFD Toolbox           |
|  \\    /   O peration     | Version:  v2106                                 |
|   \\  /    A nd           | Website:  www.openfoam.com                      |
|    \\/     M anipulation  |                                                 |
\*---------------------------------------------------------------------------*/
FoamFile
{
    version     2.0;
    format      ascii;
    arch        "LSB;label=32;scalar=64";
    class       volScalarField;
    location    "50";
    object      gradTy;
}
// * * * * * * * * * * * * * * * * * * * * * * * * * * * * * * * * * * * * * //

dimensions      [0 -1 0 1 0 0 0];

internalField   nonuniform List<scalar> 
500
(
-0.00017163586
-0.00015125186
-0.00014356911
-0.00013473568
-0.00011537566
-0.00034504523
-0.00030294511
-0.00028029824
-0.00025599638
-0.00021622816
-9.8758209e-05
-7.3983932e-05
-5.1809479e-05
-3.1932525e-05
-1.4877923e-05
1.8560737e-05
6.085091e-05
8.2630816e-05
9.7782466e-05
0.0001086369
1.9818337e-05
3.9178354e-05
4.6330481e-05
5.0548086e-05
5.356677e-05
-0.00044306354
-0.00038769236
-0.00036549689
-0.00033817917
-0.00027279478
-0.00089715053
-0.00078080054
-0.0007147451
-0.00064063186
-0.00051070266
-0.00024397386
-0.00016970406
-0.00010380519
-4.3891548e-05
7.9035122e-06
0.00011871796
0.00025777112
0.0003227604
0.00036947981
0.00040836118
8.6757743e-05
0.00015214213
0.00017337721
0.00018667217
0.00019929812
-0.00065461447
-0.00057146803
-0.00053623492
-0.00049112694
-0.0003817751
-0.0013163661
-0.0011387968
-0.0010328218
-0.00091060759
-0.00069425319
-0.00030909729
-0.00018858566
-8.0908073e-05
1.8623621e-05
0.0001061337
0.00031509502
0.00054678474
0.00065366365
0.00073382651
0.0008119403
0.00019316526
0.0003025171
0.00033740152
0.00036085715
0.00038947737
-0.00083239015
-0.00072474543
-0.00067770472
-0.00061594671
-0.00046516813
-0.0016509952
-0.0014189671
-0.0012764731
-0.0011091402
-0.00081130096
-0.00031605225
-0.00015285417
-6.2253676e-06
0.00013093552
0.00025274382
0.00055020105
0.00086900594
0.0010153732
0.0011279751
0.0012446782
0.00030922885
0.00046000743
0.00050778836
0.00054121297
0.00058559039
-0.00098187519
-0.00085260499
-0.00079502604
-0.00071815325
-0.00052962448
-0.0019180129
-0.0016377392
-0.0014624962
-0.0012541633
-0.0008820602
-0.00028507533
-8.3397727e-05
9.8500514e-05
0.00027006043
0.00042335995
0.00079717068
0.001195273
0.0013776067
0.0015201325
0.0016727211
0.00042469725
0.00061322603
0.00067276601
0.00071542571
0.00077449177
-0.001103272
-0.00095560436
-0.00088893613
-0.00079884729
-0.0005772047
-0.0021232739
-0.00180177
-0.0015981718
-0.0013539725
-0.00091674428
-0.00022989707
5.2385357e-06
0.00021790041
0.00041967339
0.00060073356
0.0010385844
0.0015061815
0.0017200119
0.0018890147
0.0020737659
0.00053341042
0.00075505302
0.0008248959
0.00087575979
0.00094806343
-0.0011954354
-0.0010330154
-0.00095890762
-0.00085782311
-0.00060852378
-0.002268326
-0.0019135343
-0.0016866167
-0.0014125673
-0.00092097746
-0.00015945435
0.00010333404
0.0003415126
0.0005685372
0.00077290594
0.0012622148
0.0017877906
0.002027854
0.0022191839
0.0024315514
0.00063099756
0.00088029688
0.00095872412
0.0010165427
0.0011003024
-0.0012570526
-0.0010838809
-0.0010041604
-0.00089456996
-0.00062375277
-0.0023532056
-0.0019738672
-0.0017292241
-0.0014320749
-0.00089822952
-7.9794998e-05
0.00020417137
0.00046199732
0.00070868261
0.00093132566
0.0014590446
0.002029656
0.0022900391
0.0024989843
0.0027337351
0.00071414194
0.00098495912
0.0010700389
0.0011333878
0.0012265394
-0.0012871296
-0.0011074701
-0.0010241003
-0.00090870279
-0.0006230364
-0.0023778426
-0.0019832987
-0.001726956
-0.0014140252
-0.00085107091
4.6600545e-06
0.00030281109
0.00057393357
0.0008342034
0.0010696358
0.0016222366
0.0022238325
0.0024981217
0.0027195347
0.0029708847
0.00078028555
0.0010659519
0.0011555884
0.0012229069
0.001323155
-0.0012852295
-0.001103506
-0.0010185399
-0.00090017692
-0.00060669551
-0.0023428157
-0.0019427812
-0.0016810518
-0.0013600459
-0.00078184558
9.0375593e-05
0.00039536926
0.0006731109
0.00094055488
0.0011829774
0.0017465963
0.0023643628
0.0026458025
0.0028742294
0.003135987
0.00082749952
0.0011209809
0.0012129664
0.001282596
0.0013874715
-0.001251599
-0.0010722861
-0.00098781607
-0.00086940241
-0.00057533253
-0.0022497703
-0.001854096
-0.0015934256
-0.0012722498
-0.00069304137
0.00017427529
0.00047860084
0.00075612144
0.0010241528
0.001267595
0.0018282809
0.0024470062
0.0027286651
0.0029584798
0.0032241983
0.00085442251
0.0011484924
0.0012405615
0.0013107872
0.0014177071
-0.0011872349
-0.0010147485
-0.00093285509
-0.00081730694
-0.00052988969
-0.0021016612
-0.0017200914
-0.0014669004
-0.0011534647
-0.00058751086
0.00025347375
0.00054963612
0.00082010047
0.0010821178
0.0013205842
0.0018646171
0.0024690652
0.0027440066
0.0029695488
0.0032326846
0.000860223
0.0011476402
0.0012375256
0.0013066178
0.0014129494
-0.0010939222
-0.00093251053
-0.00085521123
-0.0007453747
-0.0004716876
-0.001902919
-0.0015448526
-0.0013053784
-0.0010074035
-0.00046864118
0.00032505525
0.00060575899
0.00086250433
0.0011120529
0.0013396703
0.0018539308
0.0024292163
0.002690668
0.0029063822
0.0031604551
0.00084455989
0.001118247
0.0012037348
0.0012699919
0.0013731167
-0.00097426342
-0.00082790284
-0.00075710275
-0.00065568416
-0.00040246727
-0.0016596259
-0.0013338849
-0.0011140294
-0.00083885809
-0.00034055679
0.00038580231
0.00064413033
0.00088082913
0.0011117582
0.0013229181
0.0017953141
0.0023272673
0.0025687867
0.0027693563
0.0030081077
0.00080752065
0.0010607375
0.0011397215
0.0012015108
0.0012988891
-0.00083173387
-0.00070403028
-0.00064147473
-0.00055097472
-0.00032446579
-0.0013798057
-0.0010944169
-0.00089960049
-0.00065401985
-0.00020845854
0.00043176245
0.0006613458
0.00087215955
0.0010787684
0.0012682609
0.0016882377
0.0021637511
0.0023793796
0.0025598525
0.0027773948
0.00074951356
0.00097602249
0.0010465544
0.0011023508
0.0011915827
-0.00067082136
-0.00056491662
-0.00051214507
-0.0004347986
-0.00024058339
-0.0010740032
-0.00083598873
-0.00067100959
-0.0004610903
-7.9267167e-05
0.00045750038
0.0006526774
0.00083239881
0.0010095654
0.0011726928
0.0015318855
0.001939228
0.0021236279
0.0022795221
0.0024704683
0.00067107601
0.00086529122
0.00092562476
0.00097404283
0.0010529223
-0.00049740851
-0.00041587756
-0.00037417118
-0.00031189657
-0.00015478733
-0.00075650547
-0.00057164947
-0.00044053118
-0.00027149238
3.7104016e-05
0.00045483749
0.00061080898
0.00075499459
0.00089827241
0.0010309226
0.0013240076
0.0016530834
0.0018016428
0.0019290115
0.0020885551
0.00057251828
0.00072962752
0.00077824922
0.000818061
0.00088461167
-0.00031989316
-0.00026455447
-0.00023484914
-0.00018921503
-7.3207528e-05
-0.00044802183
-0.00032045581
-0.00022621934
-0.00010233531
0.00012513106
0.00041099086
0.00052400001
0.00062911136
0.00073477465
0.00083340365
0.0010589453
0.0013014077
0.0014102957
0.0015057
0.0016295461
0.00045318155
0.00056918906
0.00060482579
0.00063494172
0.00068738986
-0.00015287646
-0.00012411226
-0.00010680005
-7.9036124e-05
-7.6002386e-06
-0.00018201204
-0.00011289742
-5.7103836e-05
1.8323746e-05
0.00015790126
0.00030710347
0.00037471768
0.00043832465
0.00050335125
0.00056480702
0.00072413276
0.00087293248
0.00093913787
0.00099941486
0.0010831652
0.00030955463
0.00038099051
0.00040260631
0.00042196102
0.00045843988
-3.0900486e-05
-2.4282032e-05
-1.887903e-05
-9.9074934e-06
1.1938039e-05
-2.1359252e-05
-3.327068e-06
1.4594618e-05
3.9328817e-05
8.2858751e-05
0.00012404576
0.00014560758
0.00016670165
0.00018880177
0.00021040281
0.00029311967
0.00033934527
0.00036138381
0.00038304643
0.00041926308
0.00012937692
0.00015122245
0.00015839688
0.00016562314
0.00018254131
)
;

boundaryField
{
    wall_minX
    {
        type            calculated;
        value           nonuniform List<scalar> 
100
(
-0.00017163586
-0.00034504523
-9.8758209e-05
1.8560737e-05
1.9818337e-05
-0.00044306354
-0.00089715053
-0.00024397386
0.00011871796
8.6757743e-05
-0.00065461447
-0.0013163661
-0.00030909729
0.00031509502
0.00019316526
-0.00083239015
-0.0016509952
-0.00031605225
0.00055020105
0.00030922885
-0.00098187519
-0.0019180129
-0.00028507533
0.00079717068
0.00042469725
-0.001103272
-0.0021232739
-0.00022989707
0.0010385844
0.00053341042
-0.0011954354
-0.002268326
-0.00015945435
0.0012622148
0.00063099756
-0.0012570526
-0.0023532056
-7.9794998e-05
0.0014590446
0.00071414194
-0.0012871296
-0.0023778426
4.6600545e-06
0.0016222366
0.00078028555
-0.0012852295
-0.0023428157
9.0375593e-05
0.0017465963
0.00082749952
-0.001251599
-0.0022497703
0.00017427529
0.0018282809
0.00085442251
-0.0011872349
-0.0021016612
0.00025347375
0.0018646171
0.000860223
-0.0010939222
-0.001902919
0.00032505525
0.0018539308
0.00084455989
-0.00097426342
-0.0016596259
0.00038580231
0.0017953141
0.00080752065
-0.00083173387
-0.0013798057
0.00043176245
0.0016882377
0.00074951356
-0.00067082136
-0.0010740032
0.00045750038
0.0015318855
0.00067107601
-0.00049740851
-0.00075650547
0.00045483749
0.0013240076
0.00057251828
-0.00031989316
-0.00044802183
0.00041099086
0.0010589453
0.00045318155
-0.00015287646
-0.00018201204
0.00030710347
0.00072413276
0.00030955463
-3.0900486e-05
-2.1359252e-05
0.00012404576
0.00029311967
0.00012937692
)
;
    }
    wall_maxX
    {
        type            calculated;
        value           nonuniform List<scalar> 
100
(
-0.00011537566
-0.00021622816
-1.4877923e-05
0.0001086369
5.356677e-05
-0.00027279478
-0.00051070266
7.9035122e-06
0.00040836118
0.00019929812
-0.0003817751
-0.00069425319
0.0001061337
0.0008119403
0.00038947737
-0.00046516813
-0.00081130096
0.00025274382
0.0012446782
0.00058559039
-0.00052962448
-0.0008820602
0.00042335995
0.0016727211
0.00077449177
-0.0005772047
-0.00091674428
0.00060073356
0.0020737659
0.00094806343
-0.00060852378
-0.00092097746
0.00077290594
0.0024315514
0.0011003024
-0.00062375277
-0.00089822952
0.00093132566
0.0027337351
0.0012265394
-0.0006230364
-0.00085107091
0.0010696358
0.0029708847
0.001323155
-0.00060669551
-0.00078184558
0.0011829774
0.003135987
0.0013874715
-0.00057533253
-0.00069304137
0.001267595
0.0032241983
0.0014177071
-0.00052988969
-0.00058751086
0.0013205842
0.0032326846
0.0014129494
-0.0004716876
-0.00046864118
0.0013396703
0.0031604551
0.0013731167
-0.00040246727
-0.00034055679
0.0013229181
0.0030081077
0.0012988891
-0.00032446579
-0.00020845854
0.0012682609
0.0027773948
0.0011915827
-0.00024058339
-7.9267167e-05
0.0011726928
0.0024704683
0.0010529223
-0.00015478733
3.7104016e-05
0.0010309226
0.0020885551
0.00088461167
-7.3207528e-05
0.00012513106
0.00083340365
0.0016295461
0.00068738986
-7.6002386e-06
0.00015790126
0.00056480702
0.0010831652
0.00045843988
1.1938039e-05
8.2858751e-05
0.00021040281
0.00041926308
0.00018254131
)
;
    }
    wall_minY
    {
        type            calculated;
        value           uniform 0;
    }
    wall_maxY
    {
        type            calculated;
        value           uniform 0;
    }
    inlet_minZ
    {
        type            calculated;
        value           nonuniform List<scalar> 
25
(
-0.00017163586
-0.00034504523
-9.8758209e-05
1.8560737e-05
1.9818337e-05
-0.00015125186
-0.00030294511
-7.3983932e-05
6.085091e-05
3.9178354e-05
-0.00014356911
-0.00028029824
-5.1809479e-05
8.2630816e-05
4.6330481e-05
-0.00013473568
-0.00025599638
-3.1932525e-05
9.7782466e-05
5.0548086e-05
-0.00011537566
-0.00021622816
-1.4877923e-05
0.0001086369
5.356677e-05
)
;
    }
    outlet_maxZ
    {
        type            calculated;
        value           nonuniform List<scalar> 
25
(
-3.0900486e-05
-2.1359252e-05
0.00012404576
0.00029311967
0.00012937692
-2.4282032e-05
-3.327068e-06
0.00014560758
0.00033934527
0.00015122245
-1.887903e-05
1.4594618e-05
0.00016670165
0.00036138381
0.00015839688
-9.9074934e-06
3.9328817e-05
0.00018880177
0.00038304643
0.00016562314
1.1938039e-05
8.2858751e-05
0.00021040281
0.00041926308
0.00018254131
)
;
    }
}


// ************************************************************************* //
