/*--------------------------------*- C++ -*----------------------------------*\
| =========                 |                                                 |
| \\      /  F ield         | OpenFOAM: The Open Source CFD Toolbox           |
|  \\    /   O peration     | Version:  v2106                                 |
|   \\  /    A nd           | Website:  www.openfoam.com                      |
|    \\/     M anipulation  |                                                 |
\*---------------------------------------------------------------------------*/
FoamFile
{
    version     2.0;
    format      ascii;
    arch        "LSB;label=32;scalar=64";
    class       volScalarField;
    location    "50";
    object      gradTy;
}
// * * * * * * * * * * * * * * * * * * * * * * * * * * * * * * * * * * * * * //

dimensions      [0 -1 0 1 0 0 0];

internalField   nonuniform List<scalar> 
4000
(
-0.00014834426
-0.00012840083
-0.00012400635
-0.00012236992
-0.00012143553
-0.00012059227
-0.00011949662
-0.00011749934
-0.00011303127
-0.0001015545
-0.00032191691
-0.00028541006
-0.00027458022
-0.00026938711
-0.00026596395
-0.00026278608
-0.00025881703
-0.00025262813
-0.00024111341
-0.00021791455
-0.00015602527
-0.00014697892
-0.00014000235
-0.00013489891
-0.00013063952
-0.00012660278
-0.00012194621
-0.00011597704
-0.00010809708
-9.9413779e-05
-8.1169389e-05
-7.7313161e-05
-7.2553139e-05
-6.7950351e-05
-6.3646132e-05
-5.9285449e-05
-5.4777108e-05
-4.9749068e-05
-4.4520363e-05
-4.0367821e-05
-2.1699448e-05
-1.9032967e-05
-1.5098407e-05
-1.0736828e-05
-6.433525e-06
-2.1880254e-06
2.1238094e-06
6.3098771e-06
1.0133644e-05
1.2637552e-05
2.9536191e-05
3.2444565e-05
3.6683115e-05
4.1137874e-05
4.5552142e-05
4.9695191e-05
5.3696817e-05
5.7504334e-05
6.069857e-05
6.2694294e-05
7.2874512e-05
7.7513919e-05
8.3032475e-05
8.8139643e-05
9.2568861e-05
9.6637548e-05
0.00010037798
0.0001039553
0.00010715686
0.00010925322
0.00010410859
0.00011380663
0.00012181222
0.00012765576
0.00013206898
0.0001356656
0.0001390707
0.00014244444
0.0001459166
0.00014877158
0.00010997645
0.00013389371
0.00014469002
0.00015045696
0.00015407128
0.00015678465
0.00015926124
0.00016208256
0.00016558837
0.00016963853
3.4700915e-05
4.6177684e-05
5.0166816e-05
5.196653e-05
5.2935177e-05
5.3635817e-05
5.426567e-05
5.5033409e-05
5.6168995e-05
5.773352e-05
-0.00040047648
-0.00034274227
-0.00033036351
-0.00032572491
-0.00032299208
-0.00032047647
-0.00031716319
-0.00031100311
-0.00029651108
-0.0002549646
-0.00087958762
-0.00077441815
-0.00074399703
-0.00072910908
-0.00071903525
-0.00070955188
-0.00069762906
-0.00067871437
-0.00064237979
-0.00056256425
-0.00044139383
-0.00041586777
-0.00039608475
-0.00038118999
-0.00036860386
-0.00035653097
-0.00034257561
-0.00032460894
-0.00030076263
-0.00027526414
-0.00023270238
-0.00022164525
-0.00020774063
-0.00019416437
-0.0001812969
-0.0001683334
-0.00015477007
-0.00013971992
-0.0001240244
-0.00011164456
-5.9307327e-05
-5.143469e-05
-3.9750131e-05
-2.6775672e-05
-1.3919159e-05
-1.1789542e-06
1.1693695e-05
2.4313153e-05
3.5776856e-05
4.330038e-05
9.3549412e-05
0.00010229276
0.00011495562
0.00012832103
0.00014148245
0.00015393388
0.00016596441
0.00017741687
0.00018713357
0.00019321257
0.00022578445
0.00023999449
0.00025662194
0.00027191653
0.00028523544
0.00029740863
0.00030871843
0.00031962059
0.00032952457
0.00033626084
0.00032753393
0.0003585121
0.00038278321
0.00040032506
0.00041352885
0.00042440823
0.00043469803
0.00044521438
0.00045654334
0.00046685437
0.00036923531
0.00045329308
0.00048538546
0.00050263788
0.00051346079
0.0005216251
0.00052925649
0.00053826536
0.0005508965
0.00057054069
0.00012320702
0.00016475349
0.00017641739
0.0001817525
0.00018467062
0.00018676817
0.00018872328
0.00019125902
0.00019559729
0.00020435516
-0.00060634378
-0.00051858124
-0.00049967173
-0.00049240031
-0.00048798517
-0.00048382712
-0.00047830025
-0.00046790242
-0.00044311388
-0.00037111021
-0.0013433719
-0.0011833638
-0.0011365712
-0.0011129448
-0.0010965838
-0.0010809107
-0.0010610718
-0.0010293083
-0.00096777054
-0.00083127093
-0.0006898515
-0.00065058008
-0.00061943247
-0.00059542327
-0.00057482982
-0.00055486162
-0.00053167871
-0.00050173032
-0.00046198806
-0.00042039218
-0.00036435642
-0.00034682658
-0.00032436906
-0.00030222393
-0.00028101026
-0.00025957024
-0.00023700757
-0.000211983
-0.00018588945
-0.00016552821
-8.3832443e-05
-7.0972664e-05
-5.1798359e-05
-3.041102e-05
-9.1446879e-06
1.2002988e-05
3.3409736e-05
5.4467056e-05
7.3591825e-05
8.6121462e-05
0.00016920706
0.00018373444
0.00020471908
0.00022688556
0.00024872178
0.00026943996
0.00028954357
0.00030875744
0.00032521469
0.00033558798
0.0003939621
0.00041784915
0.00044556449
0.00047098044
0.00049315174
0.00051344451
0.00053246919
0.00055104848
0.00056832621
0.00058058956
0.00057854794
0.0006313275
0.0006718492
0.00070101816
0.00072296735
0.00074120025
0.00075863845
0.00077705727
0.00079808725
0.00081944965
0.00068927671
0.00083446502
0.00088731408
0.00091580317
0.00093376885
0.00094745758
0.00096059941
0.00097699865
0.0010029918
0.0010542936
0.00024000832
0.00031201199
0.00033100806
0.00033974256
0.0003445822
0.00034809566
0.00035149775
0.00035627122
0.00036573934
0.00039047244
-0.00079405767
-0.000679021
-0.00065425707
-0.0006445831
-0.00063857954
-0.00063282926
-0.00062510075
-0.00061047676
-0.00057535295
-0.00047271472
-0.0017626244
-0.0015529235
-0.0014914276
-0.0014597592
-0.0014374354
-0.001415745
-0.0013880721
-0.0013435096
-0.0012567999
-0.0010635949
-0.00090910633
-0.00085744946
-0.00081594206
-0.00078338399
-0.000755141
-0.00072746465
-0.000695199
-0.00065337577
-0.00059791184
-0.0005406056
-0.00047567095
-0.00045215468
-0.00042167885
-0.00039135361
-0.00036205675
-0.00033232557
-0.00030088843
-0.00026599437
-0.00022963455
-0.00020148055
-9.3222448e-05
-7.5591695e-05
-4.9208238e-05
-1.9672353e-05
9.8198068e-06
3.9252526e-05
6.9103943e-05
9.8574302e-05
0.00012533628
0.00014284083
0.00025805419
0.00027827234
0.00030741747
0.00033821438
0.00036858579
0.00039749851
0.00042566649
0.00045270777
0.00047604727
0.00049083979
0.00057646502
0.00060999374
0.0006487004
0.00068408264
0.00071503162
0.00074340441
0.00077024088
0.00079674347
0.00082181588
0.00084003964
0.00084783726
0.00092245897
0.00097910948
0.0010197461
0.0010503634
0.0010759784
0.0011007441
0.0011275534
0.0011591939
0.0011926943
0.0010304319
0.0012370749
0.0013103466
0.0013498451
0.0013748604
0.0013941116
0.0014129924
0.0014374078
0.0014781332
0.0015625566
0.00036392367
0.00046656191
0.00049272702
0.00050476609
0.00051149634
0.00051643578
0.00052135801
0.00052858495
0.00054369162
0.00058486717
-0.00097163493
-0.00083043158
-0.00080014514
-0.00078822244
-0.00078069872
-0.00077341054
-0.00076351734
-0.00074473123
-0.00069942499
-0.00056666684
-0.0021543689
-0.0018971342
-0.0018217933
-0.0017825895
-0.0017545516
-0.0017270434
-0.0016917005
-0.0016345508
-0.0015230746
-0.0012741974
-0.0011060348
-0.0010427211
-0.00099149012
-0.00095084896
-0.00091527079
-0.00088010125
-0.00083895035
-0.0007854738
-0.00071458029
-0.00064194973
-0.00056912108
-0.00053995147
-0.00050187948
-0.00046373219
-0.00042663803
-0.00038883304
-0.00034869495
-0.00030411042
-0.00025767206
-0.00022190649
-8.8511644e-05
-6.6293774e-05
-3.2965489e-05
4.4539529e-06
4.1933617e-05
7.9475667e-05
0.00011762284
0.00015539912
0.00018970493
0.00021211258
0.00035855877
0.00038433084
0.00042140988
0.00046065133
0.00049935294
0.00053634054
0.00057249022
0.00060733087
0.00063756536
0.00065679478
0.00076950197
0.00081252094
0.00086199458
0.00090714839
0.00094671722
0.00098307183
0.0010177075
0.0010521971
0.0010851952
0.0011094855
0.0011270489
0.0012231875
0.0012956749
0.0013475575
0.0013866978
0.0014196396
0.0014517729
0.0014871273
0.0015296066
0.0015753642
0.0013791298
0.0016462264
0.0017394832
0.0017897505
0.0018216871
0.001846464
0.0018711511
0.0019037524
0.001959388
0.0020764057
0.00048967683
0.00062243498
0.00065559498
0.00067085536
0.00067943871
0.00068579379
0.00069225831
0.00070198736
0.00072276337
0.00077999915
-0.0011407079
-0.00097428141
-0.00093872822
-0.00092466118
-0.00091569143
-0.0009069142
-0.00089491216
-0.00087207019
-0.00081684345
-0.00065476727
-0.0025235949
-0.0022206254
-0.0021320932
-0.0020857269
-0.0020522274
-0.0020190961
-0.0019762952
-0.0019068852
-0.0017712905
-0.0014682531
-0.00128484
-0.0012104096
-0.0011499415
-0.0011016032
-0.0010589959
-0.0010165923
-0.00096680849
-0.00090199004
-0.00081608172
-0.00072858067
-0.00064752694
-0.00061297174
-0.00056766107
-0.00052202619
-0.00047741025
-0.00043179968
-0.00038319078
-0.00032916602
-0.00027290934
-0.00022974831
-7.1976304e-05
-4.5355893e-05
-5.3455249e-06
3.9655064e-05
8.4880962e-05
0.00013029571
0.0001765387
0.00022243713
0.00026412456
0.00029132296
0.000467975
0.00049914388
0.00054390715
0.00059133132
0.00063812667
0.00068298907
0.00072695805
0.00076947047
0.00080649743
0.00083009677
0.00096883937
0.0010211054
0.0010810503
0.0011357076
0.001183684
0.0012278491
0.0012701654
0.0013125589
0.0013534193
0.0013837133
0.001409831
0.0015269341
0.0016148357
0.0016776609
0.0017251172
0.0017652467
0.0018046566
0.0018485007
0.0019017265
0.0019595608
0.0017276722
0.0020536266
0.0021663044
0.002227036
0.0022657221
0.0022959218
0.0023263484
0.0023670762
0.0024374084
0.0025862913
0.00061463287
0.00077670904
0.00081665782
0.00083504307
0.00084543183
0.00085317535
0.00086116472
0.0008733713
0.00089972087
0.00097262656
-0.0013013077
-0.0011106897
-0.0010701167
-0.0010540049
-0.0010436524
-0.0010334507
-0.0010194132
-0.00099265153
-0.00092784167
-0.00073744458
-0.0028715318
-0.0025247453
-0.0024236451
-0.0023704644
-0.0023317407
-0.0022932109
-0.002243219
-0.0021619624
-0.0020030747
-0.0016477409
-0.0014479236
-0.0013628963
-0.0012936427
-0.0012379707
-0.0011886446
-0.0011392772
-0.0010811749
-0.0010054001
-0.00090499497
-0.00080316055
-0.00071325321
-0.00067355682
-0.00062134884
-0.00056855874
-0.00051673878
-0.00046361089
-0.00040682961
-0.00034368041
-0.00027793732
-0.0002276446
-4.6085608e-05
-1.5254358e-05
3.1167886e-05
8.3439145e-05
0.00013611572
0.0001891282
0.00024320163
0.00029696827
0.00034580983
0.0003776452
0.00058332789
0.00061968674
0.00067184959
0.00072715642
0.00078175877
0.00083424233
0.00088579532
0.0009357694
0.00097940819
0.0010072583
0.0011706313
0.0012318301
0.0013018797
0.0013657072
0.0014218102
0.0014735472
0.0015233373
0.0015734344
0.0016219751
0.0016581185
0.0016913414
0.0018286987
0.0019314857
0.0020048786
0.002060378
0.0021074868
0.0021539909
0.0022061247
0.002269845
0.0023394343
0.0020709366
0.002453747
0.0025851581
0.0026559865
0.0027011939
0.0027366634
0.0027726828
0.0028213476
0.0029059925
0.0030858291
0.0007371419
0.00092753897
0.00097403108
0.0009954286
0.0010075595
0.0010166522
0.0010261263
0.0010407478
0.0010725192
0.0011606389
-0.0014529694
-0.0012393385
-0.0011940044
-0.0011759539
-0.001164285
-0.0011527221
-0.0011367359
-0.0011062186
-0.0010322225
-0.00081467795
-0.0031979481
-0.0028095006
-0.0026964801
-0.0026368446
-0.0025931525
-0.0025494705
-0.0024925957
-0.0023999917
-0.0022187845
-0.0018133455
-0.0015965649
-0.001501488
-0.0014239089
-0.0013612774
-0.0013055603
-0.0012495462
-0.0011834814
-0.0010972141
-0.00098292608
-0.00086738472
-0.00076812793
-0.00072354872
-0.00066480035
-0.00060520013
-0.00054651372
-0.00048620199
-0.0004215937
-0.00034969918
-0.00027486478
-0.00021774763
-1.306789e-05
2.1779678e-05
7.430622e-05
0.0001335109
0.0001933044
0.00025358823
0.00031517267
0.00037649074
0.00043219878
0.00046848152
0.00070187159
0.00074319513
0.00080242844
0.00086527406
0.00092734846
0.00098714237
0.0010459811
0.0011031392
0.00115314
0.0011850837
0.0013715252
0.0014412805
0.0015210039
0.0015936126
0.0016575067
0.0017165151
0.0017735035
0.0018310305
0.0018869827
0.001928769
0.0019677554
0.0021245256
0.0022415666
0.0023250809
0.0023882955
0.0024421071
0.0024954544
0.0025555863
0.0026294396
0.0027103687
0.0024050872
0.0028423982
0.0029917334
0.0030722275
0.003123685
0.0031642184
0.0032056295
0.0032619569
0.003360412
0.0035700974
0.00085598299
0.0010735275
0.0011262756
0.0011505551
0.0011643537
0.0011747436
0.0011856495
0.0012026011
0.0012396023
0.0013423913
-0.0015950517
-0.0013597233
-0.0013099132
-0.0012900366
-0.0012771258
-0.0012642735
-0.0012464361
-0.0012123507
-0.0011296242
-0.00088627298
-0.0035020035
-0.0030742957
-0.0029500628
-0.0028843506
-0.0028359669
-0.0027874064
-0.0027239982
-0.0026206155
-0.0024182036
-0.0019651585
-0.0017313997
-0.0016268696
-0.0015414546
-0.0014722677
-0.0014105115
-0.001348203
-0.0012745833
-0.0011783522
-0.0010508847
-0.00092234926
-0.00081348135
-0.00076430023
-0.00069938542
-0.00063335708
-0.00056817373
-0.00050105229
-0.00042901459
-0.00034881269
-0.00026534281
-0.00020175407
2.5187584e-05
6.383222e-05
0.00012213176
0.0001878969
0.00025443659
0.0003216206
0.00039034583
0.00045884575
0.00052108721
0.00056159472
0.00082122559
0.00086726009
0.00093319429
0.0010031883
0.0010723534
0.0011390975
0.0012048668
0.0012688728
0.0013249367
0.0013607812
0.0015686764
0.0016465606
0.0017354674
0.0018164114
0.001887707
0.0019536366
0.0020174822
0.0020821049
0.0021451365
0.0021923137
0.0022359028
0.0024111208
0.0025416974
0.0026348193
0.0027053692
0.0027655607
0.0028254392
0.0028932149
0.0029767594
0.0030685342
0.0027269873
0.0032161039
0.0033824443
0.0034721068
0.0035295029
0.0035748558
0.0036214113
0.0036850646
0.0037967306
0.0040349722
0.00097015365
0.0012135048
0.0012721837
0.0012991951
0.0013145762
0.0013262001
0.0013384725
0.0013576516
0.0013996558
0.0015164794
-0.0017268627
-0.001471285
-0.0014173076
-0.0013957282
-0.0013816557
-0.0013675937
-0.0013480153
-0.0013105711
-0.0012196244
-0.00095196726
-0.0037825827
-0.0033182501
-0.0031835771
-0.003112197
-0.003059423
-0.0030062844
-0.0029367346
-0.0028232095
-0.0026008397
-0.0021029818
-0.0018526855
-0.0017393504
-0.0016466323
-0.0015713232
-0.0015039131
-0.0014356963
-0.0013549751
-0.0012493714
-0.0011095095
-0.00096877167
-0.00085027996
-0.0007968021
-0.00072612591
-0.00065408289
-0.00058280975
-0.00050929195
-0.00043026884
-0.00034225178
-0.00025065943
-0.0001809914
6.7146954e-05
0.0001093488
0.00017305955
0.00024497573
0.00031785049
0.00039151951
0.0004669682
0.00054222924
0.00061062596
0.00065510818
0.00093935944
0.00098981996
0.0010620478
0.001138758
0.0012145888
0.0012878757
0.0013601781
0.0014306433
0.0014924312
0.0015319565
0.0017596599
0.0018451937
0.0019427348
0.0020315186
0.0021097749
0.0021822283
0.0022525425
0.0023238703
0.0023935988
0.0024458778
0.0024930962
0.0026856827
0.0028289912
0.0029311483
0.0030086005
0.003074806
0.0031408536
0.0032158623
0.003308588
0.0034106438
0.0030339273
0.0035718331
0.003754155
0.0038524329
0.0039154154
0.0039653118
0.0040167286
0.0040873194
0.0042115101
0.0044768378
0.0010787745
0.0013464316
0.0014106797
0.0014402568
0.0014571251
0.0014699116
0.0014834753
0.0015047643
0.0015515125
0.0016816495
-0.0018477136
-0.0015734618
-0.0015156495
-0.001492501
-0.0014773537
-0.0014621681
-0.0014409693
-0.0014003967
-0.00130179
-0.0010114774
-0.0040384775
-0.0035403814
-0.0033960992
-0.0033194931
-0.0032626566
-0.0032052669
-0.0031300038
-0.0030070367
-0.0027660793
-0.0022264788
-0.0019604468
-0.0018390056
-0.0017395585
-0.0016585935
-0.0015859472
-0.0015122445
-0.0014249193
-0.001310593
-0.0011591993
-0.0010071271
-0.00087922428
-0.00082178051
-0.00074578173
-0.00066816925
-0.00059124842
-0.00051178622
-0.00042626512
-0.00033097225
-0.00023182239
-0.00015650454
0.00011156312
0.00015706239
0.00022578931
0.00030341138
0.00038217233
0.00046187144
0.00054358091
0.00062514088
0.00069927196
0.00074745446
0.0010545644
0.0011091409
0.0011872173
0.0012701689
0.0013522006
0.0014315774
0.001509972
0.0015864646
0.0016535974
0.0016965596
0.0019423878
0.0020350449
0.002140618
0.0022366964
0.002321432
0.0023999658
0.0024763192
0.0025539161
0.002629914
0.0026869723
0.0027369993
0.0029457683
0.0031009238
0.0032114882
0.0032953665
0.0033671793
0.003438992
0.0035207741
0.0036221112
0.0037338183
0.0033235128
0.0039068917
0.0041040706
0.0042103577
0.0042785384
0.0043326712
0.0043886334
0.0044657275
0.0046016775
0.0048924539
0.0011810564
0.001471369
0.00154079
0.0015727505
0.0015910019
0.0016048721
0.0016196434
0.001642911
0.0016941148
0.0018367619
-0.0019569447
-0.0016657094
-0.0016044186
-0.0015798432
-0.0015637143
-0.0015474989
-0.0015248104
-0.0014813589
-0.0013757001
-0.0010645218
-0.0042684799
-0.0037396908
-0.0035866897
-0.0035053296
-0.0034447811
-0.0033834943
-0.0033029807
-0.0031713295
-0.0029132695
-0.0023352537
-0.0020545784
-0.0019257791
-0.0018202172
-0.0017340975
-0.0016566624
-0.0015779293
-0.0014845381
-0.0013621944
-0.001200202
-0.001037734
-0.00090081917
-0.00083976262
-0.00075891055
-0.00067620785
-0.0005941154
-0.0005091976
-0.00041770675
-0.00031572439
-0.00020962826
-0.00012912593
0.00015741645
0.00020593286
0.00027925178
0.00036210104
0.000446262
0.00053150168
0.00061896843
0.00070632612
0.00078573498
0.00083731983
0.0011653912
0.0012237471
0.0013071916
0.0013958713
0.0014836002
0.0015685778
0.0016525821
0.0017346321
0.0018066965
0.00185283
0.0021150603
0.0022142704
0.0023272251
0.0024300052
0.0025206983
0.0026048296
0.0026867526
0.0027701416
0.0028519409
0.0029134261
0.0029655584
0.0031892238
0.0033552695
0.0034735599
0.003563348
0.0036403265
0.0037174625
0.0038055148
0.0039148387
0.0040355074
0.0035935967
0.0042188523
0.0044296725
0.0045433128
0.004616271
0.0046743065
0.0047344689
0.0048175909
0.0049644615
0.005278892
0.001276285
0.0015874633
0.0016616289
0.0016957753
0.0017152971
0.0017301652
0.0017460528
0.0017711553
0.0018264985
0.0019807756
-0.0020539438
-0.0017475197
-0.0016831282
-0.0016572775
-0.0016402661
-0.0016231205
-0.0015990825
-0.0015530199
-0.0014409604
-0.001110835
-0.0044714381
-0.0039152148
-0.0037544376
-0.003668825
-0.003604938
-0.0035401315
-0.0034548636
-0.00331534
-0.0030417683
-0.0024289011
-0.0021349105
-0.0019995473
-0.0018885208
-0.0017977782
-0.0017160312
-0.0016327536
-0.0015338712
-0.0014042648
-0.0012326722
-0.0010608106
-0.00091543773
-0.00085114458
-0.0007659381
-0.00067865494
-0.00059189755
-0.00050204768
-0.00040515091
-0.00029710806
-0.00018471983
-9.9530036e-05
0.00020387066
0.00025510622
0.0003325642
0.0004201307
0.00050917144
0.00059942695
0.00069211199
0.00078472895
0.00086892586
0.0009235942
0.0012706018
0.0013323773
0.0014206762
0.0015145372
0.0016074228
0.0016974778
0.0017865747
0.0018736765
0.0019502283
0.0019992477
0.0022761108
0.0023812617
0.0025009023
0.0026097506
0.0027058419
0.0027950525
0.0028820406
0.0029707079
0.0030578042
0.0031233362
0.0031769622
0.0034141454
0.0035900576
0.0037153444
0.0038104887
0.0038921583
0.0039741422
0.0040679219
0.0041845582
0.0043134435
0.0038422512
0.0045055285
0.0047286901
0.0048489827
0.0049262681
0.0049878479
0.0050518393
0.0051404763
0.005297361
0.0056335056
0.0013638121
0.0016939375
0.0017723903
0.0018085119
0.0018291835
0.0018449575
0.0018618631
0.0018886454
0.0019477867
0.0021127419
-0.0021381578
-0.001818434
-0.0017513384
-0.0017243719
-0.0017065826
-0.001688612
-0.0016633727
-0.0016149829
-0.0014972136
-0.0011501765
-0.0046462951
-0.0040660659
-0.0038985038
-0.0038091659
-0.0037423344
-0.0036744073
-0.0035849109
-0.0034383747
-0.0031509781
-0.0025070382
-0.0022012483
-0.0020601552
-0.0019443483
-0.0018495425
-0.0017639873
-0.0016766792
-0.001572915
-0.0014368448
-0.0012567102
-0.0010765151
-0.00092336668
-0.00085623312
-0.00076719725
-0.0006758721
-0.00058498403
-0.00049075632
-0.00038905068
-0.00027561343
-0.00015762628
-6.8274884e-05
0.00025022536
0.00030386513
0.00038498392
0.00047672842
0.00057009974
0.00066481453
0.00076214656
0.0008594517
0.00094791728
0.0010053313
0.0013691355
0.0014339504
0.001526559
0.0016250227
0.0017224924
0.0018170696
0.0019107099
0.0020023264
0.0020828932
0.0021344956
0.0024241719
0.0025346157
0.0026602046
0.0027744501
0.0028753474
0.0029690873
0.0030606043
0.0031540031
0.003245859
0.003315033
0.0033696087
0.0036188474
0.0038035414
0.0039350521
0.0040349659
0.0041208229
0.0042071491
0.0043060776
0.0044293066
0.0045656131
0.0040677506
0.0047649602
0.0049990871
0.0051252899
0.0052064256
0.0052711696
0.0053385948
0.0054321994
0.0055981302
0.0059539153
0.0014430536
0.0017900907
0.0018723469
0.0019102208
0.0019319144
0.0019484969
0.0019663161
0.0019946128
0.002057187
0.0022318029
-0.0022091004
-0.0018780478
-0.0018086614
-0.0017807454
-0.0017622879
-0.0017436029
-0.0017173178
-0.0016668989
-0.0015441459
-0.0011823367
-0.0047921165
-0.0041914581
-0.0040181443
-0.0039256311
-0.0038562672
-0.0037856378
-0.0036924645
-0.003539819
-0.0032403694
-0.0025693271
-0.0022534059
-0.0021074524
-0.001987579
-0.0018892946
-0.0018004585
-0.001709658
-0.0016016518
-0.0014599568
-0.0012723911
-0.0010849736
-0.0009248362
-0.00085527599
-0.00076295908
-0.0006681555
-0.0005736969
-0.00047567225
-0.00036978493
-0.00025165276
-0.00012879443
-3.5832824e-05
0.00029588568
0.00035159939
0.00043587901
0.0005312359
0.00062836228
0.00072695245
0.00082833134
0.00092972465
0.0010219131
0.0010817183
0.0014600762
0.0015275314
0.0016238789
0.0017263381
0.0018277908
0.0019263072
0.0020239134
0.0021194797
0.0022035643
0.0022574309
0.0025580527
0.0026731087
0.0028038715
0.00292281
0.003027891
0.0031255821
0.0032210635
0.0033186178
0.0034146665
0.0034870553
0.003542088
0.0038018459
0.0039941831
0.0041311067
0.0042351736
0.0043246884
0.0044148244
0.0045182914
0.0046473529
0.0047902393
0.0042685615
0.0049954049
0.0052390534
0.0053703881
0.0054548733
0.0055223817
0.0055928245
0.0056908192
0.0058647724
0.0062380035
0.0015134879
0.0018752971
0.0019608495
0.0020002421
0.0020228238
0.0020401122
0.0020587349
0.0020883714
0.0021539925
0.0023371922
-0.0022663585
-0.001926018
-0.0018547684
-0.0018260749
-0.001807063
-0.0017877787
-0.0017606098
-0.0017084727
-0.0015814927
-0.001207142
-0.0049081101
-0.004290725
-0.0041127278
-0.0040176095
-0.0039461407
-0.0038732443
-0.0037769684
-0.0036191547
-0.0033094984
-0.0026154911
-0.0022912286
-0.0021413141
-0.0020181131
-0.0019169556
-0.0018253865
-0.0017316533
-0.001620071
-0.0014736248
-0.0012797845
-0.0010863006
-0.00092004649
-0.00084848841
-0.00075345941
-0.00065576184
-0.00055831514
-0.00045709791
-0.00034768179
-0.00022558316
-9.8611347e-05
-2.6130581e-06
0.00034033925
0.0003977836
0.00048470453
0.00058308593
0.00068336846
0.00078522615
0.0008900267
0.00099488287
0.0010902255
0.0011520526
0.0015426321
0.0016123119
0.0017118044
0.0018176274
0.0019224377
0.0020242857
0.002125256
0.0022241825
0.0023112661
0.0023670643
0.002676719
0.002795678
0.0029308086
0.0030537065
0.0031623233
0.0032633632
0.0033622202
0.0034633281
0.003562977
0.0036381337
0.0036931713
0.0039618469
0.0041606413
0.0043021334
0.0044097117
0.0045023322
0.0045957219
0.004703089
0.0048371867
0.0049857716
0.0044433393
0.0051953353
0.0054470029
0.0055826595
0.005669973
0.0057398292
0.0058128548
0.0059146349
0.0060955373
0.0064839127
0.0015746563
0.001949007
0.0020373279
0.0020779963
0.0021013268
0.0021192143
0.0021385256
0.0021693188
0.0022375821
0.0024282357
-0.0023095975
-0.0019620674
-0.0018893937
-0.0018600996
-0.0018406503
-0.0018208856
-0.0017930003
-0.0017394664
-0.0016090423
-0.0012244583
-0.0049936411
-0.0043633354
-0.004181752
-0.0040846148
-0.0040114816
-0.0039367674
-0.0038379825
-0.0036759736
-0.0033580197
-0.0026453262
-0.0023146085
-0.0021616568
-0.0020358879
-0.001932481
-0.0018387433
-0.0017426553
-0.0016281848
-0.0014778905
-0.0012789708
-0.0010806135
-0.00090918541
-0.00083607038
-0.000738915
-0.00063892572
-0.00053909165
-0.00043530595
-0.0003230357
-0.0001977235
-6.7421229e-05
3.102152e-05
0.0003831369
0.0004419579
0.00053098427
0.00063178365
0.00073460405
0.00083910118
0.00094667717
0.0010543495
0.0011522583
0.0012157258
0.0016161194
0.0016875945
0.0017896186
0.001898153
0.0020056746
0.0021102261
0.0022139377
0.0023156144
0.0024051599
0.0024625452
0.0027792815
0.0029014102
0.0030400753
0.003166175
0.0032776578
0.0033814233
0.0034830461
0.003587084
0.0036897184
0.0037671793
0.0038218016
0.0040977386
0.0043017643
0.0044469526
0.0045573788
0.0046525337
0.004748601
0.004859206
0.0049975127
0.0051508795
0.0045909258
0.005363438
0.0056215732
0.005760715
0.0058503182
0.0059220912
0.005997249
0.0061021865
0.0062889225
0.006690047
0.0016261632
0.0020107473
0.0021012923
0.0021429855
0.0021669208
0.0021852972
0.0022051777
0.0022369377
0.0023074222
0.0025043541
-0.0023385649
-0.0019859878
-0.0019123379
-0.0018826237
-0.001862857
-0.0018427336
-0.0018143039
-0.0017597033
-0.0016266392
-0.0012341928
-0.0050482437
-0.0044089032
-0.0042248531
-0.0041262958
-0.0040519489
-0.0039758776
-0.0038751926
-0.0037099873
-0.0033856962
-0.0026587105
-0.0023234977
-0.0021684517
-0.0020408903
-0.0019358713
-0.0018405429
-0.0017426924
-0.0016260397
-0.0014728238
-0.0012700513
-0.0010680438
-0.00089244102
-0.00081821974
-0.00071953692
-0.00061787238
-0.00051626651
-0.00041055218
-0.00029612005
-0.00016836703
-3.5537818e-05
6.4742252e-05
0.00042388032
0.00048371548
0.00057429845
0.00067689435
0.00078161867
0.00088811088
0.000997799
0.0011076235
0.0012074945
0.0012722107
0.0016799508
0.0017527805
0.0018567072
0.0019672837
0.0020768537
0.0021834641
0.0022892774
0.0023930772
0.0024845322
0.0025431505
0.0028649865
0.002989532
0.0031308769
0.0032594007
0.003373062
0.0034789133
0.0035826752
0.0036890014
0.0037939882
0.0038732754
0.0039270898
0.0042085868
0.0044165861
0.0045645751
0.0046771683
0.0047742706
0.0048724231
0.0049855837
0.0051272465
0.0052844493
0.0047103493
0.0054986151
0.0057616261
0.0059033951
0.0059947354
0.0060679824
0.0061448086
0.0062522563
0.0064436742
0.0068550745
0.0016676768
0.0020601233
0.002152334
0.0021947949
0.0022191874
0.0022379391
0.0022582662
0.0022907972
0.0023630681
0.0025650641
-0.0023530931
-0.0019976428
-0.0019234707
-0.0018935197
-0.0018735574
-0.0018531994
-0.0018244005
-0.0017690697
-0.0016341861
-0.0012362969
-0.00507163
-0.0044271963
-0.004241814
-0.0041424442
-0.0040673421
-0.0039903826
-0.0038884182
-0.003721035
-0.0033924062
-0.0026556104
-0.0023179175
-0.002161733
-0.0020331654
-0.0019271819
-0.0018308505
-0.0017318409
-0.0016137251
-0.0014585324
-0.0012531573
-0.001048745
-0.00087001248
-0.00079514242
-0.00069554058
-0.00059282758
-0.0004900763
-0.00038308522
-0.00026719676
-0.00013779068
-3.2536406e-06
9.8245357e-05
0.00046221212
0.00052269261
0.00061427374
0.00071803355
0.00082401606
0.00093184675
0.0010429706
0.0011542701
0.0012554874
0.0013210532
0.0017336265
0.0018073618
0.0019125504
0.0020244873
0.0021354299
0.0022434418
0.0023507045
0.0024559872
0.0025487876
0.0026082773
0.0029332099
0.0030594044
0.0032025575
0.003332713
0.003447852
0.0035551363
0.0036603974
0.0037683562
0.003875048
0.0039556723
0.0040083106
0.0042936321
0.0045043225
0.0046541999
0.0047682657
0.0048667167
0.0049663489
0.0050813673
0.0052255125
0.0053855819
0.0048008248
0.0055999841
0.0058662494
0.0060097715
0.0061022854
0.0061765546
0.0062545755
0.0063638707
0.0065587901
0.0069779295
0.00169893
0.0020968192
0.0021901272
0.002233094
0.0022577931
0.0022768046
0.0022974529
0.0023305541
0.0024041658
0.0026099804
-0.0023531019
-0.0019969697
-0.0019227328
-0.0018927296
-0.0018726947
-0.0018522276
-0.0018232371
-0.0017675173
-0.0016316457
-0.0012307668
-0.0050636957
-0.0044181421
-0.0042325705
-0.0041330008
-0.0040576064
-0.0039802332
-0.0038776182
-0.0037090892
-0.0033781487
-0.0026360855
-0.002297965
-0.0021416049
-0.0020128237
-0.0019065291
-0.0018097887
-0.0017102305
-0.0015913798
-0.0014351672
-0.0012284557
-0.0010228991
-0.00084211713
-0.00076705988
-0.00066715309
-0.0005640249
-0.00046076183
-0.00035315364
-0.00023652344
-0.00010626217
2.9153159e-05
0.00013124518
0.0004978083
0.00055856127
0.00065057587
0.0007548599
0.00086144715
0.00096995138
0.0010818257
0.0011939139
0.0012958534
0.0013618644
0.0017767279
0.0018509143
0.0019567161
0.0020693232
0.0021809545
0.0022897018
0.0023977523
0.0025038688
0.0025974424
0.0026574365
0.0029834521
0.0031105175
0.0032545961
0.0033855808
0.0035014876
0.0036095433
0.0037156545
0.0038245802
0.003932319
0.0040137832
0.0040649004
0.0043522875
0.00456437
0.0047152115
0.0048300466
0.0049292391
0.0050297366
0.0051459036
0.0052916424
0.0054535913
0.0048617541
0.0056668799
0.0059347577
0.0060791479
0.0061722651
0.0062470985
0.0063258328
0.0064363015
0.0066335205
0.0070578148
0.0017197207
0.0021205996
0.0022144295
0.0022576374
0.0022824909
0.0023016448
0.0023224869
0.0023559543
0.0024304529
0.0026388171
-0.0023385993
-0.0019839808
-0.0019101368
-0.0018802663
-0.0018602823
-0.0018398324
-0.001810829
-0.0017550638
-0.0016190419
-0.0012176449
-0.0050245253
-0.0043818316
-0.0041972149
-0.0040980592
-0.0040228375
-0.0039455277
-0.0038428947
-0.0036742589
-0.0033430471
-0.0026002916
-0.0022638183
-0.0021082466
-0.0019800459
-0.0018740956
-0.0017775427
-0.0016780497
-0.001559197
-0.0014029277
-0.0011961544
-0.00099072077
-0.00080899661
-0.00073421498
-0.00063461923
-0.00053171173
-0.00042857353
-0.00032101177
-0.00020435896
-7.4045701e-05
6.1412982e-05
0.0001634685
0.00053037216
0.00059102298
0.0006829037
0.00078706891
0.00089360369
0.0010021124
0.0011140475
0.0012262331
0.0013282662
0.0013943154
0.0018089119
0.001883092
0.0019888547
0.0021014377
0.0022130693
0.0023218815
0.0024300536
0.0025363494
0.0026301193
0.0026902478
0.0030153334
0.0031424864
0.0032866022
0.0034176085
0.0035335683
0.0036417292
0.0037480362
0.0038572571
0.0039653785
0.0040471804
0.0040964552
0.0043841359
0.0045963029
0.0047471785
0.0048620748
0.0049613972
0.0050621404
0.0051787396
0.0053251733
0.0054880033
0.0048927261
0.0056988544
0.0059666933
0.0061110613
0.0062042075
0.0062791436
0.0063581059
0.0064690669
0.0066673695
0.0070942026
0.0017299128
0.0021313098
0.0022250831
0.0022682655
0.0022931201
0.0023122984
0.0023332058
0.0023668329
0.0024417591
0.0026513883
-0.0023096821
-0.0019587638
-0.001885768
-0.0018562145
-0.0018364047
-0.001816098
-0.0017872606
-0.0017317937
-0.0015964602
-0.0011970198
-0.0049543939
-0.0043185226
-0.0041359991
-0.0040378689
-0.0039632836
-0.0038865139
-0.0037844958
-0.003616793
-0.003287352
-0.0025484835
-0.0022157409
-0.0020619169
-0.0019350872
-0.0018301344
-0.0017343643