/*--------------------------------*- C++ -*----------------------------------*\
| =========                 |                                                 |
| \\      /  F ield         | OpenFOAM: The Open Source CFD Toolbox           |
|  \\    /   O peration     | Version:  v2106                                 |
|   \\  /    A nd           | Website:  www.openfoam.com                      |
|    \\/     M anipulation  |                                                 |
\*---------------------------------------------------------------------------*/
FoamFile
{
    version     2.0;
    format      ascii;
    arch        "LSB;label=32;scalar=64";
    class       volScalarField;
    location    "50";
    object      T;
}
// * * * * * * * * * * * * * * * * * * * * * * * * * * * * * * * * * * * * * //

dimensions      [0 0 0 1 0 0 0];

internalField   nonuniform List<scalar> 
500
(
280.49298
280.49297
280.49297
280.49297
280.49297
280.49297
280.49297
280.49296
280.49296
280.49296
280.49297
280.49296
280.49296
280.49296
280.49296
280.49297
280.49296
280.49296
280.49296
280.49296
280.49297
280.49296
280.49296
280.49296
280.49297
295.47912
295.4791
295.47909
295.47909
295.47909
295.4791
295.47907
295.47906
295.47907
295.47907
295.47909
295.47906
295.47906
295.47906
295.47907
295.47909
295.47907
295.47906
295.47906
295.47907
295.47909
295.47907
295.47907
295.47907
295.47909
310.46576
310.46572
310.46571
310.46571
310.46572
310.46572
310.46569
310.46568
310.46568
310.4657
310.46571
310.46568
310.46567
310.46568
310.4657
310.46571
310.46568
310.46568
310.46568
310.46571
310.46572
310.4657
310.4657
310.46571
310.46573
325.45324
325.45319
325.45318
325.45318
325.4532
325.45319
325.45315
325.45314
325.45315
325.45317
325.45318
325.45314
325.45313
325.45314
325.45317
325.45318
325.45315
325.45314
325.45315
325.45318
325.4532
325.45317
325.45317
325.45318
325.45322
340.44187
340.44182
340.4418
340.4418
340.44183
340.44182
340.44176
340.44175
340.44176
340.4418
340.4418
340.44175
340.44174
340.44175
340.44179
340.4418
340.44176
340.44175
340.44177
340.44181
340.44183
340.4418
340.44179
340.44181
340.44186
355.43193
355.43187
355.43185
355.43186
355.43189
355.43187
355.43181
355.4318
355.43181
355.43186
355.43185
355.4318
355.43179
355.4318
355.43185
355.43186
355.43181
355.4318
355.43183
355.43188
355.43189
355.43186
355.43185
355.43188
355.43194
370.42367
370.4236
370.42358
370.42359
370.42363
370.4236
370.42354
370.42352
370.42354
370.42359
370.42358
370.42352
370.42351
370.42354
370.42359
370.42359
370.42354
370.42354
370.42356
370.42362
370.42363
370.42359
370.42359
370.42362
370.42369
385.41728
385.41721
385.41719
385.41721
385.41725
385.41721
385.41714
385.41713
385.41715
385.41721
385.41719
385.41713
385.41712
385.41715
385.41721
385.41721
385.41715
385.41715
385.41718
385.41725
385.41725
385.41721
385.41721
385.41725
385.41732
400.41293
400.41286
400.41284
400.41286
400.4129
400.41286
400.41279
400.41278
400.4128
400.41287
400.41284
400.41278
400.41277
400.4128
400.41287
400.41286
400.4128
400.4128
400.41284
400.41291
400.4129
400.41287
400.41287
400.41291
400.41299
415.41073
415.41065
415.41064
415.41066
415.41071
415.41065
415.41059
415.41057
415.4106
415.41067
415.41064
415.41057
415.41057
415.4106
415.41067
415.41066
415.4106
415.4106
415.41064
415.41072
415.41071
415.41067
415.41067
415.41072
415.4108
430.41072
430.41065
430.41063
430.41065
430.41071
430.41065
430.41058
430.41057
430.4106
430.41067
430.41063
430.41057
430.41057
430.4106
430.41068
430.41065
430.4106
430.4106
430.41064
430.41072
430.41071
430.41067
430.41068
430.41072
430.41081
445.41291
445.41284
445.41283
445.41285
445.4129
445.41284
445.41278
445.41277
445.4128
445.41287
445.41283
445.41277
445.41277
445.41281
445.41288
445.41285
445.4128
445.41281
445.41285
445.41292
445.4129
445.41287
445.41288
445.41292
445.41301
460.41725
460.41718
460.41717
460.4172
460.41725
460.41718
460.41713
460.41712
460.41715
460.41722
460.41717
460.41712
460.41712
460.41716
460.41723
460.4172
460.41715
460.41716
460.4172
460.41727
460.41725
460.41722
460.41723
460.41727
460.41735
475.42362
475.42356
475.42355
475.42358
475.42363
475.42356
475.42351
475.42351
475.42354
475.4236
475.42355
475.42351
475.42351
475.42354
475.42361
475.42358
475.42354
475.42354
475.42358
475.42366
475.42363
475.4236
475.42361
475.42366
475.42373
490.43188
490.43183
490.43182
490.43184
490.43189
490.43183
490.43178
490.43178
490.43181
490.43187
490.43182
490.43178
490.43178
490.43182
490.43188
490.43184
490.43181
490.43182
490.43185
490.43192
490.43189
490.43187
490.43188
490.43192
490.43199
505.44181
505.44177
505.44176
505.44179
505.44183
505.44177
505.44173
505.44173
505.44176
505.44181
505.44176
505.44173
505.44174
505.44177
505.44182
505.44179
505.44176
505.44177
505.4418
505.44186
505.44183
505.44181
505.44182
505.44186
505.44192
520.45317
520.45314
520.45314
520.45316
520.4532
520.45314
520.45312
520.45312
520.45314
520.45319
520.45314
520.45312
520.45313
520.45315
520.4532
520.45316
520.45314
520.45315
520.45318
520.45323
520.4532
520.45319
520.4532
520.45323
520.45328
535.46569
535.46568
535.46568
535.46569
535.46572
535.46568
535.46566
535.46566
535.46568
535.46571
535.46568
535.46566
535.46567
535.46569
535.46572
535.46569
535.46568
535.46569
535.46571
535.46575
535.46572
535.46571
535.46572
535.46575
535.46579
550.47906
550.47905
550.47906
550.47907
550.47909
550.47905
550.47905
550.47905
550.47906
550.47909
550.47906
550.47905
550.47905
550.47907
550.47909
550.47907
550.47906
550.47907
550.47908
550.47911
550.47909
550.47909
550.47909
550.47911
550.47914
565.49296
565.49296
565.49296
565.49296
565.49297
565.49296
565.49295
565.49296
565.49296
565.49297
565.49296
565.49296
565.49296
565.49296
565.49297
565.49296
565.49296
565.49296
565.49297
565.49298
565.49297
565.49297
565.49297
565.49298
565.49299
)
;

boundaryField
{
    wall_minX
    {
        type            zeroGradient;
    }
    wall_maxX
    {
        type            zeroGradient;
    }
    wall_minY
    {
        type            zeroGradient;
    }
    wall_maxY
    {
        type            zeroGradient;
    }
    inlet_minZ
    {
        type            fixedValue;
        value           uniform 273;
    }
    outlet_maxZ
    {
        type            fixedValue;
        value           uniform 573;
    }
}


// ************************************************************************* //
