/*--------------------------------*- C++ -*----------------------------------*\
| =========                 |                                                 |
| \\      /  F ield         | OpenFOAM: The Open Source CFD Toolbox           |
|  \\    /   O peration     | Version:  v2106                                 |
|   \\  /    A nd           | Website:  www.openfoam.com                      |
|    \\/     M anipulation  |                                                 |
\*---------------------------------------------------------------------------*/
FoamFile
{
    version     2.0;
    format      ascii;
    arch        "LSB;label=32;scalar=64";
    class       volScalarField;
    location    "50";
    object      Tmode_lapla3;
}
// * * * * * * * * * * * * * * * * * * * * * * * * * * * * * * * * * * * * * //

dimensions      [0 -2 0 0 0 0 0];

internalField   nonuniform List<scalar> 
500
(
0.59571732
0.59533982
0.59505955
0.59538202
0.59539384
0.59533982
0.5946296
0.59487609
0.59513244
0.5951897
0.59505955
0.59487609
0.59497536
0.59518213
0.59524274
0.59538202
0.59513244
0.59518213
0.59530429
0.59527589
0.59539384
0.5951897
0.59524274
0.59527589
0.59525561
1.7860608
1.7852499
1.7849693
1.7855491
1.785608
1.7852499
1.7842153
1.784686
1.7851394
1.7853535
1.7849693
1.784686
1.7848666
1.7851954
1.785388
1.7855491
1.7851394
1.7851954
1.7853281
1.7853612
1.785608
1.7853535
1.785388
1.7853612
1.7855165
2.9721259
2.9710821
2.9708978
2.9716494
2.9717673
2.9710821
2.9698137
2.9704775
2.971075
2.9714798
2.9708978
2.9704775
2.9706997
2.9710771
2.9714275
2.9716494
2.971075
2.9710771
2.97117
2.9713652
2.9717673
2.9714798
2.9714275
2.9713652
2.9718071
4.1444196
4.1431796
4.1430085
4.1439121
4.1441037
4.1431796
4.1417062
4.1424539
4.1431534
4.1437457
4.1430085
4.1424539
4.142625
4.1430286
4.1435637
4.1439121
4.1431534
4.1430286
4.1430672
4.1435313
4.1441037
4.1437457
4.1435637
4.1435313
4.1442502
5.2814554
5.2800164
5.2798388
5.280849
5.2811001
5.2800164
5.2783497
5.279139
5.2799079
5.2806694
5.2798388
5.279139
5.2792257
5.2796277
5.2803352
5.280849
5.2799079
5.2796277
5.2795856
5.2803502
5.2811001
5.2806694
5.2803352
5.2803502
5.2813458
6.3435208
6.3419006
6.3417276
6.3428146
6.3431199
6.3419006
6.3400811
6.3408827
6.3417004
6.3426194
6.3417276
6.3408827
6.3408692
6.3412551
6.342127
6.3428146
6.3417004
6.3412551
6.341123
6.3421948
6.3431199
6.3426194
6.342127
6.3421948
6.343458
7.2644449
7.2626596
7.2625173
7.2636408
7.2639948
7.2626596
7.2607446
7.2615247
7.2623605
7.2634244
7.2625173
7.2615247
7.2613989
7.2617482
7.262775
7.2636408
7.2623605
7.2617482
7.2615175
7.2628981
7.2639948
7.2634244
7.262775
7.2628981
7.2644148
7.9405345
7.9385919
7.938523
7.9396251
7.9400232
7.9385919
7.9366546
7.9373755
7.9381824
7.9393778
7.938523
7.9373755
7.9371301
7.9374113
7.9385812
7.9396251
7.9381824
7.9374113
7.937071
7.9387599
7.9400232
7.9393778
7.9385812
7.9387599
7.9405135
8.2163908
8.2142882
8.2143535
8.2153583
8.2157969
8.2142882
8.2124165
8.2130424
8.2137541
8.215067
8.2143535
8.2130424
8.2126808
8.2128498
8.2141465
8.2153583
8.2137541
8.2128498
8.212386
8.2143777
8.2157969
8.215067
8.2141465
8.2143777
8.2163476
7.8674501
7.8651757
7.8654519
7.86627
7.8667471
7.8651757
7.8634676
7.8639745
7.8645063
7.8659204
7.8654519
7.8639745
7.8635182
7.8635201
7.8649181
7.86627
7.8645063
7.8635201
7.8629187
7.8651936
7.8667471
7.8659204
7.8649181
7.8651936
7.8673519
6.580752
6.5782937
6.5788614
6.5794028
6.5799166
6.5782937
6.5768441
6.5772338
6.5774908
6.5789837
6.5788614
6.5772338
6.5767319
6.5765067
6.5779658
6.5794028
6.5774908
6.5765067
6.5757589
6.5782699
6.5799166
6.5789837
6.5779658
6.5782699
6.580576
3.9401313
3.9374941
3.9384163
3.9386131
3.9391608
3.9374941
3.9363752
3.936689
3.936585
3.9381243
3.9384163
3.936689
3.9362249
3.9357234
3.9371823
3.9386131
3.936585
3.9357234
3.9348344
3.93749
3.9391608
3.9381243
3.9371823
3.93749
3.939884
-0.56551821
-0.56828465
-0.56699662
-0.56716004
-0.5665833
-0.56828465
-0.56904931
-0.56872556
-0.56923666
-0.56769563
-0.56699662
-0.56872556
-0.56903325
-0.56982588
-0.56844946
-0.56716004
-0.56923666
-0.56982588
-0.57082429
-0.56817472
-0.5665833
-0.56769563
-0.56844946
-0.56817472
-0.56577628
-7.4615807
-7.4643534
-7.4627757
-7.4632362
-7.4626371
-7.4643534
-7.4648087
-7.4643647
-7.4652508
-7.4637622
-7.4627757
-7.4643647
-7.4643801
-7.4654168
-7.4642164
-7.4632362
-7.4652508
-7.4654168
-7.4664596
-7.4640295
-7.4626371
-7.4637622
-7.4642164
-7.4640295
-7.4617313
-17.015652
-17.018222
-17.016539
-17.017159
-17.016546
-17.018222
-17.018479
-17.017845
-17.018979
-17.017597
-17.016539
-17.017845
-17.017472
-17.01864
-17.017695
-17.017159
-17.018979
-17.01864
-17.01965
-17.017693
-17.016546
-17.017597
-17.017695
-17.017693
-17.015604
-28.511887
-28.51399
-28.512472
-28.5131
-28.512494
-28.51399
-28.514178
-28.51342
-28.514627
-28.513395
-28.512472
-28.51342
-28.512706
-28.513883
-28.513216
-28.5131
-28.514627
-28.513883
-28.514845
-28.513577
-28.512494
-28.513395
-28.513216
-28.513577
-28.511747
-38.561328
-38.562727
-38.561631
-38.562193
-38.561636
-38.562727
-38.562884
-38.562216
-38.563364
-38.56229
-38.561631
-38.562216
-38.561392
-38.562519
-38.562034
-38.562193
-38.563364
-38.562519
-38.563522
-38.562949
-38.561636
-38.56229
-38.562034
-38.562949
-38.561207
-37.750749
-37.75133
-37.750737
-37.751246
-37.750799
-37.75133
-37.75132
-37.750906
-37.751953
-37.751047
-37.750737
-37.750906
-37.750265
-37.75135
-37.750921
-37.751246
-37.751953
-37.75135
-37.752486
-37.752407
-37.750799
-37.751047
-37.750921
-37.752407
-37.750489
-6.8847745
-6.8846258
-6.8844357
-6.8848947
-6.8846125
-6.8846258
-6.8843669
-6.8841486
-6.8850374
-6.8843976
-6.8844357
-6.8841486
-6.8837985
-6.884772
-6.8844306
-6.8848947
-6.8850374
-6.884772
-6.8859305
-6.8860686
-6.8846125
-6.8843976
-6.8844306
-6.8860686
-6.8838881
983.60075
983.60103
983.60108
983.60071
983.6008
983.60103
983.60133
983.60144
983.60083
983.60107
983.60108
983.60144
983.60155
983.60088
983.60091
983.60071
983.60083
983.60088
983.60001
983.59974
983.6008
983.60107
983.60091
983.59974
983.60166
)
;

boundaryField
{
    wall_minX
    {
        type            extrapolatedCalculated;
        value           nonuniform List<scalar> 
100
(
0.59571732
0.59533982
0.59505955
0.59538202
0.59539384
1.7860608
1.7852499
1.7849693
1.7855491
1.785608
2.9721259
2.9710821
2.9708978
2.9716494
2.9717673
4.1444196
4.1431796
4.1430085
4.1439121
4.1441037
5.2814554
5.2800164
5.2798388
5.280849
5.2811001
6.3435208
6.3419006
6.3417276
6.3428146
6.3431199
7.2644449
7.2626596
7.2625173
7.2636408
7.2639948
7.9405345
7.9385919
7.938523
7.9396251
7.9400232
8.2163908
8.2142882
8.2143535
8.2153583
8.2157969
7.8674501
7.8651757
7.8654519
7.86627
7.8667471
6.580752
6.5782937
6.5788614
6.5794028
6.5799166
3.9401313
3.9374941
3.9384163
3.9386131
3.9391608
-0.56551821
-0.56828465
-0.56699662
-0.56716004
-0.5665833
-7.4615807
-7.4643534
-7.4627757
-7.4632362
-7.4626371
-17.015652
-17.018222
-17.016539
-17.017159
-17.016546
-28.511887
-28.51399
-28.512472
-28.5131
-28.512494
-38.561328
-38.562727
-38.561631
-38.562193
-38.561636
-37.750749
-37.75133
-37.750737
-37.751246
-37.750799
-6.8847745
-6.8846258
-6.8844357
-6.8848947
-6.8846125
983.60075
983.60103
983.60108
983.60071
983.6008
)
;
    }
    wall_maxX
    {
        type            extrapolatedCalculated;
        value           nonuniform List<scalar> 
100
(
0.59539384
0.5951897
0.59524274
0.59527589
0.59525561
1.785608
1.7853535
1.785388
1.7853612
1.7855165
2.9717673
2.9714798
2.9714275
2.9713652
2.9718071
4.1441037
4.1437457
4.1435637
4.1435313
4.1442502
5.2811001
5.2806694
5.2803352
5.2803502
5.2813458
6.3431199
6.3426194
6.342127
6.3421948
6.343458
7.2639948
7.2634244
7.262775
7.2628981
7.2644148
7.9400232
7.9393778
7.9385812
7.9387599
7.9405135
8.2157969
8.215067
8.2141465
8.2143777
8.2163476
7.8667471
7.8659204
7.8649181
7.8651936
7.8673519
6.5799166
6.5789837
6.5779658
6.5782699
6.580576
3.9391608
3.9381243
3.9371823
3.93749
3.939884
-0.5665833
-0.56769563
-0.56844946
-0.56817472
-0.56577628
-7.4626371
-7.4637622
-7.4642164
-7.4640295
-7.4617313
-17.016546
-17.017597
-17.017695
-17.017693
-17.015604
-28.512494
-28.513395
-28.513216
-28.513577
-28.511747
-38.561636
-38.56229
-38.562034
-38.562949
-38.561207
-37.750799
-37.751047
-37.750921
-37.752407
-37.750489
-6.8846125
-6.8843976
-6.8844306
-6.8860686
-6.8838881
983.6008
983.60107
983.60091
983.59974
983.60166
)
;
    }
    wall_minY
    {
        type            extrapolatedCalculated;
        value           nonuniform List<scalar> 
100
(
0.59571732
1.7860608
2.9721259
4.1444196
5.2814554
6.3435208
7.2644449
7.9405345
8.2163908
7.8674501
6.580752
3.9401313
-0.56551821
-7.4615807
-17.015652
-28.511887
-38.561328
-37.750749
-6.8847745
983.60075
0.59533982
1.7852499
2.9710821
4.1431796
5.2800164
6.3419006
7.2626596
7.9385919
8.2142882
7.8651757
6.5782937
3.9374941
-0.56828465
-7.4643534
-17.018222
-28.51399
-38.562727
-37.75133
-6.8846258
983.60103
0.59505955
1.7849693
2.9708978
4.1430085
5.2798388
6.3417276
7.2625173
7.938523
8.2143535
7.8654519
6.5788614
3.9384163
-0.56699662
-7.4627757
-17.016539
-28.512472
-38.561631
-37.750737
-6.8844357
983.60108
0.59538202
1.7855491
2.9716494
4.1439121
5.280849
6.3428146
7.2636408
7.9396251
8.2153583
7.86627
6.5794028
3.9386131
-0.56716004
-7.4632362
-17.017159
-28.5131
-38.562193
-37.751246
-6.8848947
983.60071
0.59539384
1.785608
2.9717673
4.1441037
5.2811001
6.3431199
7.2639948
7.9400232
8.2157969
7.8667471
6.5799166
3.9391608
-0.5665833
-7.4626371
-17.016546
-28.512494
-38.561636
-37.750799
-6.8846125
983.6008
)
;
    }
    wall_maxY
    {
        type            extrapolatedCalculated;
        value           nonuniform List<scalar> 
100
(
0.59539384
1.785608
2.9717673
4.1441037
5.2811001
6.3431199
7.2639948
7.9400232
8.2157969
7.8667471
6.5799166
3.9391608
-0.5665833
-7.4626371
-17.016546
-28.512494
-38.561636
-37.750799
-6.8846125
983.6008
0.5951897
1.7853535
2.9714798
4.1437457
5.2806694
6.3426194
7.2634244
7.9393778
8.215067
7.8659204
6.5789837
3.9381243
-0.56769563
-7.4637622
-17.017597
-28.513395
-38.56229
-37.751047
-6.8843976
983.60107
0.59524274
1.785388
2.9714275
4.1435637
5.2803352
6.342127
7.262775
7.9385812
8.2141465
7.8649181
6.5779658
3.9371823
-0.56844946
-7.4642164
-17.017695
-28.513216
-38.562034
-37.750921
-6.8844306
983.60091
0.59527589
1.7853612
2.9713652
4.1435313
5.2803502
6.3421948
7.2628981
7.9387599
8.2143777
7.8651936
6.5782699
3.93749
-0.56817472
-7.4640295
-17.017693
-28.513577
-38.562949
-37.752407
-6.8860686
983.59974
0.59525561
1.7855165
2.9718071
4.1442502
5.2813458
6.343458
7.2644148
7.9405135
8.2163476
7.8673519
6.580576
3.939884
-0.56577628
-7.4617313
-17.015604
-28.511747
-38.561207
-37.750489
-6.8838881
983.60166
)
;
    }
    inlet_minZ
    {
        type            extrapolatedCalculated;
        value           nonuniform List<scalar> 
25
(
0.59571732
0.59533982
0.59505955
0.59538202
0.59539384
0.59533982
0.5946296
0.59487609
0.59513244
0.5951897
0.59505955
0.59487609
0.59497536
0.59518213
0.59524274
0.59538202
0.59513244
0.59518213
0.59530429
0.59527589
0.59539384
0.5951897
0.59524274
0.59527589
0.59525561
)
;
    }
    outlet_maxZ
    {
        type            extrapolatedCalculated;
        value           nonuniform List<scalar> 
25
(
983.60075
983.60103
983.60108
983.60071
983.6008
983.60103
983.60133
983.60144
983.60083
983.60107
983.60108
983.60144
983.60155
983.60088
983.60091
983.60071
983.60083
983.60088
983.60001
983.59974
983.6008
983.60107
983.60091
983.59974
983.60166
)
;
    }
}


// ************************************************************************* //
