/*--------------------------------*- C++ -*----------------------------------*\
| =========                 |                                                 |
| \\      /  F ield         | OpenFOAM: The Open Source CFD Toolbox           |
|  \\    /   O peration     | Version:  v2106                                 |
|   \\  /    A nd           | Website:  www.openfoam.com                      |
|    \\/     M anipulation  |                                                 |
\*---------------------------------------------------------------------------*/
FoamFile
{
    version     2.0;
    format      ascii;
    arch        "LSB;label=32;scalar=64";
    class       volScalarField;
    location    "50";
    object      Tmode0;
}
// * * * * * * * * * * * * * * * * * * * * * * * * * * * * * * * * * * * * * //

dimensions      [0 0 0 0 0 0 0];

internalField   nonuniform List<scalar> 
500
(
-0.021603225
-0.021603225
-0.021603223
-0.021603222
-0.021603222
-0.021603225
-0.021603224
-0.021603222
-0.021603221
-0.021603221
-0.021603223
-0.021603222
-0.02160322
-0.02160322
-0.02160322
-0.021603222
-0.021603221
-0.02160322
-0.02160322
-0.02160322
-0.021603222
-0.021603221
-0.02160322
-0.02160322
-0.021603221
-0.022539465
-0.022539465
-0.022539459
-0.022539457
-0.022539457
-0.022539465
-0.022539461
-0.022539456
-0.022539455
-0.022539455
-0.022539459
-0.022539456
-0.022539452
-0.022539452
-0.022539453
-0.022539457
-0.022539455
-0.022539452
-0.022539452
-0.022539454
-0.022539457
-0.022539455
-0.022539453
-0.022539454
-0.022539456
-0.023481079
-0.023481077
-0.02348107
-0.023481067
-0.023481066
-0.023481077
-0.023481072
-0.023481065
-0.023481064
-0.023481065
-0.02348107
-0.023481065
-0.023481059
-0.02348106
-0.023481063
-0.023481067
-0.023481064
-0.02348106
-0.023481062
-0.023481065
-0.023481066
-0.023481065
-0.023481063
-0.023481065
-0.023481068
-0.024431636
-0.024431633
-0.024431624
-0.024431621
-0.024431622
-0.024431633
-0.024431627
-0.024431619
-0.024431618
-0.02443162
-0.024431624
-0.024431619
-0.024431612
-0.024431614
-0.024431619
-0.024431621
-0.024431618
-0.024431614
-0.024431618
-0.024431623
-0.024431622
-0.02443162
-0.024431619
-0.024431623
-0.024431627
-0.025394688
-0.025394684
-0.025394674
-0.025394672
-0.025394673
-0.025394684
-0.025394677
-0.025394668
-0.025394668
-0.025394671
-0.025394674
-0.025394668
-0.025394662
-0.025394665
-0.025394671
-0.025394672
-0.025394668
-0.025394665
-0.025394671
-0.025394678
-0.025394673
-0.025394671
-0.025394671
-0.025394678
-0.025394682
-0.026373757
-0.026373752
-0.026373742
-0.02637374
-0.026373742
-0.026373752
-0.026373744
-0.026373735
-0.026373737
-0.026373741
-0.026373742
-0.026373735
-0.026373729
-0.026373734
-0.026373742
-0.02637374
-0.026373737
-0.026373734
-0.026373742
-0.02637375
-0.026373742
-0.026373741
-0.026373742
-0.02637375
-0.026373756
-0.027372325
-0.027372321
-0.02737231
-0.027372309
-0.027372312
-0.027372321
-0.027372312
-0.027372303
-0.027372306
-0.027372311
-0.02737231
-0.027372303
-0.027372297
-0.027372304
-0.027372313
-0.027372309
-0.027372306
-0.027372304
-0.027372314
-0.027372324
-0.027372312
-0.027372311
-0.027372313
-0.027372324
-0.02737233
-0.028393827
-0.028393822
-0.028393812
-0.028393812
-0.028393815
-0.028393822
-0.028393813
-0.028393804
-0.028393809
-0.028393815
-0.028393812
-0.028393804
-0.0283938
-0.028393808
-0.028393818
-0.028393812
-0.028393809
-0.028393808
-0.02839382
-0.028393831
-0.028393815
-0.028393815
-0.028393818
-0.028393831
-0.028393838
-0.029441634
-0.029441629
-0.029441619
-0.02944162
-0.029441624
-0.029441629
-0.02944162
-0.029441612
-0.029441617
-0.029441625
-0.029441619
-0.029441612
-0.029441608
-0.029441618
-0.029441629
-0.02944162
-0.029441617
-0.029441618
-0.029441631
-0.029441643
-0.029441624
-0.029441625
-0.029441629
-0.029441643
-0.02944165
-0.030519043
-0.030519038
-0.030519029
-0.03051903
-0.030519035
-0.030519038
-0.030519029
-0.030519022
-0.030519028
-0.030519036
-0.030519029
-0.030519022
-0.030519019
-0.03051903
-0.030519042
-0.03051903
-0.030519028
-0.03051903
-0.030519045
-0.030519057
-0.030519035
-0.030519036
-0.030519042
-0.030519057
-0.030519065
-0.031629262
-0.031629257
-0.031629249
-0.031629251
-0.031629257
-0.031629257
-0.031629249
-0.031629243
-0.03162925
-0.031629259
-0.031629249
-0.031629243
-0.031629241
-0.031629253
-0.031629266
-0.031629251
-0.03162925
-0.031629253
-0.031629269
-0.031629282
-0.031629257
-0.031629259
-0.031629266
-0.031629282
-0.031629289
-0.032775398
-0.032775393
-0.032775387
-0.03277539
-0.032775396
-0.032775393
-0.032775386
-0.032775381
-0.032775389
-0.032775398
-0.032775387
-0.032775381
-0.032775381
-0.032775394
-0.032775406
-0.03277539
-0.032775389
-0.032775394
-0.03277541
-0.032775423
-0.032775396
-0.032775398
-0.032775406
-0.032775423
-0.03277543
-0.033960445
-0.03396044
-0.033960435
-0.033960439
-0.033960445
-0.03396044
-0.033960434
-0.033960431
-0.033960439
-0.033960448
-0.033960435
-0.033960431
-0.033960432
-0.033960445
-0.033960457
-0.033960439
-0.033960439
-0.033960445
-0.033960461
-0.033960474
-0.033960445
-0.033960448
-0.033960457
-0.033960474
-0.033960481
-0.035187269
-0.035187265
-0.035187261
-0.035187266
-0.035187273
-0.035187265
-0.03518726
-0.035187258
-0.035187267
-0.035187276
-0.035187261
-0.035187258
-0.035187261
-0.035187274
-0.035187286
-0.035187266
-0.035187267
-0.035187274
-0.03518729
-0.035187302
-0.035187273
-0.035187276
-0.035187286
-0.035187302
-0.035187309
-0.036458594
-0.036458591
-0.036458588
-0.036458594
-0.0364586
-0.036458591
-0.036458586
-0.036458586
-0.036458596
-0.036458604
-0.036458588
-0.036458586
-0.03645859
-0.036458604
-0.036458615
-0.036458594
-0.036458596
-0.036458604
-0.036458619
-0.03645863
-0.0364586
-0.036458604
-0.036458615
-0.03645863
-0.036458636
-0.037776946
-0.037776943
-0.037776943
-0.037776949
-0.037776955
-0.037776943
-0.03777694
-0.037776942
-0.037776951
-0.037776959
-0.037776943
-0.037776942
-0.037776947
-0.037776959
-0.037776969
-0.037776949
-0.037776951
-0.037776959
-0.037776974
-0.037776983
-0.037776955
-0.037776959
-0.037776969
-0.037776983
-0.037776988
-0.03914452
-0.039144518
-0.039144519
-0.039144525
-0.039144531
-0.039144518
-0.039144516
-0.039144519
-0.039144528
-0.039144535
-0.039144519
-0.039144519
-0.039144525
-0.039144536
-0.039144544
-0.039144525
-0.039144528
-0.039144536
-0.039144549
-0.039144556
-0.039144531
-0.039144535
-0.039144544
-0.039144556
-0.039144559
-0.040562888
-0.040562887
-0.040562888
-0.040562894
-0.040562899
-0.040562887
-0.040562885
-0.040562889
-0.040562896
-0.040562902
-0.040562888
-0.040562889
-0.040562894
-0.040562904
-0.04056291
-0.040562894
-0.040562896
-0.040562904
-0.040562914
-0.040562919
-0.040562899
-0.040562902
-0.04056291
-0.040562919
-0.040562921
-0.04203252
-0.042032519
-0.04203252
-0.042032525
-0.042032528
-0.042032519
-0.042032519
-0.042032521
-0.042032527
-0.042032531
-0.04203252
-0.042032521
-0.042032526
-0.042032532
-0.042032536
-0.042032525
-0.042032527
-0.042032532
-0.042032539
-0.042032542
-0.042032528
-0.042032531
-0.042032536
-0.042032542
-0.042032543
-0.043551887
-0.043551886
-0.043551887
-0.043551889
-0.04355189
-0.043551886
-0.043551886
-0.043551888
-0.04355189
-0.043551891
-0.043551887
-0.043551888
-0.043551889
-0.043551892
-0.043551894
-0.043551889
-0.04355189
-0.043551892
-0.043551895
-0.043551895
-0.04355189
-0.043551891
-0.043551894
-0.043551895
-0.043551895
)
;

boundaryField
{
    wall_minX
    {
        type            calculated;
        value           nonuniform List<scalar> 
100
(
-0.021603225
-0.021603225
-0.021603223
-0.021603222
-0.021603222
-0.022539465
-0.022539465
-0.022539459
-0.022539457
-0.022539457
-0.023481079
-0.023481077
-0.02348107
-0.023481067
-0.023481066
-0.024431636
-0.024431633
-0.024431624
-0.024431621
-0.024431622
-0.025394688
-0.025394684
-0.025394674
-0.025394672
-0.025394673
-0.026373757
-0.026373752
-0.026373742
-0.02637374
-0.026373742
-0.027372325
-0.027372321
-0.02737231
-0.027372309
-0.027372312
-0.028393827
-0.028393822
-0.028393812
-0.028393812
-0.028393815
-0.029441634
-0.029441629
-0.029441619
-0.02944162
-0.029441624
-0.030519043
-0.030519038
-0.030519029
-0.03051903
-0.030519035
-0.031629262
-0.031629257
-0.031629249
-0.031629251
-0.031629257
-0.032775398
-0.032775393
-0.032775387
-0.03277539
-0.032775396
-0.033960445
-0.03396044
-0.033960435
-0.033960439
-0.033960445
-0.035187269
-0.035187265
-0.035187261
-0.035187266
-0.035187273
-0.036458594
-0.036458591
-0.036458588
-0.036458594
-0.0364586
-0.037776946
-0.037776943
-0.037776943
-0.037776949
-0.037776955
-0.03914452
-0.039144518
-0.039144519
-0.039144525
-0.039144531
-0.040562888
-0.040562887
-0.040562888
-0.040562894
-0.040562899
-0.04203252
-0.042032519
-0.04203252
-0.042032525
-0.042032528
-0.043551887
-0.043551886
-0.043551887
-0.043551889
-0.04355189
)
;
    }
    wall_maxX
    {
        type            calculated;
        value           nonuniform List<scalar> 
100
(
-0.021603222
-0.021603221
-0.02160322
-0.02160322
-0.021603221
-0.022539457
-0.022539455
-0.022539453
-0.022539454
-0.022539456
-0.023481066
-0.023481065
-0.023481063
-0.023481065
-0.023481068
-0.024431622
-0.02443162
-0.024431619
-0.024431623
-0.024431627
-0.025394673
-0.025394671
-0.025394671
-0.025394678
-0.025394682
-0.026373742
-0.026373741
-0.026373742
-0.02637375
-0.026373756
-0.027372312
-0.027372311
-0.027372313
-0.027372324
-0.02737233
-0.028393815
-0.028393815
-0.028393818
-0.028393831
-0.028393838
-0.029441624
-0.029441625
-0.029441629
-0.029441643
-0.02944165
-0.030519035
-0.030519036
-0.030519042
-0.030519057
-0.030519065
-0.031629257
-0.031629259
-0.031629266
-0.031629282
-0.031629289
-0.032775396
-0.032775398
-0.032775406
-0.032775423
-0.03277543
-0.033960445
-0.033960448
-0.033960457
-0.033960474
-0.033960481
-0.035187273
-0.035187276
-0.035187286
-0.035187302
-0.035187309
-0.0364586
-0.036458604
-0.036458615
-0.03645863
-0.036458636
-0.037776955
-0.037776959
-0.037776969
-0.037776983
-0.037776988
-0.039144531
-0.039144535
-0.039144544
-0.039144556
-0.039144559
-0.040562899
-0.040562902
-0.04056291
-0.040562919
-0.040562921
-0.042032528
-0.042032531
-0.042032536
-0.042032542
-0.042032543
-0.04355189
-0.043551891
-0.043551894
-0.043551895
-0.043551895
)
;
    }
    wall_minY
    {
        type            calculated;
        value           nonuniform List<scalar> 
100
(
-0.021603225
-0.022539465
-0.023481079
-0.024431636
-0.025394688
-0.026373757
-0.027372325
-0.028393827
-0.029441634
-0.030519043
-0.031629262
-0.032775398
-0.033960445
-0.035187269
-0.036458594
-0.037776946
-0.03914452
-0.040562888
-0.04203252
-0.043551887
-0.021603225
-0.022539465
-0.023481077
-0.024431633
-0.025394684
-0.026373752
-0.027372321
-0.028393822
-0.029441629
-0.030519038
-0.031629257
-0.032775393
-0.03396044
-0.035187265
-0.036458591
-0.037776943
-0.039144518
-0.040562887
-0.042032519
-0.043551886
-0.021603223
-0.022539459
-0.02348107
-0.024431624
-0.025394674
-0.026373742
-0.02737231
-0.028393812
-0.029441619
-0.030519029
-0.031629249
-0.032775387
-0.033960435
-0.035187261
-0.036458588
-0.037776943
-0.039144519
-0.040562888
-0.04203252
-0.043551887
-0.021603222
-0.022539457
-0.023481067
-0.024431621
-0.025394672
-0.02637374
-0.027372309
-0.028393812
-0.02944162
-0.03051903
-0.031629251
-0.03277539
-0.033960439
-0.035187266
-0.036458594
-0.037776949
-0.039144525
-0.040562894
-0.042032525
-0.043551889
-0.021603222
-0.022539457
-0.023481066
-0.024431622
-0.025394673
-0.026373742
-0.027372312
-0.028393815
-0.029441624
-0.030519035
-0.031629257
-0.032775396
-0.033960445
-0.035187273
-0.0364586
-0.037776955
-0.039144531
-0.040562899
-0.042032528
-0.04355189
)
;
    }
    wall_maxY
    {
        type            calculated;
        value           nonuniform List<scalar> 
100
(
-0.021603222
-0.022539457
-0.023481066
-0.024431622
-0.025394673
-0.026373742
-0.027372312
-0.028393815
-0.029441624
-0.030519035
-0.031629257
-0.032775396
-0.033960445
-0.035187273
-0.0364586
-0.037776955
-0.039144531
-0.040562899
-0.042032528
-0.04355189
-0.021603221
-0.022539455
-0.023481065
-0.02443162
-0.025394671
-0.026373741
-0.027372311
-0.028393815
-0.029441625
-0.030519036
-0.031629259
-0.032775398
-0.033960448
-0.035187276
-0.036458604
-0.037776959
-0.039144535
-0.040562902
-0.042032531
-0.043551891
-0.02160322
-0.022539453
-0.023481063
-0.024431619
-0.025394671
-0.026373742
-0.027372313
-0.028393818
-0.029441629
-0.030519042
-0.031629266
-0.032775406
-0.033960457
-0.035187286
-0.036458615
-0.037776969
-0.039144544
-0.04056291
-0.042032536
-0.043551894
-0.02160322
-0.022539454
-0.023481065
-0.024431623
-0.025394678
-0.02637375
-0.027372324
-0.028393831
-0.029441643
-0.030519057
-0.031629282
-0.032775423
-0.033960474
-0.035187302
-0.03645863
-0.037776983
-0.039144556
-0.040562919
-0.042032542
-0.043551895
-0.021603221
-0.022539456
-0.023481068
-0.024431627
-0.025394682
-0.026373756
-0.02737233
-0.028393838
-0.02944165
-0.030519065
-0.031629289
-0.03277543
-0.033960481
-0.035187309
-0.036458636
-0.037776988
-0.039144559
-0.040562921
-0.042032543
-0.043551895
)
;
    }
    inlet_minZ
    {
        type            calculated;
        value           uniform -0.021136001;
    }
    outlet_maxZ
    {
        type            calculated;
        value           uniform -0.044362375;
    }
}


// ************************************************************************* //
