/*--------------------------------*- C++ -*----------------------------------*\
| =========                 |                                                 |
| \\      /  F ield         | OpenFOAM: The Open Source CFD Toolbox           |
|  \\    /   O peration     | Version:  v2106                                 |
|   \\  /    A nd           | Website:  www.openfoam.com                      |
|    \\/     M anipulation  |                                                 |
\*---------------------------------------------------------------------------*/
FoamFile
{
    version     2.0;
    format      ascii;
    arch        "LSB;label=32;scalar=64";
    class       volScalarField;
    location    "50";
    object      Tmode1;
}
// * * * * * * * * * * * * * * * * * * * * * * * * * * * * * * * * * * * * * //

dimensions      [0 0 0 0 0 0 0];

internalField   nonuniform List<scalar> 
500
(
0.03594889
0.035948898
0.035948917
0.03594891
0.035948905
0.035948898
0.03594892
0.035948929
0.03594892
0.035948912
0.035948917
0.035948929
0.035948937
0.035948928
0.035948918
0.03594891
0.03594892
0.035948928
0.035948921
0.035948912
0.035948905
0.035948912
0.035948918
0.035948912
0.035948904
0.026794352
0.026794377
0.026794417
0.026794397
0.026794381
0.026794377
0.026794423
0.026794444
0.026794418
0.026794395
0.026794417
0.026794444
0.026794461
0.026794435
0.026794406
0.026794397
0.026794418
0.026794435
0.026794415
0.026794389
0.026794381
0.026794395
0.026794406
0.026794389
0.026794365
0.017770497
0.017770535
0.017770585
0.017770551
0.017770523
0.017770535
0.0177706
0.017770625
0.01777058
0.01777054
0.017770585
0.017770625
0.017770646
0.017770601
0.017770553
0.017770551
0.01777058
0.017770601
0.017770564
0.017770521
0.017770523
0.01777054
0.017770553
0.017770521
0.017770482
0.0089705255
0.0089705723
0.008970629
0.008970576
0.0089705349
0.0089705723
0.0089706526
0.008970678
0.0089706111
0.0089705534
0.008970629
0.008970678
0.0089707022
0.0089706357
0.0089705669
0.008970576
0.0089706111
0.0089706357
0.0089705802
0.0089705159
0.0089705349
0.0089705534
0.0089705669
0.0089705159
0.0089704626
0.00049691857
0.00049697252
0.00049703425
0.00049696092
0.0004969058
0.00049697252
0.0004970656
0.00049709039
0.00049700016
0.00049692475
0.00049703425
0.00049709039
0.00049711595
0.00049702773
0.0004969389
0.00049696092
0.00049700016
0.00049702773
0.0004969535
0.00049686871
0.0004969058
0.00049692475
0.0004969389
0.00049686871
0.00049680204
-0.0075345368
-0.0075344781
-0.0075344128
-0.0075345079
-0.0075345767
-0.0075344781
-0.0075343741
-0.0075343518
-0.0075344662
-0.0075345582
-0.0075344128
-0.0075343518
-0.0075343256
-0.0075344354
-0.0075345427
-0.0075345079
-0.0075344662
-0.0075344354
-0.0075345273
-0.0075346308
-0.0075345767
-0.0075345582
-0.0075345427
-0.0075346308
-0.0075347092
-0.014990434
-0.014990373
-0.014990305
-0.014990423
-0.014990505
-0.014990373
-0.01499026
-0.014990242
-0.01499038
-0.014990487
-0.014990305
-0.014990242
-0.014990215
-0.014990345
-0.014990469
-0.014990423
-0.01499038
-0.014990345
-0.014990453
-0.014990573
-0.014990505
-0.014990487
-0.014990469
-0.014990573
-0.01499066
-0.02171501
-0.021714949
-0.021714879
-0.02171502
-0.021715113
-0.021714949
-0.021714829
-0.021714814
-0.021714977
-0.021715096
-0.021714879
-0.021714814
-0.021714786
-0.021714935
-0.021715072
-0.02171502
-0.021714977
-0.021714935
-0.021715055
-0.021715188
-0.021715113
-0.021715096
-0.021715072
-0.021715188
-0.021715282
-0.02752487
-0.027524811
-0.027524739
-0.027524902
-0.027525004
-0.027524811
-0.027524685
-0.027524673
-0.027524859
-0.027524988
-0.027524739
-0.027524673
-0.027524641
-0.027524806
-0.027524953
-0.027524902
-0.027524859
-0.027524806
-0.027524935
-0.027525078
-0.027525004
-0.027524988
-0.027524953
-0.027525078
-0.027525175
-0.032203049
-0.032202994
-0.032202917
-0.0322031
-0.032203207
-0.032202994
-0.032202862
-0.032202851
-0.032203055
-0.03220319
-0.032202917
-0.032202851
-0.03220281
-0.032202986
-0.032203139
-0.0322031
-0.032203055
-0.032202986
-0.032203118
-0.032203268
-0.032203207
-0.03220319
-0.032203139
-0.032203268
-0.032203366
-0.035492247
-0.035492197
-0.035492112
-0.03549231
-0.035492419
-0.035492197
-0.035492059
-0.035492043
-0.035492261
-0.035492398
-0.035492112
-0.035492043
-0.035491987
-0.035492169
-0.035492325
-0.03549231
-0.035492261
-0.035492169
-0.035492299
-0.035492453
-0.035492419
-0.035492398
-0.035492325
-0.035492453
-0.035492549
-0.037087133
-0.037087086
-0.037086992
-0.037087197
-0.037087303
-0.037087086
-0.037086944
-0.037086916
-0.03708714
-0.037087274
-0.037086992
-0.037086916
-0.037086837
-0.037087017
-0.037087172
-0.037087197
-0.03708714
-0.037087017
-0.037087138
-0.037087295
-0.037087303
-0.037087274
-0.037087172
-0.037087295
-0.037087387
-0.036625719
-0.036625674
-0.036625567
-0.036625769
-0.036625866
-0.036625674
-0.036625528
-0.03662548
-0.036625699
-0.036625825
-0.036625567
-0.03662548
-0.03662537
-0.036625539
-0.03662569
-0.036625769
-0.036625699
-0.036625539
-0.036625645
-0.036625805
-0.036625866
-0.036625825
-0.03662569
-0.036625805
-0.036625893
-0.033680339
-0.033680295
-0.033680177
-0.033680361
-0.033680443
-0.033680295
-0.033680148
-0.033680074
-0.033680275
-0.033680388
-0.033680177
-0.033680074
-0.033679926
-0.033680074
-0.033680217
-0.033680361
-0.033680275
-0.033680074
-0.03368016
-0.033680323
-0.033680443
-0.033680388
-0.033680217
-0.033680323
-0.033680408
-0.027750241
-0.027750196
-0.027750071
-0.027750224
-0.027750287
-0.027750196
-0.027750055
-0.027749952
-0.027750121
-0.027750215
-0.027750071
-0.027749952
-0.027749767
-0.027749884
-0.027750016
-0.027750224
-0.027750121
-0.027749884
-0.027749947
-0.027750116
-0.027750287
-0.027750215
-0.027750016
-0.027750116
-0.0277502
-0.018261308
-0.01826126
-0.018261141
-0.018261252
-0.018261292
-0.01826126
-0.018261134
-0.018261009
-0.018261135
-0.018261208
-0.018261141
-0.018261009
-0.018260797
-0.018260877
-0.018260995
-0.018261252
-0.018261135
-0.018260877
-0.018260922
-0.018261097
-0.018261292
-0.018261208
-0.018260995
-0.018261097
-0.018261181
-0.0045850765
-0.0045850254
-0.0045849259
-0.0045849921
-0.0045850125
-0.0045850254
-0.0045849242
-0.0045847943
-0.0045848745
-0.0045849252
-0.0045849259
-0.0045847943
-0.0045845793
-0.0045846268
-0.0045847276
-0.0045849921
-0.0045848745
-0.0045846268
-0.0045846633
-0.0045848426
-0.0045850125
-0.0045849252
-0.0045847276
-0.0045848426
-0.0045849276
0.013902579
0.013902633
0.013902702
0.013902672
0.013902664
0.013902633
0.013902708
0.013902821
0.013902777
0.013902745
0.013902702
0.013902821
0.013903005
0.013902978
0.013902898
0.013902672
0.013902777
0.013902978
0.013902934
0.013902763
0.013902664
0.013902745
0.013902898
0.013902763
0.013902691
0.037698873
0.037698926
0.03769897
0.03769896
0.037698954
0.037698926
0.03769899
0.037699072
0.037699049
0.037699029
0.03769897
0.037699072
0.037699203
0.037699182
0.037699129
0.03769896
0.037699049
0.037699182
0.037699129
0.037698991
0.037698954
0.037699029
0.037699129
0.037698991
0.037698958
0.066936343
0.066936367
0.066936389
0.066936386
0.066936373
0.066936367
0.0669364
0.06693644
0.066936427
0.066936407
0.066936389
0.06693644
0.066936499
0.066936484
0.066936448
0.066936386
0.066936427
0.066936484
0.066936448
0.066936361
0.066936373
0.066936407
0.066936448
0.066936361
0.066936358
)
;

boundaryField
{
    wall_minX
    {
        type            calculated;
        value           nonuniform List<scalar> 
100
(
0.03594889
0.035948898
0.035948917
0.03594891
0.035948905
0.026794352
0.026794377
0.026794417
0.026794397
0.026794381
0.017770497
0.017770535
0.017770585
0.017770551
0.017770523
0.0089705255
0.0089705723
0.008970629
0.008970576
0.0089705349
0.00049691857
0.00049697252
0.00049703425
0.00049696092
0.0004969058
-0.0075345368
-0.0075344781
-0.0075344128
-0.0075345079
-0.0075345767
-0.014990434
-0.014990373
-0.014990305
-0.014990423
-0.014990505
-0.02171501
-0.021714949
-0.021714879
-0.02171502
-0.021715113
-0.02752487
-0.027524811
-0.027524739
-0.027524902
-0.027525004
-0.032203049
-0.032202994
-0.032202917
-0.0322031
-0.032203207
-0.035492247
-0.035492197
-0.035492112
-0.03549231
-0.035492419
-0.037087133
-0.037087086
-0.037086992
-0.037087197
-0.037087303
-0.036625719
-0.036625674
-0.036625567
-0.036625769
-0.036625866
-0.033680339
-0.033680295
-0.033680177
-0.033680361
-0.033680443
-0.027750241
-0.027750196
-0.027750071
-0.027750224
-0.027750287
-0.018261308
-0.01826126
-0.018261141
-0.018261252
-0.018261292
-0.0045850765
-0.0045850254
-0.0045849259
-0.0045849921
-0.0045850125
0.013902579
0.013902633
0.013902702
0.013902672
0.013902664
0.037698873
0.037698926
0.03769897
0.03769896
0.037698954
0.066936343
0.066936367
0.066936389
0.066936386
0.066936373
)
;
    }
    wall_maxX
    {
        type            calculated;
        value           nonuniform List<scalar> 
100
(
0.035948905
0.035948912
0.035948918
0.035948912
0.035948904
0.026794381
0.026794395
0.026794406
0.026794389
0.026794365
0.017770523
0.01777054
0.017770553
0.017770521
0.017770482
0.0089705349
0.0089705534
0.0089705669
0.0089705159
0.0089704626
0.0004969058
0.00049692475
0.0004969389
0.00049686871
0.00049680204
-0.0075345767
-0.0075345582
-0.0075345427
-0.0075346308
-0.0075347092
-0.014990505
-0.014990487
-0.014990469
-0.014990573
-0.01499066
-0.021715113
-0.021715096
-0.021715072
-0.021715188
-0.021715282
-0.027525004
-0.027524988
-0.027524953
-0.027525078
-0.027525175
-0.032203207
-0.03220319
-0.032203139
-0.032203268
-0.032203366
-0.035492419
-0.035492398
-0.035492325
-0.035492453
-0.035492549
-0.037087303
-0.037087274
-0.037087172
-0.037087295
-0.037087387
-0.036625866
-0.036625825
-0.03662569
-0.036625805
-0.036625893
-0.033680443
-0.033680388
-0.033680217
-0.033680323
-0.033680408
-0.027750287
-0.027750215
-0.027750016
-0.027750116
-0.0277502
-0.018261292
-0.018261208
-0.018260995
-0.018261097
-0.018261181
-0.0045850125
-0.0045849252
-0.0045847276
-0.0045848426
-0.0045849276
0.013902664
0.013902745
0.013902898
0.013902763
0.013902691
0.037698954
0.037699029
0.037699129
0.037698991
0.037698958
0.066936373
0.066936407
0.066936448
0.066936361
0.066936358
)
;
    }
    wall_minY
    {
        type            calculated;
        value           nonuniform List<scalar> 
100
(
0.03594889
0.026794352
0.017770497
0.0089705255
0.00049691857
-0.0075345368
-0.014990434
-0.02171501
-0.02752487
-0.032203049
-0.035492247
-0.037087133
-0.036625719
-0.033680339
-0.027750241
-0.018261308
-0.0045850765
0.013902579
0.037698873
0.066936343
0.035948898
0.026794377
0.017770535
0.0089705723
0.00049697252
-0.0075344781
-0.014990373
-0.021714949
-0.027524811
-0.032202994
-0.035492197
-0.037087086
-0.036625674
-0.033680295
-0.027750196
-0.01826126
-0.0045850254
0.013902633
0.037698926
0.066936367
0.035948917
0.026794417
0.017770585
0.008970629
0.00049703425
-0.0075344128
-0.014990305
-0.021714879
-0.027524739
-0.032202917
-0.035492112
-0.037086992
-0.036625567
-0.033680177
-0.027750071
-0.018261141
-0.0045849259
0.013902702
0.03769897
0.066936389
0.03594891
0.026794397
0.017770551
0.008970576
0.00049696092
-0.0075345079
-0.014990423
-0.02171502
-0.027524902
-0.0322031
-0.03549231
-0.037087197
-0.036625769
-0.033680361
-0.027750224
-0.018261252
-0.0045849921
0.013902672
0.03769896
0.066936386
0.035948905
0.026794381
0.017770523
0.0089705349
0.0004969058
-0.0075345767
-0.014990505
-0.021715113
-0.027525004
-0.032203207
-0.035492419
-0.037087303
-0.036625866
-0.033680443
-0.027750287
-0.018261292
-0.0045850125
0.013902664
0.037698954
0.066936373
)
;
    }
    wall_maxY
    {
        type            calculated;
        value           nonuniform List<scalar> 
100
(
0.035948905
0.026794381
0.017770523
0.0089705349
0.0004969058
-0.0075345767
-0.014990505
-0.021715113
-0.027525004
-0.032203207
-0.035492419
-0.037087303
-0.036625866
-0.033680443
-0.027750287
-0.018261292
-0.0045850125
0.013902664
0.037698954
0.066936373
0.035948912
0.026794395
0.01777054
0.0089705534
0.00049692475
-0.0075345582
-0.014990487
-0.021715096
-0.027524988
-0.03220319
-0.035492398
-0.037087274
-0.036625825
-0.033680388
-0.027750215
-0.018261208
-0.0045849252
0.013902745
0.037699029
0.066936407
0.035948918
0.026794406
0.017770553
0.0089705669
0.0004969389
-0.0075345427
-0.014990469
-0.021715072
-0.027524953
-0.032203139
-0.035492325
-0.037087172
-0.03662569
-0.033680217
-0.027750016
-0.018260995
-0.0045847276
0.013902898
0.037699129
0.066936448
0.035948912
0.026794389
0.017770521
0.0089705159
0.00049686871
-0.0075346308
-0.014990573
-0.021715188
-0.027525078
-0.032203268
-0.035492453
-0.037087295
-0.036625805
-0.033680323
-0.027750116
-0.018261097
-0.0045848426
0.013902763
0.037698991
0.066936361
0.035948904
0.026794365
0.017770482
0.0089704626
0.00049680204
-0.0075347092
-0.01499066
-0.021715282
-0.027525175
-0.032203366
-0.035492549
-0.037087387
-0.036625893
-0.033680408
-0.0277502
-0.018261181
-0.0045849276
0.013902691
0.037698958
0.066936358
)
;
    }
    inlet_minZ
    {
        type            calculated;
        value           uniform 0.040547642;
    }
    outlet_maxZ
    {
        type            calculated;
        value           uniform 0.08510549;
    }
}


// ************************************************************************* //
