/*--------------------------------*- C++ -*----------------------------------*\
| =========                 |                                                 |
| \\      /  F ield         | OpenFOAM: The Open Source CFD Toolbox           |
|  \\    /   O peration     | Version:  v2106                                 |
|   \\  /    A nd           | Website:  www.openfoam.com                      |
|    \\/     M anipulation  |                                                 |
\*---------------------------------------------------------------------------*/
FoamFile
{
    version     2.0;
    format      ascii;
    arch        "LSB;label=32;scalar=64";
    class       volVectorField;
    location    "50";
    object      Tmode_grad0;
}
// * * * * * * * * * * * * * * * * * * * * * * * * * * * * * * * * * * * * * //

dimensions      [0 -1 0 0 0 0 0];

internalField   nonuniform List<vector> 
500
(
(-2.8576401e-09 -2.8576398e-09 -0.046752276)
(4.7293142e-08 1.9670801e-08 -0.046752274)
(7.5984293e-08 1.9678258e-08 -0.046752084)
(2.9565493e-08 1.5345404e-08 -0.046751996)
(3.4397385e-09 1.0815302e-08 -0.046751978)
(1.9670802e-08 4.7293142e-08 -0.046752274)
(8.1095793e-08 8.1095794e-08 -0.046752161)
(6.9496196e-08 7.4340006e-08 -0.046751974)
(1.627106e-08 5.8158825e-08 -0.046751913)
(-1.0903637e-09 3.998229e-08 -0.046751922)
(1.9678258e-08 7.5984293e-08 -0.046752084)
(7.4340006e-08 6.9496197e-08 -0.046751974)
(5.3047324e-08 5.3047323e-08 -0.046751815)
(-4.7922222e-09 3.5465833e-08 -0.046751792)
(-8.6779511e-09 1.8734336e-08 -0.046751844)
(1.5345404e-08 2.9565493e-08 -0.046751996)
(5.8158824e-08 1.627106e-08 -0.046751913)
(3.5465833e-08 -4.7922222e-09 -0.046751792)
(-1.8041927e-08 -1.8041927e-08 -0.0467518)
(-1.2244695e-08 -2.4673539e-08 -0.046751871)
(1.0815302e-08 3.4397385e-09 -0.046751978)
(3.998229e-08 -1.0903638e-09 -0.046751922)
(1.8734336e-08 -8.677951e-09 -0.046751844)
(-2.4673539e-08 -1.2244695e-08 -0.046751871)
(-1.3099025e-08 -1.3099025e-08 -0.046751945)
(9.9500928e-09 9.9500928e-09 -0.046946352)
(1.4505224e-07 5.3849418e-08 -0.0469463)
(1.8981108e-07 5.0854296e-08 -0.046946164)
(7.1326048e-08 3.664152e-08 -0.046946114)
(7.7613849e-09 2.3614894e-08 -0.046946109)
(5.3849418e-08 1.4505225e-07 -0.0469463)
(2.0640855e-07 2.0640855e-07 -0.0469462)
(1.6399923e-07 1.8125237e-07 -0.046946077)
(3.0466945e-08 1.3131191e-07 -0.046946059)
(-5.2652411e-09 8.1193769e-08 -0.046946082)
(5.0854296e-08 1.8981108e-07 -0.046946164)
(1.8125237e-07 1.6399923e-07 -0.046946077)
(1.1471444e-07 1.1471444e-07 -0.046945983)
(-2.8732549e-08 6.3741643e-08 -0.046946002)
(-2.5650709e-08 1.9521734e-08 -0.04694606)
(3.664152e-08 7.1326048e-08 -0.046946114)
(1.3131191e-07 3.0466945e-08 -0.046946059)
(6.3741643e-08 -2.8732548e-08 -0.046946002)
(-6.4725757e-08 -6.4725757e-08 -0.046946048)
(-3.474518e-08 -7.7586682e-08 -0.046946119)
(2.3614894e-08 7.7613848e-09 -0.046946109)
(8.1193769e-08 -5.2652412e-09 -0.046946082)
(1.9521734e-08 -2.5650709e-08 -0.04694606)
(-7.7586682e-08 -3.474518e-08 -0.046946119)
(-3.4224658e-08 -3.4224658e-08 -0.046946174)
(3.2078169e-08 3.2078169e-08 -0.047304278)
(2.3507412e-07 8.6037218e-08 -0.047304218)
(2.6209679e-07 7.7744919e-08 -0.047304123)
(8.4904831e-08 5.1543311e-08 -0.047304109)
(6.5099328e-09 2.8935816e-08 -0.047304125)
(8.6037218e-08 2.3507412e-07 -0.047304218)
(3.0357424e-07 3.0357424e-07 -0.047304133)
(2.1035593e-07 2.5580904e-07 -0.047304055)
(1.1691177e-08 1.6972138e-07 -0.047304076)
(-1.6097562e-08 8.9258783e-08 -0.047304117)
(7.7744919e-08 2.6209679e-07 -0.047304123)
(2.5580903e-07 2.1035593e-07 -0.047304055)
(1.2824394e-07 1.2824394e-07 -0.047304005)
(-8.1645421e-08 4.6669875e-08 -0.047304061)
(-4.7131801e-08 -1.8129026e-08 -0.047304132)
(5.1543311e-08 8.4904831e-08 -0.047304109)
(1.6972138e-07 1.1691177e-08 -0.047304076)
(4.6669875e-08 -8.1645421e-08 -0.047304061)
(-1.3468179e-07 -1.3468179e-07 -0.047304141)
(-5.929683e-08 -1.3912009e-07 -0.047304218)
(2.8935816e-08 6.5099326e-09 -0.047304125)
(8.9258783e-08 -1.6097562e-08 -0.047304117)
(-1.8129026e-08 -4.7131801e-08 -0.047304132)
(-1.3912009e-07 -5.929683e-08 -0.047304218)
(-5.0090673e-08 -5.0090673e-08 -0.047304263)
(4.9596095e-08 4.9596095e-08 -0.047840227)
(2.996993e-07 1.1046825e-07 -0.047840181)
(2.9879948e-07 9.6531329e-08 -0.047840118)
(7.0057605e-08 5.8775929e-08 -0.047840132)
(-2.2911488e-09 2.8310407e-08 -0.047840164)
(1.1046825e-07 2.996993e-07 -0.047840181)
(3.7010215e-07 3.7010215e-07 -0.047840117)
(2.21261e-07 2.9958602e-07 -0.047840071)
(-3.2273778e-08 1.7945512e-07 -0.047840118)
(-3.275667e-08 7.3876314e-08 -0.047840172)
(9.6531329e-08 2.9879948e-07 -0.047840118)
(2.9958602e-07 2.21261e-07 -0.047840071)
(1.0815246e-07 1.0815246e-07 -0.047840052)
(-1.5565211e-07 -7.6217076e-10 -0.047840131)
(-7.2677022e-08 -8.0936926e-08 -0.047840209)
(5.8775929e-08 7.0057605e-08 -0.047840132)
(1.7945512e-07 -3.2273778e-08 -0.047840118)
(-7.6217094e-10 -1.5565211e-07 -0.047840131)
(-2.2136316e-07 -2.2136316e-07 -0.047840229)
(-8.6206507e-08 -2.0882837e-07 -0.04784031)
(2.8310407e-08 -2.291149e-09 -0.047840164)
(7.3876314e-08 -3.275667e-08 -0.047840172)
(-8.0936926e-08 -7.2677022e-08 -0.047840209)
(-2.0882837e-07 -8.6206507e-08 -0.04784031)
(-6.4320494e-08 -6.4320494e-08 -0.047840352)
(6.2705768e-08 6.2705768e-08 -0.048553011)
(3.4369344e-07 1.2853506e-07 -0.048552977)
(3.1134926e-07 1.0934543e-07 -0.048552939)
(3.9466667e-08 6.1002768e-08 -0.048552968)
(-1.4831874e-08 2.3842222e-08 -0.048553008)
(1.2853506e-07 3.4369344e-07 -0.048552977)
(4.1365293e-07 4.1365293e-07 -0.04855293)
(2.1005082e-07 3.219561e-07 -0.048552908)
(-8.8788141e-08 1.7087435e-07 -0.048552967)
(-5.199242e-08 4.402522e-08 -0.048553025)
(1.0934543e-07 3.1134926e-07 -0.048552939)
(3.219561e-07 2.1005082e-07 -0.048552908)
(6.8570686e-08 6.8570686e-08 -0.04855291)
(-2.3846422e-07 -6.4542255e-08 -0.048552997)
(-9.939796e-08 -1.5647651e-07 -0.048553076)
(6.1002768e-08 3.9466667e-08 -0.048552968)
(1.7087435e-07 -8.8788141e-08 -0.048552967)
(-6.4542255e-08 -2.3846422e-07 -0.048552997)
(-3.1383534e-07 -3.1383534e-07 -0.048553102)
(-1.1328193e-07 -2.8189246e-07 -0.048553181)
(2.3842222e-08 -1.4831874e-08 -0.048553008)
(4.402522e-08 -5.199242e-08 -0.048553025)
(-1.5647651e-07 -9.939796e-08 -0.048553076)
(-2.8189246e-07 -1.1328193e-07 -0.048553181)
(-7.8102703e-08 -7.8102703e-08 -0.048553221)
(7.2459054e-08 7.2459054e-08 -0.04944093)
(3.7170544e-07 1.4135811e-07 -0.049440905)
(3.0738568e-07 1.1756513e-07 -0.049440887)
(1.0049288e-09 5.9830837e-08 -0.049440925)
(-2.8909262e-08 1.7001001e-08 -0.049440967)
(1.4135811e-07 3.7170544e-07 -0.049440905)
(4.3936456e-07 4.3936457e-07 -0.049440873)
(1.8509478e-07 3.2874752e-07 -0.049440869)
(-1.4984127e-07 1.5028597e-07 -0.049440932)
(-7.1739098e-08 5.6613692e-09 -0.04944099)
(1.1756513e-07 3.0738568e-07 -0.049440887)
(3.2874752e-07 1.8509478e-07 -0.049440869)
(1.8307092e-08 1.8307093e-08 -0.049440886)
(-3.2208122e-07 -1.3594612e-07 -0.049440975)
(-1.2532566e-07 -2.3683413e-07 -0.049441049)
(5.9830837e-08 1.0049289e-09 -0.049440925)
(1.5028597e-07 -1.4984127e-07 -0.049440932)
(-1.3594612e-07 -3.2208122e-07 -0.049440975)
(-4.049825e-07 -4.049825e-07 -0.049441077)
(-1.3899777e-07 -3.5367053e-07 -0.049441151)
(1.7001001e-08 -2.8909262e-08 -0.049440967)
(5.6613693e-09 -7.1739098e-08 -0.04944099)
(-2.3683413e-07 -1.2532566e-07 -0.049441049)
(-3.5367053e-07 -1.3899777e-07 -0.049441151)
(-9.1117684e-08 -9.1117684e-08 -0.049441188)
(7.947763e-08 7.947763e-08 -0.050501765)
(3.8636558e-07 1.4947492e-07 -0.050501748)
(2.9129352e-07 1.2184429e-07 -0.050501748)
(-4.0742771e-08 5.6106567e-08 -0.05050179)
(-4.3258108e-08 8.6860908e-09 -0.050501832)
(1.4947492e-07 3.8636558e-07 -0.050501748)
(4.4991556e-07 4.4991556e-07 -0.05050173)
(1.5124099e-07 3.2301355e-07 -0.050501741)
(-2.1048006e-07 1.2120434e-07 -0.050501804)
(-9.0678585e-08 -3.7543421e-08 -0.050501858)
(1.2184429e-07 2.9129352e-07 -0.050501748)
(3.2301355e-07 1.5124099e-07 -0.050501741)
(-3.7417695e-08 -3.7417695e-08 -0.05050177)
(-4.0129974e-07 -2.0961949e-07 -0.050501854)
(-1.4908995e-07 -3.1682283e-07 -0.050501921)
(5.6106567e-08 -4.0742771e-08 -0.05050179)
(1.2120434e-07 -2.1048006e-07 -0.050501804)
(-2.0961949e-07 -4.0129974e-07 -0.050501854)
(-4.898852e-07 -4.898852e-07 -0.05050195)
(-1.6214748e-07 -4.2035112e-07 -0.050502014)
(8.6860909e-09 -4.3258108e-08 -0.050501832)
(-3.7543421e-08 -9.0678585e-08 -0.050501858)
(-3.1682283e-07 -1.4908995e-07 -0.050501921)
(-4.2035112e-07 -1.6214748e-07 -0.050502014)
(-1.027339e-07 -1.027339e-07 -0.050502046)
(8.4047442e-08 8.4047442e-08 -0.051732726)
(3.8899195e-07 1.5310047e-07 -0.051732716)
(2.6555657e-07 1.2245418e-07 -0.051732732)
(-8.2997521e-08 5.0280519e-08 -0.051732775)
(-5.7088868e-08 -5.556465e-10 -0.051732815)
(1.5310047e-07 3.8899195e-07 -0.051732716)
(4.4660207e-07 4.4660207e-07 -0.051732711)
(1.1132664e-07 3.0630449e-07 -0.051732736)
(-2.6751227e-07 8.5649385e-08 -0.051732796)
(-1.0792503e-07 -8.3271408e-08 -0.051732844)
(1.2245418e-07 2.6555657e-07 -0.051732732)
(3.0630449e-07 1.1132664e-07 -0.051732736)
(-9.5396109e-08 -9.5396108e-08 -0.051732776)
(-4.7257342e-07 -2.8208205e-07 -0.051732852)
(-1.6970273e-07 -3.9286605e-07 -0.051732908)
(5.0280519e-08 -8.2997521e-08 -0.051732775)
(8.5649385e-08 -2.6751227e-07 -0.051732796)
(-2.8208205e-07 -4.7257342e-07 -0.051732852)
(-5.649822e-07 -5.649822e-07 -0.051732937)
(-1.8178103e-07 -4.7899913e-07 -0.051732989)
(-5.5564644e-10 -5.7088868e-08 -0.051732815)
(-8.3271408e-08 -1.0792503e-07 -0.051732844)
(-3.9286605e-07 -1.6970273e-07 -0.051732908)
(-4.7899913e-07 -1.8178103e-07 -0.051732989)
(-1.1238068e-07 -1.1238068e-07 -0.051733015)
(8.6269442e-08 8.6269442e-08 -0.053130395)
(3.8024348e-07 1.5232059e-07 -0.053130392)
(2.3163963e-07 1.194861e-07 -0.053130424)
(-1.240171e-07 4.2603885e-08 -0.053130467)
(-6.987827e-08 -1.0377402e-08 -0.053130504)
(1.5232059e-07 3.8024349e-07 -0.053130392)
(4.3006847e-07 4.3006847e-07 -0.053130401)
(6.706457e-08 2.7942908e-07 -0.053130438)
(-3.1881234e-07 4.4880544e-08 -0.053130493)
(-1.2285956e-07 -1.2995673e-07 -0.053130534)
(1.194861e-07 2.3163963e-07 -0.053130424)
(2.7942908e-07 6.706457e-08 -0.053130438)
(-1.5354829e-07 -1.5354829e-07 -0.053130487)
(-5.334029e-07 -3.5091168e-07 -0.053130553)
(-1.8643645e-07 -4.6235937e-07 -0.053130597)
(4.2603885e-08 -1.240171e-07 -0.053130467)
(4.4880543e-08 -3.1881234e-07 -0.053130493)
(-3.5091168e-07 -5.334029e-07 -0.053130553)
(-6.2762342e-07 -6.2762342e-07 -0.053130625)
(-1.9715802e-07 -5.2738478e-07 -0.053130664)
(-1.0377402e-08 -6.987827e-08 -0.053130504)
(-1.2995673e-07 -1.2285956e-07 -0.053130534)
(-4.6235937e-07 -1.8643645e-07 -0.053130597)
(-5.2738478e-07 -1.9715802e-07 -0.053130664)
(-1.1961069e-07 -1.1961069e-07 -0.053130681)
(8.6159414e-08 8.6159414e-08 -0.054690694)
(3.6054867e-07 1.4721633e-07 -0.054690698)
(1.9050355e-07 1.1296589e-07 -0.054690744)
(-1.6270475e-07 3.3236758e-08 -0.054690787)
(-8.1265835e-08 -2.0537789e-08 -0.054690819)
(1.4721633e-07 3.6054867e-07 -0.054690698)
(4.0075838e-07 4.0075838e-07 -0.05469072)
(1.9534202e-08 2.4289388e-07 -0.054690769)
(-3.6296026e-07 -1.8163908e-10 -0.054690817)
(-1.3504038e-07 -1.7641041e-07 -0.054690849)
(1.1296589e-07 1.9050355e-07 -0.054690744)
(2.4289388e-07 1.9534203e-08 -0.054690769)
(-2.1043646e-07 -2.1043646e-07 -0.054690827)
(-5.8200904e-07 -4.142844e-07 -0.054690881)
(-1.9875169e-07 -5.2327284e-07 -0.05469091)
(3.3236758e-08 -1.6270475e-07 -0.054690787)
(-1.8163934e-10 -3.6296026e-07 -0.054690817)
(-4.142844e-07 -5.8200904e-07 -0.054690881)
(-6.7579664e-07 -6.7579664e-07 -0.054690937)
(-2.0769934e-07 -5.6378589e-07 -0.054690961)
(-2.0537789e-08 -8.1265835e-08 -0.054690819)
(-1.7641041e-07 -1.3504038e-07 -0.054690849)
(-5.2327284e-07 -1.9875169e-07 -0.05469091)
(-5.6378589e-07 -2.0769934e-07 -0.054690961)
(-1.2407785e-07 -1.2407785e-07 -0.05469097)
(8.371358e-08 8.3713581e-08 -0.056408876)
(3.3040794e-07 1.3795589e-07 -0.056408887)
(1.4294299e-07 1.0293514e-07 -0.056408946)
(-1.9838567e-07 2.2323611e-08 -0.056408988)
(-9.0994066e-08 -3.0832673e-08 -0.056409014)
(1.3795589e-07 3.3040794e-07 -0.056408887)
(3.5924028e-07 3.5924028e-07 -0.056408921)
(-3.050542e-08 1.9721583e-07 -0.056408981)
(-3.990374e-07 -4.8651416e-08 -0.056409023)
(-1.4415035e-07 -2.2154175e-07 -0.056409045)
(1.0293514e-07 1.4294299e-07 -0.056408946)
(1.9721583e-07 -3.050542e-08 -0.056408981)
(-2.649487e-07 -2.649487e-07 -0.056409046)
(-6.1714326e-07 -4.7065593e-07 -0.056409087)
(-2.0625429e-07 -5.7385596e-07 -0.056409102)
(2.2323611e-08 -1.9838567e-07 -0.056408988)
(-4.8651417e-08 -3.990374e-07 -0.056409023)
(-4.7065593e-07 -6.1714326e-07 -0.056409087)
(-7.0794465e-07 -7.0794465e-07 -0.056409127)
(-2.1295037e-07 -5.8681985e-07 -0.056409134)
(-3.0832673e-08 -9.0994066e-08 -0.056409014)
(-2.2154175e-07 -1.4415035e-07 -0.056409045)
(-5.7385596e-07 -2.0625429e-07 -0.056409102)
(-5.8681985e-07 -2.1295037e-07 -0.056409134)
(-1.2550442e-07 -1.2550442e-07 -0.056409133)
(7.8961816e-08 7.8961816e-08 -0.058279562)
(2.9065498e-07 1.248758e-07 -0.058279579)
(8.9878116e-08 8.9532783e-08 -0.058279649)
(-2.3062786e-07 1.0067274e-08 -0.058279689)
(-9.8862475e-08 -4.103082e-08 -0.05827971)
(1.248758e-07 2.9065498e-07 -0.058279579)
(3.0651143e-07 3.0651143e-07 -0.058279623)
(-8.233468e-08 1.4323292e-07 -0.058279694)
(-4.2647326e-07 -9.9377546e-08 -0.058279728)
(-1.4996057e-07 -2.6409034e-07 -0.05827974)
(8.9532783e-08 8.9878116e-08 -0.058279649)
(1.4323292e-07 -8.233468e-08 -0.058279694)
(-3.1601087e-07 -3.1601087e-07 -0.058279764)
(-6.3795111e-07 -5.1846546e-07 -0.058279791)
(-2.08671e-07 -6.1236521e-07 -0.058279791)
(1.0067274e-08 -2.3062786e-07 -0.058279689)
(-9.9377546e-08 -4.2647326e-07 -0.058279728)
(-5.1846546e-07 -6.3795111e-07 -0.058279791)
(-7.2282761e-07 -7.2282761e-07 -0.058279813)
(-2.125604e-07 -5.9530876e-07 -0.058279803)
(-4.103082e-08 -9.8862475e-08 -0.05827971)
(-2.6409034e-07 -1.4996057e-07 -0.05827974)
(-6.1236521e-07 -2.08671e-07 -0.058279791)
(-5.9530876e-07 -2.125604e-07 -0.058279803)
(-1.2365844e-07 -1.2365844e-07 -0.058279792)
(7.2024826e-08 7.2024827e-08 -0.060296767)
(2.4272249e-07 1.0855562e-07 -0.060296791)
(3.26822e-08 7.309667e-08 -0.060296869)
(-2.5901815e-07 -3.1819882e-09 -0.060296907)
(-1.0467673e-07 -5.080038e-08 -0.060296921)
(1.0855562e-07 2.4272249e-07 -0.060296791)
(2.4433026e-07 2.4433026e-07 -0.060296844)
(-1.3492421e-07 8.2484756e-08 -0.060296922)
(-4.4486373e-07 -1.5058846e-07 -0.060296948)
(-1.5229512e-07 -3.0232465e-07 -0.060296949)
(7.309667e-08 3.26822e-08 -0.060296869)
(8.2484756e-08 -1.3492421e-07 -0.060296922)
(-3.6223652e-07 -3.6223652e-07 -0.060296995)
(-6.4382756e-07 -5.5579587e-07 -0.060297007)
(-2.0583419e-07 -6.3677234e-07 -0.060296991)
(-3.181988e-09 -2.5901815e-07 -0.060296907)
(-1.5058846e-07 -4.4486373e-07 -0.060296948)
(-5.5579587e-07 -6.4382756e-07 -0.060297007)
(-7.1939956e-07 -7.1939956e-07 -0.060297009)
(-2.0627944e-07 -5.8816709e-07 -0.060296981)
(-5.080038e-08 -1.0467673e-07 -0.060296921)
(-3.0232465e-07 -1.5229512e-07 -0.060296949)
(-6.3677234e-07 -2.0583419e-07 -0.060296991)
(-5.8816709e-07 -2.0627944e-07 -0.060296981)
(-1.1834588e-07 -1.1834588e-07 -0.06029696)
(6.3186136e-08 6.3186136e-08 -0.062453728)
(1.8891932e-07 8.987645e-08 -0.062453757)
(-2.6406782e-08 5.4295347e-08 -0.062453838)
(-2.8281192e-07 -1.6812597e-08 -0.062453873)
(-1.0817668e-07 -5.9615568e-08 -0.06245388)
(8.9876451e-08 1.8891932e-07 -0.062453757)
(1.7558314e-07 1.7558314e-07 -0.062453814)
(-1.8644035e-07 1.7698124e-08 -0.062453896)
(-4.5367829e-07 -1.9945838e-07 -0.062453913)
(-1.5097965e-07 -3.3368287e-07 -0.062453903)
(5.4295348e-08 -2.6406782e-08 -0.062453838)
(1.7698124e-08 -1.8644035e-07 -0.062453896)
(-4.014483e-07 -4.014483e-07 -0.062453967)
(-6.3419291e-07 -5.7995205e-07 -0.062453964)
(-1.9765967e-07 -6.4443006e-07 -0.062453932)
(-1.6812597e-08 -2.8281192e-07 -0.062453873)
(-1.9945838e-07 -4.5367829e-07 -0.062453913)
(-5.7995205e-07 -6.3419291e-07 -0.062453964)
(-6.9666005e-07 -6.9666005e-07 -0.062453944)
(-1.9396499e-07 -5.6428379e-07 -0.062453898)
(-5.9615567e-08 -1.0817668e-07 -0.06245388)
(-3.3368287e-07 -1.5097965e-07 -0.062453903)
(-6.4443006e-07 -1.9765967e-07 -0.062453932)
(-5.6428379e-07 -1.9396499e-07 -0.062453898)
(-1.0940884e-07 -1.0940884e-07 -0.062453866)
(5.2977938e-08 5.2977939e-08 -0.064741921)
(1.3268516e-07 7.0045722e-08 -0.064741953)
(-8.37649e-08 3.429722e-08 -0.064742032)
(-3.0036891e-07 -2.9795653e-08 -0.06474206)
(-1.0892384e-07 -6.6618496e-08 -0.064742057)
(7.0045722e-08 1.3268516e-07 -0.064741953)
(1.0466409e-07 1.0466409e-07 -0.064742012)
(-2.3352696e-07 -4.6597383e-08 -0.064742091)
(-4.5174248e-07 -2.4156187e-07 -0.064742096)
(-1.4574668e-07 -3.5430635e-07 -0.064742073)
(3.429722e-08 -8.37649e-08 -0.064742032)
(-4.6597383e-08 -2.3352696e-07 -0.064742091)
(-4.2999085e-07 -4.2999085e-07 -0.064742153)
(-6.0807788e-07 -5.8691021e-07 -0.064742131)
(-1.8408683e-07 -6.3165686e-07 -0.064742082)
(-2.9795653e-08 -3.0036891e-07 -0.06474206)
(-2.4156187e-07 -4.5174248e-07 -0.064742096)
(-5.8691021e-07 -6.0807788e-07 -0.064742131)
(-6.5340849e-07 -6.5340849e-07 -0.064742086)
(-1.7557778e-07 -5.2233965e-07 -0.064742022)
(-6.6618496e-08 -1.0892384e-07 -0.064742057)
(-3.5430635e-07 -1.4574668e-07 -0.064742073)
(-6.3165686e-07 -1.8408683e-07 -0.064742082)
(-5.2233965e-07 -1.7557778e-07 -0.064742022)
(-9.6707596e-08 -9.6707595e-08 -0.064741978)
(4.2239314e-08 4.2239314e-08 -0.067148159)
(7.8699309e-08 5.0547757e-08 -0.067148191)
(-1.337741e-07 1.4961931e-08 -0.06714826)
(-3.0830148e-07 -4.0466219e-08 -0.067148275)
(-1.061247e-07 -7.0404713e-08 -0.06714826)
(5.0547757e-08 7.8699308e-08 -0.067148191)
(3.7783233e-08 3.7783233e-08 -0.067148247)
(-2.7029507e-07 -1.0333359e-07 -0.067148313)
(-4.3635145e-07 -2.7017611e-07 -0.0671483)
(-1.3606319e-07 -3.5841421e-07 -0.067148263)
(1.4961931e-08 -1.337741e-07 -0.06714826)
(-1.0333359e-07 -2.7029507e-07 -0.067148313)
(-4.4173344e-07 -4.4173344e-07 -0.067148356)
(-5.633821e-07 -5.7057959e-07 -0.06714831)
(-1.649501e-07 -5.9322242e-07 -0.067148244)
(-4.0466219e-08 -3.0830148e-07 -0.067148275)
(-2.7017611e-07 -4.3635145e-07 -0.0671483)
(-5.7057959e-07 -5.633821e-07 -0.06714831)
(-5.8784043e-07 -5.8784043e-07 -0.067148236)
(-1.5115841e-07 -4.6056412e-07 -0.067148154)
(-7.0404713e-08 -1.061247e-07 -0.06714826)
(-3.5841421e-07 -1.3606319e-07 -0.067148263)
(-5.9322242e-07 -1.649501e-07 -0.067148244)
(-4.6056412e-07 -1.5115841e-07 -0.067148154)
(-8.0099227e-08 -8.0099227e-08 -0.067148098)
(3.2004237e-08 3.2004237e-08 -0.069648554)
(3.2481246e-08 3.2867812e-08 -0.069648583)
(-1.6838343e-07 -1.1585405e-09 -0.069648633)
(-3.0045159e-07 -4.6412686e-08 -0.069648626)
(-9.8395515e-08 -6.891386e-08 -0.069648593)
(3.2867812e-08 3.2481246e-08 -0.069648583)
(-1.7262921e-08 -1.7262921e-08 -0.069648632)
(-2.8730418e-07 -1.4260166e-07 -0.069648673)
(-4.0208457e-07 -2.7594647e-07 -0.069648634)
(-1.2089669e-07 -3.3813211e-07 -0.069648577)
(-1.1585408e-09 -1.6838343e-07 -0.069648633)
(-1.4260166e-07 -2.8730418e-07 -0.069648673)
(-4.2706698e-07 -4.2706698e-07 -0.069648684)
(-4.9598204e-07 -5.222927e-07 -0.069648606)
(-1.398526e-07 -5.2235875e-07 -0.069648521)
(-4.6412686e-08 -3.0045159e-07 -0.069648626)
(-2.7594647e-07 -4.0208457e-07 -0.069648634)
(-5.222927e-07 -4.9598204e-07 -0.069648606)
(-4.9737634e-07 -4.9737634e-07 -0.069648496)
(-1.2094073e-07 -3.7711414e-07 -0.069648398)
(-6.891386e-08 -9.8395515e-08 -0.069648593)
(-3.3813211e-07 -1.2089669e-07 -0.069648577)
(-5.2235876e-07 -1.398526e-07 -0.069648521)
(-3.7711414e-07 -1.2094073e-07 -0.069648398)
(-5.9677801e-08 -5.9677801e-08 -0.069648334)
(2.2981827e-08 2.2981827e-08 -0.072199991)
(-1.0175006e-09 1.7777045e-08 -0.072200017)
(-1.7755638e-07 -1.1660306e-08 -0.072200042)
(-2.6752353e-07 -4.5273791e-08 -0.072199998)
(-8.3638263e-08 -6.0277864e-08 -0.07219994)
(1.7777045e-08 -1.0175004e-09 -0.072200017)
(-5.29807e-08 -5.29807e-08 -0.072200058)
(-2.7213263e-07 -1.5397845e-07 -0.072200063)
(-3.4044987e-07 -2.4950063e-07 -0.072199982)
(-9.8642336e-08 -2.8657309e-07 -0.072199902)
(-1.1660306e-08 -1.7755638e-07 -0.072200042)
(-1.5397845e-07 -2.7213263e-07 -0.072200063)
(-3.7407631e-07 -3.7407631e-07 -0.072200029)
(-4.0011817e-07 -4.3302492e-07 -0.072199908)
(-1.0835324e-07 -4.141413e-07 -0.072199803)
(-4.5273791e-08 -2.6752353e-07 -0.072199998)
(-2.4950063e-07 -3.4044987e-07 -0.072199982)
(-4.3302492e-07 -4.0011817e-07 -0.072199908)
(-3.8051486e-07 -3.8051486e-07 -0.072199758)
(-8.6053258e-08 -2.7340062e-07 -0.07219965)
(-6.0277864e-08 -8.3638263e-08 -0.07219994)
(-2.8657309e-07 -9.8642337e-08 -0.072199902)
(-4.141413e-07 -1.0835324e-07 -0.072199803)
(-2.7340062e-07 -8.6053258e-08 -0.07219965)
(-3.6943746e-08 -3.6943746e-08 -0.072199583)
(1.4666502e-08 1.4666502e-08 -0.074724965)
(-1.8435347e-08 5.5082831e-09 -0.074724992)
(-1.4998956e-07 -1.5167975e-08 -0.074724978)
(-1.9853368e-07 -3.5785333e-08 -0.074724885)
(-5.9319481e-08 -4.3666514e-08 -0.074724795)
(5.508283e-09 -1.8435347e-08 -0.074724992)
(-6.3187063e-08 -6.3187063e-08 -0.074725019)
(-2.1192998e-07 -1.299691e-07 -0.074724974)
(-2.4128149e-07 -1.8558163e-07 -0.07472484)
(-6.7200661e-08 -2.0146302e-07 -0.07472473)
(-1.5167975e-08 -1.4998956e-07 -0.074724978)
(-1.299691e-07 -2.1192998e-07 -0.074724974)
(-2.7238412e-07 -2.7238412e-07 -0.074724884)
(-2.700276e-07 -2.9833726e-07 -0.074724713)
(-6.9907076e-08 -2.7050567e-07 -0.074724587)
(-3.5785333e-08 -1.9853368e-07 -0.074724885)
(-1.8558163e-07 -2.4128149e-07 -0.07472484)
(-2.9833726e-07 -2.700276e-07 -0.074724713)
(-2.3940303e-07 -2.3940303e-07 -0.074724525)
(-4.8646269e-08 -1.5712512e-07 -0.074724414)
(-4.3666513e-08 -5.9319481e-08 -0.074724795)
(-2.0146302e-07 -6.7200661e-08 -0.07472473)
(-2.7050567e-07 -6.9907076e-08 -0.074724587)
(-1.5712512e-07 -4.8646269e-08 -0.074724414)
(-1.5055136e-08 -1.5055136e-08 -0.074724356)
(4.9485989e-09 4.9485987e-09 -0.079355378)
(-1.4673717e-08 -3.1198508e-10 -0.079355408)
(-7.0595628e-08 -8.3825417e-09 -0.079355336)
(-8.3913948e-08 -1.5338275e-08 -0.079355166)
(-2.3609956e-08 -1.7182905e-08 -0.079355036)
(-3.1198497e-10 -1.4673717e-08 -0.079355408)
(-3.4670427e-08 -3.4670427e-08 -0.079355412)
(-9.3135063e-08 -5.9446597e-08 -0.079355296)
(-9.7114493e-08 -7.7197783e-08 -0.079355085)
(-2.5454587e-08 -7.8815932e-08 -0.079354941)
(-8.3825416e-09 -7.0595628e-08 -0.079355336)
(-5.9446597e-08 -9.3135062e-08 -0.079355296)
(-1.1312298e-07 -1.1312298e-07 -0.079355131)
(-1.0328328e-07 -1.1762045e-07 -0.079354888)
(-2.4688722e-08 -9.7785643e-08 -0.079354744)
(-1.5338275e-08 -8.3913948e-08 -0.079355166)
(-7.7197783e-08 -9.7114493e-08 -0.079355085)
(-1.1762045e-07 -1.0328328e-07 -0.079354888)
(-8.1777152e-08 -8.1777152e-08 -0.079354651)
(-1.2231379e-08 -4.2720014e-08 -0.079354565)
(-1.7182905e-08 -2.3609956e-08 -0.079355036)
(-7.8815932e-08 -2.5454587e-08 -0.079354941)
(-9.7785643e-08 -2.4688722e-08 -0.079354744)
(-4.2720014e-08 -1.2231379e-08 -0.079354565)
(1.3493697e-09 1.3493696e-09 -0.079354554)
)
;

boundaryField
{
    wall_minX
    {
        type            extrapolatedCalculated;
        value           nonuniform List<vector> 
100
(
(-1.1948775e-12 -2.8576398e-09 -0.046752276)
(0 4.7293142e-08 -0.046752274)
(0 7.5984293e-08 -0.046752084)
(0 2.9565493e-08 -0.046751996)
(0 3.4397385e-09 -0.046751978)
(0 9.9500928e-09 -0.046946352)
(0 1.4505225e-07 -0.0469463)
(0 1.8981108e-07 -0.046946164)
(0 7.1326048e-08 -0.046946114)
(0 7.7613848e-09 -0.046946109)
(0 3.2078169e-08 -0.047304278)
(0 2.3507412e-07 -0.047304218)
(0 2.6209679e-07 -0.047304123)
(0 8.4904831e-08 -0.047304109)
(0 6.5099326e-09 -0.047304125)
(0 4.9596095e-08 -0.047840227)
(0 2.996993e-07 -0.047840181)
(0 2.9879948e-07 -0.047840118)
(0 7.0057605e-08 -0.047840132)
(0 -2.291149e-09 -0.047840164)
(0 6.2705768e-08 -0.048553011)
(0 3.4369344e-07 -0.048552977)
(0 3.1134926e-07 -0.048552939)
(0 3.9466667e-08 -0.048552968)
(0 -1.4831874e-08 -0.048553008)
(0 7.2459054e-08 -0.04944093)
(0 3.7170544e-07 -0.049440905)
(0 3.0738568e-07 -0.049440887)
(0 1.0049289e-09 -0.049440925)
(0 -2.8909262e-08 -0.049440967)
(0 7.947763e-08 -0.050501765)
(0 3.8636558e-07 -0.050501748)
(0 2.9129352e-07 -0.050501748)
(0 -4.0742771e-08 -0.05050179)
(0 -4.3258108e-08 -0.050501832)
(0 8.4047442e-08 -0.051732726)
(0 3.8899195e-07 -0.051732716)
(0 2.6555657e-07 -0.051732732)
(0 -8.2997521e-08 -0.051732775)
(0 -5.7088868e-08 -0.051732815)
(0 8.6269442e-08 -0.053130395)
(0 3.8024349e-07 -0.053130392)
(0 2.3163963e-07 -0.053130424)
(0 -1.240171e-07 -0.053130467)
(0 -6.987827e-08 -0.053130504)
(0 8.6159414e-08 -0.054690694)
(0 3.6054867e-07 -0.054690698)
(0 1.9050355e-07 -0.054690744)
(0 -1.6270475e-07 -0.054690787)
(0 -8.1265835e-08 -0.054690819)
(0 8.3713581e-08 -0.056408876)
(0 3.3040794e-07 -0.056408887)
(0 1.4294299e-07 -0.056408946)
(0 -1.9838567e-07 -0.056408988)
(0 -9.0994066e-08 -0.056409014)
(0 7.8961816e-08 -0.058279562)
(0 2.9065498e-07 -0.058279579)
(0 8.9878116e-08 -0.058279649)
(0 -2.3062786e-07 -0.058279689)
(0 -9.8862475e-08 -0.05827971)
(0 7.2024827e-08 -0.060296767)
(0 2.4272249e-07 -0.060296791)
(0 3.26822e-08 -0.060296869)
(0 -2.5901815e-07 -0.060296907)
(0 -1.0467673e-07 -0.060296921)
(0 6.3186136e-08 -0.062453728)
(0 1.8891932e-07 -0.062453757)
(0 -2.6406782e-08 -0.062453838)
(0 -2.8281192e-07 -0.062453873)
(0 -1.0817668e-07 -0.06245388)
(0 5.2977939e-08 -0.064741921)
(0 1.3268516e-07 -0.064741953)
(0 -8.37649e-08 -0.064742032)
(0 -3.0036891e-07 -0.06474206)
(0 -1.0892384e-07 -0.064742057)
(0 4.2239314e-08 -0.067148159)
(0 7.8699308e-08 -0.067148191)
(0 -1.337741e-07 -0.06714826)
(0 -3.0830148e-07 -0.067148275)
(0 -1.061247e-07 -0.06714826)
(0 3.2004237e-08 -0.069648554)
(0 3.2481246e-08 -0.069648583)
(0 -1.6838343e-07 -0.069648633)
(0 -3.0045159e-07 -0.069648626)
(0 -9.8395515e-08 -0.069648593)
(0 2.2981827e-08 -0.072199991)
(0 -1.0175004e-09 -0.072200017)
(0 -1.7755638e-07 -0.072200042)
(0 -2.6752353e-07 -0.072199998)
(0 -8.3638263e-08 -0.07219994)
(0 1.4666502e-08 -0.074724965)
(0 -1.8435347e-08 -0.074724992)
(0 -1.4998956e-07 -0.074724978)
(0 -1.9853368e-07 -0.074724885)
(0 -5.9319481e-08 -0.074724795)
(0 4.9485987e-09 -0.079355378)
(0 -1.4673717e-08 -0.079355408)
(0 -7.0595628e-08 -0.079355336)
(0 -8.3913948e-08 -0.079355166)
(0 -2.3609956e-08 -0.079355036)
)
;
    }
    wall_maxX
    {
        type            extrapolatedCalculated;
        value           nonuniform List<vector> 
100
(
(0 1.0815302e-08 -0.046751978)
(0 3.998229e-08 -0.046751922)
(0 1.8734336e-08 -0.046751844)
(0 -2.4673539e-08 -0.046751871)
(0 -1.3099025e-08 -0.046751945)
(0 2.3614894e-08 -0.046946109)
(0 8.1193769e-08 -0.046946082)
(0 1.9521734e-08 -0.04694606)
(0 -7.7586682e-08 -0.046946119)
(0 -3.4224658e-08 -0.046946174)
(0 2.8935816e-08 -0.047304125)
(0 8.9258783e-08 -0.047304117)
(0 -1.8129026e-08 -0.047304132)
(0 -1.3912009e-07 -0.047304218)
(0 -5.0090673e-08 -0.047304263)
(0 2.8310407e-08 -0.047840164)
(0 7.3876314e-08 -0.047840172)
(0 -8.0936926e-08 -0.047840209)
(0 -2.0882837e-07 -0.04784031)
(0 -6.4320494e-08 -0.047840352)
(0 2.3842222e-08 -0.048553008)
(0 4.402522e-08 -0.048553025)
(0 -1.5647651e-07 -0.048553076)
(0 -2.8189246e-07 -0.048553181)
(0 -7.8102703e-08 -0.048553221)
(0 1.7001001e-08 -0.049440967)
(0 5.6613692e-09 -0.04944099)
(0 -2.3683413e-07 -0.049441049)
(0 -3.5367053e-07 -0.049441151)
(0 -9.1117684e-08 -0.049441188)
(0 8.6860908e-09 -0.050501832)
(0 -3.7543421e-08 -0.050501858)
(0 -3.1682283e-07 -0.050501921)
(0 -4.2035112e-07 -0.050502014)
(0 -1.027339e-07 -0.050502046)
(0 -5.556465e-10 -0.051732815)
(0 -8.3271408e-08 -0.051732844)
(0 -3.9286605e-07 -0.051732908)
(0 -4.7899913e-07 -0.051732989)
(0 -1.1238068e-07 -0.051733015)
(0 -1.0377402e-08 -0.053130504)
(0 -1.2995673e-07 -0.053130534)
(0 -4.6235937e-07 -0.053130597)
(0 -5.2738478e-07 -0.053130664)
(0 -1.1961069e-07 -0.053130681)
(0 -2.0537789e-08 -0.054690819)
(0 -1.7641041e-07 -0.054690849)
(0 -5.2327284e-07 -0.05469091)
(0 -5.6378589e-07 -0.054690961)
(0 -1.2407785e-07 -0.05469097)
(0 -3.0832673e-08 -0.056409014)
(0 -2.2154175e-07 -0.056409045)
(0 -5.7385596e-07 -0.056409102)
(0 -5.8681985e-07 -0.056409134)
(0 -1.2550442e-07 -0.056409133)
(0 -4.103082e-08 -0.05827971)
(0 -2.6409034e-07 -0.05827974)
(0 -6.1236521e-07 -0.058279791)
(0 -5.9530876e-07 -0.058279803)
(0 -1.2365844e-07 -0.058279792)
(0 -5.080038e-08 -0.060296921)
(0 -3.0232465e-07 -0.060296949)
(0 -6.3677234e-07 -0.060296991)
(0 -5.8816709e-07 -0.060296981)
(0 -1.1834588e-07 -0.06029696)
(0 -5.9615568e-08 -0.06245388)
(0 -3.3368287e-07 -0.062453903)
(0 -6.4443006e-07 -0.062453932)
(0 -5.6428379e-07 -0.062453898)
(0 -1.0940884e-07 -0.062453866)
(0 -6.6618496e-08 -0.064742057)
(0 -3.5430635e-07 -0.064742073)
(0 -6.3165686e-07 -0.064742082)
(0 -5.2233965e-07 -0.064742022)
(0 -9.6707595e-08 -0.064741978)
(0 -7.0404713e-08 -0.06714826)
(0 -3.5841421e-07 -0.067148263)
(0 -5.9322242e-07 -0.067148244)
(0 -4.6056412e-07 -0.067148154)
(0 -8.0099227e-08 -0.067148098)
(0 -6.891386e-08 -0.069648593)
(0 -3.3813211e-07 -0.069648577)
(0 -5.2235875e-07 -0.069648521)
(0 -3.7711414e-07 -0.069648398)
(0 -5.9677801e-08 -0.069648334)
(0 -6.0277864e-08 -0.07219994)
(0 -2.8657309e-07 -0.072199902)
(0 -4.141413e-07 -0.072199803)
(0 -2.7340062e-07 -0.07219965)
(0 -3.6943746e-08 -0.072199583)
(0 -4.3666514e-08 -0.074724795)
(0 -2.0146302e-07 -0.07472473)
(0 -2.7050567e-07 -0.074724587)
(0 -1.5712512e-07 -0.074724414)
(0 -1.5055136e-08 -0.074724356)
(0 -1.7182905e-08 -0.079355036)
(0 -7.8815932e-08 -0.079354941)
(0 -9.7785643e-08 -0.079354744)
(0 -4.2720014e-08 -0.079354565)
(0 1.3493696e-09 -0.079354554)
)
;
    }
    wall_minY
    {
        type            extrapolatedCalculated;
        value           nonuniform List<vector> 
100
(
(-2.8576401e-09 -1.1948775e-12 -0.046752276)
(9.9500928e-09 0 -0.046946352)
(3.2078169e-08 0 -0.047304278)
(4.9596095e-08 0 -0.047840227)
(6.2705768e-08 0 -0.048553011)
(7.2459054e-08 0 -0.04944093)
(7.947763e-08 0 -0.050501765)
(8.4047442e-08 0 -0.051732726)
(8.6269442e-08 0 -0.053130395)
(8.6159414e-08 0 -0.054690694)
(8.371358e-08 0 -0.056408876)
(7.8961816e-08 0 -0.058279562)
(7.2024826e-08 0 -0.060296767)