/*--------------------------------*- C++ -*----------------------------------*\
| =========                 |                                                 |
| \\      /  F ield         | OpenFOAM: The Open Source CFD Toolbox           |
|  \\    /   O peration     | Version:  v2106                                 |
|   \\  /    A nd           | Website:  www.openfoam.com                      |
|    \\/     M anipulation  |                                                 |
\*---------------------------------------------------------------------------*/
FoamFile
{
    version     2.0;
    format      ascii;
    arch        "LSB;label=32;scalar=64";
    class       volVectorField;
    location    "50";
    object      Tmode_grad2;
}
// * * * * * * * * * * * * * * * * * * * * * * * * * * * * * * * * * * * * * //

dimensions      [0 -1 0 0 0 0 0];

internalField   nonuniform List<vector> 
500
(
(4.3225183e-07 4.322518e-07 -0.18463281)
(7.6424662e-07 4.6252436e-07 -0.18463058)
(-5.8419501e-07 1.6383774e-07 -0.18463041)
(-1.0507602e-06 1.6783791e-07 -0.18463299)
(-2.3379683e-07 1.5273052e-07 -0.18463435)
(4.6252425e-07 7.642466e-07 -0.18463058)
(3.6162656e-07 3.6162651e-07 -0.18462836)
(-1.0262245e-06 -4.8244318e-08 -0.18462962)
(-1.067421e-06 1.0023606e-07 -0.18463215)
(-2.4890421e-07 1.5121702e-07 -0.18463361)
(1.638377e-07 -5.8419495e-07 -0.18463041)
(-4.8244297e-08 -1.0262245e-06 -0.18462962)
(-8.4558545e-07 -8.4558545e-07 -0.18463068)
(-8.5129889e-07 -4.7556607e-07 -0.18463265)
(-1.9980952e-07 -2.4166492e-07 -0.18463382)
(1.6783791e-07 -1.0507602e-06 -0.18463299)
(1.0023606e-07 -1.067421e-06 -0.18463215)
(-4.7556607e-07 -8.5129889e-07 -0.18463265)
(-4.6350044e-07 -4.6350044e-07 -0.18463377)
(-9.2970113e-08 -2.5997833e-07 -0.18463437)
(1.5273052e-07 -2.3379683e-07 -0.18463435)
(1.5121702e-07 -2.4890422e-07 -0.18463361)
(-2.4166491e-07 -1.9980952e-07 -0.18463382)
(-2.5997833e-07 -9.2970112e-08 -0.18463437)
(-6.4128119e-08 -6.4128118e-08 -0.18463487)
(9.3655146e-07 9.3655146e-07 -0.17259671)
(1.3065231e-06 8.3466674e-07 -0.1725956)
(-1.8673885e-06 3.0346623e-07 -0.17259618)
(-2.7530745e-06 3.3800387e-07 -0.17259811)
(-6.5599338e-07 2.8781011e-07 -0.17259929)
(8.3466674e-07 1.3065231e-06 -0.1725956)
(3.5689529e-07 3.5689529e-07 -0.17259474)
(-2.6123828e-06 -2.5728534e-07 -0.17259579)
(-2.7765587e-06 2.107203e-07 -0.17259759)
(-7.0618714e-07 3.4999777e-07 -0.17259889)
(3.0346623e-07 -1.8673885e-06 -0.17259618)
(-2.5728533e-07 -2.6123828e-06 -0.17259579)
(-2.0135635e-06 -2.0135635e-06 -0.17259643)
(-2.1457914e-06 -9.987608e-07 -0.17259767)
(-5.6314173e-07 -4.1879631e-07 -0.17259871)
(3.3800387e-07 -2.7530745e-06 -0.17259811)
(2.107203e-07 -2.7765587e-06 -0.17259759)
(-9.987608e-07 -2.1457914e-06 -0.17259767)
(-1.1817915e-06 -1.1817915e-06 -0.17259824)
(-3.1954415e-07 -7.9465158e-07 -0.17259899)
(2.8781011e-07 -6.5599338e-07 -0.17259929)
(3.4999777e-07 -7.0618714e-07 -0.17259889)
(-4.1879631e-07 -5.6314173e-07 -0.17259871)
(-7.9465158e-07 -3.1954414e-07 -0.17259899)
(-3.0504844e-07 -3.0504844e-07 -0.17259986)
(1.1726517e-06 1.1726517e-06 -0.1502761)
(1.2918904e-06 1.0341047e-06 -0.15027548)
(-3.0940656e-06 4.2915615e-07 -0.15027606)
(-4.1582748e-06 5.1449513e-07 -0.1502776)
(-1.0208643e-06 4.1987981e-07 -0.15027861)
(1.0341047e-06 1.2918904e-06 -0.15027548)
(1.7664705e-07 1.7664705e-07 -0.15027489)
(-3.87348e-06 -2.9369353e-07 -0.15027562)
(-4.1721893e-06 5.4164801e-07 -0.15027698)
(-1.1154796e-06 7.2981463e-07 -0.15027812)
(4.2915615e-07 -3.0940656e-06 -0.15027606)
(-2.9369354e-07 -3.87348e-06 -0.15027562)
(-2.7290647e-06 -2.7290647e-06 -0.15027582)
(-3.1347667e-06 -1.126451e-06 -0.15027662)
(-8.9541984e-07 -3.4549134e-07 -0.15027758)
(5.1449513e-07 -4.1582748e-06 -0.1502776)
(5.41648e-07 -4.1721893e-06 -0.15027698)
(-1.126451e-06 -3.1347667e-06 -0.15027662)
(-1.788616e-06 -1.788616e-06 -0.15027689)
(-5.9483978e-07 -1.4054286e-06 -0.15027778)
(4.1987981e-07 -1.0208643e-06 -0.15027861)
(7.2981464e-07 -1.1154796e-06 -0.15027812)
(-3.4549134e-07 -8.9541984e-07 -0.15027758)
(-1.4054286e-06 -5.9483978e-07 -0.15027778)
(-6.3996159e-07 -6.3996159e-07 -0.15027882)
(1.3548604e-06 1.3548604e-06 -0.11657584)
(1.3491413e-06 1.2262477e-06 -0.11657527)
(-3.992655e-06 5.9485201e-07 -0.11657555)
(-5.3059503e-06 7.5180112e-07 -0.11657674)
(-1.3309631e-06 6.1587327e-07 -0.11657756)
(1.2262477e-06 1.3491413e-06 -0.11657527)
(2.0912868e-07 2.0912868e-07 -0.11657465)
(-4.7043249e-06 -1.8886721e-08 -0.11657498)
(-5.2744184e-06 1.1919962e-06 -0.11657596)
(-1.4668909e-06 1.380039e-06 -0.11657691)
(5.94852e-07 -3.992655e-06 -0.11657555)
(-1.8886721e-08 -4.7043249e-06 -0.11657498)
(-3.0097875e-06 -3.0097875e-06 -0.11657474)
(-3.9070245e-06 -9.0615891e-07 -0.1165752)
(-1.2056012e-06 -8.0211486e-08 -0.11657606)
(7.5180112e-07 -5.3059503e-06 -0.11657674)
(1.1919962e-06 -5.2744184e-06 -0.11657596)
(-9.0615891e-07 -3.9070245e-06 -0.1165752)
(-2.3448424e-06 -2.3448424e-06 -0.11657524)
(-9.162593e-07 -2.0295583e-06 -0.11657619)
(6.1587327e-07 -1.3309631e-06 -0.11657756)
(1.380039e-06 -1.4668909e-06 -0.11657691)
(-8.0211486e-08 -1.2056012e-06 -0.11657606)
(-2.0295583e-06 -9.162593e-07 -0.11657619)
(-9.9541178e-07 -9.9541178e-07 -0.11657724)
(1.5515451e-06 1.5515451e-06 -0.071302175)
(1.5892056e-06 1.4518637e-06 -0.071301586)
(-4.5546325e-06 8.0709064e-07 -0.071301585)
(-6.1728239e-06 1.0329146e-06 -0.071302467)
(-1.5708689e-06 8.5418528e-07 -0.071303096)
(1.4518637e-06 1.5892056e-06 -0.071301586)
(4.7252396e-07 4.7252396e-07 -0.071300889)
(-5.1830562e-06 5.1226911e-07 -0.071300909)
(-6.102182e-06 2.0759169e-06 -0.07130159)
(-1.7495983e-06 2.2293088e-06 -0.071302347)
(8.0709064e-07 -4.5546325e-06 -0.071301585)
(5.1226911e-07 -5.1830562e-06 -0.071300909)
(-2.9512395e-06 -2.9512395e-06 -0.071300351)
(-4.4557842e-06 -4.042354e-07 -0.071300548)
(-1.4686077e-06 3.7027305e-07 -0.071301265)
(1.0329146e-06 -6.1728239e-06 -0.071302467)
(2.0759169e-06 -6.102182e-06 -0.07130159)
(-4.0423539e-07 -4.4557842e-06 -0.071300548)
(-2.7806694e-06 -2.7806694e-06 -0.07130038)
(-1.2332593e-06 -2.5875061e-06 -0.07130129)
(8.5418528e-07 -1.5708689e-06 -0.071303096)
(2.2293088e-06 -1.7495983e-06 -0.071302347)
(3.7027306e-07 -1.4686077e-06 -0.071301265)
(-2.5875061e-06 -1.2332593e-06 -0.07130129)
(-1.3398322e-06 -1.3398322e-06 -0.071302276)
(1.7478656e-06 1.7478656e-06 -0.014326876)
(1.9394968e-06 1.6910026e-06 -0.014326307)
(-4.8739785e-06 1.0457249e-06 -0.014326115)
(-6.8166518e-06 1.3367337e-06 -0.014326743)
(-1.7499832e-06 1.115431e-06 -0.014327192)
(1.6910026e-06 1.9394968e-06 -0.014326307)
(8.8628571e-07 8.8628571e-07 -0.014325595)
(-5.4053819e-06 1.2150405e-06 -0.014325374)
(-6.7120926e-06 3.1117912e-06 -0.014325812)
(-1.9712859e-06 3.2105939e-06 -0.014326386)
(1.0457249e-06 -4.8739785e-06 -0.014326115)
(1.2150405e-06 -5.4053819e-06 -0.014325374)
(-2.648473e-06 -2.648473e-06 -0.014324573)
(-4.8210984e-06 3.0425375e-07 -0.014324556)
(-1.6841148e-06 9.7650567e-07 -0.01432513)
(1.3367337e-06 -6.8166518e-06 -0.014326743)
(3.1117912e-06 -6.7120926e-06 -0.014325812)
(3.0425376e-07 -4.8210984e-06 -0.014324556)
(-3.0871139e-06 -3.0871139e-06 -0.014324221)
(-1.523118e-06 -3.0401023e-06 -0.01432504)
(1.115431e-06 -1.7499832e-06 -0.014327192)
(3.2105939e-06 -1.9712859e-06 -0.014326386)
(9.7650567e-07 -1.6841148e-06 -0.01432513)
(-3.0401023e-06 -1.523118e-06 -0.01432504)
(-1.6527738e-06 -1.6527738e-06 -0.014325918)
(1.9306526e-06 1.9306526e-06 0.054278361)
(2.3503491e-06 1.926751e-06 0.054278881)
(-4.9905582e-06 1.3008904e-06 0.054279221)
(-7.2499047e-06 1.6540437e-06 0.054278851)
(-1.8699842e-06 1.3915597e-06 0.054278586)
(1.926751e-06 2.3503491e-06 0.054278881)
(1.4057058e-06 1.4057058e-06 0.054279567)
(-5.3996191e-06 2.0538882e-06 0.054280008)
(-7.1139008e-06 4.2632246e-06 0.05427982)
(-2.1324682e-06 4.2913806e-06 0.054279434)
(1.3008904e-06 -4.9905582e-06 0.054279221)
(2.0538882e-06 -5.3996191e-06 0.054280008)
(-2.1330394e-06 -2.1330394e-06 0.054281026)
(-5.0124122e-06 1.1860631e-06 0.054281254)
(-1.8512135e-06 1.71582e-06 0.05428083)
(1.6540437e-06 -7.2499047e-06 0.054278851)
(4.2632246e-06 -7.1139008e-06 0.05427982)
(1.1860631e-06 -5.0124122e-06 0.054281254)
(-3.2650414e-06 -3.2650414e-06 0.054281742)
(-1.779297e-06 -3.3757704e-06 0.054281026)
(1.3915597e-06 -1.8699842e-06 0.054278586)
(4.2913806e-06 -2.1324682e-06 0.054279434)
(1.71582e-06 -1.8512135e-06 0.05428083)
(-3.3757704e-06 -1.779297e-06 0.054281026)
(-1.9250328e-06 -1.9250328e-06 0.054280275)
(2.0949802e-06 2.0949802e-06 0.1340401)
(2.7996567e-06 2.148197e-06 0.13404057)
(-4.9044991e-06 1.5704187e-06 0.13404103)
(-7.4513864e-06 1.9826455e-06 0.13404096)
(-1.9264673e-06 1.6804904e-06 0.13404089)
(2.148197e-06 2.7996567e-06 0.13404057)
(2.0128144e-06 2.0128144e-06 0.1340412)
(-5.1528263e-06 3.0204995e-06 0.13404186)
(-7.2862788e-06 5.5144853e-06 0.13404196)
(-2.2286224e-06 5.4539927e-06 0.13404178)
(1.5704187e-06 -4.9044991e-06 0.13404103)
(3.0204995e-06 -5.1528263e-06 0.13404186)
(-1.4028282e-06 -1.4028282e-06 0.13404308)
(-5.0178932e-06 2.2263478e-06 0.13404354)
(-1.9667957e-06 2.5685161e-06 0.13404328)
(1.9826455e-06 -7.4513864e-06 0.13404096)
(5.5144853e-06 -7.2862788e-06 0.13404196)
(2.2263478e-06 -5.0178932e-06 0.13404354)
(-3.3149345e-06 -3.3149345e-06 0.13404418)
(-2.0005102e-06 -3.5948366e-06 0.13404357)
(1.6804904e-06 -1.9264673e-06 0.13404089)
(5.4539927e-06 -2.2286224e-06 0.13404178)
(2.5685161e-06 -1.9667957e-06 0.13404328)
(-3.5948366e-06 -2.0005102e-06 0.13404357)
(-2.153397e-06 -2.153397e-06 0.13404295)
(2.2405579e-06 2.2405579e-06 0.22378318)
(3.2763934e-06 2.3464025e-06 0.22378359)
(-4.6009544e-06 1.8533546e-06 0.22378415)
(-7.3854487e-06 2.3213427e-06 0.22378442)
(-1.9126252e-06 1.9808183e-06 0.22378458)
(2.3464025e-06 3.2763934e-06 0.22378359)
(2.6955883e-06 2.6955883e-06 0.22378413)
(-4.638544e-06 4.1081316e-06 0.22378501)
(-7.1942532e-06 6.8470318e-06 0.22378545)
(-2.2531497e-06 6.6764505e-06 0.22378549)
(1.8533546e-06 -4.6009544e-06 0.22378415)
(4.1081316e-06 -4.638544e-06 0.22378501)
(-4.4951096e-07 -4.4951097e-07 0.22378642)
(-4.8171299e-06 3.4065771e-06 0.22378713)
(-2.0263461e-06 3.5067819e-06 0.22378704)
(2.3213427e-06 -7.3854487e-06 0.22378442)
(6.8470318e-06 -7.1942532e-06 0.22378545)
(3.4065771e-06 -4.8171299e-06 0.22378713)
(-3.2379604e-06 -3.2379604e-06 0.22378791)
(-2.1863465e-06 -3.7042508e-06 0.2237874)
(1.9808183e-06 -1.9126252e-06 0.22378458)
(6.6764505e-06 -2.2531497e-06 0.22378549)
(3.5067819e-06 -2.0263461e-06 0.22378704)
(-3.7042508e-06 -2.1863465e-06 0.2237874)
(-2.3372064e-06 -2.3372064e-06 0.22378692)
(2.3675444e-06 2.3675444e-06 0.32118709)
(3.7663622e-06 2.5113049e-06 0.32118744)
(-4.0705907e-06 2.1439074e-06 0.32118805)
(-7.0193456e-06 2.6644969e-06 0.32118871)
(-1.8224729e-06 2.2871373e-06 0.3211891)
(2.5113049e-06 3.7663622e-06 0.32118744)
(3.4309067e-06 3.4309067e-06 0.32118786)
(-3.8408028e-06 5.2899081e-06 0.32118891)
(-6.8045007e-06 8.2204216e-06 0.32118972)
(-2.1998324e-06 7.9167519e-06 0.32119)
(2.1439074e-06 -4.0705907e-06 0.32118805)
(5.2899081e-06 -3.8408028e-06 0.32118891)
(7.189242e-07 7.189242e-07 0.32119045)
(-4.3925019e-06 4.6868487e-06 0.32119142)
(-2.0249193e-06 4.4834083e-06 0.32119152)
(2.6644969e-06 -7.0193456e-06 0.32118871)
(8.2204216e-06 -6.8045007e-06 0.32118972)
(4.6868487e-06 -4.3925019e-06 0.32119142)
(-3.0400166e-06 -3.0400166e-06 0.32119231)
(-2.3354593e-06 -3.7176116e-06 0.32119192)
(2.2871373e-06 -1.8224729e-06 0.3211891)
(7.9167519e-06 -2.1998324e-06 0.32119)
(4.4834083e-06 -2.0249193e-06 0.32119152)
(-3.7176116e-06 -2.3354593e-06 0.32119192)
(-2.4766493e-06 -2.4766493e-06 0.32119157)
(2.4721474e-06 2.4721474e-06 0.42213113)
(4.2410209e-06 2.6300795e-06 0.4221314)
(-3.3277311e-06 2.4257182e-06 0.42213202)
(-6.3417303e-06 2.996654e-06 0.42213304)
(-1.6541329e-06 2.5853024e-06 0.42213365)
(2.6300795e-06 4.2410209e-06 0.4221314)
(4.1713771e-06 4.1713771e-06 0.42213166)
(-2.7778694e-06 6.4994726e-06 0.4221328)
(-6.102354e-06 9.5558091e-06 0.42213397)
(-2.0654845e-06 9.0992236e-06 0.42213449)
(2.4257182e-06 -3.3277311e-06 0.42213202)
(6.4994726e-06 -2.7778694e-06 0.4221328)
(2.0567009e-06 2.0567009e-06 0.42213434)
(-3.7419794e-06 5.99071e-06 0.42213554)
(-1.9585233e-06 5.4222405e-06 0.42213584)
(2.996654e-06 -6.3417303e-06 0.42213304)
(9.5558091e-06 -6.102354e-06 0.42213397)
(5.99071e-06 -3.7419794e-06 0.42213554)
(-2.7368145e-06 -2.7368145e-06 0.42213648)
(-2.4444643e-06 -3.656678e-06 0.42213622)
(2.5853024e-06 -1.6541329e-06 0.42213365)
(9.0992236e-06 -2.0654845e-06 0.42213449)
(5.4222405e-06 -1.9585233e-06 0.42213584)
(-3.656678e-06 -2.4444643e-06 0.42213622)
(-2.5717656e-06 -2.5717656e-06 0.42213601)
(2.5419104e-06 2.5419104e-06 0.51973283)
(4.649499e-06 2.6867167e-06 0.51973295)
(-2.4262084e-06 2.6667293e-06 0.5197335)
(-5.3830988e-06 3.2869542e-06 0.51973481)
(-1.4135046e-06 2.8471268e-06 0.51973561)
(2.6867167e-06 4.649499e-06 0.51973295)
(4.8367273e-06 4.8367273e-06 0.51973299)
(-1.525852e-06 7.6149612e-06 0.51973409)
(-5.1125024e-06 1.0722345e-05 0.51973554)
(-1.853332e-06 1.0102996e-05 0.51973627)
(2.6667293e-06 -2.4262084e-06 0.5197335)
(7.6149612e-06 -1.525852e-06 0.51973409)
(3.4594093e-06 3.4594093e-06 0.51973545)
(-2.8950635e-06 7.1933223e-06 0.51973678)
(-1.8264036e-06 6.2124568e-06 0.51973727)
(3.2869542e-06 -5.3830988e-06 0.51973481)
(1.0722345e-05 -5.1125024e-06 0.51973554)
(7.1933223e-06 -2.8950635e-06 0.51973678)
(-2.3594549e-06 -2.3594549e-06 0.51973766)
(-2.5072424e-06 -3.552343e-06 0.51973756)
(2.8471268e-06 -1.4135046e-06 0.51973561)
(1.0102996e-05 -1.853332e-06 0.51973627)
(6.2124568e-06 -1.8264036e-06 0.51973727)
(-3.552343e-06 -2.5072424e-06 0.51973756)
(-2.6216624e-06 -2.6216624e-06 0.51973748)
(2.5515548e-06 2.5515548e-06 0.60295975)
(4.9160892e-06 2.662428e-06 0.60295963)
(-1.4683057e-06 2.8163257e-06 0.60296005)
(-4.2341619e-06 3.4838187e-06 0.60296146)
(-1.1180661e-06 3.0248194e-06 0.60296238)
(2.662428e-06 4.9160892e-06 0.60295963)
(5.3132456e-06 5.3132456e-06 0.60295941)
(-2.3621957e-07 8.4518723e-06 0.60296027)
(-3.9214213e-06 1.1530064e-05 0.6029618)
(-1.5770654e-06 1.0755944e-05 0.60296269)
(2.8163257e-06 -1.4683057e-06 0.60296005)
(8.4518723e-06 -2.3621957e-07 0.60296027)
(4.748513e-06 4.748513e-06 0.60296122)
(-1.9300906e-06 8.1179748e-06 0.60296249)
(-1.6341466e-06 6.7121196e-06 0.60296313)
(3.4838187e-06 -4.2341619e-06 0.60296146)
(1.1530064e-05 -3.9214213e-06 0.6029618)
(8.1179748e-06 -1.9300906e-06 0.60296249)
(-1.9578147e-06 -1.9578147e-06 0.60296317)
(-2.5143022e-06 -3.440749e-06 0.60296326)
(3.0248194e-06 -1.1180661e-06 0.60296238)
(1.0755944e-05 -1.5770654e-06 0.60296269)
(6.7121196e-06 -1.6341466e-06 0.60296313)
(-3.440749e-06 -2.5143022e-06 0.60296326)
(-2.6227694e-06 -2.6227694e-06 0.60296335)
(2.4622968e-06 2.4622968e-06 0.65469811)
(4.9501184e-06 2.537613e-06 0.65469763)
(-5.9335091e-07 2.8107876e-06 0.65469787)
(-3.0487186e-06 3.5146407e-06 0.65469918)
(-7.9912966e-07 3.0501736e-06 0.65470011)
(2.537613e-06 4.9501184e-06 0.65469763)
(5.4728547e-06 5.4728547e-06 0.65469708)
(8.7219065e-07 8.7836241e-06 0.65469756)
(-2.6896397e-06 1.1745325e-05 0.65469892)
(-1.2635968e-06 1.0851403e-05 0.65469986)
(2.8107876e-06 -5.9335091e-07 0.65469787)
(8.7836241e-06 8.7219065e-07 0.65469756)
(5.6791192e-06 5.6791192e-06 0.65469787)
(-9.8093963e-07 8.5578315e-06 0.65469883)
(-1.3950775e-06 6.7790042e-06 0.6546996)
(3.5146407e-06 -3.0487186e-06 0.65469918)
(1.1745325e-05 -2.6896397e-06 0.65469892)
(8.5578315e-06 -9.8093963e-07 0.65469883)
(-1.5897548e-06 -1.5897548e-06 0.65469917)
(-2.4494817e-06 -3.3394641e-06 0.65469953)
(3.0501736e-06 -7.9912966e-07 0.65470011)
(1.0851403e-05 -1.2635968e-06 0.65469986)
(6.7790042e-06 -1.3950775e-06 0.6546996)
(-3.3394641e-06 -2.4494817e-06 0.65469953)
(-2.5615504e-06 -2.5615504e-06 0.65469987)
(2.2301361e-06 2.2301361e-06 0.649219)
(4.680765e-06 2.2996472e-06 0.64921804)
(8.1145427e-08 2.6042193e-06 0.64921816)
(-2.0003653e-06 3.3101741e-06 0.64921922)
(-4.9729987e-07 2.8594103e-06 0.64922006)
(2.2996472e-06 4.680765e-06 0.64921804)
(5.2418898e-06 5.2418898e-06 0.64921717)
(1.5969357e-06 8.445284e-06 0.64921731)
(-1.6175787e-06 1.1187609e-05 0.64921828)
(-9.4806368e-07 1.0249161e-05 0.6492192)
(2.6042193e-06 8.1145425e-08 0.64921816)
(8.445284e-06 1.5969357e-06 0.64921731)
(6.0268649e-06 6.0268649e-06 0.64921697)
(-1.9648863e-07 8.3757696e-06 0.64921749)
(-1.1229323e-06 6.3814622e-06 0.64921836)
(3.3101741e-06 -2.0003653e-06 0.64921922)
(1.1187609e-05 -1.6175787e-06 0.64921828)
(8.3757696e-06 -1.9648863e-07 0.64921749)
(-1.2629814e-06 -1.2629814e-06 0.6492175)
(-2.277602e-06 -3.1677413e-06 0.64921828)
(2.8594103e-06 -4.9729987e-07 0.64922006)
(1.0249161e-05 -9.4806368e-07 0.6492192)
(6.3814622e-06 -1.1229323e-06 0.64921836)
(-3.1677413e-06 -2.277602e-06 0.64921828)
(-2.3927722e-06 -2.3927722e-06 0.6492191)
(1.8275109e-06 1.8275109e-06 0.54902683)
(4.1151104e-06 1.9564369e-06 0.54902539)
(5.8319889e-07 2.2431385e-06 0.54902548)
(-1.1515688e-06 2.8890791e-06 0.54902645)
(-2.4061582e-07 2.4791621e-06 0.54902718)
(1.9564369e-06 4.1151104e-06 0.54902539)
(4.7385517e-06 4.7385517e-06 0.54902421)
(1.9821622e-06 7.5965658e-06 0.54902441)
(-7.9753342e-07 1.0012382e-05 0.54902513)
(-6.5053286e-07 9.1551086e-06 0.54902602)
(2.2431385e-06 5.8319889e-07 0.54902548)
(7.5965658e-06 1.9821622e-06 0.54902441)
(5.8570289e-06 5.8570289e-06 0.54902391)
(4.0697403e-07 7.7766341e-06 0.54902419)
(-8.121312e-07 5.8576917e-06 0.54902519)
(2.8890791e-06 -1.1515688e-06 0.54902645)
(1.0012382e-05 -7.9753341e-07 0.54902513)
(7.7766341e-06 4.0697402e-07 0.54902419)
(-7.9687058e-07 -7.9687058e-07 0.54902429)
(-1.9298278e-06 -2.6029882e-06 0.54902561)
(2.4791621e-06 -2.4061582e-07 0.54902718)
(9.1551086e-06 -6.5053286e-07 0.54902602)
(5.8576917e-06 -8.121312e-07 0.54902519)
(-2.6029882e-06 -1.9298278e-06 0.54902561)
(-2.0162096e-06 -2.0162096e-06 0.54902708)
(1.2729241e-06 1.2729241e-06 0.30067788)
(3.3346944e-06 1.5102798e-06 0.30067615)
(1.1372441e-06 1.8884484e-06 0.3006761)
(-3.0184494e-07 2.4272639e-06 0.30067727)
(-9.1872017e-09 2.0836248e-06 0.30067796)
(1.5102798e-06 3.3346944e-06 0.30067615)
(4.2579809e-06 4.2579809e-06 0.30067452)
(2.5127203e-06 6.8699434e-06 0.30067494)
(-9.0803865e-09 8.9309268e-06 0.30067577)
(-3.5282639e-07 8.2540658e-06 0.30067659)
(1.8884484e-06 1.1372441e-06 0.3006761)
(6.8699434e-06 2.5127203e-06 0.30067494)
(5.8101901e-06 5.8101901e-06 0.30067465)
(1.0822775e-06 7.5369386e-06 0.30067511)
(-4.6042787e-07 5.9761555e-06 0.30067591)
(2.4272639e-06 -3.0184494e-07 0.30067727)
(8.9309268e-06 -9.0803864e-09 0.30067577)
(7.5369386e-06 1.0822775e-06 0.30067511)
(1.5688503e-07 1.5688503e-07 0.30067562)
(-1.3933485e-06 -1.272329e-06 0.30067687)
(2.0836248e-06 -9.1872055e-09 0.30067796)
(8.2540658e-06 -3.5282639e-07 0.30067659)
(5.9761555e-06 -4.6042787e-07 0.30067591)
(-1.272329e-06 -1.3933485e-06 0.30067687)
(-1.4132372e-06 -1.4132372e-06 0.30067804)
(6.7299467e-07 6.7299467e-07 -0.17202923)
(2.3330143e-06 8.6790663e-07 -0.17203068)
(1.7062133e-06 1.4685532e-06 -0.1720312)
(7.0885294e-07 1.8865594e-06 -0.17203007)
(2.1744135e-07 1.5661014e-06 -0.1720296)
(8.6790663e-07 2.3330143e-06 -0.17203068)
(3.5263522e-06 3.5263522e-06 -0.17203242)
(3.2341925e-06 6.143974e-06 -0.17203259)
(8.5517517e-07 7.8456724e-06 -0.1720319)
(-1.0301672e-07 7.1068599e-06 -0.17203136)
(1.4685532e-06 1.7062133e-06 -0.1720312)
(6.1439741e-06 3.2341925e-06 -0.17203259)
(6.0255335e-06 6.0255335e-06 -0.17203347)
(1.6717388e-06 7.6323277e-06 -0.17203328)
(-2.7510032e-07 6.1338816e-06 -0.17203293)
(1.8865594e-06 7.0885294e-07 -0.17203007)
(7.8456724e-06 8.5517517e-07 -0.1720319)
(7.6323277e-06 1.6717388e-06 -0.17203328)
(9.6352324e-07 9.6352325e-07 -0.17203328)
(-1.1019808e-06 -4.725693e-07 -0.17203289)
(1.5661014e-06 2.1744135e-07 -0.1720296)
(7.1068599e-06 -1.0301673e-07 -0.17203136)
(6.1338816e-06 -2.7510032e-07 -0.17203293)
(-4.725693e-07 -1.1019808e-06 -0.17203289)
(-1.2324953e-06 -1.2324953e-06 -0.17203324)
(3.0795111e-07 3.0795111e-07 -0.97158049)
(1.3652608e-06 3.5138584e-07 -0.97158136)
(1.7468402e-06 9.6430877e-07 -0.97158231)
(1.2985486e-06 1.2081556e-06 -0.97158214)
(3.0336162e-07 9.1045635e-07 -0.97158241)
(3.5138584e-07 1.3652608e-06 -0.97158136)
(2.3497973e-06 2.3497973e-06 -0.97158238)
(3.0319948e-06 4.6020305e-06 -0.97158374)
(1.2177699e-06 5.7232935e-06 -0.9715842)
(5.6624195e-09 4.9294887e-06 -0.97158426)
(9.6430877e-07 1.7468402e-06 -0.97158231)
(4.6020305e-06 3.0319948e-06 -0.97158374)
(5.1203364e-06 5.1203364e-06 -0.97158615)
(1.6260067e-06 6.1618349e-06 -0.9715874)
(-2.2584156e-07 4.447577e-06 -0.97158725)
(1.2081556e-06 1.2985486e-06 -0.97158214)
(5.7232935e-06 1.2177699e-06 -0.9715842)
(6.1618349e-06 1.6260067e-06 -0.9715874)
(5.4501049e-07 5.4501048e-07 -0.97158919)
(-1.1371762e-06 -1.5884829e-06 -0.97158889)
(9.1045635e-07 3.0336162e-07 -0.97158241)
(4.9294887e-06 5.6624164e-09 -0.97158426)
(4.447577e-06 -2.2584156e-07 -0.97158725)
(-1.5884829e-06 -1.1371762e-06 -0.97158889)
(-1.6481705e-06 -1.6481705e-06 -0.97158886)
(8.8613067e-08 8.8613065e-08 -4.5192125)
(5.1238978e-07 1.905639e-07 -4.5192131)
(9.3269982e-07 5.1150826e-07 -4.5192145)
(6.0387048e-07 5.1400304e-07 -4.5192161)
(3.3760563e-08 3.3730513e-07 -4.5192165)
(1.905639e-07 5.1238978e-07 -4.5192131)
(1.1467326e-06 1.1467326e-06 -4.519214)
(1.4178585e-06 2.3007714e-06 -4.519217)
(3.4256579e-07 2.5873591e-06 -4.5192189)
(-1.4293735e-07 2.2661278e-06 -4.5192185)
(5.1150826e-07 9.3269982e-07 -4.5192145)
(2.3007714e-06 1.4178585e-06 -4.519217)
(2.3733264e-06 2.3733264e-06 -4.5192221)
(5.6922688e-07 2.6348855e-06 -4.5192251)
(-1.8039369e-07 1.4982357e-06 -4.5192244)
(5.1400304e-07 6.0387048e-07 -4.5192161)
(2.5873591e-06 3.4256579e-07 -4.5192189)
(2.6348855e-06 5.6922688e-07 -4.5192251)
(-5.325249e-07 -5.3252491e-07 -4.5192283)
(-9.0070387e-07 -2.082181e-06 -4.5192244)
(3.3730513e-07 3.3760562e-08 -4.5192165)
(2.2661278e-06 -1.4293735e-07 -4.5192185)
(1.4982357e-06 -1.8039369e-07 -4.5192244)
(-2.0821809e-06 -9.0070387e-07 -4.5192244)
(-1.2134977e-06 -1.2134977e-06 -4.5192191)
)
;

boundaryField
{
    wall_minX
    {
        type            extrapolatedCalculated;
        value           nonuniform List<vector> 
100
(
(1.1136925e-12 4.322518e-07 -0.18463281)
(0 7.642466e-07 -0.18463058)
(0 -5.8419495e-07 -0.18463041)
(0 -1.0507602e-06 -0.18463299)
(0 -2.3379683e-07 -0.18463435)
(0 9.3655146e-07 -0.17259671)
(0 1.3065231e-06 -0.1725956)
(0 -1.8673885e-06 -0.17259618)
(0 -2.7530745e-06 -0.17259811)
(0 -6.5599338e-07 -0.17259929)
(0 1.1726517e-06 -0.1502761)
(0 1.2918904e-06 -0.15027548)
(0 -3.0940656e-06 -0.15027606)
(0 -4.1582748e-06 -0.1502776)
(0 -1.0208643e-06 -0.15027861)
(0 1.3548604e-06 -0.11657584)
(0 1.3491413e-06 -0.11657527)
(0 -3.992655e-06 -0.11657555)
(0 -5.3059503e-06 -0.11657674)
(0 -1.3309631e-06 -0.11657756)
(0 1.5515451e-06 -0.071302175)
(0 1.5892056e-06 -0.071301586)
(0 -4.5546325e-06 -0.071301585)
(0 -6.1728239e-06 -0.071302467)
(0 -1.5708689e-06 -0.071303096)
(0 1.7478656e-06 -0.014326876)
(0 1.9394968e-06 -0.014326307)
(0 -4.8739785e-06 -0.014326115)
(0 -6.8166518e-06 -0.014326743)
(0 -1.7499832e-06 -0.014327192)
(0 1.9306526e-06 0.054278361)
(0 2.3503491e-06 0.054278881)
(0 -4.9905582e-06 0.054279221)
(0 -7.2499047e-06 0.054278851)
(0 -1.8699842e-06 0.054278586)
(0 2.0949802e-06 0.1340401)
(0 2.7996567e-06 0.13404057)
(0 -4.9044991e-06 0.13404103)
(0 -7.4513864e-06 0.13404096)
(0 -1.9264673e-06 0.13404089)
(0 2.2405579e-06 0.22378318)
(0 3.2763934e-06 0.22378359)
(0 -4.6009544e-06 0.22378415)
(0 -7.3854487e-06 0.22378442)
(0 -1.9126252e-06 0.22378458)
(0 2.3675444e-06 0.32118709)
(0 3.7663622e-06 0.32118744)
(0 -4.0705907e-06 0.32118805)
(0 -7.0193456e-06 0.32118871)
(0 -1.8224729e-06 0.3211891)
(0 2.4721474e-06 0.42213113)
(0 4.2410209e-06 0.4221314)
(0 -3.3277311e-06 0.42213202)
(0 -6.3417303e-06 0.42213304)
(0 -1.6541329e-06 0.42213365)
(0 2.5419104e-06 0.51973283)
(0 4.649499e-06 0.51973295)
(0 -2.4262084e-06 0.5197335)
(0 -5.3830988e-06 0.51973481)
(0 -1.4135046e-06 0.51973561)
(0 2.5515548e-06 0.60295975)
(0 4.9160892e-06 0.60295963)
(0 -1.4683057e-06 0.60296005)
(0 -4.2341619e-06 0.60296146)
(0 -1.1180661e-06 0.60296238)
(0 2.4622968e-06 0.65469811)
(0 4.9501184e-06 0.65469763)
(0 -5.9335091e-07 0.65469787)
(0 -3.0487186e-06 0.65469918)
(0 -7.9912966e-07 0.65470011)
(0 2.2301361e-06 0.649219)
(0 4.680765e-06 0.64921804)
(0 8.1145425e-08 0.64921816)
(0 -2.0003653e-06 0.64921922)
(0 -4.9729987e-07 0.64922006)
(0 1.8275109e-06 0.54902683)
(0 4.1151104e-06 0.54902539)
(0 5.8319889e-07 0.54902548)
(0 -1.1515688e-06 0.54902645)
(0 -2.4061582e-07 0.54902718)
(0 1.2729241e-06 0.30067788)
(0 3.3346944e-06 0.30067615)
(0 1.1372441e-06 0.3006761)
(0 -3.0184494e-07 0.30067727)
(0 -9.1872055e-09 0.30067796)
(0 6.7299467e-07 -0.17202923)
(0 2.3330143e-06 -0.17203068)
(0 1.7062133e-06 -0.1720312)
(0 7.0885294e-07 -0.17203007)
(0 2.1744135e-07 -0.1720296)
(0 3.0795111e-07 -0.97158049)
(0 1.3652608e-06 -0.97158136)
(0 1.7468402e-06 -0.97158231)
(0 1.2985486e-06 -0.97158214)
(0 3.0336162e-07 -0.97158241)
(0 8.8613065e-08 -4.5192125)
(0 5.1238978e-07 -4.5192131)
(0 9.3269982e-07 -4.5192145)
(0 6.0387048e-07 -4.5192161)
(0 3.3760562e-08 -4.5192165)
)
;
    }
    wall_maxX
    {
        type            extrapolatedCalculated;
        value           nonuniform List<vector> 
100
(
(0 1.5273052e-07 -0.18463435)
(0 1.5121702e-07 -0.18463361)
(0 -2.4166492e-07 -0.18463382)
(0 -2.5997833e-07 -0.18463437)
(0 -6.4128118e-08 -0.18463487)
(0 2.8781011e-07 -0.17259929)
(0 3.4999777e-07 -0.17259889)
(0 -4.1879631e-07 -0.17259871)
(0 -7.9465158e-07 -0.17259899)
(0 -3.0504844e-07 -0.17259986)
(0 4.1987981e-07 -0.15027861)
(0 7.2981463e-07 -0.15027812)
(0 -3.4549134e-07 -0.15027758)
(0 -1.4054286e-06 -0.15027778)
(0 -6.3996159e-07 -0.15027882)
(0 6.1587327e-07 -0.11657756)
(0 1.380039e-06 -0.11657691)
(0 -8.0211486e-08 -0.11657606)
(0 -2.0295583e-06 -0.11657619)
(0 -9.9541178e-07 -0.11657724)
(0 8.5418528e-07 -0.071303096)
(0 2.2293088e-06 -0.071302347)
(0 3.7027305e-07 -0.071301265)
(0 -2.5875061e-06 -0.07130129)
(0 -1.3398322e-06 -0.071302276)
(0 1.115431e-06 -0.014327192)
(0 3.2105939e-06 -0.014326386)
(0 9.7650567e-07 -0.01432513)
(0 -3.0401023e-06 -0.01432504)
(0 -1.6527738e-06 -0.014325918)
(0 1.3915597e-06 0.054278586)
(0 4.2913806e-06 0.054279434)
(0 1.71582e-06 0.05428083)
(0 -3.3757704e-06 0.054281026)
(0 -1.9250328e-06 0.054280275)
(0 1.6804904e-06 0.13404089)
(0 5.4539927e-06 0.13404178)
(0 2.5685161e-06 0.13404328)
(0 -3.5948366e-06 0.13404357)
(0 -2.153397e-06 0.13404295)
(0 1.9808183e-06 0.22378458)
(0 6.6764505e-06 0.22378549)
(0 3.5067819e-06 0.22378704)
(0 -3.7042508e-06 0.2237874)
(0 -2.3372064e-06 0.22378692)
(0 2.2871373e-06 0.3211891)
(0 7.9167519e-06 0.32119)
(0 4.4834083e-06 0.32119152)
(0 -3.7176116e-06 0.32119192)
(0 -2.4766493e-06 0.32119157)
(0 2.5853024e-06 0.42213365)
(0 9.0992236e-06 0.42213449)
(0 5.4222405e-06 0.42213584)
(0 -3.656678e-06 0.42213622)
(0 -2.5717656e-06 0.42213601)
(0 2.8471268e-06 0.51973561)
(0 1.0102996e-05 0.51973627)
(0 6.2124568e-06 0.51973727)
(0 -3.552343e-06 0.51973756)
(0 -2.6216624e-06 0.51973748)
(0 3.0248194e-06 0.60296238)
(0 1.0755944e-05 0.60296269)
(0 6.7121196e-06 0.60296313)
(0 -3.440749e-06 0.60296326)
(0 -2.6227694e-06 0.60296335)
(0 3.0501736e-06 0.65470011)
(0 1.0851403e-05 0.65469986)
(0 6.7790042e-06 0.6546996)
(0 -3.3394641e-06 0.65469953)
(0 -2.5615504e-06 0.65469987)
(0 2.8594103e-06 0.64922006)
(0 1.0249161e-05 0.6492192)
(0 6.3814622e-06 0.64921836)
(0 -3.1677413e-06 0.64921828)
(0 -2.3927722e-06 0.6492191)
(0 2.4791621e-06 0.54902718)
(0 9.1551086e-06 0.54902602)
(0 5.8576917e-06 0.54902519)
(0 -2.6029882e-06 0.54902561)
(0 -2.0162096e-06 0.54902708)
(0 2.0836248e-06 0.30067796)
(0 8.2540658e-06 0.30067659)
(0 5.9761555e-06 0.30067591)
(0 -1.272329e-06 0.30067687)
(0 -1.4132372e-06 0.30067804)
(0 1.5661014e-06 -0.1720296)
(0 7.1068599e-06 -0.17203136)
(0 6.1338816e-06 -0.17203293)
(0 -4.725693e-07 -0.17203289)
(0 -1.2324953e-06 -0.17203324)
(0 9.1045635e-07 -0.97158241)
(0 4.9294887e-06 -0.97158426)
(0 4.447577e-06 -0.97158725)
(0 -1.5884829e-06 -0.97158889)
(0 -1.6481705e-06 -0.97158886)
(0 3.3730513e-07 -4.5192165)
(0 2.2661278e-06 -4.5192185)
(0 1.4982357e-06 -4.5192244)
(0 -2.082181e-06 -4.5192244)
(0 -1.2134977e-06 -4.5192191)
)
;
    }
    wall_minY
    {
        type            extrapolatedCalculated;
        value           nonuniform List<vector> 
100
(
(4.3225183e-07 1.1136925e-12 -0.18463281)
(9.3655146e-07 0 -0.17259671)
(1.1726517e-06 0 -0.1502761)
(1.3548604e-06 0 -0.11657584)
(1.5515451e-06 0 -0.071302175)
(1.7478656e-06 0 -0.014326876)
(1.9306526e-06 0 0.054278361)
(2.0949802e-06 0 0.1340401)
(2.2405579e-06 0 0.22378318)
(2.3675444e-06 0 0.32118709)
(2.4721474e-06 0 0.42213113)
(2.5419104e-06 0 0.51973283)
(2.5515548e-06 0 0.60295975)
(2.4622968e-06 0 0.65469811)
(2.2301361e-06 0 0.649219)
(1.8275109e-06 0 0.54902683)
(1.2729241e-06 0 0.30067788)
(6.7299467e-07 0 -0.17202923)
(3.0795111e-07 0 -0.97158049)
(8.8613067e-08 0 -4.5192125)
(7.6424662e-07 2.0608515e-13 -0.18463058)
(1.3065231e-06 0 -0.1725956)
(1.2918904e-06 0 -0.15027548)
(1.3491413e-06 0 -0.11657527)
(1.5892056e-06 0 -0.071301586)
(1.9394968e-06 0 -0.014326307)
(2.3503491e-06 0 0.054278881)
(2.7996567e-06 0 0.13404057)
(3.2763934e-06 0 0.22378359)
(3.7663622e-06 0 0.32118744)
(4.2410209e-06 0 0.4221314)
(4.649499e-06 0 0.51973295)
(4.9160892e-06 0 0.60295963)
(4.9501184e-06 0 0.65469763)
(4.680765e-06 0 0.64921804)
(4.1151104e-06 0 0.54902539)
(3.3346944e-06 0 0.30067615)
(2.3330143e-06 0 -0.17203068)
(1.3652608e-06 0 -0.97158136)
(5.1238978e-07 0 -4.5192131)
(-5.8419501e-07 8.1878948e-14 -0.18463041)
(-1.8673885e-06 0 -0.17259618)
(-3.0940656e-06 0 -0.15027606)
(-3.992655e-06 0 -0.11657555)
(-4.5546325e-06 0 -0.071301585)
(-4.8739785e-06 0 -0.014326115)
(-4.9905582e-06 0 0.054279221)
(-4.9044991e-06 0 0.13404103)
(-4.6009544e-06 0 0.22378415)
(-4.0705907e-06 0 0.32118805)
(-3.3277311e-06 0 0.42213202)
(-2.4262084e-06 0 0.5197335)
(-1.4683057e-06 0 0.60296005)