/*--------------------------------*- C++ -*----------------------------------*\
| =========                 |                                                 |
| \\      /  F ield         | OpenFOAM: The Open Source CFD Toolbox           |
|  \\    /   O peration     | Version:  v2106                                 |
|   \\  /    A nd           | Website:  www.openfoam.com                      |
|    \\/     M anipulation  |                                                 |
\*---------------------------------------------------------------------------*/
FoamFile
{
    version     2.0;
    format      ascii;
    arch        "LSB;label=32;scalar=64";
    class       volScalarField;
    location    "50";
    object      Tmode2;
}
// * * * * * * * * * * * * * * * * * * * * * * * * * * * * * * * * * * * * * //

dimensions      [0 0 0 0 0 0 0];

internalField   nonuniform List<scalar> 
4000
(
-0.011413959
-0.011413961
-0.011413963
-0.011413956
-0.011413956
-0.011413959
-0.011413962
-0.011413963
-0.011413964
-0.011413964
-0.011413961
-0.011413965
-0.011413961
-0.011413956
-0.011413957
-0.011413961
-0.011413963
-0.011413964
-0.011413965
-0.011413964
-0.011413963
-0.011413961
-0.011413958
-0.011413955
-0.011413957
-0.01141396
-0.011413962
-0.011413963
-0.011413964
-0.011413964
-0.011413956
-0.011413956
-0.011413955
-0.011413952
-0.011413953
-0.011413956
-0.011413957
-0.011413958
-0.01141396
-0.01141396
-0.011413956
-0.011413957
-0.011413957
-0.011413953
-0.011413955
-0.011413957
-0.011413958
-0.011413958
-0.011413959
-0.011413959
-0.011413959
-0.011413961
-0.01141396
-0.011413956
-0.011413957
-0.011413958
-0.011413959
-0.011413958
-0.011413959
-0.011413959
-0.011413962
-0.011413963
-0.011413962
-0.011413957
-0.011413958
-0.011413959
-0.011413958
-0.011413958
-0.011413958
-0.011413958
-0.011413963
-0.011413964
-0.011413963
-0.011413958
-0.011413958
-0.011413958
-0.011413958
-0.011413958
-0.011413958
-0.011413958
-0.011413964
-0.011413965
-0.011413964
-0.01141396
-0.011413959
-0.011413959
-0.011413958
-0.011413958
-0.011413959
-0.011413959
-0.011413964
-0.011413964
-0.011413964
-0.01141396
-0.011413959
-0.011413959
-0.011413958
-0.011413958
-0.011413959
-0.011413959
-0.011908147
-0.011908148
-0.01190815
-0.011908135
-0.011908137
-0.011908145
-0.011908151
-0.011908155
-0.011908157
-0.011908159
-0.011908148
-0.011908152
-0.011908143
-0.011908132
-0.011908137
-0.011908145
-0.011908151
-0.011908155
-0.011908156
-0.011908156
-0.01190815
-0.011908143
-0.011908137
-0.01190813
-0.011908135
-0.011908142
-0.011908148
-0.011908151
-0.011908154
-0.011908154
-0.011908135
-0.011908132
-0.01190813
-0.011908123
-0.011908128
-0.011908134
-0.011908138
-0.011908141
-0.011908145
-0.011908146
-0.011908137
-0.011908137
-0.011908135
-0.011908128
-0.011908131
-0.011908136
-0.011908138
-0.011908139
-0.011908142
-0.011908143
-0.011908145
-0.011908145
-0.011908142
-0.011908134
-0.011908136
-0.011908139
-0.011908139
-0.01190814
-0.011908141
-0.011908141
-0.011908151
-0.011908151
-0.011908148
-0.011908138
-0.011908138
-0.011908139
-0.011908139
-0.011908138
-0.011908139
-0.011908139
-0.011908155
-0.011908155
-0.011908151
-0.011908141
-0.011908139
-0.01190814
-0.011908138
-0.011908137
-0.011908139
-0.011908139
-0.011908157
-0.011908156
-0.011908154
-0.011908145
-0.011908142
-0.011908141
-0.011908139
-0.011908139
-0.011908141
-0.011908142
-0.011908159
-0.011908156
-0.011908154
-0.011908146
-0.011908143
-0.011908141
-0.011908139
-0.011908139
-0.011908142
-0.011908142
-0.012387241
-0.012387238
-0.012387237
-0.012387218
-0.012387222
-0.012387234
-0.012387244
-0.01238725
-0.012387254
-0.012387258
-0.012387238
-0.01238724
-0.012387228
-0.012387214
-0.012387222
-0.012387234
-0.012387243
-0.012387249
-0.012387252
-0.012387251
-0.012387237
-0.012387228
-0.012387219
-0.012387209
-0.012387218
-0.012387229
-0.012387236
-0.012387243
-0.012387248
-0.012387247
-0.012387218
-0.012387214
-0.012387209
-0.012387201
-0.012387208
-0.012387217
-0.012387222
-0.012387228
-0.012387234
-0.012387236
-0.012387222
-0.012387222
-0.012387218
-0.012387208
-0.012387214
-0.01238722
-0.012387222
-0.012387225
-0.012387229
-0.01238723
-0.012387234
-0.012387234
-0.012387229
-0.012387217
-0.01238722
-0.012387223
-0.012387223
-0.012387224
-0.012387226
-0.012387226
-0.012387244
-0.012387243
-0.012387236
-0.012387222
-0.012387222
-0.012387223
-0.012387221
-0.012387221
-0.012387222
-0.012387222
-0.01238725
-0.012387249
-0.012387243
-0.012387228
-0.012387225
-0.012387224
-0.012387221
-0.01238722
-0.012387223
-0.012387224
-0.012387254
-0.012387252
-0.012387248
-0.012387234
-0.012387229
-0.012387226
-0.012387222
-0.012387223
-0.012387226
-0.012387228
-0.012387258
-0.012387251
-0.012387247
-0.012387236
-0.01238723
-0.012387226
-0.012387222
-0.012387224
-0.012387228
-0.012387228
-0.012841138
-0.012841132
-0.01284113
-0.012841108
-0.012841114
-0.012841129
-0.012841141
-0.012841149
-0.012841155
-0.01284116
-0.012841132
-0.012841133
-0.012841118
-0.012841103
-0.012841113
-0.012841128
-0.012841139
-0.012841148
-0.012841151
-0.012841151
-0.01284113
-0.012841118
-0.012841108
-0.012841097
-0.012841108
-0.012841121
-0.01284113
-0.01284114
-0.012841146
-0.012841145
-0.012841108
-0.012841103
-0.012841097
-0.012841087
-0.012841096
-0.012841106
-0.012841112
-0.01284112
-0.012841128
-0.01284113
-0.012841114
-0.012841113
-0.012841108
-0.012841096
-0.012841102
-0.012841108
-0.01284111
-0.012841115
-0.01284112
-0.012841121
-0.012841129
-0.012841128
-0.012841121
-0.012841106
-0.012841108
-0.012841111
-0.012841109
-0.012841111
-0.012841114
-0.012841114
-0.012841141
-0.012841139
-0.01284113
-0.012841112
-0.01284111
-0.012841109
-0.012841105
-0.012841106
-0.012841109
-0.012841109
-0.012841149
-0.012841148
-0.01284114
-0.01284112
-0.012841115
-0.012841111
-0.012841106
-0.012841107
-0.012841111
-0.012841113
-0.012841155
-0.012841151
-0.012841146
-0.012841128
-0.01284112
-0.012841114
-0.012841109
-0.012841111
-0.012841116
-0.012841117
-0.01284116
-0.012841151
-0.012841145
-0.01284113
-0.012841121
-0.012841114
-0.012841109
-0.012841113
-0.012841117
-0.012841118
-0.013259688
-0.013259681
-0.013259679
-0.013259654
-0.013259661
-0.013259678
-0.013259692
-0.013259702
-0.013259709
-0.013259716
-0.013259681
-0.013259683
-0.013259666
-0.013259648
-0.013259659
-0.013259676
-0.013259689
-0.0132597
-0.013259705
-0.013259705
-0.013259679
-0.013259666
-0.013259654
-0.013259642
-0.013259653
-0.013259667
-0.013259677
-0.01325969
-0.013259698
-0.013259696
-0.013259654
-0.013259648
-0.013259642
-0.01325963
-0.013259639
-0.013259649
-0.013259655
-0.013259666
-0.013259675
-0.013259678
-0.013259661
-0.013259659
-0.013259653
-0.013259639
-0.013259645
-0.01325965
-0.01325965
-0.013259657
-0.013259664
-0.013259665
-0.013259678
-0.013259676
-0.013259667
-0.013259649
-0.01325965
-0.01325965
-0.013259646
-0.013259649
-0.013259654
-0.013259653
-0.013259692
-0.013259689
-0.013259677
-0.013259655
-0.01325965
-0.013259646
-0.01325964
-0.013259642
-0.013259646
-0.013259647
-0.013259702
-0.0132597
-0.01325969
-0.013259666
-0.013259657
-0.013259649
-0.013259642
-0.013259645
-0.013259651
-0.013259654
-0.013259709
-0.013259705
-0.013259698
-0.013259675
-0.013259664
-0.013259654
-0.013259646
-0.013259651
-0.013259659
-0.013259659
-0.013259716
-0.013259705
-0.013259696
-0.013259678
-0.013259665
-0.013259653
-0.013259647
-0.013259654
-0.013259659
-0.01325966
-0.013632679
-0.013632672
-0.013632669
-0.01363264
-0.013632648
-0.013632666
-0.013632681
-0.013632693
-0.013632701
-0.013632709
-0.013632672
-0.013632674
-0.013632655
-0.013632635
-0.013632646
-0.013632663
-0.013632676
-0.01363269
-0.013632696
-0.013632695
-0.013632669
-0.013632655
-0.013632642
-0.013632627
-0.013632638
-0.013632652
-0.013632662
-0.013632677
-0.013632686
-0.013632685
-0.01363264
-0.013632635
-0.013632627
-0.013632613
-0.013632621
-0.01363263
-0.013632635
-0.013632648
-0.013632659
-0.013632661
-0.013632648
-0.013632646
-0.013632638
-0.013632621
-0.013632625
-0.013632628
-0.013632627
-0.013632635
-0.013632643
-0.013632644
-0.013632666
-0.013632663
-0.013632652
-0.01363263
-0.013632628
-0.013632625
-0.013632619
-0.013632623
-0.013632628
-0.013632628
-0.013632681
-0.013632676
-0.013632662
-0.013632635
-0.013632627
-0.013632619
-0.01363261
-0.013632612
-0.013632618
-0.01363262
-0.013632693
-0.01363269
-0.013632677
-0.013632648
-0.013632635
-0.013632623
-0.013632612
-0.013632617
-0.013632626
-0.013632631
-0.013632701
-0.013632696
-0.013632686
-0.013632659
-0.013632643
-0.013632628
-0.013632618
-0.013632626
-0.013632636
-0.013632636
-0.013632709
-0.013632695
-0.013632685
-0.013632661
-0.013632644
-0.013632628
-0.01363262
-0.013632631
-0.013632636
-0.013632637
-0.013949819
-0.013949811
-0.013949808
-0.013949775
-0.013949782
-0.0139498
-0.013949815
-0.013949828
-0.013949837
-0.013949847
-0.013949811
-0.013949814
-0.013949792
-0.013949769
-0.01394978
-0.013949797
-0.01394981
-0.013949825
-0.013949831
-0.01394983
-0.013949808
-0.013949792
-0.013949778
-0.01394976
-0.01394977
-0.013949783
-0.013949792
-0.013949809
-0.013949819
-0.013949817
-0.013949775
-0.013949769
-0.01394976
-0.013949743
-0.01394975
-0.013949756
-0.013949759
-0.013949774
-0.013949786
-0.013949789
-0.013949782
-0.01394978
-0.01394977
-0.01394975
-0.013949751
-0.013949751
-0.013949747
-0.013949756
-0.013949765
-0.013949766
-0.0139498
-0.013949797
-0.013949783
-0.013949756
-0.013949751
-0.013949744
-0.013949735
-0.013949739
-0.013949745
-0.013949745
-0.013949815
-0.01394981
-0.013949792
-0.013949759
-0.013949747
-0.013949735
-0.013949722
-0.013949725
-0.013949733
-0.013949736
-0.013949828
-0.013949825
-0.013949809
-0.013949774
-0.013949756
-0.013949739
-0.013949725
-0.013949731
-0.013949743
-0.013949749
-0.013949837
-0.013949831
-0.013949819
-0.013949786
-0.013949765
-0.013949745
-0.013949733
-0.013949743
-0.013949756
-0.013949754
-0.013949847
-0.01394983
-0.013949817
-0.013949789
-0.013949766
-0.013949745
-0.013949736
-0.013949749
-0.013949754
-0.013949756
-0.014200734
-0.014200726
-0.014200721
-0.014200685
-0.014200689
-0.014200707
-0.014200722
-0.014200736
-0.014200745
-0.014200756
-0.014200726
-0.014200728
-0.014200705
-0.014200677
-0.014200687
-0.014200703
-0.014200715
-0.014200731
-0.014200738
-0.014200737
-0.014200721
-0.014200705
-0.014200688
-0.014200666
-0.014200675
-0.014200686
-0.014200694
-0.014200712
-0.014200723
-0.01420072
-0.014200685
-0.014200677
-0.014200666
-0.014200646
-0.014200651
-0.014200655
-0.014200655
-0.014200671
-0.014200685
-0.014200687
-0.014200689
-0.014200687
-0.014200675
-0.014200651
-0.014200649
-0.014200645
-0.014200638
-0.014200647
-0.014200657
-0.014200658
-0.014200707
-0.014200703
-0.014200686
-0.014200655
-0.014200645
-0.014200634
-0.014200621
-0.014200625
-0.014200632
-0.014200632
-0.014200722
-0.014200715
-0.014200694
-0.014200655
-0.014200638
-0.014200621
-0.014200604
-0.014200607
-0.014200616
-0.014200621
-0.014200736
-0.014200731
-0.014200712
-0.014200671
-0.014200647
-0.014200625
-0.014200607
-0.014200614
-0.014200629
-0.014200637
-0.014200745
-0.014200738
-0.014200723
-0.014200685
-0.014200657
-0.014200632
-0.014200616
-0.014200629
-0.014200645
-0.014200643
-0.014200756
-0.014200737
-0.01420072
-0.014200687
-0.014200658
-0.014200632
-0.014200621
-0.014200637
-0.014200643
-0.014200645
-0.014374975
-0.014374966
-0.01437496
-0.01437492
-0.014374922
-0.014374939
-0.014374953
-0.014374967
-0.014374977
-0.014374988
-0.014374966
-0.014374969
-0.014374942
-0.014374911
-0.014374919
-0.014374934
-0.014374945
-0.014374961
-0.014374968
-0.014374967
-0.01437496
-0.014374942
-0.014374923
-0.014374898
-0.014374905
-0.014374914
-0.01437492
-0.014374939
-0.01437495
-0.014374947
-0.01437492
-0.014374911
-0.014374898
-0.014374874
-0.014374876
-0.014374877
-0.014374875
-0.014374892
-0.014374906
-0.014374908
-0.014374922
-0.014374919
-0.014374905
-0.014374876
-0.014374871
-0.014374863
-0.014374853
-0.014374862
-0.014374872
-0.014374873
-0.014374939
-0.014374934
-0.014374914
-0.014374877
-0.014374863
-0.014374847
-0.01437483
-0.014374834
-0.014374842
-0.014374842
-0.014374953
-0.014374945
-0.01437492
-0.014374875
-0.014374853
-0.01437483
-0.014374808
-0.014374812
-0.014374822
-0.014374828
-0.014374967
-0.014374961
-0.014374939
-0.014374892
-0.014374862
-0.014374834
-0.014374812
-0.01437482
-0.014374836
-0.014374846
-0.014374977
-0.014374968
-0.01437495
-0.014374906
-0.014374872
-0.014374842
-0.014374822
-0.014374836
-0.014374855
-0.014374853
-0.014374988
-0.014374967
-0.014374947
-0.014374908
-0.014374873
-0.014374842
-0.014374828
-0.014374846
-0.014374853
-0.014374856
-0.014462035
-0.014462026
-0.014462018
-0.014461973
-0.014461973
-0.014461989
-0.014462001
-0.014462015
-0.014462025
-0.014462037
-0.014462026
-0.014462028
-0.014461999
-0.014461964
-0.014461969
-0.014461982
-0.014461991
-0.014462008
-0.014462014
-0.014462013
-0.014462018
-0.014461999
-0.014461977
-0.014461948
-0.014461952
-0.014461959
-0.014461963
-0.014461982
-0.014461994
-0.01446199
-0.014461973
-0.014461964
-0.014461948
-0.01446192
-0.014461919
-0.014461916
-0.014461912
-0.014461928
-0.014461943
-0.014461945
-0.014461973
-0.014461969
-0.014461952
-0.014461919
-0.014461909
-0.014461897
-0.014461883
-0.014461893
-0.014461904
-0.014461904
-0.014461989
-0.014461982
-0.014461959
-0.014461916
-0.014461897
-0.014461876
-0.014461855
-0.014461858
-0.014461867
-0.014461867
-0.014462001
-0.014461991
-0.014461963
-0.014461912
-0.014461883
-0.014461855
-0.014461829
-0.014461833
-0.014461844
-0.01446185
-0.014462015
-0.014462008
-0.014461982
-0.014461928
-0.014461893
-0.014461858
-0.014461833
-0.014461841
-0.01446186
-0.014461871
-0.014462025
-0.014462014
-0.014461994
-0.014461943
-0.014461904
-0.014461867
-0.014461844
-0.01446186
-0.014461881
-0.014461878
-0.014462037
-0.014462013
-0.01446199
-0.014461945
-0.014461904
-0.014461867
-0.01446185
-0.014461871
-0.014461878
-0.014461882
-0.014451378
-0.014451367
-0.014451357
-0.014451309
-0.014451306
-0.01445132
-0.01445133
-0.014451344
-0.014451354
-0.014451366
-0.014451367
-0.014451369
-0.014451337
-0.014451298
-0.014451301
-0.014451311
-0.014451319
-0.014451336
-0.014451342
-0.01445134
-0.014451357
-0.014451337
-0.014451313
-0.01445128
-0.014451281
-0.014451285
-0.014451286
-0.014451306
-0.014451318
-0.014451313
-0.014451309
-0.014451298
-0.01445128
-0.014451247
-0.014451243
-0.014451237
-0.014451229
-0.014451246
-0.014451261
-0.014451263
-0.014451306
-0.014451301
-0.014451281
-0.014451243
-0.014451229
-0.014451212
-0.014451195
-0.014451204
-0.014451215
-0.014451215
-0.01445132
-0.014451311
-0.014451285
-0.014451237
-0.014451212
-0.014451186
-0.01445116
-0.014451163
-0.014451172
-0.014451173
-0.01445133
-0.014451319
-0.014451286
-0.014451229
-0.014451195
-0.01445116
-0.01445113
-0.014451133
-0.014451146
-0.014451153
-0.014451344
-0.014451336
-0.014451306
-0.014451246
-0.014451204
-0.014451163
-0.014451133
-0.014451142
-0.014451163
-0.014451177
-0.014451354
-0.014451342
-0.014451318
-0.014451261
-0.014451215
-0.014451172
-0.014451146
-0.014451163
-0.014451186
-0.014451184
-0.014451366
-0.01445134
-0.014451313
-0.014451263
-0.014451215
-0.014451173
-0.014451153
-0.014451177
-0.014451184
-0.014451188
-0.014332484
-0.014332472
-0.014332461
-0.014332408
-0.014332402
-0.014332414
-0.014332423
-0.014332436
-0.014332446
-0.014332458
-0.014332472
-0.014332474
-0.014332439
-0.014332396
-0.014332395
-0.014332403
-0.014332409
-0.014332426
-0.014332432
-0.014332429
-0.014332461
-0.014332439
-0.014332412
-0.014332375
-0.014332373
-0.014332373
-0.014332373
-0.014332393
-0.014332404
-0.014332398
-0.014332408
-0.014332396
-0.014332375
-0.014332339
-0.01433233
-0.01433232
-0.01433231
-0.014332327
-0.014332342
-0.014332343
-0.014332402
-0.014332395
-0.014332373
-0.01433233
-0.014332311
-0.01433229
-0.014332269
-0.014332277
-0.014332289
-0.014332289
-0.014332414
-0.014332403
-0.014332373
-0.01433232
-0.01433229
-0.014332258
-0.014332228
-0.014332231
-0.01433224
-0.01433224
-0.014332423
-0.014332409
-0.014332373
-0.01433231
-0.014332269
-0.014332228
-0.014332194
-0.014332197
-0.01433221
-0.014332219
-0.014332436
-0.014332426
-0.014332393
-0.014332327
-0.014332277
-0.014332231
-0.014332197
-0.014332206
-0.014332229
-0.014332244
-0.014332446
-0.014332432
-0.014332404
-0.014332342
-0.014332289
-0.01433224
-0.01433221
-0.014332229
-0.014332254
-0.014332251
-0.014332458
-0.014332429
-0.014332398
-0.014332343
-0.014332289
-0.01433224
-0.014332219
-0.014332244
-0.014332251
-0.014332256
-0.014094921
-0.014094908
-0.014094894
-0.014094838
-0.014094828
-0.014094837
-0.014094845
-0.014094857
-0.014094867
-0.014094879
-0.014094908
-0.014094908
-0.014094871
-0.014094824
-0.01409482
-0.014094825
-0.014094829
-0.014094845
-0.014094851
-0.014094848
-0.014094894
-0.014094871
-0.014094841
-0.014094801
-0.014094795
-0.014094792
-0.014094789
-0.014094809
-0.01409482
-0.014094813
-0.014094838
-0.014094824
-0.014094801
-0.01409476
-0.014094747
-0.014094733
-0.01409472
-0.014094736
-0.014094752
-0.014094752
-0.014094828
-0.01409482
-0.014094795
-0.014094747
-0.014094723
-0.014094697
-0.014094673
-0.014094681
-0.014094692
-0.014094692
-0.014094837
-0.014094825
-0.014094792
-0.014094733
-0.014094697
-0.01409466
-0.014094626
-0.014094628
-0.014094637
-0.014094638
-0.014094845
-0.014094829
-0.014094789
-0.01409472
-0.014094673
-0.014094626
-0.014094587
-0.01409459
-0.014094604
-0.014094614
-0.014094857
-0.014094845
-0.014094809
-0.014094736
-0.014094681
-0.014094628
-0.01409459
-0.014094599
-0.014094624
-0.01409464
-0.014094867
-0.014094851
-0.01409482
-0.014094752
-0.014094692
-0.014094637
-0.014094604
-0.014094624
-0.014094651
-0.014094648
-0.014094879
-0.014094848
-0.014094813
-0.014094752
-0.014094692
-0.014094638
-0.014094614
-0.01409464
-0.014094648
-0.014094653
-0.013728432
-0.013728419
-0.013728403
-0.013728343
-0.013728329
-0.013728335
-0.013728341
-0.013728352
-0.013728362
-0.013728374
-0.013728419
-0.013728418
-0.013728379
-0.013728327
-0.013728319
-0.013728322
-0.013728323
-0.013728339
-0.013728344
-0.013728341
-0.013728403
-0.013728379
-0.013728346
-0.013728301
-0.013728291
-0.013728285
-0.01372828
-0.013728299
-0.013728309
-0.013728302
-0.013728343
-0.013728327
-0.013728301
-0.013728256
-0.013728238
-0.01372822
-0.013728204
-0.01372822
-0.013728236
-0.013728236
-0.013728329
-0.013728319
-0.013728291
-0.013728238
-0.013728209
-0.013728179
-0.01372815
-0.013728158
-0.013728169
-0.013728169
-0.013728335
-0.013728322
-0.013728285
-0.01372822
-0.013728179
-0.013728136
-0.013728098
-0.013728099
-0.013728108
-0.013728109
-0.013728341
-0.013728323
-0.01372828
-0.013728204
-0.01372815
-0.013728098
-0.013728055
-0.013728057
-0.013728072
-0.013728083
-0.013728352
-0.013728339
-0.013728299
-0.01372822
-0.013728158
-0.013728099
-0.013728057
-0.013728067
-0.013728093
-0.013728111
-0.013728362
-0.013728344
-0.013728309
-0.013728236
-0.013728169
-0.013728108
-0.013728072
-0.013728093
-0.013728122
-0.013728119
-0.013728374
-0.013728341
-0.013728302
-0.013728236
-0.013728169
-0.013728109
-0.013728083
-0.013728111
-0.013728119
-0.013728124
-0.013223064
-0.01322305
-0.013223031
-0.013222968
-0.01322295
-0.013222954
-0.013222957
-0.013222968
-0.013222977
-0.013222988
-0.01322305
-0.013223048
-0.013223006
-0.013222951
-0.013222939
-0.013222938
-0.013222938
-0.013222953
-0.013222958
-0.013222954
-0.013223031
-0.013223006
-0.01322297
-0.013222922
-0.013222907
-0.013222898
-0.01322289
-0.013222909
-0.013222919
-0.013222911
-0.013222968
-0.013222951
-0.013222922
-0.013222872
-0.01322285
-0.013222828
-0.013222809
-0.013222825
-0.01322284
-0.013222839
-0.01322295
-0.013222939
-0.013222907
-0.01322285
-0.013222816
-0.01322278
-0.013222749
-0.013222755
-0.013222766
-0.013222766
-0.013222954
-0.013222938
-0.013222898
-0.013222828
-0.01322278
-0.013222732
-0.01322269
-0.01322269
-0.013222699
-0.013222701
-0.013222957
-0.013222938
-0.01322289
-0.013222809
-0.013222749
-0.01322269
-0.013222644
-0.013222645
-0.013222661
-0.013222673
-0.013222968
-0.013222953
-0.013222909
-0.013222825
-0.013222755
-0.01322269
-0.013222645
-0.013222655
-0.013222682
-0.013222702
-0.013222977
-0.013222958
-0.013222919
-0.01322284
-0.013222766
-0.013222699
-0.013222661
-0.013222682
-0.013222713
-0.01322271
-0.013222988
-0.013222954
-0.013222911
-0.013222839
-0.013222766
-0.013222701
-0.013222673
-0.013222702
-0.01322271
-0.013222716
-0.012569325
-0.012569309
-0.012569288
-0.012569222
-0.012569199
-0.0125692
-0.012569202
-0.012569211
-0.01256922
-0.012569231
-0.012569309
-0.012569306
-0.012569262
-0.012569202
-0.012569187
-0.012569183
-0.01256918
-0.012569194
-0.012569199
-0.012569195
-0.012569288
-0.012569262
-0.012569223
-0.012569171
-0.012569152
-0.012569139
-0.012569129
-0.012569147
-0.012569156
-0.012569148
-0.012569222
-0.012569202
-0.012569171
-0.012569117
-0.01256909
-0.012569064
-0.012569043
-0.012569057
-0.012569072
-0.012569071
-0.012569199
-0.012569187
-0.012569152
-0.01256909
-0.01256905
-0.01256901
-0.012568975
-0.012568981
-0.012568992
-0.012568992
-0.0125692
-0.012569183
-0.012569139
-0.012569064
-0.01256901
-0.012568957
-0.012568911
-0.01256891
-0.01256892
-0.012568922
-0.012569202
-0.01256918
-0.012569129
-0.012569043
-0.012568975
-0.012568911
-0.012568861
-0.012568862
-0.012568878
-0.012568891
-0.012569211
-0.012569194
-0.012569147
-0.012569057
-0.012568981
-0.01256891
-0.012568862
-0.012568872
-0.012568901
-0.012568921
-0.01256922
-0.012569199
-0.012569156
-0.012569072
-0.012568992
-0.01256892
-0.012568878
-0.012568901
-0.012568933
-0.01256893
-0.012569231
-0.012569195
-0.012569148
-0.012569071
-0.012568992
-0.012568922
-0.012568891
-0.012568921
-0.01256893
-0.012568936
-0.01175839
-0.011758373
-0.01175835
-0.01175828
-0.011758253
-0.011758251
-0.01175825
-0.011758259
-0.011758268
-0.011758278
-0.011758373
-0.011758369
-0.011758322
-0.011758259
-0.011758239
-0.011758232
-0.011758227
-0.01175824
-0.011758244
-0.01175824
-0.01175835
-0.011758322
-0.011758281
-0.011758225
-0.011758201
-0.011758185
-0.011758172
-0.011758189
-0.011758198
-0.01175819
-0.01175828
-0.011758259
-0.011758225
-0.011758167
-0.011758135
-0.011758105
-0.011758081
-0.011758095
-0.011758108
-0.011758107
-0.011758253
-0.011758239
-0.011758201
-0.011758135
-0.011758089
-0.011758044
-0.011758007
-0.011758012
-0.011758022
-0.011758022
-0.011758251
-0.011758232
-0.011758185
-0.011758105
-0.011758044
-0.011757986
-0.011757937
-0.011757935
-0.011757945
-0.011757948
-0.01175825
-0.011758227
-0.011758172
-0.011758081
-0.011758007
-0.011757937
-0.011757883
-0.011757884
-0.0117579
-0.011757915
-0.011758259
-0.01175824
-0.011758189
-0.011758095
-0.011758012
-0.011757935
-0.011757884
-0.011757894
-0.011757924
-0.011757946
-0.011758268
-0.011758244
-0.011758198
-0.011758108
-0.011758022
-0.011757945
-0.0117579
-0.011757924
-0.011757957
-0.011757954
-0.011758278
-0.01175824
-0.01175819
-0.011758107
-0.011758022
-0.011757948
-0.011757915
-0.011757946
-0.011757954
-0.011757962
-0.010782366
-0.010782348
-0.010782322
-0.01078225
-0.010782218
-0.010782213
-0.01078221
-0.010782217
-0.010782225
-0.010782235
-0.010782348
-0.010782342
-0.010782294
-0.010782226
-0.010782202
-0.010782192
-0.010782184
-0.010782196
-0.0107822
-0.010782196
-0.010782322
-0.010782294
-0.010782249
-0.010782189
-0.010782161
-0.010782141
-0.010782126
-0.010782142
-0.01078215
-0.010782142
-0.01078225
-0.010782226
-0.010782189
-0.010782128
-0.01078209
-0.010782056
-0.01078203
-0.010782043
-0.010782056
-0.010782055
-0.010782218
-0.010782202
-0.010782161
-0.01078209
-0.010782039
-0.01078199
-0.010781949
-0.010781953
-0.010781964
-0.010781964
-0.010782213
-0.010782192
-0.010782141
-0.010782056
-0.01078199
-0.010781926
-0.010781874
-0.010781872
-0.010781881
-0.010781885
-0.01078221
-0.010782184
-0.010782126
-0.01078203
-0.010781949
-0.010781874
-0.010781818
-0.010781817
-0.010781835
-0.010781851
-0.010782217
-0.010782196
-0.010782142
-0.010782043
-0.010781953
-0.010781872
-0.010781817
-0.010781828
-0.010781859
-0.010781883
-0.010782225
-0.0107822
-0.01078215
-0.010782056
-0.010781964
-0.010781881
-0.010781835
-0.010781859
-0.010781893
-0.010781891
-0.010782235
-0.010782196
-0.010782142
-0.010782055
-0.010781964
-0.010781885
-0.010781851
-0.010781883
-0.010781891
-0.010781899
-0.009634616
-0.0096345971
-0.0096345688
-0.0096344941
-0.0096344578
-0.0096344495
-0.0096344442
-0.00963445
-0.0096344578
-0.0096344664
-0.0096345971
-0.0096345901
-0.0096345393
-0.0096344688
-0.0096344395
-0.0096344263
-0.0096344164
-0.0096344272
-0.0096344304
-0.0096344267
-0.0096345688
-0.0096345393
-0.0096344924
-0.0096344288
-0.009634396
-0.0096343722
-0.0096343552
-0.0096343695
-0.0096343766
-0.0096343684
-0.0096344941
-0.0096344688
-0.0096344288
-0.0096343637
-0.0096343212
-0.0096342831
-0.0096342543
-0.0096342662
-0.0096342785
-0.0096342773
-0.0096344578
-0.0096344395
-0.009634396
-0.0096343212
-0.0096342646
-0.0096342108
-0.0096341677
-0.0096341709
-0.0096341809
-0.0096341813
-0.0096344495
-0.0096344263
-0.0096343722
-0.0096342831
-0.0096342108
-0.0096341423
-0.0096340878
-0.0096340845
-0.0096340936
-0.0096340982
-0.0096344442
-0.0096344164
-0.0096343552
-0.0096342543
-0.0096341677
-0.0096340878
-0.0096340284
-0.0096340276
-0.0096340457
-0.0096340632
-0.00963445
-0.0096344272
-0.0096343695
-0.0096342662
-0.0096341709
-0.0096340845
-0.0096340276
-0.0096340382
-0.0096340706
-0.0096340952
-0.0096344578
-0.0096344304
-0.0096343766
-0.0096342785
-0.0096341809
-0.0096340936
-0.0096340457
-0.0096340706
-0.0096341056
-0.0096341039
-0.0096344664
-0.0096344267
-0.0096343684
-0.0096342773
-0.0096341813
-0.0096340982
-0.0096340632
-0.0096340952
-0.0096341039
-0.0096341132
-0.0083101723
-0.0083101524
-0.0083101216
-0.0083100449
-0.0083100038
-0.0083099926
-0.0083099851
-0.0083099895
-0.0083099967
-0.0083100043
-0.0083101524
-0.0083101438
-0.0083100912
-0.0083100175
-0.0083099837
-0.0083099673
-0.0083099553
-0.0083099646
-0.0083099675
-0.0083099638
-0.0083101216
-0.0083100912
-0.0083100418
-0.0083099749
-0.0083099375
-0.0083099103
-0.0083098911
-0.0083099039
-0.00830991
-0.008309902
-0.0083100449
-0.0083100175
-0.0083099749
-0.0083099064
-0.0083098589
-0.0083098171
-0.0083097861
-0.0083097969
-0.0083098083
-0.008309807
-0.0083100038
-0.0083099837
-0.0083099375
-0.0083098589
-0.0083097969
-0.008309739
-0.0083096935
-0.0083096958
-0.0083097054
-0.0083097063
-0.0083099926
-0.0083099673
-0.0083099103
-0.0083098171
-0.008309739
-0.0083096661
-0.0083096091
-0.008309605
-0.0083096141
-0.0083096196
-0.0083099851
-0.0083099553
-0.0083098911
-0.0083097861
-0.0083096935
-0.0083096091
-0.0083095474
-0.0083095462
-0.0083095648
-0.0083095839
-0.0083099895
-0.0083099646
-0.0083099039
-0.0083097969
-0.0083096958
-0.008309605
-0.0083095462
-0.0083095569
-0.0083095903
-0.008309616
-0.0083099967
-0.0083099675
-0.00830991
-0.0083098083
-0.0083097054
-0.0083096141
-0.0083095648
-0.0083095903
-0.008309626
-0.008309625
-0.0083100043
-0.0083099638
-0.008309902
-0.008309807
-0.0083097063
-0.0083096196
-0.0083095839
-0.008309616
-0.008309625
-0.0083096353
-0.0068062398
-0.0068062189
-0.0068061856
-0.0068061074
-0.0068060616
-0.0068060475
-0.0068060379
-0.0068060409
-0.0068060473
-0.0068060539
-0.0068062189
-0.0068062086
-0.0068061545
-0.0068060778
-0.0068060396
-0.0068060203
-0.0068060061
-0.0068060138
-0.0068060163
-0.0068060129
-0.0068061856
-0.0068061545
-0.0068061027
-0.0068060329
-0.0068059909
-0.0068059606
-0.0068059393
-0.0068059504
-0.0068059555
-0.0068059477
-0.0068061074
-0.0068060778
-0.0068060329
-0.0068059614
-0.0068059089
-0.0068058638
-0.0068058308
-0.0068058403
-0.0068058507
-0.0068058495
-0.0068060616
-0.0068060396
-0.0068059909
-0.0068059089
-0.0068058418
-0.0068057801
-0.0068057327
-0.0068057339
-0.0068057431
-0.0068057446
-0.0068060475
-0.0068060203
-0.0068059606
-0.0068058638
-0.0068057801
-0.0068057033
-0.0068056442
-0.0068056393
-0.0068056483
-0.0068056549
-0.0068060379
-0.0068060061
-0.0068059393
-0.0068058308
-0.0068057327
-0.0068056442
-0.0068055807
-0.006805579
-0.006805598
-0.0068056186
-0.0068060409
-0.0068060138
-0.0068059504
-0.0068058403
-0.0068057339
-0.0068056393
-0.006805579
-0.0068055899
-0.006805624
-0.0068056508
-0.0068060473
-0.0068060163
-0.0068059555
-0.0068058507
-0.0068057431
-0.0068056483
-0.006805598
-0.006805624
-0.0068056603
-0.0068056602
-0.0068060539
-0.0068060129
-0.0068059477
-0.0068058495
-0.0068057446
-0.0068056549
-0.0068056186
-0.0068056508
-0.0068056602
-0.0068056715
-0.0051228204
-0.0051227985
-0.005122763
-0.0051226837
-0.0051226333
-0.0051226166
-0.005122605
-0.0051226065
-0.0051226121
-0.0051226176
-0.0051227985
-0.0051227867
-0.0051227313
-0.0051226519
-0.0051226096
-0.0051225876
-0.0051225714
-0.0051225775
-0.0051225796
-0.0051225764
-0.005122763
-0.0051227313
-0.0051226774
-0.005122605
-0.0051225588
-0.0051225256
-0.0051225024
-0.0051225117
-0.0051225157
-0.0051225083
-0.0051226837
-0.0051226519
-0.005122605
-0.0051225309
-0.005122474
-0.0051224258
-0.0051223911
-0.0051223991
-0.0051224085
-0.0051224074
-0.0051226333
-0.0051226096
-0.0051225588
-0.005122474
-0.0051224019
-0.005122337
-0.0051222879
-0.0051222881
-0.0051222968
-0.0051222989
-0.0051226166
-0.0051225876
-0.0051225256
-0.0051224258
-0.005122337
-0.0051222567
-0.005122196
-0.0051221902
-0.0051221991
-0.0051222068
-0.005122605
-0.0051225714
-0.0051225024
-0.0051223911
-0.0051222879
-0.005122196
-0.005122131
-0.0051221289
-0.0051221483
-0.0051221704
-0.0051226065
-0.0051225775
-0.0051225117
-0.0051223991
-0.0051222881
-0.0051221902
-0.0051221289
-0.0051221399
-0.0051221747
-0.0051222024
-0.0051226121
-0.0051225796
-0.0051225157
-0.0051224085
-0.0051222968
-0.0051221991
-0.0051221483
-0.0051221747
-0.0051222113
-0.0051222122
-0.0051226176
-0.0051225764
-0.0051225083
-0.0051224074
-0.0051222989
-0.0051222068
-0.0051221704
-0.0051222024
-0.0051222122
-0.0051222246
-0.0032634749
-0.0032634523
-0.0032634148
-0.0032633349
-0.0032632802
-0.0032632613
-0.0032632478
-0.0032632477
-0.0032632525
-0.0032632568
-0.0032634523
-0.003263439
-0.0032633827
-0.0032633012
-0.003263255
-0.0032632307
-0.0032632126
-0.0032632169
-0.0032632186
-0.0032632158
-0.0032634148
-0.0032633827
-0.0032633269
-0.0032632526
-0.0032632025