/*--------------------------------*- C++ -*----------------------------------*\
| =========                 |                                                 |
| \\      /  F ield         | OpenFOAM: The Open Source CFD Toolbox           |
|  \\    /   O peration     | Version:  v2106                                 |
|   \\  /    A nd           | Website:  www.openfoam.com                      |
|    \\/     M anipulation  |                                                 |
\*---------------------------------------------------------------------------*/
FoamFile
{
    version     2.0;
    format      ascii;
    arch        "LSB;label=32;scalar=64";
    class       volScalarField;
    location    "50";
    object      Tmode3;
}
// * * * * * * * * * * * * * * * * * * * * * * * * * * * * * * * * * * * * * //

dimensions      [0 0 0 0 0 0 0];

internalField   nonuniform List<scalar> 
500
(
0.036808979
0.036809044
0.036809064
0.036809007
0.036808977
0.036809044
0.036809116
0.036809097
0.03680904
0.036809006
0.036809064
0.036809097
0.03680908
0.036809034
0.036809005
0.036809007
0.03680904
0.036809034
0.036809006
0.03680899
0.036808977
0.036809006
0.036809005
0.03680899
0.036808977
0.023705469
0.023705617
0.023705633
0.023705491
0.023705405
0.023705617
0.023705756
0.023705703
0.023705562
0.023705464
0.023705633
0.023705703
0.023705664
0.023705554
0.02370547
0.023705491
0.023705562
0.023705554
0.023705493
0.023705437
0.023705405
0.023705464
0.02370547
0.023705437
0.023705383
0.011316088
0.011316283
0.011316279
0.011316069
0.011315932
0.011316283
0.011316463
0.011316382
0.011316176
0.011316017
0.011316279
0.011316382
0.011316334
0.011316181
0.011316043
0.011316069
0.011316176
0.011316181
0.0113161
0.011315996
0.011315932
0.011316017
0.011316043
0.011315996
0.011315886
0.00011516664
0.000115401
0.00011538768
0.00011512418
0.00011494315
0.000115401
0.00011561972
0.00011552798
0.00011527552
0.00011506285
0.00011538768
0.00011552798
0.00011549113
0.00011531161
0.00011512187
0.00011512418
0.00011527552
0.00011531161
0.00011521914
0.00011505992
0.00011494315
0.00011506285
0.00011512187
0.00011505992
0.00011489064
-0.0094284556
-0.0094281804
-0.0094281905
-0.0094284892
-0.0094287047
-0.0094281804
-0.0094279205
-0.0094280067
-0.0094282882
-0.009428545
-0.0094281905
-0.0094280067
-0.009428016
-0.0094282077
-0.0094284425
-0.0094284892
-0.0094282882
-0.0094282077
-0.009428301
-0.0094285154
-0.0094287047
-0.009428545
-0.0094284425
-0.0094285154
-0.0094287427
-0.016860046
-0.01685973
-0.016859729
-0.016860047
-0.016860288
-0.01685973
-0.016859429
-0.016859497
-0.016859793
-0.016860085
-0.016859729
-0.016859497
-0.016859468
-0.016859659
-0.016859932
-0.016860047
-0.016859793
-0.016859659
-0.016859745
-0.016860011
-0.016860288
-0.016860085
-0.016859932
-0.016860011
-0.016860292
-0.021754861
-0.021754505
-0.021754487
-0.02175481
-0.021755067
-0.021754505
-0.021754166
-0.021754207
-0.021754501
-0.021754819
-0.021754487
-0.021754207
-0.021754129
-0.021754308
-0.021754611
-0.02175481
-0.021754501
-0.021754308
-0.021754378
-0.021754691
-0.021755067
-0.021754819
-0.021754611
-0.021754691
-0.021755022
-0.023744609
-0.023744216
-0.023744181
-0.02374449
-0.023744754
-0.023744216
-0.023743844
-0.02374385
-0.023744126
-0.02374446
-0.023744181
-0.02374385
-0.023743718
-0.023743872
-0.023744197
-0.02374449
-0.023744126
-0.023743872
-0.023743919
-0.023744273
-0.023744754
-0.02374446
-0.023744197
-0.023744273
-0.023744649
-0.022558931
-0.022558503
-0.022558452
-0.022558729
-0.02255899
-0.022558503
-0.022558108
-0.022558072
-0.022558312
-0.02255865
-0.022558452
-0.022558072
-0.022557883
-0.022557999
-0.022558337
-0.022558729
-0.022558312
-0.022557999
-0.022558017
-0.022558407
-0.02255899
-0.02255865
-0.022558337
-0.022558407
-0.02255882
-0.018087551
-0.018087094
-0.018087032
-0.018087259
-0.018087507
-0.018087094
-0.018086688
-0.018086609
-0.018086794
-0.018087127
-0.018087032
-0.018086609
-0.018086366
-0.018086432
-0.018086773
-0.018087259
-0.018086794
-0.018086432
-0.018086418
-0.018086835
-0.018087507
-0.018087127
-0.018086773
-0.018086835
-0.01808728
-0.010470106
-0.010469627
-0.010469564
-0.010469726
-0.010469952
-0.010469627
-0.010469225
-0.01046911
-0.010469226
-0.010469541
-0.010469564
-0.01046911
-0.010468827
-0.010468834
-0.010469166
-0.010469726
-0.010469226
-0.010468834
-0.010468787
-0.010469222
-0.010469952
-0.010469541
-0.010469166
-0.010469222
-0.010469689
-0.00022131811
-0.00022082955
-0.00022077949
-0.00022086887
-0.00022106734
-0.00022082955
-0.00022045072
-0.00022031582
-0.00022035321
-0.00022064195
-0.00022077949
-0.00022031582
-0.00022001706
-0.00021996212
-0.00022027276
-0.00022086887
-0.00022035321
-0.00021996212
-0.00021988668
-0.00022032508
-0.00022106734
-0.00022064195
-0.00022027276
-0.00022032508
-0.00022080194
0.011602545
0.011603026
0.011603047
0.011603027
0.011602858
0.011603026
0.011603362
0.011603491
0.011603529
0.011603274
0.011603047
0.011603491
0.011603771
0.01160388
0.011603604
0.011603027
0.011603529
0.01160388
0.011603975
0.011603554
0.011602858
0.011603274
0.011603604
0.011603554
0.011603085
0.023199241
0.023199689
0.023199673
0.023199706
0.023199564
0.023199689
0.023199967
0.023200064
0.023200162
0.023199945
0.023199673
0.023200064
0.023200286
0.023200433
0.023200205
0.023199706
0.023200162
0.023200433
0.023200537
0.023200161
0.023199564
0.023199945
0.023200205
0.023200161
0.023199724
0.031810409
0.031810798
0.031810747
0.031810811
0.031810691
0.031810798
0.031811012
0.031811059
0.031811192
0.031811014
0.031810747
0.031811059
0.031811198
0.031811364
0.031811193
0.031810811
0.031811192
0.031811364
0.031811474
0.031811175
0.031810691
0.031811014
0.031811193
0.031811175
0.031810796
0.033614539
0.033614843
0.033614779
0.033614856
0.033614755
0.033614843
0.033614997
0.033615003
0.033615152
0.033615012
0.033614779
0.033615003
0.033615065
0.03361524
0.03361513
0.033614856
0.033615152
0.03361524
0.033615368
0.033615171
0.033614755
0.033615012
0.03361513
0.033615171
0.033614871
0.024013306
0.024013507
0.024013459
0.024013543
0.024013464
0.024013507
0.024013606
0.024013601
0.024013755
0.024013652
0.024013459
0.024013601
0.024013622
0.024013806
0.024013749
0.024013543
0.024013755
0.024013806
0.024013974
0.02401388
0.024013464
0.024013652
0.024013749
0.02401388
0.024013647
-0.0010128614
-0.0010127704
-0.0010127893
-0.0010126971
-0.0010127487
-0.0010127704
-0.0010127296
-0.0010127235
-0.0010125684
-0.0010126383
-0.0010127893
-0.0010127235
-0.001012706
-0.0010125134
-0.0010125343
-0.0010126971
-0.0010125684
-0.0010125134
-0.0010123016
-0.0010123225
-0.0010127487
-0.0010126383
-0.0010125343
-0.0010123225
-0.0010125236
-0.04113951
-0.041139511
-0.041139509
-0.04113942
-0.041139443
-0.041139511
-0.041139524
-0.041139512
-0.041139374
-0.041139411
-0.041139509
-0.041139512
-0.04113949
-0.041139316
-0.041139315
-0.04113942
-0.041139374
-0.041139316
-0.041139106
-0.041139096
-0.041139443
-0.041139411
-0.041139315
-0.041139096
-0.041139292
-0.084020068
-0.08402009
-0.084020087
-0.084020035
-0.084020038
-0.08402009
-0.084020115
-0.08402011
-0.084020034
-0.084020041
-0.084020087
-0.08402011
-0.084020097
-0.084020003
-0.08401999
-0.084020035
-0.084020034
-0.084020003
-0.084019887
-0.084019871
-0.084020038
-0.084020041
-0.08401999
-0.084019871
-0.084020009
)
;

boundaryField
{
    wall_minX
    {
        type            calculated;
        value           nonuniform List<scalar> 
100
(
0.036808979
0.036809044
0.036809064
0.036809007
0.036808977
0.023705469
0.023705617
0.023705633
0.023705491
0.023705405
0.011316088
0.011316283
0.011316279
0.011316069
0.011315932
0.00011516664
0.000115401
0.00011538768
0.00011512418
0.00011494315
-0.0094284556
-0.0094281804
-0.0094281905
-0.0094284892
-0.0094287047
-0.016860046
-0.01685973
-0.016859729
-0.016860047
-0.016860288
-0.021754861
-0.021754505
-0.021754487
-0.02175481
-0.021755067
-0.023744609
-0.023744216
-0.023744181
-0.02374449
-0.023744754
-0.022558931
-0.022558503
-0.022558452
-0.022558729
-0.02255899
-0.018087551
-0.018087094
-0.018087032
-0.018087259
-0.018087507
-0.010470106
-0.010469627
-0.010469564
-0.010469726
-0.010469952
-0.00022131811
-0.00022082955
-0.00022077949
-0.00022086887
-0.00022106734
0.011602545
0.011603026
0.011603047
0.011603027
0.011602858
0.023199241
0.023199689
0.023199673
0.023199706
0.023199564
0.031810409
0.031810798
0.031810747
0.031810811
0.031810691
0.033614539
0.033614843
0.033614779
0.033614856
0.033614755
0.024013306
0.024013507
0.024013459
0.024013543
0.024013464
-0.0010128614
-0.0010127704
-0.0010127893
-0.0010126971
-0.0010127487
-0.04113951
-0.041139511
-0.041139509
-0.04113942
-0.041139443
-0.084020068
-0.08402009
-0.084020087
-0.084020035
-0.084020038
)
;
    }
    wall_maxX
    {
        type            calculated;
        value           nonuniform List<scalar> 
100
(
0.036808977
0.036809006
0.036809005
0.03680899
0.036808977
0.023705405
0.023705464
0.02370547
0.023705437
0.023705383
0.011315932
0.011316017
0.011316043
0.011315996
0.011315886
0.00011494315
0.00011506285
0.00011512187
0.00011505992
0.00011489064
-0.0094287047
-0.009428545
-0.0094284425
-0.0094285154
-0.0094287427
-0.016860288
-0.016860085
-0.016859932
-0.016860011
-0.016860292
-0.021755067
-0.021754819
-0.021754611
-0.021754691
-0.021755022
-0.023744754
-0.02374446
-0.023744197
-0.023744273
-0.023744649
-0.02255899
-0.02255865
-0.022558337
-0.022558407
-0.02255882
-0.018087507
-0.018087127
-0.018086773
-0.018086835
-0.01808728
-0.010469952
-0.010469541
-0.010469166
-0.010469222
-0.010469689
-0.00022106734
-0.00022064195
-0.00022027276
-0.00022032508
-0.00022080194
0.011602858
0.011603274
0.011603604
0.011603554
0.011603085
0.023199564
0.023199945
0.023200205
0.023200161
0.023199724
0.031810691
0.031811014
0.031811193
0.031811175
0.031810796
0.033614755
0.033615012
0.03361513
0.033615171
0.033614871
0.024013464
0.024013652
0.024013749
0.02401388
0.024013647
-0.0010127487
-0.0010126383
-0.0010125343
-0.0010123225
-0.0010125236
-0.041139443
-0.041139411
-0.041139315
-0.041139096
-0.041139292
-0.084020038
-0.084020041
-0.08401999
-0.084019871
-0.084020009
)
;
    }
    wall_minY
    {
        type            calculated;
        value           nonuniform List<scalar> 
100
(
0.036808979
0.023705469
0.011316088
0.00011516664
-0.0094284556
-0.016860046
-0.021754861
-0.023744609
-0.022558931
-0.018087551
-0.010470106
-0.00022131811
0.011602545
0.023199241
0.031810409
0.033614539
0.024013306
-0.0010128614
-0.04113951
-0.084020068
0.036809044
0.023705617
0.011316283
0.000115401
-0.0094281804
-0.01685973
-0.021754505
-0.023744216
-0.022558503
-0.018087094
-0.010469627
-0.00022082955
0.011603026
0.023199689
0.031810798
0.033614843
0.024013507
-0.0010127704
-0.041139511
-0.08402009
0.036809064
0.023705633
0.011316279
0.00011538768
-0.0094281905
-0.016859729
-0.021754487
-0.023744181
-0.022558452
-0.018087032
-0.010469564
-0.00022077949
0.011603047
0.023199673
0.031810747
0.033614779
0.024013459
-0.0010127893
-0.041139509
-0.084020087
0.036809007
0.023705491
0.011316069
0.00011512418
-0.0094284892
-0.016860047
-0.02175481
-0.02374449
-0.022558729
-0.018087259
-0.010469726
-0.00022086887
0.011603027
0.023199706
0.031810811
0.033614856
0.024013543
-0.0010126971
-0.04113942
-0.084020035
0.036808977
0.023705405
0.011315932
0.00011494315
-0.0094287047
-0.016860288
-0.021755067
-0.023744754
-0.02255899
-0.018087507
-0.010469952
-0.00022106734
0.011602858
0.023199564
0.031810691
0.033614755
0.024013464
-0.0010127487
-0.041139443
-0.084020038
)
;
    }
    wall_maxY
    {
        type            calculated;
        value           nonuniform List<scalar> 
100
(
0.036808977
0.023705405
0.011315932
0.00011494315
-0.0094287047
-0.016860288
-0.021755067
-0.023744754
-0.02255899
-0.018087507
-0.010469952
-0.00022106734
0.011602858
0.023199564
0.031810691
0.033614755
0.024013464
-0.0010127487
-0.041139443
-0.084020038
0.036809006
0.023705464
0.011316017
0.00011506285
-0.009428545
-0.016860085
-0.021754819
-0.02374446
-0.02255865
-0.018087127
-0.010469541
-0.00022064195
0.011603274
0.023199945
0.031811014
0.033615012
0.024013652
-0.0010126383
-0.041139411
-0.084020041
0.036809005
0.02370547
0.011316043
0.00011512187
-0.0094284425
-0.016859932
-0.021754611
-0.023744197
-0.022558337
-0.018086773
-0.010469166
-0.00022027276
0.011603604
0.023200205
0.031811193
0.03361513
0.024013749
-0.0010125343
-0.041139315
-0.08401999
0.03680899
0.023705437
0.011315996
0.00011505992
-0.0094285154
-0.016860011
-0.021754691
-0.023744273
-0.022558407
-0.018086835
-0.010469222
-0.00022032508
0.011603554
0.023200161
0.031811175
0.033615171
0.02401388
-0.0010123225
-0.041139096
-0.084019871
0.036808977
0.023705383
0.011315886
0.00011489064
-0.0094287427
-0.016860292
-0.021755022
-0.023744649
-0.02255882
-0.01808728
-0.010469689
-0.00022080194
0.011603085
0.023199724
0.031810796
0.033614871
0.024013647
-0.0010125236
-0.041139292
-0.084020009
)
;
    }
    inlet_minZ
    {
        type            calculated;
        value           uniform 0.043479813;
    }
    outlet_maxZ
    {
        type            calculated;
        value           uniform 0.091259827;
    }
}


// ************************************************************************* //
