/*--------------------------------*- C++ -*----------------------------------*\
| =========                 |                                                 |
| \\      /  F ield         | OpenFOAM: The Open Source CFD Toolbox           |
|  \\    /   O peration     | Version:  v2106                                 |
|   \\  /    A nd           | Website:  www.openfoam.com                      |
|    \\/     M anipulation  |                                                 |
\*---------------------------------------------------------------------------*/
FoamFile
{
    version     2.0;
    format      ascii;
    arch        "LSB;label=32;scalar=64";
    class       volScalarField;
    location    "50";
    object      Tmode_lapla1;
}
// * * * * * * * * * * * * * * * * * * * * * * * * * * * * * * * * * * * * * //

dimensions      [0 -2 0 0 0 0 0];

internalField   nonuniform List<scalar> 
500
(
0.10745527
0.10749814
0.10733354
0.10740457
0.10740991
0.10749814
0.10730575
0.10729045
0.10735072
0.10737059
0.10733354
0.10729045
0.10724309
0.10729662
0.10734
0.10740457
0.10735072
0.10729662
0.10733208
0.10735618
0.10740991
0.10737059
0.10734
0.10735618
0.10738165
0.32682648
0.32685551
0.32659153
0.32672518
0.3267389
0.32685551
0.32655678
0.32652883
0.32665342
0.32670571
0.32659153
0.32652883
0.32643718
0.32654761
0.32664855
0.32672518
0.32665342
0.32654761
0.32661562
0.32668104
0.3267389
0.32670571
0.32664855
0.32668104
0.32675888
0.55989553
0.55989239
0.5595777
0.55977137
0.55978471
0.55989239
0.55948318
0.55946347
0.55966797
0.559761
0.5595777
0.55946347
0.55934331
0.55951891
0.55967505
0.55977137
0.55966797
0.55951891
0.55963162
0.55975186
0.55978471
0.559761
0.55967505
0.55975186
0.55985636
0.81614641
0.81613209
0.81575105
0.81601621
0.81604647
0.81613209
0.81562795
0.81560371
0.81589091
0.81602729
0.81575105
0.81560371
0.81544146
0.81568716
0.81590536
0.81601621
0.81589091
0.81568716
0.81584932
0.81604893
0.81604647
0.81602729
0.81590536
0.81604893
0.8161625
1.1056485
1.1056252
1.105172
1.1055093
1.1055518
1.1056252
1.1050265
1.1049996
1.1053693
1.1055407
1.105172
1.1049996
1.1047927
1.1051061
1.1053773
1.1055093
1.1053693
1.1051061
1.1053121
1.1055899
1.1055518
1.1055407
1.1053773
1.1055899
1.1057068
1.4391892
1.4391654
1.4386378
1.4390538
1.4391043
1.4391654
1.4384762
1.4384525
1.4389088
1.439107
1.4386378
1.4384525
1.438201
1.4385829
1.438898
1.4390538
1.4389088
1.4385829
1.4388296
1.4391782
1.4391043
1.439107
1.438898
1.4391782
1.4392923
1.8286098
1.8285971
1.8279921
1.8284949
1.8285476
1.8285971
1.8278228
1.8278075
1.8283554
1.8285705
1.8279921
1.8278075
1.8275104
1.8279619
1.8283102
1.8284949
1.8283554
1.8279619
1.8282459
1.8286559
1.8285476
1.8285705
1.8283102
1.8286559
1.8287605
2.2870927
2.2871049
2.2864181
2.2870157
2.2870638
2.2871049
2.2862515
2.2862476
2.2868924
2.2871132
2.2864181
2.2862476
2.2859014
2.2864233
2.2867939
2.2870157
2.2868924
2.2864233
2.2867403
2.2872029
2.2870638
2.2871132
2.2867939
2.2872029
2.2872911
2.8294977
2.8295499
2.8287765
2.8294753
2.8295113
2.8295499
2.828625
2.8286319
2.829378
2.8295929
2.8287765
2.8286319
2.8282296
2.8288218
2.8292041
2.8294753
2.829378
2.8288218
2.8291664
2.8296748
2.8295113
2.8295929
2.8292041
2.8296748
2.8297406
3.4727272
3.4728341
3.4719706
3.4727728
3.472789
3.4728341
3.4718484
3.471859
3.4727091
3.4729069
3.4719706
3.471859
3.47139
3.4720507
3.4724359
3.4727728
3.4727091
3.4720507
3.4724158
3.4729674
3.472789
3.4729069
3.4724359
3.4729674
3.4730067
4.2360355
4.2362087
4.2352564
4.2361566
4.2361458
4.2362087
4.235179
4.2351782
4.2361298
4.2363015
4.2352564
4.2351782
4.2346273
4.2353512
4.2357337
4.2361566
4.2361298
4.2353512
4.2357276
4.2363263
4.2361458
4.2363015
4.2357337
4.2363263
4.2363381
5.1409863
5.1412297
5.1402008
5.1411801
5.1411371
5.1412297
5.1401836
5.1401465
5.1411881
5.1413275
5.1402008
5.1401465
5.1394957
5.1402707
5.140649
5.1411801
5.1411881
5.1402707
5.140646
5.1413044
5.1411371
5.1413275
5.140649
5.1413044
5.1412916
6.2101339
6.2104385
6.2093634
6.2103844
6.2103069
6.2104385
6.2094192
6.2093127
6.2104178
6.210523
6.2093634
6.2093127
6.2085444
6.2093482
6.2097245
6.2103844
6.2104178
6.2093482
6.2097057
6.2104457
6.2103069
6.210523
6.2097245
6.2104457
6.2104144
7.4620149
7.4623534
7.461288
7.4622909
7.4621802
7.4623534
7.4614226
7.4612112
7.4623325
7.4624053
7.461288
7.4612112
7.460315
7.4611108
7.4614877
7.4622909
7.4623325
7.4611108
7.4614292
7.4622786
7.4621802
7.4624053
7.4614877
7.4622786
7.4622363
8.897316
8.8976418
8.8966694
8.8975737
8.8974354
8.8976418
8.8968762
8.8965348
8.8975999
8.8976439
8.8966694
8.8965348
8.895517
8.8962511
8.8966272
8.8975737
8.8975999
8.8962511
8.8965055
8.897491
8.8974354
8.8976439
8.8966272
8.897491
8.8974427
10.468489
10.468741
10.467964
10.468683
10.468526
10.468741
10.468219
10.467754
10.468672
10.46869
10.467964
10.467754
10.466655
10.467262
10.467626
10.468683
10.468672
10.467262
10.467432
10.468567
10.468526
10.46869
10.467626
10.468567
10.468513
12.028814
12.028932
12.028447
12.028919
12.02876
12.028932
12.0287
12.028183
12.028876
12.028871
12.028447
12.028183
12.027105
12.02754
12.027866
12.028919
12.028876
12.02754
12.027634
12.028901
12.02876
12.028871
12.027866
12.028901
12.028837
13.271868
13.271814
13.271649
13.271882
13.271753
13.271814
13.271808
13.271366
13.271822
13.271796
13.271649
13.271366
13.270475
13.270759
13.270991
13.271882
13.271822
13.270759
13.270852
13.272143
13.271753
13.271796
13.270991
13.272143
13.271982
13.603206
13.603004
13.603
13.603074
13.603029
13.603004
13.602917
13.602598
13.602888
13.602848
13.603
13.602598
13.601984
13.602201
13.602256
13.603074
13.602888
13.602201
13.602382
13.603464
13.603029
13.602848
13.602256
13.603464
13.602999
17.752178
17.752093
17.752021
17.752036
17.752151
17.752093
17.751962
17.751714
17.751888
17.752036
17.752021
17.751714
17.751343
17.751487
17.751677
17.752036
17.751888
17.751487
17.751659
17.752654
17.752151
17.752036
17.751677
17.752654
17.752171
)
;

boundaryField
{
    wall_minX
    {
        type            extrapolatedCalculated;
        value           nonuniform List<scalar> 
100
(
0.10745527
0.10749814
0.10733354
0.10740457
0.10740991
0.32682648
0.32685551
0.32659153
0.32672518
0.3267389
0.55989553
0.55989239
0.5595777
0.55977137
0.55978471
0.81614641
0.81613209
0.81575105
0.81601621
0.81604647
1.1056485
1.1056252
1.105172
1.1055093
1.1055518
1.4391892
1.4391654
1.4386378
1.4390538
1.4391043
1.8286098
1.8285971
1.8279921
1.8284949
1.8285476
2.2870927
2.2871049
2.2864181
2.2870157
2.2870638
2.8294977
2.8295499
2.8287765
2.8294753
2.8295113
3.4727272
3.4728341
3.4719706
3.4727728
3.472789
4.2360355
4.2362087
4.2352564
4.2361566
4.2361458
5.1409863
5.1412297
5.1402008
5.1411801
5.1411371
6.2101339
6.2104385
6.2093634
6.2103844
6.2103069
7.4620149
7.4623534
7.461288
7.4622909
7.4621802
8.897316
8.8976418
8.8966694
8.8975737
8.8974354
10.468489
10.468741
10.467964
10.468683
10.468526
12.028814
12.028932
12.028447
12.028919
12.02876
13.271868
13.271814
13.271649
13.271882
13.271753
13.603206
13.603004
13.603
13.603074
13.603029
17.752178
17.752093
17.752021
17.752036
17.752151
)
;
    }
    wall_maxX
    {
        type            extrapolatedCalculated;
        value           nonuniform List<scalar> 
100
(
0.10740991
0.10737059
0.10734
0.10735618
0.10738165
0.3267389
0.32670571
0.32664855
0.32668104
0.32675888
0.55978471
0.559761
0.55967505
0.55975186
0.55985636
0.81604647
0.81602729
0.81590536
0.81604893
0.8161625
1.1055518
1.1055407
1.1053773
1.1055899
1.1057068
1.4391043
1.439107
1.438898
1.4391782
1.4392923
1.8285476
1.8285705
1.8283102
1.8286559
1.8287605
2.2870638
2.2871132
2.2867939
2.2872029
2.2872911
2.8295113
2.8295929
2.8292041
2.8296748
2.8297406
3.472789
3.4729069
3.4724359
3.4729674
3.4730067
4.2361458
4.2363015
4.2357337
4.2363263
4.2363381
5.1411371
5.1413275
5.140649
5.1413044
5.1412916
6.2103069
6.210523
6.2097245
6.2104457
6.2104144
7.4621802
7.4624053
7.4614877
7.4622786
7.4622363
8.8974354
8.8976439
8.8966272
8.897491
8.8974427
10.468526
10.46869
10.467626
10.468567
10.468513
12.02876
12.028871
12.027866
12.028901
12.028837
13.271753
13.271796
13.270991
13.272143
13.271982
13.603029
13.602848
13.602256
13.603464
13.602999
17.752151
17.752036
17.751677
17.752654
17.752171
)
;
    }
    wall_minY
    {
        type            extrapolatedCalculated;
        value           nonuniform List<scalar> 
100
(
0.10745527
0.32682648
0.55989553
0.81614641
1.1056485
1.4391892
1.8286098
2.2870927
2.8294977
3.4727272
4.2360355
5.1409863
6.2101339
7.4620149
8.897316
10.468489
12.028814
13.271868
13.603206
17.752178
0.10749814
0.32685551
0.55989239
0.81613209
1.1056252
1.4391654
1.8285971
2.2871049
2.8295499
3.4728341
4.2362087
5.1412297
6.2104385
7.4623534
8.8976418
10.468741
12.028932
13.271814
13.603004
17.752093
0.10733354
0.32659153
0.5595777
0.81575105
1.105172
1.4386378
1.8279921
2.2864181
2.8287765
3.4719706
4.2352564
5.1402008
6.2093634
7.461288
8.8966694
10.467964
12.028447
13.271649
13.603
17.752021
0.10740457
0.32672518
0.55977137
0.81601621
1.1055093
1.4390538
1.8284949
2.2870157
2.8294753
3.4727728
4.2361566
5.1411801
6.2103844
7.4622909
8.8975737
10.468683
12.028919
13.271882
13.603074
17.752036
0.10740991
0.3267389
0.55978471
0.81604647
1.1055518
1.4391043
1.8285476
2.2870638
2.8295113
3.472789
4.2361458
5.1411371
6.2103069
7.4621802
8.8974354
10.468526
12.02876
13.271753
13.603029
17.752151
)
;
    }
    wall_maxY
    {
        type            extrapolatedCalculated;
        value           nonuniform List<scalar> 
100
(
0.10740991
0.3267389
0.55978471
0.81604647
1.1055518
1.4391043
1.8285476
2.2870638
2.8295113
3.472789
4.2361458
5.1411371
6.2103069
7.4621802
8.8974354
10.468526
12.02876
13.271753
13.603029
17.752151
0.10737059
0.32670571
0.559761
0.81602729
1.1055407
1.439107
1.8285705
2.2871132
2.8295929
3.4729069
4.2363015
5.1413275
6.210523
7.4624053
8.8976439
10.46869
12.028871
13.271796
13.602848
17.752036
0.10734
0.32664855
0.55967505
0.81590536
1.1053773
1.438898
1.8283102
2.2867939
2.8292041
3.4724359
4.2357337
5.140649
6.2097245
7.4614877
8.8966272
10.467626
12.027866
13.270991
13.602256
17.751677
0.10735618
0.32668104
0.55975186
0.81604893
1.1055899
1.4391782
1.8286559
2.2872029
2.8296748
3.4729674
4.2363263
5.1413044
6.2104457
7.4622786
8.897491
10.468567
12.028901
13.272143
13.603464
17.752654
0.10738165
0.32675888
0.55985636
0.8161625
1.1057068
1.4392923
1.8287605
2.2872911
2.8297406
3.4730067
4.2363381
5.1412916
6.2104144
7.4622363
8.8974427
10.468513
12.028837
13.271982
13.602999
17.752171
)
;
    }
    inlet_minZ
    {
        type            extrapolatedCalculated;
        value           nonuniform List<scalar> 
25
(
0.10745527
0.10749814
0.10733354
0.10740457
0.10740991
0.10749814
0.10730575
0.10729045
0.10735072
0.10737059
0.10733354
0.10729045
0.10724309
0.10729662
0.10734
0.10740457
0.10735072
0.10729662
0.10733208
0.10735618
0.10740991
0.10737059
0.10734
0.10735618
0.10738165
)
;
    }
    outlet_maxZ
    {
        type            extrapolatedCalculated;
        value           nonuniform List<scalar> 
25
(
17.752178
17.752093
17.752021
17.752036
17.752151
17.752093
17.751962
17.751714
17.751888
17.752036
17.752021
17.751714
17.751343
17.751487
17.751677
17.752036
17.751888
17.751487
17.751659
17.752654
17.752151
17.752036
17.751677
17.752654
17.752171
)
;
    }
}


// ************************************************************************* //
