/*--------------------------------*- C++ -*----------------------------------*\
| =========                 |                                                 |
| \\      /  F ield         | OpenFOAM: The Open Source CFD Toolbox           |
|  \\    /   O peration     | Version:  v2106                                 |
|   \\  /    A nd           | Website:  www.openfoam.com                      |
|    \\/     M anipulation  |                                                 |
\*---------------------------------------------------------------------------*/
FoamFile
{
    version     2.0;
    format      ascii;
    arch        "LSB;label=32;scalar=64";
    class       volScalarField;
    location    "50";
    object      Tmode4;
}
// * * * * * * * * * * * * * * * * * * * * * * * * * * * * * * * * * * * * * //

dimensions      [0 0 0 0 0 0 0];

internalField   nonuniform List<scalar> 
500
(
0.0061230498
0.0061232472
0.006123233
0.0061231136
0.0061230509
0.0061232472
0.0061233932
0.0061233148
0.0061232006
0.0061231327
0.006123233
0.0061233148
0.006123248
0.0061231634
0.0061231169
0.0061231136
0.0061232006
0.0061231634
0.0061231192
0.0061231002
0.0061230509
0.0061231327
0.0061231169
0.0061231002
0.0061230871
-0.0057620174
-0.0057615789
-0.0057616654
-0.0057619591
-0.0057621441
-0.0057615789
-0.0057612881
-0.0057614784
-0.0057617494
-0.0057619562
-0.0057616654
-0.0057614784
-0.0057616228
-0.0057618082
-0.0057619573
-0.0057619591
-0.0057617494
-0.0057618082
-0.0057618897
-0.0057619788
-0.0057621441
-0.0057619562
-0.0057619573
-0.0057619788
-0.0057620755
-0.016217637
-0.016217061
-0.016217226
-0.016217634
-0.016217932
-0.016217061
-0.016216686
-0.016216946
-0.016217306
-0.016217642
-0.016217226
-0.016216946
-0.01621711
-0.01621733
-0.016217583
-0.016217634
-0.016217306
-0.01621733
-0.016217402
-0.01621759
-0.016217932
-0.016217642
-0.016217583
-0.01621759
-0.016217827
-0.024353137
-0.024352436
-0.024352639
-0.024353097
-0.024353479
-0.024352436
-0.024351976
-0.024352245
-0.024352626
-0.024353067
-0.024352639
-0.024352245
-0.024352366
-0.024352565
-0.024352909
-0.024353097
-0.024352626
-0.024352565
-0.024352592
-0.02435289
-0.024353479
-0.024353067
-0.024352909
-0.02435289
-0.024353284
-0.029379919
-0.029379084
-0.029379285
-0.02937973
-0.029380166
-0.029379084
-0.02937853
-0.029378755
-0.029379097
-0.029379613
-0.029379285
-0.029378755
-0.029378787
-0.029378917
-0.029379335
-0.02937973
-0.029379097
-0.029378917
-0.029378872
-0.02937928
-0.029380166
-0.029379613
-0.029379335
-0.02937928
-0.02937983
-0.030670609
-0.030669635
-0.03066981
-0.030670186
-0.030670646
-0.030669635
-0.030668987
-0.030669129
-0.030669381
-0.030669948
-0.03066981
-0.030669129
-0.030669042
-0.030669067
-0.030669541
-0.030670186
-0.030669381
-0.030669067
-0.03066893
-0.030669442
-0.030670646
-0.030669948
-0.030669541
-0.030669442
-0.030670143
-0.027836001
-0.02783489
-0.027835028
-0.027835279
-0.027835742
-0.02783489
-0.02783416
-0.02783419
-0.027834303
-0.027834897
-0.027835028
-0.02783419
-0.027833968
-0.027833856
-0.027834372
-0.027835279
-0.027834303
-0.027833856
-0.027833618
-0.027834226
-0.027835742
-0.027834897
-0.027834372
-0.027834226
-0.02783507
-0.020823513
-0.020822273
-0.020822376
-0.020822453
-0.020822896
-0.020822273
-0.020821484
-0.020821388
-0.020821317
-0.020821917
-0.020822376
-0.020821388
-0.020821033
-0.02082076
-0.0208213
-0.020822453
-0.020821317
-0.02082076
-0.020820418
-0.020821113
-0.020822896
-0.020821917
-0.0208213
-0.020821113
-0.020822091
-0.010038081
-0.010036729
-0.010036816
-0.010036673
-0.010037079
-0.010036729
-0.010035916
-0.0100357
-0.010035405
-0.010035991
-0.010036816
-0.0100357
-0.010035237
-0.010034786
-0.010035334
-0.010036673
-0.010035405
-0.010034786
-0.010034348
-0.010035117
-0.010037079
-0.010035991
-0.010035334
-0.010035117
-0.010036216
0.0035200735
0.0035215108
0.0035214003
0.0035217939
0.0035214343
0.0035215108
0.0035222936
0.0035226023
0.0035231463
0.0035225899
0.0035214003
0.0035226023
0.0035231157
0.0035237478
0.0035232108
0.0035217939
0.0035231463
0.0035237478
0.0035242615
0.0035234396
0.0035214343
0.0035225899
0.0035232108
0.0035234396
0.0035222401
0.018119331
0.018120811
0.018120623
0.018121275
0.018120962
0.018120811
0.0181215
0.018121841
0.018122637
0.018122123
0.018120623
0.018121841
0.018122314
0.018123112
0.018122609
0.018121275
0.018122637
0.018123112
0.01812367
0.01812283
0.018120962
0.018122123
0.018122609
0.01812283
0.018121563
0.031205225
0.03120669
0.031206364
0.031207254
0.031206975
0.03120669
0.031207217
0.031207505
0.031208529
0.031208063
0.031206364
0.031207505
0.03120782
0.031208748
0.031208305
0.031207254
0.031208529
0.031208748
0.031209312
0.031208507
0.031206975
0.031208063
0.031208305
0.031208507
0.031207225
0.039439972
0.039441352
0.03944084
0.039441914
0.03944165
0.039441352
0.039441661
0.039441805
0.039443001
0.039442587
0.03944084
0.039441805
0.039441836
0.039442841
0.039442492
0.039441914
0.039443001
0.039442841
0.03944338
0.039442689
0.03944165
0.039442587
0.039442492
0.039442689
0.039441464
0.039030921
0.039032143
0.039031443
0.039032627
0.039032353
0.039032143
0.039032217
0.039032151
0.039033448
0.039033086
0.039031443
0.039032151
0.039031814
0.039032843
0.039032621
0.039032627
0.039033448
0.039032843
0.03903335
0.039032867
0.039032353
0.039033086
0.039032621
0.039032867
0.039031786
0.02661508
0.026616086
0.026615258
0.026616474
0.026616174
0.026616086
0.026615961
0.026615681
0.02661701
0.026616702
0.026615258
0.026615681
0.026614977
0.026615998
0.026615926
0.026616474
0.02661701
0.026615998
0.026616507
0.026616315
0.026616174
0.026616702
0.026615926
0.026616315
0.026615443
0.0011159793
0.0011167319
0.0011158977
0.0011170667
0.0011167431
0.0011167319
0.0011164929
0.0011160504
0.0011173511
0.0011170948
0.0011158977
0.0011160504
0.0011150728
0.0011160694
0.0011161324
0.0011170667
0.0011173511
0.0011160694
0.0011166291
0.0011167465
0.0011167431
0.0011170948
0.0011161324
0.0011167465
0.0011160621
-0.032838054
-0.032837576
-0.032838279
-0.032837267
-0.032837604
-0.032837576
-0.032837827
-0.032838391
-0.03283722
-0.032837445
-0.032838279
-0.032838391
-0.032839544
-0.03283864
-0.032838508
-0.032837267
-0.03283722
-0.03283864
-0.032838062
-0.032837713
-0.032837604
-0.032837445
-0.032838508
-0.032837713
-0.032838329
-0.059229669
-0.059229495
-0.05922994
-0.059229219
-0.059229554
-0.059229495
-0.059229661
-0.059230273
-0.059229379
-0.059229579
-0.05922994
-0.059230273
-0.05923147
-0.059230785
-0.059230604
-0.059229219
-0.059229379
-0.059230785
-0.059230286
-0.059229718
-0.059229554
-0.059229579
-0.059230604
-0.059229718
-0.059230207
-0.0424506
-0.042450782
-0.042450956
-0.042450559
-0.042450807
-0.042450782
-0.042450993
-0.042451464
-0.042450889
-0.042451016
-0.042450956
-0.042451464
-0.042452422
-0.042451961
-0.042451772
-0.042450559
-0.042450889
-0.042451961
-0.042451494
-0.042450752
-0.042450807
-0.042451016
-0.042451772
-0.042450752
-0.042450951
0.078966321
0.078966142
0.078966082
0.078966241
0.078966245
0.078966142
0.078965905
0.07896566
0.078965971
0.078966079
0.078966082
0.07896566
0.078965167
0.078965449
0.078965667
0.078966241
0.078965971
0.078965449
0.078965832
0.078966515
0.078966245
0.078966079
0.078965667
0.078966515
0.078966488
)
;

boundaryField
{
    wall_minX
    {
        type            calculated;
        value           nonuniform List<scalar> 
100
(
0.0061230498
0.0061232472
0.006123233
0.0061231136
0.0061230509
-0.0057620174
-0.0057615789
-0.0057616654
-0.0057619591
-0.0057621441
-0.016217637
-0.016217061
-0.016217226
-0.016217634
-0.016217932
-0.024353137
-0.024352436
-0.024352639
-0.024353097
-0.024353479
-0.029379919
-0.029379084
-0.029379285
-0.02937973
-0.029380166
-0.030670609
-0.030669635
-0.03066981
-0.030670186
-0.030670646
-0.027836001
-0.02783489
-0.027835028
-0.027835279
-0.027835742
-0.020823513
-0.020822273
-0.020822376
-0.020822453
-0.020822896
-0.010038081
-0.010036729
-0.010036816
-0.010036673
-0.010037079
0.0035200735
0.0035215108
0.0035214003
0.0035217939
0.0035214343
0.018119331
0.018120811
0.018120623
0.018121275
0.018120962
0.031205225
0.03120669
0.031206364
0.031207254
0.031206975
0.039439972
0.039441352
0.03944084
0.039441914
0.03944165
0.039030921
0.039032143
0.039031443
0.039032627
0.039032353
0.02661508
0.026616086
0.026615258
0.026616474
0.026616174
0.0011159793
0.0011167319
0.0011158977
0.0011170667
0.0011167431
-0.032838054
-0.032837576
-0.032838279
-0.032837267
-0.032837604
-0.059229669
-0.059229495
-0.05922994
-0.059229219
-0.059229554
-0.0424506
-0.042450782
-0.042450956
-0.042450559
-0.042450807
0.078966321
0.078966142
0.078966082
0.078966241
0.078966245
)
;
    }
    wall_maxX
    {
        type            calculated;
        value           nonuniform List<scalar> 
100
(
0.0061230509
0.0061231327
0.0061231169
0.0061231002
0.0061230871
-0.0057621441
-0.0057619562
-0.0057619573
-0.0057619788
-0.0057620755
-0.016217932
-0.016217642
-0.016217583
-0.01621759
-0.016217827
-0.024353479
-0.024353067
-0.024352909
-0.02435289
-0.024353284
-0.029380166
-0.029379613
-0.029379335
-0.02937928
-0.02937983
-0.030670646
-0.030669948
-0.030669541
-0.030669442
-0.030670143
-0.027835742
-0.027834897
-0.027834372
-0.027834226
-0.02783507
-0.020822896
-0.020821917
-0.0208213
-0.020821113
-0.020822091
-0.010037079
-0.010035991
-0.010035334
-0.010035117
-0.010036216
0.0035214343
0.0035225899
0.0035232108
0.0035234396
0.0035222401
0.018120962
0.018122123
0.018122609
0.01812283
0.018121563
0.031206975
0.031208063
0.031208305
0.031208507
0.031207225
0.03944165
0.039442587
0.039442492
0.039442689
0.039441464
0.039032353
0.039033086
0.039032621
0.039032867
0.039031786
0.026616174
0.026616702
0.026615926
0.026616315
0.026615443
0.0011167431
0.0011170948
0.0011161324
0.0011167465
0.0011160621
-0.032837604
-0.032837445
-0.032838508
-0.032837713
-0.032838329
-0.059229554
-0.059229579
-0.059230604
-0.059229718
-0.059230207
-0.042450807
-0.042451016
-0.042451772
-0.042450752
-0.042450951
0.078966245
0.078966079
0.078965667
0.078966515
0.078966488
)
;
    }
    wall_minY
    {
        type            calculated;
        value           nonuniform List<scalar> 
100
(
0.0061230498
-0.0057620174
-0.016217637
-0.024353137
-0.029379919
-0.030670609
-0.027836001
-0.020823513
-0.010038081
0.0035200735
0.018119331
0.031205225
0.039439972
0.039030921
0.02661508
0.0011159793
-0.032838054
-0.059229669
-0.0424506
0.078966321
0.0061232472
-0.0057615789
-0.016217061
-0.024352436
-0.029379084
-0.030669635
-0.02783489
-0.020822273
-0.010036729
0.0035215108
0.018120811
0.03120669
0.039441352
0.039032143
0.026616086
0.0011167319
-0.032837576
-0.059229495
-0.042450782
0.078966142
0.006123233
-0.0057616654
-0.016217226
-0.024352639
-0.029379285
-0.03066981
-0.027835028
-0.020822376
-0.010036816
0.0035214003
0.018120623
0.031206364
0.03944084
0.039031443
0.026615258
0.0011158977
-0.032838279
-0.05922994
-0.042450956
0.078966082
0.0061231136
-0.0057619591
-0.016217634
-0.024353097
-0.02937973
-0.030670186
-0.027835279
-0.020822453
-0.010036673
0.0035217939
0.018121275
0.031207254
0.039441914
0.039032627
0.026616474
0.0011170667
-0.032837267
-0.059229219
-0.042450559
0.078966241
0.0061230509
-0.0057621441
-0.016217932
-0.024353479
-0.029380166
-0.030670646
-0.027835742
-0.020822896
-0.010037079
0.0035214343
0.018120962
0.031206975
0.03944165
0.039032353
0.026616174
0.0011167431
-0.032837604
-0.059229554
-0.042450807
0.078966245
)
;
    }
    wall_maxY
    {
        type            calculated;
        value           nonuniform List<scalar> 
100
(
0.0061230509
-0.0057621441
-0.016217932
-0.024353479
-0.029380166
-0.030670646
-0.027835742
-0.020822896
-0.010037079
0.0035214343
0.018120962
0.031206975
0.03944165
0.039032353
0.026616174
0.0011167431
-0.032837604
-0.059229554
-0.042450807
0.078966245
0.0061231327
-0.0057619562
-0.016217642
-0.024353067
-0.029379613
-0.030669948
-0.027834897
-0.020821917
-0.010035991
0.0035225899
0.018122123
0.031208063
0.039442587
0.039033086
0.026616702
0.0011170948
-0.032837445
-0.059229579
-0.042451016
0.078966079
0.0061231169
-0.0057619573
-0.016217583
-0.024352909
-0.029379335
-0.030669541
-0.027834372
-0.0208213
-0.010035334
0.0035232108
0.018122609
0.031208305
0.039442492
0.039032621
0.026615926
0.0011161324
-0.032838508
-0.059230604
-0.042451772
0.078965667
0.0061231002
-0.0057619788
-0.01621759
-0.02435289
-0.02937928
-0.030669442
-0.027834226
-0.020821113
-0.010035117
0.0035234396
0.01812283
0.031208507
0.039442689
0.039032867
0.026616315
0.0011167465
-0.032837713
-0.059229718
-0.042450752
0.078966515
0.0061230871
-0.0057620755
-0.016217827
-0.024353284
-0.02937983
-0.030670143
-0.02783507
-0.020822091
-0.010036216
0.0035222401
0.018121563
0.031207225
0.039441464
0.039031786
0.026615443
0.0011160621
-0.032838329
-0.059230207
-0.042450951
0.078966488
)
;
    }
    inlet_minZ
    {
        type            calculated;
        value           uniform 0.01230682;
    }
    outlet_maxZ
    {
        type            calculated;
        value           uniform 0.025830799;
    }
}


// ************************************************************************* //
