/*--------------------------------*- C++ -*----------------------------------*\
| =========                 |                                                 |
| \\      /  F ield         | OpenFOAM: The Open Source CFD Toolbox           |
|  \\    /   O peration     | Version:  v2106                                 |
|   \\  /    A nd           | Website:  www.openfoam.com                      |
|    \\/     M anipulation  |                                                 |
\*---------------------------------------------------------------------------*/
FoamFile
{
    version     2.0;
    format      ascii;
    arch        "LSB;label=32;scalar=64";
    class       volVectorField;
    location    "50";
    object      Tmode_grad3;
}
// * * * * * * * * * * * * * * * * * * * * * * * * * * * * * * * * * * * * * //

dimensions      [0 -1 0 0 0 0 0];

internalField   nonuniform List<vector> 
500
(
(1.0837031e-06 1.0837031e-06 -0.66311406)
(2.1166798e-06 1.1938458e-06 -0.66310834)
(-9.197577e-07 5.4836779e-07 -0.66310709)
(-2.1665486e-06 5.3825492e-07 -0.66311228)
(-5.0378154e-07 4.7547685e-07 -0.66311523)
(1.1938457e-06 2.1166798e-06 -0.66310834)
(1.3136703e-06 1.3136703e-06 -0.66310245)
(-1.9031438e-06 4.0306172e-07 -0.66310428)
(-2.275885e-06 6.6087707e-07 -0.66310949)
(-5.6655962e-07 6.8314629e-07 -0.66311283)
(5.4836777e-07 -9.1975764e-07 -0.66310709)
(4.0306173e-07 -1.9031438e-06 -0.66310428)
(-1.5725509e-06 -1.5725509e-06 -0.66310578)
(-1.8864641e-06 -8.35333e-07 -0.66310991)
(-4.889354e-07 -3.9286142e-07 -0.66311279)
(5.3825493e-07 -2.1665486e-06 -0.66311228)
(6.6087707e-07 -2.275885e-06 -0.66310949)
(-8.35333e-07 -1.8864641e-06 -0.66310991)
(-1.0961955e-06 -1.0961955e-06 -0.66311231)
(-2.7157857e-07 -6.8496762e-07 -0.66311405)
(4.7547685e-07 -5.0378155e-07 -0.66311523)
(6.8314629e-07 -5.6655962e-07 -0.66311283)
(-3.9286143e-07 -4.889354e-07 -0.66311279)
(-6.8496762e-07 -2.7157857e-07 -0.66311405)
(-2.1478345e-07 -2.1478345e-07 -0.66311561)
(2.4643659e-06 2.4643659e-06 -0.63732228)
(4.1029853e-06 2.3081262e-06 -0.63731903)
(-3.1435438e-06 1.1630804e-06 -0.63731962)
(-5.7050745e-06 1.1777297e-06 -0.63732347)
(-1.4367295e-06 9.7368449e-07 -0.63732614)
(2.3081262e-06 4.1029853e-06 -0.63731903)
(2.151057e-06 2.151057e-06 -0.63731631)
(-4.8391386e-06 7.5496412e-07 -0.63731787)
(-5.9891684e-06 1.5689847e-06 -0.63732159)
(-1.6407747e-06 1.6065802e-06 -0.63732472)
(1.1630804e-06 -3.1435438e-06 -0.63731962)
(7.5496412e-07 -4.8391386e-06 -0.63731787)
(-3.7256162e-06 -3.7256162e-06 -0.63731866)
(-4.8534584e-06 -1.7280397e-06 -0.63732132)
(-1.4116658e-06 -6.5811304e-07 -0.63732404)
(1.1777296e-06 -5.7050745e-06 -0.63732347)
(1.5689847e-06 -5.9891684e-06 -0.63732159)
(-1.7280397e-06 -4.8534584e-06 -0.63732132)
(-2.9216652e-06 -2.9216652e-06 -0.63732267)
(-9.2749024e-07 -2.1698103e-06 -0.63732486)
(9.7368449e-07 -1.4367295e-06 -0.63732614)
(1.6065802e-06 -1.6407747e-06 -0.63732472)
(-6.5811303e-07 -1.4116658e-06 -0.63732404)
(-2.1698103e-06 -9.2749023e-07 -0.63732486)
(-9.1042924e-07 -9.1042924e-07 -0.63732729)
(3.2531284e-06 3.2531284e-06 -0.58975757)
(4.779464e-06 3.003824e-06 -0.5897554)
(-5.3648598e-06 1.7151811e-06 -0.58975614)
(-8.684731e-06 1.791897e-06 -0.58975918)
(-2.2800666e-06 1.4216183e-06 -0.58976155)
(3.003824e-06 4.779464e-06 -0.5897554)
(2.472543e-06 2.472543e-06 -0.5897534)
(-7.1827503e-06 1.3603492e-06 -0.58975438)
(-9.1250751e-06 2.8157349e-06 -0.58975716)
(-2.6503453e-06 2.7782234e-06 -0.58976002)
(1.7151811e-06 -5.3648598e-06 -0.58975614)
(1.3603492e-06 -7.1827503e-06 -0.58975438)
(-5.0216679e-06 -5.0216678e-06 -0.58975431)
(-7.2668568e-06 -1.9095547e-06 -0.58975606)
(-2.3050742e-06 -5.3011854e-07 -0.58975869)
(1.791897e-06 -8.684731e-06 -0.58975918)
(2.8157349e-06 -9.1250751e-06 -0.58975716)
(-1.9095547e-06 -7.2668568e-06 -0.58975606)
(-4.6335258e-06 -4.6335258e-06 -0.58975685)
(-1.7307212e-06 -3.9335556e-06 -0.58975944)
(1.4216183e-06 -2.2800666e-06 -0.58976155)
(2.7782234e-06 -2.6503453e-06 -0.58976002)
(-5.3011853e-07 -2.3050742e-06 -0.58975869)
(-3.9335556e-06 -1.7307212e-06 -0.58975944)
(-1.8384274e-06 -1.8384274e-06 -0.5897623)
(3.9059351e-06 3.9059351e-06 -0.51861359)
(5.5259544e-06 3.645437e-06 -0.51861159)
(-6.920262e-06 2.338327e-06 -0.51861174)
(-1.1113299e-05 2.5223247e-06 -0.51861394)
(-3.0173232e-06 1.9951372e-06 -0.51861591)
(3.645437e-06 5.5259544e-06 -0.51861159)
(3.1745422e-06 3.1745422e-06 -0.5186096)
(-8.6049305e-06 2.5863382e-06 -0.51860972)
(-1.1628083e-05 4.6857426e-06 -0.51861161)
(-3.5445107e-06 4.4680305e-06 -0.51861405)
(2.338327e-06 -6.920262e-06 -0.51861174)
(2.5863382e-06 -8.6049305e-06 -0.51860972)
(-5.4090615e-06 -5.4090615e-06 -0.51860874)
(-9.2316062e-06 -1.4095237e-06 -0.51860972)
(-3.1624646e-06 -7.3462591e-08 -0.51861213)
(2.5223247e-06 -1.1113299e-05 -0.51861394)
(4.6857426e-06 -1.1628083e-05 -0.51861161)
(-1.4095237e-06 -9.2316062e-06 -0.51860972)
(-6.2924843e-06 -6.2924843e-06 -0.51861002)
(-2.6538033e-06 -5.7806013e-06 -0.51861278)
(1.9951372e-06 -3.0173232e-06 -0.51861591)
(4.4680305e-06 -3.5445107e-06 -0.51861405)
(-7.346259e-08 -3.1624646e-06 -0.51861213)
(-5.7806013e-06 -2.6538033e-06 -0.51861278)
(-2.8212093e-06 -2.8212093e-06 -0.51861571)
(4.5864123e-06 4.5864123e-06 -0.42438032)
(6.6257792e-06 4.3309197e-06 -0.42437827)
(-7.7189872e-06 3.0636168e-06 -0.42437791)
(-1.2854796e-05 3.3488617e-06 -0.42437928)
(-3.5930989e-06 2.6615745e-06 -0.42438078)
(4.3309197e-06 6.6257792e-06 -0.42437827)
(4.341586e-06 4.341586e-06 -0.42437621)
(-9.1920742e-06 4.3644147e-06 -0.42437564)
(-1.345786e-05 7.0352299e-06 -0.42437671)
(-4.2803862e-06 6.5566232e-06 -0.42437869)
(3.0636168e-06 -7.7189872e-06 -0.42437791)
(4.3644147e-06 -9.1920742e-06 -0.42437564)
(-5.0253434e-06 -5.0253434e-06 -0.42437397)
(-1.0662588e-05 -3.2028052e-07 -0.42437427)
(-3.91217e-06 7.4046026e-07 -0.42437635)
(3.3488617e-06 -1.2854796e-05 -0.42437928)
(7.0352299e-06 -1.345786e-05 -0.42437671)
(-3.2028053e-07 -1.0662588e-05 -0.42437427)
(-7.6920563e-06 -7.6920563e-06 -0.4243741)
(-3.5732257e-06 -7.5067136e-06 -0.42437677)
(2.6615745e-06 -3.5930989e-06 -0.42438078)
(6.5566232e-06 -4.2803862e-06 -0.42437869)
(7.4046026e-07 -3.91217e-06 -0.42437635)
(-7.5067136e-06 -3.5732257e-06 -0.42437677)
(-3.7886082e-06 -3.7886082e-06 -0.42437958)
(5.2709001e-06 5.2709001e-06 -0.30816013)
(7.9342668e-06 5.0150671e-06 -0.30815811)
(-7.927914e-06 3.8526341e-06 -0.30815742)
(-1.398118e-05 4.2307433e-06 -0.30815802)
(-4.0168998e-06 3.3831606e-06 -0.30815906)
(5.0150671e-06 7.9342668e-06 -0.30815811)
(5.8068678e-06 5.8068678e-06 -0.30815613)
(-9.1043997e-06 6.5220704e-06 -0.308155)
(-1.4685391e-05 9.6891981e-06 -0.30815532)
(-4.8644825e-06 8.8985107e-06 -0.30815684)
(3.8526341e-06 -7.927914e-06 -0.30815742)
(6.5220704e-06 -9.1043997e-06 -0.308155)
(-4.0455838e-06 -4.0455838e-06 -0.30815283)
(-1.160474e-05 1.2062047e-06 -0.30815252)
(-4.5440246e-06 1.8541545e-06 -0.30815423)
(4.2307433e-06 -1.398118e-05 -0.30815802)
(9.6891981e-06 -1.4685391e-05 -0.30815532)
(1.2062047e-06 -1.160474e-05 -0.30815252)
(-8.7856523e-06 -8.7856523e-06 -0.30815193)
(-4.4325159e-06 -9.0123084e-06 -0.30815439)
(3.3831606e-06 -4.0168998e-06 -0.30815906)
(8.8985107e-06 -4.8644825e-06 -0.30815684)
(1.8541545e-06 -4.5440246e-06 -0.30815423)
(-9.0123084e-06 -4.4325159e-06 -0.30815439)
(-4.6951287e-06 -4.6951287e-06 -0.30815699)
(5.9329833e-06 5.9329833e-06 -0.17211408)
(9.3277041e-06 5.6495828e-06 -0.17211215)
(-7.6290207e-06 4.678542e-06 -0.1721113)
(-1.4489314e-05 5.1426848e-06 -0.17211108)
(-4.2880429e-06 4.1378846e-06 -0.17211165)
(5.6495828e-06 9.3277041e-06 -0.17211215)
(7.4460422e-06 7.4460422e-06 -0.17211039)
(-8.3893678e-06 8.954743e-06 -0.1721088)
(-1.53003e-05 1.253208e-05 -0.17210833)
(-5.2928431e-06 1.1389089e-05 -0.17210937)
(4.678542e-06 -7.6290207e-06 -0.1721113)
(8.954743e-06 -8.3893678e-06 -0.1721088)
(-2.5429828e-06 -2.5429828e-06 -0.17210625)
(-1.2054968e-05 3.0716434e-06 -0.17210532)
(-5.050037e-06 3.1920504e-06 -0.17210663)
(5.1426848e-06 -1.4489314e-05 -0.17211108)
(1.253208e-05 -1.53003e-05 -0.17210833)
(3.0716434e-06 -1.2054968e-05 -0.17210532)
(-9.5652671e-06 -9.5652671e-06 -0.17210436)
(-5.2125717e-06 -1.0270766e-05 -0.17210657)
(4.1378846e-06 -4.2880429e-06 -0.17211165)
(1.1389089e-05 -5.2928431e-06 -0.17210937)
(3.1920504e-06 -5.050037e-06 -0.17210663)
(-1.0270766e-05 -5.2125717e-06 -0.17210657)
(-5.5203696e-06 -5.5203696e-06 -0.17210891)
(6.5569652e-06 6.5569652e-06 -0.020101755)
(1.0711567e-05 6.189587e-06 -0.020099963)
(-6.8548032e-06 5.5178114e-06 -0.020099101)
(-1.4328747e-05 6.0620117e-06 -0.020097984)
(-4.3985497e-06 4.9060188e-06 -0.020098065)
(6.189587e-06 1.0711567e-05 -0.020099963)
(9.1528367e-06 9.1528367e-06 -0.02009856)
(-7.0461662e-06 1.1569234e-05 -0.020096621)
(-1.5246436e-05 1.5447543e-05 -0.020095271)
(-5.5545426e-06 1.3917315e-05 -0.020095789)
(5.5178114e-06 -6.8548032e-06 -0.020099101)
(1.1569234e-05 -7.0461662e-06 -0.020096621)
(-5.6009655e-07 -5.6009655e-07 -0.020093841)
(-1.1980666e-05 5.1777304e-06 -0.020092258)
(-5.4187018e-06 4.6526894e-06 -0.020093136)
(6.0620117e-06 -1.4328747e-05 -0.020097984)
(1.5447543e-05 -1.5246436e-05 -0.020095271)
(5.1777304e-06 -1.1980666e-05 -0.020092258)
(-1.003365e-05 -1.003365e-05 -0.020090969)
(-5.9045699e-06 -1.1289184e-05 -0.020092894)
(4.9060188e-06 -4.3985497e-06 -0.020098065)
(1.3917315e-05 -5.5545426e-06 -0.020095789)
(4.6526894e-06 -5.4187018e-06 -0.020093136)
(-1.1289184e-05 -5.9045699e-06 -0.020092894)
(-6.2557242e-06 -6.2557242e-06 -0.020094953)
(7.1276769e-06 7.1276769e-06 0.14142644)
(1.1981481e-05 6.5850655e-06 0.14142804)
(-5.6503528e-06 6.3317956e-06 0.14142873)
(-1.3453664e-05 6.9516269e-06 0.14143077)
(-4.3422304e-06 5.6557826e-06 0.14143118)
(6.5850655e-06 1.1981481e-05 0.14142804)
(1.0787659e-05 1.0787659e-05 0.14142892)
(-5.1005106e-06 1.4214974e-05 0.14143103)
(-1.4467684e-05 1.8257926e-05 0.14143329)
(-5.6380747e-06 1.6318907e-05 0.14143332)
(6.3317956e-06 -5.6503528e-06 0.14142873)
(1.4214974e-05 -5.1005106e-06 0.14143103)
(1.8199144e-06 1.8199144e-06 0.14143379)
(-1.1349731e-05 7.3737491e-06 0.141436)
(-5.63491e-06 6.0864711e-06 0.14143561)
(6.9516269e-06 -1.3453664e-05 0.14143077)
(1.8257926e-05 -1.4467684e-05 0.14143329)
(7.3737491e-06 -1.1349731e-05 0.141436)
(-1.0201127e-05 -1.0201127e-05 0.14143754)
(-6.49626e-06 -1.2088182e-05 0.14143595)
(5.6557826e-06 -4.3422304e-06 0.14143118)
(1.6318907e-05 -5.6380747e-06 0.14143332)
(6.0864711e-06 -5.63491e-06 0.14143561)
(-1.2088182e-05 -6.49626e-06 0.14143595)
(-6.8929468e-06 -6.8929468e-06 0.14143421)
(7.6187443e-06 7.6187443e-06 0.30222061)
(1.2994211e-05 6.7771099e-06 0.3022219)
(-4.1229686e-06 7.0505928e-06 0.30222219)
(-1.1873843e-05 7.7453115e-06 0.30222507)
(-4.1231863e-06 6.3316022e-06 0.30222594)
(6.7771099e-06 1.2994211e-05 0.3022219)
(1.2141984e-05 1.2141984e-05 0.30222207)
(-2.6706662e-06 1.6629838e-05 0.30222404)
(-1.2952329e-05 2.0680385e-05 0.30222716)
(-5.5368956e-06 1.8344887e-05 0.30222773)
(7.0505928e-06 -4.1229686e-06 0.30222219)
(1.6629838e-05 -2.6706662e-06 0.30222404)
(4.4154326e-06 4.4154326e-06 0.30222639)
(-1.0158795e-05 9.420896e-06 0.30222913)
(-5.6801854e-06 7.2823783e-06 0.30222928)
(7.7453115e-06 -1.1873843e-05 0.30222507)
(2.0680385e-05 -1.2952329e-05 0.30222716)
(9.420896e-06 -1.0158795e-05 0.30222913)
(-1.0085383e-05 -1.0085383e-05 0.30223076)
(-6.962574e-06 -1.2687259e-05 0.30222962)
(6.3316022e-06 -4.1231863e-06 0.30222594)
(1.8344887e-05 -5.5368956e-06 0.30222773)
(7.2823783e-06 -5.6801854e-06 0.30222928)
(-1.2687259e-05 -6.962574e-06 0.30222962)
(-7.4147692e-06 -7.4147692e-06 0.30222828)
(7.982211e-06 7.982211e-06 0.44665583)
(1.3559741e-05 6.703161e-06 0.44665662)
(-2.4720207e-06 7.5639582e-06 0.4466563)
(-9.7035759e-06 8.338851e-06 0.44665976)
(-3.7634207e-06 6.8473035e-06 0.44666098)
(6.703161e-06 1.3559741e-05 0.44665662)
(1.2932362e-05 1.2932362e-05 0.44665592)
(-1.8485549e-08 1.8414008e-05 0.44665732)
(-1.0778558e-05 2.2311835e-05 0.44666103)
(-5.2549682e-06 1.965607e-05 0.44666212)
(7.5639582e-06 -2.4720207e-06 0.4466563)
(1.8414008e-05 -1.8485553e-08 0.44665732)
(6.907453e-06 6.907453e-06 0.44665873)
(-8.4615142e-06 1.0982641e-05 0.44666175)
(-5.5339309e-06 7.9792796e-06 0.4466625)
(8.338851e-06 -9.7035759e-06 0.44665976)
(2.2311835e-05 -1.0778558e-05 0.44666103)
(1.0982641e-05 -8.4615142e-06 0.44666175)
(-9.7067314e-06 -9.7067314e-06 0.44666327)
(-7.2572088e-06 -1.3085107e-05 0.44666276)
(6.8473035e-06 -3.7634207e-06 0.44666098)
(1.965607e-05 -5.2549682e-06 0.44666212)
(7.9792796e-06 -5.5339309e-06 0.4466625)
(-1.3085107e-05 -7.2572088e-06 0.44666276)
(-7.7861814e-06 -7.7861814e-06 0.44666196)
(8.1426897e-06 8.1426897e-06 0.55181629)
(1.3465388e-05 6.3137762e-06 0.55181632)
(-9.8315492e-07 7.7279341e-06 0.55181527)
(-7.1963322e-06 8.5943033e-06 0.55181883)
(-3.3078828e-06 7.0898594e-06 0.55182024)
(6.3137762e-06 1.3465388e-05 0.55181632)
(1.2843254e-05 1.2843254e-05 0.55181467)
(2.4376358e-06 1.906081e-05 0.55181503)
(-8.1534443e-06 2.266876e-05 0.55181888)
(-4.8123267e-06 1.9864583e-05 0.55182039)
(7.7279341e-06 -9.8315492e-07 0.55181527)
(1.906081e-05 2.4376358e-06 0.55181503)
(8.8423512e-06 8.8423512e-06 0.55181495)
(-6.3925597e-06 1.1663448e-05 0.55181784)
(-5.1773345e-06 7.9218459e-06 0.55181924)
(8.5943033e-06 -7.1963322e-06 0.55181883)
(2.266876e-05 -8.1534443e-06 0.55181888)
(1.1663448e-05 -6.3925597e-06 0.55181784)
(-9.0739496e-06 -9.0739496e-06 0.55181903)
(-7.3067285e-06 -1.3229348e-05 0.5518194)
(7.0898594e-06 -3.3078828e-06 0.55182024)
(1.9864583e-05 -4.8123267e-06 0.55182039)
(7.9218459e-06 -5.1773345e-06 0.55181924)
(-1.3229348e-05 -7.3067285e-06 0.5518194)
(-7.9475999e-06 -7.9475999e-06 0.55181936)
(8.0023172e-06 8.0023172e-06 0.58551399)
(1.254395e-05 5.6011183e-06 0.58551297)
(3.9207249e-08 7.4006325e-06 0.58551131)
(-4.7349063e-06 8.3701628e-06 0.58551438)
(-2.8224261e-06 6.9443027e-06 0.58551577)
(5.6011183e-06 1.254395e-05 0.58551297)
(1.1641423e-05 1.1641423e-05 0.58551045)
(4.192774e-06 1.8090071e-05 0.58550949)
(-5.419401e-06 2.1323664e-05 0.58551287)
(-4.2482863e-06 1.8656343e-05 0.58551467)
(7.4006324e-06 3.9207246e-08 0.58551131)
(1.8090071e-05 4.192774e-06 0.58550949)
(9.7214485e-06 9.7214485e-06 0.58550757)
(-4.1686343e-06 1.1133582e-05 0.58550989)
(-4.6006403e-06 6.9886875e-06 0.58551193)
(8.3701629e-06 -4.7349063e-06 0.58551438)
(2.1323664e-05 -5.419401e-06 0.58551287)
(1.1133582e-05 -4.1686343e-06 0.58550989)
(-8.152162e-06 -8.152162e-06 0.58551059)
(-7.011549e-06 -1.2971297e-05 0.58551216)
(6.9443027e-06 -2.8224261e-06 0.58551577)
(1.8656343e-05 -4.2482863e-06 0.58551467)
(6.9886875e-06 -4.6006403e-06 0.58551193)
(-1.2971297e-05 -7.011549e-06 0.58551216)
(-7.8133966e-06 -7.8133966e-06 0.58551315)
(7.4645342e-06 7.4645342e-06 0.5051966)
(1.0786187e-05 4.6323922e-06 0.50519431)
(4.2351611e-07 6.5188869e-06 0.5051925)
(-2.7312015e-06 7.5919882e-06 0.5051946)
(-2.3768879e-06 6.352721e-06 0.50519582)
(4.6323922e-06 1.0786187e-05 0.50519431)
(9.3677161e-06 9.3677161e-06 0.50519125)
(4.8629101e-06 1.5325811e-05 0.50518919)
(-2.9804504e-06 1.8179573e-05 0.50519157)
(-3.6161551e-06 1.6026723e-05 0.5051935)
(6.5188869e-06 4.2351611e-07 0.5051925)
(1.5325811e-05 4.8629101e-06 0.50518919)
(9.2353735e-06 9.2353735e-06 0.50518567)
(-2.0302897e-06 9.3800315e-06 0.5051871)
(-3.8121217e-06 5.4120612e-06 0.50518973)
(7.5919882e-06 -2.7312015e-06 0.5051946)
(1.8179573e-05 -2.9804504e-06 0.50519157)
(9.3800315e-06 -2.0302897e-06 0.5051871)
(-6.8037626e-06 -6.8037626e-06 0.50518748)
(-6.2614686e-06 -1.201174e-05 0.50519051)
(6.352721e-06 -2.3768879e-06 0.50519582)
(1.6026723e-05 -3.6161551e-06 0.5051935)
(5.4120612e-06 -3.8121217e-06 0.50518973)
(-1.201174e-05 -6.2614686e-06 0.50519051)
(-7.2841068e-06 -7.2841068e-06 0.50519278)
(6.4771234e-06 6.4771234e-06 0.26038244)
(8.4493035e-06 3.5621594e-06 0.26037885)
(3.3262102e-07 5.1963726e-06 0.26037767)
(-1.4132744e-06 6.3517756e-06 0.26037875)
(-2.0081847e-06 5.39522e-06 0.26037979)
(3.5621594e-06 8.4493035e-06 0.26037885)
(6.5281773e-06 6.5281773e-06 0.26037575)
(4.5170453e-06 1.1260016e-05 0.26037349)
(-1.1150034e-06 1.3827365e-05 0.26037475)
(-2.9647404e-06 1.2563957e-05 0.26037669)
(5.1963726e-06 3.3262102e-07 0.26037767)
(1.1260016e-05 4.5170453e-06 0.26037349)
(7.6318086e-06 7.6318086e-06 0.26036947)
(-1.0933323e-07 7.0357705e-06 0.26037016)
(-2.8504567e-06 4.0036612e-06 0.26037314)
(6.3517756e-06 -1.4132744e-06 0.26037875)
(1.3827365e-05 -1.1150034e-06 0.26037475)
(7.0357705e-06 -1.0933322e-07 0.26037016)
(-4.7431508e-06 -4.7431508e-06 0.26037077)
(-4.9861466e-06 -9.9180397e-06 0.26037524)
(5.39522e-06 -2.0081847e-06 0.26037979)
(1.2563957e-05 -2.9647404e-06 0.26037669)
(4.0036612e-06 -2.8504567e-06 0.26037314)
(-9.9180397e-06 -4.9861466e-06 0.26037524)
(-6.3003826e-06 -6.3003826e-06 0.26037867)
(5.0703569e-06 5.0703569e-06 -0.19492759)
(6.0125944e-06 2.5642676e-06 -0.19493227)
(3.1814897e-07 3.7329315e-06 -0.19493221)
(-6.1246611e-07 4.9267608e-06 -0.19493171)
(-1.6823707e-06 4.2859083e-06 -0.19493067)
(2.5642676e-06 6.0125944e-06 -0.19493227)
(4.0064562e-06 4.0064562e-06 -0.19493513)
(3.8618888e-06 7.1270091e-06 -0.19493644)
(2.1699917e-07 9.5894941e-06 -0.19493593)
(-2.3232232e-06 9.3832485e-06 -0.19493407)
(3.7329315e-06 3.1814898e-07 -0.19493221)
(7.1270091e-06 3.8618888e-06 -0.19493644)
(5.9011868e-06 5.9011868e-06 -0.1949394)
(1.6437733e-06 5.4058918e-06 -0.19493896)
(-1.8198678e-06 3.9668442e-06 -0.1949361)
(4.9267608e-06 -6.1246611e-07 -0.19493171)
(9.5894941e-06 2.1699916e-07 -0.19493593)
(5.4058918e-06 1.6437733e-06 -0.19493896)
(-1.7173435e-06 -1.7173435e-06 -0.19493748)
(-3.2825882e-06 -6.4814494e-06 -0.19493237)
(4.2859083e-06 -1.6823707e-06 -0.19493067)
(9.3832485e-06 -2.3232232e-06 -0.19493407)
(3.9668442e-06 -1.8198678e-06 -0.1949361)
(-6.4814494e-06 -3.2825882e-06 -0.19493237)
(-4.9959384e-06 -4.9959384e-06 -0.19492873)
(3.3532265e-06 3.3532265e-06 -0.86568501)
(3.8259742e-06 1.6566358e-06 -0.86569034)
(8.9579639e-07 2.3770885e-06 -0.86568922)
(1.2688975e-07 3.5391991e-06 -0.86568883)
(-1.3151815e-06 3.131107e-06 -0.86568759)
(1.6566358e-06 3.8259742e-06 -0.86569034)
(2.3617672e-06 2.3617672e-06 -0.86569317)
(3.7196413e-06 4.0710442e-06 -0.86569317)
(1.2579175e-06 6.5743186e-06 -0.865693)
(-1.7232736e-06 7.1399299e-06 -0.86569126)
(2.3770885e-06 8.9579639e-07 -0.86568922)
(4.0710442e-06 3.7196413e-06 -0.86569317)
(5.1083478e-06 5.1083479e-06 -0.86569426)
(3.1957754e-06 5.4826018e-06 -0.86569382)
(-9.3810729e-07 5.7049897e-06 -0.86569162)
(3.5391991e-06 1.2688975e-07 -0.86568883)
(6.5743186e-06 1.2579175e-06 -0.865693)
(5.4826018e-06 3.1957754e-06 -0.86569382)
(1.8545594e-06 1.8545594e-06 -0.86569173)
(-1.575015e-06 -2.5477004e-06 -0.86568733)
(3.131107e-06 -1.3151815e-06 -0.86568759)
(7.1399299e-06 -1.7232736e-06 -0.86569126)
(5.7049897e-06 -9.381073e-07 -0.86569162)
(-2.5477004e-06 -1.575015e-06 -0.86568733)
(-3.8729472e-06 -3.8729472e-06 -0.86568487)
(1.5165089e-06 1.5165089e-06 -1.6288204)
(1.8027148e-06 6.8053958e-07 -1.6288254)
(1.8332994e-06 1.0962199e-06 -1.6288242)
(1.0135898e-06 2.1449922e-06 -1.6288241)
(-8.6117209e-07 1.8407078e-06 -1.6288227)
(6.8053957e-07 1.8027148e-06 -1.6288254)
(1.1722814e-06 1.1722814e-06 -1.6288282)
(4.0299783e-06 2.0819031e-06 -1.6288278)
(2.1303217e-06 4.5925115e-06 -1.6288282)
(-1.1654564e-06 5.3614794e-06 -1.6288266)
(1.0962199e-06 1.8332994e-06 -1.6288242)
(2.0819031e-06 4.0299783e-06 -1.6288278)
(5.2535295e-06 5.2535295e-06 -1.6288278)
(4.2931662e-06 6.6698054e-06 -1.628828)
(-3.4852678e-07 7.8943609e-06 -1.6288266)
(2.1449922e-06 1.0135898e-06 -1.6288241)
(4.5925115e-06 2.1303217e-06 -1.6288282)
(6.6698054e-06 4.2931662e-06 -1.628828)
(4.771153e-06 4.771153e-06 -1.628827)
(-3.4908614e-07 2.6797619e-07 -1.6288244)
(1.8407078e-06 -8.6117209e-07 -1.6288227)
(5.3614794e-06 -1.1654564e-06 -1.6288266)
(7.8943608e-06 -3.4852678e-07 -1.6288266)
(2.6797619e-07 -3.4908614e-07 -1.6288244)
(-3.3506447e-06 -3.3506447e-06 -1.6288235)
(-7.9272574e-09 -7.9272584e-09 -2.0751802)
(2.970528e-08 -2.1844009e-07 -2.075183)
(2.2620365e-06 -4.7005098e-08 -2.0751824)
(1.6479817e-06 7.6385109e-07 -2.0751835)
(-3.8163908e-07 5.4135405e-07 -2.0751822)
(-2.1844009e-07 2.9705283e-08 -2.075183)
(-2.8911479e-08 -2.8911479e-08 -2.0751846)
(3.7354733e-06 4.7883854e-07 -2.0751847)
(2.5305205e-06 2.6147421e-06 -2.0751866)
(-6.0413612e-07 3.2037297e-06 -2.0751851)
(-4.7005098e-08 2.2620365e-06 -2.0751824)
(4.7883854e-07 3.7354733e-06 -2.0751847)
(4.9056901e-06 4.9056901e-06 -2.0751848)
(4.3728729e-06 6.6948533e-06 -2.0751872)
(1.1019342e-08 7.8653481e-06 -2.0751864)
(7.6385109e-07 1.6479817e-06 -2.0751835)
(2.6147421e-06 2.5305205e-06 -2.0751866)
(6.6948533e-06 4.3728729e-06 -2.0751872)
(5.4901785e-06 5.4901785e-06 -2.0751896)
(1.7619373e-07 5.621663e-07 -2.0751887)
(5.4135405e-07 -3.8163908e-07 -2.0751822)
(3.2037297e-06 -6.0413612e-07 -2.0751851)
(7.8653481e-06 1.1019337e-08 -2.0751864)
(5.621663e-07 1.7619374e-07 -2.0751887)
(-3.2743221e-06 -3.2743221e-06 -2.0751871)
(-3.7430928e-07 -3.7430928e-07 10.97065)
(-4.8779509e-07 -4.0943617e-07 10.970651)
(1.3747719e-06 -3.7552928e-07 10.970651)
(1.2390375e-06 1.3369749e-08 10.970647)
(-4.1377068e-08 -5.9962262e-08 10.970648)
(-4.0943617e-07 -4.877951e-07 10.970651)
(-4.8962508e-07 -4.8962509e-07 10.970653)
(2.0089808e-06 -2.5712509e-07 10.970652)
(1.712388e-06 8.0046658e-07 10.970646)
(-1.1470907e-07 1.1840554e-06 10.970647)
(-3.7552927e-07 1.3747719e-06 10.970651)
(-2.5712508e-07 2.0089808e-06 10.970652)
(2.6648636e-06 2.6648636e-06 10.970651)
(2.680218e-06 3.6925195e-06 10.970644)
(2.1434883e-07 4.2616252e-06 10.970643)
(1.3369742e-08 1.2390375e-06 10.970647)
(8.0046658e-07 1.712388e-06 10.970646)
(3.6925195e-06 2.680218e-06 10.970644)
(3.3091496e-06 3.3091496e-06 10.970635)
(2.6469469e-07 -4.7632866e-07 10.970634)
(-5.9962252e-08 -4.1377068e-08 10.970648)
(1.1840554e-06 -1.1470906e-07 10.970647)
(4.2616251e-06 2.1434883e-07 10.970643)
(-4.7632866e-07 2.6469467e-07 10.970634)
(-2.3093033e-06 -2.3093033e-06 10.970644)
)
;

boundaryField
{
    wall_minX
    {
        type            extrapolatedCalculated;
        value           nonuniform List<vector> 
100
(
(-6.5301931e-12 1.0837031e-06 -0.66311406)
(0 2.1166798e-06 -0.66310834)
(0 -9.1975764e-07 -0.66310709)
(0 -2.1665486e-06 -0.66311228)
(0 -5.0378155e-07 -0.66311523)
(0 2.4643659e-06 -0.63732228)
(0 4.1029853e-06 -0.63731903)
(0 -3.1435438e-06 -0.63731962)
(0 -5.7050745e-06 -0.63732347)
(0 -1.4367295e-06 -0.63732614)
(0 3.2531284e-06 -0.58975757)
(0 4.779464e-06 -0.5897554)
(0 -5.3648598e-06 -0.58975614)
(0 -8.684731e-06 -0.58975918)
(0 -2.2800666e-06 -0.58976155)
(0 3.9059351e-06 -0.51861359)
(0 5.5259544e-06 -0.51861159)
(0 -6.920262e-06 -0.51861174)
(0 -1.1113299e-05 -0.51861394)
(0 -3.0173232e-06 -0.51861591)
(0 4.5864123e-06 -0.42438032)
(0 6.6257792e-06 -0.42437827)
(0 -7.7189872e-06 -0.42437791)
(0 -1.2854796e-05 -0.42437928)
(0 -3.5930989e-06 -0.42438078)
(0 5.2709001e-06 -0.30816013)
(0 7.9342668e-06 -0.30815811)
(0 -7.927914e-06 -0.30815742)
(0 -1.398118e-05 -0.30815802)
(0 -4.0168998e-06 -0.30815906)
(0 5.9329833e-06 -0.17211408)
(0 9.3277041e-06 -0.17211215)
(0 -7.6290207e-06 -0.1721113)
(0 -1.4489314e-05 -0.17211108)
(0 -4.2880429e-06 -0.17211165)
(0 6.5569652e-06 -0.020101755)
(0 1.0711567e-05 -0.020099963)
(0 -6.8548032e-06 -0.020099101)
(0 -1.4328747e-05 -0.020097984)
(0 -4.3985497e-06 -0.020098065)
(0 7.1276769e-06 0.14142644)
(0 1.1981481e-05 0.14142804)
(0 -5.6503528e-06 0.14142873)
(0 -1.3453664e-05 0.14143077)
(0 -4.3422304e-06 0.14143118)
(0 7.6187443e-06 0.30222061)
(0 1.2994211e-05 0.3022219)
(0 -4.1229686e-06 0.30222219)
(0 -1.1873843e-05 0.30222507)
(0 -4.1231863e-06 0.30222594)
(0 7.982211e-06 0.44665583)
(0 1.3559741e-05 0.44665662)
(0 -2.4720207e-06 0.4466563)
(0 -9.7035759e-06 0.44665976)
(0 -3.7634207e-06 0.44666098)
(0 8.1426897e-06 0.55181629)
(0 1.3465388e-05 0.55181632)
(0 -9.8315492e-07 0.55181527)
(0 -7.1963322e-06 0.55181883)
(0 -3.3078828e-06 0.55182024)
(0 8.0023172e-06 0.58551399)
(0 1.254395e-05 0.58551297)
(0 3.9207246e-08 0.58551131)
(0 -4.7349063e-06 0.58551438)
(0 -2.8224261e-06 0.58551577)
(0 7.4645342e-06 0.5051966)
(0 1.0786187e-05 0.50519431)
(0 4.2351611e-07 0.5051925)
(0 -2.7312015e-06 0.5051946)
(0 -2.3768879e-06 0.50519582)
(0 6.4771234e-06 0.26038244)
(0 8.4493035e-06 0.26037885)
(0 3.3262102e-07 0.26037767)
(0 -1.4132744e-06 0.26037875)
(0 -2.0081847e-06 0.26037979)
(0 5.0703569e-06 -0.19492759)
(0 6.0125944e-06 -0.19493227)
(0 3.1814898e-07 -0.19493221)
(0 -6.1246611e-07 -0.19493171)
(0 -1.6823707e-06 -0.19493067)
(0 3.3532265e-06 -0.86568501)
(0 3.8259742e-06 -0.86569034)
(0 8.9579639e-07 -0.86568922)
(0 1.2688975e-07 -0.86568883)
(0 -1.3151815e-06 -0.86568759)
(0 1.5165089e-06 -1.6288204)
(0 1.8027148e-06 -1.6288254)
(0 1.8332994e-06 -1.6288242)
(0 1.0135898e-06 -1.6288241)
(0 -8.6117209e-07 -1.6288227)
(0 -7.9272584e-09 -2.0751802)
(0 2.9705283e-08 -2.075183)
(0 2.2620365e-06 -2.0751824)
(0 1.6479817e-06 -2.0751835)
(0 -3.8163908e-07 -2.0751822)
(0 -3.7430928e-07 10.97065)
(0 -4.877951e-07 10.970651)
(0 1.3747719e-06 10.970651)
(0 1.2390375e-06 10.970647)
(0 -4.1377068e-08 10.970648)
)
;
    }
    wall_maxX
    {
        type            extrapolatedCalculated;
        value           nonuniform List<vector> 
100
(
(-2.0816682e-15 4.7547685e-07 -0.66311523)
(0 6.8314629e-07 -0.66311283)
(0 -3.9286142e-07 -0.66311279)
(0 -6.8496762e-07 -0.66311405)
(0 -2.1478345e-07 -0.66311561)
(0 9.7368449e-07 -0.63732614)
(0 1.6065802e-06 -0.63732472)
(0 -6.5811304e-07 -0.63732404)
(0 -2.1698103e-06 -0.63732486)
(0 -9.1042924e-07 -0.63732729)
(0 1.4216183e-06 -0.58976155)
(0 2.7782234e-06 -0.58976002)
(0 -5.3011854e-07 -0.58975869)
(0 -3.9335556e-06 -0.58975944)
(0 -1.8384274e-06 -0.5897623)
(0 1.9951372e-06 -0.51861591)
(0 4.4680305e-06 -0.51861405)
(0 -7.3462591e-08 -0.51861213)
(0 -5.7806013e-06 -0.51861278)
(0 -2.8212093e-06 -0.51861571)
(0 2.6615745e-06 -0.42438078)
(0 6.5566232e-06 -0.42437869)
(0 7.4046026e-07 -0.42437635)
(0 -7.5067136e-06 -0.42437677)
(0 -3.7886082e-06 -0.42437958)
(0 3.3831606e-06 -0.30815906)
(0 8.8985107e-06 -0.30815684)
(0 1.8541545e-06 -0.30815423)
(0 -9.0123084e-06 -0.30815439)
(0 -4.6951287e-06 -0.30815699)
(0 4.1378846e-06 -0.17211165)
(0 1.1389089e-05 -0.17210937)
(0 3.1920504e-06 -0.17210663)
(0 -1.0270766e-05 -0.17210657)
(0 -5.5203696e-06 -0.17210891)
(0 4.9060188e-06 -0.020098065)
(0 1.3917315e-05 -0.020095789)
(0 4.6526894e-06 -0.020093136)
(0 -1.1289184e-05 -0.020092894)
(0 -6.2557242e-06 -0.020094953)
(0 5.6557826e-06 0.14143118)
(0 1.6318907e-05 0.14143332)
(0 6.0864711e-06 0.14143561)
(0 -1.2088182e-05 0.14143595)
(0 -6.8929468e-06 0.14143421)
(0 6.3316022e-06 0.30222594)
(0 1.8344887e-05 0.30222773)
(0 7.2823783e-06 0.30222928)
(0 -1.2687259e-05 0.30222962)
(0 -7.4147692e-06 0.30222828)
(0 6.8473035e-06 0.44666098)
(0 1.965607e-05 0.44666212)
(0 7.9792796e-06 0.4466625)
(0 -1.3085107e-05 0.44666276)
(0 -7.7861814e-06 0.44666196)
(0 7.0898594e-06 0.55182024)
(0 1.9864583e-05 0.55182039)
(0 7.9218459e-06 0.55181924)
(0 -1.3229348e-05 0.5518194)
(0 -7.9475999e-06 0.55181936)
(0 6.9443027e-06 0.58551577)
(0 1.8656343e-05 0.58551467)
(0 6.9886875e-06 0.58551193)
(0 -1.2971297e-05 0.58551216)
(0 -7.8133966e-06 0.58551315)
(0 6.352721e-06 0.50519582)
(0 1.6026723e-05 0.5051935)
(0 5.4120612e-06 0.50518973)
(0 -1.201174e-05 0.50519051)
(0 -7.2841068e-06 0.50519278)
(0 5.39522e-06 0.26037979)
(0 1.2563957e-05 0.26037669)
(0 4.0036612e-06 0.26037314)
(0 -9.9180397e-06 0.26037524)
(0 -6.3003826e-06 0.26037867)
(0 4.2859083e-06 -0.19493067)
(0 9.3832485e-06 -0.19493407)
(0 3.9668442e-06 -0.1949361)
(0 -6.4814494e-06 -0.19493237)
(0 -4.9959384e-06 -0.19492873)
(0 3.131107e-06 -0.86568759)
(0 7.1399299e-06 -0.86569126)
(0 5.7049897e-06 -0.86569162)
(0 -2.5477004e-06 -0.86568733)
(0 -3.8729472e-06 -0.86568487)
(0 1.8407078e-06 -1.6288227)
(0 5.3614794e-06 -1.6288266)
(0 7.8943609e-06 -1.6288266)
(0 2.6797619e-07 -1.6288244)
(0 -3.3506447e-06 -1.6288235)
(0 5.4135405e-07 -2.0751822)
(0 3.2037297e-06 -2.0751851)
(0 7.8653481e-06 -2.0751864)
(0 5.621663e-07 -2.0751887)
(0 -3.2743221e-06 -2.0751871)
(0 -5.9962262e-08 10.970648)
(0 1.1840554e-06 10.970647)
(0 4.2616252e-06 10.970643)
(0 -4.7632866e-07 10.970634)
(0 -2.3093033e-06 10.970644)
)
;
    }
    wall_minY
    {
        type            extrapolatedCalculated;
        value           nonuniform List<vector> 
100
(
(1.0837031e-06 -6.5301931e-12 -0.66311406)
(2.4643659e-06 0 -0.63732228)
(3.2531284e-06 0 -0.58975757)
(3.9059351e-06 0 -0.51861359)
(4.5864123e-06 0 -0.42438032)
(5.2709001e-06 0 -0.30816013)
(5.9329833e-06 0 -0.17211408)
(6.5569652e-06 0 -0.020101755)
(7.1276769e-06 0 0.14142644)
(7.6187443e-06 0 0.30222061)
(7.982211e-06 0 0.44665583)
(8.1426897e-06 0 0.55181629)
(8.0023172e-06 0 0.58551399)
(7.4645342e-06 0 0.5051966)
(6.4771234e-06 0 0.26038244)
(5.0703569e-06 0 -0.19492759)
(3.3532265e-06 0 -0.86568501)
(1.5165089e-06 0 -1.6288204)
(-7.9272574e-09 0 -2.0751802)
(-3.7430928e-07 0 10.97065)
(2.1166798e-06 2.3592239e-13 -0.66310834)
(4.1029853e-06 0 -0.63731903)
(4.779464e-06 0 -0.5897554)
(5.5259544e-06 0 -0.51861159)
(6.6257792e-06 0 -0.42437827)
(7.9342668e-06 0 -0.30815811)
(9.3277041e-06 0 -0.17211215)
(1.0711567e-05 0 -0.020099963)
(1.1981481e-05 0 0.14142804)
(1.2994211e-05 0 0.3022219)
(1.3559741e-05 0 0.44665662)
(1.3465388e-05 0 0.55181632)
(1.254395e-05 0 0.58551297)
(1.0786187e-05 0 0.50519431)
(8.4493035e-06 0 0.26037885)
(6.0125944e-06 0 -0.19493227)
(3.8259742e-06 0 -0.86569034)
(1.8027148e-06 0 -1.6288254)
(2.970528e-08 0 -2.075183)
(-4.8779509e-07 0 10.970651)
(-9.197577e-07 3.8857806e-14 -0.66310709)
(-3.1435438e-06 0 -0.63731962)
(-5.3648598e-06 0 -0.58975614)
(-6.920262e-06 0 -0.51861174)
(-7.7189872e-06 0 -0.42437791)
(-7.927914e-06 0 -0.30815742)
(-7.6290207e-06 0 -0.1721113)
(-6.8548032e-06 0 -0.020099101)
(-5.6503528e-06 0 0.14142873)
(-4.1229686e-06 0 0.30222219)
(-2.4720207e-06 0 0.4466563)
(-9.8315492e-07 0 0.55181527)
(3.9207249e-08 0 0.58551131)
(4.2351611e-07 0 0.5051925)