/*--------------------------------*- C++ -*----------------------------------*\
| =========                 |                                                 |
| \\      /  F ield         | OpenFOAM: The Open Source CFD Toolbox           |
|  \\    /   O peration     | Version:  v2106                                 |
|   \\  /    A nd           | Website:  www.openfoam.com                      |
|    \\/     M anipulation  |                                                 |
\*---------------------------------------------------------------------------*/
FoamFile
{
    version     2.0;
    format      ascii;
    arch        "LSB;label=32;scalar=64";
    class       volScalarField;
    location    "50";
    object      Tmode_lapla2;
}
// * * * * * * * * * * * * * * * * * * * * * * * * * * * * * * * * * * * * * //

dimensions      [0 -2 0 0 0 0 0];

internalField   nonuniform List<scalar> 
500
(
0.27731045
0.27714287
0.27702513
0.27717537
0.27718005
0.27714287
0.27683861
0.27696378
0.27708218
0.27710315
0.27702513
0.27696378
0.27701938
0.2771142
0.27713308
0.27717537
0.27708218
0.2771142
0.27717014
0.27714784
0.27718005
0.27710315
0.27713308
0.27714784
0.27712947
0.83431682
0.83397051
0.8338586
0.83413048
0.83415144
0.83397051
0.83354029
0.83377908
0.83398769
0.834064
0.8338586
0.83377908
0.8338797
0.83402833
0.83408691
0.83413048
0.83398769
0.83402833
0.8340864
0.83407035
0.83415144
0.834064
0.83408691
0.83407035
0.83411188
1.3983767
1.3979493
1.3978805
1.3982364
1.398274
1.3979493
1.3974306
1.3977675
1.3980411
1.3981818
1.3978805
1.3977675
1.3978924
1.3980598
1.3981647
1.3982364
1.3980411
1.3980598
1.3980944
1.3981244
1.398274
1.3981818
1.3981647
1.3981244
1.3982755
1.9724077
1.9719158
1.9718461
1.9722811
1.9723396
1.9719158
1.9713145
1.9717017
1.9720246
1.9722272
1.9718461
1.9717017
1.9718076
1.9719859
1.972149
1.9722811
1.9720246
1.9719859
1.971991
1.9721142
1.9723396
1.9722272
1.972149
1.9721142
1.9723727
2.555831
2.5552767
2.5551898
2.5556907
2.5557626
2.5552767
2.5545909
2.5550124
2.5553762
2.5556314
2.5551898
2.5550124
2.5550828
2.5552642
2.5554798
2.5556907
2.5553762
2.5552642
2.55523
2.5554597
2.5557626
2.5556314
2.5554798
2.5554597
2.5558246
3.1426887
3.1420856
3.1419764
3.1425398
3.1426213
3.1420856
3.1413245
3.1417702
3.1421746
3.1424759
3.1419764
3.1417702
3.1417958
3.1419801
3.1422442
3.1425398
3.1421746
3.1419801
3.1419055
3.1422437
3.1426213
3.1424759
3.1422442
3.1422437
3.142709
3.7189385
3.7183014
3.7181683
3.7187889
3.7188755
3.7183014
3.7174795
3.7179373
3.7183802
3.7187198
3.7181683
3.7179373
3.7179083
3.7180948
3.718403
3.7187889
3.7183802
3.7180948
3.7179798
3.7184265
3.7188755
3.7187198
3.718403
3.7184265
3.7189837
4.2584436
4.257786
4.2576315
4.2582986
4.2583856
4.257786
4.2569224
4.2573774
4.2578522
4.2582218
4.2576315
4.2573774
4.2572834
4.2574684
4.2578158
4.2582986
4.2578522
4.2574684
4.2573122
4.2578684
4.2583856
4.2582218
4.2578158
4.2578684
4.2585075
4.7171647
4.7164972
4.7163287
4.7170254
4.7171079
4.7164972
4.715616
4.7160508
4.7165449
4.7169362
4.7163287
4.7160508
4.7158821
4.716058
4.7164393
4.7170254
4.7165449
4.716058
4.7158589
4.7165258
4.7171079
4.7169362
4.7164393
4.7165258
4.7172364
5.0246086
5.023938
5.0237683
5.0244711
5.0245444
5.023938
5.0230674
5.0234644
5.0239578
5.0243622
5.0237683
5.0234644
5.0232137
5.0233681
5.023777
5.0244711
5.0239578
5.0233681
5.0231236
5.023902
5.0245444
5.0243622
5.023777
5.023902
5.0246726
5.0712478
5.0705779
5.0704241
5.0711043
5.0711636
5.0705779
5.0697479
5.0700927
5.0705577
5.0709664
5.0704241
5.0700927
5.0697572
5.0698735
5.0703016
5.0711043
5.0705577
5.0698735
5.0695811
5.0704682
5.0711636
5.0709664
5.0703016
5.0704682
5.0712857
4.6904256
4.6897594
4.6896389
4.6902669
4.6903069
4.6897594
4.6889972
4.6892827
4.689687
4.6900894
4.6896389
4.6892827
4.6888669
4.6889263
4.6893615
4.6902669
4.689687
4.6889263
4.6885854
4.689571
4.6903069
4.6900894
4.6893615
4.689571
4.69042
3.6337948
3.63314
3.6330639
3.6336168
3.6336312
3.63314
3.6324646
3.6326956
3.6330082
3.6333916
3.6330639
3.6326956
3.6322143
3.6322006
3.6326266
3.6336168
3.6330082
3.6322006
3.6318158
3.632878
3.6336312
3.6333916
3.6326266
3.632878
3.6337398
1.5415453
1.5409222
1.5408873
1.5413575
1.54134
1.5409222
1.5403402
1.5405352
1.5407399
1.5410898
1.5408873
1.5405352
1.5400181
1.5399285
1.5403248
1.5413575
1.5407399
1.5399285
1.5395159
1.5406166
1.54134
1.5410898
1.5403248
1.5406166
1.5414683
-2.0880489
-2.0885996
-2.088616
-2.0882134
-2.088264
-2.0885996
-2.0890907
-2.0889063
-2.0887902
-2.0884867
-2.088616
-2.0889063
-2.0894088
-2.0895467
-2.0892022
-2.0882134
-2.0887902
-2.0895467
-2.0899489
-2.088868
-2.088264
-2.0884867
-2.0892022
-2.088868
-2.0880596
-7.9299504
-7.9303647
-7.9304001
-7.9300399
-7.930112
-7.9303647
-7.930763
-7.930595
-7.9305032
-7.930253
-7.9304001
-7.930595
-7.9310292
-7.9311493
-7.9308804
-7.9300399
-7.9305032
-7.9311493
-7.9314849
-7.9305132
-7.930112
-7.930253
-7.9308804
-7.9305132
-7.9298193
-16.904014
-16.904225
-16.904306
-16.90401
-16.904088
-16.904225
-16.904487
-16.904455
-16.904353
-16.904167
-16.904306
-16.904455
-16.904871
-16.904953
-16.904786
-16.90401
-16.904353
-16.904953
-16.905247
-16.904504
-16.904088
-16.904167
-16.904786
-16.904504
-16.904056
-30.366113
-30.366118
-30.366186
-30.366056
-30.366152
-30.366118
-30.366077
-30.366272
-30.366251
-30.366118
-30.366186
-30.366272
-30.366765
-30.366926
-30.366754
-30.366056
-30.366251
-30.366926
-30.367364
-30.366716
-30.366152
-30.366118
-30.366754
-30.366716
-30.366279
-49.588718
-49.588691
-49.58866
-49.588731
-49.588836
-49.588691
-49.588476
-49.588681
-49.588786
-49.588696
-49.58866
-49.588681
-49.589113
-49.589371
-49.58921
-49.588731
-49.588786
-49.589371
-49.589873
-49.589206
-49.588836
-49.588696
-49.58921
-49.589206
-49.588419
-228.88077
-228.88074
-228.88072
-228.88087
-228.88082
-228.88074
-228.88071
-228.88085
-228.88092
-228.88073
-228.88072
-228.88085
-228.88118
-228.88131
-228.88123
-228.88087
-228.88092
-228.88131
-228.88155
-228.8809
-228.88082
-228.88073
-228.88123
-228.8809
-228.88022
)
;

boundaryField
{
    wall_minX
    {
        type            extrapolatedCalculated;
        value           nonuniform List<scalar> 
100
(
0.27731045
0.27714287
0.27702513
0.27717537
0.27718005
0.83431682
0.83397051
0.8338586
0.83413048
0.83415144
1.3983767
1.3979493
1.3978805
1.3982364
1.398274
1.9724077
1.9719158
1.9718461
1.9722811
1.9723396
2.555831
2.5552767
2.5551898
2.5556907
2.5557626
3.1426887
3.1420856
3.1419764
3.1425398
3.1426213
3.7189385
3.7183014
3.7181683
3.7187889
3.7188755
4.2584436
4.257786
4.2576315
4.2582986
4.2583856
4.7171647
4.7164972
4.7163287
4.7170254
4.7171079
5.0246086
5.023938
5.0237683
5.0244711
5.0245444
5.0712478
5.0705779
5.0704241
5.0711043
5.0711636
4.6904256
4.6897594
4.6896389
4.6902669
4.6903069
3.6337948
3.63314
3.6330639
3.6336168
3.6336312
1.5415453
1.5409222
1.5408873
1.5413575
1.54134
-2.0880489
-2.0885996
-2.088616
-2.0882134
-2.088264
-7.9299504
-7.9303647
-7.9304001
-7.9300399
-7.930112
-16.904014
-16.904225
-16.904306
-16.90401
-16.904088
-30.366113
-30.366118
-30.366186
-30.366056
-30.366152
-49.588718
-49.588691
-49.58866
-49.588731
-49.588836
-228.88077
-228.88074
-228.88072
-228.88087
-228.88082
)
;
    }
    wall_maxX
    {
        type            extrapolatedCalculated;
        value           nonuniform List<scalar> 
100
(
0.27718005
0.27710315
0.27713308
0.27714784
0.27712947
0.83415144
0.834064
0.83408691
0.83407035
0.83411188
1.398274
1.3981818
1.3981647
1.3981244
1.3982755
1.9723396
1.9722272
1.972149
1.9721142
1.9723727
2.5557626
2.5556314
2.5554798
2.5554597
2.5558246
3.1426213
3.1424759
3.1422442
3.1422437
3.142709
3.7188755
3.7187198
3.718403
3.7184265
3.7189837
4.2583856
4.2582218
4.2578158
4.2578684
4.2585075
4.7171079
4.7169362
4.7164393
4.7165258
4.7172364
5.0245444
5.0243622
5.023777
5.023902
5.0246726
5.0711636
5.0709664
5.0703016
5.0704682
5.0712857
4.6903069
4.6900894
4.6893615
4.689571
4.69042
3.6336312
3.6333916
3.6326266
3.632878
3.6337398
1.54134
1.5410898
1.5403248
1.5406166
1.5414683
-2.088264
-2.0884867
-2.0892022
-2.088868
-2.0880596
-7.930112
-7.930253
-7.9308804
-7.9305132
-7.9298193
-16.904088
-16.904167
-16.904786
-16.904504
-16.904056
-30.366152
-30.366118
-30.366754
-30.366716
-30.366279
-49.588836
-49.588696
-49.58921
-49.589206
-49.588419
-228.88082
-228.88073
-228.88123
-228.8809
-228.88022
)
;
    }
    wall_minY
    {
        type            extrapolatedCalculated;
        value           nonuniform List<scalar> 
100
(
0.27731045
0.83431682
1.3983767
1.9724077
2.555831
3.1426887
3.7189385
4.2584436
4.7171647
5.0246086
5.0712478
4.6904256
3.6337948
1.5415453
-2.0880489
-7.9299504
-16.904014
-30.366113
-49.588718
-228.88077
0.27714287
0.83397051
1.3979493
1.9719158
2.5552767
3.1420856
3.7183014
4.257786
4.7164972
5.023938
5.0705779
4.6897594
3.63314
1.5409222
-2.0885996
-7.9303647
-16.904225
-30.366118
-49.588691
-228.88074
0.27702513
0.8338586
1.3978805
1.9718461
2.5551898
3.1419764
3.7181683
4.2576315
4.7163287
5.0237683
5.0704241
4.6896389
3.6330639
1.5408873
-2.088616
-7.9304001
-16.904306
-30.366186
-49.58866
-228.88072
0.27717537
0.83413048
1.3982364
1.9722811
2.5556907
3.1425398
3.7187889
4.2582986
4.7170254
5.0244711
5.0711043
4.6902669
3.6336168
1.5413575
-2.0882134
-7.9300399
-16.90401
-30.366056
-49.588731
-228.88087
0.27718005
0.83415144
1.398274
1.9723396
2.5557626
3.1426213
3.7188755
4.2583856
4.7171079
5.0245444
5.0711636
4.6903069
3.6336312
1.54134
-2.088264
-7.930112
-16.904088
-30.366152
-49.588836
-228.88082
)
;
    }
    wall_maxY
    {
        type            extrapolatedCalculated;
        value           nonuniform List<scalar> 
100
(
0.27718005
0.83415144
1.398274
1.9723396
2.5557626
3.1426213
3.7188755
4.2583856
4.7171079
5.0245444
5.0711636
4.6903069
3.6336312
1.54134
-2.088264
-7.930112
-16.904088
-30.366152
-49.588836
-228.88082
0.27710315
0.834064
1.3981818
1.9722272
2.5556314
3.1424759
3.7187198
4.2582218
4.7169362
5.0243622
5.0709664
4.6900894
3.6333916
1.5410898
-2.0884867
-7.930253
-16.904167
-30.366118
-49.588696
-228.88073
0.27713308
0.83408691
1.3981647
1.972149
2.5554798
3.1422442
3.718403
4.2578158
4.7164393
5.023777
5.0703016
4.6893615
3.6326266
1.5403248
-2.0892022
-7.9308804
-16.904786
-30.366754
-49.58921
-228.88123
0.27714784
0.83407035
1.3981244
1.9721142
2.5554597
3.1422437
3.7184265
4.2578684
4.7165258
5.023902
5.0704682
4.689571
3.632878
1.5406166
-2.088868
-7.9305132
-16.904504
-30.366716
-49.589206
-228.8809
0.27712947
0.83411188
1.3982755
1.9723727
2.5558246
3.142709
3.7189837
4.2585075
4.7172364
5.0246726
5.0712857
4.69042
3.6337398
1.5414683
-2.0880596
-7.9298193
-16.904056
-30.366279
-49.588419
-228.88022
)
;
    }
    inlet_minZ
    {
        type            extrapolatedCalculated;
        value           nonuniform List<scalar> 
25
(
0.27731045
0.27714287
0.27702513
0.27717537
0.27718005
0.27714287
0.27683861
0.27696378
0.27708218
0.27710315
0.27702513
0.27696378
0.27701938
0.2771142
0.27713308
0.27717537
0.27708218
0.2771142
0.27717014
0.27714784
0.27718005
0.27710315
0.27713308
0.27714784
0.27712947
)
;
    }
    outlet_maxZ
    {
        type            extrapolatedCalculated;
        value           nonuniform List<scalar> 
25
(
-228.88077
-228.88074
-228.88072
-228.88087
-228.88082
-228.88074
-228.88071
-228.88085
-228.88092
-228.88073
-228.88072
-228.88085
-228.88118
-228.88131
-228.88123
-228.88087
-228.88092
-228.88131
-228.88155
-228.8809
-228.88082
-228.88073
-228.88123
-228.8809
-228.88022
)
;
    }
}


// ************************************************************************* //
