/*--------------------------------*- C++ -*----------------------------------*\
| =========                 |                                                 |
| \\      /  F ield         | OpenFOAM: The Open Source CFD Toolbox           |
|  \\    /   O peration     | Version:  v2106                                 |
|   \\  /    A nd           | Website:  www.openfoam.com                      |
|    \\/     M anipulation  |                                                 |
\*---------------------------------------------------------------------------*/
FoamFile
{
    version     2.0;
    format      ascii;
    arch        "LSB;label=32;scalar=64";
    class       volScalarField;
    location    "50";
    object      Tmode2;
}
// * * * * * * * * * * * * * * * * * * * * * * * * * * * * * * * * * * * * * //

dimensions      [0 0 0 0 0 0 0];

internalField   nonuniform List<scalar> 
500
(
-0.023285089
-0.023285063
-0.023285059
-0.023285087
-0.023285101
-0.023285063
-0.023285036
-0.023285049
-0.023285077
-0.023285092
-0.023285059
-0.023285049
-0.023285061
-0.023285083
-0.023285095
-0.023285087
-0.023285077
-0.023285083
-0.023285096
-0.023285101
-0.023285101
-0.023285092
-0.023285095
-0.023285101
-0.023285105
-0.026903831
-0.026903774
-0.026903778
-0.026903849
-0.026903889
-0.026903774
-0.026903724
-0.02690376
-0.026903829
-0.026903871
-0.026903778
-0.02690376
-0.026903789
-0.026903841
-0.026903875
-0.026903849
-0.026903829
-0.026903841
-0.026903869
-0.026903888
-0.026903889
-0.026903871
-0.026903875
-0.026903888
-0.026903906
-0.030188958
-0.030188887
-0.030188906
-0.030189011
-0.030189072
-0.030188887
-0.030188825
-0.03018888
-0.03018898
-0.030189047
-0.030188906
-0.03018888
-0.030188918
-0.030188989
-0.030189043
-0.030189011
-0.03018898
-0.030188989
-0.030189025
-0.030189061
-0.030189072
-0.030189047
-0.030189043
-0.030189061
-0.030189099
-0.032914875
-0.032914794
-0.032914821
-0.032914953
-0.032915033
-0.032914794
-0.03291472
-0.032914785
-0.032914908
-0.032914996
-0.032914821
-0.032914785
-0.032914822
-0.032914906
-0.032914978
-0.032914953
-0.032914908
-0.032914906
-0.032914944
-0.032914999
-0.032915033
-0.032914996
-0.032914978
-0.032914999
-0.032915059
-0.034851991
-0.034851898
-0.034851928
-0.034852081
-0.034852175
-0.034851898
-0.034851811
-0.034851879
-0.034852019
-0.034852124
-0.034851928
-0.034851879
-0.034851907
-0.034851997
-0.034852086
-0.034852081
-0.034852019
-0.034851997
-0.034852035
-0.034852109
-0.034852175
-0.034852124
-0.034852086
-0.034852109
-0.034852189
-0.035766962
-0.035766857
-0.035766884
-0.035767052
-0.035767157
-0.035766857
-0.035766756
-0.035766822
-0.035766972
-0.03576709
-0.035766884
-0.035766822
-0.035766836
-0.035766927
-0.035767028
-0.035767052
-0.035766972
-0.035766927
-0.03576696
-0.035767051
-0.035767157
-0.03576709
-0.035767028
-0.035767051
-0.03576715
-0.035425066
-0.035424951
-0.035424972
-0.03542515
-0.035425262
-0.035424951
-0.035424835
-0.035424894
-0.035425051
-0.035425179
-0.035424972
-0.035424894
-0.03542489
-0.03542498
-0.035425091
-0.03542515
-0.035425051
-0.03542498
-0.035425004
-0.03542511
-0.035425262
-0.035425179
-0.035425091
-0.03542511
-0.035425226
-0.033595827
-0.033595702
-0.033595715
-0.033595898
-0.033596013
-0.033595702
-0.033595573
-0.033595621
-0.033595779
-0.033595913
-0.033595715
-0.033595621
-0.033595595
-0.033595677
-0.033595795
-0.033595898
-0.033595779
-0.033595677
-0.03359569
-0.03359581
-0.033596013
-0.033595913
-0.033595795
-0.03359581
-0.033595939
-0.030063462
-0.030063328
-0.030063331
-0.030063512
-0.030063627
-0.030063328
-0.030063187
-0.03006322
-0.030063373
-0.030063508
-0.030063331
-0.03006322
-0.030063167
-0.030063238
-0.03006336
-0.030063512
-0.030063373
-0.030063238
-0.030063236
-0.030063368
-0.030063627
-0.030063508
-0.03006336
-0.030063368
-0.030063508
-0.0246445
-0.024644358
-0.02464435
-0.024644521
-0.02464463
-0.024644358
-0.024644207
-0.024644221
-0.024644361
-0.024644493
-0.02464435
-0.024644221
-0.024644138
-0.024644192
-0.024644314
-0.024644521
-0.024644361
-0.024644192
-0.024644174
-0.024644314
-0.02464463
-0.024644493
-0.024644314
-0.024644314
-0.024644462
-0.017215979
-0.01721583
-0.017215809
-0.017215964
-0.017216063
-0.01721583
-0.017215673
-0.017215664
-0.017215784
-0.017215908
-0.017215809
-0.017215664
-0.017215549
-0.017215581
-0.017215699
-0.017215964
-0.017215784
-0.017215581
-0.017215544
-0.017215691
-0.017216063
-0.017215908
-0.017215699
-0.017215691
-0.017215845
-0.0077592548
-0.0077591023
-0.0077590688
-0.0077591993
-0.0077592842
-0.0077591023
-0.0077589411
-0.0077589088
-0.0077590021
-0.0077591133
-0.0077590688
-0.0077589088
-0.0077587642
-0.0077587705
-0.00775888
-0.0077591993
-0.0077590021
-0.0077587705
-0.0077587144
-0.0077588648
-0.0077592842
-0.0077591133
-0.00775888
-0.0077588648
-0.0077590221
0.0035733343
0.0035734874
0.003573531
0.0035734287
0.0035733616
0.0035734874
0.0035736472
0.0035736999
0.0035736377
0.0035735431
0.003573531
0.0035736999
0.003573869
0.0035738899
0.0035737918
0.0035734287
0.0035736377
0.0035738899
0.0035739624
0.0035738116
0.0035733616
0.0035735431
0.0035737918
0.0035738116
0.0035736542
0.016359135
0.016359283
0.016359333
0.016359259
0.016359211
0.016359283
0.016359435
0.016359502
0.01635947
0.016359394
0.016359333
0.016359502
0.016359685
0.016359729
0.016359645
0.016359259
0.01635947
0.016359729
0.016359812
0.016359665
0.016359211
0.016359394
0.016359645
0.016359665
0.016359512
0.029761259
0.029761393
0.029761446
0.029761396
0.029761366
0.029761393
0.02976153
0.029761602
0.029761594
0.029761537
0.029761446
0.029761602
0.029761784
0.029761843
0.029761776
0.029761396
0.029761594
0.029761843
0.029761929
0.029761793
0.029761366
0.029761537
0.029761776
0.029761793
0.029761649
0.042327895
0.042328005
0.04232806
0.042328028
0.042328014
0.042328005
0.042328122
0.042328194
0.042328201
0.042328162
0.04232806
0.042328194
0.042328364
0.042328429
0.04232838
0.042328028
0.042328201
0.042328429
0.042328512
0.042328397
0.042328014
0.042328162
0.04232838
0.042328397
0.042328276
0.051722332
0.051722408
0.051722465
0.051722454
0.051722453
0.051722408
0.051722499
0.051722579
0.051722599
0.051722578
0.051722465
0.051722579
0.05172274
0.051722811
0.051722783
0.051722454
0.051722599
0.051722811
0.051722901
0.051722817
0.051722453
0.051722578
0.051722783
0.051722817
0.051722733
0.05435501
0.054355051
0.054355104
0.054355119
0.054355132
0.054355051
0.054355103
0.054355192
0.054355232
0.054355226
0.054355104
0.054355192
0.054355349
0.054355433
0.054355416
0.054355119
0.054355232
0.054355433
0.054355537
0.054355471
0.054355132
0.054355226
0.054355416
0.054355471
0.054355397
0.044841163
0.044841181
0.044841217
0.044841251
0.044841269
0.044841181
0.044841202
0.044841275
0.044841323
0.044841324
0.044841217
0.044841275
0.044841401
0.04484148
0.044841466
0.044841251
0.044841323
0.04484148
0.04484157
0.044841502
0.044841269
0.044841324
0.044841466
0.044841502
0.044841403
0.015491791
0.015491796
0.015491811
0.015491833
0.015491835
0.015491796
0.015491808
0.015491842
0.015491864
0.015491856
0.015491811
0.015491842
0.015491903
0.015491937
0.015491926
0.015491833
0.015491864
0.015491937
0.01549197
0.015491916
0.015491835
0.015491856
0.015491926
0.015491916
0.015491843
)
;

boundaryField
{
    wall_minX
    {
        type            calculated;
        value           nonuniform List<scalar> 
100
(
-0.023285089
-0.023285063
-0.023285059
-0.023285087
-0.023285101
-0.026903831
-0.026903774
-0.026903778
-0.026903849
-0.026903889
-0.030188958
-0.030188887
-0.030188906
-0.030189011
-0.030189072
-0.032914875
-0.032914794
-0.032914821
-0.032914953
-0.032915033
-0.034851991
-0.034851898
-0.034851928
-0.034852081
-0.034852175
-0.035766962
-0.035766857
-0.035766884
-0.035767052
-0.035767157
-0.035425066
-0.035424951
-0.035424972
-0.03542515
-0.035425262
-0.033595827
-0.033595702
-0.033595715
-0.033595898
-0.033596013
-0.030063462
-0.030063328
-0.030063331
-0.030063512
-0.030063627
-0.0246445
-0.024644358
-0.02464435
-0.024644521
-0.02464463
-0.017215979
-0.01721583
-0.017215809
-0.017215964
-0.017216063
-0.0077592548
-0.0077591023
-0.0077590688
-0.0077591993
-0.0077592842
0.0035733343
0.0035734874
0.003573531
0.0035734287
0.0035733616
0.016359135
0.016359283
0.016359333
0.016359259
0.016359211
0.029761259
0.029761393
0.029761446
0.029761396
0.029761366
0.042327895
0.042328005
0.04232806
0.042328028
0.042328014
0.051722332
0.051722408
0.051722465
0.051722454
0.051722453
0.05435501
0.054355051
0.054355104
0.054355119
0.054355132
0.044841163
0.044841181
0.044841217
0.044841251
0.044841269
0.015491791
0.015491796
0.015491811
0.015491833
0.015491835
)
;
    }
    wall_maxX
    {
        type            calculated;
        value           nonuniform List<scalar> 
100
(
-0.023285101
-0.023285092
-0.023285095
-0.023285101
-0.023285105
-0.026903889
-0.026903871
-0.026903875
-0.026903888
-0.026903906
-0.030189072
-0.030189047
-0.030189043
-0.030189061
-0.030189099
-0.032915033
-0.032914996
-0.032914978
-0.032914999
-0.032915059
-0.034852175
-0.034852124
-0.034852086
-0.034852109
-0.034852189
-0.035767157
-0.03576709
-0.035767028
-0.035767051
-0.03576715
-0.035425262
-0.035425179
-0.035425091
-0.03542511
-0.035425226
-0.033596013
-0.033595913
-0.033595795
-0.03359581
-0.033595939
-0.030063627
-0.030063508
-0.03006336
-0.030063368
-0.030063508
-0.02464463
-0.024644493
-0.024644314
-0.024644314
-0.024644462
-0.017216063
-0.017215908
-0.017215699
-0.017215691
-0.017215845
-0.0077592842
-0.0077591133
-0.00775888
-0.0077588648
-0.0077590221
0.0035733616
0.0035735431
0.0035737918
0.0035738116
0.0035736542
0.016359211
0.016359394
0.016359645
0.016359665
0.016359512
0.029761366
0.029761537
0.029761776
0.029761793
0.029761649
0.042328014
0.042328162
0.04232838
0.042328397
0.042328276
0.051722453
0.051722578
0.051722783
0.051722817
0.051722733
0.054355132
0.054355226
0.054355416
0.054355471
0.054355397
0.044841269
0.044841324
0.044841466
0.044841502
0.044841403
0.015491835
0.015491856
0.015491926
0.015491916
0.015491843
)
;
    }
    wall_minY
    {
        type            calculated;
        value           nonuniform List<scalar> 
100
(
-0.023285089
-0.026903831
-0.030188958
-0.032914875
-0.034851991
-0.035766962
-0.035425066
-0.033595827
-0.030063462
-0.0246445
-0.017215979
-0.0077592548
0.0035733343
0.016359135
0.029761259
0.042327895
0.051722332
0.05435501
0.044841163
0.015491791
-0.023285063
-0.026903774
-0.030188887
-0.032914794
-0.034851898
-0.035766857
-0.035424951
-0.033595702
-0.030063328
-0.024644358
-0.01721583
-0.0077591023
0.0035734874
0.016359283
0.029761393
0.042328005
0.051722408
0.054355051
0.044841181
0.015491796
-0.023285059
-0.026903778
-0.030188906
-0.032914821
-0.034851928
-0.035766884
-0.035424972
-0.033595715
-0.030063331
-0.02464435
-0.017215809
-0.0077590688
0.003573531
0.016359333
0.029761446
0.04232806
0.051722465
0.054355104
0.044841217
0.015491811
-0.023285087
-0.026903849
-0.030189011
-0.032914953
-0.034852081
-0.035767052
-0.03542515
-0.033595898
-0.030063512
-0.024644521
-0.017215964
-0.0077591993
0.0035734287
0.016359259
0.029761396
0.042328028
0.051722454
0.054355119
0.044841251
0.015491833
-0.023285101
-0.026903889
-0.030189072
-0.032915033
-0.034852175
-0.035767157
-0.035425262
-0.033596013
-0.030063627
-0.02464463
-0.017216063
-0.0077592842
0.0035733616
0.016359211
0.029761366
0.042328014
0.051722453
0.054355132
0.044841269
0.015491835
)
;
    }
    wall_maxY
    {
        type            calculated;
        value           nonuniform List<scalar> 
100
(
-0.023285101
-0.026903889
-0.030189072
-0.032915033
-0.034852175
-0.035767157
-0.035425262
-0.033596013
-0.030063627
-0.02464463
-0.017216063
-0.0077592842
0.0035733616
0.016359211
0.029761366
0.042328014
0.051722453
0.054355132
0.044841269
0.015491835
-0.023285092
-0.026903871
-0.030189047
-0.032914996
-0.034852124
-0.03576709
-0.035425179
-0.033595913
-0.030063508
-0.024644493
-0.017215908
-0.0077591133
0.0035735431
0.016359394
0.029761537
0.042328162
0.051722578
0.054355226
0.044841324
0.015491856
-0.023285095
-0.026903875
-0.030189043
-0.032914978
-0.034852086
-0.035767028
-0.035425091
-0.033595795
-0.03006336
-0.024644314
-0.017215699
-0.00775888
0.0035737918
0.016359645
0.029761776
0.04232838
0.051722783
0.054355416
0.044841466
0.015491926
-0.023285101
-0.026903888
-0.030189061
-0.032914999
-0.034852109
-0.035767051
-0.03542511
-0.03359581
-0.030063368
-0.024644314
-0.017215691
-0.0077588648
0.0035738116
0.016359665
0.029761793
0.042328397
0.051722817
0.054355471
0.044841502
0.015491916
-0.023285105
-0.026903906
-0.030189099
-0.032915059
-0.034852189
-0.03576715
-0.035425226
-0.033595939
-0.030063508
-0.024644462
-0.017215845
-0.0077590221
0.0035736542
0.016359512
0.029761649
0.042328276
0.051722733
0.054355397
0.044841403
0.015491843
)
;
    }
    inlet_minZ
    {
        type            calculated;
        value           uniform -0.021420282;
    }
    outlet_maxZ
    {
        type            calculated;
        value           uniform -0.044959054;
    }
}


// ************************************************************************* //
