/*--------------------------------*- C++ -*----------------------------------*\
| =========                 |                                                 |
| \\      /  F ield         | OpenFOAM: The Open Source CFD Toolbox           |
|  \\    /   O peration     | Version:  v2106                                 |
|   \\  /    A nd           | Website:  www.openfoam.com                      |
|    \\/     M anipulation  |                                                 |
\*---------------------------------------------------------------------------*/
FoamFile
{
    version     2.0;
    format      ascii;
    arch        "LSB;label=32;scalar=64";
    class       volVectorField;
    location    "50";
    object      Tmode_grad4;
}
// * * * * * * * * * * * * * * * * * * * * * * * * * * * * * * * * * * * * * //

dimensions      [0 -1 0 0 0 0 0];

internalField   nonuniform List<vector> 
500
(
(3.2892465e-06 3.2892465e-06 -0.61033582)
(4.5795398e-06 2.4336593e-06 -0.61031864)
(-3.3403181e-06 1.3624613e-06 -0.61032079)
(-4.5543231e-06 1.4496557e-06 -0.61033166)
(-1.0455526e-06 1.364444e-06 -0.61033788)
(2.4336595e-06 4.5795399e-06 -0.61031864)
(1.6893684e-06 1.6893684e-06 -0.6103065)
(-4.8163238e-06 3.7360936e-07 -0.61031359)
(-4.5513495e-06 1.2463252e-06 -0.61032382)
(-1.1307644e-06 1.6511191e-06 -0.61033066)
(1.3624615e-06 -3.3403181e-06 -0.61032079)
(3.7360927e-07 -4.8163238e-06 -0.61031359)
(-3.7833614e-06 -3.7833613e-06 -0.61031934)
(-3.2768134e-06 -2.0349706e-06 -0.61032665)
(-7.7569001e-07 -8.1372622e-07 -0.61033147)
(1.4496557e-06 -4.5543232e-06 -0.61033166)
(1.2463252e-06 -4.5513495e-06 -0.61032382)
(-2.0349706e-06 -3.2768134e-06 -0.61032665)
(-1.5817144e-06 -1.5817144e-06 -0.61033023)
(-3.1660148e-07 -7.4628106e-07 -0.61033266)
(1.364444e-06 -1.0455527e-06 -0.61033788)
(1.6511191e-06 -1.1307644e-06 -0.61033066)
(-8.1372624e-07 -7.7569001e-07 -0.61033147)
(-7.4628107e-07 -3.1660148e-07 -0.61033266)
(-2.1873448e-07 -2.1873448e-07 -0.61033493)
(7.3088908e-06 7.3088908e-06 -0.55851717)
(8.8017403e-06 4.846374e-06 -0.5585077)
(-9.5048615e-06 3.116267e-06 -0.55851147)
(-1.1968625e-05 3.4944022e-06 -0.55851868)
(-3.0835727e-06 3.1325189e-06 -0.55852457)
(4.846374e-06 8.8017403e-06 -0.5585077)
(2.5128046e-06 2.5128046e-06 -0.55850197)
(-1.1532819e-05 1.0642422e-06 -0.55850653)
(-1.1944247e-05 3.7720413e-06 -0.55851265)
(-3.445456e-06 4.6706596e-06 -0.55851938)
(3.116267e-06 -9.5048615e-06 -0.55851147)
(1.0642422e-06 -1.1532819e-05 -0.55850653)
(-8.2456248e-06 -8.2456248e-06 -0.55850896)
(-8.3622073e-06 -3.5066661e-06 -0.55851234)
(-2.4844938e-06 -5.6676356e-07 -0.55851749)
(3.4944022e-06 -1.1968625e-05 -0.55851868)
(3.7720413e-06 -1.1944247e-05 -0.55851265)
(-3.5066661e-06 -8.3622073e-06 -0.55851234)
(-4.2653854e-06 -4.2653854e-06 -0.55851302)
(-1.4855209e-06 -2.9542871e-06 -0.55851725)
(3.1325189e-06 -3.0835727e-06 -0.55852457)
(4.6706595e-06 -3.445456e-06 -0.55851938)
(-5.6676355e-07 -2.4844938e-06 -0.55851749)
(-2.9542871e-06 -1.4855209e-06 -0.55851725)
(-1.6104283e-06 -1.6104283e-06 -0.55852286)
(9.5982017e-06 9.5982017e-06 -0.464778)
(1.0277415e-05 6.2564369e-06 -0.46477144)
(-1.4314842e-05 4.6577248e-06 -0.46477433)
(-1.7654888e-05 5.4667557e-06 -0.46477845)
(-4.9732893e-06 4.8262103e-06 -0.46478338)
(6.256437e-06 1.0277415e-05 -0.46477144)
(2.8666995e-06 2.8666995e-06 -0.4647672)
(-1.5499363e-05 2.8840993e-06 -0.46476917)
(-1.740216e-05 7.588051e-06 -0.46477192)
(-5.6138347e-06 8.726686e-06 -0.46477776)
(4.6577248e-06 -1.4314842e-05 -0.46477433)
(2.8840993e-06 -1.5499363e-05 -0.46476917)
(-9.5934901e-06 -9.5934901e-06 -0.46476859)
(-1.1812301e-05 -2.4063045e-06 -0.46476892)
(-4.2141993e-06 1.3165058e-06 -0.4647738)
(5.4667557e-06 -1.7654888e-05 -0.46477845)
(7.588051e-06 -1.740216e-05 -0.46477192)
(-2.4063045e-06 -1.1812301e-05 -0.46476892)
(-6.4921638e-06 -6.4921638e-06 -0.46476756)
(-3.1319612e-06 -6.1142685e-06 -0.46477279)
(4.8262103e-06 -4.9732893e-06 -0.46478338)
(8.726686e-06 -5.6138347e-06 -0.46477776)
(1.3165058e-06 -4.2141993e-06 -0.4647738)
(-6.1142685e-06 -3.1319612e-06 -0.46477279)
(-3.9622692e-06 -3.9622691e-06 -0.46478022)
(1.1686001e-05 1.1686001e-05 -0.32905706)
(1.2470184e-05 7.6705413e-06 -0.32905057)
(-1.6518933e-05 6.5571441e-06 -0.32905149)
(-2.1019715e-05 7.8508666e-06 -0.32905242)
(-6.3730668e-06 6.8796757e-06 -0.32905584)
(7.6705413e-06 1.2470184e-05 -0.32905057)
(4.7768986e-06 4.7768986e-06 -0.3290461)
(-1.6248445e-05 6.8062512e-06 -0.32904522)
(-2.0535918e-05 1.3305557e-05 -0.32904479)
(-7.3442577e-06 1.4254566e-05 -0.32904928)
(6.5571441e-06 -1.6518933e-05 -0.32905149)
(6.8062513e-06 -1.6248445e-05 -0.32904522)
(-7.990274e-06 -7.990274e-06 -0.32904191)
(-1.3571401e-05 8.4965706e-07 -0.32903968)
(-5.7403947e-06 4.4049141e-06 -0.32904381)
(7.8508666e-06 -2.1019715e-05 -0.32905242)
(1.3305557e-05 -2.0535918e-05 -0.32904479)
(8.4965707e-07 -1.3571401e-05 -0.32903968)
(-8.1407299e-06 -8.1407299e-06 -0.32903674)
(-4.9740863e-06 -9.3728878e-06 -0.32904225)
(6.8796757e-06 -6.3730668e-06 -0.32905584)
(1.4254566e-05 -7.3442577e-06 -0.32904928)
(4.4049141e-06 -5.7403947e-06 -0.32904381)
(-9.3728878e-06 -4.9740863e-06 -0.32904225)
(-6.5618333e-06 -6.5618333e-06 -0.32905006)
(1.3921364e-05 1.3921364e-05 -0.15793679)
(1.5851118e-05 9.2361437e-06 -0.15792997)
(-1.6162545e-05 8.8355098e-06 -0.15792929)
(-2.2008652e-05 1.0552146e-05 -0.15792722)
(-7.2513566e-06 9.2004905e-06 -0.15792917)
(9.2361437e-06 1.5851118e-05 -0.15792997)
(8.2223368e-06 8.2223368e-06 -0.15792528)
(-1.4188542e-05 1.2460682e-05 -0.1579221)
(-2.1461181e-05 2.0334365e-05 -0.15791888)
(-8.6030124e-06 2.0759419e-05 -0.15792202)
(8.8355098e-06 -1.6162545e-05 -0.15792929)
(1.2460682e-05 -1.4188542e-05 -0.1579221)
(-4.0505174e-06 -4.0505174e-06 -0.15791688)
(-1.3709916e-05 5.6431317e-06 -0.15791254)
(-6.9679871e-06 8.3446716e-06 -0.1579158)
(1.0552146e-05 -2.2008652e-05 -0.15792722)
(2.0334365e-05 -2.1461181e-05 -0.15791888)
(5.6431317e-06 -1.3709916e-05 -0.15791254)
(-9.0659924e-06 -9.0659924e-06 -0.15790844)
(-6.8019858e-06 -1.2371317e-05 -0.15791378)
(9.2004905e-06 -7.2513566e-06 -0.15792917)
(2.0759419e-05 -8.6030124e-06 -0.15792202)
(8.3446716e-06 -6.9679871e-06 -0.1579158)
(-1.2371317e-05 -6.8019858e-06 -0.15791378)
(-9.1715365e-06 -9.1715365e-06 -0.15792147)
(1.623144e-05 1.623144e-05 0.038597958)
(1.9965547e-05 1.079798e-05 0.038604848)
(-1.376404e-05 1.1351673e-05 0.038606435)
(-2.0899996e-05 1.3411212e-05 0.038611278)
(-7.678379e-06 1.1645864e-05 0.0386106)
(1.079798e-05 1.9965547e-05 0.038604848)
(1.2645896e-05 1.2645896e-05 0.038609255)
(-9.8441927e-06 1.9222483e-05 0.038614117)
(-2.0458708e-05 2.7978742e-05 0.038619856)
(-9.4437265e-06 2.7626451e-05 0.038617911)
(1.1351673e-05 -1.376404e-05 0.038606435)
(1.9222483e-05 -9.8441927e-06 0.038614117)
(1.5688057e-06 1.5688057e-06 0.038620476)
(-1.2496027e-05 1.1280511e-05 0.038626515)
(-7.9132393e-06 1.2652761e-05 0.038624081)
(1.3411212e-05 -2.0899996e-05 0.038611278)
(2.7978742e-05 -2.0458708e-05 0.038619856)
(1.1280511e-05 -1.2496027e-05 0.038626515)
(-9.3747527e-06 -9.3747527e-06 0.038631341)
(-8.5288932e-06 -1.5038696e-05 0.03862635)
(1.1645864e-05 -7.678379e-06 0.0386106)
(2.7626451e-05 -9.4437265e-06 0.038617911)
(1.2652761e-05 -7.9132393e-06 0.038624081)
(-1.5038696e-05 -8.5288932e-06 0.03862635)
(-1.1689202e-05 -1.1689202e-05 0.038618993)
(1.8514978e-05 1.8514978e-05 0.24617739)
(2.4327991e-05 1.2173925e-05 0.24618404)
(-9.7333054e-06 1.3957279e-05 0.24618585)
(-1.7843513e-05 1.6271346e-05 0.24619332)
(-7.7031224e-06 1.4074777e-05 0.24619377)
(1.2173925e-05 2.4327991e-05 0.24618404)
(1.7491443e-05 1.7491443e-05 0.24618759)
(-3.5871736e-06 2.6501635e-05 0.24619352)
(-1.7667267e-05 3.5572113e-05 0.24620161)
(-9.8996917e-06 3.4240804e-05 0.24620078)
(1.3957279e-05 -9.7333054e-06 0.24618585)
(2.6501635e-05 -3.5871736e-06 0.24619352)
(8.3473651e-06 8.3473651e-06 0.24620021)
(-1.0104344e-05 1.7127795e-05 0.24620766)
(-8.5906615e-06 1.6783691e-05 0.24620602)
(1.6271346e-05 -1.7843513e-05 0.24619332)
(3.5572113e-05 -1.7667267e-05 0.24620161)
(1.7127795e-05 -1.0104344e-05 0.24620766)
(-9.2309409e-06 -9.2309409e-06 0.2462128)
(-1.0129095e-05 -1.7459392e-05 0.24620822)
(1.4074777e-05 -7.7031224e-06 0.24619377)
(3.4240804e-05 -9.8996917e-06 0.24620078)
(1.6783691e-05 -8.5906615e-06 0.24620602)
(-1.7459392e-05 -1.0129095e-05 0.24620822)
(-1.4076295e-05 -1.4076295e-05 0.2462013)
(2.0664719e-05 2.0664719e-05 0.44494799)
(2.8421356e-05 1.3163776e-05 0.44495403)
(-4.4920196e-06 1.6466271e-05 0.44495528)
(-1.2977538e-05 1.8939684e-05 0.44496515)
(-7.3741605e-06 1.6316875e-05 0.44496655)
(1.3163776e-05 2.8421356e-05 0.44495403)
(2.2123684e-05 2.2123684e-05 0.44495608)
(4.171842e-06 3.358412e-05 0.44496227)
(-1.3201633e-05 4.2320062e-05 0.44497246)
(-9.99697e-06 3.9878537e-05 0.44497266)
(1.6466271e-05 -4.4920196e-06 0.44495528)
(3.358412e-05 4.171842e-06 0.44496227)
(1.5704358e-05 1.5704358e-05 0.44496827)
(-6.6831219e-06 2.2468028e-05 0.44497676)
(-9.001844e-06 2.009727e-05 0.44497594)
(1.8939684e-05 -1.2977538e-05 0.44496515)
(4.2320062e-05 -1.3201633e-05 0.44497246)
(2.2468028e-05 -6.6831219e-06 0.44497676)
(-8.8087205e-06 -8.8087205e-06 0.44498174)
(-1.1577475e-05 -1.9762842e-05 0.44497772)
(1.6316875e-05 -7.3741605e-06 0.44496655)
(3.9878537e-05 -9.99697e-06 0.44497266)
(2.009727e-05 -9.001844e-06 0.44497594)
(-1.9762842e-05 -1.1577475e-05 0.44497772)
(-1.6304592e-05 -1.6304592e-05 0.44497136)
(2.2541939e-05 2.2541939e-05 0.60858967)
(3.1618861e-05 1.3537052e-05 0.60859461)
(1.3805656e-06 1.8612875e-05 0.60859442)
(-6.5736146e-06 2.1148334e-05 0.60860618)
(-6.7654857e-06 1.814343e-05 0.60860825)
(1.3537052e-05 3.1618861e-05 0.60859461)
(2.5725264e-05 2.5725264e-05 0.60859443)
(1.2797489e-05 3.9482349e-05 0.60859977)
(-7.2777828e-06 4.7179891e-05 0.60861158)
(-9.7703903e-06 4.3628753e-05 0.60861266)
(1.8612875e-05 1.3805656e-06 0.60859442)
(3.9482349e-05 1.2797489e-05 0.60859977)
(2.2835192e-05 2.2835192e-05 0.60860372)
(-2.4272109e-06 2.6406626e-05 0.6086127)
(-9.1329112e-06 2.1845114e-05 0.60861278)
(2.1148334e-05 -6.5736146e-06 0.60860618)
(4.7179891e-05 -7.2777828e-06 0.60861158)
(2.6406626e-05 -2.4272109e-06 0.6086127)
(-8.2678613e-06 -8.2678613e-06 0.60861699)
(-1.2811398e-05 -2.2043408e-05 0.60861381)
(1.814343e-05 -6.7654857e-06 0.60860825)
(4.3628753e-05 -9.7703903e-06 0.60861266)
(2.1845114e-05 -9.1329112e-06 0.60861278)
(-2.2043408e-05 -1.2811398e-05 0.60861381)
(-1.8316609e-05 -1.8316609e-05 0.60860828)
(2.3956256e-05 2.3956256e-05 0.7039353)
(3.3169827e-05 1.3046332e-05 0.70393848)
(7.0775026e-06 2.0033871e-05 0.70393598)
(8.5111682e-07 2.2539514e-05 0.70394872)
(-5.9939617e-06 1.926042e-05 0.70395103)
(1.3046332e-05 3.3169827e-05 0.70393848)
(2.7286249e-05 2.7286249e-05 0.7039354)
(2.1317276e-05 4.2885748e-05 0.70393851)
(-3.0905884e-07 4.8846999e-05 0.70395104)
(-9.2730555e-06 4.4413104e-05 0.70395283)
(2.0033871e-05 7.0775025e-06 0.70393598)
(4.2885748e-05 2.1317276e-05 0.70393851)
(2.8638253e-05 2.8638253e-05 0.70393878)
(2.3784729e-06 2.7880106e-05 0.70394746)
(-8.9498917e-06 2.1241431e-05 0.70394857)
(2.2539514e-05 8.5111682e-07 0.70394872)
(4.8846999e-05 -3.0905884e-07 0.70395104)
(2.7880106e-05 2.3784729e-06 0.70394746)
(-7.7058805e-06 -7.7058805e-06 0.70395046)
(-1.3698839e-05 -2.4267485e-05 0.70394866)
(1.926042e-05 -5.9939617e-06 0.70395103)
(4.4413104e-05 -9.2730555e-06 0.70395283)
(2.1241431e-05 -8.9498917e-06 0.70394857)
(-2.4267485e-05 -1.3698839e-05 0.70394866)
(-1.9990962e-05 -1.9990962e-05 0.70394447)
(2.4665666e-05 2.4665666e-05 0.6921288)
(3.2299681e-05 1.1482675e-05 0.69212948)
(1.1619769e-05 2.0300067e-05 0.69212409)
(8.4845193e-06 2.2697728e-05 0.6921365)
(-5.222712e-06 1.9342909e-05 0.69213853)
(1.1482675e-05 3.2299681e-05 0.69212948)
(2.5751283e-05 2.5751283e-05 0.69212308)
(2.8442349e-05 4.2290763e-05 0.69212258)
(7.0487824e-06 4.592198e-05 0.69213458)
(-8.577531e-06 4.1165702e-05 0.69213684)
(2.0300067e-05 1.1619769e-05 0.69212409)
(4.2290763e-05 2.8442349e-05 0.69212258)
(3.1790466e-05 3.1790466e-05 0.69211761)
(7.3594592e-06 2.5824457e-05 0.692125)
(-8.3935637e-06 1.7674293e-05 0.69212735)
(2.2697728e-05 8.4845193e-06 0.6921365)
(4.592198e-05 7.0487824e-06 0.69213458)
(2.5824457e-05 7.3594592e-06 0.692125)
(-7.067391e-06 -7.067391e-06 0.69212626)
(-1.4010974e-05 -2.6146789e-05 0.69212669)
(1.9342909e-05 -5.222712e-06 0.69213853)
(4.1165702e-05 -8.577531e-06 0.69213684)
(1.7674293e-05 -8.3935637e-06 0.69212735)
(-2.6146789e-05 -1.4010974e-05 0.69212669)
(-2.1113162e-05 -2.1113162e-05 0.69212462)
(2.4410655e-05 2.4410655e-05 0.53301603)
(2.8459001e-05 8.7810599e-06 0.53301352)
(1.4092502e-05 1.902675e-05 0.53300544)
(1.5288117e-05 2.1259055e-05 0.53301598)
(-4.6409106e-06 1.8134046e-05 0.5330172)
(8.7810599e-06 2.8459001e-05 0.53301352)
(2.0383144e-05 2.0383144e-05 0.53300404)
(3.2809495e-05 3.6409679e-05 0.5329991)
(1.3949061e-05 3.7349901e-05 0.53300911)
(-7.7659198e-06 3.3240225e-05 0.53301161)
(1.902675e-05 1.4092502e-05 0.53300544)
(3.6409679e-05 3.2809495e-05 0.5329991)
(3.1059258e-05 3.1059258e-05 0.53298806)
(1.2118664e-05 1.9568676e-05 0.53299323)
(-7.3806941e-06 1.109499e-05 0.53299708)
(2.1259055e-05 1.5288117e-05 0.53301598)
(3.7349901e-05 1.3949061e-05 0.53300911)
(1.9568676e-05 1.2118664e-05 0.53299323)
(-6.0152073e-06 -6.0152073e-06 0.53299275)
(-1.3415044e-05 -2.6998411e-05 0.53299648)
(1.8134046e-05 -4.6409106e-06 0.5330172)
(3.3240225e-05 -7.7659198e-06 0.53301161)
(1.109499e-05 -7.3806941e-06 0.53299708)
(-2.6998411e-05 -1.3415044e-05 0.53299648)
(-2.1369497e-05 -2.1369497e-05 0.53299754)
(2.2991641e-05 2.2991641e-05 0.19564238)
(2.170392e-05 5.1607562e-06 0.19563633)
(1.4072414e-05 1.607746e-05 0.19562698)
(2.0241368e-05 1.8117676e-05 0.19563434)
(-4.4097253e-06 1.562033e-05 0.19563443)
(5.1607562e-06 2.170392e-05 0.19563633)
(1.1332649e-05 1.1332649e-05 0.19562501)
(3.3507793e-05 2.4907751e-05 0.19561614)
(1.9555672e-05 2.3173186e-05 0.19562297)
(-6.9070714e-06 2.1050039e-05 0.19562558)
(1.607746e-05 1.4072414e-05 0.19562698)
(2.4907751e-05 3.3507793e-05 0.19561614)
(2.5912952e-05 2.5912952e-05 0.19559984)
(1.6383655e-05 9.4645529e-06 0.19560238)
(-5.825157e-06 2.5406177e-06 0.1956079)
(1.8117676e-05 2.0241368e-05 0.19563434)
(2.3173186e-05 1.9555672e-05 0.19562297)
(9.4645529e-06 1.6383655e-05 0.19560238)
(-3.8166623e-06 -3.8166623e-06 0.19560095)
(-1.1523028e-05 -2.5684891e-05 0.19560899)
(1.562033e-05 -4.4097253e-06 0.19563443)
(2.1050039e-05 -6.9070714e-06 0.19562558)
(2.5406177e-06 -5.8251571e-06 0.1956079)
(-2.5684891e-05 -1.1523028e-05 0.19560899)
(-2.0403976e-05 -2.0403976e-05 0.19561403)
(2.0375819e-05 2.0375819e-05 -0.32062231)
(1.305438e-05 1.231651e-06 -0.32063164)
(1.2096903e-05 1.1799574e-05 -0.32063955)
(2.2742829e-05 1.3681848e-05 -0.32063601)
(-4.5756145e-06 1.222885e-05 -0.32063688)
(1.231651e-06 1.305438e-05 -0.32063164)
(1.9001358e-07 1.9001358e-07 -0.32064251)
(3.0772199e-05 9.2705233e-06 -0.3206531)
(2.3386742e-05 5.3966875e-06 -0.32064979)
(-6.028613e-06 6.7048627e-06 -0.32064712)
(1.1799574e-05 1.2096903e-05 -0.32063955)
(9.2705233e-06 3.0772199e-05 -0.3206531)
(1.7303577e-05 1.7303577e-05 -0.32067149)
(2.0177168e-05 -2.4548658e-06 -0.32067108)
(-3.7034977e-06 -5.4959958e-06 -0.32066415)
(1.3681848e-05 2.2742829e-05 -0.32063601)
(5.3966874e-06 2.3386742e-05 -0.32064979)
(-2.4548658e-06 2.0177168e-05 -0.32067108)
(5.8716937e-07 5.8716938e-07 -0.32067182)
(-8.056033e-06 -2.0871355e-05 -0.32065933)
(1.222885e-05 -4.5756145e-06 -0.32063688)
(6.7048627e-06 -6.028613e-06 -0.32064712)
(-5.4959958e-06 -3.7034977e-06 -0.32066415)
(-2.0871355e-05 -8.056033e-06 -0.32065933)
(-1.8009181e-05 -1.8009181e-05 -0.32065053)
(1.6768987e-05 1.6768987e-05 -0.94787354)
(4.4612666e-06 -2.0870237e-06 -0.94788529)
(9.7064077e-06 7.042092e-06 -0.94788863)
(2.290666e-05 8.9284312e-06 -0.94788901)
(-4.9946407e-06 8.7995975e-06 -0.94789024)
(-2.0870237e-06 4.4612666e-06 -0.94788529)
(-1.0129076e-05 -1.0129076e-05 -0.94789311)
(2.622959e-05 -7.0323409e-06 -0.94790252)
(2.5542919e-05 -1.1900042e-05 -0.94790243)
(-5.1234744e-06 -6.2154694e-06 -0.94789979)
(7.042092e-06 9.7064077e-06 -0.94788863)
(-7.0323409e-06 2.622959e-05 -0.94790252)
(7.9354414e-06 7.9354414e-06 -0.94791853)
(2.3723532e-05 -1.25664e-05 -0.94791934)
(-1.2049256e-06 -9.6761129e-06 -0.94791221)
(8.9284312e-06 2.290666e-05 -0.94788901)
(-1.1900042e-05 2.5542919e-05 -0.94790243)
(-1.25664e-05 2.3723532e-05 -0.94791934)
(7.9313643e-06 7.9313643e-06 -0.94791802)
(-3.1966162e-06 -1.2069472e-05 -0.947903)
(8.7995975e-06 -4.9946407e-06 -0.94789024)
(-6.2154694e-06 -5.1234744e-06 -0.94789979)
(-9.6761129e-06 -1.2049256e-06 -0.94791221)
(-1.2069472e-05 -3.1966162e-06 -0.947903)
(-1.4538817e-05 -1.4538817e-05 -0.9478931)
(1.2542721e-05 1.2542721e-05 -1.4863284)
(-2.040255e-06 -3.9833491e-06 -1.4863415)
(8.3698982e-06 2.5444036e-06 -1.4863384)
(2.1136089e-05 4.7400122e-06 -1.4863435)
(-5.3920973e-06 5.8609695e-06 -1.4863445)
(-3.9833491e-06 -2.040255e-06 -1.4863415)
(-1.7037731e-05 -1.7037731e-05 -1.4863447)
(2.145494e-05 -2.0622782e-05 -1.4863518)
(2.6110938e-05 -2.4931474e-05 -1.4863557)
(-4.2711401e-06 -1.5269424e-05 -1.4863537)
(2.5444036e-06 8.3698983e-06 -1.4863384)
(-2.0622782e-05 2.145494e-05 -1.4863518)
(4.7615522e-07 4.7615525e-07 -1.486363)
(2.6489447e-05 -1.8048854e-05 -1.486366)
(1.0492698e-06 -8.7071361e-06 -1.4863608)
(4.7400122e-06 2.1136089e-05 -1.4863435)
(-2.4931474e-05 2.6110938e-05 -1.4863557)
(-1.8048854e-05 2.6489447e-05 -1.486366)
(1.6927646e-05 1.6927646e-05 -1.4863642)
(1.9566722e-06 -1.7569938e-06 -1.4863507)
(5.8609694e-06 -5.3920973e-06 -1.4863445)
(-1.5269424e-05 -4.2711401e-06 -1.4863537)
(-8.7071361e-06 1.0492698e-06 -1.4863608)
(-1.7569938e-06 1.9566722e-06 -1.4863507)
(-1.1407157e-05 -1.1407157e-05 -1.4863443)
(7.9727119e-06 7.9727119e-06 -1.5086412)
(-5.6115413e-06 -4.1805794e-06 -1.5086557)
(7.7364492e-06 -1.8694841e-06 -1.5086459)
(1.6858189e-05 7.7997425e-07 -1.5086571)
(-5.6325798e-06 2.6503834e-06 -1.5086574)
(-4.1805794e-06 -5.6115413e-06 -1.5086557)
(-2.0374835e-05 -2.0374835e-05 -1.5086539)
(1.517728e-05 -3.1628382e-05 -1.5086581)
(2.363799e-05 -3.4345175e-05 -1.5086683)
(-3.7621706e-06 -2.257691e-05 -1.5086668)
(-1.8694841e-06 7.7364492e-06 -1.5086459)
(-3.1628382e-05 1.517728e-05 -1.5086581)
(-6.23389e-06 -6.23389e-06 -1.5086636)
(2.5909661e-05 -2.1045815e-05 -1.5086714)
(2.2129301e-06 -6.6837124e-06 -1.5086684)
(7.7997426e-07 1.6858189e-05 -1.5086571)
(-3.4345175e-05 2.363799e-05 -1.5086683)
(-2.1045815e-05 2.5909661e-05 -1.5086714)
(2.3188168e-05 2.3188168e-05 -1.5086729)
(5.8125643e-06 4.4690988e-06 -1.5086616)
(2.6503834e-06 -5.6325798e-06 -1.5086574)
(-2.257691e-05 -3.7621706e-06 -1.5086668)
(-6.6837124e-06 2.21293e-06 -1.5086684)
(4.4690988e-06 5.8125643e-06 -1.5086616)
(-1.0266449e-05 -1.0266449e-05 -1.5086567)
(2.9013863e-06 2.9013864e-06 -0.24031364)
(-6.7763547e-06 -2.7710278e-06 -0.24033015)
(6.9019755e-06 -5.5423644e-06 -0.24031692)
(9.6590907e-06 -2.670322e-06 -0.2403323)
(-5.5808794e-06 -4.1593636e-07 -0.24033005)
(-2.7710278e-06 -6.7763547e-06 -0.24033015)
(-1.9441981e-05 -1.9441981e-05 -0.24032915)
(7.0530342e-06 -3.8256109e-05 -0.24032683)
(1.7348733e-05 -3.9151267e-05 -0.24034173)
(-3.3264937e-06 -2.6265641e-05 -0.24033927)
(-5.5423644e-06 6.9019755e-06 -0.24031692)
(-3.8256109e-05 7.0530342e-06 -0.24032683)
(-1.2807311e-05 -1.2807311e-05 -0.24032196)
(2.1649558e-05 -2.2679463e-05 -0.24033301)
(3.0095382e-06 -3.4814187e-06 -0.24033161)
(-2.670322e-06 9.6590907e-06 -0.2403323)
(-3.9151267e-05 1.7348733e-05 -0.24034173)
(-2.2679463e-05 2.1649558e-05 -0.24033301)
(2.6674625e-05 2.6674625e-05 -0.2403358)
(9.4722024e-06 9.9289553e-06 -0.24032598)
(-4.1593636e-07 -5.5808794e-06 -0.24033005)
(-2.6265641e-05 -3.3264937e-06 -0.24033927)
(-3.4814187e-06 3.0095382e-06 -0.24033161)
(9.9289553e-06 9.4722024e-06 -0.24032598)
(-8.1542417e-06 -8.1542417e-06 -0.24031555)
(-3.0332434e-06 -3.0332434e-06 3.4548997)
(-8.9004005e-06 -3.5150428e-06 3.4548909)
(5.5772509e-06 -8.4719035e-06 3.4549006)
(3.728279e-06 -5.5011321e-06 3.4548865)
(-4.1330048e-06 -3.4916382e-06 3.454895)
(-3.5150428e-06 -8.9004005e-06 3.4548909)
(-1.7058391e-05 -1.7058391e-05 3.4548892)
(2.598117e-06 -3.6659992e-05 3.4548983)
(1.1198677e-05 -3.5055488e-05 3.4548837)
(-2.123511e-06 -2.4136892e-05 3.4548914)
(-8.4719035e-06 5.5772508e-06 3.4549006)
(-3.6659992e-05 2.5981169e-06 3.4548983)
(-1.2419846e-05 -1.2419846e-05 3.4549159)
(1.6251379e-05 -1.512404e-05 3.4549058)
(3.1460587e-06 6.6089673e-06 3.4549068)
(-5.5011321e-06 3.728279e-06 3.4548865)
(-3.5055488e-05 1.1198677e-05 3.4548837)
(-1.512404e-05 1.6251379e-05 3.4549058)
(3.022749e-05 3.0227491e-05 3.454903)
(1.2365161e-05 2.0533014e-05 3.4549058)
(-3.4916382e-06 -4.1330048e-06 3.454895)
(-2.4136892e-05 -2.123511e-06 3.4548914)
(6.6089674e-06 3.1460586e-06 3.4549068)
(2.0533014e-05 1.2365161e-05 3.4549058)
(-3.3169255e-06 -3.3169255e-06 3.4549174)
(-2.9792269e-06 -2.9792269e-06 -1.5187528)
(-5.9656248e-06 -3.9502653e-06 -1.5187408)
(2.4713216e-06 -7.0275143e-06 -1.5187349)
(4.07988e-06 -4.5046005e-06 -1.5187495)
(7.4515979e-08 -2.769552e-06 -1.5187456)
(-3.9502653e-06 -5.9656248e-06 -1.5187408)
(-1.2038056e-05 -1.2038056e-05 -1.5187255)
(1.6398188e-06 -2.2874741e-05 -1.5187054)
(1.0466823e-05 -1.9801429e-05 -1.5187305)
(1.8095645e-06 -1.4461276e-05 -1.5187338)
(-7.0275143e-06 2.4713216e-06 -1.5187349)
(-2.2874741e-05 1.6398188e-06 -1.5187054)
(-5.2920512e-06 -5.2920511e-06 -1.5186647)
(1.2493345e-05 -3.4596639e-06 -1.5186865)
(3.6346175e-06 1.0892597e-05 -1.5187006)
(-4.5046005e-06 4.07988e-06 -1.5187495)
(-1.9801429e-05 1.0466823e-05 -1.5187305)
(-3.4596639e-06 1.2493345e-05 -1.5186865)
(2.6651472e-05 2.6651472e-05 -1.5187135)
(1.1377738e-05 2.0522634e-05 -1.51876)
(-2.769552e-06 7.4515981e-08 -1.5187456)
(-1.4461276e-05 1.8095645e-06 -1.5187338)
(1.0892597e-05 3.6346175e-06 -1.5187006)
(2.0522634e-05 1.1377738e-05 -1.51876)
(-4.5127421e-07 -4.5127419e-07 -1.5187553)
)
;

boundaryField
{
    wall_minX
    {
        type            extrapolatedCalculated;
        value           nonuniform List<vector> 
100
(
(6.0360571e-12 3.2892465e-06 -0.61033582)
(-1.3877788e-15 4.5795399e-06 -0.61031864)
(0 -3.3403181e-06 -0.61032079)
(0 -4.5543232e-06 -0.61033166)
(0 -1.0455527e-06 -0.61033788)
(0 7.3088908e-06 -0.55851717)
(0 8.8017403e-06 -0.5585077)
(0 -9.5048615e-06 -0.55851147)
(0 -1.1968625e-05 -0.55851868)
(0 -3.0835727e-06 -0.55852457)
(0 9.5982017e-06 -0.464778)
(0 1.0277415e-05 -0.46477144)
(0 -1.4314842e-05 -0.46477433)
(0 -1.7654888e-05 -0.46477845)
(0 -4.9732893e-06 -0.46478338)
(0 1.1686001e-05 -0.32905706)
(0 1.2470184e-05 -0.32905057)
(0 -1.6518933e-05 -0.32905149)
(0 -2.1019715e-05 -0.32905242)
(0 -6.3730668e-06 -0.32905584)
(0 1.3921364e-05 -0.15793679)
(0 1.5851118e-05 -0.15792997)
(0 -1.6162545e-05 -0.15792929)
(0 -2.2008652e-05 -0.15792722)
(0 -7.2513566e-06 -0.15792917)
(0 1.623144e-05 0.038597958)
(0 1.9965547e-05 0.038604848)
(0 -1.376404e-05 0.038606435)
(0 -2.0899996e-05 0.038611278)
(0 -7.678379e-06 0.0386106)
(0 1.8514978e-05 0.24617739)
(0 2.4327991e-05 0.24618404)
(0 -9.7333054e-06 0.24618585)
(0 -1.7843513e-05 0.24619332)
(0 -7.7031224e-06 0.24619377)
(0 2.0664719e-05 0.44494799)
(0 2.8421356e-05 0.44495403)
(0 -4.4920196e-06 0.44495528)
(0 -1.2977538e-05 0.44496515)
(0 -7.3741605e-06 0.44496655)
(0 2.2541939e-05 0.60858967)
(0 3.1618861e-05 0.60859461)
(0 1.3805656e-06 0.60859442)
(0 -6.5736146e-06 0.60860618)
(0 -6.7654857e-06 0.60860825)
(0 2.3956256e-05 0.7039353)
(0 3.3169827e-05 0.70393848)
(0 7.0775025e-06 0.70393598)
(0 8.5111682e-07 0.70394872)
(0 -5.9939617e-06 0.70395103)
(0 2.4665666e-05 0.6921288)
(0 3.2299681e-05 0.69212948)
(0 1.1619769e-05 0.69212409)
(0 8.4845193e-06 0.6921365)
(0 -5.222712e-06 0.69213853)
(0 2.4410655e-05 0.53301603)
(0 2.8459001e-05 0.53301352)
(0 1.4092502e-05 0.53300544)
(0 1.5288117e-05 0.53301598)
(0 -4.6409106e-06 0.5330172)
(0 2.2991641e-05 0.19564238)
(0 2.170392e-05 0.19563633)
(0 1.4072414e-05 0.19562698)
(0 2.0241368e-05 0.19563434)
(0 -4.4097253e-06 0.19563443)
(0 2.0375819e-05 -0.32062231)
(0 1.305438e-05 -0.32063164)
(0 1.2096903e-05 -0.32063955)
(0 2.2742829e-05 -0.32063601)
(0 -4.5756145e-06 -0.32063688)
(0 1.6768987e-05 -0.94787354)
(0 4.4612666e-06 -0.94788529)
(0 9.7064077e-06 -0.94788863)
(0 2.290666e-05 -0.94788901)
(0 -4.9946407e-06 -0.94789024)
(0 1.2542721e-05 -1.4863284)
(0 -2.040255e-06 -1.4863415)
(0 8.3698983e-06 -1.4863384)
(0 2.1136089e-05 -1.4863435)
(0 -5.3920973e-06 -1.4863445)
(0 7.9727119e-06 -1.5086412)
(0 -5.6115413e-06 -1.5086557)
(0 7.7364492e-06 -1.5086459)
(0 1.6858189e-05 -1.5086571)
(0 -5.6325798e-06 -1.5086574)
(0 2.9013864e-06 -0.24031364)
(0 -6.7763547e-06 -0.24033015)
(0 6.9019755e-06 -0.24031692)
(0 9.6590907e-06 -0.2403323)
(0 -5.5808794e-06 -0.24033005)
(0 -3.0332434e-06 3.4548997)
(0 -8.9004005e-06 3.4548909)
(0 5.5772508e-06 3.4549006)
(0 3.728279e-06 3.4548865)
(0 -4.1330048e-06 3.454895)
(0 -2.9792269e-06 -1.5187528)
(0 -5.9656248e-06 -1.5187408)
(0 2.4713216e-06 -1.5187349)
(0 4.07988e-06 -1.5187495)
(0 7.4515981e-08 -1.5187456)
)
;
    }
    wall_maxX
    {
        type            extrapolatedCalculated;
        value           nonuniform List<vector> 
100
(
(-1.7520707e-14 1.364444e-06 -0.61033788)
(0 1.6511191e-06 -0.61033066)
(0 -8.1372622e-07 -0.61033147)
(0 -7.4628106e-07 -0.61033266)
(0 -2.1873448e-07 -0.61033493)
(0 3.1325189e-06 -0.55852457)
(0 4.6706596e-06 -0.55851938)
(0 -5.6676356e-07 -0.55851749)
(0 -2.9542871e-06 -0.55851725)
(0 -1.6104283e-06 -0.55852286)
(0 4.8262103e-06 -0.46478338)
(0 8.726686e-06 -0.46477776)
(0 1.3165058e-06 -0.4647738)
(0 -6.1142685e-06 -0.46477279)
(0 -3.9622691e-06 -0.46478022)
(0 6.8796757e-06 -0.32905584)
(0 1.4254566e-05 -0.32904928)
(0 4.4049141e-06 -0.32904381)
(0 -9.3728878e-06 -0.32904225)
(0 -6.5618333e-06 -0.32905006)
(0 9.2004905e-06 -0.15792917)
(0 2.0759419e-05 -0.15792202)
(0 8.3446716e-06 -0.1579158)
(0 -1.2371317e-05 -0.15791378)
(0 -9.1715365e-06 -0.15792147)
(0 1.1645864e-05 0.0386106)
(0 2.7626451e-05 0.038617911)
(0 1.2652761e-05 0.038624081)
(0 -1.5038696e-05 0.03862635)
(0 -1.1689202e-05 0.038618993)
(0 1.4074777e-05 0.24619377)
(0 3.4240804e-05 0.24620078)
(0 1.6783691e-05 0.24620602)
(0 -1.7459392e-05 0.24620822)
(0 -1.4076295e-05 0.2462013)
(0 1.6316875e-05 0.44496655)
(0 3.9878537e-05 0.44497266)
(0 2.009727e-05 0.44497594)
(0 -1.9762842e-05 0.44497772)
(0 -1.6304592e-05 0.44497136)
(0 1.814343e-05 0.60860825)
(0 4.3628753e-05 0.60861266)
(0 2.1845114e-05 0.60861278)
(0 -2.2043408e-05 0.60861381)
(0 -1.8316609e-05 0.60860828)
(0 1.926042e-05 0.70395103)
(0 4.4413104e-05 0.70395283)
(0 2.1241431e-05 0.70394857)
(0 -2.4267485e-05 0.70394866)
(0 -1.9990962e-05 0.70394447)
(0 1.9342909e-05 0.69213853)
(0 4.1165702e-05 0.69213684)
(0 1.7674293e-05 0.69212735)
(0 -2.6146789e-05 0.69212669)
(0 -2.1113162e-05 0.69212462)
(0 1.8134046e-05 0.5330172)
(0 3.3240225e-05 0.53301161)
(0 1.109499e-05 0.53299708)
(0 -2.6998411e-05 0.53299648)
(0 -2.1369497e-05 0.53299754)
(0 1.562033e-05 0.19563443)
(0 2.1050039e-05 0.19562558)
(0 2.5406177e-06 0.1956079)
(0 -2.5684891e-05 0.19560899)
(0 -2.0403976e-05 0.19561403)
(0 1.222885e-05 -0.32063688)
(0 6.7048627e-06 -0.32064712)
(0 -5.4959958e-06 -0.32066415)
(0 -2.0871355e-05 -0.32065933)
(0 -1.8009181e-05 -0.32065053)
(0 8.7995975e-06 -0.94789024)
(0 -6.2154694e-06 -0.94789979)
(0 -9.6761129e-06 -0.94791221)
(0 -1.2069472e-05 -0.947903)
(0 -1.4538817e-05 -0.9478931)
(0 5.8609695e-06 -1.4863445)
(0 -1.5269424e-05 -1.4863537)
(0 -8.7071361e-06 -1.4863608)
(0 -1.7569938e-06 -1.4863507)
(0 -1.1407157e-05 -1.4863443)
(0 2.6503834e-06 -1.5086574)
(0 -2.257691e-05 -1.5086668)
(0 -6.6837124e-06 -1.5086684)
(0 4.4690988e-06 -1.5086616)
(0 -1.0266449e-05 -1.5086567)
(0 -4.1593636e-07 -0.24033005)
(0 -2.6265641e-05 -0.24033927)
(0 -3.4814187e-06 -0.24033161)
(0 9.9289553e-06 -0.24032598)
(0 -8.1542417e-06 -0.24031555)
(0 -3.4916382e-06 3.454895)
(0 -2.4136892e-05 3.4548914)
(0 6.6089673e-06 3.4549068)
(0 2.0533014e-05 3.4549058)
(0 -3.3169255e-06 3.4549174)
(0 -2.769552e-06 -1.5187456)
(0 -1.4461276e-05 -1.5187338)
(0 1.0892597e-05 -1.5187006)
(0 2.0522634e-05 -1.51876)
(0 -4.5127419e-07 -1.5187553)
)
;
    }
    wall_minY
    {
        type            extrapolatedCalculated;
        value           nonuniform List<vector> 
100
(
(3.2892465e-06 6.0360571e-12 -0.61033582)
(7.3088908e-06 0 -0.55851717)
(9.5982017e-06 0 -0.464778)
(1.1686001e-05 0 -0.32905706)
(1.3921364e-05 0 -0.15793679)
(1.623144e-05 0 0.038597958)
(1.8514978e-05 0 0.24617739)
(2.0664719e-05 0 0.44494799)
(2.2541939e-05 0 0.60858967)
(2.3956256e-05 0 0.7039353)
(2.4665666e-05 0 0.6921288)
(2.4410655e-05 0 0.53301603)
(2.2991641e-05 0 0.19564238)
(2.0375819e-05 0 -0.32062231)
(1.6768987e-05 0 -0.94787354)
(1.2542721e-05 0 -1.4863284)
(7.9727119e-06 0 -1.5086412)
(2.9013863e-06 0 -0.24031364)
(-3.0332434e-06 0 3.4548997)
(-2.9792269e-06 0 -1.5187528)
(4.5795398e-06 -3.0565828e-13 -0.61031864)
(8.8017403e-06 0 -0.5585077)
(1.0277415e-05 0 -0.46477144)
(1.2470184e-05 0 -0.32905057)
(1.5851118e-05 0 -0.15792997)
(1.9965547e-05 0 0.038604848)
(2.4327991e-05 0 0.24618404)
(2.8421356e-05 0 0.44495403)
(3.1618861e-05 0 0.60859461)
(3.3169827e-05 0 0.70393848)
(3.2299681e-05 0 0.69212948)
(2.8459001e-05 0 0.53301352)
(2.170392e-05 0 0.19563633)
(1.305438e-05 0 -0.32063164)
(4.4612666e-06 0 -0.94788529)
(-2.040255e-06 0 -1.4863415)
(-5.6115413e-06 0 -1.5086557)
(-6.7763547e-06 0 -0.24033015)
(-8.9004005e-06 0 3.4548909)
(-5.9656248e-06 0 -1.5187408)
(-3.3403181e-06 -3.5154171e-13 -0.61032079)
(-9.5048615e-06 0 -0.55851147)
(-1.4314842e-05 0 -0.46477433)
(-1.6518933e-05 0 -0.32905149)
(-1.6162545e-05 0 -0.15792929)
(-1.376404e-05 0 0.038606435)
(-9.7333054e-06 0 0.24618585)
(-4.4920196e-06 0 0.44495528)
(1.3805656e-06 0 0.60859442)
(7.0775026e-06 0 0.70393598)
(1.1619769e-05 0 0.69212409)
(1.4092502e-05 0 0.53300544)
(1.4072414e-05 0 0.19562698)
(1.2096903e-05 0 -0.32063955)
(9.7064077e-06 0 -0.94788863)
(8.3698982e-06 0 -1.4863384)
(7.7364492e-06 0 -1.5086459)