/*--------------------------------*- C++ -*----------------------------------*\
| =========                 |                                                 |
| \\      /  F ield         | OpenFOAM: The Open Source CFD Toolbox           |
|  \\    /   O peration     | Version:  v2106                                 |
|   \\  /    A nd           | Website:  www.openfoam.com                      |
|    \\/     M anipulation  |                                                 |
\*---------------------------------------------------------------------------*/
FoamFile
{
    version     2.0;
    format      ascii;
    arch        "LSB;label=32;scalar=64";
    class       volScalarField;
    location    "50";
    object      Tmode1;
}
// * * * * * * * * * * * * * * * * * * * * * * * * * * * * * * * * * * * * * //

dimensions      [0 0 0 0 0 0 0];

internalField   nonuniform List<scalar> 
4000
(
0.016066934
0.016066934
0.016066933
0.016066936
0.016066937
0.016066936
0.016066935
0.016066934
0.016066933
0.016066933
0.016066934
0.016066932
0.016066934
0.016066936
0.016066937
0.016066936
0.016066935
0.016066934
0.016066933
0.016066933
0.016066933
0.016066934
0.016066935
0.016066937
0.016066937
0.016066937
0.016066935
0.016066934
0.016066933
0.016066933
0.016066936
0.016066936
0.016066937
0.016066939
0.016066939
0.016066938
0.016066937
0.016066936
0.016066935
0.016066935
0.016066937
0.016066937
0.016066937
0.016066939
0.01606694
0.016066939
0.016066938
0.016066937
0.016066936
0.016066935
0.016066936
0.016066936
0.016066937
0.016066938
0.016066939
0.016066938
0.016066938
0.016066937
0.016066936
0.016066935
0.016066935
0.016066935
0.016066935
0.016066937
0.016066938
0.016066938
0.016066937
0.016066936
0.016066935
0.016066935
0.016066934
0.016066934
0.016066934
0.016066936
0.016066937
0.016066937
0.016066936
0.016066935
0.016066934
0.016066934
0.016066933
0.016066933
0.016066933
0.016066935
0.016066936
0.016066936
0.016066935
0.016066934
0.016066933
0.016066933
0.016066933
0.016066933
0.016066933
0.016066935
0.016066935
0.016066935
0.016066935
0.016066934
0.016066933
0.016066933
0.014163129
0.014163129
0.014163129
0.014163136
0.014163138
0.014163136
0.014163133
0.01416313
0.014163128
0.014163126
0.014163129
0.014163128
0.014163132
0.014163138
0.014163139
0.014163137
0.014163133
0.01416313
0.014163128
0.014163127
0.014163129
0.014163132
0.014163136
0.014163141
0.014163142
0.014163139
0.014163136
0.014163132
0.01416313
0.014163129
0.014163136
0.014163138
0.014163141
0.014163145
0.014163146
0.014163144
0.014163141
0.014163137
0.014163134
0.014163133
0.014163138
0.014163139
0.014163142
0.014163146
0.014163147
0.014163145
0.014163143
0.014163139
0.014163136
0.014163134
0.014163136
0.014163137
0.014163139
0.014163144
0.014163145
0.014163144
0.014163142
0.014163139
0.014163136
0.014163134
0.014163133
0.014163133
0.014163136
0.014163141
0.014163143
0.014163142
0.01416314
0.014163137
0.014163134
0.014163133
0.01416313
0.01416313
0.014163132
0.014163137
0.014163139
0.014163139
0.014163137
0.014163135
0.014163132
0.01416313
0.014163128
0.014163128
0.01416313
0.014163134
0.014163136
0.014163136
0.014163134
0.014163132
0.014163129
0.014163128
0.014163126
0.014163127
0.014163129
0.014163133
0.014163134
0.014163134
0.014163133
0.01416313
0.014163128
0.014163127
0.012266117
0.012266118
0.012266121
0.01226613
0.012266133
0.012266129
0.012266124
0.012266119
0.012266115
0.012266113
0.012266118
0.012266118
0.012266124
0.012266133
0.012266135
0.012266131
0.012266125
0.01226612
0.012266116
0.012266115
0.012266121
0.012266124
0.012266131
0.012266138
0.012266139
0.012266135
0.01226613
0.012266124
0.01226612
0.012266118
0.01226613
0.012266133
0.012266138
0.012266145
0.012266146
0.012266142
0.012266137
0.012266131
0.012266126
0.012266123
0.012266133
0.012266135
0.012266139
0.012266146
0.012266147
0.012266144
0.01226614
0.012266134
0.012266129
0.012266126
0.012266129
0.012266131
0.012266135
0.012266142
0.012266144
0.012266142
0.012266139
0.012266134
0.012266129
0.012266126
0.012266124
0.012266125
0.01226613
0.012266137
0.01226614
0.012266139
0.012266136
0.012266131
0.012266126
0.012266124
0.012266119
0.01226612
0.012266124
0.012266131
0.012266134
0.012266134
0.012266131
0.012266126
0.012266122
0.012266119
0.012266115
0.012266116
0.01226612
0.012266126
0.012266129
0.012266129
0.012266126
0.012266122
0.012266117
0.012266115
0.012266113
0.012266115
0.012266118
0.012266123
0.012266126
0.012266126
0.012266124
0.012266119
0.012266115
0.012266113
0.010380508
0.01038051
0.010380514
0.010380525
0.010380528
0.010380523
0.010380516
0.010380509
0.010380504
0.010380501
0.01038051
0.01038051
0.010380519
0.010380529
0.010380531
0.010380526
0.010380519
0.010380511
0.010380506
0.010380504
0.010380514
0.010380519
0.010380527
0.010380536
0.010380537
0.010380532
0.010380524
0.010380516
0.01038051
0.010380508
0.010380525
0.010380529
0.010380536
0.010380544
0.010380545
0.010380541
0.010380534
0.010380525
0.010380518
0.010380515
0.010380528
0.010380531
0.010380537
0.010380545
0.010380547
0.010380544
0.010380538
0.01038053
0.010380523
0.010380519
0.010380523
0.010380526
0.010380532
0.010380541
0.010380544
0.010380542
0.010380537
0.010380529
0.010380523
0.010380519
0.010380516
0.010380519
0.010380524
0.010380534
0.010380538
0.010380537
0.010380533
0.010380526
0.010380519
0.010380516
0.010380509
0.010380511
0.010380516
0.010380525
0.01038053
0.010380529
0.010380526
0.010380518
0.010380512
0.010380508
0.010380504
0.010380506
0.01038051
0.010380518
0.010380523
0.010380523
0.010380519
0.010380512
0.010380505
0.010380503
0.010380501
0.010380504
0.010380508
0.010380515
0.010380519
0.010380519
0.010380516
0.010380508
0.010380503
0.010380501
0.0085110274
0.0085110302
0.008511035
0.0085110476
0.0085110518
0.0085110462
0.0085110374
0.0085110282
0.0085110212
0.0085110174
0.0085110302
0.0085110311
0.0085110408
0.0085110534
0.0085110555
0.0085110493
0.0085110401
0.0085110301
0.0085110232
0.0085110207
0.008511035
0.0085110408
0.0085110504
0.0085110613
0.0085110628
0.0085110567
0.0085110475
0.0085110365
0.0085110287
0.0085110264
0.0085110476
0.0085110534
0.0085110613
0.0085110714
0.0085110731
0.0085110679
0.0085110593
0.0085110478
0.0085110387
0.0085110349
0.0085110518
0.0085110555
0.0085110628
0.0085110731
0.0085110758
0.008511072
0.0085110645
0.0085110536
0.0085110445
0.0085110402
0.0085110462
0.0085110493
0.0085110567
0.0085110679
0.008511072
0.0085110696
0.0085110634
0.0085110535
0.0085110448
0.0085110407
0.0085110374
0.0085110401
0.0085110475
0.0085110593
0.0085110645
0.0085110634
0.0085110581
0.0085110486
0.0085110399
0.0085110356
0.0085110282
0.0085110301
0.0085110365
0.0085110478
0.0085110536
0.0085110535
0.0085110486
0.0085110389
0.00851103
0.0085110257
0.0085110212
0.0085110232
0.0085110287
0.0085110387
0.0085110445
0.0085110448
0.0085110399
0.00851103
0.0085110214
0.008511019
0.0085110174
0.0085110207
0.0085110264
0.0085110349
0.0085110402
0.0085110407
0.0085110356
0.0085110257
0.008511019
0.0085110167
0.0066625701
0.0066625733
0.006662579
0.0066625934
0.0066625983
0.006662592
0.0066625815
0.0066625702
0.0066625615
0.006662557
0.0066625733
0.0066625745
0.0066625856
0.0066626
0.0066626028
0.0066625957
0.0066625848
0.0066625724
0.0066625639
0.0066625608
0.006662579
0.0066625856
0.0066625966
0.0066626093
0.0066626113
0.0066626046
0.0066625936
0.0066625801
0.0066625706
0.0066625678
0.0066625934
0.0066626
0.0066626093
0.006662621
0.0066626235
0.0066626179
0.0066626076
0.0066625935
0.0066625824
0.006662578
0.0066625983
0.0066626028
0.0066626113
0.0066626235
0.0066626273
0.0066626233
0.0066626145
0.006662601
0.0066625898
0.0066625847
0.006662592
0.0066625957
0.0066626046
0.0066626179
0.0066626233
0.0066626211
0.0066626138
0.0066626014
0.0066625906
0.0066625855
0.0066625815
0.0066625848
0.0066625936
0.0066626076
0.0066626145
0.0066626138
0.0066626075
0.0066625954
0.0066625845
0.006662579
0.0066625702
0.0066625724
0.0066625801
0.0066625935
0.006662601
0.0066626014
0.0066625954
0.006662583
0.0066625718
0.0066625665
0.0066625615
0.0066625639
0.0066625706
0.0066625824
0.0066625898
0.0066625906
0.0066625845
0.0066625718
0.0066625611
0.0066625586
0.006662557
0.0066625608
0.0066625678
0.006662578
0.0066625847
0.0066625855
0.006662579
0.0066625665
0.0066625586
0.0066625559
0.0048402478
0.0048402513
0.004840258
0.0048402741
0.0048402801
0.0048402731
0.0048402612
0.0048402479
0.0048402376
0.0048402324
0.0048402513
0.0048402528
0.0048402652
0.0048402816
0.0048402852
0.0048402776
0.0048402651
0.0048402505
0.0048402404
0.0048402368
0.004840258
0.0048402652
0.0048402778
0.0048402922
0.0048402951
0.004840288
0.0048402754
0.0048402595
0.0048402483
0.0048402451
0.0048402741
0.0048402816
0.0048402922
0.0048403058
0.0048403093
0.0048403035
0.0048402917
0.004840275
0.0048402621
0.004840257
0.0048402801
0.0048402852
0.0048402951
0.0048403093
0.0048403143
0.0048403105
0.0048403004
0.0048402844
0.0048402712
0.0048402653
0.0048402731
0.0048402776
0.004840288
0.0048403035
0.0048403105
0.0048403086
0.0048403003
0.0048402855
0.0048402727
0.0048402666
0.0048402612
0.0048402651
0.0048402754
0.0048402917
0.0048403004
0.0048403003
0.0048402931
0.0048402786
0.0048402655
0.0048402587
0.0048402479
0.0048402505
0.0048402595
0.004840275
0.0048402844
0.0048402855
0.0048402786
0.0048402636
0.00484025
0.0048402437
0.0048402376
0.0048402404
0.0048402483
0.0048402621
0.0048402712
0.0048402727
0.0048402655
0.00484025
0.0048402372
0.0048402345
0.0048402324
0.0048402368
0.0048402451
0.004840257
0.0048402653
0.0048402666
0.0048402587
0.0048402437
0.0048402345
0.0048402314
0.0030494416
0.0030494455
0.0030494532
0.0030494708
0.003049478
0.0030494708
0.0030494575
0.0030494424
0.0030494306
0.0030494247
0.0030494455
0.0030494473
0.003049461
0.0030494793
0.003049484
0.0030494759
0.003049462
0.0030494454
0.0030494338
0.0030494297
0.0030494532
0.003049461
0.003049475
0.0030494913
0.0030494953
0.0030494879
0.0030494739
0.0030494557
0.003049443
0.0030494394
0.0030494708
0.0030494793
0.0030494913
0.0030495067
0.0030495115
0.0030495056
0.0030494925
0.0030494735
0.0030494588
0.0030494532
0.003049478
0.003049484
0.0030494953
0.0030495115
0.003049518
0.0030495144
0.0030495032
0.0030494849
0.0030494699
0.0030494632
0.0030494708
0.0030494759
0.0030494879
0.0030495056
0.0030495144
0.0030495131
0.0030495039
0.0030494869
0.0030494721
0.0030494651
0.0030494575
0.003049462
0.0030494739
0.0030494925
0.0030495032
0.0030495039
0.0030494959
0.0030494791
0.0030494639
0.0030494559
0.0030494424
0.0030494454
0.0030494557
0.0030494735
0.0030494849
0.0030494869
0.0030494791
0.0030494616
0.0030494457
0.0030494383
0.0030494306
0.0030494338
0.003049443
0.0030494588
0.0030494699
0.0030494721
0.0030494639
0.0030494457
0.0030494309
0.003049428
0.0030494247
0.0030494297
0.0030494394
0.0030494532
0.0030494632
0.0030494651
0.0030494559
0.0030494383
0.003049428
0.0030494245
0.0012958536
0.0012958577
0.0012958664
0.0012958857
0.0012958943
0.0012958868
0.0012958724
0.0012958556
0.0012958423
0.001295836
0.0012958577
0.0012958598
0.0012958748
0.0012958951
0.001295901
0.0012958928
0.0012958776
0.001295859
0.001295846
0.0012958415
0.0012958664
0.0012958748
0.0012958904
0.0012959086
0.0012959138
0.0012959062
0.001295891
0.0012958707
0.0012958567
0.0012958526
0.0012958857
0.0012958951
0.0012959086
0.0012959259
0.001295932
0.0012959262
0.0012959119
0.0012958907
0.0012958745
0.0012958683
0.0012958943
0.001295901
0.0012959138
0.001295932
0.0012959402
0.001295937
0.0012959249
0.0012959044
0.0012958876
0.0012958801
0.0012958868
0.0012958928
0.0012959062
0.0012959262
0.001295937
0.0012959365
0.0012959265
0.0012959073
0.0012958908
0.0012958828
0.0012958724
0.0012958776
0.001295891
0.0012959119
0.0012959249
0.0012959265
0.0012959179
0.0012958989
0.0012958816
0.0012958724
0.0012958556
0.001295859
0.0012958707
0.0012958907
0.0012959044
0.0012959073
0.0012958989
0.0012958789
0.0012958608
0.0012958525
0.0012958423
0.001295846
0.0012958567
0.0012958745
0.0012958876
0.0012958908
0.0012958816
0.0012958608
0.0012958442
0.001295841
0.001295836
0.0012958415
0.0012958526
0.0012958683
0.0012958801
0.0012958828
0.0012958724
0.0012958525
0.001295841
0.0012958371
-0.00041443903
-0.00041443462
-0.00041442477
-0.00041440401
-0.00041439386
-0.00041440138
-0.00041441691
-0.00041443528
-0.00041444983
-0.00041445656
-0.00041443462
-0.00041443206
-0.00041441588
-0.00041439364
-0.00041438633
-0.00041439469
-0.00041441102
-0.00041443134
-0.00041444567
-0.00041445066
-0.00041442477
-0.00041441588
-0.00041439882
-0.0004143787
-0.00041437207
-0.00041437964
-0.00041439608
-0.00041441821
-0.00041443351
-0.00041443794
-0.00041440401
-0.00041439364
-0.0004143787
-0.00041435949
-0.00041435178
-0.00041435736
-0.00041437276
-0.00041439603
-0.00041441362
-0.00041442031
-0.00041439386
-0.00041438633
-0.00041437207
-0.00041435178
-0.00041434172
-0.00041434439
-0.00041435745
-0.00041437998
-0.00041439837
-0.00041440655
-0.00041440138
-0.00041439469
-0.00041437964
-0.00041435736
-0.00041434439
-0.00041434406
-0.0004143547
-0.00041437587
-0.00041439411
-0.00041440311
-0.00041441691
-0.00041441102
-0.00041439608
-0.00041437276
-0.00041435745
-0.0004143547
-0.00041436397
-0.00041438503
-0.00041440417
-0.00041441457
-0.00041443528
-0.00041443134
-0.00041441821
-0.00041439603
-0.00041437998
-0.00041437587
-0.00041438503
-0.00041440723
-0.00041442738
-0.0004144367
-0.00041444983
-0.00041444567
-0.00041443351
-0.00041441362
-0.00041439837
-0.00041439411
-0.00041440417
-0.00041442738
-0.00041444578
-0.00041444921
-0.00041445656
-0.00041445066
-0.00041443794
-0.00041442031
-0.00041440655
-0.00041440311
-0.00041441457
-0.0004144367
-0.00041444921
-0.00041445349
-0.0020749269
-0.0020749222
-0.0020749113
-0.0020748891
-0.0020748773
-0.0020748847
-0.0020749012
-0.002074921
-0.0020749368
-0.0020749438
-0.0020749222
-0.0020749192
-0.0020749019
-0.0020748778
-0.0020748689
-0.0020748772
-0.0020748946
-0.0020749166
-0.0020749321
-0.0020749375
-0.0020749113
-0.0020749019
-0.0020748833
-0.0020748613
-0.0020748531
-0.0020748606
-0.0020748781
-0.002074902
-0.0020749184
-0.0020749232
-0.0020748891
-0.0020748778
-0.0020748613
-0.0020748402
-0.0020748308
-0.002074836
-0.0020748525
-0.0020748776
-0.0020748965
-0.0020749036
-0.0020748773
-0.0020748689
-0.0020748531
-0.0020748308
-0.0020748187
-0.0020748207
-0.0020748346
-0.0020748591
-0.0020748789
-0.0020748878
-0.0020748847
-0.0020748772
-0.0020748606
-0.002074836
-0.0020748207
-0.0020748194
-0.0020748307
-0.0020748537
-0.0020748735
-0.0020748834
-0.0020749012
-0.0020748946
-0.0020748781
-0.0020748525
-0.0020748346
-0.0020748307
-0.0020748405
-0.0020748634
-0.0020748844
-0.0020748959
-0.002074921
-0.0020749166
-0.002074902
-0.0020748776
-0.0020748591
-0.0020748537
-0.0020748634
-0.0020748878
-0.0020749098
-0.00207492
-0.0020749368
-0.0020749321
-0.0020749184
-0.0020748965
-0.0020748789
-0.0020748735
-0.0020748844
-0.0020749098
-0.0020749298
-0.0020749335
-0.0020749438
-0.0020749375
-0.0020749232
-0.0020749036
-0.0020748878
-0.0020748834
-0.0020748959
-0.00207492
-0.0020749335
-0.0020749382
-0.0036786098
-0.0036786048
-0.0036785927
-0.0036785693
-0.0036785556
-0.0036785628
-0.0036785802
-0.0036786014
-0.0036786182
-0.0036786254
-0.0036786048
-0.0036786013
-0.0036785829
-0.0036785569
-0.0036785464
-0.0036785545
-0.0036785729
-0.0036785963
-0.003678613
-0.0036786188
-0.0036785927
-0.0036785829
-0.0036785629
-0.003678539
-0.0036785291
-0.0036785363
-0.0036785549
-0.0036785803
-0.0036785977
-0.0036786028
-0.0036785693
-0.0036785569
-0.003678539
-0.003678516
-0.0036785047
-0.0036785095
-0.0036785269
-0.0036785538
-0.0036785737
-0.0036785812
-0.0036785556
-0.0036785464
-0.0036785291
-0.0036785047
-0.0036784905
-0.0036784917
-0.0036785064
-0.0036785326
-0.0036785537
-0.0036785632
-0.0036785628
-0.0036785545
-0.0036785363
-0.0036785095
-0.0036784917
-0.0036784893
-0.0036785011
-0.0036785258
-0.0036785471
-0.0036785579
-0.0036785802
-0.0036785729
-0.0036785549
-0.0036785269
-0.0036785064
-0.0036785011
-0.0036785114
-0.0036785361
-0.0036785587
-0.0036785714
-0.0036786014
-0.0036785963
-0.0036785803
-0.0036785538
-0.0036785326
-0.0036785258
-0.0036785361
-0.0036785624
-0.0036785862
-0.0036785973
-0.0036786182
-0.003678613
-0.0036785977
-0.0036785737
-0.0036785537
-0.0036785471
-0.0036785587
-0.0036785862
-0.0036786077
-0.0036786116
-0.0036786254
-0.0036786188
-0.0036786028
-0.0036785812
-0.0036785632
-0.0036785579
-0.0036785714
-0.0036785973
-0.0036786116
-0.0036786166
-0.0052179338
-0.0052179287
-0.0052179154
-0.0052178908
-0.0052178753
-0.005217882
-0.0052179001
-0.0052179226
-0.0052179404
-0.0052179477
-0.0052179287
-0.0052179247
-0.0052179053
-0.0052178775
-0.0052178651
-0.0052178729
-0.0052178921
-0.0052179169
-0.0052179347
-0.0052179408
-0.0052179154
-0.0052179053
-0.0052178838
-0.0052178581
-0.0052178463
-0.0052178531
-0.0052178726
-0.0052178994
-0.0052179176
-0.005217923
-0.0052178908
-0.0052178775
-0.0052178581
-0.0052178332
-0.0052178199
-0.0052178241
-0.0052178424
-0.0052178708
-0.0052178916
-0.0052178994
-0.0052178753
-0.0052178651
-0.0052178463
-0.0052178199
-0.0052178033
-0.0052178036
-0.0052178191
-0.0052178468
-0.0052178691
-0.0052178792
-0.005217882
-0.0052178729
-0.0052178531
-0.0052178241
-0.0052178036
-0.0052178
-0.0052178123
-0.0052178386
-0.0052178612
-0.0052178728
-0.0052179001
-0.0052178921
-0.0052178726
-0.0052178424
-0.0052178191
-0.0052178123
-0.005217823
-0.0052178494
-0.0052178734
-0.0052178872
-0.0052179226
-0.0052179169
-0.0052178994
-0.0052178708
-0.0052178468
-0.0052178386
-0.0052178494
-0.0052178775
-0.0052179029
-0.0052179146
-0.0052179404
-0.0052179347
-0.0052179176
-0.0052178916
-0.0052178691
-0.0052178612
-0.0052178734
-0.0052179029
-0.0052179256
-0.0052179297
-0.0052179477
-0.0052179408
-0.005217923
-0.0052178994
-0.0052178792
-0.0052178728
-0.0052178872
-0.0052179146
-0.0052179297
-0.0052179351
-0.0066847264
-0.006684721
-0.0066847065
-0.006684681
-0.0066846634
-0.0066846696
-0.0066846883
-0.0066847119
-0.0066847306
-0.0066847378
-0.006684721
-0.0066847165
-0.0066846961
-0.0066846666
-0.0066846522
-0.0066846596
-0.0066846796
-0.0066847055
-0.0066847243
-0.0066847307
-0.0066847065
-0.0066846961
-0.0066846733
-0.0066846458
-0.006684632
-0.0066846383
-0.0066846586
-0.0066846865
-0.0066847055
-0.0066847112
-0.006684681
-0.0066846666
-0.0066846458
-0.006684619
-0.0066846035
-0.006684607
-0.0066846262
-0.0066846559
-0.0066846775
-0.0066846855
-0.0066846634
-0.0066846522
-0.006684632
-0.0066846035
-0.0066845844
-0.0066845837
-0.0066845999
-0.006684629
-0.0066846524
-0.006684663
-0.0066846696
-0.0066846596
-0.0066846383
-0.006684607
-0.0066845837
-0.0066845788
-0.0066845916
-0.0066846192
-0.006684643
-0.0066846555
-0.0066846883
-0.0066846796
-0.0066846586
-0.0066846262
-0.0066845999
-0.0066845916
-0.0066846026
-0.0066846305
-0.0066846559
-0.0066846707
-0.0066847119
-0.0066847055
-0.0066846865
-0.0066846559
-0.006684629
-0.0066846192
-0.0066846305
-0.0066846602
-0.0066846871
-0.0066846995
-0.0066847306
-0.0066847243
-0.0066847055
-0.0066846775
-0.0066846524
-0.006684643
-0.0066846559
-0.0066846871
-0.0066847109
-0.0066847152
-0.0066847378
-0.0066847307
-0.0066847112
-0.0066846855
-0.006684663
-0.0066846555
-0.0066846707
-0.0066846995
-0.0066847152
-0.0066847208
-0.0080701261
-0.0080701205
-0.0080701049
-0.0080700784
-0.0080700587
-0.0080700641
-0.0080700834
-0.0080701079
-0.0080701275
-0.0080701345
-0.0080701205
-0.0080701154
-0.0080700942
-0.0080700631
-0.0080700465
-0.0080700533
-0.008070074
-0.0080701009
-0.0080701205
-0.0080701273
-0.0080701049
-0.0080700942
-0.00807007
-0.0080700408
-0.0080700248
-0.0080700304
-0.0080700515
-0.0080700804
-0.0080700999
-0.0080701059
-0.0080700784
-0.0080700631
-0.0080700408
-0.0080700122
-0.0080699942
-0.0080699969
-0.0080700169
-0.0080700477
-0.0080700699
-0.0080700781
-0.0080700587
-0.0080700465
-0.0080700248
-0.0080699942
-0.0080699725
-0.0080699707
-0.0080699875
-0.0080700179
-0.0080700421
-0.0080700533
-0.0080700641
-0.0080700533
-0.0080700304
-0.0080699969
-0.0080699707
-0.0080699643
-0.0080699775
-0.0080700064
-0.0080700312
-0.0080700446
-0.0080700834
-0.008070074
-0.0080700515
-0.0080700169
-0.0080699875
-0.0080699775
-0.0080699889
-0.0080700181
-0.0080700448
-0.0080700606
-0.0080701079
-0.0080701009
-0.0080700804
-0.0080700477
-0.0080700179
-0.0080700064
-0.0080700181
-0.0080700493
-0.0080700774
-0.0080700904
-0.0080701275
-0.0080701205
-0.0080700999
-0.0080700699
-0.0080700421
-0.0080700312
-0.0080700448
-0.0080700774
-0.0080701021
-0.0080701067
-0.0080701345
-0.0080701273
-0.0080701059
-0.0080700781
-0.0080700533
-0.0080700446
-0.0080700606
-0.0080700904
-0.0080701067
-0.0080701126
-0.0093645091
-0.0093645033
-0.0093644865
-0.0093644593
-0.0093644373
-0.0093644418
-0.0093644614
-0.0093644868
-0.0093645071
-0.0093645138
-0.0093645033
-0.0093644976
-0.0093644757
-0.009364443
-0.0093644241
-0.0093644301
-0.0093644513
-0.0093644791
-0.0093644995
-0.0093645064
-0.0093644865
-0.0093644757
-0.0093644502
-0.0093644192
-0.0093644008
-0.0093644057
-0.0093644274
-0.009364457
-0.0093644769
-0.0093644832
-0.0093644593
-0.009364443
-0.0093644192
-0.0093643887
-0.0093643683
-0.00936437
-0.0093643906
-0.0093644224
-0.009364445
-0.0093644533
-0.0093644373
-0.0093644241
-0.0093644008
-0.0093643683
-0.0093643438
-0.0093643407
-0.0093643581
-0.0093643896
-0.0093644145
-0.0093644261
-0.0093644418
-0.0093644301
-0.0093644057
-0.00936437
-0.0093643407
-0.0093643327
-0.0093643463
-0.0093643763
-0.0093644021
-0.0093644162
-0.0093644614
-0.0093644513
-0.0093644274
-0.0093643906
-0.0093643581
-0.0093643463
-0.009364358
-0.0093643883
-0.0093644161
-0.0093644329
-0.0093644868
-0.0093644791
-0.009364457
-0.0093644224
-0.0093643896
-0.0093643763
-0.0093643883
-0.0093644209
-0.0093644501
-0.0093644635
-0.0093645071
-0.0093644995
-0.0093644769
-0.009364445
-0.0093644145
-0.0093644021
-0.0093644161
-0.0093644501
-0.0093644755
-0.0093644803
-0.0093645138
-0.0093645064
-0.0093644832
-0.0093644533
-0.0093644261
-0.0093644162
-0.0093644329
-0.0093644635
-0.0093644803
-0.0093644865
-0.01055741
-0.010557404
-0.010557386
-0.010557358
-0.010557334
-0.010557337
-0.010557357
-0.010557383
-0.010557404
-0.010557411
-0.010557404
-0.010557398
-0.010557375
-0.010557341
-0.01055732
-0.010557325
-0.010557346
-0.010557375
-0.010557396
-0.010557403
-0.010557386
-0.010557375
-0.010557349
-0.010557316
-0.010557295
-0.010557299
-0.010557321
-0.010557351
-0.010557371
-0.010557378
-0.010557358
-0.010557341
-0.010557316
-0.010557284
-0.010557261
-0.010557261
-0.010557282
-0.010557315
-0.010557338
-0.010557346
-0.010557334
-0.01055732
-0.010557295
-0.010557261
-0.010557233
-0.010557229
-0.010557246
-0.010557279
-0.010557304
-0.010557316
-0.010557337
-0.010557325
-0.010557299
-0.010557261
-0.010557229
-0.010557219
-0.010557233
-0.010557264
-0.01055729
-0.010557305
-0.010557357
-0.010557346
-0.010557321
-0.010557282
-0.010557246
-0.010557233
-0.010557245
-0.010557276
-0.010557305
-0.010557323
-0.010557383
-0.010557375
-0.010557351
-0.010557315
-0.010557279
-0.010557264
-0.010557276
-0.01055731
-0.01055734
-0.010557354
-0.010557404
-0.010557396
-0.010557371
-0.010557338
-0.010557304
-0.01055729
-0.010557305
-0.01055734
-0.010557366
-0.010557371
-0.010557411
-0.010557403
-0.010557378
-0.010557346
-0.010557316
-0.010557305
-0.010557323
-0.010557354
-0.010557371
-0.010557377
-0.011637439
-0.011637433
-0.011637413
-0.011637385
-0.011637358
-0.01163736
-0.01163738
-0.011637407
-0.011637428
-0.011637434
-0.011637433
-0.011637426
-0.011637402
-0.011637367
-0.011637343
-0.011637347
-0.011637369
-0.011637398
-0.011637419
-0.011637427
-0.011637413
-0.011637402
-0.011637374
-0.01163734
-0.011637317
-0.011637319
-0.011637342
-0.011637372
-0.011637393
-0.011637399
-0.011637385
-0.011637367
-0.01163734
-0.011637306
-0.01163728
-0.011637279
-0.011637301
-0.011637334
-0.011637357
-0.011637366
-0.011637358
-0.011637343
-0.011637317
-0.01163728
-0.01163725
-0.011637244
-0.011637262
-0.011637295
-0.011637321
-0.011637333
-0.01163736
-0.011637347
-0.011637319
-0.011637279
-0.011637244
-0.011637232
-0.011637246
-0.011637278
-0.011637305
-0.011637321
-0.01163738
-0.011637369
-0.011637342
-0.011637301
-0.011637262
-0.011637246
-0.011637258
-0.011637291
-0.01163732
-0.011637339
-0.011637407
-0.011637398
-0.011637372
-0.011637334
-0.011637295
-0.011637278
-0.011637291
-0.011637325
-0.011637356
-0.01163737
-0.011637428
-0.011637419
-0.011637393
-0.011637357
-0.011637321
-0.011637305
-0.01163732
-0.011637356
-0.011637382
-0.011637388
-0.011637434
-0.011637427
-0.011637399
-0.011637366
-0.011637333
-0.011637321
-0.011637339
-0.01163737
-0.011637388
-0.011637394
-0.012592188
-0.012592182
-0.012592162
-0.012592133
-0.012592104
-0.012592104
-0.012592124
-0.012592151
-0.012592172
-0.012592178
-0.012592182
-0.012592174
-0.012592151
-0.012592114
-0.012592087
-0.01259209
-0.012592112
-0.012592141
-0.012592163
-0.01259217
-0.012592162
-0.012592151
-0.012592122
-0.012592086
-0.012592059
-0.012592061
-0.012592083
-0.012592114
-0.012592134
-0.012592141
-0.012592133
-0.012592114
-0.012592086
-0.01259205
-0.012592021
-0.012592019
-0.012592041
-0.012592074
-0.012592097
-0.012592105
-0.012592104
-0.012592087
-0.012592059
-0.012592021
-0.012591987
-0.01259198
-0.012591998
-0.012592032
-0.012592058
-0.012592071
-0.012592104
-0.01259209
-0.012592061
-0.012592019
-0.01259198
-0.012591966
-0.012591981
-0.012592013
-0.012592041
-0.012592057
-0.012592124
-0.012592112
-0.012592083
-0.012592041
-0.012591998
-0.012591981
-0.012591993
-0.012592026
-0.012592056
-0.012592076
-0.012592151
-0.012592141
-0.012592114
-0.012592074
-0.012592032
-0.012592013
-0.012592026
-0.012592061
-0.012592093
-0.012592107
-0.012592172
-0.012592163
-0.012592134
-0.012592097
-0.012592058
-0.012592041
-0.012592056
-0.012592093
-0.012592119
-0.012592125
-0.012592178
-0.01259217
-0.012592141
-0.012592105
-0.012592071
-0.012592057
-0.012592076
-0.012592107
-0.012592125
-0.012592132
-0.01340814
-0.013408134
-0.013408112
-0.013408083
-0.013408052
-0.01340805
-0.01340807
-0.013408097
-0.013408118
-0.013408123
-0.013408134
-0.013408126
-0.013408101
-0.013408064
-0.013408034
-0.013408035
-0.013408057
-0.013408086
-0.013408108
-0.013408116
-0.013408112
-0.013408101
-0.013408071
-0.013408034
-0.013408005
-0.013408004
-0.013408027
-0.013408058
-0.013408078
-0.013408085
-0.013408083
-0.013408064
-0.013408034
-0.013407996
-0.013407964
-0.01340796
-0.013407983
-0.013408016
-0.013408038
-0.013408047
-0.013408052
-0.013408034
-0.013408005
-0.013407964
-0.013407927
-0.013407918
-0.013407937
-0.013407971
-0.013407997
-0.01340801
-0.01340805
-0.013408035
-0.013408004
-0.01340796
-0.013407918
-0.013407902
-0.013407917
-0.01340795
-0.013407978
-0.013407995
-0.01340807
-0.013408057
-0.013408027
-0.013407983
-0.013407937
-0.013407917
-0.013407929
-0.013407963
-0.013407994
-0.013408014
-0.013408097
-0.013408086
-0.013408058
-0.013408016
-0.013407971
-0.01340795
-0.013407963
-0.013407999
-0.013408031
-0.013408045
-0.013408118
-0.013408108
-0.013408078
-0.013408038
-0.013407997
-0.013407978
-0.013407994
-0.013408031
-0.013408057
-0.013408063
-0.013408123
-0.013408116
-0.013408085
-0.013408047
-0.01340801
-0.013407995
-0.013408014
-0.013408045
-0.013408063
-0.01340807
-0.014070561
-0.014070555
-0.014070532
-0.014070503
-0.014070469
-0.014070465
-0.014070484
-0.014070511
-0.014070533
-0.014070537
-0.014070555
-0.014070546
-0.014070521
-0.014070482
-0.01407045
-0.014070449
-0.01407047
-0.014070499
-0.014070522
-0.014070529
-0.014070532
-0.014070521
-0.01407049
-0.014070451
-0.014070419
-0.014070417
-0.014070439
-0.01407047
-0.01407049
-0.014070497
-0.014070503
-0.014070482
-0.014070451
-0.014070411
-0.014070377
-0.014070371
-0.014070393
-0.014070426
-0.014070448
-0.014070457
-0.014070469
-0.01407045
-0.014070419
-0.014070377
-0.014070337
-0.014070325
-0.014070344
-0.014070378
-0.014070404
-0.014070418
-0.014070465
-0.014070449
-0.014070417
-0.014070371
-0.014070325
-0.014070308
-0.014070322
-0.014070355
-0.014070384
-0.014070402
-0.014070484
-0.01407047
-0.014070439
-0.014070393
-0.014070344
-0.014070322
-0.014070335
-0.014070369
-0.0140704
-0.014070421
-0.014070511
-0.014070499
-0.01407047
-0.014070426
-0.014070378
-0.014070355
-0.014070369
-0.014070405
-0.014070437
-0.014070452
-0.014070533
-0.014070522
-0.01407049
-0.014070448
-0.014070404
-0.014070384
-0.0140704
-0.014070437
-0.014070463
-0.01407047
-0.014070537
-0.014070529
-0.014070497
-0.014070457
-0.014070418
-0.014070402
-0.014070421
-0.014070452
-0.01407047
-0.014070477
-0.014563394
-0.014563387
-0.014563364
-0.014563334
-0.014563298
-0.014563292
-0.01456331
-0.014563337
-0.014563358
-0.014563362
-0.014563387
-0.014563378
-0.014563353
-0.014563313
-0.014563278
-0.014563274
-0.014563295
-0.014563324
-0.014563346
-0.014563354
-0.014563364
-0.014563353
-0.014563321
-0.01456328
-0.014563245
-0.014563241
-0.014563263
-0.014563293
-0.014563313
-0.01456332
-0.014563334
-0.014563313
-0.01456328
-0.014563239
-0.014563201
-0.014563193
-0.014563215
-0.014563248
-0.01456327
-0.014563278
-0.014563298
-0.014563278
-0.014563245
-0.014563201
-0.014563158
-0.014563144
-0.014563163
-0.014563197
-0.014563223
-0.014563237
-0.014563292
-0.014563274
-0.014563241
-0.014563193
-0.014563144
-0.014563124
-0.014563139
-0.014563173
-0.014563201
-0.01456322
-0.01456331
-0.014563295
-0.014563263
-0.014563215
-0.014563163
-0.014563139
-0.014563152
-0.014563186
-0.014563218
-0.01456324
-0.014563337
-0.014563324
-0.014563293
-0.014563248
-0.014563197
-0.014563173
-0.014563186
-0.014563223
-0.014563255
-0.014563269
-0.014563358
-0.014563346
-0.014563313
-0.01456327
-0.014563223
-0.014563201
-0.014563218
-0.014563255
-0.01456328
-0.014563287
-0.014563362
-0.014563354
-0.01456332
-0.014563278
-0.014563237
-0.01456322
-0.01456324
-0.014563269
-0.014563287
-0.014563295
-0.014869144
-0.014869137
-0.014869113
-0.014869082
-0.014869044
-0.014869036
-0.014869052
-0.014869079
-0.0148691
-0.014869103
-0.014869137
-0.014869127
-0.014869101
-0.014869061
-0.014869023
-0.014869017
-0.014869037
-0.014869065
-0.014869088
-0.014869095
-0.014869113
-0.014869101
-0.014869069
-0.014869027
-0.014868989