/*--------------------------------*- C++ -*----------------------------------*\
| =========                 |                                                 |
| \\      /  F ield         | OpenFOAM: The Open Source CFD Toolbox           |
|  \\    /   O peration     | Version:  v2106                                 |
|   \\  /    A nd           | Website:  www.openfoam.com                      |
|    \\/     M anipulation  |                                                 |
\*---------------------------------------------------------------------------*/
FoamFile
{
    version     2.0;
    format      ascii;
    arch        "LSB;label=32;scalar=64";
    class       volScalarField;
    location    "40";
    object      DT;
}
// * * * * * * * * * * * * * * * * * * * * * * * * * * * * * * * * * * * * * //

dimensions      [0 2 -1 0 0 0 0];

internalField   nonuniform List<scalar> 
4000
(
0.00054906455
0.00054906456
0.00054906455
0.00054906455
0.00054906455
0.00054906455
0.00054906455
0.00054906455
0.00054906455
0.00054906455
0.00054906456
0.00054906456
0.00054906455
0.00054906455
0.00054906455
0.00054906455
0.00054906455
0.00054906455
0.00054906455
0.00054906455
0.00054906455
0.00054906455
0.00054906454
0.00054906454
0.00054906454
0.00054906454
0.00054906454
0.00054906454
0.00054906455
0.00054906455
0.00054906455
0.00054906455
0.00054906454
0.00054906454
0.00054906454
0.00054906454
0.00054906454
0.00054906454
0.00054906455
0.00054906455
0.00054906455
0.00054906455
0.00054906454
0.00054906454
0.00054906454
0.00054906454
0.00054906454
0.00054906454
0.00054906454
0.00054906455
0.00054906455
0.00054906455
0.00054906454
0.00054906454
0.00054906454
0.00054906454
0.00054906454
0.00054906454
0.00054906455
0.00054906455
0.00054906455
0.00054906455
0.00054906454
0.00054906454
0.00054906454
0.00054906454
0.00054906454
0.00054906454
0.00054906455
0.00054906455
0.00054906455
0.00054906455
0.00054906454
0.00054906454
0.00054906454
0.00054906454
0.00054906454
0.00054906455
0.00054906455
0.00054906455
0.00054906455
0.00054906455
0.00054906455
0.00054906455
0.00054906454
0.00054906455
0.00054906455
0.00054906455
0.00054906455
0.00054906455
0.00054906455
0.00054906455
0.00054906455
0.00054906455
0.00054906455
0.00054906455
0.00054906455
0.00054906455
0.00054906455
0.00054906455
0.00057629106
0.00057629111
0.00057629105
0.00057629103
0.00057629103
0.00057629103
0.00057629103
0.00057629104
0.00057629105
0.00057629105
0.00057629111
0.00057629111
0.00057629106
0.00057629104
0.00057629104
0.00057629104
0.00057629105
0.00057629106
0.00057629107
0.00057629107
0.00057629105
0.00057629106
0.00057629101
0.000576291
0.00057629099
0.000576291
0.000576291
0.00057629102
0.00057629103
0.00057629104
0.00057629103
0.00057629104
0.000576291
0.00057629098
0.00057629098
0.00057629098
0.00057629099
0.000576291
0.00057629102
0.00057629103
0.00057629103
0.00057629104
0.00057629099
0.00057629098
0.00057629098
0.00057629098
0.00057629099
0.000576291
0.00057629102
0.00057629103
0.00057629103
0.00057629104
0.000576291
0.00057629098
0.00057629098
0.00057629098
0.00057629099
0.00057629101
0.00057629103
0.00057629103
0.00057629103
0.00057629105
0.000576291
0.00057629099
0.00057629099
0.00057629099
0.000576291
0.00057629101
0.00057629103
0.00057629104
0.00057629104
0.00057629106
0.00057629102
0.000576291
0.000576291
0.00057629101
0.00057629101
0.00057629103
0.00057629105
0.00057629106
0.00057629105
0.00057629107
0.00057629103
0.00057629102
0.00057629102
0.00057629103
0.00057629103
0.00057629105
0.00057629107
0.00057629108
0.00057629105
0.00057629107
0.00057629104
0.00057629103
0.00057629103
0.00057629103
0.00057629104
0.00057629106
0.00057629108
0.00057629108
0.00060224313
0.00060224319
0.0006022431
0.00060224307
0.00060224306
0.00060224306
0.00060224308
0.00060224309
0.00060224311
0.0006022431
0.00060224319
0.00060224318
0.0006022431
0.00060224308
0.00060224307
0.00060224307
0.00060224308
0.00060224311
0.00060224313
0.00060224313
0.0006022431
0.0006022431
0.00060224303
0.000602243
0.00060224299
0.000602243
0.00060224301
0.00060224304
0.00060224308
0.00060224309
0.00060224307
0.00060224308
0.000602243
0.00060224298
0.00060224297
0.00060224298
0.00060224299
0.00060224302
0.00060224306
0.00060224307
0.00060224306
0.00060224307
0.00060224299
0.00060224297
0.00060224296
0.00060224297
0.00060224299
0.00060224301
0.00060224306
0.00060224307
0.00060224306
0.00060224307
0.000602243
0.00060224298
0.00060224297
0.00060224297
0.00060224299
0.00060224302
0.00060224306
0.00060224308
0.00060224308
0.00060224308
0.00060224301
0.00060224299
0.00060224299
0.00060224299
0.00060224301
0.00060224304
0.00060224308
0.00060224309
0.00060224309
0.00060224311
0.00060224304
0.00060224302
0.00060224301
0.00060224302
0.00060224304
0.00060224307
0.00060224311
0.00060224312
0.00060224311
0.00060224313
0.00060224308
0.00060224306
0.00060224306
0.00060224306
0.00060224308
0.00060224311
0.00060224315
0.00060224316
0.0006022431
0.00060224313
0.00060224309
0.00060224307
0.00060224307
0.00060224308
0.00060224309
0.00060224312
0.00060224316
0.00060224316
0.00062704454
0.0006270446
0.00062704448
0.00062704445
0.00062704443
0.00062704444
0.00062704446
0.00062704449
0.00062704452
0.00062704451
0.0006270446
0.00062704458
0.00062704448
0.00062704444
0.00062704443
0.00062704443
0.00062704445
0.00062704449
0.00062704454
0.00062704453
0.00062704448
0.00062704448
0.00062704438
0.00062704435
0.00062704434
0.00062704434
0.00062704436
0.00062704441
0.00062704447
0.00062704448
0.00062704445
0.00062704444
0.00062704435
0.00062704432
0.00062704431
0.00062704431
0.00062704434
0.00062704438
0.00062704444
0.00062704446
0.00062704443
0.00062704443
0.00062704434
0.00062704431
0.0006270443
0.00062704431
0.00062704433
0.00062704437
0.00062704444
0.00062704446
0.00062704444
0.00062704443
0.00062704434
0.00062704431
0.00062704431
0.00062704431
0.00062704434
0.00062704438
0.00062704445
0.00062704447
0.00062704446
0.00062704445
0.00062704436
0.00062704434
0.00062704433
0.00062704434
0.00062704437
0.00062704441
0.00062704448
0.0006270445
0.00062704449
0.00062704449
0.00062704441
0.00062704438
0.00062704437
0.00062704438
0.00062704441
0.00062704445
0.00062704452
0.00062704454
0.00062704452
0.00062704454
0.00062704447
0.00062704444
0.00062704444
0.00062704445
0.00062704448
0.00062704452
0.00062704459
0.0006270446
0.00062704451
0.00062704453
0.00062704448
0.00062704446
0.00062704446
0.00062704447
0.0006270445
0.00062704454
0.0006270446
0.00062704459
0.0006507969
0.00065079696
0.00065079683
0.00065079678
0.00065079677
0.00065079678
0.0006507968
0.00065079684
0.00065079689
0.00065079688
0.00065079696
0.00065079693
0.00065079681
0.00065079677
0.00065079676
0.00065079676
0.00065079679
0.00065079684
0.00065079691
0.00065079691
0.00065079683
0.00065079681
0.00065079669
0.00065079666
0.00065079664
0.00065079665
0.00065079668
0.00065079674
0.00065079683
0.00065079685
0.00065079678
0.00065079677
0.00065079666
0.00065079662
0.00065079661
0.00065079662
0.00065079665
0.00065079671
0.0006507968
0.00065079683
0.00065079677
0.00065079676
0.00065079664
0.00065079661
0.0006507966
0.00065079661
0.00065079664
0.0006507967
0.00065079679
0.00065079682
0.00065079678
0.00065079676
0.00065079665
0.00065079662
0.00065079661
0.00065079662
0.00065079666
0.00065079672
0.00065079681
0.00065079684
0.0006507968
0.00065079679
0.00065079668
0.00065079665
0.00065079664
0.00065079666
0.00065079669
0.00065079675
0.00065079684
0.00065079687
0.00065079684
0.00065079684
0.00065079674
0.00065079671
0.0006507967
0.00065079672
0.00065079675
0.00065079681
0.0006507969
0.00065079693
0.00065079689
0.00065079691
0.00065079683
0.0006507968
0.00065079679
0.00065079681
0.00065079684
0.0006507969
0.000650797
0.00065079702
0.00065079688
0.00065079691
0.00065079685
0.00065079683
0.00065079682
0.00065079684
0.00065079687
0.00065079693
0.00065079702
0.000650797
0.00067358519
0.00067358525
0.00067358509
0.00067358504
0.00067358503
0.00067358504
0.00067358507
0.00067358512
0.00067358519
0.00067358518
0.00067358525
0.0006735852
0.00067358506
0.00067358502
0.00067358501
0.00067358502
0.00067358505
0.00067358512
0.00067358521
0.00067358521
0.00067358509
0.00067358506
0.00067358493
0.00067358489
0.00067358488
0.0006735849
0.00067358493
0.000673585
0.00067358511
0.00067358515
0.00067358504
0.00067358502
0.00067358489
0.00067358485
0.00067358485
0.00067358486
0.0006735849
0.00067358497
0.00067358508
0.00067358512
0.00067358503
0.00067358501
0.00067358488
0.00067358485
0.00067358484
0.00067358485
0.00067358489
0.00067358496
0.00067358508
0.00067358512
0.00067358504
0.00067358502
0.0006735849
0.00067358486
0.00067358485
0.00067358487
0.00067358491
0.00067358498
0.0006735851
0.00067358514
0.00067358507
0.00067358505
0.00067358493
0.0006735849
0.00067358489
0.00067358491
0.00067358495
0.00067358502
0.00067358514
0.00067358518
0.00067358512
0.00067358512
0.000673585
0.00067358497
0.00067358496
0.00067358498
0.00067358502
0.00067358509
0.00067358521
0.00067358525
0.00067358519
0.00067358521
0.00067358511
0.00067358508
0.00067358508
0.0006735851
0.00067358514
0.00067358521
0.00067358533
0.00067358537
0.00067358518
0.00067358521
0.00067358515
0.00067358512
0.00067358512
0.00067358514
0.00067358518
0.00067358525
0.00067358537
0.00067358535
0.00069548161
0.00069548165
0.00069548148
0.00069548143
0.00069548142
0.00069548144
0.00069548148
0.00069548154
0.00069548162
0.00069548162
0.00069548165
0.0006954816
0.00069548145
0.00069548141
0.0006954814
0.00069548141
0.00069548145
0.00069548152
0.00069548164
0.00069548165
0.00069548148
0.00069548145
0.00069548131
0.00069548127
0.00069548126
0.00069548128
0.00069548132
0.00069548139
0.00069548153
0.00069548158
0.00069548143
0.00069548141
0.00069548127
0.00069548123
0.00069548122
0.00069548124
0.00069548128
0.00069548136
0.0006954815
0.00069548155
0.00069548142
0.0006954814
0.00069548126
0.00069548122
0.00069548122
0.00069548123
0.00069548128
0.00069548136
0.0006954815
0.00069548155
0.00069548144
0.00069548141
0.00069548128
0.00069548124
0.00069548123
0.00069548125
0.0006954813
0.00069548138
0.00069548152
0.00069548157
0.00069548148
0.00069548145
0.00069548132
0.00069548128
0.00069548128
0.0006954813
0.00069548134
0.00069548143
0.00069548157
0.00069548162
0.00069548154
0.00069548152
0.00069548139
0.00069548136
0.00069548136
0.00069548138
0.00069548143
0.00069548151
0.00069548165
0.0006954817
0.00069548162
0.00069548164
0.00069548153
0.0006954815
0.0006954815
0.00069548152
0.00069548157
0.00069548165
0.00069548179
0.00069548184
0.00069548162
0.00069548165
0.00069548158
0.00069548155
0.00069548155
0.00069548157
0.00069548162
0.0006954817
0.00069548184
0.00069548182
0.00071654841
0.00071654846
0.00071654827
0.00071654822
0.00071654822
0.00071654823
0.00071654828
0.00071654835
0.00071654844
0.00071654845
0.00071654846
0.00071654839
0.00071654823
0.00071654819
0.00071654818
0.0007165482
0.00071654825
0.00071654833
0.00071654846
0.00071654848
0.00071654827
0.00071654823
0.00071654808
0.00071654804
0.00071654804
0.00071654806
0.0007165481
0.00071654819
0.00071654834
0.0007165484
0.00071654822
0.00071654819
0.00071654804
0.000716548
0.000716548
0.00071654802
0.00071654807
0.00071654815
0.00071654831
0.00071654837
0.00071654822
0.00071654818
0.00071654804
0.000716548
0.000716548
0.00071654802
0.00071654807
0.00071654815
0.00071654831
0.00071654837
0.00071654823
0.0007165482
0.00071654806
0.00071654802
0.00071654802
0.00071654804
0.00071654809
0.00071654818
0.00071654834
0.0007165484
0.00071654828
0.00071654825
0.0007165481
0.00071654807
0.00071654807
0.00071654809
0.00071654814
0.00071654823
0.00071654839
0.00071654845
0.00071654835
0.00071654833
0.00071654819
0.00071654815
0.00071654815
0.00071654818
0.00071654823
0.00071654832
0.00071654848
0.00071654855
0.00071654844
0.00071654846
0.00071654834
0.00071654831
0.00071654831
0.00071654834
0.00071654839
0.00071654848
0.00071654864
0.00071654871
0.00071654845
0.00071654848
0.0007165484
0.00071654837
0.00071654837
0.0007165484
0.00071654845
0.00071654855
0.00071654871
0.00071654869
0.00073684002
0.00073684006
0.00073683987
0.00073683982
0.00073683982
0.00073683984
0.00073683989
0.00073683997
0.00073684007
0.00073684008
0.00073684006
0.00073683999
0.00073683983
0.00073683979
0.00073683978
0.0007368398
0.00073683985
0.00073683994
0.00073684009
0.00073684011
0.00073683987
0.00073683983
0.00073683967
0.00073683963
0.00073683963
0.00073683965
0.0007368397
0.0007368398
0.00073683997
0.00073684003
0.00073683982
0.00073683979
0.00073683963
0.0007368396
0.0007368396
0.00073683962
0.00073683967
0.00073683976
0.00073683993
0.00073684001
0.00073683982
0.00073683978
0.00073683963
0.0007368396
0.0007368396
0.00073683962
0.00073683967
0.00073683976
0.00073683994
0.00073684001
0.00073683984
0.0007368398
0.00073683965
0.00073683962
0.00073683962
0.00073683965
0.0007368397
0.00073683979
0.00073683996
0.00073684003
0.00073683989
0.00073683985
0.0007368397
0.00073683967
0.00073683967
0.0007368397
0.00073683975
0.00073683984
0.00073684002
0.00073684009
0.00073683997
0.00073683994
0.0007368398
0.00073683976
0.00073683976
0.00073683979
0.00073683984
0.00073683994
0.00073684012
0.00073684019
0.00073684007
0.00073684009
0.00073683997
0.00073683993
0.00073683994
0.00073683996
0.00073684002
0.00073684012
0.0007368403
0.00073684037
0.00073684008
0.00073684011
0.00073684003
0.00073684001
0.00073684001
0.00073684003
0.00073684009
0.00073684019
0.00073684037
0.00073684036
0.00075640457
0.00075640461
0.00075640441
0.00075640437
0.00075640436
0.00075640439
0.00075640444
0.00075640452
0.00075640463
0.00075640465
0.00075640461
0.00075640453
0.00075640436
0.00075640432
0.00075640433
0.00075640435
0.0007564044
0.00075640449
0.00075640465
0.00075640468
0.00075640441
0.00075640436
0.0007564042
0.00075640417
0.00075640417
0.0007564042
0.00075640425
0.00075640434
0.00075640453
0.0007564046
0.00075640437
0.00075640432
0.00075640417
0.00075640414
0.00075640414
0.00075640417
0.00075640422
0.00075640431
0.0007564045
0.00075640458
0.00075640436
0.00075640433
0.00075640417
0.00075640414
0.00075640415
0.00075640417
0.00075640422
0.00075640432
0.0007564045
0.00075640458
0.00075640439
0.00075640435
0.0007564042
0.00075640417
0.00075640417
0.0007564042
0.00075640425
0.00075640434
0.00075640453
0.00075640461
0.00075640444
0.0007564044
0.00075640425
0.00075640422
0.00075640422
0.00075640425
0.0007564043
0.0007564044
0.00075640458
0.00075640466
0.00075640452
0.00075640449
0.00075640434
0.00075640431
0.00075640432
0.00075640434
0.0007564044
0.0007564045
0.00075640469
0.00075640477
0.00075640463
0.00075640465
0.00075640453
0.0007564045
0.0007564045
0.00075640453
0.00075640458
0.00075640469
0.00075640488
0.00075640496
0.00075640465
0.00075640468
0.0007564046
0.00075640458
0.00075640458
0.00075640461
0.00075640466
0.00075640477
0.00075640496
0.00075640495
0.0007752851
0.00077528514
0.00077528493
0.0007752849
0.0007752849
0.00077528493
0.00077528498
0.00077528506
0.00077528518
0.0007752852
0.00077528514
0.00077528505
0.00077528488
0.00077528485
0.00077528486
0.00077528488
0.00077528494
0.00077528503
0.0007752852
0.00077528524
0.00077528493
0.00077528488
0.00077528473
0.0007752847
0.0007752847
0.00077528473
0.00077528478
0.00077528488
0.00077528507
0.00077528515
0.0007752849
0.00077528485
0.0007752847
0.00077528467
0.00077528468
0.00077528471
0.00077528476
0.00077528485
0.00077528504
0.00077528513
0.0007752849
0.00077528486
0.0007752847
0.00077528468
0.00077528469
0.00077528471
0.00077528476
0.00077528486
0.00077528505
0.00077528513
0.00077528493
0.00077528488
0.00077528473
0.00077528471
0.00077528471
0.00077528474
0.00077528479
0.00077528489
0.00077528508
0.00077528516
0.00077528498
0.00077528494
0.00077528478
0.00077528476
0.00077528476
0.00077528479
0.00077528484
0.00077528494
0.00077528513
0.00077528522
0.00077528506
0.00077528503
0.00077528488
0.00077528485
0.00077528486
0.00077528489
0.00077528494
0.00077528504
0.00077528523
0.00077528532
0.00077528518
0.0007752852
0.00077528507
0.00077528504
0.00077528505
0.00077528508
0.00077528513
0.00077528523
0.00077528543
0.00077528553
0.0007752852
0.00077528524
0.00077528515
0.00077528513
0.00077528513
0.00077528516
0.00077528522
0.00077528532
0.00077528553
0.00077528552
0.0007935205
0.00079352054
0.00079352034
0.00079352031
0.00079352031
0.00079352034
0.0007935204
0.00079352048
0.0007935206
0.00079352063
0.00079352054
0.00079352046
0.00079352029
0.00079352026
0.00079352027
0.0007935203
0.00079352036
0.00079352045
0.00079352062
0.00079352066
0.00079352034
0.00079352029
0.00079352013
0.00079352011
0.00079352012
0.00079352015
0.0007935202
0.0007935203
0.00079352049
0.00079352058
0.00079352031
0.00079352026
0.00079352011
0.00079352009
0.0007935201
0.00079352013
0.00079352018
0.00079352027
0.00079352047
0.00079352056
0.00079352031
0.00079352027
0.00079352012
0.0007935201
0.00079352011
0.00079352014
0.00079352019
0.00079352028
0.00079352047
0.00079352056
0.00079352034
0.0007935203
0.00079352015
0.00079352013
0.00079352014
0.00079352017
0.00079352022
0.00079352031
0.0007935205
0.00079352059
0.0007935204
0.00079352036
0.0007935202
0.00079352018
0.00079352019
0.00079352022
0.00079352026
0.00079352036
0.00079352055
0.00079352064
0.00079352048
0.00079352045
0.0007935203
0.00079352027
0.00079352028
0.00079352031
0.00079352036
0.00079352045
0.00079352065
0.00079352075
0.0007935206
0.00079352062
0.00079352049
0.00079352047
0.00079352047
0.0007935205
0.00079352055
0.00079352065
0.00079352086
0.00079352096
0.00079352063
0.00079352066
0.00079352058
0.00079352056
0.00079352056
0.00079352059
0.00079352064
0.00079352075
0.00079352096
0.00079352095
0.00081114626
0.00081114629
0.00081114609
0.00081114607
0.00081114608
0.00081114611
0.00081114616
0.00081114625
0.00081114637
0.0008111464
0.00081114629
0.00081114621
0.00081114605
0.00081114603
0.00081114604
0.00081114607
0.00081114612
0.00081114621
0.00081114639
0.00081114643
0.00081114609
0.00081114605
0.0008111459
0.00081114588
0.00081114589
0.00081114592
0.00081114597
0.00081114606
0.00081114626
0.00081114635
0.00081114607
0.00081114603
0.00081114588
0.00081114587
0.00081114588
0.00081114591
0.00081114596
0.00081114604
0.00081114624
0.00081114633
0.00081114608
0.00081114604
0.00081114589
0.00081114588
0.00081114589
0.00081114592
0.00081114597
0.00081114605
0.00081114624
0.00081114633
0.00081114611
0.00081114607
0.00081114592
0.00081114591
0.00081114592
0.00081114595
0.00081114599
0.00081114608
0.00081114627
0.00081114636
0.00081114616
0.00081114612
0.00081114597
0.00081114596
0.00081114597
0.00081114599
0.00081114604
0.00081114612
0.00081114632
0.00081114641
0.00081114625
0.00081114621
0.00081114606
0.00081114604
0.00081114605
0.00081114608
0.00081114612
0.00081114621
0.00081114641
0.00081114651
0.00081114637
0.00081114639
0.00081114626
0.00081114624
0.00081114624
0.00081114627
0.00081114632
0.00081114641
0.00081114663
0.00081114673
0.0008111464
0.00081114643
0.00081114635
0.00081114633
0.00081114633
0.00081114636
0.00081114641
0.00081114651
0.00081114673
0.00081114672
0.00082819499
0.00082819502
0.00082819483
0.00082819481
0.00082819482
0.00082819486
0.00082819491
0.00082819499
0.00082819511
0.00082819514
0.00082819502
0.00082819494
0.00082819478
0.00082819477
0.00082819479
0.00082819482
0.00082819487
0.00082819495
0.00082819513
0.00082819517
0.00082819483
0.00082819478
0.00082819464
0.00082819463
0.00082819465
0.00082819467
0.00082819472
0.00082819481
0.000828195
0.00082819509
0.00082819481
0.00082819477
0.00082819463
0.00082819462
0.00082819464
0.00082819467
0.00082819471
0.00082819479
0.00082819498
0.00082819507
0.00082819482
0.00082819479
0.00082819465
0.00082819464
0.00082819466
0.00082819468
0.00082819472
0.0008281948
0.00082819499
0.00082819508
0.00082819486
0.00082819482
0.00082819467
0.00082819467
0.00082819468
0.00082819471
0.00082819475
0.00082819482
0.00082819501
0.0008281951
0.00082819491
0.00082819487
0.00082819472
0.00082819471
0.00082819472
0.00082819475
0.00082819478
0.00082819486
0.00082819506
0.00082819515
0.00082819499
0.00082819495
0.00082819481
0.00082819479
0.0008281948
0.00082819482
0.00082819486
0.00082819495
0.00082819515
0.00082819524
0.00082819511
0.00082819513
0.000828195
0.00082819498
0.00082819499
0.00082819501
0.00082819506
0.00082819515
0.00082819536
0.00082819546
0.00082819514
0.00082819517
0.00082819509
0.00082819507
0.00082819508
0.0008281951
0.00082819515
0.00082819524
0.00082819546
0.00082819546
0.00084469693
0.00084469697
0.00084469678
0.00084469677
0.00084469679
0.00084469682
0.00084469687
0.00084469695
0.00084469707
0.00084469709
0.00084469697
0.00084469689
0.00084469674
0.00084469674
0.00084469676
0.00084469679
0.00084469683
0.00084469691
0.00084469708
0.00084469713
0.00084469678
0.00084469674
0.0008446966
0.0008446966
0.00084469662
0.00084469665
0.00084469669
0.00084469677
0.00084469696
0.00084469705
0.00084469677
0.00084469674
0.0008446966
0.0008446966
0.00084469662
0.00084469665
0.00084469669
0.00084469676
0.00084469694
0.00084469703
0.00084469679
0.00084469676
0.00084469662
0.00084469662
0.00084469664
0.00084469667
0.0008446967
0.00084469677
0.00084469695
0.00084469704
0.00084469682
0.00084469679
0.00084469665
0.00084469665
0.00084469667
0.00084469669
0.00084469672
0.00084469679
0.00084469697
0.00084469706
0.00084469687
0.00084469683
0.00084469669
0.00084469669
0.0008446967
0.00084469672
0.00084469675
0.00084469682
0.00084469701
0.0008446971
0.00084469695
0.00084469691
0.00084469677
0.00084469676
0.00084469677
0.00084469679
0.00084469682
0.0008446969
0.00084469709
0.00084469719
0.00084469707
0.00084469708
0.00084469696
0.00084469694
0.00084469695
0.00084469697
0.00084469701
0.00084469709
0.0008446973
0.00084469741
0.00084469709
0.00084469713
0.00084469705
0.00084469703
0.00084469704
0.00084469706
0.0008446971
0.00084469719
0.00084469741
0.0008446974
0.00086068034
0.00086068038
0.00086068019
0.00086068019
0.00086068022
0.00086068025
0.00086068029
0.00086068036
0.00086068048
0.0008606805
0.00086068038
0.0008606803
0.00086068016
0.00086068016
0.00086068019
0.00086068022
0.00086068026
0.00086068033
0.00086068049
0.00086068054
0.00086068019
0.00086068016
0.00086068003
0.00086068004
0.00086068006
0.00086068009
0.00086068012
0.00086068019
0.00086068038
0.00086068046
0.00086068019
0.00086068016
0.00086068004
0.00086068005
0.00086068007
0.00086068009
0.00086068012
0.00086068018
0.00086068036
0.00086068045
0.00086068022
0.00086068019
0.00086068006
0.00086068007
0.00086068009
0.00086068011
0.00086068014
0.0008606802
0.00086068037
0.00086068045
0.00086068025
0.00086068022
0.00086068009
0.00086068009
0.00086068011
0.00086068013
0.00086068015
0.00086068021
0.00086068039
0.00086068047
0.00086068029
0.00086068026
0.00086068012
0.00086068012
0.00086068014
0.00086068015
0.00086068018
0.00086068024
0.00086068042
0.0008606805
0.00086068036
0.00086068033
0.00086068019
0.00086068018
0.0008606802
0.00086068021
0.00086068024
0.0008606803
0.00086068049
0.00086068058
0.00086068048
0.00086068049
0.00086068038
0.00086068036
0.00086068037
0.00086068039
0.00086068042
0.00086068049
0.00086068069
0.0008606808
0.0008606805
0.00086068054
0.00086068046
0.00086068045
0.00086068045
0.00086068047
0.0008606805
0.00086068058
0.0008606808
0.00086068078
0.00087617174
0.00087617178
0.00087617161
0.00087617161
0.00087617164
0.00087617167
0.00087617171
0.00087617177
0.00087617188
0.0008761719
0.00087617178
0.00087617171
0.00087617158
0.00087617159
0.00087617161
0.00087617164
0.00087617168
0.00087617174
0.0008761719
0.00087617194
0.00087617161
0.00087617158
0.00087617146
0.00087617147
0.0008761715
0.00087617152
0.00087617155
0.00087617161
0.00087617179
0.00087617187
0.00087617161
0.00087617159
0.00087617147
0.00087617149
0.00087617151
0.00087617153
0.00087617155
0.00087617161
0.00087617177
0.00087617185
0.00087617164
0.00087617161
0.0008761715
0.00087617151
0.00087617153
0.00087617155
0.00087617157
0.00087617162
0.00087617178
0.00087617186
0.00087617167
0.00087617164
0.00087617152
0.00087617153
0.00087617155
0.00087617157
0.00087617158
0.00087617163
0.00087617179
0.00087617187
0.00087617171
0.00087617168
0.00087617155
0.00087617155
0.00087617157
0.00087617158
0.0008761716
0.00087617165
0.00087617181
0.00087617189
0.00087617177
0.00087617174
0.00087617161
0.00087617161
0.00087617162
0.00087617163
0.00087617165
0.0008761717
0.00087617187
0.00087617196
0.00087617188
0.0008761719
0.00087617179
0.00087617177
0.00087617178
0.00087617179
0.00087617181
0.00087617187
0.00087617206
0.00087617217
0.0008761719
0.00087617194
0.00087617187
0.00087617185
0.00087617186
0.00087617187
0.00087617189
0.00087617196
0.00087617217
0.00087617216
0.00089119621
0.00089119625
0.00089119609
0.0008911961
0.00089119613
0.00089119616
0.00089119619
0.00089119625
0.00089119635
0.00089119636
0.00089119625
0.00089119619
0.00089119607
0.00089119609
0.00089119611
0.00089119614
0.00089119617
0.00089119622
0.00089119637
0.00089119641
0.00089119609
0.00089119607
0.00089119596
0.00089119598
0.00089119601
0.00089119603
0.00089119605
0.0008911961
0.00089119626
0.00089119634
0.0008911961
0.00089119609
0.00089119598
0.000891196
0.00089119603
0.00089119604
0.00089119606
0.0008911961
0.00089119626
0.00089119633
0.00089119613
0.00089119611
0.00089119601
0.00089119603
0.00089119605
0.00089119606
0.00089119607
0.00089119611
0.00089119626
0.00089119633
0.00089119616
0.00089119614
0.00089119603
0.00089119604
0.00089119606
0.00089119607
0.00089119608
0.00089119612
0.00089119627
0.00089119633
0.00089119619
0.00089119617
0.00089119605
0.00089119606
0.00089119607
0.00089119608
0.00089119609
0.00089119612
0.00089119628
0.00089119635
0.00089119625
0.00089119622
0.0008911961
0.0008911961
0.00089119611
0.00089119612
0.00089119612
0.00089119616
0.00089119633
0.00089119641
0.00089119635
0.00089119637
0.00089119626
0.00089119626
0.00089119626
0.00089119627
0.00089119628
0.00089119633
0.00089119651
0.00089119661
0.00089119636
0.00089119641
0.00089119634
0.00089119633
0.00089119633
0.00089119633
0.00089119635
0.00089119641
0.00089119661
0.00089119659
0.00090577758
0.00090577763
0.00090577747
0.00090577749
0.00090577752
0.00090577755
0.00090577758
0.00090577762
0.00090577772
0.00090577773
0.00090577763
0.00090577757
0.00090577746
0.00090577748
0.00090577751
0.00090577754
0.00090577756
0.0009057776
0.00090577774
0.00090577777
0.00090577747
0.00090577746
0.00090577736
0.00090577739
0.00090577742
0.00090577744
0.00090577745
0.00090577749
0.00090577764
0.00090577771
0.00090577749
0.00090577748
0.00090577739
0.00090577741
0.00090577744
0.00090577746
0.00090577746
0.00090577749
0.00090577763
0.0009057777
0.00090577752
0.00090577751
0.00090577742
0.00090577744
0.00090577747
0.00090577748
0.00090577748
0.0009057775
0.00090577764
0.0009057777
0.00090577755
0.00090577754
0.00090577744
0.00090577746
0.00090577748
0.00090577748
0.00090577748
0.0009057775
0.00090577764
0.0009057777
0.00090577758
0.00090577756
0.00090577745
0.00090577746
0.00090577748
0.00090577748
0.00090577748
0.0009057775
0.00090577764
0.0009057777
0.00090577762
0.0009057776
0.00090577749
0.00090577749
0.0009057775
0.0009057775
0.0009057775
0.00090577753
0.00090577768
0.00090577775
0.00090577772
0.00090577774
0.00090577764
0.00090577763
0.00090577764
0.00090577764
0.00090577764
0.00090577768
0.00090577784
0.00090577794
0.00090577773
0.00090577777
0.00090577771
0.0009057777
0.0009057777
0.0009057777
0.0009057777
0.00090577775
0.00090577794
0.00090577792
0.00091993859
0.00091993864
0.0009199385
0.00091993852
0.00091993856
0.00091993858
0.0009199386
0.00091993864
0.00091993872
0.00091993873
0.00091993864
0.00091993859
0.00091993849
0.00091993852
0.00091993855
0.00091993857
0.00091993859
0.00091993862
0.00091993875
0.00091993877
0.0009199385
0.00091993849
0.0009199384
0.00091993844
0.00091993847
0.00091993848
0.00091993849
0.00091993851
0.00091993865
0.00091993871
0.00091993852
0.00091993852
0.00091993844
0.00091993847
0.0009199385
0.00091993851
0.0009199385
0.00091993852
0.00091993865
0.00091993871
0.00091993856
0.00091993855
0.00091993847
0.0009199385
0.00091993852
0.00091993853
0.00091993852
0.00091993853
0.00091993865
0.0009199387
0.00091993858
0.00091993857
0.00091993848
0.00091993851
0.00091993853
0.00091993853
0.00091993852
0.00091993852
0.00091993865
0.0009199387
0.0009199386
0.00091993859
0.00091993849
0.0009199385
0.00091993852
0.00091993852
0.00091993851
0.00091993851
0.00091993864
0.00091993869
0.00091993864
0.00091993862
0.00091993851
0.00091993852
0.00091993853
0.00091993852
0.00091993851
0.00091993853
0.00091993866
0.00091993873
0.00091993872
0.00091993875
0.00091993865
0.00091993865
0.00091993865
0.00091993865
0.00091993864
0.00091993866
0.00091993882
0.00091993891
0.00091993873
0.00091993877
0.00091993871
0.00091993871
0.0009199387
0.0009199387
0.00091993869
0.00091993873
0.00091993891
0.00091993888
0.00093370103
0.00093370108
0.00093370096
0.00093370099
0.00093370102
0.00093370104
0.00093370106
0.00093370108
0.00093370115
0.00093370115
0.00093370108
0.00093370104
0.00093370095
0.00093370099
0.00093370102
0.00093370104
0.00093370105
0.00093370107
0.00093370118
0.0009337012
0.00093370096
0.00093370095
0.00093370088
0.00093370092
0.00093370095
0.00093370096
0.00093370095
0.00093370097
0.0009337011
0.00093370115
0.00093370099
0.00093370099
0.00093370092
0.00093370095
0.00093370098
0.00093370099
0.00093370098
0.00093370098
0.00093370109
0.00093370114
0.00093370102
0.00093370102
0.00093370095
0.00093370098
0.000933701
0.00093370101
0.00093370099
0.00093370098
0.00093370109
0.00093370114
0.00093370104
0.00093370104
0.00093370096
0.00093370099
0.00093370101
0.000933701
0.00093370098
0.00093370098
0.00093370108
0.00093370112
0.00093370106
0.00093370105
0.00093370095
0.00093370098
0.00093370099
0.00093370098
0.00093370096
0.00093370096
0.00093370107
0.00093370111
0.00093370108
0.00093370107
0.00093370097
0.00093370098
0.00093370098
0.00093370098
0.00093370096
0.00093370096
0.00093370108
0.00093370114
0.00093370115
0.00093370118
0.0009337011
0.00093370109
0.00093370109
0.00093370108
0.00093370107
0.00093370108
0.00093370122
0.0009337013
0.00093370115
0.0009337012
0.00093370115
0.00093370114
0.00093370114