/*--------------------------------*- C++ -*----------------------------------*\
| =========                 |                                                 |
| \\      /  F ield         | OpenFOAM: The Open Source CFD Toolbox           |
|  \\    /   O peration     | Version:  v2106                                 |
|   \\  /    A nd           | Website:  www.openfoam.com                      |
|    \\/     M anipulation  |                                                 |
\*---------------------------------------------------------------------------*/
FoamFile
{
    version     2.0;
    format      ascii;
    arch        "LSB;label=32;scalar=64";
    class       volScalarField;
    location    "40";
    object      gradTy;
}
// * * * * * * * * * * * * * * * * * * * * * * * * * * * * * * * * * * * * * //

dimensions      [0 -1 0 1 0 0 0];

internalField   nonuniform List<scalar> 
4000
(
0.00013541645
-3.8668073e-06
1.8828511e-05
2.1619358e-05
2.2309521e-05
2.3077199e-05
2.4682075e-05
2.8480207e-05
3.5475332e-05
3.7285471e-05
2.0979018e-05
-0.00015390289
-0.00011488675
-0.0001090533
-0.00010674223
-0.00010407818
-9.9052986e-05
-8.7325153e-05
-6.1429504e-05
-2.8300084e-05
-0.00022322634
-0.00018499709
-0.00017837674
-0.00017532887
-0.0001727454
-0.0001698593
-0.00016558814
-0.0001574722
-0.00013961501
-0.00010731231
-5.6331365e-05
-5.1109857e-05
-4.8186852e-05
-4.5478499e-05
-4.2927897e-05
-4.0341976e-05
-3.7433541e-05
-3.4051062e-05
-3.0446668e-05
-2.8039885e-05
-1.4094672e-05
-1.1907906e-05
-9.1195536e-06
-6.4383433e-06
-3.9830221e-06
-1.70823e-06
4.9539605e-07
2.6252527e-06
4.4152671e-06
5.2411233e-06
1.5701117e-05
1.925995e-05
2.3390364e-05
2.6417196e-05
2.8884708e-05
3.089562e-05
3.2537113e-05
3.3820351e-05
3.4665483e-05
3.5003668e-05
3.7221339e-05
4.532585e-05
5.3974361e-05
5.7712953e-05
6.0265272e-05
6.2046433e-05
6.3190005e-05
6.3701505e-05
6.3560742e-05
6.3097979e-05
4.2818134e-05
5.9008028e-05
8.0441622e-05
8.4981151e-05
8.7428492e-05
8.8901027e-05
8.9556865e-05
8.9271759e-05
8.7766181e-05
8.5530659e-05
2.2819224e-05
3.6027124e-05
8.1844299e-05
8.6187007e-05
8.7855471e-05
8.8802871e-05
8.9038793e-05
8.8199356e-05
8.5297691e-05
7.9713601e-05
1.7848862e-06
3.5950259e-06
2.3871162e-05
2.5130159e-05
2.5475686e-05
2.5680724e-05
2.5701143e-05
2.5372219e-05
2.4210797e-05
2.1649492e-05
0.00083707633
3.7757993e-05
0.00014761799
0.00016844201
0.00017524828
0.0001826674
0.00019823073
0.00023614177
0.00030649001
0.00027110965
-0.00011222694
-0.0011464144
-0.00093658722
-0.00088699117
-0.00086402336
-0.00083845424
-0.00079017726
-0.00067480105
-0.00041617141
-0.00020996398
-0.0017905232
-0.0015944972
-0.0015310999
-0.0014984415
-0.0014730331
-0.0014455105
-0.0014048726
-0.0013259948
-0.0011444963
-0.00085639604
-0.00057633
-0.00053488456
-0.00050376615
-0.00047681774
-0.00045227778
-0.00042764417
-0.00040001879
-0.00036733038
-0.00032747583
-0.00029259964
-0.0001415805
-0.0001202424
-9.304357e-05
-6.7311367e-05
-4.3869998e-05
-2.2188625e-05
-1.2305579e-06
1.9004713e-05
3.6569881e-05
4.5523803e-05
0.0001547839
0.00018925758
0.00022863
0.00025741806
0.000280889
0.0003000575
0.00031572695
0.0003279673
0.00033604927
0.00033925912
0.00036560617
0.00044581772
0.00052925936
0.00056533341
0.00058957315
0.00060652674
0.00061748295
0.000622417
0.00062101976
0.000616448
0.00041952056
0.00058190947
0.00079352641
0.00084228582
0.00086606938
0.00088008626
0.0008863917
0.00088362307
0.00086838999
0.00084424471
0.00019331625
0.00024576808
0.00065815333
0.00071536685
0.00073288408
0.00074188593
0.00074417589
0.00073591694
0.00070479753
0.00063285735
-2.2095485e-06
-3.7589902e-05
0.00013526207
0.00015447694
0.00015851287
0.00016044621
0.00016065276
0.00015739838
0.00014455591
0.00010943826
0.00095615341
-0.00014014101
1.4613914e-05
4.6502748e-05
5.7857393e-05
7.0313121e-05
9.8137266e-05
0.00017730962
0.0003688664
0.00037723246
-0.00072296985
-0.0021352791
-0.0018316329
-0.0017520946
-0.0017129812
-0.0016702438
-0.0015882974
-0.0013738995
-0.00082032785
-0.00038437729
-0.00287553
-0.0025955644
-0.0024923456
-0.0024354163
-0.0023912798
-0.0023448988
-0.0022784986
-0.0021490693
-0.0018314029
-0.0013545023
-0.00097674894
-0.00091188372
-0.00085809725
-0.00081081801
-0.00076810625
-0.00072586737
-0.00067933295
-0.00062462983
-0.00055298513
-0.00048814124
-0.00021797492
-0.00018225936
-0.00013612409
-9.1741869e-05
-5.1173447e-05
-1.3730047e-05
2.2289863e-05
5.6969274e-05
8.7983342e-05
0.0001046355
0.00032565036
0.00038607019
0.00045033414
0.00049885141
0.00053910744
0.00057231471
0.00059970768
0.00062134959
0.00063604011
0.00064244494
0.00073771329
0.00089820804
0.0010340576
0.0010940375
0.0011352951
0.0011647368
0.00118433
0.0011937376
0.0011916538
0.0011833768
0.00086650873
0.0012726024
0.0016344783
0.0017196982
0.0017608261
0.0017853917
0.0017971585
0.0017927154
0.0017606988
0.0016956994
0.00021155543
0.00051143967
0.0012010776
0.0013060067
0.0013375662
0.0013536729
0.0013586615
0.0013433122
0.0012616456
0.000936016
-0.00013496429
-0.00012659823
0.00015566942
0.00019133549
0.00019889869
0.00020243693
0.00020316857
0.00019691894
0.00015983568
-2.0167434e-05
0.00097247732
-0.00033483094
-0.00013146057
-8.9201928e-05
-7.4435624e-05
-5.9153644e-05
-2.4183372e-05
8.5821432e-05
0.00038901037
0.00042930572
-0.0013581331
-0.00301404
-0.0026115257
-0.002504666
-0.0024532393
-0.0024000706
-0.0022983304
-0.0020114016
-0.0011913969
-0.00056988698
-0.0037533058
-0.0033848623
-0.0032439319
-0.0031661515
-0.0031076222
-0.0030487545
-0.0029670731
-0.0028038875
-0.0023700915
-0.001736707
-0.0012561101
-0.0011705727
-0.0010978237
-0.001034263
-0.00097783675
-0.00092337276
-0.00086501228
-0.00079742102
-0.00070266959
-0.0006155006
-0.00022610671
-0.00018103428
-0.0001215113
-6.3637348e-05
-1.062106e-05
3.8120213e-05
8.4648692e-05
0.00012914794
0.00016990635
0.00019218347
0.00054253054
0.00061790893
0.00069743948
0.000758458
0.00081026394
0.00085372775
0.00089022095
0.0009198285
0.00094116799
0.00095206299
0.001179472
0.0013969346
0.0015681411
0.0016418017
0.0016940928
0.0017328294
0.0017601936
0.0017757737
0.0017776924
0.0017726716
0.001498758
0.0021185486
0.0026056915
0.0027155303
0.0027680342
0.0028007879
0.0028189812
0.0028182867
0.0027802139
0.0026829443
0.00052528328
0.0010405097
0.0019667979
0.0021076902
0.0021487183
0.0021707257
0.0021809528
0.0021676236
0.0020456103
0.001320229
-0.00016199106
-0.00012169572
0.0002523489
0.00030056062
0.00031046155
0.00031541203
0.00031772488
0.0003120648
0.00025287847
-0.00017152275
0.00094450444
-0.00053477579
-0.00027849483
-0.00022560077
-0.00020822869
-0.00019190975
-0.00015357224
-2.0124999e-05
0.00038497511
0.0004580237
-0.0019727947
-0.0038072936
-0.0032978576
-0.0031639557
-0.0031032977
-0.0030456572
-0.0029355601
-0.0025970781
-0.0015397615
-0.00074953362
-0.0044780576
-0.004014295
-0.0038347197
-0.0037382876
-0.0036694256
-0.003604389
-0.0035175881
-0.0033367107
-0.0028084174
-0.0020431048
-0.0014282085
-0.0013228093
-0.0012336486
-0.0011575152
-0.0010919169
-0.001030864
-0.00096807395
-0.00089722249
-0.00078982317
-0.00068923784
-0.00017181226
-0.00012127572
-5.3513726e-05
1.262295e-05
7.313756e-05
0.00012838562
0.00018053555
0.00022983574
0.00027590114
0.00030089542
0.00078978444
0.00087176912
0.00095752203
0.0010236066
0.001081365
0.0011310046
0.0011738105
0.0012099226
0.0012379787
0.0012545942
0.0016411245
0.0018988016
0.0020897037
0.0021664799
0.0022233452
0.00226793
0.0023022632
0.0023262021
0.0023379302
0.0023448569
0.0021850274
0.0029928484
0.0035808261
0.0037020192
0.0037590768
0.0037973847
0.0038232451
0.0038330518
0.0038047446
0.0037011036
0.00098384459
0.0017010676
0.002831389
0.0029946735
0.0030393737
0.0030657332
0.0030840452
0.003084388
0.002952097
0.0018275592
-0.00012130177
-4.8253182e-05
0.00040551679
0.0004619552
0.00047257367
0.00047861806
0.00048365063
0.00048323584
0.00041455661
-0.00026645601
0.0008910683
-0.00073010995
-0.00041924419
-0.00035580553
-0.00033660766
-0.00032085072
-0.00028242684
-0.0001320954
0.00036451291
0.00047434927
-0.0025419126
-0.0045073813
-0.0038879885
-0.0037280204
-0.0036611216
-0.003604495
-0.0034963202
-0.003125503
-0.0018617347
-0.00091251513
-0.0050597176
-0.004498261
-0.0042803567
-0.004167648
-0.0040924319
-0.0040272761
-0.0039449318
-0.0037616864
-0.0031614204
-0.0022861253
-0.0015052082
-0.0013812534
-0.0012783414
-0.0011933286
-0.0011230664
-0.0010609744
-0.0010009483
-0.00093620805
-0.00082690202
-0.00072157769
-6.7037264e-05
-1.4605038e-05
5.6488174e-05
0.0001257669
0.0001888424
0.00024579408
0.00029868665
0.00034776816
0.00039451708
0.00041912987
0.0010499279
0.0011311991
0.0012147293
0.0012786992
0.0013368474
0.0013885435
0.0014348271
0.0014759111
0.0015105468
0.0015337053
0.0020905156
0.0023736486
0.0025695075
0.0026392383
0.0026942739
0.0027412123
0.0027816415
0.0028159679
0.0028427865
0.0028688904
0.0028610472
0.0038314568
0.0044956327
0.0046149683
0.004669679
0.0047107987
0.0047453988
0.0047719437
0.0047676305
0.0046804604
0.0014976012
0.0024072682
0.0037105891
0.0038828293
0.0039252195
0.003954191
0.0039830137
0.0040071135
0.0038915304
0.0024098654
-4.3926621e-05
6.5909737e-05
0.00058888641
0.00064943981
0.00065910262
0.00066584834
0.0006745416
0.00068325095
0.00061642819
-0.00030452569
0.00082629201
-0.0009102575
-0.00054504931
-0.00047158241
-0.00045137748
-0.00043765235
-0.0004021199
-0.00024113308
0.0003357005
0.00048442611
-0.0030425989
-0.0050996109
-0.0043713222
-0.0041872828
-0.0041172088
-0.0040666699
-0.0039697551
-0.0035846274
-0.0021464843
-0.0010504636
-0.0055017227
-0.0048437101
-0.0045893946
-0.0044632958
-0.0043856908
-0.0043260821
-0.0042569543
-0.0040854686
-0.0034352551
-0.0024710107
-0.0014983625
-0.0013578547
-0.0012442491
-0.0011541509
-0.0010836359
-0.0010257819
-0.0009752216
-0.00092525714
-0.00082421853
-0.00072220197
7.4826569e-05
0.00012572167
0.0001954395
0.00026293536
0.00032380851
0.00037784147
0.00042681479
0.00047090114
0.00051386702
0.00053511586
0.0013055863
0.0013794727
0.0014530401
0.0015082092
0.0015614544
0.0016112154
0.0016581713
0.0017026134
0.0017434521
0.0017736369
0.0025020814
0.0027968603
0.0029841239
0.0030374738
0.0030846486
0.0031305335
0.0031760466
0.0032223582
0.003268673
0.0033198101
0.0034864139
0.0045931445
0.0053096847
0.0054148437
0.0054606878
0.0055018959
0.0055459686
0.0055945223
0.0056262622
0.0055747226
0.0020119116
0.0031002503
0.0045460754
0.0047147083
0.0047491306
0.004778923
0.0048201541
0.0048763749
0.0048003543
0.0030117343
5.0330699e-05
0.00019905631
0.00078101116
0.00084188593
0.00084902219
0.00085605183
0.00086914537
0.00089014327
0.00083478564
-0.00030227007
0.00076049247
-0.0010673743
-0.0006494517
-0.00056678819
-0.00054641173
-0.00053604793
-0.00050606951
-0.00034025472
0.00030514252
0.00049248436
-0.0034589791
-0.0055738954
-0.0047407623
-0.0045354256
-0.0044652538
-0.0044254071
-0.0043480593
-0.0039651703
-0.002384646
-0.0011573828
-0.0058088465
-0.0050579672
-0.0047703767
-0.00463418
-0.0045580683
-0.0045091877
-0.0044610587
-0.0043139434
-0.0036344776
-0.0026015754
-0.0014189405
-0.0012643806
-0.001143432
-0.0010520722
-0.00098552531
-0.00093678395
-0.00090172774
-0.00087424526
-0.00079065498
-0.00069919805
0.00024089503
0.00028700543
0.00035091362
0.00041199779
0.00046620185
0.00051300481
0.00055374635
0.00058844998
0.00062350935
0.0006386568
0.0015415999
0.0016021132
0.0016587943
0.0016991229
0.0017425919
0.0017866674
0.0018315793
0.0018776957
0.001924118
0.0019615048
0.0028559991
0.0031496889
0.0033162359
0.0033449331
0.0033787746
0.0034203783
0.0034698029
0.0035291384
0.0035983298
0.0036790566
0.0040329422
0.0052497602
0.0059963554
0.0060763413
0.0061074282
0.0061461043
0.0061999668
0.0062746312
0.0063521674
0.0063521042
0.0024893243
0.0037384329
0.0052971117
0.0054508009
0.0054721589
0.0055010077
0.005555968
0.0056509259
0.0056334411
0.0035877337
0.00014765881
0.00033500065
0.00096583428
0.0010236021
0.0010268056
0.0010337004
0.0010517301
0.0010875183
0.001051688
-0.00027628661
0.00070088879
-0.0011963998
-0.00072845809
-0.00063764469
-0.00061791412
-0.00061208054
-0.00058997369
-0.00042465807
0.00027765103
0.00050144076
-0.0037819963
-0.0059260166
-0.0049943356
-0.0047709856
-0.0047036951
-0.0046786029
-0.0046280038
-0.0042621716
-0.0025702824
-0.0012297933
-0.005988495
-0.0051503624
-0.0048334641
-0.0046906736
-0.0046197437
-0.0045861944
-0.0045657634
-0.0044539284
-0.0037641314
-0.0026818654
-0.0012783917
-0.0011125758
-0.00098775117
-0.00089885534
-0.0008402026
-0.00080494643
-0.00079066062
-0.00079227199
-0.0007341122
-0.00065956278
0.00041961448
0.0004579607
0.00051199721
0.0005624399
0.00060590611
0.00064157521
0.00067021316
0.0006916281
0.00071510487
0.00072172437
0.0017460268
0.0017879375
0.0018217181
0.0018419177
0.0018712601
0.0019062247
0.0019465245
0.0019925982
0.0020437724
0.0020882596
0.0031383633
0.003419497
0.0035547946
0.003551763
0.0035674691
0.0036018159
0.0036538426
0.0037266668
0.0038210752
0.0039347029
0.0044819655
0.0057834026
0.0065396869
0.0065850346
0.0065962353
0.0066299263
0.0066934833
0.0067971589
0.0069279332
0.0069920503
0.0029043386
0.0042934868
0.0059367168
0.0060655499
0.006069426
0.0060956461
0.0061650874
0.0063036823
0.0063599788
0.0041044462
0.00023836675
0.00046215648
0.0011320261
0.0011836672
0.0011817257
0.0011880802
0.0012113839
0.001263832
0.0012541286
-0.0002398564
0.00065221084
-0.0012945891
-0.00078016709
-0.00068238956
-0.00066407425
-0.00066376306
-0.00065147991
-0.00049142113
0.00025643193
0.00051314067
-0.0040082581
-0.006156825
-0.0051346019
-0.0048968147
-0.0048351871
-0.0048283126
-0.0048104593
-0.0044746131
-0.0027008056
-0.0012665336
-0.0060504216
-0.0051321223
-0.0047904113
-0.0046445667
-0.0045822086
-0.0045679469
-0.0045807698
-0.0045133362
-0.0038301157
-0.0027165064
-0.0010881644
-0.00091402518
-0.00078874967
-0.00070582253
-0.00065860256
-0.00064062712
-0.00065154051
-0.00068769624
-0.00066165608
-0.00060938945
0.00060105052
0.00062899029
0.0006695526
0.0007056101
0.00073474802
0.00075585898
0.00076902741
0.00077379108
0.00078251921
0.00077853605
0.001910273
0.0019291645
0.0019350008
0.0019306033
0.0019420629
0.0019648827
0.0019982075
0.0020425412
0.0020974752
0.0021487256
0.0033407039
0.0035992168
0.0036944034
0.0036538275
0.0036473343
0.0036717596
0.0037249928
0.0038112468
0.0039322387
0.0040809166
0.0048226025
0.0061844703
0.0069322562
0.0069351245
0.0069221407
0.0069486163
0.0070214084
0.0071558621
0.0073451371
0.007483163
0.0032405792
0.0047474219
0.0064486587
0.0065442517
0.0065269655
0.0065489966
0.00663315
0.0068186664
0.0069604509
0.0045390379
0.00031585025
0.00057255899
0.0012720315
0.0013149651
0.001306876
0.0013123097
0.0013410429
0.0014114283
0.0014330602
-0.00020284701
0.00061721309
-0.0013610259
-0.00080432678
-0.00070085159
-0.00068465044
-0.00069066755
-0.0006897866
-0.0005391329
0.00024337502
0.00052856277
-0.0041388124
-0.0062711222
-0.0051676507
-0.0049191262
-0.0048656697
-0.0048798421
-0.0048995266
-0.0046046316
-0.0027763897
-0.0012683505
-0.0060060839
-0.0050158225
-0.0046540879
-0.0045086246
-0.0044578493
-0.0044661388
-0.0045166069
-0.004500886
-0.0038390195
-0.0027106135
-0.00085943762
-0.00067992312
-0.00055745669
-0.00048368454
-0.00045097758
-0.00045345137
-0.00049312175
-0.00056808958
-0.00057953428
-0.00055392204
0.00077693347
0.00079220953
0.00081621752
0.00083469535
0.00084645069
0.00085010976
0.00084499305
0.00083032562
0.00082168674
0.00080540314
0.0020288192
0.0020211149
0.0019949623
0.0019623573
0.0019528181
0.0019608997
0.0019851443
0.0020261162
0.0020837178
0.0021412072
0.0034591917
0.0036864937
0.0037344022
0.0036517466
0.003619764
0.0036319624
0.0036849805
0.0037841622
0.0039322344
0.0041170579
0.0050502457
0.0064499881
0.0071733826
0.0071275755
0.00708697
0.0071042692
0.0071855435
0.0073515231
0.0076025635
0.0078214558
0.0034887964
0.0050903399
0.0068250775
0.0068806124
0.0068392451
0.0068556899
0.0069543362
0.0071885857
0.0074242688
0.0048773648
0.00037589498
0.00066108273
0.0013812545
0.0014133534
0.0013983293
0.0014024977
0.0014366556
0.0015257134
0.0015825838
-0.00017222264
0.00059711037
-0.0013961934
-0.00080193398
-0.00069406265
-0.00068058852
-0.00069355027
-0.0007052785
-0.00056755237
0.00023933616
0.00054800992
-0.0041780461
-0.0062766126
-0.0051021276
-0.004846559
-0.0048034558
-0.0048408567
-0.0049016779
-0.0046567247
-0.0027993197
-0.0012374415
-0.0058679944
-0.0048147982
-0.0044379408
-0.0042960845
-0.0042594674
-0.0042928587
-0.0043842085
-0.0044257306
-0.003797831
-0.0026695772
-0.00060287446
-0.00042085627
-0.0003042027
-0.00024238293
-0.00022676307
-0.00025220014
-0.00032330692
-0.00044018326
-0.00049316466
-0.00049757512
0.00094059004
0.0009413586
0.00094629235
0.00094458439
0.00093647515
0.00092035046
0.00089470933
0.00085843473
0.00083037684
0.00080048451
0.0020988047
0.0020617697
0.0020005826
0.0019370286
0.0019040387
0.0018952628
0.0019086216
0.0019447376
0.0020038728
0.0020669392
0.0034937912
0.003682788
0.0036779232
0.0035499162
0.0034899401
0.0034880004
0.0035394149
0.0036506676
0.0038255662
0.0040466956
0.0051652422
0.0065821642
0.0072676004
0.0071685417
0.0070977426
0.0071042092
0.0071929938
0.0073903605
0.00770464
0.0080088161
0.0036453063
0.0053186498
0.0070645895
0.0070748031
0.0070071976
0.0070168529
0.0071293993
0.0074128808
0.0077478549
0.0051122433
0.00041615495
0.00072482872
0.0014574071
0.0014769979
0.0014544668
0.0014570697
0.0014965111
0.0016044892
0.0016992952
-0.0001525852
0.00059194168
-0.0014016167
-0.00077489743
-0.00066393056
-0.0006537002
-0.0006740353
-0.00069921855
-0.00057731857
0.00024438241
0.00057127705
-0.0041327569
-0.0061830155
-0.0049484023
-0.0046893766
-0.004658449
-0.0047206172
-0.0048250179
-0.0046370606
-0.0027734088
-0.0011770357
-0.0056491639
-0.0045426346
-0.004155525
-0.0040202151
-0.0039998624
-0.0040601924
-0.0041945405
-0.0042971194
-0.0037136593
-0.0025988501
-0.00032843414
-0.00014663829
-3.8480874e-05
9.0242963e-06
5.5160712e-06
-4.4736234e-05
-0.00014909407
-0.0003098402
-0.00040713655
-0.00044395911
0.0010868208
0.0010716637
0.0010555802
0.0010316864
0.0010018197
0.00096415515
0.00091633644
0.0008568873
0.00080792805
0.00076350991
0.0021195838
0.0020513063
0.001953015
0.0018566281
0.0017984049
0.0017711449
0.0017721433
0.0018020803
0.0018616261
0.0019295143
0.0034474677
0.0035925428
0.0035310242
0.0033556158
0.0032659203
0.003248348
0.0032968557
0.003419055
0.0036198938
0.0038766735
0.0051717662
0.0065871676
0.0072233753
0.0070680489
0.0069653328
0.0069596405
0.0070548156
0.0072826786
0.0076600922
0.0080516722
0.0037107311
0.0054336246
0.0071707561
0.0071318938
0.0070366372
0.0070385164
0.0071640712
0.007496135
0.0079330648
0.0052419727
0.00043573951
0.00076263416
0.0014999882
0.0015058402
0.0014754399
0.0014762281
0.0015206987
0.0016474146
0.001781752
-0.00014664678
0.00060086891
-0.001379571
-0.00072576413
-0.00061297323
-0.00060640179
-0.00063435716
-0.00067349659
-0.00056971279
0.00025799514
0.00059779142
-0.0040113981
-0.0060013477
-0.0047178969
-0.0044588191
-0.0044415125
-0.0045293622
-0.0046786851
-0.0045529157
-0.0027035161
-0.0010910417
-0.0053626625
-0.0042127658
-0.0038201339
-0.0036939708
-0.0036915031
-0.0037799115
-0.003958308
-0.0041241312
-0.0035935097
-0.0025037705
-4.5245606e-05
0.0001337979
0.00023113887
0.0002624287
0.00023829362
0.00016202756
2.343863e-05
-0.00018205786
-0.00032523475
-0.00039592229
0.001211753
0.0011796771
0.0011412098
0.0010937364
0.0010408087
0.00098042309
0.00090935554
0.00082576458
0.00075498192
0.00069550493
0.0020923054
0.0019916632
0.0018551327
0.0017248583
0.0016402777
0.0015934051
0.0015809189
0.0016035585
0.0016624462
0.0017343474
0.0033254889
0.0034224554
0.0033019354
0.0030782357
0.00295785
0.0029235772
0.0029680033
0.0030998353
0.0033252082
0.003616283
0.0050768705
0.0064741081
0.0070520396
0.0068389064
0.0067033662
0.0066845328
0.0067848935
0.0070417377
0.007480809
0.0079598591
0.0036889671
0.0054402234
0.0071508411
0.0070605841
0.0069369766
0.0069303244
0.0070677656
0.0074467721
0.007985887
0.0052690973
0.00043487845
0.00077467473
0.0015098613
0.0015011675
0.0014627363
0.0014615162
0.0015106704
0.001655566
0.0018300372
-0.00015562712
0.00062241905
-0.0013328483
-0.00065750106
-0.00054410676
-0.00054150579
-0.00057715547
-0.00063042835
-0.00054646736
0.00027923467
0.00062672645
-0.0038234772
-0.0057433574
-0.0044225588
-0.0041665962
-0.0041639737
-0.0042778245
-0.0044723816
-0.0044122282
-0.0025951625
-0.00098376746
-0.005021287
-0.0038381746
-0.0034445258
-0.003329737
-0.0033462884
-0.0034632464
-0.0036857413
-0.0039154787
-0.0034441187
-0.0023894331
0.00023846452
0.00041245741
0.00049704961
0.00051069479
0.00046497126
0.00036212476
0.00018911649
-6.099805e-05
-0.00025048422
-0.00035560809
0.0013126857
0.0012631126
0.0012014574
0.0011296031
0.0010528874
0.00096916095
0.00087433932
0.00076621961
0.00067323201
0.00059853298
0.0020195339
0.0018861501
0.001711126
0.0015466972
0.0014352713
0.0013681492
0.0013414135
0.0013558649
0.0014131154
0.0014882005
0.0031348262
0.0031808584
0.0030004224
0.0027286261
0.0025772996
0.0025256848
0.0025650153
0.0027050456
0.0029531293
0.003276552
0.0048896998
0.0062541943
0.0067669188
0.0064958168
0.0063273181
0.0062947095
0.00639902
0.0066828235
0.0071809011
0.0077456716
0.0035863404
0.0053461312
0.0070148012
0.0068721768
0.0067201912
0.0067044902
0.0068525268
0.0072759965
0.0079153749
0.0051993779
0.00041464862
0.0007621404
0.001488912
0.0014652642
0.0014188294
0.0014154648
0.0014688861
0.00163108
0.0018453998
-0.00017958467
0.00065467881
-0.0012645724
-0.00057332326
-0.00046047874
-0.00046205705
-0.00050531323
-0.00057259664
-0.00050961376
0.00030687191
0.00065709234
-0.003579084
-0.0054210871
-0.004074456
-0.003824499
-0.0038372466
-0.0039768595
-0.0042160105
-0.0042232544
-0.002454231
-0.00085970204
-0.0046373201
-0.0034311797
-0.0030407321
-0.0029391538
-0.0029753822
-0.0031207312
-0.00338645
-0.0036793737
-0.0032718393
-0.002260601
0.00051540143
0.00068230075
0.0007526108
0.00074765055
0.00067989778
0.00055050443
0.00034362837
4.9964046e-05
-0.00018520929
-0.00032452308
0.0013879364
0.0013206847
0.0012355759
0.0011391072
0.0010384298
0.00093128112
0.00081274104
0.00068025746
0.00056519622
0.00047546204
0.0019049189
0.0017391095
0.0015261549
0.0013280417
0.0011898855
0.0011023529
0.001060962
0.0010665766
0.0011213263
0.001198773
0.0028836535
0.0028772027
0.0026372586
0.0023185603
0.0021367183
0.0020675366
0.0021009419
0.0022476743
0.0025163195
0.0028696514
0.0046208434
0.0059400462
0.0063826229
0.0060546569
0.0058537853
0.0058071121
0.0059141496
0.0062224896
0.0067759298
0.0074230829
0.0034109181
0.0051609772
0.0067744704
0.0065797499
0.0063999833
0.0063749545
0.0065321797
0.0069969316
0.007732773
0.0050409432
0.00037675093
0.00072697135
0.0014397702
0.0014011303
0.0013468944
0.0013413075
0.0013985255
0.0015768621
0.0018299608
-0.00021769106
0.00069545003
-0.0011780529
-0.00047655974
-0.00036533857
-0.00037120511
-0.00042183064
-0.00050272707
-0.00046136302
0.00033949272
0.00068780721
-0.0032885251
-0.0050465398
-0.0036854719
-0.0034441077
-0.0034725464
-0.0036371669
-0.0039194028
-0.003994305
-0.0022867361
-0.00072335095
-0.0042223625
-0.0030032909
-0.0026199304
-0.0025330016
-0.0025891077
-0.0027621039
-0.00306933
-0.0034234403
-0.0030825683
-0.0021216516
0.00077920012
0.00093723205
0.00099212555
0.00096805474
0.00087832783
0.00072298253
0.00048347145
0.00014817874
-0.00013110094
-0.00030360987
0.001436696
0.0013519579
0.0012436368
0.0011228556
0.00099856459
0.00086842001
0.00072670568
0.00057053958
0.00043401509
0.00032975884
0.0017529112
0.0015556283
0.0013060548
0.001075406
0.00091119844
0.00080354705
0.00074744585
0.00074382315
0.00079534296
0.00087435776
0.0025809317
0.0025216332
0.0022237936
0.0018602968
0.0016489899
0.0015624164
0.001589266
0.0017411906
0.0020280037
0.0024084054
0.0042818093
0.005545139
0.005914476
0.0055319007
0.0052999037
0.0052392101
0.0053478008
0.0056779479
0.0062822826
0.0070071078
0.0031719483
0.0048957036
0.0064429023
0.0061974923
0.0059911137
0.0059567115
0.0061216483
0.0066239262
0.0074508082
0.0048035949
0.0003233287
0.00067164319
0.0013655855
0.0013122543
0.0012505795
0.0012427502
0.001303256
0.0014963512
0.0017864728
-0.00026845767
0.00074237306
-0.0010766722
-0.00037054971
-0.00026193728
-0.00027210579
-0.00032972757
-0.00042359137
-0.00040401198
0.00037558014
0.00071775265
-0.0029620442
-0.0046314284
-0.0032670789
-0.0030365758
-0.0030806801
-0.0032690834
-0.0035921132
-0.003733548
-0.0020986503
-0.00057911277
-0.003787221
-0.0025651186
-0.0021923684
-0.0021211342
-0.0021968869
-0.0023962516
-0.0027425101
-0.0031546658
-0.0028817043
-0.0019765478
0.0010244015
0.0011720674
0.0012108003
0.0011675489
0.0010563675
0.00087618237
0.00060588767
0.00023165495
-8.928715e-05
-0.00029332044
0.0014588945
0.0013572091
0.0012263869
0.0010820917
0.0009350204
0.00078277758
0.0006189042
0.00044021325
0.00028327698
0.00016531129
0.0015685237
0.0013412954
0.0010570907
0.00079567218
0.00060661078
0.00047955598
0.00040902565
0.00039601281
0.00044371991
0.00052355514
0.0022360695
0.0021246429
0.0017716049
0.0013662287
0.0011270775
0.0010236643
0.0010435343
0.0011991677
0.0015015812
0.0019058946
0.0038846001
0.0050833574
0.005378063
0.0049441632
0.0046828882
0.0046085359
0.0047175824
0.0050665828
0.0057166726
0.006513289
0.0028794094
0.0045620564
0.0060338447
0.0057401744
0.0055088693
0.0054652724
0.0056364116
0.0061719993
0.0070831178
0.0044982411
0.00025682059
0.0005989931
0.0012698456
0.0012024308
0.0011338234
0.001123787
0.0011870469
0.0013933292
0.0017181245
-0.00032992185
0.00079302403
-0.0009637969
-0.00025856334
-0.00015345115
-0.00016784588
-0.00023196892
-0.00033793322
-0.00033987064
0.00041357877
0.00074581643
-0.0026096101
-0.0041869911
-0.0028301741
-0.0026124748
-0.0026718946
-0.0028824336
-0.0032432718
-0.0034488625
-0.0018957738
-0.00043118897
-0.0033418407
-0.0021263221
-0.0017673243
-0.0017124472
-0.0018072142
-0.0020311855
-0.0024133296
-0.0028793774
-0.0026741288
-0.0018288268
0.0012464145
0.0013824907
0.001404694
0.0013426008
0.0012109135
0.0010074702
0.00070879688
0.00029899217
-6.0401968e-05
-0.00029368661
0.00145508
0.0013373033
0.0011851212
0.0010185651
0.00084999056
0.00067697843
0.00049239091
0.00029276564
0.00011686921
-1.3722399e-05
0.0013571321
0.0011020011
0.00078575492
0.0004958856
0.00028363829
0.00013828595
5.392443e-05
3.1609935e-05
7.5074362e-05
0.00015504083
0.0018586495
0.0016967969
0.0012922205
0.00084860495
0.00058374252
0.00046439216
0.00047706649
0.00063498242
0.00095031624
0.001375139
0.0034413739
0.0045686419
0.0047888719
0.0043078427
0.0040196731
0.003932321
0.004040823
0.0044055708
0.0050957432
0.005957287
0.0025436486
0.0041721792
0.0055613222
0.0052227298
0.0049686434
0.0049162418
0.0050920743
0.0056563984
0.0066437905
0.0041364389
0.00017984204
0.0005120797
0.0011562319
0.0010756144
0.0010007088
0.00098855329
0.0010540198
0.0012717685
0.0016283823
-0.00039979922
0.00084499118
-0.00084271038
-0.00014374177
-4.2924192e-05
-6.1386584e-05
-0.00013140806
-0.00024841145
-0.00027120609
0.0004519448
0.00077092526
-0.0022407585
-0.0037238579
-0.0023849633
-0.0021816847
-0.0022557707
-0.0024864244
-0.0028814775
-0.0031477325
-0.0016836381
-0.00028351909
-0.0028952682
-0.0016955889
-0.001353095
-0.0013148716
-0.0014276526
-0.0016740397
-0.002088336
-0.0026032387
-0.0024642028
-0.0016816021
0.0014414694
0.0015650022
0.001570662
0.0014904445
0.0013395896
0.0011148899
0.00079073079
0.00034931471
-4.4650741e-05
-0.00030438512
0.0014263118
0.001293586
0.0011215722
0.00093441789
0.00074601755
0.00055395357
0.00035048292
0.00013190114
-6.1146358e-05
-0.00020303917
0.0011243108
0.00084377347
0.00049860396
0.00018309008
-5.0254891e-05
-0.00021244456
-0.00030974576
-0.00034104266
-0.00030209638
-0.00022262028
0.0014582106
0.0012485135
0.00079690247
0.00031931449
3.1327298e-05
-0.00010273795
-9.7270814e-05
6.1583256e-05
0.00038709713
0.00082884854
0.0029641782
0.0040147126
0.0041620176
0.0036388459
0.0033266361
0.0032272166
0.0033342855
0.0037115845
0.004435759
0.0053545576
0.0021750944
0.0037382915
0.0050393078
0.0046599281
0.004385608
0.0043249878
0.0045040304
0.0050922531
0.0061470035
0.0037300266
9.5090401e-05
0.00041407086
0.0010285031
0.00093580464
0.00085534683
0.00084120943
0.0009083309
0.0011357104
0.0015208633
-0.0004756075
0.00089593403
-0.00071656196
-2.9052579e-05
6.6774514e-05
4.4478628e-05
-3.0744735e-05
-0.00015755755
-0.00020019981
0.00048918463
0.00079206951
-0.0018644765
-0.0032519564
-0.0019408821
-0.001753321
-0.0018411517
-0.0020895736
-0.0025147252
-0.0028371711
-0.0014674374
-0.00013973541
-0.0024556384
-0.0012806337
-0.00095700303
-0.00093538512
-0.0010648482
-0.0013310851
-0.0017732971
-0.0023312584
-0.0022557739
-0.0015375727
0.0016065683
0.0017168651
0.0017062988
0.0016090199
0.0014406851
0.0011971002
0.00085077032
0.00038221055
-4.1869364e-05
-0.00032479561
0.001374068
0.0012277892
0.0010378155
0.00083208922
0.00062589573
0.00041684177
0.00019666017
-3.8559571e-05
-0.00024663496
-0.00039829332
0.00087570137
0.00057264712
0.00020212785
-0.00013580178
-0.00038778693
-0.00056503735
-0.00067411914
-0.00071386255
-0.00067955748
-0.0006011197
0.0010440775
0.00078989487
0.00029647989
-0.00021027845
-0.00051840972
-0.00066567981
-0.00066723493
-0.0005086872
-0.0001757489
0.00027923085
0.002464743
0.0034348562
0.0035120307
0.0029523794
0.0026193911
0.0025090843
0.0026139527
0.0030005703
0.0037523701
0.004720102
0.0017840326
0.0032724366
0.0044814683
0.0040661223
0.0037744622
0.0037063886
0.0038872051
0.0044943066
0.0056067367
0.0032908323
5.2697582e-06
0.00030815465
0.00089040443
0.00078695546
0.00070178693
0.0006858499
0.00075407879
0.00098916973
0.0013992334
-0.0005547666
0.00094362897
-0.00058832845
8.2742631e-05
0.00017298161
0.00014715445
6.7505601e-05
-6.7744092e-05
-0.00012891542
0.00052388442
0.00080832177
-0.0014891196
-0.0027804491
-0.0015065458
-0.0013356882
-0.0014360983
-0.001699664
-0.002150357
-0.0025236693
-0.0012519789
-3.1319046e-06
-0.0020301777
-0.00088821265
-0.00058541682
-0.00058003567
-0.00072455362
-0.0010077528