/*--------------------------------*- C++ -*----------------------------------*\
| =========                 |                                                 |
| \\      /  F ield         | OpenFOAM: The Open Source CFD Toolbox           |
|  \\    /   O peration     | Version:  v2106                                 |
|   \\  /    A nd           | Website:  www.openfoam.com                      |
|    \\/     M anipulation  |                                                 |
\*---------------------------------------------------------------------------*/
FoamFile
{
    version     2.0;
    format      ascii;
    arch        "LSB;label=32;scalar=64";
    class       volScalarField;
    location    "40";
    object      gradTz;
}
// * * * * * * * * * * * * * * * * * * * * * * * * * * * * * * * * * * * * * //

dimensions      [0 -1 0 1 0 0 0];

internalField   nonuniform List<scalar> 
4000
(
598.20001
598.19326
598.19763
598.19932
598.2002
598.20043
598.20013
598.19954
598.19905
598.19922
598.19326
598.19172
598.19558
598.19723
598.19808
598.19825
598.19785
598.19702
598.19616
598.19642
598.19763
598.19558
598.19937
598.20099
598.20179
598.20189
598.20136
598.20032
598.19902
598.19855
598.19932
598.19723
598.20099
598.20257
598.2033
598.20332
598.20269
598.20151
598.20005
598.19945
598.2002
598.19808
598.20179
598.2033
598.20397
598.2039
598.20318
598.2019
598.20034
598.19967
598.20043
598.19825
598.20189
598.20332
598.2039
598.20376
598.20297
598.20162
598.2
598.1993
598.20013
598.19785
598.20136
598.20269
598.20318
598.20297
598.20212
598.20073
598.19909
598.19839
598.19954
598.19702
598.20032
598.20151
598.2019
598.20162
598.20073
598.19933
598.19771
598.19703
598.19905
598.19616
598.19902
598.20005
598.20034
598.2
598.19909
598.19771
598.19615
598.19557
598.19922
598.19642
598.19855
598.19945
598.19967
598.1993
598.19839
598.19703
598.19557
598.19522
883.49227
883.48639
883.49115
883.49348
883.49468
883.49493
883.49439
883.49336
883.49254
883.49371
883.48639
883.48493
883.48942
883.49172
883.49287
883.49304
883.49234
883.49092
883.48937
883.4907
883.49115
883.48942
883.49384
883.49608
883.49716
883.49722
883.49634
883.49462
883.49242
883.4928
883.49348
883.49172
883.49608
883.49825
883.49924
883.49918
883.49814
883.49622
883.49378
883.49394
883.49468
883.49287
883.49716
883.49924
883.50013
883.49995
883.49878
883.49671
883.49412
883.49418
883.49493
883.49304
883.49722
883.49918
883.49995
883.49966
883.49838
883.49621
883.49355
883.49356
883.49439
883.49234
883.49634
883.49814
883.49878
883.49838
883.49703
883.4948
883.49211
883.49212
883.49336
883.49092
883.49462
883.49622
883.49671
883.49621
883.4948
883.49257
883.48991
883.48997
883.49254
883.48937
883.49242
883.49378
883.49412
883.49355
883.49211
883.48991
883.48738
883.48771
883.49371
883.4907
883.4928
883.49394
883.49418
883.49356
883.49212
883.48997
883.48771
883.48908
876.95059
876.94715
876.95096
876.95299
876.954
876.95408
876.95335
876.95202
876.95079
876.95239
876.94715
876.94662
876.95029
876.95229
876.95325
876.95326
876.95237
876.95065
876.94854
876.95017
876.95096
876.95029
876.95389
876.95585
876.95674
876.95664
876.95558
876.95357
876.95085
876.95166
876.95299
876.95229
876.95585
876.95773
876.95853
876.95832
876.9571
876.95489
876.95193
876.95252
876.954
876.95325
876.95674
876.95853
876.95923
876.9589
876.95756
876.9552
876.9521
876.95259
876.95408
876.95326
876.95664
876.95832
876.9589
876.95846
876.95702
876.95457
876.95139
876.95184
876.95335
876.95237
876.95558
876.9571
876.95756
876.95702
876.95549
876.95299
876.94979
876.95023
876.95202
876.95065
876.95357
876.95489
876.9552
876.95457
876.95299
876.95049
876.94732
876.94784
876.95079
876.94854
876.95085
876.95193
876.9521
876.95139
876.94979
876.94732
876.94432
876.94521
876.95239
876.95017
876.95166
876.95252
876.95259
876.95184
876.95023
876.94784
876.94521
876.94816
870.25606
870.25308
870.25654
870.25832
870.25913
870.25904
870.25811
870.2565
870.25482
870.25599
870.25308
870.25263
870.25593
870.25768
870.25845
870.25828
870.2572
870.25523
870.25271
870.25405
870.25654
870.25593
870.25917
870.26087
870.26156
870.26129
870.26004
870.25779
870.25469
870.25528
870.25832
870.25768
870.26087
870.26249
870.2631
870.26271
870.26132
870.25888
870.25553
870.25592
870.25913
870.25845
870.26156
870.2631
870.2636
870.2631
870.26159
870.25901
870.25553
870.25582
870.25904
870.25828
870.26129
870.26271
870.2631
870.2625
870.26089
870.25822
870.25467
870.25492
870.25811
870.2572
870.26004
870.26132
870.26159
870.26089
870.2592
870.25648
870.25291
870.25316
870.2565
870.25523
870.25779
870.25888
870.25901
870.25822
870.25648
870.25376
870.25022
870.25054
870.25482
870.25271
870.25469
870.25553
870.25553
870.25467
870.25291
870.25022
870.24685
870.24755
870.25599
870.25405
870.25528
870.25592
870.25582
870.25492
870.25316
870.25054
870.24755
870.25083
863.4179
863.4152
863.41843
863.42002
863.42065
863.42039
863.4193
863.41751
863.41559
863.41646
863.4152
863.41484
863.4179
863.41945
863.42004
863.41971
863.41847
863.41633
863.41361
863.41467
863.41843
863.4179
863.42089
863.42239
863.42291
863.42248
863.42108
863.41867
863.41538
863.41575
863.42002
863.41945
863.42239
863.42381
863.42424
863.4237
863.42216
863.41958
863.41606
863.41623
863.42065
863.42004
863.42291
863.42424
863.42458
863.42393
863.42227
863.41955
863.4159
863.41599
863.42039
863.41971
863.42248
863.4237
863.42393
863.42318
863.42143
863.41862
863.4149
863.41495
863.4193
863.41847
863.42108
863.42216
863.42227
863.42143
863.4196
863.41675
863.41302
863.41306
863.41751
863.41633
863.41867
863.41958
863.41955
863.41862
863.41675
863.4139
863.4102
863.41031
863.41559
863.41361
863.41538
863.41606
863.4159
863.4149
863.41302
863.4102
863.40666
863.40713
863.41646
863.41467
863.41575
863.41623
863.41599
863.41495
863.41306
863.41031
863.40713
863.41027
856.44952
856.44711
856.45015
856.45157
856.45205
856.45165
856.45043
856.44852
856.44647
856.4471
856.44711
856.44685
856.44972
856.45111
856.45154
856.45108
856.44972
856.44747
856.44464
856.44545
856.45015
856.44972
856.45252
856.45385
856.45421
856.45365
856.45214
856.44964
856.44627
856.44642
856.45157
856.45111
856.45385
856.4551
856.45539
856.45472
856.45307
856.4504
856.44681
856.44677
856.45205
856.45154
856.45421
856.45539
856.45558
856.45481
856.45305
856.45025
856.44653
856.44642
856.45165
856.45108
856.45365
856.45472
856.45481
856.45394
856.45209
856.44921
856.44543
856.44528
856.45043
856.44972
856.45214
856.45307
856.45305
856.45209
856.45017
856.44725
856.44345
856.4433
856.44852
856.44747
856.44964
856.4504
856.45025
856.44921
856.44725
856.44432
856.44056
856.44047
856.44647
856.44464
856.44627
856.44681
856.44653
856.44543
856.44345
856.44056
856.43695
856.4372
856.4471
856.44545
856.44642
856.44677
856.44642
856.44528
856.4433
856.44047
856.4372
856.44007
849.36539
849.36327
849.36611
849.3674
849.36775
849.36725
849.36593
849.36395
849.36181
849.36225
849.36327
849.36313
849.36581
849.36705
849.36736
849.36679
849.36535
849.36305
849.36016
849.36074
849.36611
849.36581
849.36842
849.3696
849.36985
849.36919
849.3676
849.36505
849.36166
849.36162
849.3674
849.36705
849.3696
849.37072
849.37089
849.37012
849.3684
849.36569
849.36209
849.36187
849.36775
849.36736
849.36985
849.37089
849.37096
849.3701
849.36827
849.36544
849.36172
849.36143
849.36725
849.36679
849.36919
849.37012
849.3701
849.36914
849.36723
849.36432
849.36054
849.36022
849.36593
849.36535
849.3676
849.3684
849.36827
849.36723
849.36526
849.36231
849.35851
849.35819
849.36395
849.36305
849.36505
849.36569
849.36544
849.36432
849.36231
849.35936
849.3556
849.35533
849.36181
849.36016
849.36166
849.36209
849.36172
849.36054
849.35851
849.3556
849.35197
849.35202
849.36225
849.36074
849.36162
849.36187
849.36143
849.36022
849.35819
849.35533
849.35202
849.35458
842.18079
842.17897
842.18162
842.18277
842.18302
842.18244
842.18107
842.17905
842.17687
842.17713
842.17897
842.17895
842.18144
842.18255
842.18276
842.18212
842.18062
842.1783
842.17541
842.17578
842.18162
842.18144
842.18387
842.18492
842.18506
842.18433
842.1827
842.18015
842.17678
842.17657
842.18277
842.18255
842.18492
842.18591
842.18598
842.18514
842.18339
842.18069
842.17712
842.17675
842.18302
842.18276
842.18506
842.18598
842.18596
842.18503
842.18318
842.18036
842.17669
842.17624
842.18244
842.18212
842.18433
842.18514
842.18503
842.18402
842.18209
842.1792
842.17546
842.17498
842.18107
842.18062
842.1827
842.18339
842.18318
842.18209
842.18009
842.17716
842.17341
842.17293
842.17905
842.1783
842.18015
842.18069
842.18036
842.1792
842.17716
842.17423
842.17051
842.17009
842.17687
842.17541
842.17678
842.17712
842.17669
842.17546
842.17341
842.17051
842.16692
842.16679
842.17713
842.17578
842.17657
842.17675
842.17624
842.17498
842.17293
842.17009
842.16679
842.16904
834.91178
834.91026
834.91271
834.91374
834.9139
834.91325
834.91186
834.90983
834.90765
834.90775
834.91026
834.91035
834.91265
834.91364
834.91376
834.91306
834.91155
834.90924
834.90639
834.90657
834.91271
834.91265
834.91488
834.91582
834.91587
834.91509
834.91345
834.91094
834.90763
834.90728
834.91374
834.91364
834.91582
834.91669
834.91667
834.9158
834.91404
834.91138
834.9079
834.90738
834.9139
834.91376
834.91587
834.91667
834.91657
834.91561
834.91376
834.911
834.90741
834.90683
834.91325
834.91306
834.91509
834.9158
834.91561
834.91457
834.91264
834.90981
834.90616
834.90556
834.91186
834.91155
834.91345
834.91404
834.91376
834.91264
834.91066
834.90779
834.90413
834.90352
834.90983
834.90924
834.91094
834.91138
834.911
834.90981
834.90779
834.90491
834.90128
834.90072
834.90765
834.90639
834.90763
834.9079
834.90741
834.90616
834.90413
834.90128
834.89776
834.89747
834.90775
834.90657
834.90728
834.90738
834.90683
834.90556
834.90352
834.90072
834.89747
834.89941
827.57501
827.57379
827.57603
827.57693
827.57701
827.57633
827.57493
827.57293
827.57077
827.57073
827.57379
827.57398
827.57608
827.57695
827.57699
827.57625
827.57475
827.57249
827.56971
827.56972
827.57603
827.57608
827.57811
827.57893
827.57891
827.5781
827.57648
827.57403
827.57083
827.57034
827.57693
827.57695
827.57893
827.57969
827.5796
827.5787
827.57698
827.57439
827.57102
827.5704
827.57701
827.57699
827.57891
827.5796
827.57944
827.57846
827.57664
827.57396
827.5705
827.56981
827.57633
827.57625
827.5781
827.5787
827.57846
827.57741
827.57552
827.57277
827.56926
827.56854
827.57493
827.57475
827.57648
827.57698
827.57664
827.57552
827.57358
827.5708
827.56727
827.56655
827.57293
827.57249
827.57403
827.57439
827.57396
827.57277
827.5708
827.56801
827.5645
827.56382
827.57077
827.56971
827.57083
827.57102
827.5705
827.56926
827.56727
827.5645
827.5611
827.56066
827.57073
827.56972
827.57034
827.5704
827.56981
827.56854
827.56655
827.56382
827.56066
827.56231
820.18761
820.18668
820.1887
820.18949
820.1895
820.18879
820.18741
820.18547
820.18335
820.18318
820.18668
820.18697
820.18886
820.18961
820.18958
820.18883
820.18735
820.18517
820.18249
820.18234
820.1887
820.18886
820.19068
820.19138
820.1913
820.19048
820.1889
820.18654
820.18348
820.18288
820.18949
820.18961
820.19138
820.19203
820.19189
820.19098
820.1893
820.18682
820.18361
820.18288
820.1895
820.18958
820.1913
820.19189
820.19167
820.19069
820.18893
820.18636
820.18306
820.18228
820.18879
820.18883
820.19048
820.19098
820.19069
820.18964
820.18782
820.18519
820.18184
820.18103
820.18741
820.18735
820.1889
820.1893
820.18893
820.18782
820.18594
820.18328
820.17992
820.17911
820.18547
820.18517
820.18654
820.18682
820.18636
820.18519
820.18328
820.18061
820.17727
820.17649
820.18335
820.18249
820.18348
820.18361
820.18306
820.18184
820.17992
820.17727
820.17401
820.17345
820.18318
820.18234
820.18288
820.18288
820.18228
820.18103
820.17911
820.17649
820.17345
820.17481
812.76705
812.76641
812.7682
812.76887
812.76882
812.7681
812.76676
812.76489
812.76285
812.76256
812.76641
812.76678
812.76845
812.76909
812.769
812.76824
812.76682
812.76474
812.76218
812.76189
812.7682
812.76845
812.77006
812.77065
812.77052
812.76969
812.76817
812.76593
812.76304
812.76235
812.76887
812.76909
812.77065
812.77118
812.77099
812.7701
812.76849
812.76614
812.76311
812.76231
812.76882
812.769
812.77052
812.77099
812.77074
812.76977
812.76809
812.76566
812.76255
812.7617
812.7681
812.76824
812.76969
812.7701
812.76977
812.76875
812.767
812.76452
812.76137
812.76049
812.76676
812.76682
812.76817
812.76849
812.76809
812.767
812.76521
812.7627
812.75953
812.75865
812.76489
812.76474
812.76593
812.76614
812.76566
812.76452
812.7627
812.76018
812.75703
812.75617
812.76285
812.76218
812.76304
812.76311
812.76255
812.76137
812.75953
812.75703
812.75395
812.75328
812.76256
812.76189
812.76235
812.76231
812.7617
812.76049
812.75865
812.75617
812.75328
812.75436
805.33105
805.33068
805.33223
805.33278
805.33267
805.33196
805.33067
805.3289
805.32696
805.32657
805.33068
805.33113
805.33257
805.33308
805.33295
805.33219
805.33083
805.32887
805.32647
805.32606
805.33223
805.33257
805.33395
805.33442
805.33424
805.33343
805.33198
805.32989
805.32719
805.32643
805.33278
805.33308
805.33442
805.33485
805.33461
805.33374
805.33222
805.33002
805.32721
805.32635
805.33267
805.33295
805.33424
805.33461
805.33432
805.33339
805.3318
805.32954
805.32665
805.32574
805.33196
805.33219
805.33343
805.33374
805.33339
805.3324
805.33075
805.32844
805.32552
805.32459
805.33067
805.33083
805.33198
805.33222
805.3318
805.33075
805.32907
805.32673
805.32379
805.32286
805.3289
805.32887
805.32989
805.33002
805.32954
805.32844
805.32673
805.32438
805.32145
805.32054
805.32696
805.32647
805.32719
805.32721
805.32665
805.32552
805.32379
805.32145
805.31858
805.31783
805.32657
805.32606
805.32643
805.32635
805.32574
805.32459
805.32286
805.32054
805.31783
805.31864
797.8974
797.89729
797.89859
797.89901
797.89885
797.89815
797.89694
797.89528
797.89346
797.89298
797.89729
797.89779
797.89899
797.89939
797.8992
797.89847
797.89719
797.89537
797.89315
797.89263
797.89859
797.89899
797.90014
797.9005
797.90028
797.89949
797.89814
797.8962
797.89373
797.89292
797.89901
797.89939
797.9005
797.90082
797.90055
797.89971
797.89829
797.89627
797.89369
797.89279
797.89885
797.8992
797.90028
797.90055
797.90023
797.89933
797.89785
797.89578
797.89313
797.8922
797.89815
797.89847
797.89949
797.89971
797.89933
797.89839
797.89686
797.89474
797.89207
797.89111
797.89694
797.89719
797.89814
797.89829
797.89785
797.89686
797.8953
797.89316
797.89047
797.88951
797.89528
797.89537
797.8962
797.89627
797.89578
797.89474
797.89316
797.891
797.88832
797.88737
797.89346
797.89315
797.89373
797.89369
797.89313
797.89207
797.89047
797.88832
797.88568
797.88487
797.89298
797.89263
797.89292
797.89279
797.8922
797.89111
797.88951
797.88737
797.88487
797.88543
790.48387
790.48401
790.48504
790.48535
790.48514
790.48446
790.48333
790.48181
790.48012
790.47957
790.48401
790.48455
790.48551
790.48579
790.48556
790.48485
790.48366
790.48201
790.47998
790.47937
790.48504
790.48551
790.48642
790.48667
790.4864
790.48565
790.4844
790.48265
790.48041
790.47957
790.48535
790.48579
790.48667
790.48687
790.48657
790.48577
790.48447
790.48265
790.48032
790.4794
790.48514
790.48556
790.4864
790.48657
790.48622
790.48538
790.48403
790.48216
790.47978
790.47883
790.48446
790.48485
790.48565
790.48577
790.48538
790.48449
790.4831
790.48119
790.47879
790.47782
790.48333
790.48366
790.4844
790.48447
790.48403
790.4831
790.48168
790.47975
790.47733
790.47636
790.48181
790.48201
790.48265
790.48265
790.48216
790.48119
790.47975
790.47781
790.47539
790.47443
790.48012
790.47998
790.48041
790.48032
790.47978
790.47879
790.47733
790.47539
790.47302
790.47216
790.47957
790.47937
790.47957
790.4794
790.47883
790.47782
790.47636
790.47443
790.47216
790.47248
783.10811
783.10848
783.10925
783.10943
783.10918
783.10853
783.10749
783.10612
783.10459
783.10398
783.10848
783.10905
783.10976
783.10992
783.10965
783.10898
783.1079
783.10642
783.10461
783.10392
783.10925
783.10976
783.11043
783.11056
783.11026
783.10955
783.10843
783.10687
783.1049
783.10403
783.10943
783.10992
783.11056
783.11066
783.11033
783.10958
783.10841
783.1068
783.10476
783.10383
783.10918
783.10965
783.11026
783.11033
783.10997
783.10918
783.10797
783.10632
783.10423
783.10329
783.10853
783.10898
783.10955
783.10958
783.10918
783.10836
783.10712
783.10544
783.10333
783.10237
783.10749
783.1079
783.10843
783.10841
783.10797
783.10712
783.10585
783.10415
783.10203
783.10106
783.10612
783.10642
783.10687
783.1068
783.10632
783.10544
783.10415
783.10243
783.10031
783.09935
783.10459
783.10461
783.1049
783.10476
783.10423
783.10333
783.10203
783.10031
783.09821
783.09733
783.10398
783.10392
783.10403
783.10383
783.10329
783.10237
783.10106
783.09935
783.09733
783.09743
775.78753
775.78812
775.78862
775.78868
775.78839
775.78777
775.78684
775.78563
775.78427
775.78361
775.78812
775.78871
775.78917
775.78921
775.7889
775.78827
775.78731
775.78602
775.78444
775.7837
775.78862
775.78917
775.78959
775.78961
775.78928
775.78862
775.78762
775.78628
775.78458
775.78372
775.78868
775.78921
775.78961
775.7896
775.78924
775.78855
775.78752
775.78614
775.78439
775.78349
775.78839
775.7889
775.78928
775.78924
775.78886
775.78815
775.78708
775.78567
775.78389
775.78297
775.78777
775.78827
775.78862
775.78855
775.78815
775.7874
775.78632
775.78488
775.78308
775.78215
775.78684
775.78731
775.78762
775.78752
775.78708
775.78632
775.78521
775.78375
775.78195
775.78101
775.78563
775.78602
775.78628
775.78614
775.78567
775.78488
775.78375
775.78229
775.78048
775.77954
775.78427
775.78444
775.78458
775.78439
775.78389
775.78308
775.78195
775.78048
775.77868
775.77779
775.78361
775.7837
775.78372
775.78349
775.78297
775.78215
775.78101
775.77954
775.77779
775.77767
768.53921
768.54
768.54023
768.54017
768.53985
768.53927
768.53846
768.53742
768.53624
768.53555
768.54
768.5406
768.5408
768.54072
768.54039
768.5398
768.53896
768.53788
768.53655
768.53576
768.54023
768.5408
768.54097
768.54088
768.54052
768.53992
768.53906
768.53794
768.53654
768.53569
768.54017
768.54072
768.54088
768.54076
768.54039
768.53977
768.53888
768.53774
768.5363
768.53543
768.53985
768.54039
768.54052
768.54039
768.54
768.53936
768.53846
768.53729
768.53583
768.53495
768.53927
768.5398
768.53992
768.53977
768.53936
768.53869
768.53778
768.53659
768.53513
768.53423
768.53846
768.53896
768.53906
768.53888
768.53846
768.53778
768.53684
768.53565
768.53417
768.53327
768.53742
768.53788
768.53794
768.53774
768.53729
768.53659
768.53565
768.53444
768.53296
768.53205
768.53624
768.53655
768.53654
768.5363
768.53583
768.53513
768.53417
768.53296
768.53147
768.53059
768.53555
768.53576
768.53569
768.53543
768.53495
768.53423
768.53327
768.53205
768.53059
768.53028
761.37981
761.38078
761.38073
761.38055
761.38019
761.37967
761.37897
761.37812
761.37714
761.37642
761.38078
761.38136
761.38131
761.38112
761.38075
761.38022
761.37952
761.37864
761.37757
761.37676
761.38073
761.38131
761.38124
761.38103
761.38065
761.38011
761.3794
761.37851
761.37741
761.3766
761.38055
761.38112
761.38103
761.38081
761.38042
761.37987
761.37914
761.37824
761.37713
761.37631
761.38019
761.38075
761.38065
761.38042
761.38002
761.37946
761.37873
761.37782
761.3767
761.37586
761.37967
761.38022
761.38011
761.37987
761.37946
761.37889
761.37814
761.37722
761.3761
761.37526
761.37897
761.37952
761.3794
761.37914
761.37873
761.37814
761.37739
761.37646
761.37533
761.37449
761.37812
761.37864
761.37851
761.37824
761.37782
761.37722
761.37646
761.37553
761.37438
761.37353
761.37714
761.37757
761.37741
761.37713
761.3767
761.3761
761.37533
761.37438
761.37323
761.37237
761.37642
761.37676
761.3766
761.37631
761.37586
761.37526
761.37449
761.37353
761.37237
761.37189
754.32543
754.32656
754.32625
754.32595
754.32556
754.32509
754.32452
754.32386
754.32308
754.32236
754.32656
754.32713
754.32682
754.32652
754.32613
754.32565
754.32509
754.32443
754.32364
754.32282
754.32625
754.32682
754.3265
754.32618
754.32579
754.32532
754.32476
754.32411
754.32333
754.32256
754.32595
754.32652
754.32618
754.32586
754.32546
754.32499
754.32443
754.32378
754.32301
754.32224
754.32556
754.32613
754.32579
754.32546
754.32506
754.32459
754.32403
754.32338
754.32261
754.32184
754.32509
754.32565
754.32532
754.32499
754.32459
754.32411
754.32355
754.3229
754.32212
754.32136
754.32452
754.32509
754.32476
754.32443
754.32403
754.32355
754.32298
754.32233
754.32155
754.32078
754.32386
754.32443
754.32411
754.32378
754.32338
754.3229
754.32233
754.32167
754.32088
754.3201
754.32308
754.32364
754.32333
754.32301
754.32261
754.32212
754.32155
754.32088
754.32006
754.31925
754.32236
754.32282
754.32256
754.32224
754.32184
754.32136
754.32078
754.3201
754.31925
754.31862
747.39161
747.39289
747.3923
747.39189
747.39147
747.39106
747.39063
747.39016
747.3896
747.38889
747.39289
747.39343
747.39287
747.39245
747.39204
747.39163
747.39121
747.39078
747.39027
747.38945
747.3923
747.39287
747.3923
747.39188
747.39147
747.39107
747.39067
747.39027
747.38981
747.3891
747.39189
747.39245
747.39188
747.39146
747.39105
747.39066
747.39027
747.38988
747.38945
747.38876
747.39147
747.39204
747.39147
747.39105
747.39065
747.39026
747.38989
747.38951
747.38909
747.38841
747.39106
747.39163
747.39107
747.39066
747.39026
747.38988
747.38951
747.38914
747.38873
747.38805
747.39063
747.39121
747.39067
747.39027
747.38989
747.38951
747.38914
747.38878
747.38835
747.38767
747.39016
747.39078
747.39027
747.38988
747.38951
747.38914
747.38878
747.3884
747.38796
747.38726
747.3896
747.39027
747.38981
747.38945
747.38909
747.38873
747.38835
747.38796
747.3875
747.38674
747.38889
747.38945
747.3891
747.38876
747.38841
747.38805
747.38767
747.38726
747.38674
747.38597
740.59319
740.5946
740.59375
740.59322
740.59279
740.59244
740.59215
740.59188
740.59154
740.59085
740.5946
740.5951
740.59429
740.59377
740.59334
740.593
740.59273
740.59253
740.5923
740.5915
740.59375
740.59429
740.59349
740.59296
740.59254
740.59222
740.59198
740.59183
740.5917
740.59107
740.59322
740.59377
740.59296
740.59244
740.59203
740.59173
740.59151
740.59139
740.59131
740.5907
740.59279
740.59334
740.59254
740.59203
740.59164
740.59135
740.59116
740.59106
740.59099
740.5904
740.59244
740.593
740.59222
740.59173
740.59135
740.59107
740.59089
740.59081
740.59075
740.59017
740.59215
740.59273
740.59198
740.59151
740.59116
740.59089
740.59072
740.59064
740.59058
740.59
740.59188
740.59253
740.59183
740.59139
740.59106
740.59081
740.59064
740.59055
740.59048
740.58987
740.59154
740.5923
740.5917
740.59131
740.59099
740.59075
740.59058
740.59048
740.59036
740.58968
740.59085
740.5915
740.59107
740.5907
740.5904
740.59017
740.59
740.58987
740.58968
740.58879
733.94428
733.9458
733.94469
733.94405
733.9436
733.94332
733.94317
733.94312
733.943
733.94233
733.9458
733.94625
733.9452
733.94457
733.94413
733.94386
733.94375
733.94379
733.94384
733.94308
733.94469
733.9452
733.94416
733.94354
733.94311
733.94287
733.9428
733.9429
733.94311
733.94255
733.94405
733.94457
733.94354
733.94293
733.94252
733.9423
733.94227
733.94242
733.94268
733.94217
733.9436
733.94413
733.94311
733.94252
733.94214
733.94194
733.94194
733.94212
733.94241
733.94193
733.94332
733.94386
733.94287
733.9423
733.94194
733.94177
733.94179
733.94199
733.94229
733.94182
733.94317
733.94375
733.9428
733.94227
733.94194
733.94179
733.94182
733.94202
733.94233
733.94186
733.94312
733.94379
733.9429
733.94242
733.94212
733.94199
733.94202
733.94223
733.94252
733.94202
733.943
733.94384
733.94311
733.94268
733.94241
733.94229
733.94233
733.94252
733.94276
733.94216
733.94233
733.94308
733.94255
733.94217
733.94193
733.94182
733.94186
733.94202
733.94216
733.94116
727.45816
727.45977
727.45841
727.45767
727.45721
727.45699
727.45699
727.45715
727.45726
727.45663
727.45977
727.46017
727.45888
727.45815
727.4577
727.45751
727.45756
727.45783
727.45818
727.45745
727.45841
727.45888
727.45762
727.4569
727.45647
727.45631
727.45641
727.45677
727.45731
727.45685
727.45767
727.45815
727.4569
727.4562
727.4558
727.45568
727.45582
727.45624
727.45685
727.45645
727.45721
727.4577
727.45647
727.4558
727.45543
727.45534
727.45552
727.45598
727.45663
727.45626
727.45699
727.45751
727.45631
727.45568
727.45534
727.45527
727.45549
727.45597
727.45664
727.45629
727.45699
727.45756
727.45641
727.45582
727.45552
727.45549
727.45572
727.45621
727.45689
727.45653
727.45715
727.45783
727.45677
727.45624
727.45598
727.45597
727.45621
727.45671
727.45737
727.45698
727.45726
727.45818
727.45731
727.45685
727.45663
727.45664
727.45689
727.45737
727.45797
727.45746
727.45663
727.45745
727.45685
727.45645
727.45626
727.45629
727.45653
727.45698
727.45746
727.45638
721.14725
721.14893
721.14733
721.14649
721.14602
721.14588
721.14603
721.14639
721.14674
721.14616
721.14893
721.14927
721.14776
721.14693
721.14648
721.14637
721.14657
721.14708
721.14772
721.14705
721.14733
721.14776
721.14627
721.14547
721.14504
721.14497
721.14524
721.14585
721.14672
721.14636
721.14649
721.14693
721.14547
721.14469
721.1443
721.14427
721.1446
721.14528
721.14624
721.14596
721.14602
721.14648
721.14504
721.1443
721.14395
721.14395
721.14433
721.14506
721.14607
721.14583
721.14588
721.14637
721.14497
721.14427
721.14395
721.144
721.14441
721.14518
721.14622
721.14598
721.14603
721.14657
721.14524
721.1446
721.14433
721.14441
721.14485
721.14563
721.14667
721.14644
721.14639
721.14708
721.14585
721.14528
721.14506
721.14518
721.14563
721.14642
721.14744
721.14718
721.14674
721.14772
721.14672
721.14624
721.14607
721.14622
721.14667
721.14744
721.14839
721.148
721.14616
721.14705
721.14636
721.14596
721.14583
721.14598
721.14644
721.14718
721.148
721.14684
715.02303
715.02477
715.02294
715.02202
715.02154
715.02148
715.02178
715.02235
715.02293
715.02241
715.02477
715.02504
715.02332
715.02241
715.02196
715.02193
715.02229
715.02303
715.02396
715.02336
715.02294
715.02332
715.02163
715.02075
715.02033
715.02034
715.02078
715.02165
715.02284
715.0226
715.02202
715.02241
715.02075
715.0199
715.01952
715.01958
715.02009
715.02104
715.02234
715.02218
715.02154
715.02196
715.02033
715.01952
715.01918
715.0193
715.01986
715.02087
715.02223
715.02212
715.02148
715.02193
715.02034
715.01958
715.0193
715.01946
715.02007
715.02112
715.02251
715.02241
715.02178
715.02229
715.02078
715.02009
715.01986
715.02007
715.0207
715.02177
715.02317
715.02308
715.02235
715.02303
715.02165
715.02104
715.02087
715.02112
715.02177
715.02284
715.02422
715.0241
715.02293
715.02396
715.02284
715.02234
715.02223
715.02251
715.02317
715.02422
715.02553
715.02525
715.02241
715.02336
715.0226
715.02218
715.02212
715.02241
715.02308
715.0241
715.02525
715.02404
709.09604
709.09783
709.09578
709.09477
709.0943
709.09432
709.09477
709.09555
709.09636
709.0959
709.09783
709.09802
709.0961
709.09511
709.09467
709.09472
709.09525
709.09622
709.09744
709.09691
709.09578
709.0961
709.09422
709.09326
709.09286
709.09296
709.09357
709.09469
709.0962
709.09608
709.09477
709.09511
709.09326
709.09235
709.09199
709.09215
709.09284
709.09405
709.09568
709.09566
709.0943
709.09467
709.09286
709.09199
709.09168
709.0919
709.09265
709.09393
709.09564
709.09566
709.09432
709.09472
709.09296
709.09215
709.0919
709.09218
709.09298
709.0943
709.09604
709.09609
709.09477
709.09525
709.09357
709.09284
709.09265
709.09298
709.09382
709.09517
709.09692
709.09696
709.09555
709.09622
709.09469
709.09405
709.09393
709.0943
709.09517
709.09652
709.09825
709.09826
709.09636
709.09744
709.0962
709.09568
709.09564
709.09604
709.09692
709.09825
709.09991
709.09975
709.0959
709.09691
709.09608
709.09566
709.09566
709.09609
709.09696
709.09826
709.09975
709.0985
703.37579
703.37761
703.37536
703.37428
703.37382
703.37392
703.37452
703.37551
703.37655
703.37616
703.37761
703.37772
703.37562
703.37456
703.37413
703.37427
703.37496
703.37616
703.37766
703.37721
703.37536
703.37562
703.37356
703.37254
703.37215
703.37235
703.37313
703.37449
703.37632
703.37632
703.37428
703.37456
703.37254
703.37157
703.37123
703.3715
703.37236
703.37383
703.37579
703.37591
703.37382
703.37413
703.37215
703.37123
703.37095
703.37129
703.37222
703.37377
703.37581
703.37597
703.37392
703.37427
703.37235
703.3715
703.37129
703.37168
703.37267
703.37427
703.37635
703.37654
703.37452
703.37496
703.37313
703.37236
703.37222
703.37267
703.37371
703.37534
703.37743
703.37762
703.37551
703.37616
703.37449
703.37383
703.37377
703.37427
703.37534
703.37697
703.37904
703.37919
703.37655
703.37766
703.37632
703.37579
703.37581
703.37635
703.37743
703.37904
703.38103
703.381
703.37616
703.37721
703.37632
703.37591
703.37597
703.37654
703.37762
703.37919
703.381
703.37974
697.87076
697.87259
697.87015
697.86901
697.86857
697.86875
697.86951
697.87071
697.87198
697.87167
697.87259
697.87263
697.87035
697.86924
697.86883
697.86906
697.86991
697.87133
697.8731
697.87275
697.87015
697.87035
697.86813
697.86706
697.86669
697.86699
697.86794
697.86955
697.87168
697.87181
697.86901
697.86924
697.86706
697.86604
697.86573
697.86611
697.86715
697.86887
697.87115
697.8714
697.86857
697.86883
697.86669
697.86573
697.86549
697.86594
697.86706
697.86887
697.87123
697.87154
697.86875
697.86906
697.86699
697.86611
697.86594
697.86645
697.86763
697.8695
697.87191
697.87224
697.86951
697.86991
697.86794
697.86715
697.86706
697.86763
697.86887
697.87076
697.87319
697.87353
697.87071
697.87133
697.86955
697.86887
697.86887
697.8695
697.87076
697.87266
697.87507
697.87537
697.87198
697.8731
697.87168
697.87115
697.87123
697.87191
697.87319
697.87507
697.8774
697.8775
697.87167
697.87275
697.87181
697.8714
697.87154
697.87224
697.87353
697.87537
697.8775
697.87623
692.58834
692.59017
692.58757
692.58638
692.58596
692.58624
692.58715
692.58856
692.59004
692.58982
692.59017
692.59013
692.5877
692.58655
692.58616
692.58649
692.5875
692.58915
692.59119
692.59093
692.58757
692.5877
692.58534
692.58423
692.5839
692.5843
692.58542
692.58726
692.58969
692.58994
692.58638
692.58655
692.58423
692.58317
692.5829
692.58339
692.58461
692.58657
692.58916
692.58956
692.58596