/*--------------------------------*- C++ -*----------------------------------*\
| =========                 |                                                 |
| \\      /  F ield         | OpenFOAM: The Open Source CFD Toolbox           |
|  \\    /   O peration     | Version:  v2106                                 |
|   \\  /    A nd           | Website:  www.openfoam.com                      |
|    \\/     M anipulation  |                                                 |
\*---------------------------------------------------------------------------*/
FoamFile
{
    version     2.0;
    format      ascii;
    arch        "LSB;label=32;scalar=64";
    class       volScalarField;
    location    "40";
    object      laplacianT;
}
// * * * * * * * * * * * * * * * * * * * * * * * * * * * * * * * * * * * * * //

dimensions      [0 -2 0 1 0 0 0];

internalField   nonuniform List<scalar> 
4000
(
105487.15
105487.12
105487.06
105486.98
105486.96
105486.96
105486.98
105487.01
105487.04
105487.04
105487.12
105487.15
105487.05
105486.97
105486.95
105486.95
105486.98
105487.01
105487.05
105487.05
105487.06
105487.05
105486.96
105486.88
105486.87
105486.87
105486.9
105486.94
105487
105487.01
105486.98
105486.97
105486.88
105486.82
105486.8
105486.81
105486.83
105486.88
105486.95
105486.96
105486.96
105486.95
105486.87
105486.8
105486.78
105486.79
105486.82
105486.87
105486.94
105486.96
105486.96
105486.95
105486.87
105486.81
105486.79
105486.8
105486.83
105486.88
105486.95
105486.97
105486.98
105486.98
105486.9
105486.83
105486.82
105486.83
105486.86
105486.92
105486.98
105487
105487.01
105487.01
105486.94
105486.88
105486.87
105486.88
105486.92
105486.97
105487.03
105487.05
105487.04
105487.05
105487
105486.95
105486.94
105486.95
105486.98
105487.03
105487.1
105487.11
105487.04
105487.05
105487.01
105486.96
105486.96
105486.97
105487
105487.05
105487.11
105487.12
-6371.661
-6372.8514
-6372.0254
-6372.1372
-6372.1491
-6372.1504
-6372.153
-6372.157
-6372.1625
-6372.171
-6372.8514
-6372.9077
-6372.4508
-6372.551
-6372.5605
-6372.5616
-6372.5648
-6372.5747
-6372.6158
-6372.4847
-6372.0254
-6372.4508
-6371.9594
-6372.0543
-6372.0633
-6372.0643
-6372.0664
-6372.0751
-6372.1533
-6372.2168
-6372.1372
-6372.551
-6372.0543
-6372.1486
-6372.1578
-6372.1588
-6372.1601
-6372.1631
-6372.2219
-6372.2501
-6372.1491
-6372.5605
-6372.0633
-6372.1578
-6372.1671
-6372.1683
-6372.1699
-6372.1729
-6372.2306
-6372.2551
-6372.1504
-6372.5616
-6372.0643
-6372.1588
-6372.1683
-6372.1698
-6372.1716
-6372.1748
-6372.2326
-6372.257
-6372.153
-6372.5648
-6372.0664
-6372.1601
-6372.1699
-6372.1716
-6372.1735
-6372.1768
-6372.2347
-6372.2593
-6372.157
-6372.5747
-6372.0751
-6372.1631
-6372.1729
-6372.1748
-6372.1768
-6372.1802
-6372.2382
-6372.2633
-6372.1625
-6372.6158
-6372.1533
-6372.2219
-6372.2306
-6372.2326
-6372.2347
-6372.2382
-6372.2964
-6372.3237
-6372.171
-6372.4847
-6372.2168
-6372.2501
-6372.2551
-6372.257
-6372.2593
-6372.2633
-6372.3237
-6372.3503
-5752.7651
-5754.13
-5753.0515
-5753.2223
-5753.2424
-5753.2445
-5753.2474
-5753.2551
-5753.2859
-5753.0879
-5754.13
-5754.0606
-5753.4718
-5753.6248
-5753.6412
-5753.6423
-5753.6446
-5753.6656
-5753.8495
-5753.523
-5753.0515
-5753.4718
-5752.8348
-5752.9801
-5752.9956
-5752.996
-5752.9942
-5753.002
-5753.2303
-5753.1812
-5753.2223
-5753.6248
-5752.9801
-5753.1245
-5753.14
-5753.1405
-5753.1371
-5753.1343
-5753.3301
-5753.2279
-5753.2424
-5753.6412
-5752.9956
-5753.14
-5753.1557
-5753.1564
-5753.1534
-5753.1503
-5753.3439
-5753.2353
-5753.2445
-5753.6423
-5752.996
-5753.1405
-5753.1564
-5753.1573
-5753.1545
-5753.1517
-5753.3455
-5753.2365
-5753.2474
-5753.6446
-5752.9942
-5753.1371
-5753.1534
-5753.1545
-5753.1518
-5753.1491
-5753.3431
-5753.2347
-5753.2551
-5753.6656
-5753.002
-5753.1343
-5753.1503
-5753.1517
-5753.1491
-5753.1465
-5753.341
-5753.2361
-5753.2859
-5753.8495
-5753.2303
-5753.3301
-5753.3439
-5753.3455
-5753.3431
-5753.341
-5753.5378
-5753.4489
-5753.0879
-5753.523
-5753.1812
-5753.2279
-5753.2353
-5753.2365
-5753.2347
-5753.2361
-5753.4489
-5753.1961
-5244.629
-5246.1814
-5244.8718
-5245.0986
-5245.1266
-5245.1294
-5245.1318
-5245.1454
-5245.2556
-5244.9724
-5246.1814
-5246.0312
-5245.3244
-5245.5277
-5245.5506
-5245.5512
-5245.5493
-5245.5713
-5245.9301
-5245.4918
-5244.8718
-5245.3244
-5244.5558
-5244.7491
-5244.7708
-5244.7703
-5244.7616
-5244.7589
-5245.1715
-5245.0861
-5245.0986
-5245.5277
-5244.7491
-5244.9412
-5244.9628
-5244.9622
-5244.9513
-5244.933
-5245.3009
-5245.1457
-5245.1266
-5245.5506
-5244.7708
-5244.9628
-5244.9846
-5244.9843
-5244.9737
-5244.9549
-5245.3195
-5245.1555
-5245.1294
-5245.5512
-5244.7703
-5244.9622
-5244.9843
-5244.9841
-5244.9738
-5244.9552
-5245.3201
-5245.1555
-5245.1318
-5245.5493
-5244.7616
-5244.9513
-5244.9737
-5244.9738
-5244.9636
-5244.9451
-5245.3102
-5245.147
-5245.1454
-5245.5713
-5244.7589
-5244.933
-5244.9549
-5244.9552
-5244.9451
-5244.927
-5245.2934
-5245.14
-5245.2556
-5245.9301
-5245.1715
-5245.3009
-5245.3195
-5245.3201
-5245.3102
-5245.2934
-5245.6685
-5245.5759
-5244.9724
-5245.4918
-5245.0861
-5245.1457
-5245.1555
-5245.1555
-5245.147
-5245.14
-5245.5759
-5245.0133
-4819.823
-4821.519
-4820.0039
-4820.2867
-4820.3225
-4820.3254
-4820.3256
-4820.3378
-4820.5151
-4820.1763
-4821.519
-4821.2772
-4820.472
-4820.7252
-4820.7545
-4820.7541
-4820.7458
-4820.7594
-4821.2741
-4820.764
-4820.0039
-4820.472
-4819.5912
-4819.832
-4819.8597
-4819.8578
-4819.84
-4819.8171
-4820.3935
-4820.3024
-4820.2867
-4820.7252
-4819.832
-4820.0711
-4820.0988
-4820.0967
-4820.0761
-4820.0325
-4820.5522
-4820.3749
-4820.3225
-4820.7545
-4819.8597
-4820.0988
-4820.1265
-4820.1248
-4820.1045
-4820.0602
-4820.5755
-4820.3869
-4820.3254
-4820.7541
-4819.8578
-4820.0967
-4820.1248
-4820.1232
-4820.1032
-4820.0591
-4820.5746
-4820.3853
-4820.3256
-4820.7458
-4819.84
-4820.0761
-4820.1045
-4820.1032
-4820.0834
-4820.0394
-4820.555
-4820.3676
-4820.3378
-4820.7594
-4819.8171
-4820.0325
-4820.0602
-4820.0591
-4820.0394
-4819.9956
-4820.5133
-4820.3431
-4820.5151
-4821.2741
-4820.3935
-4820.5522
-4820.5755
-4820.5746
-4820.555
-4820.5133
-4821.0463
-4821.0006
-4820.1763
-4820.764
-4820.3024
-4820.3749
-4820.3869
-4820.3853
-4820.3676
-4820.3431
-4821.0006
-4820.1739
-4458.8351
-4460.6352
-4458.9424
-4459.2806
-4459.3241
-4459.3269
-4459.324
-4459.3318
-4459.5669
-4459.1898
-4460.6352
-4460.2955
-4459.4124
-4459.7149
-4459.7503
-4459.7486
-4459.7328
-4459.7333
-4460.3858
-4459.8341
-4458.9424
-4459.4124
-4458.4396
-4458.7273
-4458.7608
-4458.7572
-4458.7292
-4458.6812
-4459.4006
-4459.3246
-4459.2806
-4459.7149
-4458.7273
-4459.0128
-4459.0463
-4459.0425
-4459.011
-4458.9373
-4459.5881
-4459.4099
-4459.3241
-4459.7503
-4458.7608
-4459.0463
-4459.0799
-4459.0764
-4459.0454
-4458.9706
-4459.616
-4459.4241
-4459.3269
-4459.7486
-4458.7572
-4459.0425
-4459.0764
-4459.0732
-4459.0425
-4458.9679
-4459.6135
-4459.4205
-4459.324
-4459.7328
-4458.7292
-4459.011
-4459.0454
-4459.0425
-4459.0119
-4458.9373
-4459.583
-4459.3924
-4459.3318
-4459.7333
-4458.6812
-4458.9373
-4458.9706
-4458.9679
-4458.9373
-4458.8629
-4459.5109
-4459.345
-4459.5669
-4460.3858
-4459.4006
-4459.5881
-4459.616
-4459.6135
-4459.583
-4459.5109
-4460.1806
-4460.2084
-4459.1898
-4459.8341
-4459.3246
-4459.4099
-4459.4241
-4459.4205
-4459.3924
-4459.345
-4460.2084
-4459.164
-4147.5437
-4149.4172
-4147.5737
-4147.9661
-4148.0171
-4148.0196
-4148.0131
-4148.0146
-4148.2993
-4147.8967
-4149.4172
-4148.9805
-4148.0385
-4148.389
-4148.4303
-4148.427
-4148.4028
-4148.3868
-4149.1597
-4148.588
-4147.5737
-4148.0385
-4146.9926
-4147.3259
-4147.3651
-4147.3595
-4147.3206
-4147.2439
-4148.0862
-4148.0384
-4147.9661
-4148.389
-4147.3259
-4147.6567
-4147.6957
-4147.69
-4147.647
-4147.5398
-4148.302
-4148.1361
-4148.0171
-4148.4303
-4147.3651
-4147.6957
-4147.7348
-4147.7295
-4147.6871
-4147.5784
-4148.3344
-4148.1524
-4148.0196
-4148.427
-4147.3595
-4147.69
-4147.7295
-4147.7244
-4147.6823
-4147.574
-4148.33
-4148.1466
-4148.0131
-4148.4028
-4147.3206
-4147.647
-4147.6871
-4147.6823
-4147.6403
-4147.5319
-4148.2878
-4148.1073
-4148.0146
-4148.3868
-4147.2439
-4147.5398
-4147.5784
-4147.574
-4147.5319
-4147.4234
-4148.1818
-4148.0334
-4148.2993
-4149.1597
-4148.0862
-4148.302
-4148.3344
-4148.33
-4148.2878
-4148.1818
-4148.9677
-4149.0839
-4147.8967
-4148.588
-4148.0384
-4148.1361
-4148.1524
-4148.1466
-4148.1073
-4148.0334
-4149.0839
-4147.8613
-3875.5157
-3877.4385
-3875.4701
-3875.9148
-3875.973
-3875.9749
-3875.9644
-3875.958
-3876.2847
-3875.8655
-3877.4385
-3876.9105
-3875.9267
-3876.3232
-3876.3702
-3876.365
-3876.3318
-3876.2965
-3877.1727
-3876.5961
-3875.4701
-3875.9267
-3874.8251
-3875.2021
-3875.2465
-3875.2388
-3875.1885
-3875.0805
-3876.0263
-3876.0137
-3875.9148
-3876.3232
-3875.2021
-3875.5762
-3875.6204
-3875.6127
-3875.5577
-3875.4146
-3876.2694
-3876.1233
-3875.973
-3876.3702
-3875.2465
-3875.6204
-3875.6648
-3875.6575
-3875.6032
-3875.4585
-3876.3061
-3876.1415
-3875.9749
-3876.365
-3875.2388
-3875.6127
-3875.6575
-3875.6504
-3875.5965
-3875.4521
-3876.2997
-3876.1335
-3875.9644
-3876.3318
-3875.1885
-3875.5577
-3875.6032
-3875.5965
-3875.5426
-3875.3981
-3876.2454
-3876.0823
-3875.958
-3876.2965
-3875.0805
-3875.4146
-3875.4585
-3875.4521
-3875.3981
-3875.2532
-3876.1029
-3875.9792
-3876.2847
-3877.1727
-3876.0263
-3876.2694
-3876.3061
-3876.2997
-3876.2454
-3876.1029
-3876.9854
-3877.1972
-3875.8655
-3876.5961
-3876.0137
-3876.1233
-3876.1415
-3876.1335
-3876.0823
-3875.9792
-3877.1972
-3875.8295
-3634.9002
-3636.8533
-3634.7842
-3635.2788
-3635.3436
-3635.3449
-3635.33
-3635.3144
-3635.6757
-3635.2462
-3636.8533
-3636.2429
-3635.2324
-3635.6726
-3635.7247
-3635.7175
-3635.675
-3635.6183
-3636.5813
-3636.0097
-3634.7842
-3635.2324
-3634.0907
-3634.5091
-3634.5585
-3634.5485
-3634.4864
-3634.3456
-3635.3763
-3635.4011
-3635.2788
-3635.6726
-3634.5091
-3634.9241
-3634.9733
-3634.9633
-3634.8962
-3634.7159
-3635.6453
-3635.5222
-3635.3436
-3635.7247
-3634.5585
-3634.9733
-3635.0226
-3635.0131
-3634.9468
-3634.7647
-3635.686
-3635.5422
-3635.3449
-3635.7175
-3634.5485
-3634.9633
-3635.0131
-3635.004
-3634.9381
-3634.7562
-3635.6776
-3635.5317
-3635.33
-3635.675
-3634.4864
-3634.8962
-3634.9468
-3634.9381
-3634.8721
-3634.69
-3635.6108
-3635.4683
-3635.3144
-3635.6183
-3634.3456
-3634.7159
-3634.7647
-3634.7562
-3634.69
-3634.5072
-3635.4302
-3635.3341
-3635.6757
-3636.5813
-3635.3763
-3635.6453
-3635.686
-3635.6776
-3635.6108
-3635.4302
-3636.3908
-3636.6999
-3635.2462
-3636.0097
-3635.4011
-3635.5222
-3635.5422
-3635.5317
-3635.4683
-3635.3341
-3636.6999
-3635.2148
-3419.6947
-3421.6633
-3419.5164
-3420.0575
-3420.1285
-3420.129
-3420.1096
-3420.0838
-3420.4726
-3420.037
-3421.6633
-3420.9817
-3419.9579
-3420.4387
-3420.4956
-3420.4863
-3420.4341
-3420.3544
-3421.3885
-3420.828
-3419.5164
-3419.9579
-3418.7902
-3419.247
-3419.3008
-3419.2886
-3419.2148
-3419.04
-3420.1383
-3420.1996
-3420.0575
-3420.4387
-3419.247
-3419.7001
-3419.7537
-3419.7416
-3419.6623
-3419.444
-3420.4314
-3420.3312
-3420.1285
-3420.4956
-3419.3008
-3419.7537
-3419.8075
-3419.796
-3419.7177
-3419.4974
-3420.476
-3420.3529
-3420.129
-3420.4863
-3419.2886
-3419.7416
-3419.796
-3419.7847
-3419.7068
-3419.4869
-3420.4655
-3420.34
-3420.1096
-3420.4341
-3419.2148
-3419.6623
-3419.7177
-3419.7068
-3419.6289
-3419.4085
-3420.3863
-3420.2643
-3420.0838
-3420.3544
-3419.04
-3419.444
-3419.4974
-3419.4869
-3419.4085
-3419.1871
-3420.1665
-3420.0977
-3420.4726
-3421.3885
-3420.1383
-3420.4314
-3420.476
-3420.4655
-3420.3863
-3420.1665
-3421.188
-3421.5917
-3420.037
-3420.828
-3420.1996
-3420.3312
-3420.3529
-3420.34
-3420.2643
-3420.0977
-3421.5917
-3420.0125
-3225.2467
-3227.2189
-3225.0154
-3225.5993
-3225.676
-3225.6756
-3225.6515
-3225.6148
-3226.0246
-3225.5855
-3227.2189
-3226.4784
-3225.453
-3225.971
-3226.0322
-3226.0207
-3225.9588
-3225.8552
-3226.9454
-3226.3993
-3225.0154
-3225.453
-3224.2717
-3224.7637
-3224.8217
-3224.8071
-3224.7217
-3224.5126
-3225.6624
-3225.7568
-3225.5993
-3225.971
-3224.7637
-3225.2517
-3225.3094
-3225.2951
-3225.2038
-3224.9476
-3225.9777
-3225.8981
-3225.676
-3226.0322
-3224.8217
-3225.3094
-3225.3673
-3225.3536
-3225.2635
-3225.0051
-3226.0257
-3225.9212
-3225.6756
-3226.0207
-3224.8071
-3225.2951
-3225.3536
-3225.3402
-3225.2506
-3224.9926
-3226.0131
-3225.9059
-3225.6515
-3225.9588
-3224.7217
-3225.2038
-3225.2635
-3225.2506
-3225.1609
-3224.9023
-3225.9217
-3225.8181
-3225.6148
-3225.8552
-3224.5126
-3224.9476
-3225.0051
-3224.9926
-3224.9023
-3224.6422
-3225.6627
-3225.6185
-3226.0246
-3226.9454
-3225.6624
-3225.9777
-3226.0257
-3226.0131
-3225.9217
-3225.6627
-3226.7289
-3227.2217
-3225.5855
-3226.3993
-3225.7568
-3225.8981
-3225.9212
-3225.9059
-3225.8181
-3225.6185
-3227.2217
-3225.5681
-3047.9053
-3049.8718
-3047.6313
-3048.254
-3048.3357
-3048.3344
-3048.3056
-3048.2574
-3048.6821
-3048.2412
-3049.8718
-3049.0853
-3048.0685
-3048.6199
-3048.6849
-3048.6712
-3048.5998
-3048.4716
-3049.6041
-3049.0734
-3047.6313
-3048.0685
-3046.8848
-3047.4084
-3047.4699
-3047.4531
-3047.3564
-3047.1133
-3048.2995
-3048.4222
-3048.254
-3048.6199
-3047.4084
-3047.9277
-3047.9889
-3047.9724
-3047.8697
-3047.5762
-3048.6348
-3048.5723
-3048.3357
-3048.6849
-3047.4699
-3047.9889
-3048.0504
-3048.0346
-3047.9332
-3047.6374
-3048.6861
-3048.5967
-3048.3344
-3048.6712
-3047.4531
-3047.9724
-3048.0346
-3048.0191
-3047.9183
-3047.6229
-3048.6714
-3048.579
-3048.3056
-3048.5998
-3047.3564
-3047.8697
-3047.9332
-3047.9183
-3047.8173
-3047.5212
-3048.5682
-3048.4793
-3048.2574
-3048.4716
-3047.1133
-3047.5762
-3047.6374
-3047.6229
-3047.5212
-3047.2231
-3048.2705
-3048.2467
-3048.6821
-3049.6041
-3048.2995
-3048.6348
-3048.6861
-3048.6714
-3048.5682
-3048.2705
-3049.3667
-3049.9407
-3048.2412
-3049.0734
-3048.4222
-3048.5723
-3048.5967
-3048.579
-3048.4793
-3048.2467
-3049.9407
-3048.2295
-2884.7758
-2886.7289
-2884.4698
-2885.1267
-2885.2128
-2885.2105
-2885.177
-2885.1173
-2885.5513
-2885.1094
-2886.7289
-2885.9098
-2884.9102
-2885.491
-2885.5592
-2885.5434
-2885.4627
-2885.31
-2886.4718
-2885.956
-2884.4698
-2884.9102
-2883.7338
-2884.2851
-2884.3497
-2884.3307
-2884.2233
-2883.9471
-2885.156
-2885.3011
-2885.1267
-2885.491
-2884.2851
-2884.8319
-2884.8962
-2884.8776
-2884.764
-2884.4344
-2885.509
-2885.4588
-2885.2128
-2885.5592
-2884.3497
-2884.8962
-2884.9608
-2884.943
-2884.8309
-2884.499
-2885.563
-2885.4843
-2885.2105
-2885.5434
-2884.3307
-2884.8776
-2884.943
-2884.9256
-2884.814
-2884.4825
-2885.5464
-2885.4644
-2885.177
-2885.4627
-2884.2233
-2884.764
-2884.8309
-2884.814
-2884.7023
-2884.3699
-2885.4318
-2885.3532
-2885.1173
-2885.31
-2883.9471
-2884.4344
-2884.499
-2884.4825
-2884.3699
-2884.035
-2885.0967
-2885.0882
-2885.5513
-2886.4718
-2885.156
-2885.509
-2885.563
-2885.5464
-2885.4318
-2885.0967
-2886.2094
-2886.8554
-2885.1094
-2885.956
-2885.3011
-2885.4588
-2885.4843
-2885.4644
-2885.3532
-2885.0882
-2886.8554
-2885.101
-2733.5419
-2735.4753
-2733.2143
-2733.9007
-2733.9905
-2733.9872
-2733.9492
-2733.8779
-2734.3161
-2733.8735
-2735.4753
-2734.6363
-2733.6613
-2734.2672
-2734.3381
-2734.3202
-2734.2307
-2734.0538
-2735.233
-2734.731
-2733.2143
-2733.6613
-2732.5008
-2733.0758
-2733.143
-2733.1219
-2733.0044
-2732.6964
-2733.9157
-2734.0768
-2733.9007
-2734.2672
-2733.0758
-2733.6461
-2733.713
-2733.6924
-2733.5687
-2733.2048
-2734.2837
-2734.2409
-2733.9905
-2734.3381
-2733.143
-2733.713
-2733.7801
-2733.7604
-2733.6383
-2733.2721
-2734.3402
-2734.2675
-2733.9872
-2734.3202
-2733.1219
-2733.6924
-2733.7604
-2733.7412
-2733.6196
-2733.2539
-2734.3218
-2734.2454
-2733.9492
-2734.2307
-2733.0044
-2733.5687
-2733.6383
-2733.6196
-2733.4979
-2733.131
-2734.1966
-2734.1234
-2733.8779
-2734.0538
-2732.6964
-2733.2048
-2733.2721
-2733.2539
-2733.131
-2732.7612
-2733.8255
-2733.8271
-2734.3161
-2735.233
-2733.9157
-2734.2837
-2734.3402
-2734.3218
-2734.1966
-2733.8255
-2734.9428
-2735.6506
-2733.8735
-2734.731
-2734.0768
-2734.2409
-2734.2675
-2734.2454
-2734.1234
-2733.8271
-2735.6506
-2733.8655
-2592.3356
-2594.2438
-2591.9964
-2592.7072
-2592.8001
-2592.7957
-2592.7534
-2592.6707
-2593.1085
-2592.6655
-2594.2438
-2593.3973
-2592.453
-2593.0796
-2593.1526
-2593.1327
-2593.0349
-2592.8347
-2594.0204
-2593.5301
-2591.9964
-2592.453
-2591.316
-2591.9104
-2591.9797
-2591.9566
-2591.8298
-2591.4918
-2592.7101
-2592.8808
-2592.7072
-2593.0796
-2591.9104
-2592.4999
-2592.5689
-2592.5465
-2592.4134
-2592.0175
-2593.0906
-2593.0503
-2592.8001
-2593.1526
-2591.9797
-2592.5689
-2592.6381
-2592.6167
-2592.4854
-2592.0871
-2593.1491
-2593.0775
-2592.7957
-2593.1327
-2591.9566
-2592.5465
-2592.6167
-2592.5957
-2592.465
-2592.0672
-2593.129
-2593.0534
-2592.7534
-2593.0349
-2591.8298
-2592.4134
-2592.4854
-2592.465
-2592.334
-2591.935
-2592.994
-2592.9215
-2592.6707
-2592.8347
-2591.4918
-2592.0175
-2592.0871
-2592.0672
-2591.935
-2591.5324
-2592.5893
-2592.5954
-2593.1085
-2594.0204
-2592.7101
-2593.0906
-2593.1491
-2593.129
-2592.994
-2592.5893
-2593.7004
-2594.4592
-2592.6655
-2593.5301
-2592.8808
-2593.0503
-2593.0775
-2593.0534
-2592.9215
-2592.5954
-2594.4592
-2592.6544
-2459.6404
-2461.5187
-2459.299
-2460.0291
-2460.1243
-2460.1189
-2460.0726
-2459.9788
-2460.4122
-2459.9687
-2461.5187
-2460.6761
-2459.7677
-2460.4104
-2460.485
-2460.4632
-2460.3578
-2460.1353
-2461.3176
-2460.837
-2459.299
-2459.7677
-2458.6605
-2459.2701
-2459.3409
-2459.3161
-2459.1808
-2458.815
-2460.0224
-2460.1963
-2460.0291
-2460.4104
-2459.2701
-2459.8745
-2459.945
-2459.921
-2459.7795
-2459.3542
-2460.4126
-2460.3698
-2460.1243
-2460.485
-2459.3409
-2459.945
-2460.0158
-2459.9928
-2459.8533
-2459.4257
-2460.4727
-2460.3976
-2460.1189
-2460.4632
-2459.3161
-2459.921
-2459.9928
-2459.9703
-2459.8314
-2459.4043
-2460.4511
-2460.3717
-2460.0726
-2460.3578
-2459.1808
-2459.7795
-2459.8533
-2459.8314
-2459.6922
-2459.2636
-2460.3072
-2460.2306
-2459.9788
-2460.1353
-2458.815
-2459.3542
-2459.4257
-2459.4043
-2459.2636
-2458.831
-2459.8715
-2459.8767
-2460.4122
-2461.3176
-2460.0224
-2460.4126
-2460.4727
-2460.4511
-2460.3072
-2459.8715
-2460.9668
-2461.7658
-2459.9687
-2460.837
-2460.1963
-2460.3698
-2460.3976
-2460.3717
-2460.2306
-2459.8767
-2461.7658
-2459.9512
-2334.2191
-2336.0629
-2333.8839
-2334.628
-2334.7249
-2334.7185
-2334.6684
-2334.5642
-2334.9896
-2334.5456
-2336.0629
-2335.235
-2334.3664
-2335.0206
-2335.0962
-2335.0728
-2334.9604
-2334.7173
-2335.8872
-2335.414
-2333.8839
-2334.3664
-2333.2948
-2333.9151
-2333.9868
-2333.9604
-2333.8178
-2333.4267
-2334.6142
-2334.7853
-2334.628
-2335.0206
-2333.9151
-2334.5301
-2334.6016
-2334.5762
-2334.4273
-2333.9755
-2335.0114
-2334.9617
-2334.7249
-2335.0962
-2333.9868
-2334.6016
-2334.6735
-2334.6491
-2334.5023
-2334.0483
-2335.0726
-2334.9899
-2334.7185
-2335.0728
-2333.9604
-2334.5762
-2334.6491
-2334.6251
-2334.479
-2334.0256
-2335.0496
-2334.9623
-2334.6684
-2334.9604
-2333.8178
-2334.4273
-2334.5023
-2334.479
-2334.3326
-2333.8775
-2334.898
-2334.8131
-2334.5642
-2334.7173
-2333.4267
-2333.9755
-2334.0483
-2334.0256
-2333.8775
-2333.4178
-2334.4342
-2334.4337
-2334.9896
-2335.8872
-2334.6142
-2335.0114
-2335.0726
-2335.0496
-2334.898
-2334.4342
-2335.5054
-2336.3341
-2334.5456
-2335.414
-2334.7853
-2334.9617
-2334.9899
-2334.9623
-2334.8131
-2334.4337
-2336.3341
-2334.5185
-2215.058
-2216.8632
-2214.7366
-2215.4893
-2215.5872
-2215.5798
-2215.5264
-2215.4124
-2215.8266
-2215.3824
-2216.8632
-2216.0594
-2215.234
-2215.895
-2215.9711
-2215.9461
-2215.8276
-2215.5655
-2216.715
-2216.2474
-2214.7366
-2215.234
-2214.2025
-2214.8291
-2214.9014
-2214.8736
-2214.7245
-2214.3111
-2215.4709
-2215.6339
-2215.4893
-2215.895
-2214.8291
-2215.4504
-2215.5224
-2215.4957
-2215.3406
-2214.8657
-2215.8721
-2215.8117
-2215.5872
-2215.9711
-2214.9014
-2215.5224
-2215.5948
-2215.5692
-2215.4163
-2214.9392
-2215.9341
-2215.8401
-2215.5798
-2215.9461
-2214.8736
-2215.4957
-2215.5692
-2215.544
-2215.3918
-2214.9153
-2215.9099
-2215.8112
-2215.5264
-2215.8276
-2214.7245
-2215.3406
-2215.4163
-2215.3918
-2215.2392
-2214.7609
-2215.7516
-2215.6548
-2215.4124
-2215.5655
-2214.3111
-2214.8657
-2214.9392
-2214.9153
-2214.7609
-2214.2775
-2215.263
-2215.2527
-2215.8266
-2216.715
-2215.4709
-2215.8721
-2215.9341
-2215.9099
-2215.7516
-2215.263
-2216.3031
-2217.151
-2215.3824
-2216.2474
-2215.6339
-2215.8117
-2215.8401
-2215.8112
-2215.6548
-2215.2527
-2217.151
-2215.3426
-2101.3248
-2103.0871
-2101.0236
-2101.7796
-2101.8777
-2101.8695
-2101.8131
-2101.6902
-2102.0905
-2101.6463
-2103.0871
-2102.316
-2101.5361
-2102.1993
-2102.2753
-2102.2489
-2102.1253
-2101.8462
-2102.9682
-2102.5044
-2101.0236
-2101.5361
-2100.5487
-2101.1773
-2101.2495
-2101.2206
-2101.0662
-2100.6335
-2101.7588
-2101.9088
-2101.7796
-2102.1993
-2101.1773
-2101.8004
-2101.8724
-2101.8447
-2101.6844
-2101.19
-2102.1613
-2102.087
-2101.8777
-2102.2753
-2101.2495
-2101.8724
-2101.9448
-2101.9182
-2101.7603
-2101.2637
-2102.2235
-2102.1153
-2101.8695
-2102.2489
-2101.2206
-2101.8447
-2101.9182
-2101.8921
-2101.7349
-2101.2389
-2102.1983
-2102.0851
-2101.8131
-2102.1253
-2101.0662
-2101.6844
-2101.7603
-2101.7349
-2101.5773
-2101.0793
-2102.0345
-2101.9228
-2101.6902
-2101.8462
-2100.6335
-2101.19
-2101.2637
-2101.2389
-2101.0793
-2100.5758
-2101.5248
-2101.5008
-2102.0905
-2102.9682
-2101.7588
-2102.1613
-2102.2235
-2102.1983
-2102.0345
-2101.5248
-2102.5275
-2103.3851
-2101.6463
-2102.5044
-2101.9088
-2102.087
-2102.1153
-2102.0851
-2101.9228
-2101.5008
-2103.3851
-2101.5913
-1992.335
-1994.0503
-1992.0594
-1992.8135
-1992.9111
-1992.9021
-1992.8432
-1992.7124
-1993.0965
-1992.6529
-1994.0503
-1993.3191
-1992.5865
-1993.2472
-1993.3226
-1993.2952
-1993.1672
-1992.8733
-1993.9616
-1993.5003
-1992.0594
-1992.5865
-1991.6465
-1992.2726
-1992.3443
-1992.3145
-1992.156
-1991.7073
-1992.7923
-1992.9253
-1992.8135
-1993.2472
-1992.2726
-1992.8933
-1992.9649
-1992.9363
-1992.7721
-1992.2618
-1993.1931
-1993.1024
-1992.9111
-1993.3226
-1992.3443
-1992.9649
-1993.0368
-1993.0094
-1992.8477
-1992.3353
-1993.2552
-1993.1305
-1992.9021
-1993.2952
-1992.3145
-1992.9363
-1993.0094
-1992.9825
-1992.8215
-1992.3097
-1993.2293
-1993.0994
-1992.8432
-1993.1672
-1992.156
-1992.7721
-1992.8477
-1992.8215
-1992.6601
-1992.1462
-1993.0612
-1992.9324
-1992.7124
-1992.8733
-1991.7073
-1992.2618
-1992.3353
-1992.3097
-1992.1462
-1991.6262
-1992.5341
-1992.4936
-1993.0965
-1993.9616
-1992.7923
-1993.1931
-1993.2552
-1993.2293
-1993.0612
-1992.5341
-1993.4944
-1994.3525
-1992.6529
-1993.5003
-1992.9253
-1993.1024
-1993.1305
-1993.0994
-1992.9324
-1992.4936
-1994.3525
-1992.5805
-1887.5264
-1889.1904
-1887.2807
-1888.0276
-1888.124
-1888.1143
-1888.0533
-1887.9156
-1888.2817
-1887.8395
-1889.1904
-1888.5053
-1887.8211
-1888.4748
-1888.5491
-1888.5208
-1888.3895
-1888.0832
-1889.1322
-1888.6727
-1887.2807
-1887.8211
-1886.9311
-1887.5505
-1887.6212
-1887.5907
-1887.4293
-1886.9681
-1888.0077
-1888.1205
-1888.0276
-1888.4748
-1887.5505
-1888.1645
-1888.2351
-1888.2059
-1888.0391
-1887.5167
-1888.4042
-1888.2953
-1888.124
-1888.5491
-1887.6212
-1888.2351
-1888.306
-1888.2781
-1888.1138
-1887.5895
-1888.4657
-1888.323
-1888.1143
-1888.5208
-1887.5907
-1888.2059
-1888.2781
-1888.2507
-1888.0871
-1887.5633
-1888.4392
-1888.2912
-1888.0533
-1888.3895
-1887.4293
-1888.0391
-1888.1138
-1888.0871
-1887.9231
-1887.3971
-1888.268
-1888.1206
-1887.9156
-1888.0832
-1886.9681
-1887.5167
-1887.5895
-1887.5633
-1887.3971
-1886.8647
-1887.7275
-1887.6684
-1888.2817
-1889.1322
-1888.0077
-1888.4042
-1888.4657
-1888.4392
-1888.268
-1887.7275
-1888.6413
-1889.4916
-1887.8395
-1888.6727
-1888.1205
-1888.2953
-1888.323
-1888.2912
-1888.1206
-1887.6684
-1889.4916
-1887.7482
-1786.4382
-1788.0465
-1786.2255
-1786.96
-1787.0547
-1787.0444
-1786.9818
-1786.8384
-1787.185
-1786.7452
-1788.0465
-1787.4124
-1786.7771
-1787.4195
-1787.4922
-1787.4632
-1787.3296
-1787.0134
-1788.0185
-1787.5604
-1786.2255
-1786.7771
-1785.9392
-1786.5478
-1786.617
-1786.586
-1786.4229
-1785.9528
-1786.943
-1787.0331
-1786.96
-1787.4195
-1786.5478
-1787.151
-1787.2202
-1787.1907
-1787.0224
-1786.4919
-1787.3324
-1787.2043
-1787.0547
-1787.4922
-1786.617
-1787.2202
-1787.2897
-1787.2614
-1787.0957
-1786.5635
-1787.3929
-1787.2314
-1787.0444
-1787.4632
-1786.586
-1787.1907
-1787.2614
-1787.2336
-1787.0687
-1786.537
-1787.3661
-1787.1991
-1786.9818
-1787.3296
-1786.4229
-1787.0224
-1787.0957
-1787.0687
-1786.9033
-1786.3692
-1787.1931
-1787.0263
-1786.8384
-1787.0134
-1785.9528
-1786.4919
-1786.5635
-1786.537
-1786.3692
-1785.8284
-1786.6433
-1786.5642
-1787.185
-1788.0185
-1786.943
-1787.3324
-1787.3929
-1787.3661
-1787.1931
-1786.6433
-1787.5072
-1788.3423
-1786.7452
-1787.5604
-1787.0331
-1787.2043
-1787.2314
-1787.1991
-1787.0263
-1786.5642
-1788.3423
-1786.6339
-1688.6944
-1690.2425
-1688.5169
-1689.2342
-1689.3264
-1689.3156
-1689.2519
-1689.104
-1689.4298
-1688.9939
-1690.2425
-1689.6633
-1689.0771
-1689.7038
-1689.7744
-1689.745
-1689.6102
-1689.2867
-1690.2439
-1689.7874
-1688.5169
-1689.0771
-1688.2928
-1688.8865
-1688.9538
-1688.9227
-1688.7591
-1688.2836
-1689.2211
-1689.2867
-1689.2342
-1689.7038
-1688.8865
-1689.475
-1689.5422
-1689.5126
-1689.3442
-1688.8096
-1689.6007
-1689.4532
-1689.3264
-1689.7744
-1688.9538
-1689.5422
-1689.6099
-1689.5815
-1689.4157
-1688.8795
-1689.6599
-1689.4795
-1689.3156
-1689.745
-1688.9227
-1689.5126
-1689.5815
-1689.5536
-1689.3886
-1688.8529
-1689.6329
-1689.447
-1689.2519
-1689.6102
-1688.7591
-1689.3442
-1689.4157
-1689.3886
-1689.2229
-1688.6848
-1689.4594
-1689.2732
-1689.104
-1689.2867
-1688.2836
-1688.8096
-1688.8795
-1688.8529
-1688.6848
-1688.1397
-1688.9044
-1688.8048
-1689.4298
-1690.2439
-1689.2211
-1689.6007
-1689.6599
-1689.6329
-1689.4594
-1688.9044
-1689.716
-1690.5291
-1688.9939
-1689.7874
-1689.2867
-1689.4532
-1689.4795
-1689.447
-1689.2732
-1688.8048
-1690.5291
-1688.8621
-1593.991
-1595.4742
-1593.8498
-1594.5449
-1594.6342
-1594.6229
-1594.5587
-1594.4075
-1594.7117
-1594.2812
-1595.4742
-1594.9527
-1594.4151
-1595.022
-1595.0902
-1595.0606
-1594.9256
-1594.5974
-1595.5035
-1595.0492
-1593.8498
-1594.4151
-1593.6856
-1594.2605
-1594.3255
-1594.2944
-1594.1316
-1593.6544
-1594.5367
-1594.5768
-1594.5449
-1595.022
-1594.2605
-1594.8303
-1594.8953
-1594.8658
-1594.6984
-1594.1639
-1594.9039
-1594.7374
-1594.6342
-1595.0902
-1594.3255
-1594.8953
-1594.9607
-1594.9324
-1594.7677
-1594.2316
-1594.9612
-1594.7627
-1594.6229
-1595.0606
-1594.2944
-1594.8658
-1594.9324
-1594.9047
-1594.7407
-1594.2051
-1594.9343
-1594.7303
-1594.5587
-1594.9256
-1594.1316
-1594.6984
-1594.7677
-1594.7407
-1594.5761
-1594.038
-1594.7617
-1594.5568
-1594.4075
-1594.5974
-1593.6544
-1594.1639
-1594.2316
-1594.2051
-1594.038
-1593.4926
-1594.2058
-1594.0856
-1594.7117
-1595.5035
-1594.5367
-1594.9039
-1594.9612
-1594.9343
-1594.7617
-1594.2058
-1594.9633
-1595.7486
-1594.2812
-1595.0492
-1594.5768
-1594.7374
-1594.7627
-1594.7303
-1594.5568
-1594.0856
-1595.7486
-1594.1289
-1502.0843
-1503.4979
-1501.9796
-1502.6481
-1502.7337
-1502.7222
-1502.6579
-1502.5048
-1502.7868
-1502.3635
-1503.4979
-1503.0359
-1502.5462
-1503.1294
-1503.1946
-1503.1652
-1503.031
-1502.7009
-1503.5532
-1503.1024
-1501.9796
-1502.5462
-1501.8721
-1502.4245
-1502.4868
-1502.456
-1502.2951
-1501.8201
-1502.645
-1502.6596
-1502.6481
-1503.1294
-1502.4245
-1502.972
-1503.0343
-1503.0052
-1502.8401
-1502.3096
-1502.9975
-1502.8132
-1502.7337
-1503.1946
-1502.4868
-1503.0343
-1503.097
-1503.0692
-1502.9067
-1502.3747
-1503.0527
-1502.8373
-1502.7222
-1503.1652
-1502.456
-1503.0052
-1503.0692
-1503.0418
-1502.88
-1502.3485
-1503.026
-1502.8052
-1502.6579
-1503.031
-1502.2951
-1502.8401
-1502.9067
-1502.88
-1502.7177
-1502.1837
-1502.8554
-1502.6333
-1502.5048
-1502.7009
-1501.8201
-1502.3096
-1502.3747
-1502.3485
-1502.1837
-1501.6422
-1502.3028
-1502.1631
-1502.7868
-1503.5532
-1502.645
-1502.9975
-1503.0527
-1503.026
-1502.8554
-1502.3028
-1503.0051
-1503.7578
-1502.3635
-1503.1024
-1502.6596
-1502.8132
-1502.8373
-1502.8052
-1502.6333
-1502.1631
-1503.7578
-1502.1914
-1412.7827
-1414.122
-1412.7139
-1413.3513
-1413.4328
-1413.4211
-1413.3572
-1413.2035
-1413.4631
-1413.049
-1414.122
-1413.7202
-1413.2773
-1413.833
-1413.895
-1413.8659
-1413.7336
-1413.4044
-1414.2007
-1413.7551
-1412.7139
-1413.2773
-1412.6588
-1413.1853
-1413.2445
-1413.2144
-1413.0566
-1412.5873
-1413.3537
-1413.343
-1413.3513
-1413.833
-1413.1853
-1413.7071
-1413.7664
-1413.7378
-1413.5762
-1413.0537
-1413.689
-1413.4886
-1413.4328
-1413.895
-1413.2445
-1413.7664
-1413.826
-1413.7987
-1413.6397
-1413.1159
-1413.7416
-1413.5114
-1413.4211
-1413.8659
-1413.2144
-1413.7378
-1413.7987
-1413.7719
-1413.6136
-1413.0902
-1413.7155
-1413.4798
-1413.3572
-1413.7336
-1413.0566
-1413.5762
-1413.6397
-1413.6136
-1413.4546
-1412.9287
-1413.5482
-1413.3108
-1413.2035
-1413.4044
-1412.5873
-1413.0537
-1413.1159
-1413.0902
-1412.9287
-1412.3952
-1413.003
-1412.8453
-1413.4631
-1414.2007
-1413.3537
-1413.689
-1413.7416
-1413.7155
-1413.5482
-1413.003
-1413.6498
-1414.3655
-1413.049
-1413.7551
-1413.343
-1413.4886
-1413.5114
-1413.4798
-1413.3108
-1412.8453
-1414.3655
-1412.8583
-1325.939
-1327.1989
-1325.9045
-1326.5067
-1326.5835
-1326.5718
-1326.5089
-1326.3559
-1326.5929
-1326.1902
-1327.1989
-1326.8573
-1326.4599
-1326.9846
-1327.043
-1327.0145
-1326.8851
-1326.5595
-1327.2984
-1326.8599
-1325.9045
-1326.4599
-1325.897
-1326.3942
-1326.45
-1326.4207
-1326.2672
-1325.8073
-1326.5144
-1326.4796
-1326.5067
-1326.9846
-1326.3942
-1326.887
-1326.9429
-1326.9152
-1326.7582
-1326.2477
-1326.8303
-1326.6161
-1326.5835
-1327.043
-1326.45
-1326.9429
-1326.9991
-1326.9726
-1326.8182
-1326.3064
-1326.8801
-1326.6375
-1326.5718
-1327.0145
-1326.4207
-1326.9152
-1326.9726
-1326.9466
-1326.7929
-1326.2815
-1326.8547
-1326.6067
-1326.5089
-1326.8851
-1326.2672
-1326.7582
-1326.8182
-1326.7929
-1326.6384
-1326.1246
-1326.6919
-1326.4418
-1326.3559
-1326.5595
-1325.8073
-1326.2477
-1326.3064
-1326.2815
-1326.1246
-1325.6031
-1326.1583
-1325.9846
-1326.5929
-1327.2984
-1326.5144