/*--------------------------------*- C++ -*----------------------------------*\
| =========                 |                                                 |
| \\      /  F ield         | OpenFOAM: The Open Source CFD Toolbox           |
|  \\    /   O peration     | Version:  v2106                                 |
|   \\  /    A nd           | Website:  www.openfoam.com                      |
|    \\/     M anipulation  |                                                 |
\*---------------------------------------------------------------------------*/
FoamFile
{
    version     2.0;
    format      ascii;
    arch        "LSB;label=32;scalar=64";
    class       volScalarField;
    location    "40";
    object      T;
}
// * * * * * * * * * * * * * * * * * * * * * * * * * * * * * * * * * * * * * //

dimensions      [0 0 0 1 0 0 0];

internalField   nonuniform List<scalar> 
4000
(
275.26969
275.26966
275.26968
275.26968
275.26969
275.26969
275.26969
275.26969
275.26968
275.26968
275.26966
275.26965
275.26967
275.26968
275.26968
275.26968
275.26968
275.26968
275.26967
275.26967
275.26968
275.26967
275.26969
275.26969
275.26969
275.2697
275.26969
275.26969
275.26968
275.26968
275.26968
275.26968
275.26969
275.2697
275.2697
275.2697
275.2697
275.26969
275.26969
275.26968
275.26969
275.26968
275.26969
275.2697
275.2697
275.2697
275.2697
275.2697
275.26969
275.26969
275.26969
275.26968
275.2697
275.2697
275.2697
275.2697
275.2697
275.26969
275.26969
275.26968
275.26969
275.26968
275.26969
275.2697
275.2697
275.2697
275.2697
275.26969
275.26968
275.26968
275.26969
275.26968
275.26969
275.26969
275.2697
275.26969
275.26969
275.26969
275.26968
275.26968
275.26968
275.26967
275.26968
275.26969
275.26969
275.26969
275.26968
275.26968
275.26967
275.26967
275.26968
275.26967
275.26968
275.26968
275.26969
275.26968
275.26968
275.26968
275.26967
275.26967
284.13693
284.13682
284.13689
284.13693
284.13694
284.13695
284.13694
284.13693
284.13692
284.13693
284.13682
284.13679
284.13686
284.13689
284.13691
284.13691
284.1369
284.13689
284.13687
284.13688
284.13689
284.13686
284.13692
284.13695
284.13697
284.13697
284.13696
284.13694
284.13692
284.13691
284.13693
284.13689
284.13695
284.13698
284.137
284.137
284.13699
284.13696
284.13694
284.13693
284.13694
284.13691
284.13697
284.137
284.13701
284.13701
284.13699
284.13697
284.13694
284.13693
284.13695
284.13691
284.13697
284.137
284.13701
284.13701
284.13699
284.13697
284.13694
284.13693
284.13694
284.1369
284.13696
284.13699
284.13699
284.13699
284.13697
284.13695
284.13692
284.13691
284.13693
284.13689
284.13694
284.13696
284.13697
284.13697
284.13695
284.13692
284.13689
284.13688
284.13692
284.13687
284.13692
284.13694
284.13694
284.13694
284.13692
284.13689
284.13686
284.13686
284.13693
284.13688
284.13691
284.13693
284.13693
284.13693
284.13691
284.13688
284.13686
284.13686
292.93954
292.93939
292.9395
292.93955
292.93958
292.93959
292.93958
292.93955
292.93953
292.93956
292.93939
292.93935
292.93946
292.93951
292.93954
292.93954
292.93952
292.93949
292.93946
292.93949
292.9395
292.93946
292.93956
292.93961
292.93964
292.93964
292.93962
292.93958
292.93953
292.93954
292.93955
292.93951
292.93961
292.93966
292.93969
292.93968
292.93966
292.93962
292.93956
292.93956
292.93958
292.93954
292.93964
292.93969
292.93971
292.9397
292.93968
292.93963
292.93957
292.93957
292.93959
292.93954
292.93964
292.93968
292.9397
292.9397
292.93967
292.93962
292.93956
292.93956
292.93958
292.93952
292.93962
292.93966
292.93968
292.93967
292.93964
292.93959
292.93953
292.93952
292.93955
292.93949
292.93958
292.93962
292.93963
292.93962
292.93959
292.93954
292.93948
292.93948
292.93953
292.93946
292.93953
292.93956
292.93957
292.93956
292.93953
292.93948
292.93942
292.93942
292.93956
292.93949
292.93954
292.93956
292.93957
292.93956
292.93952
292.93948
292.93942
292.93945
301.67594
301.67576
301.67591
301.67599
301.67602
301.67603
301.67601
301.67597
301.67594
301.67597
301.67576
301.67572
301.67586
301.67594
301.67597
301.67597
301.67595
301.6759
301.67584
301.67588
301.67591
301.67586
301.676
301.67607
301.6761
301.6761
301.67607
301.67601
301.67593
301.67595
301.67599
301.67594
301.67607
301.67614
301.67617
301.67616
301.67613
301.67606
301.67597
301.67598
301.67602
301.67597
301.6761
301.67617
301.67619
301.67619
301.67615
301.67607
301.67598
301.67599
301.67603
301.67597
301.6761
301.67616
301.67619
301.67618
301.67613
301.67606
301.67596
301.67596
301.67601
301.67595
301.67607
301.67613
301.67615
301.67613
301.67608
301.67601
301.67591
301.67591
301.67597
301.6759
301.67601
301.67606
301.67607
301.67606
301.67601
301.67593
301.67584
301.67584
301.67594
301.67584
301.67593
301.67597
301.67598
301.67596
301.67591
301.67584
301.67575
301.67576
301.67597
301.67588
301.67595
301.67598
301.67599
301.67596
301.67591
301.67584
301.67576
301.67582
310.34466
310.34445
310.34463
310.34472
310.34476
310.34477
310.34474
310.34468
310.34463
310.34468
310.34445
310.3444
310.34458
310.34466
310.34471
310.34471
310.34467
310.3446
310.34451
310.34457
310.34463
310.34458
310.34475
310.34483
310.34487
310.34487
310.34482
310.34474
310.34463
310.34464
310.34472
310.34466
310.34483
310.34491
310.34495
310.34494
310.34489
310.3448
310.34467
310.34468
310.34476
310.34471
310.34487
310.34495
310.34498
310.34496
310.34491
310.34481
310.34468
310.34469
310.34477
310.34471
310.34487
310.34494
310.34496
310.34495
310.34488
310.34478
310.34465
310.34465
310.34474
310.34467
310.34482
310.34489
310.34491
310.34488
310.34482
310.34472
310.34459
310.34459
310.34468
310.3446
310.34474
310.3448
310.34481
310.34478
310.34472
310.34461
310.34448
310.34449
310.34463
310.34451
310.34463
310.34467
310.34468
310.34465
310.34459
310.34448
310.34436
310.34438
310.34468
310.34457
310.34464
310.34468
310.34469
310.34465
310.34459
310.34449
310.34438
310.34447
318.9443
318.94407
318.94428
318.94439
318.94444
318.94444
318.94439
318.94432
318.94425
318.9443
318.94407
318.94402
318.94422
318.94432
318.94437
318.94437
318.94432
318.94422
318.94411
318.94417
318.94428
318.94422
318.94442
318.94452
318.94456
318.94455
318.94449
318.94439
318.94424
318.94426
318.94439
318.94432
318.94452
318.94461
318.94465
318.94464
318.94457
318.94445
318.9443
318.9443
318.94444
318.94437
318.94456
318.94465
318.94469
318.94467
318.94459
318.94447
318.9443
318.9443
318.94444
318.94437
318.94455
318.94464
318.94467
318.94464
318.94456
318.94443
318.94426
318.94426
318.94439
318.94432
318.94449
318.94457
318.94459
318.94456
318.94448
318.94434
318.94417
318.94417
318.94432
318.94422
318.94439
318.94445
318.94447
318.94443
318.94434
318.94421
318.94404
318.94405
318.94425
318.94411
318.94424
318.9443
318.9443
318.94426
318.94417
318.94404
318.94388
318.9439
318.9443
318.94417
318.94426
318.9443
318.9443
318.94426
318.94417
318.94405
318.9439
318.94402
327.47365
327.47339
327.47363
327.47375
327.47381
327.4738
327.47375
327.47365
327.47356
327.47362
327.47339
327.47334
327.47357
327.47369
327.47374
327.47373
327.47366
327.47355
327.47341
327.47348
327.47363
327.47357
327.4738
327.47391
327.47395
327.47394
327.47386
327.47373
327.47355
327.47357
327.47375
327.47369
327.47391
327.47401
327.47406
327.47403
327.47395
327.4738
327.47361
327.47362
327.47381
327.47374
327.47395
327.47406
327.47409
327.47406
327.47397
327.47381
327.47361
327.47361
327.4738
327.47373
327.47394
327.47403
327.47406
327.47402
327.47393
327.47377
327.47356
327.47356
327.47375
327.47366
327.47386
327.47395
327.47397
327.47393
327.47382
327.47366
327.47345
327.47345
327.47365
327.47355
327.47373
327.4738
327.47381
327.47377
327.47366
327.4735
327.47329
327.4733
327.47356
327.47341
327.47355
327.47361
327.47361
327.47356
327.47345
327.47329
327.4731
327.47312
327.47362
327.47348
327.47357
327.47362
327.47361
327.47356
327.47345
327.4733
327.47312
327.47327
335.93161
335.93133
335.9316
335.93173
335.93179
335.93178
335.93171
335.9316
335.93148
335.93155
335.93133
335.93128
335.93154
335.93167
335.93172
335.9317
335.93162
335.93149
335.93132
335.93139
335.9316
335.93154
335.93179
335.93191
335.93196
335.93194
335.93185
335.93169
335.93148
335.93149
335.93173
335.93167
335.93191
335.93203
335.93207
335.93204
335.93194
335.93177
335.93154
335.93154
335.93179
335.93172
335.93196
335.93207
335.93211
335.93207
335.93196
335.93177
335.93154
335.93153
335.93178
335.9317
335.93194
335.93204
335.93207
335.93202
335.9319
335.93172
335.93147
335.93147
335.93171
335.93162
335.93185
335.93194
335.93196
335.9319
335.93178
335.93159
335.93134
335.93134
335.9316
335.93149
335.93169
335.93177
335.93177
335.93172
335.93159
335.9314
335.93115
335.93115
335.93148
335.93132
335.93148
335.93154
335.93154
335.93147
335.93134
335.93115
335.93092
335.93094
335.93155
335.93139
335.93149
335.93154
335.93153
335.93147
335.93134
335.93115
335.93094
335.93112
344.31726
344.31697
344.31727
344.31741
344.31747
344.31745
344.31737
344.31723
344.3171
344.31716
344.31697
344.31692
344.3172
344.31734
344.31739
344.31737
344.31728
344.31711
344.31691
344.31699
344.31727
344.3172
344.31747
344.31761
344.31765
344.31762
344.31752
344.31733
344.31709
344.3171
344.31741
344.31734
344.31761
344.31773
344.31777
344.31774
344.31762
344.31742
344.31715
344.31715
344.31747
344.31739
344.31765
344.31777
344.31781
344.31776
344.31763
344.31742
344.31715
344.31714
344.31745
344.31737
344.31762
344.31774
344.31776
344.3177
344.31757
344.31735
344.31707
344.31706
344.31737
344.31728
344.31752
344.31762
344.31763
344.31757
344.31743
344.3172
344.31692
344.31691
344.31723
344.31711
344.31733
344.31742
344.31742
344.31735
344.3172
344.31698
344.3167
344.3167
344.3171
344.31691
344.31709
344.31715
344.31715
344.31707
344.31692
344.3167
344.31644
344.31646
344.31716
344.31699
344.3171
344.31715
344.31714
344.31706
344.31691
344.3167
344.31646
344.31665
352.62984
352.62954
352.62986
352.63001
352.63007
352.63005
352.62995
352.6298
352.62964
352.6297
352.62954
352.62949
352.62979
352.62994
352.62999
352.62996
352.62986
352.62967
352.62944
352.62952
352.62986
352.62979
352.63009
352.63023
352.63028
352.63024
352.63012
352.62991
352.62963
352.62964
352.63001
352.62994
352.63023
352.63036
352.6304
352.63036
352.63022
352.62999
352.6297
352.62969
352.63007
352.62999
352.63028
352.6304
352.63044
352.63038
352.63023
352.62999
352.62968
352.62967
352.63005
352.62996
352.63024
352.63036
352.63038
352.63031
352.63016
352.62991
352.6296
352.62958
352.62995
352.62986
352.63012
352.63022
352.63023
352.63016
352.63
352.62975
352.62943
352.62941
352.6298
352.62967
352.62991
352.62999
352.62999
352.62991
352.62975
352.6295
352.62918
352.62917
352.62964
352.62944
352.62963
352.6297
352.62968
352.6296
352.62943
352.62918
352.62888
352.62889
352.6297
352.62952
352.62964
352.62969
352.62967
352.62958
352.62941
352.62917
352.62889
352.6291
360.86876
360.86845
360.86879
360.86895
360.86901
360.86898
360.86887
360.86869
360.86851
360.86858
360.86845
360.8684
360.86872
360.86888
360.86893
360.8689
360.86877
360.86856
360.86831
360.86839
360.86879
360.86872
360.86904
360.86918
360.86923
360.86919
360.86905
360.86881
360.8685
360.86851
360.86895
360.86888
360.86918
360.86933
360.86937
360.86931
360.86916
360.86891
360.86857
360.86856
360.86901
360.86893
360.86923
360.86937
360.8694
360.86933
360.86916
360.8689
360.86856
360.86854
360.86898
360.8689
360.86919
360.86931
360.86933
360.86925
360.86908
360.86881
360.86846
360.86843
360.86887
360.86877
360.86905
360.86916
360.86916
360.86908
360.8689
360.86862
360.86827
360.86824
360.86869
360.86856
360.86881
360.86891
360.8689
360.86881
360.86862
360.86834
360.86799
360.86797
360.86851
360.86831
360.8685
360.86857
360.86856
360.86846
360.86827
360.86799
360.86766
360.86767
360.86858
360.86839
360.86851
360.86856
360.86854
360.86843
360.86824
360.86797
360.86767
360.86789
369.0336
369.03327
369.03363
369.0338
369.03386
369.03382
369.0337
369.03351
369.0333
369.03337
369.03327
369.03323
369.03357
369.03373
369.03379
369.03374
369.0336
369.03337
369.03309
369.03317
369.03363
369.03357
369.0339
369.03406
369.0341
369.03405
369.03389
369.03364
369.0333
369.0333
369.0338
369.03373
369.03406
369.0342
369.03424
369.03418
369.03401
369.03373
369.03337
369.03335
369.03386
369.03379
369.0341
369.03424
369.03427
369.03419
369.03401
369.03372
369.03335
369.03332
369.03382
369.03374
369.03405
369.03418
369.03419
369.03411
369.03391
369.03362
369.03323
369.0332
369.0337
369.0336
369.03389
369.03401
369.03401
369.03391
369.03371
369.03341
369.03303
369.03299
369.03351
369.03337
369.03364
369.03373
369.03372
369.03362
369.03341
369.03311
369.03273
369.0327
369.0333
369.03309
369.0333
369.03337
369.03335
369.03323
369.03303
369.03273
369.03236
369.03236
369.03337
369.03317
369.0333
369.03335
369.03332
369.0332
369.03299
369.0327
369.03236
369.0326
377.1241
377.12377
377.12415
377.12432
377.12438
377.12434
377.1242
377.12399
377.12377
377.12383
377.12377
377.12374
377.12409
377.12426
377.12431
377.12426
377.12411
377.12386
377.12355
377.12362
377.12415
377.12409
377.12444
377.1246
377.12464
377.12458
377.12441
377.12413
377.12376
377.12376
377.12432
377.12426
377.1246
377.12475
377.12479
377.12471
377.12453
377.12423
377.12384
377.12381
377.12438
377.12431
377.12464
377.12479
377.12481
377.12473
377.12453
377.12421
377.12381
377.12377
377.12434
377.12426
377.12458
377.12471
377.12473
377.12463
377.12442
377.1241
377.12368
377.12364
377.1242
377.12411
377.12441
377.12453
377.12453
377.12442
377.1242
377.12387
377.12346
377.12341
377.12399
377.12386
377.12413
377.12423
377.12421
377.1241
377.12387
377.12355
377.12313
377.1231
377.12377
377.12355
377.12376
377.12384
377.12381
377.12368
377.12346
377.12313
377.12274
377.12273
377.12383
377.12362
377.12376
377.12381
377.12377
377.12364
377.12341
377.1231
377.12273
377.12298
385.14022
385.13989
385.14028
385.14045
385.14051
385.14046
385.14031
385.14008
385.13984
385.1399
385.13989
385.13985
385.14022
385.14039
385.14044
385.14039
385.14022
385.13995
385.13962
385.13969
385.14028
385.14022
385.14058
385.14074
385.14079
385.14072
385.14053
385.14023
385.13984
385.13983
385.14045
385.14039
385.14074
385.1409
385.14093
385.14085
385.14065
385.14033
385.13991
385.13987
385.14051
385.14044
385.14079
385.14093
385.14096
385.14086
385.14065
385.14031
385.13988
385.13983
385.14046
385.14039
385.14072
385.14085
385.14086
385.14075
385.14053
385.14018
385.13974
385.13969
385.14031
385.14022
385.14053
385.14065
385.14065
385.14053
385.1403
385.13995
385.1395
385.13945
385.14008
385.13995
385.14023
385.14033
385.14031
385.14018
385.13995
385.1396
385.13915
385.13911
385.13984
385.13962
385.13984
385.13991
385.13988
385.13974
385.1395
385.13915
385.13873
385.13872
385.1399
385.13969
385.13983
385.13987
385.13983
385.13969
385.13945
385.13911
385.13872
385.13897
393.08205
393.08172
393.08212
393.0823
393.08236
393.0823
393.08214
393.0819
393.08164
393.08169
393.08172
393.08169
393.08207
393.08225
393.0823
393.08223
393.08205
393.08177
393.08142
393.08148
393.08212
393.08207
393.08244
393.08261
393.08265
393.08257
393.08237
393.08206
393.08164
393.08162
393.0823
393.08225
393.08261
393.08277
393.0828
393.08271
393.08249
393.08215
393.08171
393.08166
393.08236
393.0823
393.08265
393.0828
393.08282
393.08271
393.08248
393.08213
393.08167
393.08161
393.0823
393.08223
393.08257
393.08271
393.08271
393.0826
393.08236
393.08199
393.08152
393.08146
393.08214
393.08205
393.08237
393.08249
393.08248
393.08236
393.08211
393.08174
393.08127
393.0812
393.0819
393.08177
393.08206
393.08215
393.08213
393.08199
393.08174
393.08137
393.0809
393.08084
393.08164
393.08142
393.08164
393.08171
393.08167
393.08152
393.08127
393.0809
393.08045
393.08043
393.08169
393.08148
393.08162
393.08166
393.08161
393.08146
393.0812
393.08084
393.08043
393.08069
400.9499
400.94957
400.94998
400.95016
400.95021
400.95015
400.94998
400.94972
400.94945
400.94949
400.94957
400.94954
400.94993
400.95011
400.95016
400.95008
400.94989
400.94959
400.94922
400.94928
400.94998
400.94993
400.95031
400.95048
400.95052
400.95043
400.95022
400.94989
400.94945
400.94942
400.95016
400.95011
400.95048
400.95064
400.95067
400.95057
400.95034
400.94998
400.94952
400.94946
400.95021
400.95016
400.95052
400.95067
400.95068
400.95057
400.95033
400.94996
400.94947
400.94941
400.95015
400.95008
400.95043
400.95057
400.95057
400.95044
400.95019
400.94981
400.94932
400.94925
400.94998
400.94989
400.95022
400.95034
400.95033
400.95019
400.94993
400.94954
400.94905
400.94898
400.94972
400.94959
400.94989
400.94998
400.94996
400.94981
400.94954
400.94915
400.94866
400.9486
400.94945
400.94922
400.94945
400.94952
400.94947
400.94932
400.94905
400.94866
400.94819
400.94816
400.94949
400.94928
400.94942
400.94946
400.94941
400.94925
400.94898
400.9486
400.94816
400.94842
408.74421
408.74389
408.74431
408.74449
408.74454
408.74447
408.74429
408.74402
408.74373
408.74377
408.74389
408.74387
408.74427
408.74444
408.74449
408.74441
408.74421
408.74389
408.74351
408.74355
408.74431
408.74427
408.74465
408.74482
408.74485
408.74476
408.74454
408.74419
408.74374
408.7437
408.74449
408.74444
408.74482
408.74498
408.745
408.7449
408.74466
408.74429
408.7438
408.74374
408.74454
408.74449
408.74485
408.745
408.74502
408.7449
408.74464
408.74426
408.74376
408.74368
408.74447
408.74441
408.74476
408.7449
408.7449
408.74476
408.7445
408.7441
408.74359
408.74351
408.74429
408.74421
408.74454
408.74466
408.74464
408.7445
408.74422
408.74382
408.74331
408.74323
408.74402
408.74389
408.74419
408.74429
408.74426
408.7441
408.74382
408.74342
408.74291
408.74283
408.74373
408.74351
408.74374
408.7438
408.74376
408.74359
408.74331
408.74291
408.74241
408.74238
408.74377
408.74355
408.7437
408.74374
408.74368
408.74351
408.74323
408.74283
408.74238
408.74264
416.46565
416.46533
416.46575
416.46594
416.46598
416.46591
416.46571
416.46543
416.46513
416.46516
416.46533
416.46532
416.46571
416.46589
416.46593
416.46585
416.46564
416.46531
416.46491
416.46495
416.46575
416.46571
416.4661
416.46627
416.4663
416.4662
416.46597
416.46561
416.46514
416.46509
416.46594
416.46589
416.46627
416.46643
416.46645
416.46634
416.46609
416.46571
416.46521
416.46513
416.46598
416.46593
416.4663
416.46645
416.46646
416.46633
416.46607
416.46567
416.46515
416.46507
416.46591
416.46585
416.4662
416.46634
416.46633
416.46619
416.46592
416.46551
416.46498
416.46489
416.46571
416.46564
416.46597
416.46609
416.46607
416.46592
416.46563
416.46522
416.46469
416.4646
416.46543
416.46531
416.46561
416.46571
416.46567
416.46551
416.46522
416.4648
416.46427
416.46419
416.46513
416.46491
416.46514
416.46521
416.46515
416.46498
416.46469
416.46427
416.46376
416.46372
416.46516
416.46495
416.46509
416.46513
416.46507
416.46489
416.4646
416.46419
416.46372
416.46398
424.115
424.11469
424.11511
424.1153
424.11534
424.11526
424.11506
424.11477
424.11446
424.11448
424.11469
424.11468
424.11508
424.11526
424.1153
424.1152
424.11499
424.11465
424.11424
424.11427
424.11511
424.11508
424.11547
424.11564
424.11566
424.11556
424.11532
424.11495
424.11447
424.11441
424.1153
424.11526
424.11564
424.1158
424.11581
424.11569
424.11544
424.11504
424.11453
424.11445
424.11534
424.1153
424.11566
424.11581
424.11582
424.11568
424.11541
424.115
424.11447
424.11438
424.11526
424.1152
424.11556
424.11569
424.11568
424.11554
424.11525
424.11483
424.11429
424.11419
424.11506
424.11499
424.11532
424.11544
424.11541
424.11525
424.11496
424.11453
424.11399
424.11389
424.11477
424.11465
424.11495
424.11504
424.115
424.11483
424.11453
424.1141
424.11357
424.11347
424.11446
424.11424
424.11447
424.11453
424.11447
424.11429
424.11399
424.11357
424.11304
424.11299
424.11448
424.11427
424.11441
424.11445
424.11438
424.11419
424.11389
424.11347
424.11299
424.11324
431.69324
431.69294
431.69337
431.69355
431.69359
431.6935
431.69329
431.69299
431.69267
431.69269
431.69294
431.69294
431.69334
431.69351
431.69355
431.69345
431.69323
431.69288
431.69246
431.69249
431.69337
431.69334
431.69372
431.69389
431.69391
431.6938
431.69356
431.69318
431.69269
431.69262
431.69355
431.69351
431.69389
431.69405
431.69406
431.69393
431.69367
431.69327
431.69275
431.69266
431.69359
431.69355
431.69391
431.69406
431.69406
431.69392
431.69364
431.69323
431.69269
431.69258
431.6935
431.69345
431.6938
431.69393
431.69392
431.69377
431.69348
431.69305
431.6925
431.69239
431.69329
431.69323
431.69356
431.69367
431.69364
431.69348
431.69318
431.69275
431.69219
431.69209
431.69299
431.69288
431.69318
431.69327
431.69323
431.69305
431.69275
431.69231
431.69176
431.69166
431.69267
431.69246
431.69269
431.69275
431.69269
431.6925
431.69219
431.69176
431.69123
431.69117
431.69269
431.69249
431.69262
431.69266
431.69258
431.69239
431.69209
431.69166
431.69117
431.69141
439.20151
439.20122
439.20164
439.20181
439.20185
439.20176
439.20155
439.20124
439.20092
439.20093
439.20122
439.20123
439.20162
439.20179
439.20182
439.20172
439.20149
439.20114
439.20071
439.20073
439.20164
439.20162
439.202
439.20216
439.20218
439.20207
439.20182
439.20143
439.20093
439.20086
439.20181
439.20179
439.20216
439.20231
439.20232
439.20219
439.20193
439.20152
439.20099
439.20089
439.20185
439.20182
439.20218
439.20232
439.20232
439.20217
439.20189
439.20147
439.20092
439.20081
439.20176
439.20172
439.20207
439.20219
439.20217
439.20202
439.20172
439.20129
439.20074
439.20062
439.20155
439.20149
439.20182
439.20193
439.20189
439.20172
439.20142
439.20098
439.20042
439.20031
439.20124
439.20114
439.20143
439.20152
439.20147
439.20129
439.20098
439.20054
439.19998
439.19987
439.20092
439.20071
439.20093
439.20099
439.20092
439.20074
439.20042
439.19998
439.19945
439.19937
439.20093
439.20073
439.20086
439.20089
439.20081
439.20062
439.20031
439.19987
439.19937
439.19962
446.64107
446.6408
446.64121
446.64138
446.64142
446.64132
446.64111
446.6408
446.64047
446.64047
446.6408
446.64081
446.6412
446.64136
446.64139
446.64128
446.64105
446.6407
446.64027
446.64027
446.64121
446.6412
446.64157
446.64173
446.64174
446.64163
446.64137
446.64099
446.64049
446.6404
446.64138
446.64136
446.64173
446.64188
446.64188
446.64175
446.64148
446.64107
446.64054
446.64043
446.64142
446.64139
446.64174
446.64188
446.64187
446.64173
446.64144
446.64102
446.64047
446.64035
446.64132
446.64128
446.64163
446.64175
446.64173
446.64157
446.64127
446.64083
446.64028
446.64016
446.64111
446.64105
446.64137
446.64148
446.64144
446.64127
446.64096
446.64052
446.63996
446.63984
446.6408
446.6407
446.64099
446.64107
446.64102
446.64083
446.64052
446.64008
446.63952
446.6394
446.64047
446.64027
446.64049
446.64054
446.64047
446.64028
446.63996
446.63952
446.63898
446.6389
446.64047
446.64027
446.6404
446.64043
446.64035
446.64016
446.63984
446.6394
446.6389
446.63913
454.01337
454.01311
454.01351
454.01368
454.01371
454.01361
454.01339
454.01308
454.01275
454.01274
454.01311
454.01313
454.0135
454.01366
454.01369
454.01358
454.01334
454.01299
454.01256
454.01256
454.01351
454.0135
454.01387
454.01402
454.01403
454.01391
454.01366
454.01327
454.01277
454.01268
454.01368
454.01366
454.01402
454.01416
454.01416
454.01403
454.01376
454.01335
454.01282
454.01271
454.01371
454.01369
454.01403
454.01416
454.01415
454.014
454.01372
454.01329
454.01274
454.01262
454.01361
454.01358
454.01391
454.01403
454.014
454.01384
454.01354
454.01311
454.01255
454.01242
454.01339
454.01334
454.01366
454.01376
454.01372
454.01354
454.01324
454.01279
454.01223
454.01211
454.01308
454.01299
454.01327
454.01335
454.01329
454.01311
454.01279
454.01235
454.01179
454.01167
454.01275
454.01256
454.01277
454.01282
454.01274
454.01255
454.01223
454.01179
454.01125
454.01117
454.01274
454.01256
454.01268
454.01271
454.01262
454.01242
454.01211
454.01167
454.01117
454.01139
461.31996
461.31972
461.32011
461.32026
461.32029
461.32019
461.31997
461.31966
461.31933
461.31931
461.31972
461.31974
461.3201
461.32025
461.32027
461.32016
461.31993
461.31958
461.31914
461.31914
461.32011
461.3201
461.32045
461.3206
461.32061
461.32048
461.32023
461.31985
461.31935
461.31926
461.32026
461.32025
461.3206
461.32073
461.32073
461.32059
461.32032
461.31992
461.31939
461.31928
461.32029
461.32027
461.32061
461.32073
461.32071
461.32056
461.32028
461.31986
461.31932
461.31919
461.32019
461.32016
461.32048
461.32059
461.32056
461.3204
461.32011
461.31967
461.31912
461.31899
461.31997
461.31993
461.32023
461.32032
461.32028
461.32011
461.3198
461.31936
461.31881
461.31868
461.31966
461.31958
461.31985
461.31992
461.31986
461.31967
461.31936
461.31892
461.31837
461.31824
461.31933
461.31914
461.31935
461.31939
461.31932
461.31912
461.31881
461.31837
461.31783
461.31774
461.31931
461.31914
461.31926
461.31928
461.31919
461.31899
461.31868
461.31824
461.31774
461.31796
468.56253
468.56231
468.56268
468.56283
468.56285
468.56275
468.56253
468.56222
468.56189
468.56188
468.56231
468.56233
468.56268
468.56283
468.56284
468.56273
468.5625
468.56215
468.56172
468.56171
468.56268
468.56268
468.56302
468.56316
468.56316
468.56304
468.56279
468.56241
468.56191
468.56182
468.56283
468.56283
468.56316
468.56329
468.56328
468.56314
468.56287
468.56247
468.56195
468.56184
468.56285
468.56284
468.56316
468.56328
468.56326
468.56311
468.56283
468.56241
468.56188
468.56175
468.56275
468.56273
468.56304
468.56314
468.56311
468.56295
468.56265
468.56223
468.56168
468.56155
468.56253
468.5625
468.56279
468.56287
468.56283
468.56265
468.56235
468.56192
468.56137
468.56124
468.56222
468.56215
468.56241
468.56247
468.56241
468.56223
468.56192
468.56148
468.56094
468.56081
468.56189
468.56172
468.56191
468.56195
468.56188
468.56168
468.56137
468.56094
468.56041
468.56032
468.56188
468.56171
468.56182
468.56184
468.56175
468.56155
468.56124
468.56081
468.56032
468.56052
475.7429
475.7427
475.74305
475.74319
475.74321
475.7431
475.74289
475.74259
475.74226
475.74224
475.7427
475.74272
475.74306
475.74319
475.7432
475.74309
475.74286
475.74252
475.7421
475.74208
475.74305
475.74306
475.74338
475.74351
475.74351
475.74338
475.74314
475.74276
475.74228
475.74218
475.74319
475.74319
475.74351
475.74363
475.74362
475.74348
475.74322
475.74282
475.74232
475.7422
475.74321
475.7432
475.74351
475.74362
475.74359
475.74344
475.74317
475.74276
475.74224
475.74211
475.7431
475.74309
475.74338
475.74348
475.74344
475.74328
475.74299
475.74258
475.74205
475.74191
475.74289
475.74286
475.74314
475.74322
475.74317
475.74299
475.7427
475.74227
475.74174
475.7416
475.74259
475.74252
475.74276
475.74282
475.74276
475.74258
475.74227
475.74185
475.74132
475.74119
475.74226
475.7421
475.74228
475.74232
475.74224
475.74205
475.74174
475.74132
475.7408
475.7407
475.74224
475.74208
475.74218
475.7422
475.74211
475.74191
475.7416
475.74119
475.7407
475.74089
482.86299
482.8628
482.86314
482.86327
482.86328
482.86318
482.86297
482.86267
482.86235
482.86232
482.8628
482.86283
482.86315
482.86328
482.86328
482.86317
482.86294
482.86261
482.8622
482.86217
482.86314
482.86315
482.86345
482.86357
482.86357
482.86344
482.8632
482.86284
482.86237
482.86227
482.86327
482.86328
482.86357
482.86368
482.86367
482.86353
482.86327
482.86289
482.8624
482.86228
482.86328
482.86328
482.86357
482.86367
482.86364
482.86349
482.86322
482.86283
482.86232
482.86219
482.86318
482.86317
482.86344
482.86353
482.86349
482.86333
482.86305
482.86265
482.86213
482.862
482.86297
482.86294
482.8632
482.86327
482.86322
482.86305
482.86276
482.86235
482.86184
482.8617
482.86267
482.86261
482.86284
482.86289
482.86283
482.86265
482.86235
482.86194
482.86143
482.86129
482.86235
482.8622
482.86237
482.8624
482.86232
482.86213
482.86184
482.86143
482.86092
482.86082
482.86232
482.86217
482.86227
482.86228
482.86219
482.862
482.8617
482.86129
482.86082
482.861
489.92483
489.92465
489.92497
489.92509
489.92509
489.92499
489.92479
489.9245
489.92419
489.92416
489.92465
489.92468
489.92498
489.9251
489.92509
489.92498
489.92476
489.92444
489.92405
489.92401
489.92497
489.92498
489.92526
489.92537
489.92536
489.92524
489.92501
489.92466
489.92421
489.9241
489.92509
489.9251
489.92537
489.92547
489.92546
489.92532
489.92507
489.9247
489.92423
489.92411
489.92509
489.92509
489.92536
489.92546
489.92543
489.92528
489.92502
489.92464
489.92415
489.92402
489.92499
489.92498
489.92524
489.92532
489.92528
489.92513
489.92485
489.92446
489.92397
489.92383
489.92479
489.92476
489.92501
489.92507
489.92502
489.92485
489.92457
489.92418
489.92368
489.92354
489.9245
489.92444
489.92466
489.9247
489.92464
489.92446
489.92418
489.92378
489.92328
489.92315
489.92419
489.92405
489.92421
489.92423
489.92415
489.92397
489.92368
489.92328
489.9228
489.9227
489.92416
489.92401
489.9241
489.92411
489.92402
489.92383
489.92354
489.92315
489.9227
489.92286
496.93051
496.93036
496.93065
496.93076
496.93076
496.93066
496.93046
496.93018
496.92988
496.92985
496.93036
496.93039
496.93066
496.93077
496.93076
496.93065
496.93044
496.93013
496.92975
496.92972
496.93065
496.93066
496.93092
496.93102
496.93101
496.93089
496.93066
496.93033
496.9299
496.9298
496.93076
496.93077
496.93102
496.93111
496.93109
496.93096
496.93072
496.93037
496.92992
496.9298
496.93076
496.93076
496.93101
496.93109
496.93106
496.93092
496.93067
496.9303
496.92984
496.92971
496.93066
496.93065
496.93089
496.93096
496.93092
496.93077
496.93051
496.93013
496.92966
496.92953
496.93046
496.93044
496.93066
496.93072
496.93067
496.93051
496.93024
496.92986
496.92938
496.92925
496.93018
496.93013
496.93033
496.93037
496.9303
496.93013
496.92986
496.92948
496.92901
496.92888
496.92988
496.92975
496.9299
496.92992
496.92984
496.92966
496.92938
496.92901
496.92854
496.92844
496.92985
496.92972
496.9298
496.9298
496.92971
496.92953
496.92925
496.92888
496.92844
496.92859
503.88224
503.8821
503.88237
503.88247
503.88247
503.88237
503.88218
503.88191
503.88163
503.88159
503.8821
503.88214
503.88239
503.88248
503.88247
503.88236
503.88216
503.88187
503.88151
503.88147
503.88237
503.88239
503.88263
503.88271
503.8827
503.88258
503.88237
503.88205
503.88164
503.88154
503.88247
503.88248
503.88271
503.8828
503.88277
503.88264
503.88242
503.88208
503.88165
503.88154