/*--------------------------------*- C++ -*----------------------------------*\
| =========                 |                                                 |
| \\      /  F ield         | OpenFOAM: The Open Source CFD Toolbox           |
|  \\    /   O peration     | Version:  v2106                                 |
|   \\  /    A nd           | Website:  www.openfoam.com                      |
|    \\/     M anipulation  |                                                 |
\*---------------------------------------------------------------------------*/
FoamFile
{
    version     2.0;
    format      ascii;
    arch        "LSB;label=32;scalar=64";
    class       volScalarField;
    location    "17.5";
    object      gradTy;
}
// * * * * * * * * * * * * * * * * * * * * * * * * * * * * * * * * * * * * * //

dimensions      [0 -1 0 1 0 0 0];

internalField   nonuniform List<scalar> 
4000
(
0.00056792792
-0.0010642491
-0.00039679822
-0.00031280221
-0.00031658851
-0.00032780707
-0.00033782336
-0.00032626972
-0.00024992475
-0.0001282377
-0.0016125924
-0.0030596816
-0.0018926584
-0.0017495067
-0.0017636047
-0.001801842
-0.0018510593
-0.0018623941
-0.0016900896
-0.0012379746
-0.0022445525
-0.0011173821
-0.0009343776
-0.00091834489
-0.00093767949
-0.00098115134
-0.0010534333
-0.0011442983
-0.001176277
-0.001004895
0.00053253125
0.00065284582
0.00066158495
0.00064954393
0.00062371435
0.00058155329
0.00051654339
0.00041813014
0.00028254995
0.0001382118
0.00053109986
0.00050859257
0.00047876463
0.00044578613
0.000410774
0.00037178111
0.00032652049
0.0002723471
0.00020965133
0.00015086093
0.00041257716
0.00038072489
0.00032512259
0.00026497104
0.00021795163
0.00018071754
0.00015038715
0.00012625919
0.00010845053
9.8333961e-05
0.00041488158
0.00041718761
0.00035432947
0.00025404067
0.00019090631
0.00015460666
0.00013644797
0.00013418798
0.00014541099
0.00016301769
0.00046869295
0.00060054086
0.00062966259
0.00047769716
0.00039566914
0.00036082799
0.00035373252
0.00036979102
0.00040468746
0.00044512555
0.00041907918
0.0007161272
0.0010434987
0.00085553052
0.00076358037
0.00073404435
0.00073565514
0.00076287407
0.00081098968
0.00085815004
0.00011412738
0.00023581443
0.00041553743
0.00035006915
0.00031931201
0.00031087555
0.00031256763
0.00032261335
0.00033952636
0.00035405359
0.001180166
-0.0031744088
-0.0011723612
-0.00086920946
-0.00087584689
-0.000926693
-0.00097595423
-0.00090518983
-0.00046985328
-5.7439489e-05
-0.007033484
-0.010562275
-0.006831725
-0.0062453241
-0.0062812291
-0.0064612212
-0.0067041974
-0.0067301281
-0.0057267277
-0.0038740706
-0.0081919848
-0.0047341858
-0.0038750341
-0.0037268218
-0.0038018283
-0.0040138816
-0.0043701379
-0.0047996224
-0.0048327603
-0.003961777
0.0019301948
0.0023749662
0.0024806906
0.0024481721
0.0023264913
0.0021194249
0.0017997139
0.0013242499
0.00072195601
0.00014047244
0.0023417568
0.0022555315
0.0021258597
0.0019684716
0.0017971125
0.0016059267
0.0013837366
0.0011172742
0.00081502325
0.00053049766
0.0019575573
0.0018073962
0.001534589
0.0012390866
0.0010078115
0.00082571069
0.00067859598
0.00056205863
0.00047709237
0.00042726651
0.0020214856
0.0020537403
0.0017525786
0.0012679996
0.00095740366
0.00077934706
0.0006937516
0.00068963182
0.00075618798
0.00086098488
0.0023204258
0.0030795772
0.0032978955
0.0026169548
0.0022201376
0.0020482414
0.002018634
0.0021106778
0.0023029317
0.0025287993
0.0018826808
0.0031543063
0.0047387383
0.0039921516
0.0035549608
0.0034053751
0.0034201687
0.0035767282
0.0038382902
0.0039968529
0.00043299569
0.00084540948
0.0016681004
0.001426065
0.0012804447
0.0012363813
0.0012472275
0.0013062459
0.0013978059
0.0014119544
0.00087354095
-0.0048019891
-0.0021468256
-0.0017301565
-0.0017474398
-0.0018479741
-0.0019627428
-0.0018360583
-0.00078855332
0.00026363104
-0.010823981
-0.015354531
-0.010318572
-0.0094857073
-0.0095609889
-0.0099057748
-0.010411524
-0.010540294
-0.0084509224
-0.0049628023
-0.011053184
-0.0064454355
-0.0051843606
-0.0049511834
-0.0050903422
-0.0054795408
-0.006148893
-0.0069950415
-0.0071136819
-0.0057641014
0.0032330059
0.0038320845
0.0039905892
0.0039261029
0.0037047175
0.003332508
0.0027611353
0.001920338
0.00091042448
-1.3177212e-05
0.0038566856
0.0036799592
0.0034366182
0.0031516018
0.0028430232
0.0025012485
0.0021075153
0.0016402214
0.0011254807
0.00065151045
0.0032901943
0.0029672398
0.0024396596
0.001908689
0.0014960774
0.0011731811
0.00091754494
0.00072352005
0.00059612852
0.00053679311
0.0035701817
0.0035880554
0.0029356627
0.0020725548
0.0015234928
0.0012115277
0.0010738317
0.0010989994
0.0012758283
0.0015491501
0.0044578463
0.0062191306
0.0064184476
0.0052543416
0.0045677368
0.004272307
0.0042463203
0.0044743036
0.0049256174
0.005437076
0.0030452412
0.0061947751
0.0086227326
0.0074257153
0.0066892174
0.0064370043
0.0065024905
0.006887155
0.0074652629
0.0069620773
0.00038144692
0.0014336313
0.0027068603
0.0023333516
0.0020911259
0.0020173715
0.0020515689
0.002199586
0.0023925413
0.0018641289
0.00087732532
-0.0058572974
-0.0026676698
-0.0021731805
-0.0022104639
-0.0023710209
-0.0025833174
-0.0024813788
-0.00092467437
0.00056608583
-0.013332442
-0.018649934
-0.012582552
-0.011592952
-0.01173408
-0.012265605
-0.013091874
-0.013461628
-0.010442475
-0.0056851497
-0.013000681
-0.0074745053
-0.0059436979
-0.0056796975
-0.0059032801
-0.0064791176
-0.0074717763
-0.0087465551
-0.0089231084
-0.0071158602
0.0045549347
0.0052407436
0.0054034068
0.0052811615
0.0049483397
0.0044069881
0.0035849564
0.0023892676
0.00101586
-0.00018390237
0.0051683987
0.0048716382
0.0044957455
0.004072218
0.0036215721
0.0031294229
0.0025691012
0.0019125598
0.0012102918
0.00058019433
0.0043571979
0.0037979176
0.0029994042
0.0022294213
0.0016360209
0.0011769505
0.00082304853
0.00057022712
0.00043066145
0.00039672315
0.0049492258
0.0047836889
0.003753203
0.0025162515
0.0017354825
0.0012993883
0.0011287592
0.0012227852
0.0015842351
0.0021327853
0.0070034751
0.0094914397
0.0096528742
0.0080401076
0.0070837779
0.0066812982
0.0066913908
0.0071367741
0.0080220067
0.0090524083
0.0051490902
0.0097202872
0.012925568
0.011350982
0.010352398
0.010018617
0.010178894
0.010928617
0.012094529
0.010150089
0.00066590417
0.0021566644
0.0038374542
0.0033614965
0.0030376126
0.0029414315
0.003014987
0.0033071317
0.0037019214
0.0020108388
0.00098505267
-0.0066969328
-0.0030093944
-0.0024504858
-0.0025123623
-0.0027359296
-0.0030535221
-0.0029986484
-0.00097207274
0.00086809429
-0.015322037
-0.021313708
-0.014306264
-0.013199434
-0.013422234
-0.014149166
-0.015311018
-0.015959835
-0.012073212
-0.0062311416
-0.014523613
-0.0081539423
-0.0064093388
-0.0061467893
-0.0064705712
-0.0072401137
-0.0085596779
-0.010263535
-0.010485516
-0.0082551495
0.0058821506
0.0066276988
0.00676618
0.0065664665
0.0061116261
0.0053972476
0.0043256956
0.0027835898
0.0010724176
-0.0003746849
0.006297111
0.0058689453
0.005347379
0.0047756209
0.0041781601
0.0035356446
0.0028130756
0.00197675
0.0011042471
0.00033776247
0.0051032942
0.0042915545
0.0032145103
0.0022024477
0.0014285798
0.00083736317
0.00039352362
9.5578604e-05
-3.639706e-05
-2.4340828e-05
0.0058945338
0.0055004556
0.0040838644
0.0024770341
0.0014702066
0.00091813951
0.00072842203
0.00091667087
0.0015084757
0.0024003567
0.0091701547
0.012292329
0.012407961
0.010366491
0.0091546832
0.0086576622
0.0087247626
0.0094377159
0.010876545
0.012638179
0.0071854827
0.012985597
0.016914176
0.014993982
0.013755901
0.013354995
0.013635982
0.014838681
0.016836445
0.013383208
0.00099835404
0.0028385211
0.0048930674
0.0043254321
0.0039283324
0.0038144423
0.0039363699
0.0044090297
0.0051107921
0.002106872
0.0011391141
-0.007399132
-0.003245054
-0.0026302516
-0.0027192048
-0.0030066191
-0.0034316987
-0.0034347803
-0.0009713251
0.0011797186
-0.016955077
-0.023531329
-0.015652915
-0.014452945
-0.014766715
-0.015692626
-0.017194506
-0.018142538
-0.01345604
-0.0066358794
-0.015715443
-0.0085621219
-0.0066370583
-0.0063953926
-0.0068295615
-0.0077968664
-0.0094438738
-0.011577185
-0.01185566
-0.0092462583
0.0072035981
0.007992372
0.0080897987
0.0077998687
0.0072158005
0.0063261454
0.0050070804
0.0031254835
0.0010897357
-0.00059325642
0.0072615971
0.0066970458
0.0060219164
0.005295572
0.004548193
0.0037557522
0.0028746997
0.0018657364
0.00083369774
-5.885471e-05
0.0055561213
0.0044873804
0.0031283303
0.0018730682
0.00091961021
0.00019957485
-0.00032823345
-0.00066274146
-0.00077674378
-0.00071042439
0.0064209528
0.005778711
0.0039710409
0.001998392
0.00077037898
0.00010837626
-9.1937329e-05
0.00020332614
0.0010451074
0.0023056759
0.010852788
0.014543348
0.014591253
0.012131562
0.010673909
0.01009056
0.010225398
0.011227605
0.013270622
0.015857019
0.0088986657
0.015820414
0.020405324
0.018151341
0.016686584
0.01622675
0.016638901
0.0183291
0.021268316
0.016412478
0.0012780093
0.0034290529
0.0058247833
0.0051686544
0.0047027886
0.0045736194
0.0047470015
0.0054139984
0.0064712666
0.0021767728
0.0013370372
-0.0079707402
-0.0033841836
-0.0027210586
-0.0028386694
-0.0031899869
-0.0037233039
-0.0037935033
-0.00093082428
0.0015011438
-0.018246875
-0.025328706
-0.016649593
-0.015375898
-0.015786423
-0.016912115
-0.018754545
-0.020018562
-0.014614194
-0.0069110053
-0.016598818
-0.0087242956
-0.0066460101
-0.0064386575
-0.0069894274
-0.0081557219
-0.010127918
-0.012689953
-0.013046863
-0.010107215
0.0085092064
0.0093274776
0.0093723764
0.0089840603
0.0082665393
0.0072012041
0.0056378762
0.0034236405
0.0010710989
-0.00084222366
0.0080733614
0.0073699689
0.006537144
0.0056529045
0.0047542878
0.0038130017
0.0027768841
0.0016008358
0.00041607205
-0.00059654239
0.0057457948
0.0044188432
0.002777673
0.0012803521
0.00014900988
-0.0006970515
-0.001304875
-0.001671265
-0.0017629513
-0.0016404532
0.0065705293
0.0056652547
0.0034640828
0.0011310238
-0.00031348079
-0.0010811421
-0.0012876943
-0.00088095917
0.00021532401
0.0018481147
0.012065924
0.016254643
0.016206276
0.013335699
0.011639498
0.010974887
0.011181422
0.012477905
0.01513786
0.018577949
0.010241167
0.018183138
0.023348724
0.020765875
0.01908286
0.018568497
0.019113671
0.021297571
0.025213715
0.019084432
0.0014784968
0.0039104649
0.0066139557
0.0058702297
0.0053384073
0.0051951534
0.0054200727
0.0062836806
0.0077134648
0.0021974919
0.0015773863
-0.0084137391
-0.0034314133
-0.0027272793
-0.0028745136
-0.0032890871
-0.0039302544
-0.0040754968
-0.00085374788
0.0018293238
-0.019205272
-0.026718472
-0.017312439
-0.015982568
-0.016493313
-0.017817164
-0.019997201
-0.021590325
-0.015555668
-0.0070655637
-0.017190404
-0.008660714
-0.0064544997
-0.006291821
-0.0069626935
-0.0083267381
-0.010618975
-0.013606102
-0.014065482
-0.010845892
0.0097862389
0.010621588
0.010605364
0.010113394
0.0092604792
0.0080207755
0.0062179261
0.0036790951
0.0010167296
-0.0011222337
0.0087382701
0.0078955585
0.006903674
0.0058606415
0.004811055
0.003722736
0.002534965
0.0011966644
-0.00013571534
-0.0012638472
0.0056954528
0.0041118416
0.0021915647
0.00045555976
-0.00085098847
-0.0018205302
-0.002505879
-0.002902167
-0.0029708833
-0.0027934157
0.0063772852
0.0051976708
0.0026041246
-8.1693435e-05
-0.0017375558
-0.0026077651
-0.0028191926
-0.0023020133
-0.00095536841
0.0010424322
0.012833627
0.017448387
0.01727516
0.014001881
0.012073964
0.0113312
0.011608959
0.013195024
0.016464815
0.02075707
0.011209204
0.020066435
0.025733965
0.022826645
0.020932636
0.020366134
0.021041387
0.023710579
0.028603432
0.021327066
0.0015935925
0.0042766642
0.0072536623
0.0064230574
0.0058276867
0.0056709695
0.0059459984
0.0070028366
0.0088075015
0.0021519256
0.0018557916
-0.008732464
-0.0033932184
-0.0026552396
-0.0028325544
-0.0033090411
-0.0040565058
-0.0042832539
-0.00074340797
0.0021602875
-0.019845038
-0.027718553
-0.017662526
-0.01629291
-0.01690555
-0.018423689
-0.020934889
-0.022865719
-0.016288895
-0.0071093464
-0.017510369
-0.0083945323
-0.0060847256
-0.0059751273
-0.0067675647
-0.0083259188
-0.010930092
-0.014334805
-0.014918775
-0.011468942
0.011019825
0.011860821
0.011776801
0.011177982
0.010189578
0.0087784483
0.0067425333
0.0038891599
0.00092542646
-0.001433278
0.0092599335
0.0082792314
0.0071291543
0.0059284398
0.0047296202
0.0034969639
0.0021613542
0.0006656945
-0.0008095027
-0.0020487374
0.0054256963
0.0035897692
0.0013963576
-0.0005727579
-0.0020506872
-0.0031410239
-0.0039022224
-0.0043280926
-0.0043753896
-0.0041458666
0.0058725178
0.0044111986
0.0014304885
-0.0015976875
-0.0034588
-0.0044289569
-0.0046458687
-0.0040229019
-0.0024353903
-8.5876245e-05
0.013183275
0.018152922
0.017829269
0.014164239
0.012012162
0.011193382
0.011538995
0.01340386
0.017264931
0.022391581
0.011815226
0.021480538
0.027571598
0.024346401
0.02224916
0.021631969
0.022431386
0.025568995
0.031419107
0.023117506
0.0016248246
0.0045285201
0.0077445236
0.0068284089
0.0061720539
0.0060022524
0.0063250693
0.0075685951
0.0097428361
0.0020341943
0.0021662101
-0.0089332025
-0.0032776068
-0.0025127968
-0.0027201984
-0.0032565935
-0.004107646
-0.0044207794
-0.0006037995
0.0024897222
-0.020186267
-0.028351992
-0.017725408
-0.016331547
-0.017046218
-0.018752674
-0.021585125
-0.023857356
-0.016824744
-0.007053305
-0.017582354
-0.0079517453
-0.0055619093
-0.0055122432
-0.0064259725
-0.0081731335
-0.011078158
-0.014888667
-0.01561581
-0.011983582
0.012194067
0.01303018
0.012873257
0.012166116
0.011043782
0.0094658016
0.0072051827
0.0040497984
0.00079566344
-0.0017748303
0.0096414216
0.0085257265
0.0072202953
0.0058648362
0.0045199804
0.0031467569
0.0016679193
2.0466062e-05
-0.0015922203
-0.0029376313
0.004957046
0.0028758745
0.0004181391
-0.0017763115
-0.0034204602
-0.0046283726
-0.0054639387
-0.0059198879
-0.0059485237
-0.0056708486
0.0050883537
0.0033420749
-1.6329131e-05
-0.003373459
-0.0054323323
-0.0064997498
-0.0067238476
-0.0060020775
-0.0041867367
-0.0015028824
0.013146354
0.018402124
0.017906735
0.013864472
0.011497216
0.010604333
0.011012631
0.013141444
0.017567657
0.023500297
0.012080427
0.022446179
0.028884478
0.025351264
0.023059849
0.022393167
0.023308889
0.026892362
0.033667742
0.024459378
0.0015773084
0.0046708302
0.0080916011
0.0070923153
0.0063779386
0.0061953747
0.0065630554
0.0079846108
0.010518149
0.0018457018
0.0025016518
-0.0090236136
-0.0030935789
-0.0023087706
-0.0025458472
-0.0031395214
-0.0040903321
-0.0044931045
-0.00043945801
0.0028131694
-0.020252646
-0.028645492
-0.017529636
-0.016126103
-0.016941524
-0.018828335
-0.021968764
-0.024581091
-0.017176152
-0.0069093091
-0.017432336
-0.0073600714
-0.0049129469
-0.0049286411
-0.0059617831
-0.0078902606
-0.011082103
-0.015282237
-0.016166955
-0.012397622
0.013292967
0.014114565
0.013881079
0.013065729
0.011812608
0.010074017
0.0075990854
0.0041569225
0.00062626347
-0.0021457115
0.0098860571
0.0086399308
0.007183825
0.0056783113
0.0041921135
0.0026833369
0.0010669803
-0.00072561338
-0.0024694495
-0.0039152789
0.0043106952
0.0019939678
-0.00071654518
-0.0031263518
-0.0049300681
-0.0062514849
-0.0071596414
-0.0076463444
-0.0076596124
-0.0073382419
0.0040585464
0.0020281717
-0.0016942095
-0.0053638051
-0.007611304
-0.0087727554
-0.0090061636
-0.0081939927
-0.0061663108
-0.0031685561
0.012758072
0.018234384
0.017550684
0.013149531
0.010577863
0.0096131011
0.010077892
0.012452954
0.017412532
0.024114529
0.012031364
0.022990775
0.029703146
0.02587539
0.023400512
0.022685725
0.023708614
0.027711162
0.03537019
0.025370665
0.0014580137
0.004710641
0.0083025758
0.0072235299
0.0064545925
0.0062596436
0.0066688395
0.0082581468
0.011136838
0.0015917967
0.0028545465
-0.0090123403
-0.0028507578
-0.0020525627
-0.0023185063
-0.0029662433
-0.004011916
-0.0045059604
-0.00025526978
0.0031261523
-0.020070291
-0.028628248
-0.017105582
-0.01570597
-0.016619514
-0.018676837
-0.022108759
-0.02505494
-0.01735749
-0.0066897607
-0.01708758
-0.0066479133
-0.0041653019
-0.0042503971
-0.0053995322
-0.0074999141
-0.010961676
-0.015530974
-0.016583275
-0.012719155
0.01430115
0.015099527
0.014787219
0.013865297
0.012486091
0.010594806
0.0079180237
0.0042070613
0.00041675682
-0.0025439849
0.0099978303
0.0086273094
0.0070269627
0.0053777924
0.0037564718
0.0021185132
0.00037163366
-0.001558122
-0.0034255104
-0.0049650258
0.0035086178
0.00096850326
-0.001980627
-0.0045936405
-0.0065486939
-0.0079784786
-0.0089568206
-0.0094747066
-0.0094759995
-0.009115657
0.0028182642
0.00050868862
-0.0035598387
-0.0075223716
-0.0099475836
-0.011199007
-0.011443812
-0.010550444
-0.0083276515
-0.0050388799
0.012056503
0.017691472
0.016807772
0.012069873
0.0093065048
0.0082727285
0.008787326
0.011388889
0.016845556
0.024273326
0.011698142
0.023146311
0.030063321
0.02595813
0.023312275
0.022551226
0.023671325
0.02806279
0.036555762
0.025877678
0.001274998
0.00465642
0.0083868172
0.0072325002
0.0064129894
0.0062061566
0.0066532177
0.008398671
0.011605064
0.0012799482
0.003217001
-0.008908706
-0.0025590994
-0.0017538683
-0.0020474941
-0.0027455315
-0.0038801711
-0.0044655377
-5.6307563e-05
0.0034242845
-0.019666834
-0.028330985
-0.01648451
-0.015101367
-0.01610912
-0.018325348
-0.022029262
-0.025298304
-0.017384006
-0.006407226
-0.016575775
-0.0058435184
-0.0033461571
-0.0035033211
-0.0047635447
-0.007024583
-0.010736652
-0.015650568
-0.016876056
-0.01295626
0.015204387
0.015971795
0.015579776
0.014554407
0.013055335
0.011020928
0.0081567923
0.0041976793
0.0001675308
-0.0029669366
0.009981609
0.0084941141
0.0067576271
0.0049728522
0.0032241486
0.0014647826
-0.00040424977
-0.0024617605
-0.0044437512
-0.0060692066
0.0025734353
-0.00017558028
-0.0033467067
-0.0061486875
-0.008245249
-0.0097770859
-0.010822382
-0.011371374
-0.011363912
-0.010969396
0.0014035916
-0.0011764177
-0.0055693641
-0.0098024022
-0.012392613
-0.013728945
-0.013986901
-0.013021931
-0.010622509
-0.0070675927
0.011081678
0.016817473
0.015726934
0.010678069
0.0077376725
0.0066385679
0.0071961425
0.01000296
0.01591674
0.024020629
0.01111325
0.022947983
0.030004328
0.02564229
0.022839712
0.022034844
0.02324169
0.027989183
0.03725936
0.026011931
0.0010370071
0.0045175992
0.0083548606
0.0071307965
0.0062652156
0.0060471596
0.006528226
0.0084171041
0.011930819
0.00091881847
0.0035810165
-0.0087224535
-0.0022286498
-0.0014224374
-0.0017422052
-0.0024862806
-0.0037030723
-0.0043782937
0.00015230718
0.0037033611
-0.01907066
-0.027785159
-0.015697806
-0.014342585
-0.015439415
-0.017801311
-0.021754944
-0.025331355
-0.017271383
-0.0060741272
-0.015924348
-0.0049743236
-0.0024817731
-0.002712322
-0.0040773121
-0.0064860358
-0.010426282
-0.015656474
-0.017056467
-0.013116776
0.015989958
0.016719625
0.016248348
0.015124086
0.013512831
0.011346462
0.0083114065
0.0041273004
-0.00012014553
-0.0034111248
0.0098432119
0.0082474472
0.0063844861
0.0044737333
0.0026068629
0.0007352557
-0.0012461778
-0.0034206027
-0.0055068953
-0.0072095557
0.0015281805
-0.0014131201
-0.0047873475
-0.0077620898
-0.0099887717
-0.01161513
-0.012723224
-0.013302594
-0.01328926
-0.012865318
-0.00014903037
-0.0029870501
-0.0076790746
-0.012157488
-0.014898237
-0.016313346
-0.0165857
-0.015558832
-0.013002154
-0.0092075788
0.0098747478
0.015657817
0.014358309
0.0090276317
0.0059267564
0.0047669142
0.0053607204
0.0083504608
0.014678314
0.023403355
0.010310679
0.022433161
0.029567906
0.024972858
0.022029481
0.021183905
0.022466758
0.027535159
0.037519652
0.025808279
0.00075320748
0.0043042614
0.0082180446
0.006930722
0.0060240584
0.0057956151
0.0063066862
0.0083253317
0.012123381
0.00051774939
0.0039386765
-0.0084635185
-0.0018693382
-0.0010678751
-0.0014119143
-0.002197315
-0.0034886127
-0.0042507894
0.00036551992
0.0039594328
-0.018310264
-0.027022286
-0.014776356
-0.013459379
-0.014639016
-0.017131863
-0.021310438
-0.025174551
-0.017035365
-0.0057024963
-0.015159916
-0.0040664514
-0.0015970091
-0.001900945
-0.0033630481
-0.0059049021
-0.010048914
-0.015563593
-0.017135323
-0.013208145
0.01664689
0.017333026
0.01678423
0.015566987
0.013852613
0.011566929
0.0083791777
0.0039955253
-0.00044416522
-0.0038724676
0.0095893913
0.0078952315
0.0059169075
0.0038912745
0.0019168496
-5.6499991e-05
-0.0021392533
-0.0044183768
-0.0065973853
-0.0083675912
0.00039601844
-0.0027190292
-0.006275403
-0.0094048953
-0.011748838
-0.013460998
-0.01462678
-0.015235082
-0.015218325
-0.014769567
-0.0018033504
-0.0048835621
-0.0098460388
-0.014542253
-0.017417443
-0.01890413
-0.019191526
-0.018112385
-0.015418429
-0.011411971
0.0084772096
0.014258409
0.012752282
0.0071719995
0.0039289395
0.0027138675
0.0033373935
0.0064869652
0.013183342
0.022469962
0.0093251704
0.021640504
0.028797226
0.023995951
0.020929233
0.020046737
0.021394748
0.026747151
0.037377745
0.025303633
0.00043297077
0.0040268836
0.0079882166
0.0066450022
0.0057026817
0.0054648649
0.0060018543
0.0081358363
0.012192935
8.6428171e-05
0.0042823086
-0.0081418338
-0.001490804
-0.00069947429
-0.0010656122
-0.0018872292
-0.0032446502
-0.0040895526
0.00057844
0.004188866
-0.017413709
-0.026073378
-0.013750034
-0.012480477
-0.013735605
-0.016343377
-0.020719904
-0.024848242
-0.016691467
-0.0053037815
-0.01430787
-0.0031443308
-0.00071496982
-0.0010910374
-0.0026413718
-0.0053003773
-0.0096217275
-0.01538604
-0.017122915
-0.013237307
0.01716609
0.017803878
0.01718052
0.015877476
0.014070319
0.011679325
0.0083587123
0.0038029926
-0.00080166184
-0.0043463493
0.0092277571
0.0074461247
0.0053648571
0.0032367849
0.0011667058
-0.00089665041
-0.0030684059
-0.0054387422
-0.007697699
-0.0095249557
-0.00080004255
-0.0040685997
-0.0077843422
-0.011048955
-0.013495949
-0.015284067
-0.016501497
-0.017136548
-0.01711834
-0.016649177
-0.0035238122
-0.0068272973
-0.012028677
-0.01691296
-0.019905009
-0.021455052
-0.02175749
-0.020635488
-0.017824605
-0.013635035
0.0069302251
0.01266486
0.010958663
0.0051636729
0.0017982884
0.00053437978
0.0011814456
0.0044672653
0.011484617
0.021269322
0.0081915574
0.020609185
0.027736018
0.022757918
0.019586676
0.018671705
0.020074048
0.025672157
0.036876104
0.02453597
8.5687268e-05
0.0036961133
0.0076774776
0.0062865188
0.0053143526
0.0050683477
0.0056271281
0.0078613941
0.012150265
-0.0003653621
0.0046046226
-0.0077671637
-0.0011022517
-0.00032607851
-0.00071187138
-0.0015642554
-0.0029787796
-0.0039009615
0.00078642144
0.0043883897
-0.016408173
-0.024968485
-0.012647291
-0.011433188
-0.012755547
-0.015461087
-0.02000667
-0.024372338
-0.016254731
-0.0048886973
-0.013392049
-0.0022304214
0.00014324766
-0.00030251241
-0.0019310876
-0.0046900181
-0.009160543
-0.01513698
-0.017028891
-0.013210629
0.017540413
0.018125983
0.017432156
0.016051648
0.014163194
0.0116821
0.0082498676
0.0035513101
-0.0011891025
-0.0048277306
0.0087666689
0.0069094036
0.0047387698
0.0025218979
0.00036922198
-0.0017712891
-0.0040186151
-0.006465541
-0.008790627
-0.010663709
-0.002037427
-0.0054377894
-0.0092885502
-0.012667245
-0.015201877
-0.017055082
-0.018317246
-0.018976145
-0.018957954
-0.018472564
-0.0052760049
-0.008781064
-0.014187256
-0.019228026
-0.022318046
-0.023922278
-0.024239109
-0.023083347
-0.020176065
-0.015832875
0.0052740194
0.010921821
0.0090259591
0.0030534726
-0.00041301111
-0.0017185394
-0.0010537194
0.0023445045
0.0096337569
0.019849801
0.0069441861
0.019378213
0.026427827
0.021304565
0.018048786
0.017106397
0.018552367
0.024356868
0.036057664
0.02354352
-0.00027939791
0.0033225703
0.0072979577
0.0058680788
0.0048722056
0.0046193576
0.005195799
0.0075148179
0.012006495
-0.00082794445
0.0048988247
-0.0073489657
-0.00071233494
4.4029387e-05
-0.00035873689
-0.0012361556
-0.0026982268
-0.003691148
0.00098512917
0.004555131
-0.015319591
-0.023736331
-0.011494831
-0.010343094
-0.011723598
-0.014508795
-0.019192947
-0.023766053
-0.015739533
-0.0044671109
-0.012434512
-0.001345019
0.00095872461
0.00044680771
-0.0012490388
-0.0040896063
-0.0086796993
-0.014828522
-0.016862178
-0.013133867
0.017764666
0.018295063
0.017535899
0.0160873
0.014130046
0.011575105
0.0080536832
0.0032429723
-0.0016023844
-0.0053112547
0.0082151132
0.0062948357
0.004049412
0.0017584217
-0.0004627829
-0.0026666197
-0.0049751115
-0.0074830182
-0.0098595085
-0.011766573
-0.0032942439
-0.0068034788
-0.010763593
-0.014234139
-0.016839956
-0.018746468
-0.020045654
-0.020724824
-0.020707621
-0.020209921
-0.0070270503
-0.010709539
-0.016284308
-0.021448454
-0.02461644
-0.026264853
-0.026594796
-0.025413997
-0.02243085
-0.017963999
0.0035473665
0.0090724004
0.0070007808
0.00088992174
-0.0026552868
-0.0039944753
-0.0033172544
0.0001694708
0.0076804652
0.018258508
0.0056164185
0.017985837
0.02491536
0.019680491
0.016361133
0.015396937
0.016876036
0.022846934
0.034965073
0.022364089
-0.00065332713
0.0029166747
0.006861621
0.005402215
0.0043890408
0.0041308389
0.0047208406
0.0071087395
0.011772869
-0.0012919163
0.0051587092
-0.0068962772
-0.00032906435
0.00040321384
-1.3640908e-05
-0.0009101371
-0.0024097644
-0.0034659192
0.0011705919
0.004686641
-0.014172361
-0.022404021
-0.010317372
-0.0092338255
-0.010662674
-0.013508655
-0.018299611
-0.023047692
-0.015159434
-0.0040479591
-0.011455369
-0.00050613239
0.001714827
0.0011412871
-0.00061001957
-0.0035130669
-0.0081919741
-0.014471636
-0.016630925
-0.013012144
0.01783559
0.018308725
0.017490289
0.015983878
0.013971184
0.011359518
0.0077723008
0.0028812745
-0.0020369266
-0.0057913429
0.0075825794
0.005612553
0.0033077499
0.00095819888
-0.0013166108
-0.0035691167
-0.0059235498
-0.0084760057
-0.010888425
-0.012817131
-0.0045495031
-0.0081436883
-0.01218644
-0.015725643
-0.018385324
-0.020332582
-0.021660373
-0.022355616
-0.022339893
-0.021833525
-0.0087459238
-0.012579597
-0.01828496
-0.023538166
-0.026763204
-0.028445055
-0.028786238
-0.0275887
-0.024550075
-0.019989758
0.0017871626
0.007157697
0.0049273394
-0.0012812537
-0.004881888
-0.0062461288
-0.0055614079
-0.0020099657
0.0056719448
0.016540683
0.0042402114
0.016469052
0.023239944
0.017928544
0.014567327
0.013587419
0.015089417
0.02118636
0.033640067
0.021034494
-0.0010275509
0.0024884982
0.0063800992
0.0049010186
0.003877155
0.0036152145
0.0042147332
0.0066554256
0.011460559
-0.0017482896
0.0053787313
-0.0064176265
4.026132e-05
0.00074455141
0.00031666131
-0.00059278724
-0.0021196464
-0.0032306941
0.0013392429
0.004780912
-0.012989125
-0.02099683
-0.0091374701
-0.0081268908
-0.0095936911
-0.012481003
-0.017346035
-0.022234491
-0.01452706
-0.0036391897
-0.01047268
0.00027058671
0.0023972592
0.0017675226
-2.6733639e-05
-0.0029724279
-0.0077085429
-0.014076122
-0.016342475
-0.012849937
0.017751801
0.018166401
0.01729558
0.015742408
0.013688344
0.011037764
0.0074088817
0.0024702296
-0.0024877536
-0.006262278
0.0068789436
0.0048729357
0.0025248314
0.00013298516
-0.0021798121
-0.0044656593
-0.0068501486
-0.0094300684
-0.01186235
-0.013799981
-0.0057832911
-0.0094377526
-0.013535635
-0.017119562
-0.019815097
-0.021789898
-0.023137277
-0.023843845
-0.023829637
-0.023317962
-0.010403706
-0.014360566
-0.020157193
-0.02546426
-0.028724728
-0.030428669
-0.030778674
-0.029572237
-0.026498245
-0.021874673
2.8085674e-05
0.0052164197
0.0028470602
-0.0034175124
-0.0070495752
-0.0084297141
-0.0077419353
-0.0041492845
0.0036524384
0.014739219
0.0028457749
0.014863184
0.021441076
0.016089369
0.012708568
0.011719456
0.013234451
0.01941702
0.032122954
0.019590105
-0.0013940269
0.0020476421
0.0058645535
0.0043760008
0.0033482039
0.0030842468
0.0036893205
0.0061666281
0.011080508
-0.0021886048
0.0055540602
-0.005920965
0.00038910386
0.001061876
0.00062613665
-0.00029002748
-0.0018335594
-0.0029904563
0.0014879503
0.0048363874
-0.011790606
-0.019538041
-0.0079753978
-0.0070415707
-0.0085354595
-0.011444252
-0.016349974
-0.021342496
-0.013854018
-0.0032477247
-0.0095023932
0.0009718683
0.0029940766
0.0023143519
0.00049021318
-0.0024778116
-0.0072389653
-0.013650577
-0.016003347
-0.012651079
0.017513727
0.017869276
0.016953665
0.015365413
0.013284607
0.010613439
0.0069675288
0.0020144945
-0.0029495645
-0.0067182691
0.0061143707
0.0040865156
0.0017116899
-0.00070564788
-0.003040284
-0.0053436324
-0.0077417943
-0.01033161
-0.012767258
-0.014700841
-0.0069769012
-0.010666445
-0.014791415
-0.018395624
-0.021108493
-0.023097134
-0.02445459
-0.025167258
-0.025154184
-0.02464028
-0.011973761
-0.016024404
-0.021872005
-0.027197169
-0.030470949
-0.032185146
-0.032541073
-0.0313331
-0.028243458
-0.023586656
-0.0016976584
0.0032846061
0.00079829688
-0.0054797755
-0.0091187965
-0.01050524
-0.0098183909
-0.0062076248
0.0016628929
0.012894295
0.0014613076
0.013201573
0.019556079
0.014201071
0.010823315
0.0098318393
0.011350293
0.017578283
0.030452213
0.018064485
-0.0017452977
0.0016031395
0.0053255647
0.0038379849
0.0028130951
0.0025489296
0.003155698
0.0056534645
0.0106433
-0.0026050206
0.0056806158
-0.0054136185
0.0007117165
0.0013498069
0.00090950278
-7.0828643e-06
-0.0015565893
-0.0027497189
0.0016140369
0.0048519652
-0.010595498
-0.018048846
-0.0068490815
-0.0059948556
-0.0075046176
-0.010414819
-0.015327485
-0.020386479
-0.013150835
-0.0028794384
-0.0085583205
0.0015868176
0.0034956704
0.0027728353
0.00093229529
-0.0020374486
-0.0067911904
-0.013202396
-0.015619226
-0.012418758
0.017123539
0.017420219
0.016468003
0.014856844
0.012764329
0.010091231
0.0064532197
0.0015193109
-0.0034167836
-0.0071534954
0.0052992395
0.0032639049
0.000879276
-0.001546379
-0.0038863363
-0.0061909917
-0.0085861058
-0.011167935
-0.013590184
-0.01550661
-0.0081129135
-0.011812052
-0.015935781
-0.019535537
-0.02224689
-0.024235307
-0.025592949
-0.026306095
-0.026293399
-0.025780065
-0.013431848
-0.017545802
-0.023403508
-0.028710749
-0.031975429
-0.033687692
-0.034046217
-0.032843584
-0.029757519
-0.02509714
-0.0033605053
0.001395434
-0.001183855
-0.0074326017
-0.011053858
-0.01243668
-0.011754308
-0.0081479821
-0.00025926396
0.011043128
0.0001128076
0.011515334
0.017619848
0.012298971
0.0089470421
0.0079602956
0.0094730721
0.01570674
0.028664182
0.016489119
-0.0020745471
0.0011633812
0.0047730507
0.0032970264
0.0022819095
0.0020194091
0.0026241319
0.0051263287
0.01015906
-0.0029903806
0.0057550915
-0.0049022542
0.0010031597
0.0016037629
0.0011622427
0.00025153473
-0.0012932008
-0.0025125012
0.0017152937
0.0048269972
-0.0094203934
-0.016548291
-0.0057740712
-0.0050014211
-0.0065156063
-0.0094070971
-0.014292886
-0.019379877