/*--------------------------------*- C++ -*----------------------------------*\
| =========                 |                                                 |
| \\      /  F ield         | OpenFOAM: The Open Source CFD Toolbox           |
|  \\    /   O peration     | Version:  v2106                                 |
|   \\  /    A nd           | Website:  www.openfoam.com                      |
|    \\/     M anipulation  |                                                 |
\*---------------------------------------------------------------------------*/
FoamFile
{
    version     2.0;
    format      ascii;
    arch        "LSB;label=32;scalar=64";
    class       volScalarField;
    location    "17.5";
    object      gradTz;
}
// * * * * * * * * * * * * * * * * * * * * * * * * * * * * * * * * * * * * * //

dimensions      [0 -1 0 1 0 0 0];

internalField   nonuniform List<scalar> 
4000
(
796.43385
796.43673
796.42593
796.42678
796.42828
796.4294
796.43041
796.43158
796.4329
796.43367
796.43673
796.43036
796.42357
796.42497
796.42646
796.42749
796.42842
796.4297
796.43168
796.43323
796.42593
796.42357
796.41759
796.41912
796.42057
796.42149
796.42224
796.42337
796.4257
796.42862
796.42678
796.42497
796.41912
796.42065
796.42205
796.42286
796.4234
796.42421
796.4261
796.42858
796.42828
796.42646
796.42057
796.42205
796.42337
796.42407
796.42448
796.42509
796.42675
796.42899
796.4294
796.42749
796.42149
796.42286
796.42407
796.42467
796.42498
796.4255
796.42707
796.42924
796.43041
796.42842
796.42224
796.4234
796.42448
796.42498
796.42523
796.42572
796.42728
796.42947
796.43158
796.4297
796.42337
796.42421
796.42509
796.4255
796.42572
796.42623
796.42786
796.43014
796.4329
796.43168
796.4257
796.4261
796.42675
796.42707
796.42728
796.42786
796.42963
796.43204
796.43367
796.43323
796.42862
796.42858
796.42899
796.42924
796.42947
796.43014
796.43204
796.43452
1172.376
1172.3765
1172.3668
1172.3677
1172.3695
1172.371
1172.3724
1172.3741
1172.3764
1172.3768
1172.3765
1172.3709
1172.3642
1172.3655
1172.3673
1172.3687
1172.3699
1172.3719
1172.3756
1172.3774
1172.3668
1172.3642
1172.3584
1172.3599
1172.3617
1172.3629
1172.3638
1172.3655
1172.3696
1172.373
1172.3677
1172.3655
1172.3599
1172.3615
1172.3632
1172.3642
1172.3648
1172.366
1172.3696
1172.3726
1172.3695
1172.3673
1172.3617
1172.3632
1172.3648
1172.3656
1172.3661
1172.367
1172.3702
1172.3729
1172.371
1172.3687
1172.3629
1172.3642
1172.3656
1172.3663
1172.3666
1172.3674
1172.3705
1172.3731
1172.3724
1172.3699
1172.3638
1172.3648
1172.3661
1172.3666
1172.3668
1172.3676
1172.3707
1172.3733
1172.3741
1172.3719
1172.3655
1172.366
1172.367
1172.3674
1172.3676
1172.3684
1172.3717
1172.3745
1172.3764
1172.3756
1172.3696
1172.3696
1172.3702
1172.3705
1172.3707
1172.3717
1172.3752
1172.3783
1172.3768
1172.3774
1172.373
1172.3726
1172.3729
1172.3731
1172.3733
1172.3745
1172.3783
1172.3806
1157.6238
1157.6234
1157.6175
1157.6186
1157.6202
1157.6214
1157.6226
1157.6243
1157.6272
1157.6276
1157.6234
1157.6194
1157.6153
1157.6166
1157.6182
1157.6192
1157.6201
1157.622
1157.6266
1157.6285
1157.6175
1157.6153
1157.6118
1157.6132
1157.6147
1157.6156
1157.6162
1157.6176
1157.6225
1157.6258
1157.6186
1157.6166
1157.6132
1157.6147
1157.6161
1157.6168
1157.617
1157.618
1157.6225
1157.6254
1157.6202
1157.6182
1157.6147
1157.6161
1157.6173
1157.6179
1157.618
1157.6187
1157.6228
1157.6255
1157.6214
1157.6192
1157.6156
1157.6168
1157.6179
1157.6183
1157.6182
1157.6188
1157.6229
1157.6254
1157.6226
1157.6201
1157.6162
1157.617
1157.618
1157.6182
1157.6181
1157.6187
1157.6228
1157.6254
1157.6243
1157.622
1157.6176
1157.618
1157.6187
1157.6188
1157.6187
1157.6193
1157.6237
1157.6267
1157.6272
1157.6266
1157.6225
1157.6225
1157.6228
1157.6229
1157.6228
1157.6237
1157.6285
1157.6319
1157.6276
1157.6285
1157.6258
1157.6254
1157.6255
1157.6254
1157.6254
1157.6267
1157.6319
1157.6328
1140.9789
1140.9791
1140.9744
1140.9756
1140.977
1140.978
1140.9788
1140.9803
1140.9836
1140.9845
1140.9791
1140.9762
1140.9731
1140.9745
1140.9759
1140.9767
1140.9772
1140.9786
1140.9833
1140.9854
1140.9744
1140.9731
1140.9704
1140.9719
1140.9732
1140.9738
1140.9739
1140.9749
1140.9799
1140.9832
1140.9756
1140.9745
1140.9719
1140.9733
1140.9745
1140.9749
1140.9748
1140.9753
1140.9799
1140.9829
1140.977
1140.9759
1140.9732
1140.9745
1140.9756
1140.9758
1140.9755
1140.9758
1140.9801
1140.9829
1140.978
1140.9767
1140.9738
1140.9749
1140.9758
1140.976
1140.9755
1140.9757
1140.9799
1140.9826
1140.9788
1140.9772
1140.9739
1140.9748
1140.9755
1140.9755
1140.975
1140.9752
1140.9795
1140.9823
1140.9803
1140.9786
1140.9749
1140.9753
1140.9758
1140.9757
1140.9752
1140.9755
1140.9801
1140.9834
1140.9836
1140.9833
1140.9799
1140.9799
1140.9801
1140.9799
1140.9795
1140.9801
1140.9854
1140.9895
1140.9845
1140.9854
1140.9832
1140.9829
1140.9829
1140.9826
1140.9823
1140.9834
1140.9895
1140.9899
1122.5891
1122.5894
1122.5854
1122.5867
1122.5881
1122.5888
1122.5893
1122.5903
1122.5931
1122.594
1122.5894
1122.5871
1122.5846
1122.586
1122.5873
1122.5879
1122.588
1122.5889
1122.5931
1122.595
1122.5854
1122.5846
1122.5824
1122.5839
1122.585
1122.5854
1122.5852
1122.5856
1122.5901
1122.5931
1122.5867
1122.586
1122.5839
1122.5853
1122.5864
1122.5866
1122.586
1122.586
1122.5901
1122.5928
1122.5881
1122.5873
1122.585
1122.5864
1122.5873
1122.5873
1122.5866
1122.5863
1122.5902
1122.5927
1122.5888
1122.5879
1122.5854
1122.5866
1122.5873
1122.5872
1122.5863
1122.586
1122.5897
1122.5922
1122.5893
1122.588
1122.5852
1122.586
1122.5866
1122.5863
1122.5854
1122.5851
1122.589
1122.5916
1122.5903
1122.5889
1122.5856
1122.586
1122.5863
1122.586
1122.5851
1122.585
1122.5892
1122.5924
1122.5931
1122.5931
1122.5901
1122.5901
1122.5902
1122.5897
1122.589
1122.5892
1122.5942
1122.5984
1122.594
1122.595
1122.5931
1122.5928
1122.5927
1122.5922
1122.5916
1122.5924
1122.5984
1122.5986
1102.6038
1102.6043
1102.6009
1102.6023
1102.6035
1102.604
1102.6042
1102.6047
1102.6071
1102.6078
1102.6043
1102.6024
1102.6003
1102.6019
1102.603
1102.6034
1102.6032
1102.6035
1102.6071
1102.6087
1102.6009
1102.6003
1102.5985
1102.6001
1102.6012
1102.6013
1102.6007
1102.6007
1102.6045
1102.6071
1102.6023
1102.6019
1102.6001
1102.6016
1102.6025
1102.6024
1102.6016
1102.6011
1102.6046
1102.6069
1102.6035
1102.603
1102.6012
1102.6025
1102.6033
1102.6031
1102.602
1102.6013
1102.6045
1102.6066
1102.604
1102.6034
1102.6013
1102.6024
1102.6031
1102.6027
1102.6015
1102.6007
1102.6039
1102.6059
1102.6042
1102.6032
1102.6007
1102.6016
1102.602
1102.6015
1102.6003
1102.5995
1102.6028
1102.605
1102.6047
1102.6035
1102.6007
1102.6011
1102.6013
1102.6007
1102.5995
1102.5989
1102.6026
1102.6054
1102.6071
1102.6071
1102.6045
1102.6046
1102.6045
1102.6039
1102.6028
1102.6026
1102.607
1102.611
1102.6078
1102.6087
1102.6071
1102.6069
1102.6066
1102.6059
1102.605
1102.6054
1102.611
1102.6111
1081.1772
1081.1779
1081.175
1081.1764
1081.1775
1081.1779
1081.1777
1081.1778
1081.1797
1081.1801
1081.1779
1081.1763
1081.1747
1081.1762
1081.1773
1081.1774
1081.1769
1081.1769
1081.1798
1081.1811
1081.175
1081.1747
1081.1733
1081.1749
1081.1758
1081.1757
1081.1749
1081.1744
1081.1776
1081.1797
1081.1764
1081.1762
1081.1749
1081.1764
1081.1772
1081.1769
1081.1758
1081.1748
1081.1776
1081.1795
1081.1775
1081.1773
1081.1758
1081.1772
1081.1779
1081.1774
1081.1761
1081.1749
1081.1775
1081.1792
1081.1779
1081.1774
1081.1757
1081.1769
1081.1774
1081.1769
1081.1754
1081.1742
1081.1767
1081.1783
1081.1777
1081.1769
1081.1749
1081.1758
1081.1761
1081.1754
1081.1739
1081.1727
1081.1753
1081.1771
1081.1778
1081.1769
1081.1744
1081.1748
1081.1749
1081.1742
1081.1727
1081.1717
1081.1747
1081.177
1081.1797
1081.1798
1081.1776
1081.1776
1081.1775
1081.1767
1081.1753
1081.1747
1081.1785
1081.182
1081.1801
1081.1811
1081.1797
1081.1795
1081.1792
1081.1783
1081.1771
1081.177
1081.182
1081.182
1058.4652
1058.466
1058.4636
1058.4651
1058.4661
1058.4662
1058.4658
1058.4655
1058.4669
1058.4671
1058.466
1058.4648
1058.4636
1058.4652
1058.4661
1058.4661
1058.4653
1058.4648
1058.4672
1058.4681
1058.4636
1058.4636
1058.4626
1058.4641
1058.465
1058.4647
1058.4636
1058.4627
1058.4652
1058.4669
1058.4651
1058.4652
1058.4641
1058.4656
1058.4663
1058.4659
1058.4645
1058.4632
1058.4653
1058.4667
1058.4661
1058.4661
1058.465
1058.4663
1058.4669
1058.4663
1058.4647
1058.4632
1058.4651
1058.4663
1058.4662
1058.4661
1058.4647
1058.4659
1058.4663
1058.4656
1058.4639
1058.4622
1058.4641
1058.4653
1058.4658
1058.4653
1058.4636
1058.4645
1058.4647
1058.4639
1058.4621
1058.4605
1058.4625
1058.4638
1058.4655
1058.4648
1058.4627
1058.4632
1058.4632
1058.4622
1058.4605
1058.4591
1058.4614
1058.4634
1058.4669
1058.4672
1058.4652
1058.4653
1058.4651
1058.4641
1058.4625
1058.4614
1058.4646
1058.4676
1058.4671
1058.4681
1058.4669
1058.4667
1058.4663
1058.4653
1058.4638
1058.4634
1058.4676
1058.4674
1034.6242
1034.625
1034.6232
1034.6246
1034.6256
1034.6256
1034.6248
1034.6243
1034.6252
1034.6251
1034.625
1034.6243
1034.6234
1034.625
1034.6258
1034.6256
1034.6246
1034.6237
1034.6255
1034.6261
1034.6232
1034.6234
1034.6228
1034.6243
1034.625
1034.6246
1034.6233
1034.622
1034.6239
1034.6251
1034.6246
1034.625
1034.6243
1034.6257
1034.6264
1034.6258
1034.6241
1034.6225
1034.624
1034.625
1034.6256
1034.6258
1034.625
1034.6264
1034.6268
1034.6261
1034.6242
1034.6224
1034.6237
1034.6245
1034.6256
1034.6256
1034.6246
1034.6258
1034.6261
1034.6252
1034.6233
1034.6213
1034.6225
1034.6233
1034.6248
1034.6246
1034.6233
1034.6241
1034.6242
1034.6233
1034.6213
1034.6193
1034.6207
1034.6216
1034.6243
1034.6237
1034.622
1034.6225
1034.6224
1034.6213
1034.6193
1034.6176
1034.6193
1034.6208
1034.6252
1034.6255
1034.6239
1034.624
1034.6237
1034.6225
1034.6207
1034.6193
1034.6218
1034.6244
1034.6251
1034.6261
1034.6251
1034.625
1034.6245
1034.6233
1034.6216
1034.6208
1034.6244
1034.6239
1009.8099
1009.8109
1009.8095
1009.811
1009.8118
1009.8116
1009.8107
1009.8098
1009.8103
1009.81
1009.8109
1009.8105
1009.81
1009.8115
1009.8122
1009.8119
1009.8106
1009.8095
1009.8107
1009.811
1009.8095
1009.81
1009.8097
1009.8111
1009.8118
1009.8112
1009.8096
1009.8081
1009.8094
1009.8102
1009.811
1009.8115
1009.8111
1009.8125
1009.813
1009.8123
1009.8105
1009.8085
1009.8095
1009.8101
1009.8118
1009.8122
1009.8118
1009.813
1009.8134
1009.8125
1009.8105
1009.8083
1009.8091
1009.8095
1009.8116
1009.8119
1009.8112
1009.8123
1009.8125
1009.8115
1009.8094
1009.8071
1009.8078
1009.8082
1009.8107
1009.8106
1009.8096
1009.8105
1009.8105
1009.8094
1009.8072
1009.805
1009.8058
1009.8063
1009.8098
1009.8095
1009.8081
1009.8085
1009.8083
1009.8071
1009.805
1009.803
1009.8041
1009.8051
1009.8103
1009.8107
1009.8094
1009.8095
1009.8091
1009.8078
1009.8058
1009.8041
1009.8059
1009.808
1009.81
1009.811
1009.8102
1009.8101
1009.8095
1009.8082
1009.8063
1009.8051
1009.808
1009.8074
984.17694
984.17797
984.17706
984.17847
984.17916
984.17882
984.17771
984.17655
984.17663
984.17617
984.17797
984.17785
984.1777
984.17916
984.17977
984.17926
984.17786
984.17643
984.17715
984.17713
984.17706
984.1777
984.17768
984.17909
984.17959
984.1789
984.17719
984.17536
984.17609
984.17654
984.17847
984.17916
984.17909
984.18042
984.18079
984.17993
984.17798
984.17578
984.17618
984.17639
984.17916
984.17977
984.17959
984.18079
984.18103
984.18003
984.1779
984.17551
984.17571
984.17577
984.17882
984.17926
984.1789
984.17993
984.18003
984.1789
984.17668
984.17421
984.17435
984.17436
984.17771
984.17786
984.17719
984.17798
984.1779
984.17668
984.17441
984.17196
984.17219
984.17232
984.17655
984.17643
984.17536
984.17578
984.17551
984.17421
984.17196
984.16966
984.17021
984.17083
984.17663
984.17715
984.17609
984.17618
984.17571
984.17435
984.17219
984.17021
984.17146
984.17309
984.17617
984.17713
984.17654
984.17639
984.17577
984.17436
984.17232
984.17083
984.17309
984.17225
957.87745
957.87852
957.87803
957.87938
957.87994
957.87947
957.87821
957.87682
957.87653
957.8759
957.87852
957.87869
957.87883
957.88021
957.88069
957.88006
957.87852
957.87686
957.87711
957.87682
957.87803
957.87883
957.87908
957.8804
957.88078
957.87998
957.87815
957.8761
957.87632
957.8764
957.87938
957.88021
957.8804
957.88163
957.88189
957.88093
957.87887
957.87649
957.8764
957.87626
957.87994
957.88069
957.88078
957.88189
957.88202
957.88092
957.8787
957.87614
957.87586
957.87558
957.87947
957.88006
957.87998
957.88093
957.88092
957.87971
957.8774
957.87475
957.87442
957.8741
957.87821
957.87852
957.87815
957.87887
957.8787
957.8774
957.87504
957.87242
957.87216
957.87195
957.87682
957.87686
957.8761
957.87649
957.87614
957.87475
957.87242
957.86993
957.86997
957.8702
957.87653
957.87711
957.87632
957.8764
957.87586
957.87442
957.87216
957.86997
957.87066
957.87186
957.8759
957.87682
957.8764
957.87626
957.87558
957.8741
957.87195
957.8702
957.87186
957.87085
931.06093
931.06202
931.06193
931.06319
931.06362
931.06303
931.06164
931.06006
931.05946
931.05868
931.06202
931.06246
931.06287
931.06413
931.06449
931.06375
931.0621
931.06026
931.06007
931.05954
931.06193
931.06287
931.06334
931.06455
931.0648
931.06391
931.06199
931.05979
931.05955
931.05929
931.06319
931.06413
931.06455
931.06567
931.06581
931.06476
931.06264
931.06013
931.0596
931.05914
931.06362
931.06449
931.0648
931.06581
931.06583
931.06466
931.06239
931.05971
931.05901
931.05842
931.06303
931.06375
931.06391
931.06476
931.06466
931.06338
931.06102
931.05827
931.05752
931.0569
931.06164
931.0621
931.06199
931.06264
931.06239
931.06102
931.05862
931.05588
931.05519
931.05468
931.06006
931.06026
931.05979
931.06013
931.05971
931.05827
931.05588
931.05326
931.05284
931.05273
931.05946
931.06007
931.05955
931.0596
931.05901
931.05752
931.05519
931.05284
931.05303
931.05381
931.05868
931.05954
931.05929
931.05914
931.05842
931.0569
931.05468
931.05273
931.05381
931.05266
903.87355
903.87464
903.87491
903.87605
903.87635
903.87566
903.87418
903.87245
903.87157
903.87067
903.87464
903.87531
903.87595
903.87708
903.87731
903.87648
903.87476
903.87278
903.8722
903.87147
903.87491
903.87595
903.87662
903.8777
903.87782
903.87685
903.8749
903.87258
903.87192
903.87137
903.87605
903.87708
903.8777
903.87868
903.87871
903.8776
903.87545
903.87286
903.87195
903.87122
903.87635
903.87731
903.87782
903.87871
903.87862
903.8774
903.87512
903.87238
903.87131
903.87047
903.87566
903.87648
903.87685
903.8776
903.8774
903.87608
903.87372
903.87091
903.86979
903.86892
903.87418
903.87476
903.8749
903.87545
903.87512
903.87372
903.87131
903.86851
903.86745
903.86666
903.87245
903.87278
903.87258
903.87286
903.87238
903.87091
903.86851
903.86582
903.865
903.86457
903.87157
903.8722
903.87192
903.87195
903.87131
903.86979
903.86745
903.865
903.86472
903.86511
903.87067
903.87147
903.87137
903.87122
903.87047
903.86892
903.86666
903.86457
903.86511
903.86387
876.45769
876.45875
876.45935
876.46036
876.46053
876.45975
876.4582
876.45637
876.45525
876.45425
876.45875
876.45962
876.46046
876.46145
876.46154
876.46065
876.45889
876.45681
876.45589
876.45498
876.45935
876.46046
876.4613
876.46223
876.46223
876.46121
876.45923
876.45686
876.45583
876.45502
876.46036
876.46145
876.46223
876.46307
876.46298
876.46183
876.45969
876.45708
876.45583
876.45486
876.46053
876.46154
876.46223
876.46298
876.46279
876.46154
876.45928
876.45653
876.45515
876.45409
876.45975
876.46065
876.46121
876.46183
876.46154
876.4602
876.45787
876.45506
876.45364
876.45255
876.4582
876.45889
876.45923
876.45969
876.45928
876.45787
876.4555
876.4527
876.45132
876.4503
876.45637
876.45681
876.45686
876.45708
876.45653
876.45506
876.4527
876.44998
876.44881
876.44812
876.45525
876.45589
876.45583
876.45583
876.45515
876.45364
876.45132
876.44881
876.44813
876.44817
876.45425
876.45498
876.45502
876.45486
876.45409
876.45255
876.4503
876.44812
876.44817
876.44685
848.95158
848.95258
848.95348
848.95434
848.95437
848.95352
848.95194
848.95005
848.94874
848.94767
848.95258
848.95362
848.95463
848.95546
848.95542
848.95447
848.9527
848.95057
848.94937
848.94831
848.95348
848.95463
848.95561
848.95637
848.95626
848.95519
848.95324
848.95085
848.94952
848.94848
848.95434
848.95546
848.95637
848.95705
848.95685
848.95569
848.95359
848.951
848.94947
848.94831
848.95437
848.95542
848.95626
848.95685
848.95657
848.95531
848.95311
848.95041
848.94877
848.94753
848.95352
848.95447
848.95519
848.95569
848.95531
848.95397
848.95171
848.94895
848.94728
848.94601
848.95194
848.9527
848.95324
848.95359
848.95311
848.95171
848.94942
848.94667
848.94503
848.94382
848.95005
848.95057
848.95085
848.951
848.95041
848.94895
848.94667
848.94398
848.94252
848.94159
848.94874
848.94937
848.94952
848.94947
848.94877
848.94728
848.94503
848.94252
848.94148
848.9412
848.94767
848.94831
848.94848
848.94831
848.94753
848.94601
848.94382
848.94159
848.9412
848.93983
821.48895
821.48988
821.49104
821.49175
821.49164
821.49074
821.48915
821.48723
821.48577
821.48466
821.48988
821.49106
821.49221
821.49286
821.4927
821.49171
821.48997
821.48783
821.48638
821.48521
821.49104
821.49221
821.4933
821.49389
821.49366
821.49257
821.49068
821.48832
821.48672
821.48549
821.49175
821.49286
821.49389
821.4944
821.4941
821.49292
821.49091
821.48839
821.48664
821.48531
821.49164
821.4927
821.49366
821.4941
821.49372
821.49247
821.49037
821.48776
821.48592
821.48453
821.49074
821.49171
821.49257
821.49292
821.49247
821.49115
821.489
821.48634
821.48448
821.48307
821.48915
821.48997
821.49068
821.49091
821.49037
821.489
821.48683
821.48417
821.48233
821.48097
821.48723
821.48783
821.48832
821.48839
821.48776
821.48634
821.48417
821.48157
821.47987
821.47874
821.48577
821.48638
821.48672
821.48664
821.48592
821.48448
821.48233
821.47987
821.47852
821.47796
821.48466
821.48521
821.48549
821.48531
821.48453
821.48307
821.48097
821.47874
821.47796
821.47657
794.19882
794.19965
794.20106
794.20159
794.20135
794.20041
794.19884
794.19694
794.19535
794.19423
794.19965
794.20096
794.20222
794.20268
794.2024
794.20139
794.19969
794.19759
794.19593
794.19468
794.20106
794.20222
794.20339
794.20379
794.20345
794.20236
794.20055
794.19826
794.19645
794.19507
794.20159
794.20268
794.20379
794.20413
794.20372
794.20256
794.20066
794.19825
794.19633
794.19488
794.20135
794.2024
794.20345
794.20372
794.20325
794.20204
794.20007
794.19759
794.1956
794.19411
794.20041
794.20139
794.20236
794.20256
794.20204
794.20077
794.19876
794.19624
794.19423
794.19272
794.19884
794.19969
794.20055
794.20066
794.20007
794.19876
794.19673
794.19421
794.19222
794.19075
794.19694
794.19759
794.19826
794.19825
794.19759
794.19624
794.19421
794.19174
794.18986
794.18857
794.19535
794.19593
794.19645
794.19633
794.1956
794.19423
794.19222
794.18986
794.18826
794.18744
794.19423
794.19468
794.19507
794.19488
794.19411
794.19272
794.19075
794.18857
794.18744
794.18606
767.20523
767.20595
767.20756
767.20791
767.20754
767.20657
767.20506
767.2032
767.20154
767.20043
767.20595
767.20734
767.20869
767.20896
767.20856
767.20754
767.20592
767.20389
767.20207
767.20076
767.20756
767.20869
767.20991
767.21012
767.20967
767.2086
767.2069
767.20473
767.20275
767.20125
767.20791
767.20896
767.21012
767.21028
767.20978
767.20865
767.20689
767.20464
767.20259
767.20105
767.20754
767.20856
767.20967
767.20978
767.20923
767.20806
767.20626
767.20395
767.20186
767.2003
767.20657
767.20754
767.2086
767.20865
767.20806
767.20686
767.20502
767.20269
767.20058
767.19901
767.20506
767.20592
767.2069
767.20689
767.20626
767.20502
767.20317
767.20084
767.19874
767.19719
767.2032
767.20389
767.20473
767.20464
767.20395
767.20269
767.20084
767.19853
767.19652
767.1951
767.20154
767.20207
767.20275
767.20259
767.20186
767.20058
767.19874
767.19652
767.19471
767.19367
767.20043
767.20076
767.20125
767.20105
767.2003
767.19901
767.19719
767.1951
767.19367
767.19233
740.62705
740.62764
740.62943
740.62959
740.62911
740.62813
740.62668
740.6249
740.6232
740.62212
740.62764
740.6291
740.63051
740.63058
740.63007
740.62906
740.62755
740.62561
740.62367
740.62234
740.62943
740.63051
740.63177
740.63179
740.63124
740.63019
740.62863
740.6266
740.6245
740.62292
740.62959
740.63058
740.63179
740.63176
740.63117
740.63009
740.6285
740.62643
740.6243
740.62271
740.62911
740.63007
740.63124
740.63117
740.63055
740.62944
740.62783
740.62574
740.62359
740.62199
740.62813
740.62906
740.63019
740.63009
740.62944
740.62832
740.62668
740.62458
740.62242
740.62082
740.62668
740.62755
740.62863
740.6285
740.62783
740.62668
740.62503
740.62293
740.62077
740.61919
740.6249
740.62561
740.6266
740.62643
740.62574
740.62458
740.62293
740.62083
740.61873
740.61722
740.6232
740.62367
740.6245
740.6243
740.62359
740.62242
740.62077
740.61873
740.61677
740.61554
740.62212
740.62234
740.62292
740.62271
740.62199
740.62082
740.61919
740.61722
740.61554
740.61425
714.57785
714.5783
714.58024
714.58021
714.57961
714.57863
714.57728
714.57561
714.57389
714.57287
714.5783
714.57981
714.58125
714.58112
714.5805
714.57951
714.57813
714.57633
714.57431
714.57298
714.58024
714.58125
714.58253
714.58235
714.5817
714.5807
714.5793
714.57745
714.57527
714.57363
714.58021
714.58112
714.58235
714.58213
714.58146
714.58045
714.57904
714.5772
714.57503
714.57341
714.57961
714.5805
714.5817
714.58146
714.58078
714.57975
714.57835
714.5765
714.57434
714.57274
714.57863
714.57951
714.5807
714.58045
714.57975
714.57872
714.57731
714.57546
714.5733
714.5717
714.57728
714.57813
714.5793
714.57904
714.57835
714.57731
714.57589
714.57404
714.57188
714.57028
714.57561
714.57633
714.57745
714.5772
714.5765
714.57546
714.57404
714.57219
714.57004
714.56848
714.57389
714.57431
714.57527
714.57503
714.57434
714.5733
714.57188
714.57004
714.56797
714.56658
714.57287
714.57298
714.57363
714.57341
714.57274
714.5717
714.57028
714.56848
714.56658
714.56538
689.16572
689.16602
689.16809
689.16787
689.16716
689.1662
689.16497
689.16342
689.16173
689.16078
689.16602
689.16755
689.16901
689.16869
689.16797
689.16702
689.16578
689.16414
689.16207
689.16077
689.16809
689.16901
689.17029
689.16991
689.16918
689.16824
689.16702
689.16538
689.16316
689.16149
689.16787
689.16869
689.16991
689.16951
689.16877
689.16784
689.16664
689.16505
689.16288
689.16127
689.16716
689.16797
689.16918
689.16877
689.16803
689.1671
689.16593
689.16436
689.16222
689.16065
689.1662
689.16702
689.16824
689.16784
689.1671
689.16618
689.16501
689.16346
689.16133
689.15976
689.16497
689.16578
689.16702
689.16664
689.16593
689.16501
689.16385
689.16228
689.16015
689.15857
689.16342
689.16414
689.16538
689.16505
689.16436
689.16346
689.16228
689.16071
689.15855
689.15697
689.16173
689.16207
689.16316
689.16288
689.16222
689.16133
689.16015
689.15855
689.1564
689.1549
689.16078
689.16077
689.16149
689.16127
689.16065
689.15976
689.15857
689.15697
689.1549
689.1538
664.49319
664.49333
664.4955
664.49509
664.49428
664.49335
664.49225
664.49086
664.48921
664.48836
664.49333
664.49486
664.49632
664.4958
664.49499
664.49409
664.49301
664.49156
664.48948
664.48823
664.4955
664.49632
664.49759
664.49701
664.49621
664.49533
664.49432
664.49291
664.49067
664.48901
664.49509
664.4958
664.49701
664.49643
664.49562
664.49478
664.49382
664.4925
664.49036
664.48878
664.49428
664.49499
664.49621
664.49562
664.49484
664.49402
664.49309
664.49182
664.48975
664.48823
664.49335
664.49409
664.49533
664.49478
664.49402
664.49322
664.49232
664.49107
664.48901
664.4875
664.49225
664.49301
664.49432
664.49382
664.49309
664.49232
664.49142
664.49017
664.48809
664.48656
664.49086
664.49156
664.49291
664.4925
664.49182
664.49107
664.49017
664.48889
664.48677
664.48518
664.48921
664.48948
664.49067
664.49036
664.48975
664.48901
664.48809
664.48677
664.48458
664.48297
664.48836
664.48823
664.48901
664.48878
664.48823
664.4875
664.48656
664.48518
664.48297
664.482
640.65705
640.65702
640.65928
640.65868
640.65778
640.6569
640.65594
640.65472
640.65315
640.65241
640.65702
640.65854
640.65999
640.65927
640.65838
640.65754
640.65664
640.6554
640.65334
640.65215
640.65928
640.65999
640.66123
640.66046
640.65959
640.6588
640.65799
640.65684
640.65463
640.65299
640.65868
640.65927
640.66046
640.6597
640.65884
640.6581
640.65738
640.65636
640.65429
640.65276
640.65778
640.65838
640.65959
640.65884
640.65802
640.65732
640.65666
640.65571
640.65372
640.65228
640.6569
640.65754
640.6588
640.6581
640.65732
640.65666
640.65603
640.65511
640.65316
640.65173
640.65594
640.65664
640.65799
640.65738
640.65666
640.65603
640.65542
640.6545
640.65252
640.65106
640.65472
640.6554
640.65684
640.65636
640.65571
640.65511
640.6545
640.65354
640.65149
640.64992
640.65315
640.65334
640.65463
640.65429
640.65372
640.65316
640.65252
640.65149
640.6493
640.64762
640.65241
640.65215
640.65299
640.65276
640.65228
640.65173
640.65106
640.64992
640.64762
640.64677
617.74829
617.74809
617.75042
617.74964
617.74866
617.74783
617.74703
617.74601
617.74454
617.74391
617.74809
617.74958
617.75101
617.7501
617.74914
617.74838
617.74767
617.74665
617.74464
617.74354
617.75042
617.75101
617.75221
617.75126
617.75033
617.74964
617.74906
617.74818
617.74602
617.74443
617.74964
617.7501
617.75126
617.75032
617.74943
617.7488
617.74834
617.74763
617.74565
617.7442
617.74866
617.74914
617.75033
617.74943
617.74858
617.74801
617.74762
617.74701
617.74515
617.7438
617.74783
617.74838
617.74964
617.7488
617.74801
617.7475
617.74716
617.74659
617.74476
617.74343
617.74703
617.74767
617.74906
617.74834
617.74762
617.74716
617.74684
617.74627
617.74441
617.74305
617.74601
617.74665
617.74818
617.74763
617.74701
617.74659
617.74627
617.74565
617.74369
617.74217
617.74454
617.74464
617.74602
617.74565
617.74515
617.74476
617.74441
617.74369
617.74153
617.7398
617.74391
617.74354
617.74443
617.7442
617.7438
617.74343
617.74305
617.74217
617.7398
617.73911
595.85199
595.85162
595.85399
595.85304
595.85199
595.85123
595.8506
595.84979
595.84843
595.84794
595.85162
595.85306
595.85446
595.85337
595.85235
595.85167
595.85117
595.8504
595.84845
595.84745
595.85399
595.85446
595.85561
595.85449
595.85351
595.85292
595.85258
595.85199
595.84991
595.84838
595.85304
595.85337
595.85449
595.85339
595.85246
595.85196
595.85176
595.85138
595.84952
595.84817
595.85199
595.85235
595.85351
595.85246
595.8516
595.85117
595.85107
595.8508
595.84908
595.84785
595.85123
595.85167
595.85292
595.85196
595.85117
595.85081
595.85077
595.85056
595.84888
595.84768
595.8506
595.85117
595.85258
595.85176
595.85107
595.85077
595.85076
595.85055
595.84884
595.84759
595.84979
595.8504
595.85199
595.85138
595.8508
595.85056
595.85055
595.85028
595.84844
595.847
595.84843
595.84845
595.84991
595.84952
595.84908
595.84888
595.84884
595.84844
595.84634
595.84459
595.84794
595.84745
595.84838
595.84817
595.84785
595.84768
595.84759
595.847
595.84459
595.84406
575.04716
575.04663
575.04904
575.04792
575.04681
575.04613
575.04569
575.04511
575.04388
575.04353
575.04663
575.04802
575.04937
575.04812
575.04705
575.04647
575.04618
575.04566
575.0438
575.04292
575.04904
575.04937
575.05047
575.04919
575.04817
575.0477
575.04761
575.04732
575.04534
575.0439
575.04792
575.04812
575.04919
575.04794
575.04699
575.04662
575.0467
575.04665
575.04494
575.0437
575.04681
575.04705
575.04817
575.04699
575.04612
575.04584
575.04603
575.04613
575.04458
575.04347
575.04613
575.04647
575.0477
575.04662
575.04584
575.04565
575.04591
575.04608
575.04458
575.04351
575.04569
575.04618
575.04761
575.0467
575.04603
575.04591
575.04622
575.04638
575.04484
575.04371
575.04511
575.04566
575.04732
575.04665
575.04613
575.04608
575.04638
575.04648
575.04478
575.04342
575.04388
575.0438
575.04534
575.04494
575.04458
575.04458
575.04484
575.04478
575.04276
575.041
575.04353
575.04292
575.0439
575.0437
575.04347
575.04351
575.04371
575.04342
575.041
575.04064
555.40672
555.40601
555.40844
555.40718
555.40603
555.40543
555.40519
555.40484
555.40376
555.40356
555.40601
555.40734
555.40865
555.40724
555.40614
555.40566
555.4056
555.40535
555.4036
555.40285
555.40844
555.40865
555.40968
555.40826
555.40722
555.40688
555.40704
555.40705
555.40521
555.40386
555.40718
555.40724
555.40826
555.40687
555.40592
555.40569
555.40605
555.40635
555.4048
555.40369
555.40603
555.40614
555.40722
555.40592
555.40505
555.40494
555.40543
555.40589
555.40452
555.40356
555.40543
555.40566
555.40688
555.40569
555.40494
555.40492
555.40549
555.40603
555.40473
555.40381
555.40519
555.4056
555.40704
555.40605
555.40543
555.40549
555.40611
555.40666
555.40531
555.40432
555.40484
555.40535
555.40705
555.40635
555.40589
555.40603
555.40666
555.40712
555.40559
555.40433
555.40376
555.4036
555.40521
555.4048
555.40452
555.40473
555.40531
555.40559
555.40368
555.40193
555.40356
555.40285
555.40386
555.40369
555.40356
555.40381
555.40432
555.40433
555.40193
555.40176
536.99726
536.99639
536.99884
536.99744
536.99626
536.99577
536.99574
536.99563
536.99472
536.99468
536.99639
536.99766
536.99891
536.99737
536.99625
536.99589
536.99607
536.99609
536.99448
536.99386
536.99884
536.99891
536.99989
536.99834
536.9973
536.99709
536.99751
536.99785
536.99615
536.99491
536.99744
536.99737
536.99834
536.99683
536.99588
536.99581
536.99646
536.99711
536.99574
536.99477
536.99626
536.99625
536.9973
536.99588
536.99504
536.99509
536.99589
536.99673
536.99556
536.99475
536.99577
536.99589
536.99709
536.99581
536.99509
536.99526
536.99615
536.99707
536.99598
536.99522
536.99574
536.99607
536.99751
536.99646
536.99589
536.99615
536.9971
536.99802
536.99688
536.99605
536.99563
536.99609
536.99785
536.99711
536.99673
536.99707
536.99802
536.99886
536.99751
536.99637
536.99472
536.99448
536.99615
536.99574
536.99556
536.99598
536.99688
536.99751
536.99573
536.99402
536.99468
536.99386
536.99491
536.99477
536.99475
536.99522
536.99605
536.99637
536.99402
536.99402
519.87905
519.87803
519.88048
519.87897
519.87778
519.87741
519.87759
519.87774
519.87701
519.87713
519.87803
519.87922
519.88043
519.87876
519.87765
519.87742
519.87784
519.87815
519.87669
519.87622
519.88048
519.88043
519.88135
519.87968
519.87865
519.87859
519.8793
519.87995
519.87842
519.87731
519.87897
519.87876
519.87968
519.87807
519.87715
519.87725
519.87819
519.8792
519.87803
519.87721