/*--------------------------------*- C++ -*----------------------------------*\
| =========                 |                                                 |
| \\      /  F ield         | OpenFOAM: The Open Source CFD Toolbox           |
|  \\    /   O peration     | Version:  v2106                                 |
|   \\  /    A nd           | Website:  www.openfoam.com                      |
|    \\/     M anipulation  |                                                 |
\*---------------------------------------------------------------------------*/
FoamFile
{
    version     2.0;
    format      ascii;
    arch        "LSB;label=32;scalar=64";
    class       volScalarField;
    location    "17.5";
    object      laplacianT;
}
// * * * * * * * * * * * * * * * * * * * * * * * * * * * * * * * * * * * * * //

dimensions      [0 -2 0 1 0 0 0];

internalField   nonuniform List<scalar> 
4000
(
57424.297
57422.817
57423.935
57423.432
57423.47
57423.554
57423.632
57423.72
57423.82
57423.865
57422.817
57423.858
57423.744
57423.359
57423.422
57423.506
57423.583
57423.683
57423.805
57423.795
57423.935
57423.744
57423.951
57423.624
57423.69
57423.767
57423.838
57423.947
57424.111
57423.998
57423.432
57423.359
57423.624
57423.304
57423.367
57423.435
57423.492
57423.59
57423.774
57423.753
57423.47
57423.422
57423.69
57423.367
57423.423
57423.483
57423.529
57423.612
57423.778
57423.746
57423.554
57423.506
57423.767
57423.435
57423.483
57423.535
57423.574
57423.649
57423.806
57423.767
57423.632
57423.583
57423.838
57423.492
57423.529
57423.574
57423.608
57423.68
57423.837
57423.798
57423.72
57423.683
57423.947
57423.59
57423.612
57423.649
57423.68
57423.754
57423.916
57423.882
57423.82
57423.805
57424.111
57423.774
57423.778
57423.806
57423.837
57423.916
57424.085
57424.055
57423.865
57423.795
57423.998
57423.753
57423.746
57423.767
57423.798
57423.882
57424.055
57424.009
-1376.1353
-1380.1862
-1374.9859
-1376.6212
-1376.8581
-1376.8568
-1376.8409
-1376.8149
-1376.7793
-1376.7799
-1380.1862
-1377.3899
-1375.8665
-1377.2723
-1377.433
-1377.4112
-1377.372
-1377.3425
-1377.5383
-1377.5516
-1374.9859
-1375.8665
-1373.7183
-1375.0026
-1375.1499
-1375.1227
-1375.0535
-1374.937
-1375.1638
-1376.1009
-1376.6212
-1377.2723
-1375.0026
-1376.2688
-1376.4155
-1376.3895
-1376.3119
-1376.1325
-1376.1502
-1376.6569
-1376.8581
-1377.433
-1375.1499
-1376.4155
-1376.5635
-1376.5396
-1376.4662
-1376.2905
-1376.3021
-1376.7582
-1376.8568
-1377.4112
-1375.1227
-1376.3895
-1376.5396
-1376.5168
-1376.4453
-1376.2738
-1376.2919
-1376.7504
-1376.8409
-1377.372
-1375.0535
-1376.3119
-1376.4662
-1376.4453
-1376.3739
-1376.2025
-1376.2216
-1376.6848
-1376.8149
-1377.3425
-1374.937
-1376.1325
-1376.2905
-1376.2738
-1376.2025
-1376.0301
-1376.0489
-1376.5265
-1376.7793
-1377.5383
-1375.1638
-1376.1502
-1376.3021
-1376.2919
-1376.2216
-1376.0489
-1376.0723
-1376.605
-1376.7799
-1377.5516
-1376.1009
-1376.6569
-1376.7582
-1376.7504
-1376.6848
-1376.5265
-1376.605
-1377.2623
-1573.0677
-1577.6282
-1571.3364
-1573.6208
-1573.9452
-1573.9349
-1573.8937
-1573.8437
-1573.9198
-1573.2376
-1577.6282
-1573.7064
-1572.0034
-1573.9657
-1574.1871
-1574.1376
-1574.0272
-1573.9374
-1574.8441
-1574.7887
-1571.3364
-1572.0034
-1569.4859
-1571.2908
-1571.4957
-1571.4381
-1571.2669
-1570.956
-1571.7725
-1572.9506
-1573.6208
-1573.9657
-1571.2908
-1573.0724
-1573.2772
-1573.2233
-1573.0419
-1572.6291
-1573.1188
-1573.658
-1573.9452
-1574.1871
-1571.4957
-1573.2772
-1573.4842
-1573.4343
-1573.261
-1572.8544
-1573.3336
-1573.7865
-1573.9349
-1574.1376
-1571.4381
-1573.2233
-1573.4343
-1573.3865
-1573.2163
-1572.816
-1573.3047
-1573.7576
-1573.8937
-1574.0272
-1571.2669
-1573.0419
-1573.261
-1573.2163
-1573.0461
-1572.6455
-1573.1351
-1573.5992
-1573.8437
-1573.9374
-1570.956
-1572.6291
-1572.8544
-1572.816
-1572.6455
-1572.2428
-1572.7336
-1573.2581
-1573.9198
-1574.8441
-1571.7725
-1573.1188
-1573.3336
-1573.3047
-1573.1351
-1572.7336
-1573.2504
-1574.0326
-1573.2376
-1574.7887
-1572.9506
-1573.658
-1573.7865
-1573.7576
-1573.5992
-1573.2581
-1574.0326
-1574.251
-1754.871
-1760.3163
-1752.8347
-1755.6814
-1756.0849
-1756.0623
-1755.9803
-1755.8897
-1756.3402
-1755.4481
-1760.3163
-1755.7327
-1753.7051
-1756.1539
-1756.4309
-1756.3495
-1756.1343
-1755.8739
-1757.5897
-1757.542
-1752.8347
-1753.7051
-1750.6982
-1752.9581
-1753.2162
-1753.1268
-1752.8294
-1752.2363
-1753.8055
-1755.3436
-1755.6814
-1756.1539
-1752.9581
-1755.1896
-1755.4481
-1755.3653
-1755.0564
-1754.3232
-1755.4596
-1756.1884
-1756.0849
-1756.4309
-1753.2162
-1755.4481
-1755.7096
-1755.6326
-1755.3352
-1754.6093
-1755.7294
-1756.3412
-1756.0623
-1756.3495
-1753.1268
-1755.3653
-1755.6326
-1755.5583
-1755.2652
-1754.5471
-1755.6781
-1756.2861
-1755.9803
-1756.1343
-1752.8294
-1755.0564
-1755.3352
-1755.2652
-1754.9717
-1754.2519
-1755.382
-1756.0067
-1755.8897
-1755.8739
-1752.2363
-1754.3232
-1754.6093
-1754.5471
-1754.2519
-1753.5273
-1754.6607
-1755.4223
-1756.3402
-1757.5897
-1753.8055
-1755.4596
-1755.7294
-1755.6781
-1755.382
-1754.6607
-1755.8743
-1757.3831
-1755.4481
-1757.542
-1755.3436
-1756.1884
-1756.3412
-1756.2861
-1756.0067
-1755.4223
-1757.3831
-1756.6707
-1921.9781
-1928.2198
-1919.5855
-1922.9582
-1923.4358
-1923.3984
-1923.2597
-1923.0641
-1923.7842
-1922.7094
-1928.2198
-1923.0032
-1920.6451
-1923.5496
-1923.8791
-1923.7658
-1923.4344
-1922.9414
-1925.3654
-1925.2861
-1919.5855
-1920.6451
-1917.1524
-1919.8382
-1920.1468
-1920.0265
-1919.5936
-1918.6623
-1920.9029
-1922.7477
-1922.9582
-1923.5496
-1919.8382
-1922.491
-1922.8004
-1922.6893
-1922.2437
-1921.1342
-1922.8425
-1923.7216
-1923.4358
-1923.8791
-1920.1468
-1922.8004
-1923.1136
-1923.01
-1922.5792
-1921.4774
-1923.1632
-1923.8974
-1923.3984
-1923.7658
-1920.0265
-1922.6893
-1923.01
-1922.9099
-1922.4843
-1921.3914
-1923.0887
-1923.8141
-1923.2597
-1923.4344
-1919.5936
-1922.2437
-1922.5792
-1922.4843
-1922.0575
-1920.9605
-1922.6519
-1923.3955
-1923.0641
-1922.9414
-1918.6623
-1921.1342
-1921.4774
-1921.3914
-1920.9605
-1919.8521
-1921.5415
-1922.5023
-1923.7842
-1925.3654
-1920.9029
-1922.8425
-1923.1632
-1923.0887
-1922.6519
-1921.5415
-1923.3611
-1925.7198
-1922.7094
-1925.2861
-1922.7477
-1923.7216
-1923.8974
-1923.8141
-1923.3955
-1922.5023
-1925.7198
-1924.046
-2073.7949
-2080.7595
-2071.0613
-2074.9312
-2075.4789
-2075.4274
-2075.2312
-2074.9178
-2075.8642
-2074.6131
-2080.7595
-2074.9596
-2072.3041
-2075.639
-2076.0183
-2075.875
-2075.429
-2074.6918
-2077.763
-2077.6444
-2071.0613
-2072.3041
-2068.3667
-2071.4548
-2071.8113
-2071.6621
-2071.0962
-2069.8184
-2072.6726
-2074.7922
-2074.9312
-2075.639
-2071.4548
-2074.5056
-2074.8634
-2074.726
-2074.1462
-2072.6532
-2074.8806
-2075.8876
-2075.4789
-2076.0183
-2071.8113
-2074.8634
-2075.2257
-2075.0974
-2074.5355
-2073.0505
-2075.2495
-2076.0854
-2075.4274
-2075.875
-2071.6621
-2074.726
-2075.0974
-2074.9734
-2074.4177
-2072.9423
-2075.153
-2075.9744
-2075.2312
-2075.429
-2071.0962
-2074.1462
-2074.5355
-2074.4177
-2073.86
-2072.3775
-2074.5762
-2075.4139
-2074.9178
-2074.6918
-2069.8184
-2072.6532
-2073.0505
-2072.9423
-2072.3775
-2070.8756
-2073.0618
-2074.1921
-2075.8642
-2077.763
-2072.6726
-2074.8806
-2075.2495
-2075.153
-2074.5762
-2073.0618
-2075.4184
-2078.6299
-2074.6131
-2077.6444
-2074.7922
-2075.8876
-2076.0854
-2075.9744
-2075.4139
-2074.1921
-2078.6299
-2076.0329
-2210.04
-2217.6723
-2207.0096
-2211.347
-2211.9604
-2211.8954
-2211.6433
-2211.2109
-2212.3587
-2210.9372
-2217.6723
-2211.3575
-2208.4432
-2212.1821
-2212.6079
-2212.4362
-2211.8789
-2210.8976
-2214.562
-2214.3979
-2207.0096
-2208.4432
-2204.1085
-2207.5743
-2207.9758
-2207.7992
-2207.1049
-2205.485
-2208.8986
-2211.2604
-2211.347
-2212.1821
-2207.5743
-2210.9986
-2211.4019
-2211.2397
-2210.5305
-2208.6603
-2211.3581
-2212.4692
-2211.9604
-2212.6079
-2207.9758
-2211.4019
-2211.8104
-2211.6589
-2210.9706
-2209.1085
-2211.7725
-2212.6878
-2211.8954
-2212.4362
-2207.7992
-2211.2397
-2211.6589
-2211.5125
-2210.8314
-2208.9797
-2211.6553
-2212.5505
-2211.6433
-2211.8789
-2207.1049
-2210.5305
-2210.9706
-2210.8314
-2210.1474
-2208.2855
-2210.9425
-2211.8504
-2211.2109
-2210.8976
-2205.485
-2208.6603
-2209.1085
-2208.9797
-2208.2855
-2206.3954
-2209.0273
-2210.2984
-2212.3587
-2214.562
-2208.8986
-2211.3581
-2211.7725
-2211.6553
-2210.9425
-2209.0273
-2211.8639
-2215.8914
-2210.9372
-2214.3979
-2211.2604
-2212.4692
-2212.6878
-2212.5505
-2211.8504
-2210.2984
-2215.8914
-2212.4174
-2330.6149
-2338.8615
-2327.3365
-2332.1089
-2332.7831
-2332.705
-2332.3987
-2331.8484
-2333.1756
-2331.5882
-2338.8615
-2332.1035
-2328.9686
-2333.0828
-2333.5515
-2333.3525
-2332.688
-2331.4661
-2335.6699
-2335.4518
-2327.3365
-2328.9686
-2324.2846
-2328.1012
-2328.5443
-2328.3418
-2327.5244
-2325.5713
-2329.4898
-2332.0582
-2332.1089
-2333.0828
-2328.1012
-2331.8726
-2332.318
-2332.1324
-2331.2992
-2329.0629
-2332.1827
-2333.3718
-2332.7831
-2333.5515
-2328.5443
-2332.318
-2332.7692
-2332.5959
-2331.7866
-2329.5586
-2332.6394
-2333.6097
-2332.705
-2333.3525
-2328.3418
-2332.1324
-2332.5959
-2332.4284
-2331.6272
-2329.4103
-2332.5028
-2333.4473
-2332.3987
-2332.688
-2327.5244
-2331.2992
-2331.7866
-2331.6272
-2330.8224
-2328.5923
-2331.6594
-2332.612
-2331.8484
-2331.4661
-2325.5713
-2329.0629
-2329.5586
-2329.4103
-2328.5923
-2326.325
-2329.3535
-2330.7356
-2333.1756
-2335.6699
-2329.4898
-2332.1827
-2332.6394
-2332.5028
-2331.6594
-2329.3535
-2332.6165
-2337.4083
-2331.5882
-2335.4518
-2332.0582
-2333.3718
-2333.6097
-2333.4473
-2332.612
-2330.7356
-2337.4083
-2333.1046
-2435.5327
-2444.3388
-2432.055
-2437.2269
-2437.9567
-2437.866
-2437.5075
-2436.8413
-2438.3266
-2436.5784
-2444.3388
-2437.2096
-2433.8908
-2438.3493
-2438.8571
-2438.6321
-2437.8648
-2436.4085
-2441.0974
-2440.8161
-2432.055
-2433.8908
-2428.9048
-2433.0435
-2433.5245
-2433.2975
-2432.3629
-2430.0887
-2434.4578
-2437.1963
-2437.2269
-2438.3493
-2433.0435
-2437.1334
-2437.6172
-2437.4096
-2436.4588
-2433.8708
-2437.3645
-2438.6053
-2437.9567
-2438.8571
-2433.5245
-2437.6172
-2438.1075
-2437.9137
-2436.9895
-2434.4101
-2437.8603
-2438.8609
-2437.866
-2438.6321
-2433.2975
-2437.4096
-2437.9137
-2437.7264
-2436.8112
-2434.2436
-2437.7053
-2438.6746
-2437.5075
-2437.8648
-2432.3629
-2436.4588
-2436.9895
-2436.8112
-2435.8916
-2433.3078
-2436.7375
-2437.7099
-2436.8413
-2436.4085
-2430.0887
-2433.8708
-2434.4101
-2434.2436
-2433.3078
-2430.678
-2434.0551
-2435.5188
-2438.3266
-2441.0974
-2434.4578
-2437.3645
-2437.8603
-2437.7053
-2436.7375
-2434.0551
-2437.6931
-2443.1907
-2436.5784
-2440.8161
-2437.1963
-2438.6053
-2438.8609
-2438.6746
-2437.7099
-2435.5188
-2443.1907
-2438.1066
-2524.8989
-2534.208
-2521.2691
-2526.803
-2527.5828
-2527.4799
-2527.0714
-2526.2929
-2527.9153
-2526.0123
-2534.208
-2526.7789
-2523.3111
-2528.081
-2528.624
-2528.3745
-2527.5097
-2525.8271
-2530.9465
-2530.5936
-2521.2691
-2523.3111
-2518.0695
-2522.4996
-2523.0149
-2522.7649
-2521.72
-2519.1394
-2523.9051
-2526.7775
-2526.803
-2528.081
-2522.4996
-2526.8777
-2527.3962
-2527.1681
-2526.1067
-2523.1844
-2527.0049
-2528.2721
-2527.5828
-2528.624
-2523.0149
-2527.3962
-2527.9218
-2527.7089
-2526.6768
-2523.7634
-2527.5362
-2528.5436
-2527.4799
-2528.3745
-2522.7649
-2527.1681
-2527.7089
-2527.5031
-2526.4808
-2523.5798
-2527.3641
-2528.3349
-2527.0714
-2527.5097
-2521.72
-2526.1067
-2526.6768
-2526.4808
-2525.4533
-2522.5332
-2526.2789
-2527.2473
-2526.2929
-2525.8271
-2519.1394
-2523.1844
-2523.7634
-2523.5798
-2522.5332
-2519.5585
-2523.2375
-2524.7543
-2527.9153
-2530.9465
-2523.9051
-2527.0049
-2527.5362
-2527.3641
-2526.2789
-2523.2375
-2527.2
-2533.3416
-2526.0123
-2530.5936
-2526.7775
-2528.2721
-2528.5436
-2528.3349
-2527.2473
-2524.7543
-2533.3416
-2527.5287
-2598.8987
-2608.6531
-2595.1624
-2601.0187
-2601.8427
-2601.7282
-2601.2726
-2600.386
-2602.1252
-2600.0745
-2608.6531
-2600.9938
-2597.4101
-2602.4569
-2603.0308
-2602.7585
-2601.8023
-2599.9036
-2605.3993
-2604.9671
-2595.1624
-2597.4101
-2591.9581
-2596.6474
-2597.193
-2596.922
-2595.7742
-2592.9045
-2598.0136
-2600.9846
-2601.0187
-2602.4569
-2596.6474
-2601.2821
-2601.8314
-2601.5845
-2600.4201
-2597.1835
-2601.2847
-2602.5544
-2601.8427
-2603.0308
-2597.193
-2601.8314
-2602.3882
-2602.1578
-2601.0253
-2597.7979
-2601.8476
-2602.84
-2601.7282
-2602.7585
-2596.922
-2601.5845
-2602.1578
-2601.9351
-2600.8132
-2597.5987
-2601.6597
-2602.6104
-2601.2726
-2601.8023
-2595.7742
-2600.4201
-2601.0253
-2600.8132
-2599.6853
-2596.449
-2600.4651
-2601.4077
-2600.386
-2599.9036
-2592.9045
-2597.1835
-2597.7979
-2597.5987
-2596.449
-2593.1496
-2597.085
-2598.6282
-2602.1252
-2605.3993
-2598.0136
-2601.2847
-2601.8476
-2601.6597
-2600.4651
-2597.085
-2601.3232
-2608.0446
-2600.0745
-2604.9671
-2600.9846
-2602.5544
-2602.84
-2602.6104
-2601.4077
-2598.6282
-2608.0446
-2601.5569
-2657.7862
-2667.9266
-2653.9866
-2660.124
-2660.9863
-2660.8609
-2660.3612
-2659.372
-2661.2082
-2659.0181
-2667.9266
-2660.1048
-2656.4364
-2661.7244
-2662.325
-2662.0318
-2660.9907
-2658.8882
-2664.7063
-2664.1885
-2653.9866
-2656.4364
-2650.8179
-2655.7332
-2656.3051
-2656.0149
-2654.7726
-2651.6331
-2657.0334
-2660.0691
-2660.124
-2661.7244
-2655.7332
-2660.5914
-2661.1674
-2660.9035
-2659.6448
-2656.1161
-2660.4531
-2661.7035
-2660.9863
-2662.325
-2656.3051
-2661.1674
-2661.7514
-2661.5052
-2660.2807
-2656.7616
-2661.0439
-2662.0012
-2660.8609
-2662.0318
-2656.0149
-2660.9035
-2661.5052
-2661.2672
-2660.0539
-2656.5482
-2660.8416
-2661.7524
-2660.3612
-2660.9907
-2654.7726
-2659.6448
-2660.2807
-2660.0539
-2658.8339
-2655.3037
-2659.5461
-2660.443
-2659.372
-2658.8882
-2651.6331
-2656.1161
-2656.7616
-2656.5482
-2655.3037
-2651.7023
-2655.8502
-2657.3948
-2661.2082
-2664.7063
-2657.0334
-2660.4531
-2661.0439
-2660.8416
-2659.5461
-2655.8502
-2660.3169
-2667.5525
-2659.0181
-2664.1885
-2660.0691
-2661.7035
-2662.0012
-2661.7524
-2660.443
-2657.3948
-2667.5525
-2660.4461
-2701.8738
-2712.3397
-2698.0514
-2704.4275
-2705.322
-2705.1865
-2704.6462
-2703.5605
-2705.4747
-2703.1549
-2712.3397
-2704.4206
-2700.6967
-2706.1891
-2706.8121
-2706.5
-2705.3815
-2703.0887
-2709.1765
-2708.5681
-2698.0514
-2700.6967
-2694.9541
-2700.0611
-2700.6551
-2700.3479
-2699.0199
-2695.6322
-2701.2729
-2704.3413
-2704.4275
-2706.1891
-2700.0611
-2705.109
-2705.7076
-2705.4286
-2704.0846
-2700.2882
-2704.8179
-2706.0291
-2705.322
-2706.8121
-2700.6551
-2705.7076
-2706.3146
-2706.0543
-2704.7466
-2700.9602
-2705.4324
-2706.3369
-2705.1865
-2706.5
-2700.3479
-2705.4286
-2706.0543
-2705.8028
-2704.5069
-2700.7342
-2705.2173
-2706.0708
-2704.6462
-2705.3815
-2699.0199
-2704.0846
-2704.7466
-2704.5069
-2703.2037
-2699.404
-2703.8302
-2704.6639
-2703.5605
-2703.0887
-2695.6322
-2700.2882
-2700.9602
-2700.7342
-2699.404
-2695.5253
-2699.8436
-2701.3668
-2705.4747
-2709.1765
-2701.2729
-2704.8179
-2705.4324
-2705.2173
-2703.8302
-2699.8436
-2704.4934
-2712.177
-2703.1549
-2708.5681
-2704.3413
-2706.0291
-2706.3369
-2706.0708
-2704.6639
-2701.3668
-2712.177
-2704.5099
-2731.523
-2742.253
-2727.7154
-2734.2868
-2735.2074
-2735.0627
-2734.4855
-2733.3105
-2735.2846
-2732.8459
-2742.253
-2734.2989
-2730.5468
-2736.206
-2736.8471
-2736.5182
-2735.33
-2732.8625
-2739.1684
-2738.466
-2727.7154
-2730.5468
-2724.7207
-2729.9845
-2730.5966
-2730.2746
-2728.8702
-2725.2575
-2731.0895
-2734.1604
-2734.2868
-2736.206
-2729.9845
-2735.1876
-2735.8046
-2735.5126
-2734.0928
-2730.0549
-2734.7359
-2735.8904
-2735.2074
-2736.8471
-2730.5966
-2735.8046
-2736.4304
-2736.1581
-2734.7764
-2730.7488
-2735.3701
-2736.2064
-2735.0627
-2736.5182
-2730.2746
-2735.5126
-2736.1581
-2735.8948
-2734.5255
-2730.5119
-2735.1437
-2735.9249
-2734.4855
-2735.33
-2728.8702
-2734.0928
-2734.7764
-2734.5255
-2733.1483
-2729.1053
-2733.6748
-2734.4302
-2733.3105
-2732.8625
-2725.2575
-2730.0549
-2730.7488
-2730.5119
-2729.1053
-2724.9761
-2729.4248
-2730.9061
-2735.2846
-2739.1684
-2731.0895
-2734.7359
-2735.3701
-2735.1437
-2733.6748
-2729.4248
-2734.2145
-2742.2796
-2732.8459
-2738.466
-2734.1604
-2735.8904
-2736.2064
-2735.9249
-2734.4302
-2730.9061
-2742.2796
-2734.1113
-2747.1372
-2758.0689
-2743.3786
-2750.1014
-2751.0418
-2750.889
-2750.2788
-2749.0222
-2751.0389
-2748.4935
-2758.0689
-2750.1384
-2746.3835
-2752.1717
-2752.8265
-2752.4832
-2751.2335
-2748.6078
-2755.0818
-2754.2837
-2743.3786
-2746.3835
-2740.5131
-2745.8984
-2746.5244
-2746.1897
-2744.7189
-2740.9058
-2746.8819
-2749.9275
-2750.1014
-2752.1717
-2745.8984
-2751.2217
-2751.853
-2751.55
-2750.0644
-2745.8126
-2750.6055
-2751.6884
-2751.0418
-2752.8265
-2746.5244
-2751.853
-2752.4934
-2752.2108
-2750.765
-2746.5238
-2751.2552
-2752.0105
-2750.889
-2752.4832
-2746.1897
-2751.55
-2752.2108
-2751.9377
-2750.5047
-2746.2777
-2751.0193
-2751.7156
-2750.2788
-2751.2335
-2744.7189
-2750.0644
-2750.765
-2750.5047
-2749.0632
-2744.8047
-2749.4788
-2750.1434
-2749.0222
-2748.6078
-2740.9058
-2745.8126
-2746.5238
-2746.2777
-2744.8047
-2740.4533
-2744.9944
-2746.4158
-2751.0389
-2755.0818
-2746.8819
-2750.6055
-2751.2552
-2751.0193
-2749.4788
-2744.9944
-2749.883
-2758.2638
-2748.4935
-2754.2837
-2749.9275
-2751.6884
-2752.0105
-2751.7156
-2750.1434
-2746.4158
-2758.2638
-2749.6551
-2749.1538
-2760.2242
-2745.4753
-2752.3051
-2753.2592
-2753.0992
-2752.4603
-2751.1307
-2753.1738
-2750.5348
-2760.2242
-2752.3728
-2748.6385
-2754.5174
-2755.1816
-2754.8263
-2753.5238
-2750.7577
-2757.3514
-2756.4577
-2745.4753
-2748.6385
-2742.761
-2748.2322
-2748.8681
-2748.5231
-2746.9959
-2743.0086
-2749.0835
-2752.0784
-2752.3051
-2754.5174
-2748.2322
-2753.6407
-2754.2822
-2753.9702
-2752.4291
-2747.9925
-2752.8601
-2753.8587
-2753.2592
-2755.1816
-2748.8681
-2754.2822
-2754.9329
-2754.6421
-2753.1421
-2748.7163
-2753.521
-2754.1848
-2753.0992
-2754.8263
-2748.5231
-2753.9702
-2754.6421
-2754.3611
-2752.8743
-2748.4628
-2753.2772
-2753.8787
-2752.4603
-2753.5238
-2746.9959
-2752.4291
-2753.1421
-2752.8743
-2751.3785
-2746.9335
-2751.6758
-2752.2398
-2751.1307
-2750.7577
-2743.0086
-2747.9925
-2748.7163
-2748.4628
-2746.9335
-2742.3896
-2746.9874
-2748.3335
-2753.1738
-2757.3514
-2749.0835
-2752.8601
-2753.521
-2753.2772
-2751.6758
-2746.9874
-2751.9363
-2760.568
-2750.5348
-2756.4577
-2752.0784
-2753.8587
-2754.1848
-2753.8787
-2752.2398
-2748.3335
-2760.568
-2751.5805
-2738.0393
-2749.1851
-2734.4685
-2741.3612
-2742.3227
-2742.1568
-2741.4935
-2740.0998
-2742.154
-2739.4358
-2749.1851
-2741.4643
-2737.7722
-2743.7039
-2744.3733
-2744.0083
-2742.6619
-2739.7742
-2746.4412
-2745.4535
-2734.4685
-2737.7722
-2731.9231
-2737.4449
-2738.0865
-2737.7336
-2736.1605
-2732.0259
-2738.1566
-2741.0778
-2741.3612
-2743.7039
-2737.4449
-2742.9036
-2743.551
-2743.2324
-2741.6463
-2737.0548
-2741.9618
-2742.8662
-2742.3227
-2744.3733
-2738.0865
-2743.551
-2744.2079
-2743.9109
-2742.367
-2737.7866
-2742.6297
-2743.1943
-2742.1568
-2744.0083
-2737.7336
-2743.2324
-2743.9109
-2743.624
-2742.0935
-2737.5274
-2742.3798
-2742.879
-2741.4935
-2742.6619
-2736.1605
-2741.6463
-2742.367
-2742.0935
-2740.5536
-2735.9523
-2740.7284
-2741.1845
-2740.0998
-2739.7742
-2732.0259
-2737.0548
-2737.7866
-2737.5274
-2735.9523
-2731.2466
-2735.8677
-2737.1257
-2742.154
-2746.4412
-2738.1566
-2741.9618
-2742.6297
-2742.3798
-2740.7284
-2735.8677
-2740.8407
-2749.6598
-2739.4358
-2745.4535
-2741.0778
-2742.8662
-2743.1943
-2742.879
-2741.1845
-2737.1257
-2749.6598
-2740.3561
-2714.2845
-2725.442
-2710.8455
-2717.7569
-2718.7198
-2718.5491
-2717.8661
-2716.4178
-2718.4688
-2715.6866
-2725.442
-2717.8995
-2714.2694
-2720.2162
-2720.8865
-2720.5144
-2719.1331
-2716.1435
-2722.8392
-2721.7613
-2710.8455
-2714.2694
-2708.4825
-2714.0197
-2714.663
-2714.3046
-2712.6962
-2708.442
-2714.5878
-2717.415
-2717.7569
-2720.2162
-2714.0197
-2719.4938
-2720.1431
-2719.8199
-2718.1995
-2713.484
-2718.3974
-2719.2001
-2718.7198
-2720.8865
-2714.663
-2720.1431
-2720.802
-2720.5009
-2718.9235
-2714.2191
-2719.0681
-2719.5281
-2718.5491
-2720.5144
-2714.3046
-2719.8199
-2720.5009
-2720.2099
-2718.6461
-2713.956
-2718.8137
-2719.2058
-2717.8661
-2719.1331
-2712.6962
-2718.1995
-2718.9235
-2718.6461
-2717.0725
-2712.3458
-2717.1235
-2717.4671
-2716.4178
-2716.1435
-2708.442
-2713.484
-2714.2191
-2713.956
-2712.3458
-2707.5098
-2712.123
-2713.2828
-2718.4688
-2722.8392
-2714.5878
-2718.3974
-2719.0681
-2718.8137
-2717.1235
-2712.123
-2717.0865
-2726.0314
-2715.6866
-2721.7613
-2717.415
-2719.2001
-2719.5281
-2719.2058
-2717.4671
-2713.2828
-2726.0314
-2716.4741
-2678.3999
-2689.5057
-2675.1135
-2682.0003
-2682.9586
-2682.7843
-2682.0861
-2680.593
-2682.6277
-2679.7978
-2689.5057
-2682.1854
-2678.6355
-2684.5601
-2685.2272
-2684.8505
-2683.4436
-2680.3724
-2687.0543
-2685.8913
-2675.1135
-2678.6355
-2672.9425
-2678.4605
-2679.1015
-2678.74
-2677.1069
-2672.7617
-2678.8839
-2681.5994
-2682.0003
-2684.5601
-2678.4605
-2683.9158
-2684.563
-2684.2374
-2682.5933
-2677.7852
-2682.6742
-2683.37
-2682.9586
-2685.2272
-2679.1015
-2684.563
-2685.2199
-2684.9166
-2683.3161
-2678.5191
-2683.3435
-2683.696
-2682.7843
-2684.8505
-2678.74
-2684.2374
-2684.9166
-2684.6236
-2683.0368
-2678.2539
-2683.0864
-2683.3688
-2682.0861
-2683.4436
-2677.1069
-2682.5933
-2683.3161
-2683.0368
-2681.4398
-2676.6191
-2681.3686
-2681.5974
-2680.593
-2680.3724
-2672.7617
-2677.7852
-2678.5191
-2678.2539
-2676.6191
-2671.6851
-2676.2614
-2677.3154
-2682.6277
-2687.0543
-2678.8839
-2682.6742
-2683.3435
-2683.0864
-2681.3686
-2676.2614
-2681.1842
-2690.1952
-2679.7978
-2685.8913
-2681.5994
-2683.37
-2683.696
-2683.3688
-2681.5974
-2677.3154
-2690.1952
-2680.4474
-2630.9133
-2641.9043
-2627.7971
-2634.6166
-2635.5645
-2635.3878
-2634.679
-2633.1512
-2635.1575
-2632.2966
-2641.9043
-2634.8462
-2631.3931
-2637.2589
-2637.919
-2637.5401
-2636.117
-2632.9847
-2639.6127
-2638.3714
-2627.7971
-2631.3931
-2625.8239
-2631.2887
-2631.9236
-2631.5615
-2629.9144
-2625.5069
-2631.5692
-2634.1577
-2634.6166
-2637.2589
-2631.2887
-2636.6916
-2637.3329
-2637.0071
-2635.3501
-2630.4808
-2635.3167
-2635.9029
-2635.5645
-2637.919
-2631.9236
-2637.3329
-2637.9838
-2637.6804
-2636.0672
-2631.2091
-2635.9805
-2636.2249
-2635.3878
-2637.5401
-2631.5615
-2637.0071
-2637.6804
-2637.3873
-2635.7878
-2630.9435
-2635.7225
-2635.8951
-2634.679
-2636.117
-2629.9144
-2635.3501
-2636.0672
-2635.7878
-2634.178
-2629.2949
-2633.9883
-2634.1026
-2633.1512
-2632.9847
-2625.5069
-2630.4808
-2631.2091
-2630.9435
-2629.2949
-2624.2952
-2628.8082
-2629.7511
-2635.1575
-2639.6127
-2631.5692
-2635.3167
-2635.9805
-2635.7225
-2633.9883
-2628.8082
-2633.6613
-2642.6812
-2632.2966
-2638.3714
-2634.1577
-2635.9029
-2636.2249
-2635.8951
-2634.1026
-2629.7511
-2642.6812
-2632.8055
-2572.3673
-2583.1812
-2569.4354
-2576.146
-2577.0779
-2576.9
-2576.1854
-2574.6332
-2576.5998
-2573.7256
-2583.1812
-2576.4212
-2573.0798
-2578.8514
-2579.5004
-2579.122
-2577.6919
-2574.5195
-2581.0555
-2579.7444
-2569.4354
-2573.0798
-2567.6627
-2573.0412
-2573.6662
-2573.3058
-2571.6553
-2567.2144
-2573.1828
-2575.6317
-2576.146
-2578.8514
-2573.0412
-2578.3589
-2578.9904
-2578.6665
-2577.0072
-2572.1086
-2576.8649
-2577.3409
-2577.0779
-2579.5004
-2573.6662
-2578.9904
-2579.6315
-2579.33
-2577.7145
-2572.8268
-2577.5191
-2577.6569
-2576.9
-2579.122
-2573.3058
-2578.6665
-2579.33
-2579.0387
-2577.4368
-2572.5626
-2577.2619
-2577.3265
-2576.1854
-2577.6919
-2571.6553
-2577.0072
-2577.7145
-2577.4368
-2575.8245
-2570.9107
-2575.5224
-2575.5245
-2574.6332
-2574.5195
-2567.2144
-2572.1086
-2572.8268
-2572.5626
-2570.9107
-2565.878
-2570.3031
-2571.1321
-2576.5998
-2581.0555
-2573.1828
-2576.8649
-2577.5191
-2577.2619
-2575.5224
-2570.3031
-2575.0601
-2584.0342
-2573.7256
-2579.7444
-2575.6317
-2577.3409
-2577.6569
-2577.3265
-2575.5245
-2571.1321
-2584.0342
-2574.093
-2503.3168
-2513.8924
-2500.5808
-2507.142
-2508.0523
-2507.8746
-2507.1588
-2505.5926
-2507.5093
-2504.6398
-2513.8924
-2507.4628
-2504.2467
-2509.8895
-2510.5239
-2510.1484
-2508.7205
-2505.5292
-2511.9373
-2510.566
-2500.5808
-2504.2467
-2499.0079
-2504.268
-2504.8796
-2504.5232
-2502.8799
-2498.4344
-2504.2773
-2506.576
-2507.142
-2509.8895
-2504.268
-2509.4688
-2510.087
-2509.7671
-2508.116
-2503.2195
-2507.8716
-2508.239
-2508.0523
-2510.5239
-2504.8796
-2510.087
-2510.7145
-2510.4168
-2508.8092
-2503.9233
-2508.5125
-2508.5471
-2507.8746
-2510.1484
-2504.5232
-2509.7671
-2510.4168
-2510.1292
-2508.5351
-2503.6623
-2508.2576
-2508.2184
-2507.1588
-2508.7205
-2502.8799
-2508.116
-2508.8092
-2508.5351
-2506.9304
-2502.0177
-2506.5239
-2506.4184
-2505.5926
-2505.5292
-2498.4344
-2503.2195
-2503.9233
-2503.6623
-2502.0177
-2496.9842
-2501.2992
-2502.0137
-2507.5093
-2511.9373
-2504.2773
-2507.8716
-2508.5125
-2508.2576
-2506.5239
-2501.2992
-2505.9359
-2514.8121
-2504.6398
-2510.566
-2506.576
-2508.239
-2508.5471
-2508.2184
-2506.4184
-2502.0137
-2514.8121
-2504.8669
-2424.329
-2434.6062
-2421.7972
-2428.1701
-2429.0536
-2428.8773
-2428.1649
-2426.5952
-2428.4526
-2425.6061
-2434.6062
-2428.5356
-2425.4569
-2430.9377
-2431.5539
-2431.1837
-2429.7672
-2426.5779
-2432.8245
-2431.404
-2421.7972
-2425.4569
-2420.4209
-2425.5316
-2426.1264
-2425.7762
-2424.1503
-2419.7288
-2425.4167
-2427.5574
-2428.1701
-2430.9377
-2425.5316
-2430.585
-2431.1862
-2430.8723
-2429.2398
-2424.3765
-2428.9021
-2429.1641
-2429.0536
-2431.5539
-2426.1264
-2431.1862
-2431.7967
-2431.5046
-2429.915
-2425.062
-2429.5258
-2429.4625
-2428.8773
-2431.1837
-2425.7762
-2430.8723
-2431.5046
-2431.2225
-2429.6461
-2424.8058
-2429.2749
-2429.1375
-2428.1649
-2429.7672
-2424.1503
-2429.2398
-2429.915
-2429.6461
-2428.0592
-2423.1787
-2427.5579
-2427.3509
-2426.5952
-2426.5779
-2419.7288
-2424.3765
-2425.062
-2424.8058
-2423.1787
-2418.1765
-2422.361
-2422.9623
-2428.4526
-2432.8245
-2425.4167
-2428.9021
-2429.5258
-2429.2749
-2427.5579
-2422.361
-2426.8556
-2435.5847
-2425.6061
-2431.404
-2427.5574
-2429.1641
-2429.4625
-2429.1375
-2427.3509
-2422.9623
-2435.5847
-2425.6959
-2335.9812
-2345.9019
-2333.6596
-2339.8069
-2340.6586
-2340.4848
-2339.7805
-2338.2175
-2340.0073
-2337.2024
-2345.9019
-2340.2152
-2337.2847
-2342.5718
-2343.1663
-2342.8039
-2341.4076
-2338.2412
-2344.2951
-2342.8372
-2333.6596
-2337.2847
-2332.4742
-2337.406
-2337.9806
-2337.6388
-2336.0405
-2331.671
-2337.1768
-2339.1533
-2339.8069
-2342.5718
-2337.406
-2342.2825
-2342.8636
-2342.5576
-2340.9537
-2336.1543
-2340.5327
-2340.6944
-2340.6586
-2343.1663
-2337.9806
-2342.8636
-2343.4535
-2343.1689
-2341.607
-2336.8175
-2341.1355
-2340.9813
-2340.4848
-2342.8039
-2337.6388
-2342.5576
-2343.1689
-2342.8941
-2341.3451
-2336.5676
-2340.8903
-2340.662
-2339.7805
-2341.4076
-2336.0405
-2340.9537
-2341.607
-2341.3451
-2339.7856
-2334.968
-2339.2006
-2338.9
-2338.2175
-2338.2412
-2331.671
-2336.1543
-2336.8175
-2336.5676
-2334.968
-2330.0287
-2334.0645
-2334.5557
-2340.0073
-2344.2951
-2337.1768
-2340.5327
-2341.1355
-2340.8903
-2339.2006
-2334.0645
-2338.397
-2346.9325
-2337.2024
-2342.8372
-2339.1533
-2340.6944
-2340.9813
-2340.662
-2338.9
-2334.5557
-2346.9325
-2337.1596
-2238.8618
-2248.3696
-2236.7537
-2242.6398
-2243.455
-2243.2849
-2242.593
-2241.0471
-2242.7618
-2240.017
-2248.3696
-2243.0881
-2240.3156
-2245.3786
-2245.9482
-2245.5959
-2244.2286
-2241.1055
-2246.9375
-2245.4552
-2236.7537
-2240.3156
-2235.7513
-2240.4759
-2241.0272
-2240.6961
-2239.1351
-2234.8451
-2240.1437
-2241.9521
-2242.6398
-2245.3786
-2240.4759
-2245.1478
-2245.7055
-2245.4094
-2243.8438
-2239.1381
-2243.3507
-2243.4186
-2243.455
-2245.9482
-2241.0272
-2245.7055
-2246.2717
-2245.9963
-2244.4716
-2239.7752
-2243.9293
-2243.6924
-2243.2849
-2245.5959
-2240.6961
-2245.4094
-2245.9963
-2245.7305
-2244.2183
-2239.5333
-2243.6911
-2243.3808
-2242.593
-2244.2286
-2239.1351
-2243.8438
-2244.4716
-2244.2183
-2242.6956
-2237.9709
-2242.0391
-2241.6542
-2241.0471
-2241.1055
-2234.8451
-2239.1381
-2239.7752
-2239.5333
-2237.9709
-2233.1252
-2236.9958
-2237.3818
-2242.7618
-2246.9375
-2240.1437
-2243.3507
-2243.9293
-2243.6911
-2242.0391
-2236.9958
-2241.1486
-2249.4471
-2240.017
-2245.4552
-2241.9521
-2243.4186
-2243.6924
-2243.3808
-2241.6542
-2237.3818
-2249.4471
-2239.8478
-2133.5691
-2142.61
-2131.6757
-2137.2669
-2138.0411
-2137.8759
-2137.2009
-2135.6821
-2137.3149
-2134.6485
-2142.61
-2137.7518
-2135.1455
-2139.9559
-2140.4977
-2140.1576
-2138.8277
-2135.7681
-2141.3514
-2139.8581
-2131.6757
-2135.1455
-2130.8466
-2135.3375
-2135.8625
-2135.544
-2134.0297
-2129.846
-2134.9145
-2136.5527
-2137.2669
-2139.9559
-2135.3375
-2139.7783
-2140.3095
-2140.0251
-2138.5072
-2133.9242
-2137.9543
-2137.9361
-2138.0411
-2140.4977
-2135.8625
-2140.3095
-2140.849
-2140.5846
-2139.1061
-2134.5317
-2138.5052
-2138.1953
-2137.8759
-2140.1576
-2135.544
-2140.0251
-2140.5846
-2140.3293
-2138.8629
-2134.2992
-2138.2756
-2137.8932
-2137.2009
-2138.8277
-2134.0297
-2138.5072
-2139.1061
-2138.8629
-2137.3863
-2132.7835
-2136.6712
-2136.2125
-2135.6821
-2135.7681
-2129.846
-2133.9242
-2134.5317
-2134.2992
-2132.7835
-2128.0613
-2131.752
-2132.039
-2137.3149
-2141.3514
-2134.9145
-2137.9543
-2138.5052
-2138.2756
-2136.6712
-2131.752
-2135.7092
-2143.7302
-2134.6485
-2139.8581
-2136.5527
-2137.9361
-2138.1953
-2137.8932
-2136.2125
-2132.039
-2143.7302
-2134.3605
-2020.712
-2029.2345
-2019.0326
-2024.2973
-2025.0262
-2024.8671
-2024.2131
-2022.7312
-2024.2763
-2021.7065
-2029.2345
-2024.8144
-2022.3818
-2026.9126
-2027.4238
-2027.0981
-2025.8137
-2022.837
-2028.1469
-2026.6568
-2019.0326
-2022.3818
-2018.3655
-2022.5975
-2023.0935
-2022.7896
-2021.3311
-2017.2794
-2022.0971
-2023.5646
-2024.2973
-2026.9126
-2022.5975
-2026.7826
-2027.2846
-2027.0135
-2025.5523
-2021.12
-2024.9523
-2024.857
-2025.0262
-2027.4238
-2023.0935
-2027.2846
-2027.7944
-2027.5425
-2026.119
-2021.6946
-2025.4726
-2025.1001
-2024.8671
-2027.0981
-2022.7896
-2027.0135
-2027.5425
-2027.2994
-2025.8874
-2021.4728
-2025.2528
-2024.8093
-2024.2131
-2025.8137
-2021.3311
-2025.5523
-2026.119
-2025.8874
-2024.4655
-2020.0127
-2023.7056
-2023.1847
-2022.7312
-2022.837
-2017.2794
-2021.12
-2021.6946
-2021.4728
-2020.0127
-2015.4428
-2018.9407