/*--------------------------------*- C++ -*----------------------------------*\
| =========                 |                                                 |
| \\      /  F ield         | OpenFOAM: The Open Source CFD Toolbox           |
|  \\    /   O peration     | Version:  v2106                                 |
|   \\  /    A nd           | Website:  www.openfoam.com                      |
|    \\/     M anipulation  |                                                 |
\*---------------------------------------------------------------------------*/
FoamFile
{
    version     2.0;
    format      ascii;
    arch        "LSB;label=32;scalar=64";
    class       volScalarField;
    location    "17.5";
    object      T;
}
// * * * * * * * * * * * * * * * * * * * * * * * * * * * * * * * * * * * * * //

dimensions      [0 0 0 1 0 0 0];

internalField   nonuniform List<scalar> 
4000
(
276.0251
276.02512
276.02507
276.02508
276.02508
276.02509
276.02509
276.02509
276.0251
276.0251
276.02512
276.02509
276.02506
276.02507
276.02507
276.02508
276.02508
276.02508
276.02509
276.0251
276.02507
276.02506
276.02503
276.02504
276.02505
276.02505
276.02505
276.02506
276.02507
276.02508
276.02508
276.02507
276.02504
276.02505
276.02505
276.02506
276.02506
276.02506
276.02507
276.02508
276.02508
276.02507
276.02505
276.02505
276.02506
276.02506
276.02506
276.02507
276.02507
276.02508
276.02509
276.02508
276.02505
276.02506
276.02506
276.02506
276.02507
276.02507
276.02507
276.02508
276.02509
276.02508
276.02505
276.02506
276.02506
276.02507
276.02507
276.02507
276.02507
276.02508
276.02509
276.02508
276.02506
276.02506
276.02507
276.02507
276.02507
276.02507
276.02508
276.02509
276.0251
276.02509
276.02507
276.02507
276.02507
276.02507
276.02507
276.02508
276.02508
276.02509
276.0251
276.0251
276.02508
276.02508
276.02508
276.02508
276.02508
276.02509
276.02509
276.0251
287.81771
287.81774
287.81756
287.81758
287.8176
287.81762
287.81764
287.81766
287.81769
287.8177
287.81774
287.81765
287.81753
287.81755
287.81758
287.8176
287.81761
287.81764
287.81767
287.8177
287.81756
287.81753
287.81743
287.81745
287.81748
287.81749
287.81751
287.81753
287.81757
287.81762
287.81758
287.81755
287.81745
287.81748
287.8175
287.81752
287.81753
287.81754
287.81758
287.81762
287.8176
287.81758
287.81748
287.8175
287.81752
287.81754
287.81754
287.81756
287.81759
287.81763
287.81762
287.8176
287.81749
287.81752
287.81754
287.81755
287.81755
287.81756
287.81759
287.81763
287.81764
287.81761
287.81751
287.81753
287.81754
287.81755
287.81756
287.81757
287.8176
287.81764
287.81766
287.81764
287.81753
287.81754
287.81756
287.81756
287.81757
287.81758
287.81761
287.81765
287.81769
287.81767
287.81757
287.81758
287.81759
287.81759
287.8176
287.81761
287.81764
287.81769
287.8177
287.8177
287.81762
287.81762
287.81763
287.81763
287.81764
287.81765
287.81769
287.81773
299.47262
299.47265
299.47241
299.47243
299.47247
299.47251
299.47254
299.47258
299.47263
299.47264
299.47265
299.47251
299.47234
299.47238
299.47242
299.47245
299.47248
299.47252
299.4726
299.47265
299.47241
299.47234
299.4722
299.47224
299.47228
299.47231
299.47233
299.47237
299.47246
299.47254
299.47243
299.47238
299.47224
299.47228
299.47232
299.47234
299.47236
299.47238
299.47246
299.47253
299.47247
299.47242
299.47228
299.47232
299.47235
299.47237
299.47238
299.4724
299.47248
299.47254
299.47251
299.47245
299.47231
299.47234
299.47237
299.47239
299.4724
299.47241
299.47248
299.47254
299.47254
299.47248
299.47233
299.47236
299.47238
299.4724
299.4724
299.47242
299.47249
299.47255
299.47258
299.47252
299.47237
299.47238
299.4724
299.47241
299.47242
299.47244
299.47251
299.47257
299.47263
299.4726
299.47246
299.47246
299.47248
299.47248
299.47249
299.47251
299.47259
299.47266
299.47264
299.47265
299.47254
299.47253
299.47254
299.47254
299.47255
299.47257
299.47266
299.47271
310.97018
310.97021
310.96992
310.96995
310.97001
310.97005
310.97009
310.97015
310.97023
310.97025
310.97021
310.97003
310.96984
310.96988
310.96994
310.96998
310.97002
310.97008
310.97021
310.97027
310.96992
310.96984
310.96966
310.96972
310.96977
310.96981
310.96983
310.96988
310.97002
310.97014
310.96995
310.96988
310.96972
310.96977
310.96982
310.96985
310.96987
310.9699
310.97003
310.97013
310.97001
310.96994
310.96977
310.96982
310.96987
310.96989
310.9699
310.96993
310.97005
310.97014
310.97005
310.96998
310.96981
310.96985
310.96989
310.96991
310.96992
310.96994
310.97005
310.97014
310.97009
310.97002
310.96983
310.96987
310.9699
310.96992
310.96992
310.96994
310.97005
310.97014
310.97015
310.97008
310.96988
310.9699
310.96993
310.96994
310.96994
310.96996
310.97008
310.97018
310.97023
310.97021
310.97002
310.97003
310.97005
310.97005
310.97005
310.97008
310.97021
310.97033
310.97025
310.97027
310.97014
310.97013
310.97014
310.97014
310.97014
310.97018
310.97033
310.97039
322.2922
322.29223
322.29189
322.29194
322.29201
322.29207
322.29211
322.29218
322.2923
322.29233
322.29223
322.29203
322.2918
322.29187
322.29194
322.29198
322.29202
322.29209
322.29227
322.29235
322.29189
322.2918
322.29161
322.29168
322.29174
322.29178
322.29181
322.29186
322.29206
322.2922
322.29194
322.29187
322.29168
322.29174
322.29181
322.29184
322.29185
322.29189
322.29206
322.29219
322.29201
322.29194
322.29174
322.29181
322.29187
322.29189
322.29189
322.29192
322.29208
322.2922
322.29207
322.29198
322.29178
322.29184
322.29189
322.29191
322.29191
322.29193
322.29208
322.2922
322.29211
322.29202
322.29181
322.29185
322.29189
322.29191
322.2919
322.29192
322.29208
322.2922
322.29218
322.29209
322.29186
322.29189
322.29192
322.29193
322.29192
322.29195
322.29211
322.29224
322.2923
322.29227
322.29206
322.29206
322.29208
322.29208
322.29208
322.29211
322.29229
322.29245
322.29233
322.29235
322.2922
322.29219
322.2922
322.2922
322.2922
322.29224
322.29245
322.29251
333.42196
333.422
333.42162
333.42168
333.42177
333.42183
333.42188
333.42196
333.4221
333.42213
333.422
333.42178
333.42153
333.4216
333.42169
333.42174
333.42178
333.42185
333.42207
333.42217
333.42162
333.42153
333.42131
333.42139
333.42147
333.42151
333.42154
333.42159
333.42183
333.422
333.42168
333.4216
333.42139
333.42148
333.42155
333.42158
333.42159
333.42162
333.42183
333.42199
333.42177
333.42169
333.42147
333.42155
333.42162
333.42164
333.42164
333.42166
333.42185
333.42199
333.42183
333.42174
333.42151
333.42158
333.42164
333.42166
333.42164
333.42166
333.42185
333.42198
333.42188
333.42178
333.42154
333.42159
333.42164
333.42164
333.42163
333.42164
333.42183
333.42198
333.42196
333.42185
333.42159
333.42162
333.42166
333.42166
333.42164
333.42166
333.42187
333.42203
333.4221
333.42207
333.42183
333.42183
333.42185
333.42185
333.42183
333.42187
333.4221
333.42229
333.42213
333.42217
333.422
333.42199
333.42199
333.42198
333.42198
333.42203
333.42229
333.42236
344.34428
344.34432
344.34391
344.34399
344.34408
344.34415
344.3442
344.34428
344.34444
344.34448
344.34432
344.34408
344.34381
344.3439
344.344
344.34405
344.34409
344.34416
344.34441
344.34453
344.34391
344.34381
344.34358
344.34368
344.34377
344.34381
344.34382
344.34388
344.34415
344.34434
344.34399
344.3439
344.34368
344.34378
344.34386
344.34389
344.34388
344.34391
344.34415
344.34433
344.34408
344.344
344.34377
344.34386
344.34393
344.34395
344.34394
344.34395
344.34417
344.34433
344.34415
344.34405
344.34381
344.34389
344.34395
344.34396
344.34394
344.34394
344.34416
344.34431
344.3442
344.34409
344.34382
344.34388
344.34394
344.34394
344.34391
344.34391
344.34413
344.3443
344.34428
344.34416
344.34388
344.34391
344.34395
344.34394
344.34391
344.34393
344.34416
344.34435
344.34444
344.34441
344.34415
344.34415
344.34417
344.34416
344.34413
344.34416
344.34444
344.34467
344.34448
344.34453
344.34434
344.34433
344.34433
344.34431
344.3443
344.34435
344.34467
344.34473
355.04551
355.04555
355.04512
355.04521
355.04532
355.04539
355.04543
355.04551
355.04569
355.04574
355.04555
355.0453
355.04502
355.04513
355.04523
355.04529
355.04531
355.04539
355.04566
355.04579
355.04512
355.04502
355.04478
355.04489
355.04499
355.04503
355.04503
355.04508
355.04538
355.0456
355.04521
355.04513
355.04489
355.045
355.04509
355.04512
355.0451
355.04512
355.04538
355.04558
355.04532
355.04523
355.04499
355.04509
355.04517
355.04519
355.04516
355.04515
355.0454
355.04557
355.04539
355.04529
355.04503
355.04512
355.04519
355.04519
355.04515
355.04514
355.04538
355.04555
355.04543
355.04531
355.04503
355.0451
355.04516
355.04515
355.04511
355.0451
355.04534
355.04552
355.04551
355.04539
355.04508
355.04512
355.04515
355.04514
355.0451
355.0451
355.04536
355.04557
355.04569
355.04566
355.04538
355.04538
355.0454
355.04538
355.04534
355.04536
355.04567
355.04593
355.04574
355.04579
355.0456
355.04558
355.04557
355.04555
355.04552
355.04557
355.04593
355.046
365.51358
365.51364
365.51318
365.51329
365.5134
365.51347
365.51351
365.51359
365.51378
365.51383
365.51364
365.51337
365.51308
365.51321
365.51332
365.51337
365.51339
365.51346
365.51375
365.51389
365.51318
365.51308
365.51283
365.51296
365.51307
365.5131
365.51309
365.51313
365.51345
365.51368
365.51329
365.51321
365.51296
365.51309
365.51318
365.51321
365.51317
365.51317
365.51346
365.51366
365.5134
365.51332
365.51307
365.51318
365.51327
365.51328
365.51323
365.51321
365.51347
365.51365
365.51347
365.51337
365.5131
365.51321
365.51328
365.51328
365.51322
365.51319
365.51344
365.51362
365.51351
365.51339
365.51309
365.51317
365.51323
365.51322
365.51315
365.51312
365.51338
365.51357
365.51359
365.51346
365.51313
365.51317
365.51321
365.51319
365.51312
365.51311
365.51339
365.51362
365.51378
365.51375
365.51345
365.51346
365.51347
365.51344
365.51338
365.51339
365.51373
365.51402
365.51383
365.51389
365.51368
365.51366
365.51365
365.51362
365.51357
365.51362
365.51402
365.51408
375.73799
375.73806
375.73759
375.7377
375.73783
375.7379
375.73793
375.738
375.73819
375.73824
375.73806
375.73779
375.73749
375.73763
375.73775
375.7378
375.73781
375.73787
375.73817
375.73831
375.73759
375.73749
375.73723
375.73738
375.73749
375.73752
375.7375
375.73752
375.73786
375.7381
375.7377
375.73763
375.73738
375.73752
375.73762
375.73764
375.73758
375.73757
375.73786
375.73808
375.73783
375.73775
375.73749
375.73762
375.73771
375.73771
375.73764
375.7376
375.73787
375.73806
375.7379
375.7378
375.73752
375.73764
375.73771
375.7377
375.73762
375.73757
375.73783
375.73802
375.73793
375.73781
375.7375
375.73758
375.73764
375.73762
375.73753
375.73748
375.73775
375.73795
375.738
375.73787
375.73752
375.73757
375.7376
375.73757
375.73748
375.73745
375.73775
375.73799
375.73819
375.73817
375.73786
375.73786
375.73787
375.73783
375.73775
375.73775
375.7381
375.73842
375.73824
375.73831
375.7381
375.73808
375.73806
375.73802
375.73795
375.73799
375.73842
375.73848
385.70978
385.70985
385.70937
385.70951
385.70964
385.7097
385.70973
385.70979
385.70998
385.71003
385.70985
385.70958
385.70928
385.70944
385.70956
385.70961
385.7096
385.70965
385.70997
385.71011
385.70937
385.70928
385.70902
385.70918
385.7093
385.70933
385.70929
385.70929
385.70964
385.70989
385.70951
385.70944
385.70918
385.70934
385.70945
385.70945
385.70938
385.70934
385.70965
385.70986
385.70964
385.70956
385.7093
385.70945
385.70954
385.70953
385.70944
385.70938
385.70965
385.70984
385.7097
385.70961
385.70933
385.70945
385.70953
385.70951
385.7094
385.70933
385.7096
385.70978
385.70973
385.7096
385.70929
385.70938
385.70944
385.7094
385.7093
385.70922
385.7095
385.7097
385.70979
385.70965
385.70929
385.70934
385.70938
385.70933
385.70922
385.70917
385.70947
385.70972
385.70998
385.70997
385.70964
385.70965
385.70965
385.7096
385.7095
385.70947
385.70985
385.71018
385.71003
385.71011
385.70989
385.70986
385.70984
385.70978
385.7097
385.70972
385.71018
385.71023
395.42153
395.42161
395.42113
395.42127
395.42141
395.42147
395.42148
395.42153
395.42173
395.42176
395.42161
395.42134
395.42104
395.42121
395.42134
395.42138
395.42136
395.42139
395.42172
395.42186
395.42113
395.42104
395.42079
395.42096
395.42108
395.4211
395.42104
395.42103
395.42138
395.42163
395.42127
395.42121
395.42096
395.42113
395.42124
395.42123
395.42114
395.42108
395.42139
395.4216
395.42141
395.42134
395.42108
395.42124
395.42133
395.42131
395.4212
395.42111
395.42139
395.42158
395.42147
395.42138
395.4211
395.42123
395.42131
395.42128
395.42115
395.42105
395.42132
395.4215
395.42148
395.42136
395.42104
395.42114
395.4212
395.42115
395.42102
395.42092
395.4212
395.4214
395.42153
395.42139
395.42103
395.42108
395.42111
395.42105
395.42092
395.42084
395.42115
395.4214
395.42173
395.42172
395.42138
395.42139
395.42139
395.42132
395.4212
395.42115
395.42153
395.42188
395.42176
395.42186
395.42163
395.4216
395.42158
395.4215
395.4214
395.4214
395.42188
395.42192
404.86733
404.86743
404.86694
404.86709
404.86724
404.86729
404.86729
404.86732
404.86751
404.86754
404.86743
404.86716
404.86686
404.86704
404.86718
404.86721
404.86717
404.86719
404.86751
404.86765
404.86694
404.86686
404.86661
404.86679
404.86692
404.86693
404.86685
404.86682
404.86716
404.86742
404.86709
404.86704
404.86679
404.86697
404.86708
404.86707
404.86696
404.86687
404.86717
404.86739
404.86724
404.86718
404.86692
404.86708
404.86718
404.86715
404.86701
404.8669
404.86717
404.86736
404.86729
404.86721
404.86693
404.86707
404.86715
404.8671
404.86695
404.86683
404.86708
404.86727
404.86729
404.86717
404.86685
404.86696
404.86701
404.86695
404.8668
404.86667
404.86694
404.86714
404.86732
404.86719
404.86682
404.86687
404.8669
404.86683
404.86667
404.86656
404.86687
404.86712
404.86751
404.86751
404.86716
404.86717
404.86717
404.86708
404.86694
404.86687
404.86726
404.86762
404.86754
404.86765
404.86742
404.86739
404.86736
404.86727
404.86714
404.86712
404.86762
404.86764
414.04275
414.04286
414.04237
414.04254
414.04269
414.04273
414.04272
414.04273
414.04291
414.04294
414.04286
414.04259
414.0423
414.04249
414.04263
414.04266
414.04261
414.0426
414.04292
414.04305
414.04237
414.0423
414.04205
414.04225
414.04238
414.04238
414.04228
414.04222
414.04257
414.04282
414.04254
414.04249
414.04225
414.04244
414.04255
414.04253
414.0424
414.04229
414.04258
414.04279
414.04269
414.04263
414.04238
414.04255
414.04265
414.0426
414.04245
414.04231
414.04257
414.04275
414.04273
414.04266
414.04238
414.04253
414.0426
414.04254
414.04237
414.04222
414.04247
414.04264
414.04272
414.04261
414.04228
414.0424
414.04245
414.04237
414.04219
414.04204
414.0423
414.04249
414.04273
414.0426
414.04222
414.04229
414.04231
414.04222
414.04204
414.04191
414.04221
414.04246
414.04291
414.04292
414.04257
414.04258
414.04257
414.04247
414.0423
414.04221
414.04259
414.04296
414.04294
414.04305
414.04282
414.04279
414.04275
414.04264
414.04249
414.04246
414.04296
414.04297
422.9448
422.94492
422.94443
422.94461
422.94477
422.94481
422.94477
422.94477
422.94494
422.94496
422.94492
422.94466
422.94438
422.94458
422.94472
422.94474
422.94467
422.94464
422.94496
422.94508
422.94443
422.94438
422.94414
422.94435
422.94447
422.94446
422.94435
422.94427
422.9446
422.94484
422.94461
422.94458
422.94435
422.94454
422.94466
422.94462
422.94447
422.94433
422.94461
422.94481
422.94477
422.94472
422.94447
422.94466
422.94475
422.9447
422.94452
422.94435
422.94459
422.94477
422.94481
422.94474
422.94446
422.94462
422.9447
422.94462
422.94443
422.94424
422.94448
422.94464
422.94477
422.94467
422.94435
422.94447
422.94452
422.94443
422.94422
422.94404
422.94429
422.94447
422.94477
422.94464
422.94427
422.94433
422.94435
422.94424
422.94404
422.94388
422.94417
422.94442
422.94494
422.94496
422.9446
422.94461
422.94459
422.94448
422.94429
422.94417
422.94455
422.94492
422.94496
422.94508
422.94484
422.94481
422.94477
422.94464
422.94447
422.94442
422.94492
422.94492
431.5719
431.57203
431.57155
431.57174
431.5719
431.57193
431.57188
431.57186
431.57202
431.57202
431.57203
431.57179
431.57151
431.57172
431.57186
431.57187
431.57178
431.57174
431.57204
431.57215
431.57155
431.57151
431.57128
431.57149
431.57162
431.5716
431.57147
431.57136
431.57169
431.57192
431.57174
431.57172
431.57149
431.5717
431.57181
431.57177
431.57159
431.57143
431.57169
431.57188
431.5719
431.57186
431.57162
431.57181
431.5719
431.57184
431.57163
431.57144
431.57167
431.57183
431.57193
431.57187
431.5716
431.57177
431.57184
431.57175
431.57153
431.57132
431.57154
431.57169
431.57188
431.57178
431.57147
431.57159
431.57163
431.57153
431.5713
431.57109
431.57133
431.5715
431.57186
431.57174
431.57136
431.57143
431.57144
431.57132
431.57109
431.57091
431.57118
431.57142
431.57202
431.57204
431.57169
431.57169
431.57167
431.57154
431.57133
431.57118
431.57156
431.57192
431.57202
431.57215
431.57192
431.57188
431.57183
431.57169
431.5715
431.57142
431.57192
431.57191
439.92383
439.92397
439.9235
439.9237
439.92385
439.92388
439.92381
439.92377
439.92392
439.92391
439.92397
439.92374
439.92347
439.92369
439.92383
439.92383
439.92372
439.92365
439.92394
439.92404
439.9235
439.92347
439.92325
439.92347
439.9236
439.92357
439.92341
439.92328
439.92359
439.92381
439.9237
439.92369
439.92347
439.92369
439.92379
439.92374
439.92354
439.92335
439.9236
439.92378
439.92385
439.92383
439.9236
439.92379
439.92388
439.9238
439.92358
439.92336
439.92357
439.92372
439.92388
439.92383
439.92357
439.92374
439.9238
439.9237
439.92346
439.92322
439.92343
439.92356
439.92381
439.92372
439.92341
439.92354
439.92358
439.92346
439.92321
439.92298
439.92319
439.92335
439.92377
439.92365
439.92328
439.92335
439.92336
439.92322
439.92298
439.92276
439.92302
439.92325
439.92392
439.92394
439.92359
439.9236
439.92357
439.92343
439.92319
439.92302
439.92338
439.92374
439.92391
439.92404
439.92381
439.92378
439.92372
439.92356
439.92335
439.92325
439.92374
439.92372
448.00168
448.00183
448.00137
448.00158
448.00173
448.00174
448.00166
448.0016
448.00173
448.00172
448.00183
448.00161
448.00135
448.00158
448.00172
448.00171
448.00158
448.00149
448.00176
448.00185
448.00137
448.00135
448.00114
448.00137
448.0015
448.00145
448.00128
448.00113
448.00142
448.00163
448.00158
448.00158
448.00137
448.00159
448.00169
448.00162
448.00141
448.0012
448.00143
448.00159
448.00173
448.00172
448.0015
448.00169
448.00178
448.00168
448.00144
448.00119
448.00139
448.00152
448.00174
448.00171
448.00145
448.00162
448.00168
448.00157
448.00131
448.00105
448.00123
448.00135
448.00166
448.00158
448.00128
448.00141
448.00144
448.00131
448.00104
448.00078
448.00097
448.00112
448.0016
448.00149
448.00113
448.0012
448.00119
448.00105
448.00078
448.00054
448.00078
448.00099
448.00173
448.00176
448.00142
448.00143
448.00139
448.00123
448.00097
448.00078
448.00113
448.00148
448.00172
448.00185
448.00163
448.00159
448.00152
448.00135
448.00112
448.00099
448.00148
448.00144
455.80781
455.80796
455.80752
455.80773
455.80788
455.80789
455.80779
455.80771
455.80783
455.8078
455.80796
455.80776
455.80751
455.80775
455.80788
455.80786
455.80772
455.80761
455.80786
455.80794
455.80752
455.80751
455.80732
455.80755
455.80767
455.80762
455.80742
455.80725
455.80752
455.80771
455.80773
455.80775
455.80755
455.80777
455.80787
455.80779
455.80755
455.80732
455.80753
455.80768
455.80788
455.80788
455.80767
455.80787
455.80795
455.80784
455.80758
455.80731
455.80748
455.8076
455.80789
455.80786
455.80762
455.80779
455.80784
455.80772
455.80744
455.80715
455.80731
455.80742
455.80779
455.80772
455.80742
455.80755
455.80758
455.80744
455.80715
455.80686
455.80704
455.80716
455.80771
455.80761
455.80725
455.80732
455.80731
455.80715
455.80686
455.8066
455.80682
455.80702
455.80783
455.80786
455.80752
455.80753
455.80748
455.80731
455.80704
455.80682
455.80715
455.80749
455.8078
455.80794
455.80771
455.80768
455.8076
455.80742
455.80716
455.80702
455.80749
455.80744
463.34579
463.34595
463.34553
463.34574
463.34588
463.34587
463.34576
463.34567
463.34577
463.34572
463.34595
463.34575
463.34553
463.34576
463.34589
463.34586
463.3457
463.34557
463.34581
463.34587
463.34553
463.34553
463.34534
463.34557
463.34569
463.34563
463.34542
463.34522
463.34547
463.34565
463.34574
463.34576
463.34557
463.34579
463.34589
463.3458
463.34555
463.34529
463.34548
463.34561
463.34588
463.34589
463.34569
463.34589
463.34596
463.34585
463.34557
463.34527
463.34543
463.34553
463.34587
463.34586
463.34563
463.3458
463.34585
463.34571
463.34541
463.3451
463.34524
463.34533
463.34576
463.3457
463.34542
463.34555
463.34557
463.34541
463.3451
463.34479
463.34495
463.34506
463.34567
463.34557
463.34522
463.34529
463.34527
463.3451
463.34479
463.34451
463.34471
463.3449
463.34577
463.34581
463.34547
463.34548
463.34543
463.34524
463.34495
463.34471
463.34502
463.34535
463.34572
463.34587
463.34565
463.34561
463.34553
463.34533
463.34506
463.3449
463.34535
463.34529
470.62035
470.62052
470.62011
470.62033
470.62046
470.62045
470.62032
470.62021
470.62029
470.62024
470.62052
470.62034
470.62012
470.62036
470.62048
470.62044
470.62027
470.62012
470.62033
470.62038
470.62011
470.62012
470.61995
470.62018
470.62029
470.62022
470.62
470.61978
470.62001
470.62017
470.62033
470.62036
470.62018
470.6204
470.62049
470.62039
470.62012
470.61985
470.62001
470.62013
470.62046
470.62048
470.62029
470.62049
470.62056
470.62043
470.62014
470.61982
470.61995
470.62004
470.62045
470.62044
470.62022
470.62039
470.62043
470.62028
470.61997
470.61964
470.61976
470.61984
470.62032
470.62027
470.62
470.62012
470.62014
470.61997
470.61965
470.61932
470.61945
470.61955
470.62021
470.62012
470.61978
470.61985
470.61982
470.61964
470.61932
470.61901
470.61919
470.61936
470.62029
470.62033
470.62001
470.62001
470.61995
470.61976
470.61945
470.61919
470.61948
470.6198
470.62024
470.62038
470.62017
470.62013
470.62004
470.61984
470.61955
470.61936
470.6198
470.61973
477.63734
477.63751
477.63713
477.63734
477.63747
477.63745
477.63731
477.63718
477.63724
477.63718
477.63751
477.63735
477.63715
477.63738
477.6375
477.63745
477.63726
477.6371
477.63729
477.63733
477.63713
477.63715
477.63699
477.63722
477.63732
477.63724
477.637
477.63677
477.63698
477.63712
477.63734
477.63738
477.63722
477.63744
477.63752
477.63741
477.63713
477.63683
477.63698
477.63708
477.63747
477.6375
477.63732
477.63752
477.63758
477.63744
477.63713
477.6368
477.63691
477.63698
477.63745
477.63745
477.63724
477.63741
477.63744
477.63728
477.63696
477.63661
477.63671
477.63677
477.63731
477.63726
477.637
477.63713
477.63713
477.63696
477.63662
477.63628
477.63639
477.63646
477.63718
477.6371
477.63677
477.63683
477.6368
477.63661
477.63628
477.63595
477.63611
477.63627
477.63724
477.63729
477.63698
477.63698
477.63691
477.63671
477.63639
477.63611
477.63638
477.63669
477.63718
477.63733
477.63712
477.63708
477.63698
477.63677
477.63646
477.63627
477.63669
477.6366
484.40366
484.40384
484.40347
484.40368
484.40381
484.40377
484.40362
484.40348
484.40352
484.40345
484.40384
484.40369
484.4035
484.40373
484.40384
484.40378
484.40358
484.4034
484.40358
484.4036
484.40347
484.4035
484.40336
484.40358
484.40368
484.40358
484.40334
484.40309
484.40328
484.4034
484.40368
484.40373
484.40358
484.40379
484.40387
484.40375
484.40346
484.40315
484.40327
484.40335
484.40381
484.40384
484.40368
484.40387
484.40392
484.40377
484.40345
484.40311
484.4032
484.40325
484.40377
484.40378
484.40358
484.40375
484.40377
484.40361
484.40327
484.40291
484.40299
484.40303
484.40362
484.40358
484.40334
484.40346
484.40345
484.40327
484.40292
484.40256
484.40265
484.40272
484.40348
484.4034
484.40309
484.40315
484.40311
484.40291
484.40256
484.40223
484.40237
484.4025
484.40352
484.40358
484.40328
484.40327
484.4032
484.40299
484.40265
484.40237
484.40261
484.4029
484.40345
484.4036
484.4034
484.40335
484.40325
484.40303
484.40272
484.4025
484.4029
484.4028
490.92721
490.92738
490.92704
490.92724
490.92736
490.92731
490.92716
490.927
490.92703
490.92695
490.92738
490.92725
490.92708
490.9273
490.9274
490.92733
490.92712
490.92693
490.92708
490.92709
490.92704
490.92708
490.92695
490.92716
490.92725
490.92715
490.92689
490.92663
490.92679
490.9269
490.92724
490.9273
490.92716
490.92737
490.92743
490.9273
490.927
490.92668
490.92679
490.92685
490.92736
490.9274
490.92725
490.92743
490.92747
490.92732
490.92699
490.92664
490.92671
490.92675
490.92731
490.92733
490.92715
490.9273
490.92732
490.92715
490.9268
490.92643
490.92649
490.92652
490.92716
490.92712
490.92689
490.927
490.92699
490.9268
490.92645
490.92608
490.92615
490.9262
490.927
490.92693
490.92663
490.92668
490.92664
490.92643
490.92608
490.92573
490.92585
490.92597
490.92703
490.92708
490.92679
490.92679
490.92671
490.92649
490.92615
490.92585
490.92607
490.92635
490.92695
490.92709
490.9269
490.92685
490.92675
490.92652
490.9262
490.92597
490.92635
490.92624
497.2168
497.21698
497.21666
497.21686
497.21696
497.21691
497.21674
497.21657
497.21659
497.2165
497.21698
497.21686
497.2167
497.21692
497.21701
497.21693
497.21672
497.21651
497.21664
497.21664
497.21666
497.2167
497.21658
497.21679
497.21687
497.21676
497.2165
497.21623
497.21637
497.21646
497.21686
497.21692
497.21679
497.21699
497.21704
497.21691
497.2166
497.21627
497.21636
497.21641
497.21696
497.21701
497.21687
497.21704
497.21708
497.21692
497.21659
497.21622
497.21627
497.2163
497.21691
497.21693
497.21676
497.21691
497.21692
497.21674
497.21639
497.21601
497.21605
497.21607
497.21674
497.21672
497.2165
497.2166
497.21659
497.21639
497.21603
497.21565
497.2157
497.21574
497.21657
497.21651
497.21623
497.21627
497.21622
497.21601
497.21565
497.2153
497.21539
497.2155
497.21659
497.21664
497.21637
497.21636
497.21627
497.21605
497.2157
497.21539
497.2156
497.21585
497.2165
497.21664
497.21646
497.21641
497.2163
497.21607
497.21574
497.2155
497.21585
497.21574
503.28217
503.28234
503.28205
503.28224
503.28233
503.28227
503.2821
503.28192
503.28192
503.28183
503.28234
503.28224
503.2821
503.2823
503.28238
503.2823
503.28208
503.28186
503.28197
503.28196
503.28205
503.2821
503.28199
503.28219
503.28225
503.28214
503.28187
503.28159
503.28171
503.28179
503.28224
503.2823
503.28219
503.28237
503.28242
503.28228
503.28197
503.28163
503.2817
503.28174
503.28233
503.28238
503.28225
503.28242
503.28245
503.28228
503.28195
503.28158
503.28161
503.28162
503.28227
503.2823
503.28214
503.28228
503.28228
503.2821
503.28175
503.28136
503.28138
503.28139
503.2821
503.28208
503.28187
503.28197
503.28195
503.28175
503.28139
503.281
503.28104
503.28106
503.28192
503.28186
503.28159
503.28163
503.28158
503.28136
503.281
503.28064
503.28072
503.28081
503.28192
503.28197
503.28171
503.2817
503.28161
503.28138
503.28104
503.28072
503.2809
503.28114
503.28183
503.28196
503.28179
503.28174
503.28162
503.28139
503.28106
503.28081
503.28114
503.28102
509.13384
509.13401
509.13374
509.13392
509.134
509.13393
509.13375
509.13357
509.13356
509.13346
509.13401
509.13392
509.13379
509.13398
509.13406
509.13396
509.13374
509.13352
509.13361
509.13359
509.13374
509.13379
509.1337
509.13388
509.13394
509.13382
509.13355
509.13327
509.13337
509.13343
509.13392
509.13398
509.13388
509.13406
509.13409
509.13395
509.13364
509.1333
509.13335
509.13337
509.134
509.13406
509.13394
509.13409
509.13411
509.13394
509.13361
509.13324
509.13325
509.13325
509.13393
509.13396
509.13382
509.13395
509.13394
509.13376
509.13341
509.13302
509.13303
509.13302
509.13375
509.13374
509.13355
509.13364
509.13361
509.13341
509.13305
509.13266
509.13268
509.13269
509.13357
509.13352
509.13327
509.1333
509.13324
509.13302
509.13266
509.1323
509.13236
509.13244
509.13356
509.13361
509.13337
509.13335
509.13325
509.13303
509.13268
509.13236
509.13252
509.13275
509.13346
509.13359
509.13343
509.13337
509.13325
509.13302
509.13269
509.13244
509.13275
509.13262
514.78312
514.78327
514.78303
514.78319
514.78327
514.78319
514.78301
514.78282
514.7828
514.7827
514.78327
514.7832
514.78309
514.78326
514.78332
514.78323
514.783
514.78277
514.78285
514.78282
514.78303
514.78309
514.783
514.78317
514.78322
514.78309
514.78282
514.78254
514.78262
514.78267
514.78319
514.78326
514.78317
514.78333
514.78336
514.78321
514.78291
514.78257
514.7826
514.78261
514.78327
514.78332
514.78322
514.78336
514.78337
514.7832
514.78287
514.7825
514.7825
514.78249
514.78319
514.78323
514.78309
514.78321
514.7832
514.78301
514.78266
514.78228
514.78227
514.78226
514.78301
514.783
514.78282
514.78291
514.78287
514.78266
514.78231
514.78193
514.78193
514.78193
514.78282
514.78277
514.78254
514.78257
514.7825
514.78228
514.78193
514.78157
514.78162
514.78168
514.7828
514.78285
514.78262
514.7826
514.7825
514.78227
514.78193
514.78162
514.78176
514.78196
514.7827
514.78282
514.78267
514.78261
514.78249
514.78226
514.78193
514.78168
514.78196
514.78183
520.24198
520.24213
520.24191
520.24206
520.24212
520.24204
520.24186
520.24166
520.24163
520.24153
520.24213
520.24207
520.24197
520.24213
520.24218
520.24208
520.24185
520.24162
520.24168
520.24165
520.24191
520.24197
520.24189
520.24205
520.24208
520.24196
520.24169
520.24141
520.24147
520.24151
520.24206
520.24213
520.24205
520.24219
520.24221
520.24206
520.24176
520.24143
520.24144
520.24145
520.24212
520.24218
520.24208
520.24221
520.24221
520.24204
520.24172
520.24136
520.24134
520.24132
520.24204
520.24208
520.24196
520.24206
520.24204
520.24185
520.24152
520.24114
520.24112
520.2411
520.24186
520.24185
520.24169
520.24176
520.24172
520.24152
520.24117
520.2408
520.24079
520.24078
520.24166
520.24162
520.24141
520.24143
520.24136
520.24114
520.2408
520.24045
520.24048
520.24053
520.24163
520.24168
520.24147
520.24144
520.24134
520.24112
520.24079
520.24048
520.2406
520.24078
520.24153
520.24165
520.24151
520.24145
520.24132
520.2411
520.24078
520.24053
520.24078
520.24065
525.52306
525.5232
525.52301
525.52314
525.52319
525.52311
525.52292
525.52273
525.52269
525.52259
525.5232
525.52315
525.52306
525.52321
525.52325
525.52314
525.52292
525.5227
525.52274
525.5227
525.52301
525.52306
525.523
525.52314
525.52316
525.52303
525.52277
525.5225
525.52254
525.52257
525.52314
525.52321
525.52314
525.52327
525.52328
525.52313
525.52283
525.52251
525.52251
525.52251
525.52319
525.52325