/*--------------------------------*- C++ -*----------------------------------*\
| =========                 |                                                 |
| \\      /  F ield         | OpenFOAM: The Open Source CFD Toolbox           |
|  \\    /   O peration     | Version:  v2106                                 |
|   \\  /    A nd           | Website:  www.openfoam.com                      |
|    \\/     M anipulation  |                                                 |
\*---------------------------------------------------------------------------*/
FoamFile
{
    version     2.0;
    format      ascii;
    arch        "LSB;label=32;scalar=64";
    class       volVectorField;
    location    "45";
    object      flux;
}
// * * * * * * * * * * * * * * * * * * * * * * * * * * * * * * * * * * * * * //

dimensions      [0 1 -1 1 0 0 0];

internalField   nonuniform List<vector> 
4000
(
(-7.9874894e-07 -7.9874894e-07 1.8712699)
(-1.7343927e-06 -6.9451846e-07 1.8712654)
(-8.413406e-07 -6.6519245e-07 1.8712633)
(-4.3611179e-07 -6.6100668e-07 1.8712621)
(-1.1721467e-07 -6.55122e-07 1.8712616)
(1.5832552e-07 -6.495459e-07 1.8712616)
(3.9291943e-07 -6.4462452e-07 1.8712622)
(5.6054705e-07 -6.3340911e-07 1.8712632)
(5.9240036e-07 -6.0949547e-07 1.8712645)
(1.8684871e-07 -5.4749488e-07 1.8712658)
(-6.9451846e-07 -1.7343928e-06 1.8712654)
(-1.534058e-06 -1.534058e-06 1.8712614)
(-7.9107293e-07 -1.4869669e-06 1.8712595)
(-4.2100611e-07 -1.4448539e-06 1.8712584)
(-1.000235e-07 -1.4376797e-06 1.8712579)
(1.7407173e-07 -1.4139987e-06 1.871258)
(4.1712462e-07 -1.3957917e-06 1.8712586)
(6.1324063e-07 -1.3610188e-06 1.8712597)
(7.2127169e-07 -1.2998974e-06 1.8712611)
(2.488493e-07 -1.1736287e-06 1.8712627)
(-6.6519246e-07 -8.4134061e-07 1.8712633)
(-1.4869669e-06 -7.9107294e-07 1.8712595)
(-7.5213648e-07 -7.5213648e-07 1.8712576)
(-3.8682461e-07 -7.2938149e-07 1.8712566)
(-8.6359412e-08 -7.0043503e-07 1.8712561)
(2.0021355e-07 -6.8336346e-07 1.8712563)
(4.4589934e-07 -6.5553728e-07 1.8712569)
(6.5644138e-07 -6.2476659e-07 1.8712581)
(7.7979045e-07 -5.8176174e-07 1.8712596)
(2.7102784e-07 -5.3629303e-07 1.8712614)
(-6.6100667e-07 -4.3611178e-07 1.8712621)
(-1.4448539e-06 -4.210061e-07 1.8712584)
(-7.2938149e-07 -3.8682463e-07 1.8712566)
(-3.6930465e-07 -3.6930463e-07 1.8712555)
(-5.4005476e-08 -3.4230445e-07 1.8712552)
(2.1896948e-07 -3.2032523e-07 1.8712553)
(4.757215e-07 -2.9517527e-07 1.871256)
(6.8701617e-07 -2.689615e-07 1.8712572)
(8.0974526e-07 -2.3956461e-07 1.8712589)
(2.7916177e-07 -2.1764969e-07 1.8712607)
(-6.5512201e-07 -1.1721464e-07 1.8712616)
(-1.4376797e-06 -1.0002353e-07 1.8712579)
(-7.0043501e-07 -8.635944e-08 1.8712561)
(-3.4230444e-07 -5.4005459e-08 1.8712552)
(-3.7380022e-08 -3.7380007e-08 1.8712548)
(2.4734273e-07 -1.0983698e-08 1.871255)
(4.9726307e-07 1.0635837e-08 1.8712558)
(7.1205204e-07 3.4213866e-08 1.871257)
(8.3110226e-07 5.340074e-08 1.8712587)
(2.8563778e-07 6.8463211e-08 1.8712605)
(-6.4954593e-07 1.5832551e-07 1.8712616)
(-1.4139987e-06 1.7407179e-07 1.871258)
(-6.8336342e-07 2.0021353e-07 1.8712563)
(-3.2032522e-07 2.1896945e-07 1.8712553)
(-1.0983714e-08 2.4734271e-07 1.871255)
(2.6698533e-07 2.6698532e-07 1.8712553)
(5.2091906e-07 2.8931751e-07 1.8712561)
(7.2978107e-07 3.1010723e-07 1.8712574)
(8.439946e-07 3.271933e-07 1.8712591)
(2.8920342e-07 3.3697591e-07 1.871261)
(-6.4462449e-07 3.929194e-07 1.8712622)
(-1.3957917e-06 4.1712466e-07 1.8712586)
(-6.5553734e-07 4.4589936e-07 1.8712569)
(-2.9517526e-07 4.7572147e-07 1.871256)
(1.0635851e-08 4.9726306e-07 1.8712558)
(2.8931753e-07 5.2091904e-07 1.8712561)
(5.4038497e-07 5.4038493e-07 1.871257)
(7.4992783e-07 5.5913821e-07 1.8712583)
(8.5797094e-07 5.7755796e-07 1.87126)
(2.9215952e-07 5.8862248e-07 1.8712619)
(-6.3340909e-07 5.6054707e-07 1.8712632)
(-1.3610187e-06 6.1324059e-07 1.8712597)
(-6.247666e-07 6.5644141e-07 1.8712581)
(-2.6896152e-07 6.8701616e-07 1.8712572)
(3.421385e-08 7.1205209e-07 1.871257)
(3.101072e-07 7.2978108e-07 1.8712574)
(5.5913823e-07 7.4992784e-07 1.8712583)
(7.6695409e-07 7.6695406e-07 1.8712597)
(8.7347888e-07 7.8560924e-07 1.8712614)
(2.9657977e-07 8.0119289e-07 1.8712634)
(-6.0949547e-07 5.9240037e-07 1.8712645)
(-1.2998974e-06 7.2127168e-07 1.8712611)
(-5.8176177e-07 7.7979046e-07 1.8712596)
(-2.3956458e-07 8.0974529e-07 1.8712589)
(5.3400766e-08 8.3110223e-07 1.8712587)
(3.2719328e-07 8.439946e-07 1.8712591)
(5.7755795e-07 8.5797091e-07 1.87126)
(7.8560923e-07 8.7347887e-07 1.8712614)
(8.9220976e-07 8.922098e-07 1.8712632)
(3.0254861e-07 9.1390907e-07 1.8712652)
(-5.4749488e-07 1.868487e-07 1.8712658)
(-1.1736286e-06 2.488493e-07 1.8712627)
(-5.36293e-07 2.7102786e-07 1.8712614)
(-2.1764975e-07 2.7916181e-07 1.8712607)
(6.8463159e-08 2.8563775e-07 1.8712605)
(3.3697588e-07 2.8920341e-07 1.871261)
(5.8862251e-07 2.9215948e-07 1.8712619)
(8.0119298e-07 2.9657978e-07 1.8712634)
(9.1390907e-07 3.0254864e-07 1.8712652)
(3.1104595e-07 3.1104598e-07 1.8712672)
(-2.1554172e-06 -2.1554172e-06 1.8712927)
(-4.740321e-06 -1.8534465e-06 1.871289)
(-2.382279e-06 -1.7715003e-06 1.8712872)
(-1.250735e-06 -1.7567041e-06 1.8712862)
(-3.204143e-07 -1.73936e-06 1.8712857)
(5.0220059e-07 -1.7249793e-06 1.8712858)
(1.2168437e-06 -1.7081333e-06 1.8712865)
(1.7635211e-06 -1.674465e-06 1.8712876)
(1.9896366e-06 -1.5964695e-06 1.871289)
(6.6399703e-07 -1.3738624e-06 1.8712907)
(-1.8534465e-06 -4.740321e-06 1.871289)
(-4.1644457e-06 -4.1644457e-06 1.8712859)
(-2.2371654e-06 -4.0206974e-06 1.8712842)
(-1.2025246e-06 -3.9175621e-06 1.8712832)
(-2.72827e-07 -3.8805067e-06 1.8712827)
(5.490407e-07 -3.8197764e-06 1.8712829)
(1.2926152e-06 -3.7602225e-06 1.8712836)
(1.9310167e-06 -3.6555818e-06 1.8712847)
(2.4405403e-06 -3.4624032e-06 1.8712863)
(8.866041e-07 -3.0296122e-06 1.8712885)
(-1.7715003e-06 -2.382279e-06 1.8712872)
(-4.0206974e-06 -2.2371654e-06 1.8712842)
(-2.1353954e-06 -2.1353954e-06 1.8712826)
(-1.1105444e-06 -2.0578005e-06 1.8712816)
(-2.2262859e-07 -1.9836179e-06 1.8712812)
(6.2248483e-07 -1.9239636e-06 1.8712814)
(1.3810384e-06 -1.8462536e-06 1.8712821)
(2.0613404e-06 -1.7495644e-06 1.8712834)
(2.6156061e-06 -1.6208209e-06 1.8712851)
(9.5252435e-07 -1.4845225e-06 1.8712874)
(-1.7567042e-06 -1.250735e-06 1.8712862)
(-3.9175621e-06 -1.2025246e-06 1.8712832)
(-2.0578005e-06 -1.1105444e-06 1.8712816)
(-1.0507471e-06 -1.0507471e-06 1.8712807)
(-1.3899009e-07 -9.7464856e-07 1.8712804)
(6.86405e-07 -9.0733209e-07 1.8712806)
(1.4670144e-06 -8.3308333e-07 1.8712813)
(2.1564495e-06 -7.5432633e-07 1.8712826)
(2.7055823e-06 -6.6683558e-07 1.8712844)
(9.7746972e-07 -6.0218589e-07 1.8712868)
(-1.7393601e-06 -3.2041433e-07 1.8712857)
(-3.8805068e-06 -2.7282703e-07 1.8712827)
(-1.9836179e-06 -2.2262859e-07 1.8712812)
(-9.746486e-07 -1.3899007e-07 1.8712804)
(-7.9213613e-08 -7.9213632e-08 1.8712801)
(7.6405006e-07 -5.9396089e-09 1.8712803)
(1.5340441e-06 6.2032669e-08 1.8712812)
(2.2275881e-06 1.3095117e-07 1.8712825)
(2.7677465e-06 1.9025232e-07 1.8712843)
(9.9562414e-07 2.3393171e-07 1.8712867)
(-1.7249793e-06 5.0220054e-07 1.8712858)
(-3.8197764e-06 5.4904069e-07 1.8712829)
(-1.9239635e-06 6.2248476e-07 1.8712814)
(-9.0733212e-07 6.86405e-07 1.8712806)
(-5.9396328e-09 7.6405005e-07 1.8712803)
(8.276513e-07 8.2765131e-07 1.8712807)
(1.6039052e-06 8.9258347e-07 1.8712815)
(2.2846691e-06 9.5613414e-07 1.8712829)
(2.8085628e-06 1.0077247e-06 1.8712848)
(1.0065893e-06 1.0391514e-06 1.8712872)
(-1.7081333e-06 1.2168437e-06 1.8712865)
(-3.7602225e-06 1.2926152e-06 1.8712836)
(-1.8462536e-06 1.3810383e-06 1.8712821)
(-8.330833e-07 1.4670143e-06 1.8712813)
(6.2032697e-08 1.5340441e-06 1.8712812)
(8.9258347e-07 1.6039052e-06 1.8712815)
(1.6625269e-06 1.6625269e-06 1.8712824)
(2.3427293e-06 1.7206504e-06 1.8712838)
(2.8507638e-06 1.7756763e-06 1.8712858)
(1.0165753e-06 1.8115624e-06 1.8712882)
(-1.674465e-06 1.7635211e-06 1.8712876)
(-3.6555818e-06 1.9310168e-06 1.8712847)
(-1.7495644e-06 2.0613404e-06 1.8712834)
(-7.5432635e-07 2.1564495e-06 1.8712826)
(1.3095118e-07 2.2275881e-06 1.8712825)
(9.5613415e-07 2.2846691e-06 1.8712829)
(1.7206504e-06 2.3427293e-06 1.8712838)
(2.3978184e-06 2.3978184e-06 1.8712853)
(2.8994749e-06 2.458788e-06 1.8712873)
(1.0305134e-06 2.5146749e-06 1.8712897)
(-1.5964695e-06 1.9896365e-06 1.871289)
(-3.4624032e-06 2.4405404e-06 1.8712863)
(-1.6208209e-06 2.6156061e-06 1.8712851)
(-6.6683557e-07 2.7055823e-06 1.8712844)
(1.9025229e-07 2.7677465e-06 1.8712843)
(1.0077247e-06 2.8085628e-06 1.8712848)
(1.7756763e-06 2.8507639e-06 1.8712858)
(2.458788e-06 2.8994749e-06 1.8712873)
(2.9676203e-06 2.9676203e-06 1.8712893)
(1.0538332e-06 3.0731534e-06 1.8712918)
(-1.3738624e-06 6.63997e-07 1.8712907)
(-3.0296122e-06 8.866041e-07 1.8712885)
(-1.4845225e-06 9.5252433e-07 1.8712874)
(-6.0218587e-07 9.7746972e-07 1.8712868)
(2.3393168e-07 9.9562413e-07 1.8712867)
(1.0391515e-06 1.0065893e-06 1.8712872)
(1.8115624e-06 1.0165753e-06 1.8712882)
(2.5146749e-06 1.0305134e-06 1.8712897)
(3.0731534e-06 1.0538333e-06 1.8712918)
(1.1008688e-06 1.1008688e-06 1.8712945)
(-3.2606171e-06 -3.2606171e-06 1.8713367)
(-7.2371376e-06 -2.8099229e-06 1.8713335)
(-3.723868e-06 -2.6804587e-06 1.8713319)
(-1.9591242e-06 -2.658363e-06 1.871331)
(-4.5293571e-07 -2.6293846e-06 1.8713306)
(9.0918815e-07 -2.6068936e-06 1.8713308)
(2.1227279e-06 -2.5778234e-06 1.8713315)
(3.1152074e-06 -2.5221327e-06 1.8713327)
(3.7124632e-06 -2.3857992e-06 1.8713343)
(1.2928855e-06 -1.9999776e-06 1.8713363)
(-2.8099229e-06 -7.2371376e-06 1.8713335)
(-6.3669001e-06 -6.3669001e-06 1.8713308)
(-3.4965281e-06 -6.1370238e-06 1.8713293)
(-1.882513e-06 -5.9831938e-06 1.8713284)
(-3.7573164e-07 -5.9153661e-06 1.8713281)
(9.8652996e-07 -5.8195009e-06 1.8713283)
(2.2498692e-06 -5.7178701e-06 1.871329)
(3.4032436e-06 -5.5447308e-06 1.8713303)
(4.4956959e-06 -5.2163831e-06 1.8713321)
(1.678707e-06 -4.4768302e-06 1.8713345)
(-2.6804587e-06 -3.723868e-06 1.8713319)
(-6.1370238e-06 -3.496528e-06 1.8713293)
(-3.3401617e-06 -3.3401617e-06 1.8713279)
(-1.7374664e-06 -3.2104385e-06 1.8713271)
(-2.8924282e-07 -3.0939805e-06 1.8713268)
(1.1066842e-06 -2.9912483e-06 1.871327)
(2.3974981e-06 -2.8648495e-06 1.8713278)
(3.6166943e-06 -2.7020789e-06 1.8713291)
(4.7803638e-06 -2.489854e-06 1.871331)
(1.7859207e-06 -2.2667763e-06 1.8713336)
(-2.658363e-06 -1.9591242e-06 1.871331)
(-5.9831938e-06 -1.8825131e-06 1.8713284)
(-3.2104386e-06 -1.7374664e-06 1.8713271)
(-1.6363319e-06 -1.6363318e-06 1.8713262)
(-1.5654143e-07 -1.5132423e-06 1.871326)
(1.215661e-06 -1.4006024e-06 1.8713263)
(2.5390387e-06 -1.2772672e-06 1.8713271)
(3.7782392e-06 -1.1459348e-06 1.8713285)
(4.9309985e-06 -9.9965366e-07 1.8713305)
(1.8274255e-06 -8.9337529e-07 1.8713331)
(-2.6293846e-06 -4.5293574e-07 1.8713306)
(-5.9153661e-06 -3.7573171e-07 1.8713281)
(-3.0939805e-06 -2.8924287e-07 1.8713268)
(-1.5132423e-06 -1.5654143e-07 1.871326)
(-5.3513396e-08 -5.3513403e-08 1.8713258)
(1.3426592e-06 6.4759142e-08 1.8713261)
(2.6521656e-06 1.8007986e-07 1.871327)
(3.8943079e-06 2.9341082e-07 1.8713284)
(5.0329234e-06 3.9307577e-07 1.8713304)
(1.856773e-06 4.6485537e-07 1.8713331)
(-2.6068937e-06 9.0918811e-07 1.8713308)
(-5.8195009e-06 9.8653e-07 1.8713283)
(-2.9912483e-06 1.1066842e-06 1.871327)
(-1.4006024e-06 1.215661e-06 1.8713263)
(6.4759138e-08 1.3426592e-06 1.8713261)
(1.4492542e-06 1.4492542e-06 1.8713265)
(2.7676904e-06 1.5573963e-06 1.8713274)
(3.9912351e-06 1.6639881e-06 1.8713289)
(5.102443e-06 1.7514612e-06 1.8713309)
(1.8752785e-06 1.8056474e-06 1.8713336)
(-2.5778234e-06 2.1227279e-06 1.8713315)
(-5.7178701e-06 2.2498693e-06 1.871329)
(-2.8648495e-06 2.397498e-06 1.8713278)
(-1.2772672e-06 2.5390387e-06 1.8713271)
(1.8007982e-07 2.6521657e-06 1.871327)
(1.5573963e-06 2.7676904e-06 1.8713274)
(2.8668996e-06 2.8668995e-06 1.8713284)
(4.0883728e-06 2.9662119e-06 1.8713299)
(5.1745827e-06 3.0614557e-06 1.871332)
(1.8928971e-06 3.1271572e-06 1.8713347)
(-2.5221327e-06 3.1152074e-06 1.8713327)
(-5.5447308e-06 3.4032436e-06 1.8713303)
(-2.7020788e-06 3.6166943e-06 1.8713291)
(-1.1459348e-06 3.7782391e-06 1.8713285)
(2.9341079e-07 3.894308e-06 1.8713284)
(1.6639881e-06 3.9912351e-06 1.8713289)
(2.9662119e-06 4.0883728e-06 1.8713299)
(4.1857912e-06 4.1857912e-06 1.8713315)
(5.2633883e-06 4.2985974e-06 1.8713336)
(1.9190796e-06 4.4146008e-06 1.8713363)
(-2.3857992e-06 3.7124632e-06 1.8713343)
(-5.2163831e-06 4.4956959e-06 1.8713321)
(-2.489854e-06 4.7803639e-06 1.871331)
(-9.9965362e-07 4.9309984e-06 1.8713305)
(3.9307575e-07 5.0329234e-06 1.8713304)
(1.7514612e-06 5.102443e-06 1.8713309)
(3.0614557e-06 5.1745827e-06 1.871332)
(4.2985974e-06 5.2633883e-06 1.8713336)
(5.4033923e-06 5.4033923e-06 1.8713358)
(1.9702327e-06 5.6788396e-06 1.8713386)
(-1.9999776e-06 1.2928854e-06 1.8713363)
(-4.4768302e-06 1.678707e-06 1.8713345)
(-2.2667763e-06 1.7859207e-06 1.8713336)
(-8.9337531e-07 1.8274255e-06 1.8713331)
(4.6485534e-07 1.856773e-06 1.8713331)
(1.8056474e-06 1.8752786e-06 1.8713336)
(3.1271572e-06 1.8928971e-06 1.8713347)
(4.4146008e-06 1.9190795e-06 1.8713363)
(5.6788396e-06 1.9702327e-06 1.8713386)
(2.1027111e-06 2.1027111e-06 1.8713417)
(-4.2671076e-06 -4.2671076e-06 1.8714042)
(-9.4955897e-06 -3.678313e-06 1.8714012)
(-4.9084139e-06 -3.5093938e-06 1.8713998)
(-2.5568492e-06 -3.4783928e-06 1.871399)
(-5.0495801e-07 -3.439454e-06 1.8713987)
(1.3875546e-06 -3.4087588e-06 1.8713989)
(3.1061915e-06 -3.3672531e-06 1.8713997)
(4.5656179e-06 -3.2910602e-06 1.871401)
(5.5501763e-06 -3.0975682e-06 1.8714027)
(1.9610672e-06 -2.5476884e-06 1.8714047)
(-3.678313e-06 -9.4955897e-06 1.8714012)
(-8.359019e-06 -8.359019e-06 1.8713987)
(-4.6085337e-06 -8.0513371e-06 1.8713974)
(-2.4519396e-06 -7.8514815e-06 1.8713966)
(-4.0050701e-07 -7.7535598e-06 1.8713963)
(1.495856e-06 -7.6249294e-06 1.8713966)
(3.2827394e-06 -7.4793957e-06 1.8713974)
(4.9701453e-06 -7.2376262e-06 1.8713987)
(6.6652339e-06 -6.7744175e-06 1.8714006)
(2.510947e-06 -5.7281053e-06 1.8714031)
(-3.5093937e-06 -4.908414e-06 1.8713998)
(-8.0513371e-06 -4.6085337e-06 1.8713974)
(-4.4008765e-06 -4.4008764e-06 1.8713961)
(-2.2590718e-06 -4.2232522e-06 1.8713954)
(-2.7840594e-07 -4.0657325e-06 1.8713951)
(1.6617187e-06 -3.9218069e-06 1.8713955)
(3.4934947e-06 -3.7477171e-06 1.8713963)
(5.2705961e-06 -3.5181143e-06 1.8713977)
(7.0596973e-06 -3.2229102e-06 1.8713997)
(2.6586086e-06 -2.9146988e-06 1.8714023)
(-3.4783928e-06 -2.5568491e-06 1.871399)
(-7.8514815e-06 -2.4519396e-06 1.8713966)
(-4.2232522e-06 -2.2590718e-06 1.8713954)
(-2.1167957e-06 -2.1167956e-06 1.8713947)
(-9.9061647e-08 -1.9492108e-06 1.8713945)
(1.8138714e-06 -1.7913936e-06 1.8713948)
(3.686432e-06 -1.6211095e-06 1.8713957)
(5.4949522e-06 -1.4379451e-06 1.8713972)
(7.2686494e-06 -1.234621e-06 1.8713992)
(2.7164213e-06 -1.0877519e-06 1.8714019)
(-3.4394541e-06 -5.0495797e-07 1.8713987)
(-7.7535598e-06 -4.0050703e-07 1.8713963)
(-4.0657325e-06 -2.7840589e-07 1.8713951)
(-1.9492108e-06 -9.9061649e-08 1.8713945)
(4.6996104e-08 4.6996123e-08 1.8713944)
(1.98982e-06 2.0969494e-07 1.8713948)
(3.8469432e-06 3.7208369e-07 1.8713957)
(5.6570846e-06 5.3019443e-07 1.8713972)
(7.4098904e-06 6.7065334e-07 1.8713993)
(2.7565214e-06 7.7019308e-07 1.871402)
(-3.4087588e-06 1.3875546e-06 1.8713989)
(-7.6249294e-06 1.495856e-06 1.8713966)
(-3.9218068e-06 1.6617188e-06 1.8713955)
(-1.7913936e-06 1.8138714e-06 1.8713948)
(2.0969495e-07 1.98982e-06 1.8713948)
(2.1389589e-06 2.138959e-06 1.8713952)
(4.0069315e-06 2.2902891e-06 1.8713962)
(5.7935219e-06 2.4397892e-06 1.8713977)
(7.5086481e-06 2.5639029e-06 1.8713999)
(2.7827811e-06 2.6417471e-06 1.8714026)
(-3.3672531e-06 3.1061915e-06 1.8713997)
(-7.4793956e-06 3.2827394e-06 1.8713974)
(-3.7477171e-06 3.4934946e-06 1.8713963)
(-1.6211095e-06 3.686432e-06 1.8713957)
(3.7208369e-07 3.8469431e-06 1.8713957)
(2.2902891e-06 4.0069315e-06 1.8713962)
(4.1477734e-06 4.1477735e-06 1.8713972)
(5.9306984e-06 4.2894701e-06 1.8713988)
(7.6118483e-06 4.4274969e-06 1.871401)
(2.8084175e-06 4.5242874e-06 1.8714037)
(-3.2910602e-06 4.5656179e-06 1.871401)
(-7.2376262e-06 4.9701453e-06 1.8713987)
(-3.5181143e-06 5.2705961e-06 1.8713977)
(-1.4379451e-06 5.4949522e-06 1.8713972)
(5.3019444e-07 5.6570846e-06 1.8713972)
(2.4397893e-06 5.7935219e-06 1.8713977)
(4.2894701e-06 5.9306983e-06 1.8713988)
(6.0732453e-06 6.0732454e-06 1.8714004)
(7.7434654e-06 6.2424508e-06 1.8714026)
(2.8473081e-06 6.4256227e-06 1.8714054)
(-3.0975682e-06 5.5501763e-06 1.8714027)
(-6.7744175e-06 6.6652339e-06 1.8714006)
(-3.2229102e-06 7.0596973e-06 1.8713997)
(-1.2346211e-06 7.2686495e-06 1.8713992)
(6.7065334e-07 7.4098905e-06 1.8713993)
(2.5639029e-06 7.5086481e-06 1.8713999)
(4.4274969e-06 7.6118483e-06 1.871401)
(6.2424508e-06 7.7434654e-06 1.8714026)
(7.9642257e-06 7.9642257e-06 1.8714049)
(2.9305322e-06 8.4161904e-06 1.8714078)
(-2.5476884e-06 1.9610672e-06 1.8714047)
(-5.7281052e-06 2.510947e-06 1.8714031)
(-2.9146987e-06 2.6586086e-06 1.8714023)
(-1.0877519e-06 2.7164213e-06 1.8714019)
(7.70193e-07 2.7565214e-06 1.871402)
(2.6417471e-06 2.7827811e-06 1.8714026)
(4.5242874e-06 2.8084176e-06 1.8714037)
(6.4256228e-06 2.847308e-06 1.8714054)
(8.4161904e-06 2.9305322e-06 1.8714078)
(3.1486179e-06 3.1486179e-06 1.8714109)
(-5.2205379e-06 -5.2205379e-06 1.8714941)
(-1.1603824e-05 -4.4980393e-06 1.8714914)
(-5.9719388e-06 -4.293258e-06 1.87149)
(-3.0597758e-06 -4.2534006e-06 1.8714893)
(-4.7968775e-07 -4.2052041e-06 1.8714891)
(1.927646e-06 -4.1664443e-06 1.8714894)
(4.1467239e-06 -4.112432e-06 1.8714903)
(6.0698854e-06 -4.0152294e-06 1.8714916)
(7.427581e-06 -3.7650783e-06 1.8714933)
(2.6386269e-06 -3.0542011e-06 1.8714953)
(-4.4980393e-06 -1.1603824e-05 1.8714914)
(-1.0212905e-05 -1.0212904e-05 1.871489)
(-5.6049807e-06 -9.831455e-06 1.8714878)
(-2.927695e-06 -9.5890606e-06 1.8714871)
(-3.4925342e-07 -9.4615945e-06 1.8714869)
(2.0668042e-06 -9.3021394e-06 1.8714872)
(4.3735463e-06 -9.1147022e-06 1.8714881)
(6.5909158e-06 -8.80603e-06 1.8714894)
(8.8691235e-06 -8.2094155e-06 1.8714913)
(3.3495041e-06 -6.8623801e-06 1.8714938)
(-4.293258e-06 -5.9719388e-06 1.87149)
(-9.831455e-06 -5.6049807e-06 1.8714878)
(-5.348095e-06 -5.348095e-06 1.8714866)
(-2.6899153e-06 -5.1261271e-06 1.871486)
(-1.9276651e-07 -4.9283729e-06 1.8714858)
(2.2745383e-06 -4.7440416e-06 1.8714862)
(4.6428333e-06 -4.5234016e-06 1.8714871)
(6.9751721e-06 -4.2291294e-06 1.8714885)
(9.3712309e-06 -3.8525023e-06 1.8714905)
(3.5366505e-06 -3.4610211e-06 1.8714931)
(-4.2534006e-06 -3.0597758e-06 1.8714893)
(-9.5890606e-06 -2.927695e-06 1.8714871)
(-5.1261271e-06 -2.6899153e-06 1.871486)
(-2.5079729e-06 -2.5079729e-06 1.8714853)
(3.2832048e-08 -2.2983266e-06 1.8714852)
(2.4717754e-06 -2.0956952e-06 1.8714857)
(4.8884584e-06 -1.8789177e-06 1.8714866)
(7.2618151e-06 -1.6441664e-06 1.8714881)
(9.6372319e-06 -1.3850478e-06 1.8714902)
(3.6104916e-06 -1.1983166e-06 1.8714928)
(-4.2052041e-06 -4.7968777e-07 1.8714891)
(-9.4615945e-06 -3.4925345e-07 1.8714869)
(-4.9283729e-06 -1.927665e-07 1.8714858)
(-2.2983266e-06 3.2832086e-08 1.8714852)
(2.1951117e-07 2.1951116e-07 1.8714852)
(2.6939472e-06 4.2590516e-07 1.8714857)
(5.0943622e-06 6.3375467e-07 1.8714866)
(7.469042e-06 8.3599443e-07 1.8714882)
(9.8170807e-06 1.0167455e-06 1.8714903)
(3.661138e-06 1.1433096e-06 1.871493)
(-4.1664443e-06 1.927646e-06 1.8714894)
(-9.3021394e-06 2.0668042e-06 1.8714872)
(-4.7440416e-06 2.2745383e-06 1.8714862)
(-2.0956952e-06 2.4717755e-06 1.8714857)
(4.2590512e-07 2.6939471e-06 1.8714857)
(2.8860189e-06 2.886019e-06 1.8714862)
(5.2985477e-06 3.0799933e-06 1.8714872)
(7.6448059e-06 3.2725149e-06 1.8714888)
(9.9445471e-06 3.432976e-06 1.8714909)
(3.6948677e-06 3.53528e-06 1.8714936)
(-4.112432e-06 4.1467239e-06 1.8714903)
(-9.1147022e-06 4.3735463e-06 1.8714881)
(-4.5234016e-06 4.6428333e-06 1.8714871)
(-1.8789178e-06 4.8884584e-06 1.8714866)
(6.3375471e-07 5.0943622e-06 1.8714866)
(3.0799933e-06 5.2985477e-06 1.8714872)
(5.480858e-06 5.4808581e-06 1.8714883)
(7.8220248e-06 5.6649582e-06 1.8714899)
(1.0079846e-05 5.8473543e-06 1.8714921)
(3.7293406e-06 5.9752766e-06 1.8714948)
(-4.0152294e-06 6.0698853e-06 1.8714916)
(-8.80603e-06 6.5909158e-06 1.8714894)
(-4.2291294e-06 6.975172e-06 1.8714885)
(-1.6441663e-06 7.2618151e-06 1.8714881)
(8.3599436e-07 7.4690421e-06 1.8714882)
(3.2725148e-06 7.6448058e-06 1.8714888)
(5.6649583e-06 7.8220247e-06 1.8714899)
(8.0113021e-06 8.0113021e-06 1.8714915)
(1.0254865e-05 8.2362463e-06 1.8714938)
(3.7801493e-06 8.4881406e-06 1.8714965)
(-3.7650783e-06 7.427581e-06 1.8714933)
(-8.2094155e-06 8.8691235e-06 1.8714913)
(-3.8525024e-06 9.3712309e-06 1.8714905)
(-1.3850478e-06 9.6372319e-06 1.8714902)
(1.0167455e-06 9.8170807e-06 1.8714903)
(3.432976e-06 9.9445471e-06 1.8714909)
(5.8473543e-06 1.0079846e-05 1.8714921)
(8.2362464e-06 1.0254865e-05 1.8714938)
(1.0556684e-05 1.0556684e-05 1.871496)
(3.8972701e-06 1.1184144e-05 1.8714989)
(-3.0542011e-06 2.6386269e-06 1.8714953)
(-6.8623801e-06 3.3495041e-06 1.8714938)
(-3.461021e-06 3.5366505e-06 1.8714931)
(-1.1983166e-06 3.6104917e-06 1.8714928)
(1.1433096e-06 3.661138e-06 1.871493)
(3.5352799e-06 3.6948677e-06 1.8714936)
(5.9752767e-06 3.7293406e-06 1.8714948)
(8.4881406e-06 3.7801493e-06 1.8714965)
(1.1184144e-05 3.8972701e-06 1.8714989)
(4.1984558e-06 4.1984557e-06 1.8715021)
(-6.129195e-06 -6.129195e-06 1.8716059)
(-1.3592537e-05 -5.2760177e-06 1.8716033)
(-6.9369069e-06 -5.0380694e-06 1.8716021)
(-3.4816262e-06 -4.9891375e-06 1.8716014)
(-3.9094693e-07 -4.9325778e-06 1.8716013)
(2.5161439e-06 -4.8858341e-06 1.8716017)
(5.2201505e-06 -4.8197592e-06 1.8716025)
(7.5933626e-06 -4.7022478e-06 1.8716038)
(9.3049865e-06 -4.3968652e-06 1.8716055)
(3.3120982e-06 -3.5292167e-06 1.8716075)
(-5.2760177e-06 -1.3592537e-05 1.8716033)
(-1.1955848e-05 -1.1955848e-05 1.871601)
(-6.5065867e-06 -1.150494e-05 1.8715999)
(-3.3233889e-06 -1.1221545e-05 1.8715993)
(-2.3599176e-07 -1.1066057e-05 1.8715992)
(2.6853718e-06 -1.0876146e-05 1.8715996)
(5.4955299e-06 -1.0647137e-05 1.8716004)
(8.2277035e-06 -1.0273649e-05 1.8716018)
(1.1064533e-05 -9.5471347e-06 1.8716037)
(4.1797467e-06 -7.9075379e-06 1.8716062)
(-5.0380694e-06 -6.936907e-06 1.8716021)
(-1.150494e-05 -6.5065867e-06 1.8715999)
(-6.2026032e-06 -6.2026031e-06 1.8715988)
(-3.0427427e-06 -5.9388087e-06 1.8715983)
(-4.5548546e-08 -5.7024578e-06 1.8715982)
(2.9350639e-06 -5.4797529e-06 1.8715986)
(5.8226479e-06 -5.2132059e-06 1.8715995)
(8.6933648e-06 -4.8560026e-06 1.871601)
(1.1671097e-05 -4.400182e-06 1.871603)
(4.4051627e-06 -3.9280757e-06 1.8716055)
(-4.9891375e-06 -3.4816261e-06 1.8716014)
(-1.1221545e-05 -3.3233888e-06 1.8715993)
(-5.9388087e-06 -3.0427427e-06 1.8715983)
(-2.8232435e-06 -2.8232435e-06 1.8715977)
(2.2306405e-07 -2.5723556e-06 1.8715977)
(3.1746237e-06 -2.3272778e-06 1.8715982)
(6.1192802e-06 -2.0653483e-06 1.8715991)
(9.0407274e-06 -1.7803149e-06 1.8716006)
(1.199246e-05 -1.4668801e-06 1.8716027)
(4.4944843e-06 -1.2412486e-06 1.8716053)
(-4.9325778e-06 -3.9094691e-07 1.8716013)
(-1.1066057e-05 -2.3599181e-07 1.8715992)
(-5.7024578e-06 -4.5548549e-08 1.8715982)
(-2.5723557e-06 2.2306404e-07 1.8715977)
(4.5041717e-07 4.5041723e-07 1.8715977)
(3.4420712e-06 6.9907544e-07 1.8715982)
(6.3696107e-06 9.515397e-07 1.8715992)
(9.291833e-06 1.1967709e-06 1.8716008)
(1.2210164e-05 1.4172778e-06 1.8716029)
(4.5555837e-06 1.5700664e-06 1.8716055)
(-4.8858341e-06 2.5161438e-06 1.8716017)
(-1.0876146e-05 2.6853718e-06 1.8715996)
(-5.4797529e-06 2.9350638e-06 1.8715986)
(-2.3272777e-06 3.1746237e-06 1.8715982)
(6.9907544e-07 3.4420712e-06 1.8715982)
(3.6757462e-06 3.6757463e-06 1.8715988)
(6.6169756e-06 3.9114466e-06 1.8715998)
(9.5064655e-06 4.1465947e-06 1.8716014)
(1.2365756e-05 4.3421558e-06 1.8716035)
(4.5963434e-06 4.4684934e-06 1.8716062)
(-4.8197592e-06 5.2201505e-06 1.8716025)
(-1.0647137e-05 5.4955299e-06 1.8716004)
(-5.2132058e-06 5.8226479e-06 1.8715995)
(-2.0653483e-06 6.1192802e-06 1.8715991)
(9.5153969e-07 6.3696107e-06 1.8715992)
(3.9114467e-06 6.6169756e-06 1.8715998)
(6.8404591e-06 6.8404592e-06 1.8716009)
(9.7225421e-06 7.0656657e-06 1.8716025)
(1.2532063e-05 7.2932969e-06 1.8716047)
(4.6398088e-06 7.4515867e-06 1.8716074)
(-4.7022478e-06 7.5933625e-06 1.8716038)
(-1.0273649e-05 8.2277036e-06 1.8716018)
(-4.8560026e-06 8.6933648e-06 1.871601)
(-1.7803149e-06 9.0407274e-06 1.8716006)
(1.1967708e-06 9.291833e-06 1.8716008)
(4.1465946e-06 9.5064655e-06 1.8716014)
(7.0656657e-06 9.7225421e-06 1.8716025)
(9.9593032e-06 9.9593032e-06 1.8716042)
(1.2751677e-05 1.0239373e-05 1.8716064)
(4.7018699e-06 1.0558592e-05 1.8716091)
(-4.3968651e-06 9.3049865e-06 1.8716055)
(-9.5471347e-06 1.1064533e-05 1.8716037)
(-4.4001821e-06 1.1671097e-05 1.871603)
(-1.4668801e-06 1.199246e-05 1.8716027)
(1.4172778e-06 1.2210164e-05 1.8716029)
(4.3421557e-06 1.2365756e-05 1.8716035)
(7.2932968e-06 1.2532063e-05 1.8716047)
(1.0239373e-05 1.2751677e-05 1.8716064)
(1.3131351e-05 1.3131351e-05 1.8716087)
(4.8526213e-06 1.3930781e-05 1.8716115)
(-3.5292167e-06 3.3120982e-06 1.8716075)
(-7.907538e-06 4.1797467e-06 1.8716062)
(-3.9280757e-06 4.4051627e-06 1.8716055)
(-1.2412486e-06 4.4944843e-06 1.8716053)
(1.5700664e-06 4.5555837e-06 1.8716055)
(4.4684934e-06 4.5963433e-06 1.8716062)
(7.4515867e-06 4.6398088e-06 1.8716074)
(1.0558592e-05 4.7018699e-06 1.8716091)
(1.3930781e-05 4.8526213e-06 1.8716115)
(5.2348233e-06 5.2348232e-06 1.8716146)
(-6.9924007e-06 -6.9924007e-06 1.8717388)
(-1.5466272e-05 -6.013641e-06 1.8717363)
(-7.8172887e-06 -5.7441913e-06 1.8717351)
(-3.8353191e-06 -5.6865138e-06 1.8717346)
(-2.5163533e-07 -5.622047e-06 1.8717345)
(3.1369329e-06 -5.5677622e-06 1.8717349)
(6.3074491e-06 -5.4901405e-06 1.8717357)
(9.1094097e-06 -5.3528106e-06 1.8717371)
(1.1153513e-05 -4.9940466e-06 1.8717388)
(3.9724567e-06 -3.9749994e-06 1.8717407)
(-6.013641e-06 -1.5466272e-05 1.8717363)
(-1.3593957e-05 -1.3593958e-05 1.8717341)
(-7.3265979e-06 -1.3076848e-05 1.8717331)
(-3.6521026e-06 -1.2754449e-05 1.8717325)
(-7.3507913e-08 -1.2572416e-05 1.8717325)
(3.3347925e-06 -1.2353596e-05 1.8717329)
(6.6298765e-06 -1.2084745e-05 1.8717338)
(9.8535506e-06 -1.1648382e-05 1.8717352)
(1.322023e-05 -1.079634e-05 1.871737)
(4.9915039e-06 -8.8742402e-06 1.8717394)
(-5.7441913e-06 -7.8172887e-06 1.8717351)
(-1.3076848e-05 -7.3265979e-06 1.8717331)
(-6.9777799e-06 -6.9777799e-06 1.8717321)
(-3.3308869e-06 -6.6737269e-06 1.8717316)
(1.4921698e-07 -6.4005975e-06 1.8717316)
(3.6246032e-06 -6.1407884e-06 1.871732)
(7.0126635e-06 -5.8302197e-06 1.871733)
(1.0397815e-05 -5.4122767e-06 1.8717344)
(1.3927655e-05 -4.8798968e-06 1.8717363)
(5.2538568e-06 -4.330103e-06 1.8717388)
(-5.6865138e-06 -3.8353191e-06 1.8717346)
(-1.2754449e-05 -3.6521026e-06 1.8717325)
(-6.6737269e-06 -3.3308869e-06 1.8717316)
(-3.0749203e-06 -3.0749203e-06 1.8717311)
(4.5943058e-07 -2.7848077e-06 1.8717312)
(3.9051703e-06 -2.4985205e-06 1.8717316)
(7.3583882e-06 -2.1930882e-06 1.8717326)
(1.0803874e-05 -1.8593947e-06 1.8717341)
(1.4302403e-05 -1.4936735e-06 1.8717361)
(5.3580331e-06 -1.2305732e-06 1.8717387)
(-5.6220469e-06 -2.5163532e-07 1.8717345)
(-1.2572415e-05 -7.3507913e-08 1.8717325)
(-6.4005976e-06 1.4921702e-07 1.8717316)
(-2.7848077e-06 4.5943059e-07 1.8717312)
(7.2561679e-07 7.2561684e-07 1.8717312)
(4.2163227e-06 1.0150357e-06 1.8717317)
(7.6517893e-06 1.3107457e-06 1.8717328)
(1.1097229e-05 1.5973786e-06 1.8717343)
(1.4556476e-05 1.8567449e-06 1.8717363)
(5.429257e-06 2.0350674e-06 1.8717389)
(-5.5677622e-06 3.136933e-06 1.8717349)
(-1.2353596e-05 3.3347925e-06 1.8717329)
(-6.1407884e-06 3.6246032e-06 1.871732)
(-2.4985204e-06 3.9051703e-06 1.8717316)
(1.0150357e-06 4.2163227e-06 1.8717317)
(4.4902992e-06 4.4902993e-06 1.8717323)
(7.940731e-06 4.7662177e-06 1.8717334)
(1.1349873e-05 5.0434433e-06 1.8717349)
(1.4740092e-05 5.2727407e-06 1.871737)
(5.4769148e-06 5.4226597e-06 1.8717396)
(-5.4901406e-06 6.3074491e-06 1.8717357)
(-1.2084745e-05 6.6298765e-06 1.8717338)
(-5.8302197e-06 7.0126635e-06 1.871733)
(-2.1930882e-06 7.3583882e-06 1.8717326)
(1.3107457e-06 7.6517893e-06 1.8717328)
(4.7662177e-06 7.940731e-06 1.8717334)
(8.2049333e-06 8.2049334e-06 1.8717345)
(1.1603752e-05 8.4692262e-06 1.8717361)
(1.4935693e-05 8.7413148e-06 1.8717382)
(5.5292031e-06 8.9289709e-06 1.8717408)
(-5.3528106e-06 9.1094096e-06 1.8717371)
(-1.1648382e-05 9.8535506e-06 1.8717352)
(-5.4122767e-06 1.0397815e-05 1.8717344)
(-1.8593946e-06 1.0803874e-05 1.8717341)
(1.5973786e-06 1.1097229e-05 1.8717343)
(5.0434433e-06 1.1349873e-05 1.8717349)
(8.4692262e-06 1.1603752e-05 1.8717361)
(1.1886254e-05 1.1886254e-05 1.8717377)
(1.5199837e-05 1.2221235e-05 1.8717399)
(5.6020189e-06 1.2605737e-05 1.8717426)
(-4.9940466e-06 1.1153513e-05 1.8717388)
(-1.079634e-05 1.322023e-05 1.871737)
(-4.8798968e-06 1.3927655e-05 1.8717363)
(-1.4936736e-06 1.4302403e-05 1.8717361)
(1.8567448e-06 1.4556476e-05 1.8717363)
(5.2727407e-06 1.4740092e-05 1.871737)
(8.7413148e-06 1.4935693e-05 1.8717382)
(1.2221235e-05 1.5199837e-05 1.8717399)
(1.5655175e-05 1.5655175e-05 1.8717421)
(5.7855375e-06 1.6621677e-05 1.8717449)
(-3.9749994e-06 3.9724567e-06 1.8717407)
(-8.8742402e-06 4.9915039e-06 1.8717394)
(-4.3301029e-06 5.2538568e-06 1.8717388)
(-1.2305732e-06 5.3580331e-06 1.8717387)
(2.0350674e-06 5.429257e-06 1.8717389)
(5.4226597e-06 5.4769148e-06 1.8717396)
(8.9289709e-06 5.529203e-06 1.8717408)
(1.2605737e-05 5.6020189e-06 1.8717426)
(1.6621677e-05 5.7855375e-06 1.8717449)
(6.2463536e-06 6.2463536e-06 1.8717478)
(-7.8076951e-06 -7.8076951e-06 1.8718918)
(-1.7224362e-05 -6.7092186e-06 1.8718894)
(-8.6196572e-06 -6.4100647e-06 1.8718884)
(-4.130516e-06 -6.3439754e-06 1.8718879)
(-7.4138664e-08 -6.2718767e-06 1.8718879)
(3.7746078e-06 -6.2103075e-06 1.8718883)
(7.3899543e-06 -6.1217471e-06 1.8718891)
(1.059848e-05 -5.9655508e-06 1.8718904)
(1.2953016e-05 -5.5555915e-06 1.8718921)
(4.612948e-06 -4.391425e-06 1.871894)
(-6.7092186e-06 -1.7224362e-05 1.8718894)
(-1.5127917e-05 -1.5127917e-05 1.8718874)
(-8.0717924e-06 -1.4548097e-05 1.8718865)
(-3.9232339e-06 -1.4188837e-05 1.871886)
(1.2636312e-07 -1.3981183e-05 1.871886)
(3.9998022e-06 -1.3734674e-05 1.8718864)