/*--------------------------------*- C++ -*----------------------------------*\
| =========                 |                                                 |
| \\      /  F ield         | OpenFOAM: The Open Source CFD Toolbox           |
|  \\    /   O peration     | Version:  v2106                                 |
|   \\  /    A nd           | Website:  www.openfoam.com                      |
|    \\/     M anipulation  |                                                 |
\*---------------------------------------------------------------------------*/
FoamFile
{
    version     2.0;
    format      ascii;
    arch        "LSB;label=32;scalar=64";
    class       volScalarField;
    location    "45";
    object      gradTz;
}
// * * * * * * * * * * * * * * * * * * * * * * * * * * * * * * * * * * * * * //

dimensions      [0 -1 0 1 0 0 0];

internalField   nonuniform List<scalar> 
4000
(
748.50797
748.50614
748.50531
748.50484
748.50463
748.50466
748.50489
748.5053
748.50581
748.5063
748.50614
748.50457
748.50381
748.50334
748.50315
748.50319
748.50344
748.50387
748.50444
748.50509
748.50531
748.50381
748.50305
748.50264
748.50245
748.50251
748.50277
748.50323
748.50385
748.50455
748.50484
748.50334
748.50264
748.50221
748.50206
748.50213
748.50242
748.5029
748.50354
748.50427
748.50463
748.50315
748.50245
748.50206
748.50191
748.50201
748.50231
748.50282
748.50348
748.50422
748.50466
748.50319
748.50251
748.50213
748.50201
748.50212
748.50244
748.50296
748.50364
748.50439
748.50489
748.50344
748.50277
748.50242
748.50231
748.50244
748.50278
748.50332
748.50401
748.50477
748.5053
748.50387
748.50323
748.5029
748.50282
748.50296
748.50332
748.50387
748.50457
748.50534
748.50581
748.50444
748.50385
748.50354
748.50348
748.50364
748.50401
748.50457
748.50529
748.50608
748.5063
748.50509
748.50455
748.50427
748.50422
748.50439
748.50477
748.50534
748.50608
748.50689
748.51709
748.51562
748.51489
748.51446
748.51428
748.51433
748.51458
748.51502
748.5156
748.51627
748.51562
748.51435
748.51368
748.51326
748.5131
748.51315
748.51342
748.51389
748.51454
748.5154
748.51489
748.51368
748.51303
748.51265
748.51249
748.51257
748.51285
748.51335
748.51404
748.51495
748.51446
748.51326
748.51265
748.51227
748.51214
748.51223
748.51254
748.51306
748.51378
748.5147
748.51428
748.5131
748.51249
748.51214
748.51202
748.51213
748.51246
748.513
748.51373
748.51468
748.51433
748.51315
748.51257
748.51223
748.51213
748.51226
748.51261
748.51316
748.51391
748.51486
748.51458
748.51342
748.51285
748.51254
748.51246
748.51261
748.51297
748.51354
748.5143
748.51526
748.51502
748.51389
748.51335
748.51306
748.513
748.51316
748.51354
748.51412
748.51491
748.51588
748.5156
748.51454
748.51404
748.51378
748.51373
748.51391
748.5143
748.51491
748.51571
748.51671
748.51627
748.5154
748.51495
748.5147
748.51468
748.51486
748.51526
748.51588
748.51671
748.51778
748.53467
748.53341
748.53277
748.5324
748.53225
748.53232
748.5326
748.53308
748.53372
748.5345
748.53341
748.53231
748.53173
748.53136
748.53123
748.53131
748.53161
748.53211
748.53282
748.5338
748.53277
748.53173
748.53116
748.53082
748.5307
748.5308
748.53112
748.53165
748.5324
748.53342
748.5324
748.53136
748.53082
748.5305
748.5304
748.53051
748.53085
748.5314
748.53218
748.53323
748.53225
748.53123
748.5307
748.5304
748.53031
748.53045
748.5308
748.53137
748.53217
748.53323
748.53232
748.53131
748.5308
748.53051
748.53045
748.5306
748.53097
748.53156
748.53238
748.53344
748.5326
748.53161
748.53112
748.53085
748.5308
748.53097
748.53136
748.53197
748.53279
748.53387
748.53308
748.53211
748.53165
748.5314
748.53137
748.53156
748.53197
748.53259
748.53344
748.53453
748.53372
748.53282
748.5324
748.53218
748.53217
748.53238
748.53279
748.53344
748.53431
748.53543
748.5345
748.5338
748.53342
748.53323
748.53323
748.53344
748.53387
748.53453
748.53543
748.53666
748.56166
748.56049
748.55992
748.55959
748.55947
748.55958
748.55988
748.56039
748.56106
748.56187
748.56049
748.55947
748.55895
748.55863
748.55853
748.55864
748.55896
748.55949
748.56024
748.56124
748.55992
748.55895
748.55844
748.55814
748.55806
748.55818
748.55852
748.55908
748.55987
748.56092
748.55959
748.55863
748.55814
748.55786
748.5578
748.55794
748.5583
748.55888
748.55969
748.56076
748.55947
748.55853
748.55806
748.5578
748.55774
748.5579
748.55828
748.55888
748.55971
748.5608
748.55958
748.55864
748.55818
748.55794
748.5579
748.55808
748.55848
748.5591
748.55994
748.56103
748.55988
748.55896
748.55852
748.5583
748.55828
748.55848
748.55889
748.55953
748.56039
748.56149
748.56039
748.55949
748.55908
748.55888
748.55888
748.5591
748.55953
748.56018
748.56106
748.56217
748.56106
748.56024
748.55987
748.55969
748.55971
748.55994
748.56039
748.56106
748.56196
748.56312
748.56187
748.56124
748.56092
748.56076
748.5608
748.56103
748.56149
748.56217
748.56312
748.56437
748.59766
748.59654
748.59602
748.59573
748.59565
748.59577
748.5961
748.59662
748.59731
748.59812
748.59654
748.59558
748.5951
748.59482
748.59475
748.59489
748.59523
748.59577
748.59653
748.59753
748.59602
748.5951
748.59464
748.59438
748.59432
748.59447
748.59483
748.59541
748.5962
748.59725
748.59573
748.59482
748.59438
748.59414
748.5941
748.59427
748.59464
748.59524
748.59606
748.59713
748.59565
748.59475
748.59432
748.5941
748.59408
748.59426
748.59466
748.59527
748.59611
748.59719
748.59577
748.59489
748.59447
748.59427
748.59426
748.59446
748.59487
748.59551
748.59636
748.59745
748.5961
748.59523
748.59483
748.59464
748.59466
748.59487
748.5953
748.59595
748.59682
748.59792
748.59662
748.59577
748.59541
748.59524
748.59527
748.59551
748.59595
748.59662
748.59751
748.59862
748.59731
748.59653
748.5962
748.59606
748.59611
748.59636
748.59682
748.59751
748.59842
748.59957
748.59812
748.59753
748.59725
748.59713
748.59719
748.59745
748.59792
748.59862
748.59957
748.60082
748.64237
748.64131
748.64083
748.64057
748.64052
748.64066
748.641
748.64153
748.64222
748.64302
748.64131
748.6404
748.63996
748.63971
748.63967
748.63982
748.64018
748.64073
748.64148
748.64247
748.64083
748.63996
748.63953
748.63931
748.63927
748.63944
748.63981
748.64039
748.64118
748.64221
748.64057
748.63971
748.63931
748.63909
748.63908
748.63926
748.63965
748.64025
748.64107
748.64212
748.64052
748.63967
748.63927
748.63908
748.63908
748.63928
748.63969
748.64031
748.64114
748.6422
748.64066
748.63982
748.63944
748.63926
748.63928
748.6395
748.63992
748.64056
748.64141
748.64248
748.641
748.64018
748.63981
748.63965
748.63969
748.63992
748.64036
748.64101
748.64188
748.64296
748.64153
748.64073
748.64039
748.64025
748.64031
748.64056
748.64101
748.64168
748.64256
748.64366
748.64222
748.64148
748.64118
748.64107
748.64114
748.64141
748.64188
748.64256
748.64347
748.6446
748.64302
748.64247
748.64221
748.64212
748.6422
748.64248
748.64296
748.64366
748.6446
748.64583
748.69551
748.6945
748.69405
748.69383
748.6938
748.69395
748.6943
748.69482
748.6955
748.69628
748.6945
748.69364
748.69323
748.69301
748.69299
748.69316
748.69352
748.69406
748.69481
748.69576
748.69405
748.69323
748.69284
748.69264
748.69263
748.69281
748.69319
748.69376
748.69454
748.69554
748.69383
748.69301
748.69264
748.69245
748.69246
748.69266
748.69305
748.69364
748.69445
748.69546
748.6938
748.69299
748.69263
748.69246
748.69248
748.69269
748.6931
748.69371
748.69453
748.69556
748.69395
748.69316
748.69281
748.69266
748.69269
748.69292
748.69335
748.69398
748.69481
748.69585
748.6943
748.69352
748.69319
748.69305
748.6931
748.69335
748.69379
748.69443
748.69528
748.69633
748.69482
748.69406
748.69376
748.69364
748.69371
748.69398
748.69443
748.69509
748.69596
748.69702
748.6955
748.69481
748.69454
748.69445
748.69453
748.69481
748.69528
748.69596
748.69685
748.69795
748.69628
748.69576
748.69554
748.69546
748.69556
748.69585
748.69633
748.69702
748.69795
748.69914
748.75672
748.75577
748.75536
748.75516
748.75514
748.75531
748.75565
748.75617
748.75683
748.75758
748.75577
748.75496
748.75459
748.75439
748.75439
748.75456
748.75492
748.75546
748.75618
748.7571
748.75536
748.75459
748.75422
748.75405
748.75406
748.75425
748.75462
748.75518
748.75593
748.7569
748.75516
748.75439
748.75405
748.75389
748.75391
748.75411
748.7545
748.75509
748.75586
748.75684
748.75514
748.75439
748.75406
748.75391
748.75394
748.75416
748.75457
748.75517
748.75596
748.75695
748.75531
748.75456
748.75425
748.75411
748.75416
748.7544
748.75482
748.75543
748.75624
748.75724
748.75565
748.75492
748.75462
748.7545
748.75457
748.75482
748.75526
748.75589
748.7567
748.75771
748.75617
748.75546
748.75518
748.75509
748.75517
748.75543
748.75589
748.75653
748.75737
748.75839
748.75683
748.75618
748.75593
748.75586
748.75596
748.75624
748.7567
748.75737
748.75823
748.75929
748.75758
748.7571
748.7569
748.75684
748.75695
748.75724
748.75771
748.75839
748.75929
748.76044
748.82562
748.82473
748.82436
748.82418
748.82418
748.82435
748.82469
748.82519
748.82582
748.82654
748.82473
748.82398
748.82364
748.82347
748.82348
748.82366
748.82401
748.82453
748.82522
748.8261
748.82436
748.82364
748.82331
748.82316
748.82317
748.82337
748.82373
748.82428
748.825
748.82592
748.82418
748.82347
748.82316
748.82301
748.82305
748.82326
748.82364
748.8242
748.82494
748.82588
748.82418
748.82348
748.82317
748.82305
748.8231
748.82332
748.82371
748.82429
748.82505
748.826
748.82435
748.82366
748.82337
748.82326
748.82332
748.82355
748.82397
748.82456
748.82533
748.82628
748.82469
748.82401
748.82373
748.82364
748.82371
748.82397
748.82439
748.825
748.82578
748.82674
748.82519
748.82453
748.82428
748.8242
748.82429
748.82456
748.825
748.82562
748.82642
748.8274
748.82582
748.82522
748.825
748.82494
748.82505
748.82533
748.82578
748.82642
748.82724
748.82825
748.82654
748.8261
748.82592
748.82588
748.826
748.82628
748.82674
748.8274
748.82825
748.82935
748.90177
748.90096
748.90062
748.90046
748.90047
748.90065
748.90098
748.90145
748.90206
748.90274
748.90096
748.90026
748.89995
748.89981
748.89983
748.90001
748.90035
748.90084
748.9015
748.90233
748.90062
748.89995
748.89965
748.89952
748.89955
748.89975
748.9001
748.90062
748.90131
748.90218
748.90046
748.89981
748.89952
748.89941
748.89945
748.89965
748.90002
748.90056
748.90127
748.90215
748.90047
748.89983
748.89955
748.89945
748.8995
748.89972
748.90011
748.90066
748.90138
748.90227
748.90065
748.90001
748.89975
748.89965
748.89972
748.89996
748.90035
748.90092
748.90165
748.90255
748.90098
748.90035
748.9001
748.90002
748.90011
748.90035
748.90076
748.90134
748.90209
748.903
748.90145
748.90084
748.90062
748.90056
748.90066
748.90092
748.90134
748.90193
748.9027
748.90362
748.90206
748.9015
748.90131
748.90127
748.90138
748.90165
748.90209
748.9027
748.90348
748.90443
748.90274
748.90233
748.90218
748.90215
748.90227
748.90255
748.903
748.90362
748.90443
748.90546
748.98471
748.98397
748.98366
748.98353
748.98356
748.98373
748.98404
748.98449
748.98506
748.9857
748.98397
748.98334
748.98306
748.98294
748.98297
748.98315
748.98347
748.98394
748.98456
748.98533
748.98366
748.98306
748.98279
748.98269
748.98272
748.98291
748.98325
748.98374
748.98439
748.9852
748.98353
748.98294
748.98269
748.98259
748.98264
748.98284
748.98319
748.9837
748.98436
748.98519
748.98356
748.98297
748.98272
748.98264
748.9827
748.98291
748.98328
748.9838
748.98447
748.98531
748.98373
748.98315
748.98291
748.98284
748.98291
748.98314
748.98352
748.98405
748.98474
748.98558
748.98404
748.98347
748.98325
748.98319
748.98328
748.98352
748.98391
748.98445
748.98515
748.986
748.98449
748.98394
748.98374
748.9837
748.9838
748.98405
748.98445
748.98501
748.98573
748.98659
748.98506
748.98456
748.98439
748.98436
748.98447
748.98474
748.98515
748.98573
748.98646
748.98735
748.9857
748.98533
748.9852
748.98519
748.98531
748.98558
748.986
748.98659
748.98735
748.98831
749.07392
749.07325
749.07299
749.07288
749.07291
749.07308
749.07337
749.0738
749.07432
749.07491
749.07325
749.07269
749.07245
749.07234
749.07238
749.07256
749.07286
749.0733
749.07387
749.07459
749.07299
749.07245
749.07221
749.07212
749.07217
749.07235
749.07267
749.07313
749.07373
749.07448
749.07288
749.07234
749.07212
749.07204
749.0721
749.0723
749.07263
749.0731
749.07371
749.07448
749.07291
749.07238
749.07217
749.0721
749.07217
749.07238
749.07272
749.0732
749.07383
749.0746
749.07308
749.07256
749.07235
749.0723
749.07238
749.07259
749.07295
749.07344
749.07408
749.07485
749.07337
749.07286
749.07267
749.07263
749.07272
749.07295
749.07331
749.07382
749.07447
749.07525
749.0738
749.0733
749.07313
749.0731
749.0732
749.07344
749.07382
749.07434
749.075
749.07579
749.07432
749.07387
749.07373
749.07371
749.07383
749.07408
749.07447
749.075
749.07568
749.0765
749.07491
749.07459
749.07448
749.07448
749.0746
749.07485
749.07525
749.07579
749.0765
749.07739
749.16884
749.16826
749.16803
749.16794
749.16798
749.16814
749.16842
749.16881
749.16929
749.16983
749.16826
749.16776
749.16756
749.16748
749.16752
749.16769
749.16797
749.16838
749.1689
749.16955
749.16803
749.16756
749.16736
749.16729
749.16734
749.16752
749.16781
749.16823
749.16878
749.16946
749.16794
749.16748
749.16729
749.16723
749.16729
749.16747
749.16778
749.16822
749.16878
749.16947
749.16798
749.16752
749.16734
749.16729
749.16736
749.16756
749.16787
749.16832
749.16889
749.16959
749.16814
749.16769
749.16752
749.16747
749.16756
749.16776
749.16809
749.16854
749.16913
749.16983
749.16842
749.16797
749.16781
749.16778
749.16787
749.16809
749.16843
749.1689
749.16948
749.1702
749.16881
749.16838
749.16823
749.16822
749.16832
749.16854
749.1689
749.16937
749.16998
749.1707
749.16929
749.1689
749.16878
749.16878
749.16889
749.16913
749.16948
749.16998
749.17059
749.17134
749.16983
749.16955
749.16946
749.16947
749.16959
749.16983
749.1702
749.1707
749.17134
749.17215
749.2689
749.2684
749.26821
749.26814
749.26819
749.26834
749.26859
749.26895
749.26938
749.26987
749.2684
749.26797
749.2678
749.26774
749.26779
749.26795
749.26821
749.26858
749.26905
749.26963
749.26821
749.2678
749.26764
749.26759
749.26765
749.26781
749.26808
749.26846
749.26895
749.26956
749.26814
749.26774
749.26759
749.26754
749.26761
749.26778
749.26807
749.26846
749.26896
749.26958
749.26819
749.26779
749.26765
749.26761
749.26768
749.26787
749.26816
749.26856
749.26907
749.2697
749.26834
749.26795
749.26781
749.26778
749.26787
749.26806
749.26836
749.26877
749.26929
749.26992
749.26859
749.26821
749.26808
749.26807
749.26816
749.26836
749.26867
749.26909
749.26962
749.27026
749.26895
749.26858
749.26846
749.26846
749.26856
749.26877
749.26909
749.26952
749.27006
749.27071
749.26938
749.26905
749.26895
749.26896
749.26907
749.26929
749.26962
749.27006
749.27062
749.27128
749.26987
749.26963
749.26956
749.26958
749.2697
749.26992
749.27026
749.27071
749.27128
749.27201
749.37346
749.37305
749.3729
749.37286
749.37291
749.37305
749.37328
749.37359
749.37398
749.3744
749.37305
749.3727
749.37257
749.37253
749.37258
749.37273
749.37297
749.37329
749.37371
749.37422
749.3729
749.37257
749.37244
749.37241
749.37247
749.37262
749.37287
749.3732
749.37364
749.37417
749.37286
749.37253
749.37241
749.37238
749.37245
749.37261
749.37286
749.37321
749.37366
749.3742
749.37291
749.37258
749.37247
749.37245
749.37252
749.37269
749.37296
749.37331
749.37376
749.37431
749.37305
749.37273
749.37262
749.37261
749.37269
749.37287
749.37314
749.3735
749.37396
749.37451
749.37328
749.37297
749.37287
749.37286
749.37296
749.37314
749.37342
749.37379
749.37425
749.37481
749.37359
749.37329
749.3732
749.37321
749.37331
749.3735
749.37379
749.37417
749.37465
749.37521
749.37398
749.37371
749.37364
749.37366
749.37376
749.37396
749.37425
749.37465
749.37513
749.37572
749.3744
749.37422
749.37417
749.3742
749.37431
749.37451
749.37481
749.37521
749.37572
749.37635
749.48189
749.48157
749.48146
749.48144
749.48149
749.48163
749.48183
749.4821
749.48243
749.4828
749.48157
749.4813
749.4812
749.48118
749.48124
749.48138
749.48159
749.48187
749.48222
749.48266
749.48146
749.4812
749.48111
749.4811
749.48116
749.4813
749.48152
749.48181
749.48218
749.48263
749.48144
749.48118
749.4811
749.48109
749.48116
749.4813
749.48153
749.48183
749.48221
749.48267
749.48149
749.48124
749.48116
749.48116
749.48123
749.48139
749.48162
749.48192
749.48231
749.48278
749.48163
749.48138
749.4813
749.4813
749.48139
749.48155
749.48178
749.4821
749.48249
749.48296
749.48183
749.48159
749.48152
749.48153
749.48162
749.48178
749.48203
749.48235
749.48274
749.48322
749.4821
749.48187
749.48181
749.48183
749.48192
749.4821
749.48235
749.48267
749.48308
749.48356
749.48243
749.48222
749.48218
749.48221
749.48231
749.48249
749.48274
749.48308
749.4835
749.484
749.4828
749.48266
749.48263
749.48267
749.48278
749.48296
749.48322
749.48356
749.484
749.48454
749.59352
749.59329
749.59322
749.59322
749.59328
749.5934
749.59357
749.5938
749.59408
749.59438
749.59329
749.59309
749.59303
749.59304
749.5931
749.59322
749.5934
749.59364
749.59393
749.59429
749.59322
749.59303
749.59298
749.59298
749.59305
749.59318
749.59336
749.59361
749.59391
749.59429
749.59322
749.59304
749.59298
749.593
749.59307
749.5932
749.59339
749.59364
749.59395
749.59433
749.59328
749.5931
749.59305
749.59307
749.59314
749.59328
749.59347
749.59373
749.59405
749.59443
749.5934
749.59322
749.59318
749.5932
749.59328
749.59342
749.59362
749.59388
749.59421
749.59459
749.59357
749.5934
749.59336
749.59339
749.59347
749.59362
749.59383
749.5941
749.59442
749.59481
749.5938
749.59364
749.59361
749.59364
749.59373
749.59388
749.5941
749.59437
749.5947
749.5951
749.59408
749.59393
749.59391
749.59395
749.59405
749.59421
749.59442
749.5947
749.59505
749.59545
749.59438
749.59429
749.59429
749.59433
749.59443
749.59459
749.59481
749.5951
749.59545
749.5959
749.70766
749.70752
749.70749
749.70751
749.70757
749.70768
749.70783
749.70801
749.70823
749.70846
749.70752
749.7074
749.70738
749.7074
749.70747
749.70757
749.70772
749.70791
749.70815
749.70842
749.70749
749.70738
749.70736
749.70738
749.70745
749.70756
749.70772
749.70791
749.70815
749.70844
749.70751
749.7074
749.70738
749.70741
749.70748
749.7076
749.70776
749.70796
749.7082
749.70849
749.70757
749.70747
749.70745
749.70748
749.70756
749.70768
749.70784
749.70804
749.70829
749.70859
749.70768
749.70757
749.70756
749.7076
749.70768
749.7078
749.70796
749.70817
749.70842
749.70872
749.70783
749.70772
749.70772
749.70776
749.70784
749.70796
749.70813
749.70835
749.7086
749.7089
749.70801
749.70791
749.70791
749.70796
749.70804
749.70817
749.70835
749.70856
749.70882
749.70913
749.70823
749.70815
749.70815
749.7082
749.70829
749.70842
749.7086
749.70882
749.70909
749.70941
749.70846
749.70842
749.70844
749.70849
749.70859
749.70872
749.7089
749.70913
749.70941
749.70975
749.8236
749.82355
749.82356
749.8236
749.82367
749.82376
749.82388
749.82402
749.82418
749.82434
749.82355
749.82351
749.82353
749.82357
749.82364
749.82373
749.82385
749.82399
749.82416
749.82435
749.82356
749.82353
749.82355
749.82359
749.82366
749.82375
749.82387
749.82402
749.82419
749.82439
749.8236
749.82357
749.82359
749.82363
749.8237
749.8238
749.82392
749.82407
749.82425
749.82445
749.82367
749.82364
749.82366
749.8237
749.82378
749.82388
749.824
749.82415
749.82433
749.82454
749.82376
749.82373
749.82375
749.8238
749.82388
749.82398
749.82411
749.82426
749.82444
749.82465
749.82388
749.82385
749.82387
749.82392
749.824
749.82411
749.82423
749.82439
749.82457
749.82478
749.82402
749.82399
749.82402
749.82407
749.82415
749.82426
749.82439
749.82455
749.82474
749.82495
749.82418
749.82416
749.82419
749.82425
749.82433
749.82444
749.82457
749.82474
749.82493
749.82515
749.82434
749.82435
749.82439
749.82445
749.82454
749.82465
749.82478
749.82495
749.82515
749.82538
749.94062
749.94067
749.94072
749.94079
749.94086
749.94093
749.94102
749.94111
749.94121
749.94131
749.94067
749.94071
749.94077
749.94083
749.9409
749.94098
749.94106
749.94115
749.94126
749.94137
749.94072
749.94077
749.94082
749.94088
749.94095
749.94103
749.94112
749.94121
749.94131
749.94143
749.94079
749.94083
749.94088
749.94094
749.94101
749.94109
749.94118
749.94127
749.94138
749.94149
749.94086
749.9409
749.94095
749.94101
749.94108
749.94116
749.94125
749.94135
749.94145
749.94157
749.94093
749.94098
749.94103
749.94109
749.94116
749.94124
749.94133
749.94143
749.94154
749.94165
749.94102
749.94106
749.94112
749.94118
749.94125
749.94133
749.94142
749.94152
749.94163
749.94174
749.94111
749.94115
749.94121
749.94127
749.94135
749.94143
749.94152
749.94162
749.94173
749.94185
749.94121
749.94126
749.94131
749.94138
749.94145
749.94154
749.94163
749.94173
749.94184
749.94196
749.94131
749.94137
749.94143
749.94149
749.94157
749.94165
749.94174
749.94185
749.94196
749.9421
750.05802
750.05816
750.05825
750.05833
750.05841
750.05847
750.05852
750.05856
750.0586
750.05863
750.05816
750.05828
750.05837
750.05845
750.05852
750.05858
750.05864
750.05868
750.05872
750.05874
750.05825
750.05837
750.05846
750.05854
750.05861
750.05867
750.05872
750.05876
750.0588
750.05882
750.05833
750.05845
750.05854
750.05862
750.05868
750.05874
750.0588
750.05884
750.05887
750.05889
750.05841
750.05852
750.05861
750.05868
750.05875
750.05881
750.05886
750.0589
750.05894
750.05896
750.05847
750.05858
750.05867
750.05874
750.05881
750.05887
750.05892
750.05896
750.05899
750.05901
750.05852
750.05864
750.05872
750.0588
750.05886
750.05892
750.05897
750.05901
750.05904
750.05906
750.05856
750.05868
750.05876
750.05884
750.0589
750.05896
750.05901
750.05905
750.05908
750.0591
750.0586
750.05872
750.0588
750.05887
750.05894
750.05899
750.05904
750.05908
750.05911
750.05914
750.05863
750.05874
750.05882
750.05889
750.05896
750.05901
750.05906
750.0591
750.05914
750.05917
750.17505
750.17529
750.17542
750.17552
750.1756
750.17564
750.17566
750.17566
750.17563
750.1756
750.17529
750.17549
750.17562
750.17572
750.17579
750.17583
750.17585
750.17584
750.17581
750.17575
750.17542
750.17562
750.17574
750.17584
750.17591
750.17595
750.17596
750.17595
750.17592
750.17585
750.17552
750.17572
750.17584
750.17593
750.176
750.17604
750.17605
750.17604
750.176
750.17593
750.1756
750.17579
750.17591
750.176
750.17606
750.1761
750.17611
750.17609
750.17605
750.17599
750.17564
750.17583
750.17595
750.17604
750.1761
750.17613
750.17614
750.17613
750.17608
750.17601
750.17566
750.17585
750.17596
750.17605
750.17611
750.17614
750.17615
750.17613
750.17609
750.17602
750.17566
750.17584
750.17595
750.17604
750.17609
750.17613
750.17613
750.17611
750.17607
750.176
750.17563
750.17581
750.17592
750.176
750.17605
750.17608
750.17609
750.17607
750.17602
750.17595
750.1756
750.17575
750.17585
750.17593
750.17599
750.17601
750.17602
750.176
750.17595
750.17587
750.29101
750.29134
750.29151
750.29163
750.2917
750.29173
750.29172
750.29167
750.29158
750.29148
750.29134
750.29162
750.29178
750.2919
750.29197
750.29199
750.29198
750.29192
750.29182
750.29168
750.29151
750.29178
750.29194
750.29205
750.29212
750.29214
750.29212
750.29206
750.29195
750.2918
750.29163
750.2919
750.29205
750.29216
750.29222
750.29224
750.29222
750.29215
750.29204
750.29188
750.2917
750.29197
750.29212
750.29222
750.29228
750.2923
750.29227
750.2922
750.29209
750.29193
750.29173
750.29199
750.29214
750.29224
750.2923
750.29231
750.29228
750.29221
750.29209
750.29193
750.29172
750.29198
750.29212
750.29222
750.29227
750.29228
750.29225
750.29217
750.29205
750.29189
750.29167
750.29192
750.29206
750.29215
750.2922
750.29221
750.29217
750.29209
750.29197
750.2918
750.29158
750.29182
750.29195
750.29204
750.29209
750.29209
750.29205
750.29197
750.29184
750.29167
750.29148
750.29168
750.2918
750.29188
750.29193
750.29193
750.29189
750.2918
750.29167
750.29149
750.40518
750.40559
750.4058
750.40594
750.40602
750.40603
750.40598
750.40588
750.40574
750.40556
750.40559
750.40595
750.40614
750.40628
750.40635
750.40636
750.40631
750.4062
750.40604
750.40581
750.4058
750.40614
750.40634
750.40646
750.40653
750.40653
750.40648
750.40636
750.40619
750.40595
750.40594
750.40628
750.40646
750.40659
750.40665
750.40665
750.40659
750.40646
750.40628
750.40604
750.40602
750.40635
750.40653
750.40665
750.4067
750.4067
750.40663
750.4065
750.40632
750.40607
750.40603
750.40636
750.40653
750.40665
750.4067
750.40669
750.40662
750.40649
750.40629
750.40604
750.40598
750.40631
750.40648
750.40659
750.40663
750.40662
750.40654
750.40641
750.40621
750.40596
750.40588
750.4062
750.40636
750.40646
750.4065
750.40649
750.40641
750.40627
750.40607
750.40581
750.40574
750.40604
750.40619
750.40628
750.40632
750.40629
750.40621
750.40607
750.40586
750.40559
750.40556
750.40581
750.40595
750.40604
750.40607
750.40604
750.40596
750.40581
750.40559
750.40531
750.51685
750.51735
750.5176
750.51775
750.51782
750.51782
750.51774
750.51759
750.51739
750.51715
750.51735
750.51778
750.51801
750.51816
750.51823
750.51822
750.51813
750.51798
750.51775
750.51744
750.5176
750.51801
750.51823
750.51837
750.51844
750.51842
750.51833
750.51816
750.51792
750.51759
750.51775
750.51816
750.51837
750.51851
750.51856
750.51854
750.51845
750.51827
750.51802
750.51768
750.51782
750.51823
750.51844
750.51856
750.51861
750.51859
750.51848
750.5183
750.51804
750.5177
750.51782
750.51822
750.51842
750.51854
750.51859
750.51855
750.51844
750.51826
750.51799
750.51765
750.51774
750.51813
750.51833
750.51845
750.51848
750.51844
750.51833
750.51813
750.51786
750.51752
750.51759
750.51798
750.51816
750.51827
750.5183
750.51826
750.51813
750.51794
750.51766
750.51731
750.51739
750.51775
750.51792
750.51802
750.51804
750.51799
750.51786
750.51766
750.51738
750.51702
750.51715
750.51744
750.51759
750.51768
750.5177
750.51765
750.51752
750.51731
750.51702
750.51663
750.62534
750.62592
750.6262
750.62637
750.62644
750.62642
750.62631
750.62611
750.62585
750.62554
750.62592
750.62642
750.62668
750.62684
750.62691
750.62688
750.62676
750.62656
750.62627
750.62588
750.6262
750.62668
750.62693
750.62709
750.62715
750.62711
750.62699
750.62677
750.62646
750.62605
750.62637
750.62684
750.62709
750.62723
750.62729
750.62724
750.62711
750.62688
750.62656
750.62614
750.62644
750.62691
750.62715
750.62729
750.62733
750.62728
750.62714
750.6269
750.62657
750.62615
750.62642
750.62688
750.62711
750.62724
750.62728
750.62722
750.62707
750.62683
750.6265
750.62607
750.62631
750.62676
750.62699
750.62711
750.62714
750.62707
750.62692
750.62667
750.62632
750.62589
750.62611
750.62656
750.62677
750.62688
750.6269
750.62683
750.62667
750.62641
750.62606
750.62562
750.62585
750.62627
750.62646
750.62656
750.62657
750.6265
750.62632
750.62606
750.6257
750.62525
750.62554
750.62588
750.62605
750.62614
750.62615
750.62607
750.62589
750.62562
750.62525
750.62476
750.72997
750.73063
750.73095
750.73113
750.7312
750.73116
750.73101
750.73077
750.73045
750.73008
750.73063
750.7312
750.73149
750.73167
750.73173
750.73168
750.73153
750.73128
750.73092
750.73046
750.73095
750.73149
750.73177
750.73194
750.73199
750.73194
750.73178
750.73151
750.73113
750.73064
750.73113
750.73167
750.73194
750.73209
750.73214
750.73208
750.73191
750.73163
750.73124
750.73074
750.7312
750.73173
750.73199
750.73214
750.73218
750.73211
750.73193
750.73164
750.73124
750.73073
750.73116
750.73168
750.73194
750.73208
750.73211
750.73203
750.73184
750.73154
750.73113
750.73062
750.73101
750.73153
750.73178
750.73191
750.73193
750.73184
750.73164
750.73133
750.73092
750.7304
750.73077
750.73128
750.73151
750.73163
750.73164
750.73154
750.73133
750.73102
750.7306
750.73007
750.73045
750.73092
750.73113
750.73124
750.73124
750.73113
750.73092
750.7306
750.73016
750.72962
750.73008
750.73046
750.73064
750.73074
750.73073
750.73062
750.7304
750.73007
750.72962
750.72903
750.8301
750.83084
750.83119
750.83138
750.83145
750.83139
750.83121
750.83093
750.83055
750.83012
750.83084
750.83147
750.83179
750.83198
750.83204
750.83197
750.83179
750.83149
750.83107
750.83053
750.83119
750.83179
750.8321
750.83227
750.83233
750.83225
750.83206
750.83174
750.8313
750.83073
750.83138
750.83198
750.83227
750.83244
750.83248
750.8324
750.83219
750.83186
750.83141
750.83082
750.83145
750.83204
750.83233
750.83248
750.83251
750.83242
750.8322
750.83186
750.8314
750.83081
750.83139
750.83197
750.83225
750.8324
750.83242
750.83232
750.83209
750.83174
750.83126
750.83067
750.83121
750.83179
750.83206
750.83219
750.8322
750.83209
750.83185
750.83149
750.83101
750.83041
750.83093
750.83149
750.83174
750.83186
750.83186
750.83174
750.83149
750.83112
750.83063
750.83002
750.83055
750.83107
750.8313
750.83141
750.8314
750.83126
750.83101
750.83063
750.83012
750.82949
750.83012
750.83053
750.83073
750.83082
750.83081
750.83067
750.83041
750.83002
750.82949
750.82881
750.92513
750.92593
750.92631
750.92651
750.92658
750.9265
750.92629
750.92596
750.92553
750.92504
750.92593
750.92663
750.92697
750.92717
750.92722
750.92714
750.92692
750.92657
750.9261
750.92548
750.92631
750.92697
750.9273
750.92749
750.92753
750.92744
750.92721
750.92684
750.92634
750.9257
750.92651
750.92717
750.92749
750.92766
750.92769
750.92759
750.92735
750.92697
750.92645
750.92579
750.92658
750.92722
750.92753
750.92769
750.92772
750.9276
750.92735
750.92695
750.92643
750.92576
750.9265
750.92714
750.92744
750.92759
750.9276
750.92747
750.92721
750.9268
750.92627
750.92559
750.92629
750.92692
750.92721
750.92735
750.92735
750.92721
750.92693
750.92652
750.92597
750.92529
750.92596
750.92657
750.92684
750.92697
750.92695
750.9268
750.92652
750.92609
750.92553
750.92484
750.92553
750.9261
750.92634
750.92645
750.92643
750.92627
750.92597
750.92553
750.92496
750.92425
750.92504
750.92548
750.9257
750.92579
750.92576
750.92559
750.92529
750.92484
750.92425
750.92348
751.01445
751.01533
751.01572
751.01594
751.01599
751.0159
751.01566
751.01529
751.0148
751.01425
751.01533
751.01607
751.01644
751.01665
751.01669
751.01659
751.01634
751.01595
751.01542
751.01473
751.01572
751.01644
751.01679
751.01698
751.01702
751.01691
751.01664
751.01623
751.01567
751.01495
751.01594
751.01665
751.01698
751.01716
751.01719
751.01706
751.01678
751.01636
751.01578
751.01505
751.01599
751.01669
751.01702