/*--------------------------------*- C++ -*----------------------------------*\
| =========                 |                                                 |
| \\      /  F ield         | OpenFOAM: The Open Source CFD Toolbox           |
|  \\    /   O peration     | Version:  v2106                                 |
|   \\  /    A nd           | Website:  www.openfoam.com                      |
|    \\/     M anipulation  |                                                 |
\*---------------------------------------------------------------------------*/
FoamFile
{
    version     2.0;
    format      ascii;
    arch        "LSB;label=32;scalar=64";
    class       volVectorField;
    location    "45";
    object      gradT;
}
// * * * * * * * * * * * * * * * * * * * * * * * * * * * * * * * * * * * * * //

dimensions      [0 -1 0 1 0 0 0];

internalField   nonuniform List<vector> 
4000
(
(-0.00031949958 -0.00031949958 748.50797)
(-0.00069375709 -0.00027780738 748.50614)
(-0.00033653624 -0.00026607698 748.50531)
(-0.00017444472 -0.00026440267 748.50484)
(-4.6885867e-05 -0.0002620488 748.50463)
(6.3330206e-05 -0.00025981836 748.50466)
(0.00015716777 -0.00025784981 748.50489)
(0.00022421882 -0.00025336364 748.5053)
(0.00023696014 -0.00024379819 748.50581)
(7.4739485e-05 -0.00021899795 748.5063)
(-0.00027780738 -0.0006937571 748.50614)
(-0.0006136232 -0.00061362321 748.50457)
(-0.00031642917 -0.00059478675 748.50381)
(-0.00016840244 -0.00057794156 748.50334)
(-4.0009401e-05 -0.00057507189 748.50315)
(6.9628694e-05 -0.00056559946 748.50319)
(0.00016684985 -0.00055831667 748.50344)
(0.00024529625 -0.0005444075 748.50387)
(0.00028850868 -0.00051995894 748.50444)
(9.953972e-05 -0.00046945146 748.50509)
(-0.00026607698 -0.00033653624 748.50531)
(-0.00059478675 -0.00031642917 748.50381)
(-0.00030085459 -0.00030085459 748.50305)
(-0.00015472985 -0.0002917526 748.50264)
(-3.4543765e-05 -0.00028017401 748.50245)
(8.0085418e-05 -0.00027334539 748.50251)
(0.00017835973 -0.00026221491 748.50277)
(0.00026257655 -0.00024990664 748.50323)
(0.00031191618 -0.0002327047 748.50385)
(0.00010841114 -0.00021451721 748.50455)
(-0.00026440267 -0.00017444471 748.50484)
(-0.00057794155 -0.00016840244 748.50334)
(-0.00029175259 -0.00015472985 748.50264)
(-0.00014772186 -0.00014772185 748.50221)
(-2.160219e-05 -0.00013692178 748.50206)
(8.7587793e-05 -0.00012813009 748.50213)
(0.0001902886 -0.00011807011 748.50242)
(0.00027480647 -0.0001075846 748.5029)
(0.0003238981 -9.5825843e-05 748.50354)
(0.00011166471 -8.7059878e-05 748.50427)
(-0.0002620488 -4.6885858e-05 748.50463)
(-0.00057507189 -4.0009411e-05 748.50315)
(-0.000280174 -3.4543776e-05 748.50245)
(-0.00013692178 -2.1602184e-05 748.50206)
(-1.4952009e-05 -1.4952003e-05 748.50191)
(9.8937093e-05 -4.393479e-06 748.50201)
(0.00019890523 4.2543348e-06 748.50231)
(0.00028482082 1.3685547e-05 748.50282)
(0.0003324409 2.1360296e-05 748.50348)
(0.00011425511 2.7385284e-05 748.50422)
(-0.00025981837 6.3330203e-05 748.50466)
(-0.00056559947 6.9628716e-05 748.50319)
(-0.00027334537 8.0085413e-05 748.50251)
(-0.00012813009 8.7587781e-05 748.50213)
(-4.3934857e-06 9.8937085e-05 748.50201)
(0.00010679413 0.00010679413 748.50212)
(0.00020836762 0.000115727 748.50244)
(0.00029191243 0.00012404289 748.50296)
(0.00033759784 0.00013087732 748.50364)
(0.00011568137 0.00013479036 748.50439)
(-0.00025784979 0.00015716776 748.50489)
(-0.00055831668 0.00016684986 748.50344)
(-0.00026221494 0.00017835974 748.50277)
(-0.00011807011 0.00019028859 748.50242)
(4.2543405e-06 0.00019890522 748.50231)
(0.00011572701 0.00020836761 748.50244)
(0.00021615399 0.00021615397 748.50278)
(0.00029997113 0.00022365528 748.50332)
(0.00034318837 0.00023102318 748.50401)
(0.00011686381 0.00023544899 748.50477)
(-0.00025336364 0.00022421883 748.5053)
(-0.00054440748 0.00024529623 748.50387)
(-0.00024990664 0.00026257656 748.50323)
(-0.00010758461 0.00027480647 748.5029)
(1.368554e-05 0.00028482084 748.50282)
(0.00012404288 0.00029191243 748.50296)
(0.00022365529 0.00029997114 748.50332)
(0.00030678164 0.00030678162 748.50387)
(0.00034939155 0.0003142437 748.50457)
(0.00011863191 0.00032047715 748.50534)
(-0.00024379819 0.00023696015 748.50581)
(-0.00051995894 0.00028850867 748.50444)
(-0.00023270471 0.00031191618 748.50385)
(-9.582583e-05 0.00032389812 748.50354)
(2.1360306e-05 0.00033244089 748.50348)
(0.00013087731 0.00033759784 748.50364)
(0.00023102318 0.00034318837 748.50401)
(0.00031424369 0.00034939155 748.50457)
(0.0003568839 0.00035688392 748.50529)
(0.00012101944 0.00036556363 748.50608)
(-0.00021899795 7.4739481e-05 748.5063)
(-0.00046945145 9.953972e-05 748.50509)
(-0.0002145172 0.00010841114 748.50455)
(-8.70599e-05 0.00011166472 748.50427)
(2.7385263e-05 0.0001142551 748.50422)
(0.00013479035 0.00011568136 748.50439)
(0.000235449 0.00011686379 748.50477)
(0.00032047719 0.00011863191 748.50534)
(0.00036556363 0.00012101946 748.50608)
(0.00012441838 0.00012441839 748.50689)
(-0.00086216689 -0.00086216688 748.51709)
(-0.0018961284 -0.0007413786 748.51562)
(-0.00095291158 -0.00070860012 748.51489)
(-0.00050029401 -0.00070268166 748.51446)
(-0.00012816572 -0.00069574401 748.51428)
(0.00020088023 -0.00068999171 748.51433)
(0.00048673748 -0.00068325332 748.51458)
(0.00070540843 -0.00066978598 748.51502)
(0.00079585462 -0.0006385878 748.5156)
(0.00026559881 -0.00054954497 748.51627)
(-0.00074137861 -0.0018961284 748.51562)
(-0.0016657783 -0.0016657783 748.51435)
(-0.00089486617 -0.001608279 748.51368)
(-0.00048100984 -0.0015670248 748.51326)
(-0.0001091308 -0.0015522027 748.5131)
(0.00021961628 -0.0015279106 748.51315)
(0.00051704608 -0.001504089 748.51342)
(0.0007724067 -0.0014622327 748.51389)
(0.00097621614 -0.0013849613 748.51454)
(0.00035464164 -0.0012118449 748.5154)
(-0.00070860013 -0.0009529116 748.51489)
(-0.001608279 -0.00089486618 748.51368)
(-0.00085415817 -0.00085415817 748.51303)
(-0.00044421776 -0.0008231202 748.51265)
(-8.9051436e-05 -0.00079344716 748.51249)
(0.00024899393 -0.00076958544 748.51257)
(0.00055241534 -0.00073850144 748.51285)
(0.00082453615 -0.00069982576 748.51335)
(0.0010462424 -0.00064832835 748.51404)
(0.00038100974 -0.00059380898 748.51495)
(-0.00070268167 -0.000500294 748.51446)
(-0.0015670248 -0.00048100984 748.51326)
(-0.0008231202 -0.00044421774 748.51265)
(-0.00042029883 -0.00042029883 748.51227)
(-5.5596037e-05 -0.00038985943 748.51214)
(0.000274562 -0.00036293284 748.51223)
(0.00058680575 -0.00033323333 748.51254)
(0.00086257979 -0.00030173053 748.51306)
(0.0010822329 -0.00026673423 748.51378)
(0.00039098789 -0.00024087436 748.5147)
(-0.00069574403 -0.00012816573 748.51428)
(-0.0015522027 -0.00010913081 748.5131)
(-0.00079344716 -8.9051434e-05 748.51249)
(-0.00038985944 -5.5596027e-05 748.51214)
(-3.1685445e-05 -3.1685453e-05 748.51202)
(0.00030562002 -2.3758435e-06 748.51213)
(0.00061361764 2.4813068e-05 748.51246)
(0.00089103525 5.2380469e-05 748.513)
(0.0011070986 7.6100926e-05 748.51373)
(0.00039824966 9.3572685e-05 748.51468)
(-0.00068999172 0.00020088022 748.51433)
(-0.0015279105 0.00021961628 748.51315)
(-0.00076958541 0.0002489939 748.51257)
(-0.00036293285 0.000274562 748.51223)
(-2.3758531e-06 0.00030562002 748.51213)
(0.00033106052 0.00033106053 748.51226)
(0.00064156207 0.00035703339 748.51261)
(0.00091386764 0.00038245366 748.51316)
(0.0011234251 0.00040308986 748.51391)
(0.00040263573 0.00041566058 748.51486)
(-0.00068325332 0.0004867375 748.51458)
(-0.001504089 0.00051704608 748.51342)
(-0.00073850143 0.00055241533 748.51285)
(-0.00033323332 0.00058680574 748.51254)
(2.4813079e-05 0.00061361764 748.51246)
(0.00035703339 0.00064156206 748.51261)
(0.00066501078 0.00066501078 748.51297)
(0.00093709173 0.00068826015 748.51354)
(0.0011403055 0.00071027051 748.5143)
(0.00040663013 0.00072462496 748.51526)
(-0.000669786 0.00070540843 748.51502)
(-0.0014622327 0.00077240671 748.51389)
(-0.00069982575 0.00082453616 748.51335)
(-0.00030173054 0.00086257979 748.51306)
(5.238047e-05 0.00089103525 748.513)
(0.00038245366 0.00091386763 748.51316)
(0.00068826015 0.00093709173 748.51354)
(0.00095912738 0.00095912737 748.51412)
(0.00115979 0.00098351521 748.51491)
(0.00041220536 0.00100587 748.51588)
(-0.0006385878 0.0007958546 748.5156)
(-0.0013849613 0.00097621616 748.51454)
(-0.00064832836 0.0010462424 748.51404)
(-0.00026673423 0.0010822329 748.51378)
(7.6100916e-05 0.0011070986 748.51373)
(0.00040308987 0.0011234251 748.51391)
(0.00071027052 0.0011403055 748.5143)
(0.00098351521 0.0011597899 748.51491)
(0.0011870481 0.0011870481 748.51571)
(0.0004215333 0.0012292614 748.51671)
(-0.00054954496 0.0002655988 748.51627)
(-0.0012118449 0.00035464164 748.5154)
(-0.00059380899 0.00038100973 748.51495)
(-0.00024087435 0.00039098789 748.5147)
(9.3572673e-05 0.00039824965 748.51468)
(0.00041566058 0.00040263572 748.51486)
(0.00072462497 0.00040663013 748.51526)
(0.00100587 0.00041220536 748.51588)
(0.0012292614 0.0004215333 748.51671)
(0.00044034752 0.00044034753 748.51778)
(-0.0013042468 -0.0013042468 748.53467)
(-0.0028948551 -0.0011239692 748.53341)
(-0.0014895472 -0.0010721835 748.53277)
(-0.00078364968 -0.0010633452 748.5324)
(-0.00018117429 -0.0010517538 748.53225)
(0.00036367526 -0.0010427574 748.53232)
(0.00084909117 -0.0010311293 748.5326)
(0.001246083 -0.0010088531 748.53308)
(0.0014849853 -0.00095431968 748.53372)
(0.00051715418 -0.00079999105 748.5345)
(-0.0011239692 -0.0028948551 748.53341)
(-0.00254676 -0.00254676 748.53231)
(-0.0013986112 -0.0024548095 748.53173)
(-0.0007530052 -0.0023932775 748.53136)
(-0.00015029266 -0.0023661464 748.53123)
(0.00039461198 -0.0023278004 748.53131)
(0.0008999477 -0.002287148 748.53161)
(0.0013612975 -0.0022178923 748.53211)
(0.0017982784 -0.0020865532 748.53282)
(0.00067148281 -0.0017907321 748.5338)
(-0.0010721835 -0.0014895472 748.53277)
(-0.0024548095 -0.0013986112 748.53173)
(-0.0013360647 -0.0013360647 748.53116)
(-0.00069498658 -0.0012841754 748.53082)
(-0.00011569713 -0.0012375922 748.5307)
(0.00044267368 -0.0011964993 748.5308)
(0.00095899922 -0.0011459398 748.53112)
(0.0014466777 -0.0010808316 748.53165)
(0.0019121455 -0.0009959416 748.5324)
(0.00071436829 -0.00090671052 748.53342)
(-0.0010633452 -0.00078364967 748.5324)
(-0.0023932775 -0.00075300523 748.53136)
(-0.0012841754 -0.00069498658 748.53082)
(-0.00065453274 -0.00065453272 748.5305)
(-6.2616573e-05 -0.00060529691 748.5304)
(0.00048626438 -0.00056024095 748.53051)
(0.0010156155 -0.0005109069 748.53085)
(0.0015112957 -0.00045837392 748.5314)
(0.0019723994 -0.00039986147 748.53218)
(0.00073097019 -0.00035735012 748.53323)
(-0.0010517538 -0.00018117429 748.53225)
(-0.0023661464 -0.00015029268 748.53123)
(-0.0012375922 -0.00011569715 748.5307)
(-0.00060529691 -6.2616571e-05 748.5304)
(-2.1405359e-05 -2.1405361e-05 748.53031)
(0.00053706369 2.5903657e-05 748.53045)
(0.0010608663 7.2031946e-05 748.5308)
(0.0015577232 0.00011736433 748.53137)
(0.0020131693 0.00015723031 748.53217)
(0.00074270919 0.00018594215 748.53323)
(-0.0010427575 0.00036367524 748.53232)
(-0.0023278004 0.000394612 748.53131)
(-0.0011964993 0.00044267366 748.5308)
(-0.00056024096 0.00048626438 748.53051)
(2.5903655e-05 0.00053706368 748.53045)
(0.00057970169 0.00057970167 748.5306)
(0.0011070762 0.00062295853 748.53097)
(0.001596494 0.00066559525 748.53156)
(0.0020409772 0.00070058447 748.53238)
(0.00075011142 0.00072225898 748.53344)
(-0.0010311293 0.00084909117 748.5326)
(-0.002287148 0.00089994772 748.53161)
(-0.0011459398 0.00095899922 748.53112)
(-0.00051090689 0.0010156155 748.53085)
(7.2031926e-05 0.0010608663 748.5308)
(0.00062295854 0.0011070762 748.53097)
(0.0011467598 0.0011467598 748.53136)
(0.0016353491 0.0011864847 748.53197)
(0.0020698331 0.0012245823 748.53279)
(0.00075715886 0.0012508629 748.53387)
(-0.0010088531 0.001246083 748.53308)
(-0.0022178923 0.0013612974 748.53211)
(-0.0010808315 0.0014466777 748.53165)
(-0.00045837391 0.0015112956 748.5314)
(0.00011736431 0.0015577232 748.53137)
(0.00066559524 0.001596494 748.53156)
(0.0011864847 0.0016353491 748.53197)
(0.0016743165 0.0016743165 748.53259)
(0.0021053553 0.001719439 748.53344)
(0.00076763182 0.0017658403 748.53453)
(-0.00095431969 0.0014849853 748.53372)
(-0.0020865532 0.0017982784 748.53282)
(-0.0009959416 0.0019121456 748.5324)
(-0.00039986145 0.0019723994 748.53218)
(0.0001572303 0.0020131693 748.53217)
(0.00070058447 0.0020409772 748.53238)
(0.0012245823 0.0020698331 748.53279)
(0.001719439 0.0021053553 748.53344)
(0.0021613569 0.0021613569 748.53431)
(0.0007880931 0.0022715358 748.53543)
(-0.00079999105 0.00051715417 748.5345)
(-0.0017907321 0.00067148281 748.5338)
(-0.00090671052 0.0007143683 748.53342)
(-0.00035735012 0.0007309702 748.53323)
(0.00018594213 0.00074270918 748.53323)
(0.00072225897 0.00075011142 748.53344)
(0.0012508629 0.00075715885 748.53387)
(0.0017658403 0.00076763182 748.53453)
(0.0022715358 0.00078809309 748.53543)
(0.00084108443 0.00084108443 748.53666)
(-0.001706843 -0.001706843 748.56166)
(-0.0037982359 -0.0014713252 748.56049)
(-0.0019633656 -0.0014037575 748.55992)
(-0.0010227397 -0.0013913571 748.55959)
(-0.00020198321 -0.0013757816 748.55947)
(0.00055502186 -0.0013635035 748.55958)
(0.0012424766 -0.0013469013 748.55988)
(0.0018262472 -0.0013164241 748.56039)
(0.0022200705 -0.0012390273 748.56106)
(0.00078442687 -0.0010190754 748.56187)
(-0.0014713252 -0.0037982359 748.56049)
(-0.0033436076 -0.0033436076 748.55947)
(-0.0018434135 -0.0032205348 748.55895)
(-0.00098077584 -0.0031405926 748.55863)
(-0.0001602028 -0.0031014239 748.55853)
(0.00059834241 -0.0030499718 748.55864)
(0.0013130958 -0.0029917583 748.55896)
(0.0019880581 -0.0028950505 748.55949)
(0.0026660936 -0.002709767 748.56024)
(0.0010043788 -0.0022912421 748.56124)
(-0.0014037575 -0.0019633656 748.55992)
(-0.0032205348 -0.0018434135 748.55895)
(-0.0017603506 -0.0017603506 748.55844)
(-0.00090362873 -0.0016893009 748.55814)
(-0.00011136237 -0.001626293 748.55806)
(0.00066468749 -0.0015687227 748.55818)
(0.0013973979 -0.0014990869 748.55852)
(0.0021082384 -0.0014072457 748.55908)
(0.0028238789 -0.0012891641 748.55987)
(0.0010634435 -0.0011658795 748.56092)
(-0.0013913571 -0.0010227397 748.55959)
(-0.0031405926 -0.00098077585 748.55863)
(-0.0016893009 -0.00090362872 748.55814)
(-0.00084671826 -0.00084671825 748.55786)
(-3.9624659e-05 -0.00077968431 748.5578)
(0.00072554855 -0.00071655744 748.55794)
(0.0014745728 -0.0006484438 748.5583)
(0.0021979809 -0.00057517803 748.55888)
(0.0029074598 -0.00049384842 748.55969)
(0.0010865685 -0.00043510076 748.56076)
(-0.0013757816 -0.00020198319 748.55947)
(-0.0031014239 -0.00016020281 748.55853)
(-0.001626293 -0.00011136236 748.55806)
(-0.00077968431 -3.962466e-05 748.5578)
(1.8798442e-05 1.8798449e-05 748.55774)
(0.00079592801 8.3877977e-05 748.5579)
(0.0015387773 0.00014883348 748.55828)
(0.0022628338 0.00021207777 748.55888)
(0.0029639562 0.00026826134 748.55971)
(0.0011026086 0.00030807723 748.5608)
(-0.0013635035 0.00055502185 748.55958)
(-0.0030499718 0.0005983424 748.55864)
(-0.0015687227 0.0006646875 748.55818)
(-0.00071655746 0.00072554855 748.55794)
(8.3877978e-05 0.00079592801 748.5579)
(0.00085558358 0.00085558358 748.55808)
(0.0016027726 0.00091611565 748.55848)
(0.0023174087 0.00097591569 748.5591)
(0.0030034592 0.0010255612 748.55994)
(0.0011131124 0.0010566988 748.56103)
(-0.0013469013 0.0012424766 748.55988)
(-0.0029917583 0.0013130958 748.55896)
(-0.0014990869 0.0013973978 748.55852)
(-0.00064844381 0.0014745728 748.5583)
(0.00014883347 0.0015387773 748.55828)
(0.00091611565 0.0016027726 748.55848)
(0.0016591094 0.0016591094 748.55889)
(0.0023722793 0.001715788 748.55953)
(0.0030447393 0.0017709988 748.56039)
(0.001123367 0.001809715 748.56149)
(-0.0013164241 0.0018262472 748.56039)
(-0.0028950505 0.0019880581 748.55949)
(-0.0014072457 0.0021082384 748.55908)
(-0.00057517803 0.0021979809 748.55888)
(0.00021207777 0.0022628338 748.55888)
(0.0009759157 0.0023174088 748.5591)
(0.001715788 0.0023722793 748.55953)
(0.0024292981 0.0024292981 748.56018)
(0.0030973862 0.0024969803 748.56106)
(0.0011389232 0.0025702491 748.56217)
(-0.0012390273 0.0022200705 748.56106)
(-0.002709767 0.0026660936 748.56024)
(-0.0012891641 0.0028238789 748.55987)
(-0.00049384843 0.0029074598 748.55969)
(0.00026826133 0.0029639562 748.55971)
(0.0010255612 0.0030034592 748.55994)
(0.0017709988 0.0030447393 748.56039)
(0.0024969803 0.0030973862 748.56106)
(0.0031856903 0.0031856903 748.56196)
(0.0011722129 0.0033664762 748.56312)
(-0.0010190754 0.00078442686 748.56187)
(-0.0022912421 0.0010043788 748.56124)
(-0.0011658795 0.0010634435 748.56092)
(-0.00043510077 0.0010865685 748.56076)
(0.0003080772 0.0011026086 748.5608)
(0.0010566988 0.0011131124 748.56103)
(0.001809715 0.001123367 748.56149)
(0.0025702491 0.0011389232 748.56217)
(0.0033664762 0.0011722129 748.56312)
(0.0012594471 0.0012594471 748.56437)
(-0.0020882152 -0.0020882152 748.59766)
(-0.0046415297 -0.0017992157 748.59654)
(-0.0023887755 -0.0017173032 748.59602)
(-0.0012239103 -0.0017013602 748.59573)
(-0.0001918751 -0.0016820816 748.59565)
(0.0007710584 -0.0016665777 748.59577)
(0.0016586896 -0.0016449728 748.5961)
(0.0024279542 -0.0016060918 748.59662)
(0.0029710324 -0.0015060313 748.59731)
(0.0010554507 -0.0012216804 748.59812)
(-0.0017992157 -0.0046415297 748.59654)
(-0.0040851618 -0.0040851618 748.59558)
(-0.0022419923 -0.003932582 748.5951)
(-0.001171078 -0.0038356242 748.59482)
(-0.00013970137 -0.0037846378 748.59475)
(0.00082672166 -0.0037208558 748.59489)
(0.0017494185 -0.0036458809 748.59523)
(0.0026363663 -0.003522412 748.59577)
(0.0035476494 -0.0032837662 748.59653)
(0.0013398016 -0.002744952 748.59753)
(-0.0017173032 -0.0023887755 748.59602)
(-0.003932582 -0.0022419923 748.5951)
(-0.002139238 -0.002139238 748.59464)
(-0.0010759661 -0.0020504508 748.59438)
(-7.7106604e-05 -0.0019713492 748.59432)
(0.00090981532 -0.0018976167 748.59447)
(0.0018571333 -0.0018093606 748.59483)
(0.0027900688 -0.0016916518 748.59541)
(0.0037484924 -0.0015410009 748.5962)
(0.0014146602 -0.0013844084 748.59725)
(-0.0017013602 -0.0012239103 748.59573)
(-0.0038356243 -0.001171078 748.59482)
(-0.0020504508 -0.0010759661 748.59438)
(-0.0010031892 -0.0010031892 748.59414)
(1.3132819e-05 -0.00091933065 748.5941)
(0.00098871016 -0.00083827809 748.59427)
(0.0019553834 -0.00075156709 748.59464)
(0.002904726 -0.00065766655 748.59524)
(0.0038548928 -0.00055401911 748.59606)
(0.0014441966 -0.00047932665 748.59713)
(-0.0016820816 -0.00019187511 748.59565)
(-0.0037846378 -0.00013970138 748.59475)
(-0.0019713492 -7.7106601e-05 748.59432)
(-0.00091933065 1.3132835e-05 748.5941)
(8.780447e-05 8.7804462e-05 748.59408)
(0.0010775789 0.00017036206 748.59426)
(0.0020377449 0.00025350187 748.59466)
(0.0029876168 0.00033439777 748.59527)
(0.0039268323 0.00040669819 748.59611)
(0.0014644552 0.00045732385 748.59719)
(-0.0016665777 0.00077105839 748.59577)
(-0.0037208557 0.00082672166 748.59489)
(-0.0018976166 0.00090981533 748.59447)
(-0.00083827809 0.00098871019 748.59427)
(0.00017036205 0.0010775789 748.59426)
(0.0011544076 0.0011544076 748.59446)
(0.0021194191 0.0012319973 748.59487)
(0.0030579224 0.0013090059 748.59551)
(0.0039778188 0.0013731904 748.59636)
(0.0014779471 0.001414112 748.59745)
(-0.0016449728 0.0016586896 748.5961)
(-0.0036458809 0.0017494185 748.59523)
(-0.0018093606 0.0018571333 748.59483)
(-0.00075156713 0.0019553834 748.59464)
(0.00025350189 0.0020377449 748.59466)
(0.0012319973 0.0021194191 748.59487)
(0.0021923432 0.0021923432 748.5953)
(0.0031288099 0.0022659833 748.59595)
(0.0040319383 0.0023389417 748.59682)
(0.0014917362 0.0023901107 748.59792)
(-0.0016060918 0.0024279541 748.59662)
(-0.003522412 0.0026363663 748.59577)
(-0.0016916518 0.0027900688 748.59541)
(-0.00065766653 0.002904726 748.59524)
(0.00033439774 0.0029876168 748.59527)
(0.0013090059 0.0030579223 748.59551)
(0.0022659833 0.0031288099 748.59595)
(0.0032045208 0.0032045208 748.59662)
(0.0041019462 0.0032944985 748.59751)
(0.0015120597 0.0033952562 748.59862)
(-0.0015060313 0.0029710324 748.59731)
(-0.0032837662 0.0035476494 748.59653)
(-0.001541001 0.0037484924 748.5962)
(-0.0005540191 0.0038548928 748.59606)
(0.0004066982 0.0039268323 748.59611)
(0.0013731904 0.0039778188 748.59636)
(0.0023389417 0.0040319383 748.59682)
(0.0032944985 0.0041019462 748.59751)
(0.0042226737 0.0042226737 748.59842)
(0.001558908 0.0044736576 748.59957)
(-0.0012216804 0.0010554507 748.59812)
(-0.002744952 0.0013398016 748.59753)
(-0.0013844084 0.0014146602 748.59725)
(-0.00047932663 0.0014441967 748.59713)
(0.00045732383 0.0014644552 748.59719)
(0.001414112 0.0014779471 748.59745)
(0.0023901107 0.0014917362 748.59792)
(0.0033952562 0.0015120597 748.59862)
(0.0044736576 0.001558908 748.59957)
(0.0016793823 0.0016793823 748.60082)
(-0.002451678 -0.002451678 748.64237)
(-0.0054370148 -0.0021104071 748.64131)
(-0.0027747628 -0.0020152277 748.64083)
(-0.0013926505 -0.001995655 748.64057)
(-0.00015637877 -0.0019730311 748.64052)
(0.0010064575 -0.0019543336 748.64066)
(0.0020880602 -0.0019279037 748.641)
(0.003037345 -0.0018808991 748.64153)
(0.0037219946 -0.0017587461 748.64222)
(0.0013248393 -0.0014116867 748.64302)
(-0.0021104071 -0.0054370148 748.64131)
(-0.0047823394 -0.0047823394 748.6404)
(-0.0026026347 -0.0046019762 748.63996)
(-0.0013293555 -0.0044886179 748.63971)
(-9.4396703e-05 -0.0044264228 748.63967)
(0.0010741487 -0.0043504585 748.63982)
(0.0021982119 -0.0042588548 748.64018)
(0.0032910814 -0.0041094595 748.64073)
(0.0044258133 -0.0038188539 748.64148)
(0.0016718987 -0.0031630152 748.64247)
(-0.0020152277 -0.0027747628 748.64083)
(-0.0046019762 -0.0026026347 748.63996)
(-0.0024810413 -0.0024810413 748.63953)
(-0.0012170971 -0.0023755235 748.63931)
(-1.8219419e-05 -0.0022809831 748.63927)
(0.0011740255 -0.0021919012 748.63944)
(0.0023290592 -0.0020852824 748.63981)
(0.0034773459 -0.001942401 748.64039)
(0.004668439 -0.0017600728 748.64118)
(0.0017620651 -0.0015712303 748.64221)
(-0.001995655 -0.0013926505 748.64057)
(-0.0044886179 -0.0013293555 748.63971)
(-0.0023755235 -0.0012170971 748.63931)
(-0.0011292974 -0.0011292974 748.63909)
(8.922562e-05 -0.0010289422 748.63908)
(0.0012698495 -0.00093091111 748.63926)
(0.0024477121 -0.00082613932 748.63965)
(0.003616291 -0.00071212597 748.64025)
(0.0047969841 -0.00058675204 748.64107)
(0.0017977937 -0.00049649944 748.64212)
(-0.0019730311 -0.00015637876 748.64052)
(-0.0044264228 -9.4396725e-05 748.63967)
(-0.0022809831 -1.821942e-05 748.63927)
(-0.0010289423 8.9225618e-05 748.63908)
(0.00018016687 0.00018016689 748.63908)
(0.0013768285 0.00027963017 748.63928)
(0.0025478443 0.00038061588 748.63969)
(0.0037167332 0.00047870834 748.64031)
(0.0048840655 0.00056691112 748.64114)
(0.0018222335 0.00062802658 748.6422)
(-0.0019543336 0.0010064575 748.64066)
(-0.0043504585 0.0010741487 748.63982)
(-0.0021919012 0.0011740255 748.63944)
(-0.00093091109 0.0012698495 748.63926)
(0.00027963018 0.0013768285 748.63928)
(0.0014702985 0.0014702985 748.6395)
(0.0026467902 0.0015645787 748.63992)
(0.0038025862 0.0016586379 748.64056)
(0.0049463023 0.0017368623 748.64141)
(0.0018385373 0.0017873974 748.64248)
(-0.0019279037 0.0020880602 748.641)
(-0.0042588548 0.002198212 748.64018)
(-0.0020852823 0.0023290591 748.63981)
(-0.00082613932 0.0024477121 748.63965)
(0.00038061587 0.0025478443 748.63969)
(0.0015645787 0.0026467902 748.63992)
(0.0027361837 0.0027361837 748.64036)
(0.0038890169 0.0028262663 748.64101)
(0.005012825 0.0029173187 748.64188)
(0.0018559235 0.0029806347 748.64296)
(-0.0018808991 0.003037345 748.64153)
(-0.0041094596 0.0032910814 748.64073)
(-0.001942401 0.0034773459 748.64039)
(-0.00071212595 0.003616291 748.64025)
(0.00047870832 0.0037167332 748.64031)
(0.0016586379 0.0038025862 748.64056)
(0.0028262663 0.0038890168 748.64101)
(0.0039837213 0.0039837213 748.64168)
(0.0051006707 0.0040957493 748.64256)
(0.001880748 0.0042234368 748.64366)
(-0.0017587461 0.0037219946 748.64222)
(-0.0038188539 0.0044258133 748.64148)
(-0.0017600728 0.004668439 748.64118)
(-0.00058675203 0.0047969841 748.64107)
(0.00056691113 0.0048840655 748.64114)
(0.0017368623 0.0049463023 748.64141)
(0.0029173187 0.005012825 748.64188)
(0.0040957493 0.0051006707 748.64256)
(0.0052525405 0.0052525405 748.64347)
(0.0019410485 0.0055723125 748.6446)
(-0.0014116867 0.0013248393 748.64302)
(-0.0031630152 0.0016718987 748.64247)
(-0.0015712303 0.0017620651 748.64221)
(-0.00049649943 0.0017977937 748.64212)
(0.00062802658 0.0018222335 748.6422)
(0.0017873974 0.0018385373 748.64248)
(0.0029806347 0.0018559235 748.64296)
(0.0042234368 0.001880748 748.64366)
(0.0055723125 0.0019410485 748.6446)
(0.0020939293 0.0020939293 748.64583)
(-0.0027969603 -0.0027969603 748.69551)
(-0.0061865086 -0.0024054564 748.6945)
(-0.0031269155 -0.0022976765 748.69405)
(-0.0015341276 -0.0022746055 748.69383)
(-0.00010065413 -0.0022488188 748.6938)
(0.0012547732 -0.0022271049 748.69395)
(0.0025229796 -0.0021960562 748.6943)
(0.0036437639 -0.0021411242 748.69482)
(0.0044614051 -0.0019976186 748.6955)
(0.0015889827 -0.0015899997 748.69628)
(-0.0024054564 -0.0061865086 748.6945)
(-0.005437583 -0.005437583 748.69364)
(-0.0029306392 -0.0052307391 748.69323)
(-0.0014608411 -0.0051017795 748.69301)
(-2.9403165e-05 -0.0050289662 748.69299)
(0.001333917 -0.0049414386 748.69316)
(0.0026519506 -0.0048338981 748.69352)
(0.0039414203 -0.0046593528 748.69406)
(0.0052880919 -0.0043185362 748.69481)
(0.0019966016 -0.0035496961 748.69576)
(-0.0022976765 -0.0031269155 748.69405)
(-0.0052307391 -0.0029306392 748.69323)
(-0.0027911119 -0.002791112 748.69284)
(-0.0013323548 -0.0026694908 748.69264)
(5.968679e-05 -0.002560239 748.69263)
(0.0014498413 -0.0024563154 748.69281)
(0.0028050654 -0.0023320879 748.69319)
(0.0041591258 -0.0021649107 748.69376)
(0.0055710619 -0.0019519587 748.69454)
(0.0021015427 -0.0017320412 748.69554)
(-0.0022746055 -0.0015341277 748.69383)
(-0.0051017795 -0.001460841 748.69301)
(-0.0026694908 -0.0013323547 748.69264)
(-0.0012299681 -0.0012299681 748.69245)
(0.00018377223 -0.0011139231 748.69246)
(0.0015620681 -0.00099940819 748.69266)
(0.0029433553 -0.00087723528 748.69305)
(0.0043215494 -0.00074375787 748.69364)
(0.0057209613 -0.00059746941 748.69445)
(0.0021432132 -0.00049222928 748.69546)
(-0.0022488188 -0.00010065413 748.6938)
(-0.0050289662 -2.9403165e-05 748.69299)
(-0.002560239 5.9686809e-05 748.69263)
(-0.0011139231 0.00018377224 748.69246)
(0.00029024672 0.00029024674 748.69248)
(0.0016865291 0.00040601429 748.69269)
(0.0030607157 0.00052429827 748.6931)
(0.0044388917 0.00063895144 748.69371)
(0.0058225904 0.00074269795 748.69453)
(0.0021717028 0.00081402695 748.69556)
(-0.0022271049 0.0012547732 748.69395)
(-0.0049414386 0.001333917 748.69316)
(-0.0024563154 0.0014498413 748.69281)
(-0.00099940818 0.0015620681 748.69266)
(0.00040601429 0.0016865291 748.69269)
(0.0017961197 0.0017961197 748.69292)
(0.0031762924 0.0019064871 748.69335)
(0.0045399491 0.0020173773 748.69398)
(0.0058960369 0.0021090963 748.69481)
(0.0021907659 0.0021690639 748.69585)
(-0.0021960562 0.0025229796 748.6943)
(-0.0048338981 0.0026519506 748.69352)
(-0.0023320879 0.0028050654 748.69319)
(-0.00087723528 0.0029433553 748.69305)
(0.00052429829 0.0030607157 748.6931)
(0.0019064871 0.0031762924 748.69335)
(0.0032819733 0.0032819733 748.69379)
(0.0046415009 0.0033876905 748.69443)
(0.005974277 0.0034965259 748.69528)
(0.0022116812 0.0035715884 748.69633)
(-0.0021411242 0.0036437639 748.69482)
(-0.0046593528 0.0039414202 748.69406)
(-0.0021649107 0.0041591258 748.69376)
(-0.00074375785 0.0043215494 748.69364)
(0.00063895143 0.0044388917 748.69371)
(0.0020173773 0.0045399491 748.69398)
(0.0033876905 0.0046415009 748.69443)
(0.0047545017 0.0047545017 748.69509)
(0.0060799347 0.0048884941 748.69596)
(0.0022408075 0.0050422947 748.69702)
(-0.0019976186 0.0044614051 748.6955)
(-0.0043185361 0.0052880919 748.69481)
(-0.0019519587 0.0055710619 748.69454)
(-0.00059746943 0.0057209614 748.69445)
(0.00074269794 0.0058225904 748.69453)
(0.0021090963 0.0058960369 748.69481)
(0.0034965259 0.005974277 748.69528)
(0.0048884941 0.0060799347 748.69596)
(0.0062620701 0.0062620701 748.69685)
(0.002314215 0.0066486709 748.69795)
(-0.0015899998 0.0015889827 748.69628)
(-0.0035496961 0.0019966016 748.69576)
(-0.0017320412 0.0021015427 748.69554)
(-0.00049222929 0.0021432132 748.69546)
(0.00081402695 0.0021717028 748.69556)
(0.0021690639 0.0021907659 748.69585)
(0.0035715884 0.0022116812 748.69633)
(0.0050422947 0.0022408075 748.69702)
(0.0066486709 0.002314215 748.69795)
(0.0024985414 0.0024985415 748.69914)
(-0.003123078 -0.003123078 748.75672)
(-0.006889745 -0.0026836874 748.75577)
(-0.0034478629 -0.0025640259 748.75536)
(-0.0016522064 -0.0025375902 748.75516)
(-2.9655466e-05 -0.0025087507 748.75514)
(0.0015098431 -0.002484123 748.75531)
(0.0029559817 -0.0024486989 748.75565)
(0.0042393919 -0.0023862203 748.75617)
(0.0051812062 -0.0022222366 748.75683)
(0.0018451792 -0.00175657 748.75758)
(-0.0026836874 -0.0068897449 748.75577)
(-0.0060511667 -0.0060511667 748.75496)
(-0.003228717 -0.0058192388 748.75459)
(-0.0015692936 -0.0056755347 748.75439)
(5.054525e-05 -0.0055924733 748.75439)
(0.0015999209 -0.0054938694 748.75456)
(0.0031028358 -0.0053710791 748.75492)
(0.0045790853 -0.0051725055 748.75546)
(0.0061256817 -0.0047835894 748.75618)
(0.0023108458 -0.0039064774 748.7571)
(-0.0025640259 -0.0034478629 748.75536)
(-0.0058192388 -0.0032287169 748.75459)
(-0.0030722308 -0.0030722308 748.75422)
(-0.0014254409 -0.0029354489 748.75405)
(0.0001520098 -0.0028121787 748.75406)
(0.0017312373 -0.0026940704 748.75425)
(0.0032773457 -0.002552951 748.75462)
(0.0048268816 -0.0023625057 748.75518)
(0.0064472343 -0.0021202098 748.75593)
(0.0024299206 -0.0018705436 748.7569)
(-0.0025375902 -0.0016522064 748.75516)
(-0.0056755347 -0.0015692936 748.75439)
(-0.0029354489 -0.0014254409 748.75405)
(-0.0013092415 -0.0013092414 748.75389)
(0.00029192375 -0.0011782631 748.75391)
(0.0018591486 -0.0010479956 748.75411)
(0.0034344005 -0.00090918729 748.7545)
(0.0050118265 -0.00075699107 748.75509)