/*--------------------------------*- C++ -*----------------------------------*\
| =========                 |                                                 |
| \\      /  F ield         | OpenFOAM: The Open Source CFD Toolbox           |
|  \\    /   O peration     | Version:  v2106                                 |
|   \\  /    A nd           | Website:  www.openfoam.com                      |
|    \\/     M anipulation  |                                                 |
\*---------------------------------------------------------------------------*/
FoamFile
{
    version     2.0;
    format      ascii;
    arch        "LSB;label=32;scalar=64";
    class       volScalarField;
    location    "45";
    object      laplacianT;
}
// * * * * * * * * * * * * * * * * * * * * * * * * * * * * * * * * * * * * * //

dimensions      [0 -2 0 1 0 0 0];

internalField   nonuniform List<scalar> 
4000
(
0.22114465
0.41135006
0.38854572
0.38768503
0.38745566
0.38809015
0.38761758
0.38771609
0.38752152
0.38750219
0.41135006
0.55727659
0.53293007
0.5374209
0.53536889
0.53556722
0.53586319
0.53547714
0.53536056
0.51550465
0.38854573
0.53293008
0.52128442
0.5117552
0.51875812
0.51505498
0.51664381
0.51579451
0.51601959
0.49588035
0.38768503
0.5374209
0.51175519
0.51991209
0.51350475
0.51710998
0.51533602
0.51599894
0.51543974
0.4963203
0.38745567
0.5353689
0.51875813
0.51350475
0.51828113
0.5153044
0.51656024
0.51604343
0.51563115
0.49558578
0.38809013
0.53556724
0.51505498
0.51710997
0.51530439
0.51637895
0.51573236
0.51572985
0.51597997
0.49599065
0.38761759
0.53586317
0.51664382
0.51533603
0.51656025
0.51573237
0.51619817
0.51566315
0.51526422
0.49571178
0.3877161
0.53547714
0.51579449
0.51599894
0.51604343
0.51572986
0.51566316
0.51586482
0.51544668
0.49563499
0.38752151
0.53536057
0.51601959
0.51543976
0.51563113
0.51597997
0.5152642
0.51544668
0.51505926
0.49536445
0.38750219
0.51550465
0.49588033
0.49632028
0.49558579
0.49599065
0.4957118
0.49563499
0.49536443
0.47560864
0.75779196
1.2209292
1.1538099
1.1503664
1.1500676
1.1512111
1.1502261
1.1503924
1.1498777
1.1149314
1.2209292
1.5529055
1.4855181
1.4929653
1.4887467
1.4901397
1.4896132
1.489279
1.4886852
1.3644703
1.1538099
1.4855182
1.4438531
1.4290275
1.4380674
1.4338509
1.435335
1.4339007
1.4344713
1.314122
1.1503664
1.4929653
1.4290275
1.4385381
1.4303765
1.4351149
1.4328372
1.4327637
1.4318839
1.3138242
1.1500676
1.4887467
1.4380674
1.4303765
1.4357822
1.4326853
1.4337492
1.433303
1.4324485
1.3127203
1.1512111
1.4901397
1.4338509
1.4351148
1.4326853
1.434519
1.4330798
1.4324446
1.4327427
1.3130945
1.1502261
1.4896132
1.435335
1.4328372
1.4337492
1.4330797
1.4337139
1.432439
1.4319301
1.3127271
1.1503924
1.4892791
1.4339007
1.4327637
1.433303
1.4324446
1.432439
1.4319328
1.4314372
1.3120921
1.1498777
1.4886852
1.4344713
1.4318839
1.4324485
1.4327427
1.4319301
1.4314372
1.4309116
1.3116009
1.1149314
1.3644703
1.3141221
1.3138242
1.3127203
1.3130945
1.3127271
1.3120921
1.3116009
1.1809385
1.4585466
2.1193261
2.0159933
2.0101947
2.0102909
2.0112858
2.0103018
2.0099786
2.0096248
1.8921968
2.1193261
2.5935691
2.4867151
2.4991713
2.4924561
2.4946028
2.4937143
2.4934939
2.4904477
2.2171523
2.0159933
2.4867151
2.4191265
2.4005744
2.4116811
2.4062837
2.4080447
2.4064302
2.4073339
2.1436614
2.0101947
2.4991713
2.4005744
2.4134041
2.4031951
2.4084257
2.4062472
2.4054479
2.4032877
2.1431204
2.0102909
2.4924562
2.4116811
2.4031951
2.4093744
2.4053149
2.406293
2.4062501
2.4041641
2.1416906
2.0112858
2.4946028
2.4062838
2.4084257
2.4053149
2.4076592
2.4056021
2.4047991
2.4042897
2.141936
2.0103018
2.4937143
2.4080447
2.4062472
2.406293
2.4056022
2.4061903
2.4046881
2.4031262
2.1413814
2.0099786
2.4934939
2.4064302
2.4054479
2.4062501
2.4047991
2.4046881
2.4040778
2.4025191
2.1404775
2.0096248
2.4904477
2.4073339
2.4032878
2.404164
2.4042897
2.4031262
2.4025191
2.4011178
2.1391324
1.8921968
2.2171523
2.1436614
2.1431204
2.1416906
2.141936
2.1413814
2.1404775
2.1391324
1.8258539
2.1323836
2.9859177
2.8498949
2.8407409
2.8418977
2.8425301
2.8415897
2.8404826
2.840271
2.6454119
2.9859177
3.5968434
3.458028
3.471199
3.4641455
3.4662877
3.4649218
3.4657011
3.4615198
3.0432895
2.8498949
3.458028
3.367021
3.3440126
3.3573436
3.351333
3.3522016
3.3498009
3.351128
2.9486652
2.8407409
3.471199
3.3440126
3.3566439
3.3460824
3.35155
3.3495318
3.3482034
3.34578
2.9478438
2.8418977
3.4641455
3.3573436
3.3460824
3.3538852
3.3489035
3.3494416
3.3493145
3.3467337
2.9461005
2.8425301
3.4662877
3.3513329
3.35155
3.3489035
3.3514812
3.3487639
3.3476289
3.3470257
2.9463916
2.8415897
3.4649218
3.3522016
3.3495318
3.3494416
3.3487639
3.3489825
3.3470444
3.3451902
2.9453465
2.8404826
3.4657011
3.3498009
3.3482034
3.3493145
3.3476289
3.3470444
3.3462413
3.3441409
2.9444607
2.840271
3.4615198
3.351128
3.34578
3.3467337
3.3470257
3.3451902
3.3441408
3.3428485
2.941951
2.6454119
3.0432895
2.9486652
2.9478438
2.9461005
2.9463917
2.9453465
2.9444607
2.941951
2.4560453
2.7898044
3.8329647
3.663032
3.652628
3.6535185
3.6543201
3.6534632
3.6514241
3.6514452
3.3805607
3.8329647
4.5781101
4.4069839
4.4224406
4.4139372
4.4164947
4.4144876
4.4152362
4.4096941
3.849557
3.663032
4.4069839
4.2904324
4.2655929
4.2793242
4.2736606
4.2743802
4.2713292
4.2727581
3.7345222
3.652628
4.4224406
4.2655929
4.2801366
4.2676938
4.2735412
4.2715032
4.269201
4.2662787
3.7334876
3.6535185
4.4139372
4.2793242
4.2676938
4.2757933
4.2704701
4.2709834
4.2705002
4.2672017
3.731308
3.6543201
4.4164947
4.2736606
4.2735412
4.2704701
4.2732955
4.2702289
4.2683888
4.267454
3.7316812
3.6534632
4.4144876
4.2743802
4.2715032
4.2709834
4.2702288
4.2705772
4.2677175
4.2656095
3.7301403
3.6514241
4.4152362
4.2713292
4.269201
4.2705002
4.2683888
4.2677175
4.266582
4.263144
3.7293025
3.6514452
4.4096941
4.2727581
4.2662787
4.2672017
4.267454
4.2656095
4.263144
4.2630357
3.7252746
3.3805607
3.849557
3.7345222
3.7334876
3.731308
3.7316812
3.7301403
3.7293024
3.7252746
3.0708033
3.4294322
4.6563749
4.4539154
4.4415395
4.4428589
4.4432945
4.4427337
4.439971
4.4399595
4.0945474
4.6563749
5.5302885
5.3291859
5.345424
5.336673
5.3389182
5.3366819
5.3378076
5.3306847
4.6318525
4.4539154
5.3291859
5.1886546
5.1609192
5.1759242
5.16965
5.1699924
5.1666778
5.1679904
4.4971101
4.4415395
5.345424
5.1609192
5.176076
5.1629771
5.1688861
5.1668718
5.1639882
5.1603327
4.4958753
4.4428589
5.336673
5.1759242
5.1629771
5.1717992
5.1657355
5.1660584
5.1656273
5.1614377
4.4933072
4.4432945
5.3389182
5.16965
5.1688862
5.1657355
5.1686392
5.1650483
5.1630158
5.1612877
4.4936807
4.4427337
5.3366819
5.1699924
5.1668717
5.1660584
5.1650483
5.1654081
5.1618216
5.1597133
4.4916497
4.439971
5.3378075
5.1666778
5.1639882
5.1656273
5.1630158
5.1618216
5.1614033
5.1555012
4.4910164
4.4399595
5.3306847
5.1679904
5.1603327
5.1614377
5.1612876
5.1597133
5.1555012
5.1568161
4.4854624
4.0945474
4.6318524
4.4971101
4.4958753
4.4933072
4.4936807
4.4916497
4.4910164
4.4854624
3.6665438
4.0481001
5.4512632
5.2172691
5.2033984
5.2047432
5.2050942
5.2044787
5.2010204
5.2012232
4.7833214
5.4512632
6.4485856
6.2184472
6.235792
6.2264217
6.2287272
6.2259676
6.2272725
6.2188831
5.3856192
5.2172691
6.2184473
6.0545151
6.0244824
6.0403864
6.0339874
6.0337769
6.0300445
6.0314908
5.2320036
5.2033984
6.235792
6.0244824
6.0403667
6.0263371
6.0324766
6.0303545
6.0267525
6.0225856
5.2305288
5.2047432
6.2264217
6.0403864
6.0263371
6.0357793
6.029204
6.0292028
6.0285978
6.0239149
5.2276069
5.2050942
6.2287272
6.0339875
6.0324766
6.029204
6.0323593
6.0280738
6.0258697
6.0233836
5.2279634
5.2044787
6.2259676
6.0337769
6.0303546
6.0292028
6.0280737
6.0285053
6.0235949
6.0221088
5.225397
5.2010204
6.2272725
6.0300445
6.0267525
6.0285978
6.0258698
6.0235949
6.0243952
6.0159938
5.2249704
5.2012232
6.2188831
6.0314908
6.0225856
6.0239149
6.0233836
6.0221088
6.0159938
6.0187207
5.217917
4.7833214
5.3856192
5.2320036
5.2305288
5.2276069
5.2279634
5.225397
5.2249704
5.2179169
4.2396236
4.6417753
6.2125929
5.9485366
5.9331308
5.9345923
5.934837
5.9342956
5.930032
5.9303387
5.4426039
6.212593
7.3271214
7.0694871
7.0876604
7.0777283
7.0799925
7.07695
7.0783928
7.0686483
6.1061696
5.9485366
7.0694871
6.8832598
6.8509917
6.8676488
6.8610654
6.8604339
6.8562464
6.8577302
5.9346372
5.9331308
7.0876604
6.8509917
6.8675078
6.8525862
6.858861
6.8567777
6.8524627
6.8476477
5.9329211
5.9345923
7.0777283
6.8676487
6.8525862
6.8625119
6.8554054
6.8552553
6.8543276
6.8491231
5.9296552
5.934837
7.0799925
6.8610654
6.858861
6.8554054
6.8587607
6.8538257
6.851632
6.8482134
5.9299873
5.9342956
7.07695
6.8604339
6.8567777
6.8552553
6.8538256
6.8547679
6.8481574
6.8473253
5.9268888
5.930032
7.0783928
6.8562464
6.8524627
6.8543276
6.851632
6.8481574
6.8502006
6.8393397
5.9266646
5.9303387
7.0686483
6.8577302
6.8476477
6.8491231
6.8482134
6.8473253
6.8393397
6.8434608
5.9181476
5.4426039
6.1061696
5.9346371
5.9329211
5.9296552
5.9299873
5.9268888
5.9266646
5.9181476
4.7865239
5.2068947
6.9356697
6.6431337
6.6263505
6.6278635
6.6279522
6.6274783
6.62252
6.6229304
6.0683261
6.9356697
8.1605754
7.8769453
7.8959539
7.8855432
7.8876574
7.8842625
7.8859042
7.8748657
6.7890639
6.6431337
7.8769453
7.6694603
7.6352295
7.652593
7.6458321
7.6447354
7.6401632
7.6416939
6.6006651
6.6263505
7.8959539
7.6352295
7.6523127
7.6366287
7.6429478
7.6408402
7.6359458
7.6305165
6.5987138
6.6278635
7.8855432
7.652593
7.6366287
7.6470229
7.6393645
7.6390723
7.637813
7.6321209
6.595123
6.6279522
7.8876574
7.6458321
7.6429478
7.6393645
7.6429172
7.6371508
7.635167
7.6307996
6.5954252
6.6274783
7.8842625
7.6447354
7.6408402
7.6390723
7.6371508
7.6387375
7.6304709
7.6302931
6.5918078
6.62252
7.8859042
7.6401632
7.6359458
7.637813
7.635167
7.6304709
7.6337417
7.6204772
6.5917836
6.6229304
7.8748657
7.641694
7.6305165
7.6321209
7.6307997
7.6302931
7.6204773
7.6259644
6.5818517
6.0683261
6.7890639
6.6006651
6.5987138
6.5951231
6.5954252
6.5918078
6.5917836
6.5818517
5.3038837
5.7399306
7.6160137
7.2968191
7.2787122
7.2802988
7.280251
7.2798114
7.2741493
7.2746782
6.6566366
7.6160137
8.9437287
8.6358866
8.6555263
8.6447209
8.6467268
8.6429904
8.6447909
8.6325312
7.4301032
7.2968191
8.6358865
8.408487
8.3724254
8.3903726
8.3835029
8.3819416
8.3769629
8.3785339
7.2259965
7.2787122
8.6555263
8.3724254
8.3899249
8.3735713
8.3799351
8.3777741
8.3723152
8.3663226
7.223815
7.2802988
8.6447209
8.3903726
8.3735712
8.3843644
8.3762029
8.3758175
8.3741737
8.3680476
7.219916
7.280251
8.6467268
8.3835029
8.3799351
8.3762029
8.3800465
8.3733794
8.3716099
8.3663194
7.2201819
7.2798114
8.6429904
8.3819416
8.3777741
8.3758175
8.3733794
8.3755947
8.3657153
8.3661934
7.2160633
7.2741493
8.6447909
8.3769629
8.3723152
8.3741737
8.37161
8.3657153
8.3701926
8.3546022
7.2162356
7.2746782
8.6325311
8.3785339
8.3663226
8.3680476
8.3663193
8.3661934
8.3546022
8.3614185
7.2049476
6.6566365
7.4301032
7.2259965
7.223815
7.219916
7.2201819
7.2160634
7.2162356
7.2049476
5.7885212
6.2376005
8.2494242
7.9055295
7.8862277
7.8878488
7.8876617
7.8872781
7.8809447
7.8815753
7.2039045
8.2494242
9.671773
9.3415986
9.3617743
9.3506095
9.3524743
9.3484261
9.3503826
9.3369716
8.0253296
7.9055295
9.3415986
9.0956681
9.0580239
9.0764283
9.069477
9.0674821
9.0621265
9.0637148
7.8067724
7.8862277
9.3617743
9.0580239
9.075841
9.0588999
9.0652688
9.0630588
9.0570718
9.0505416
7.8043718
7.8878488
9.3506095
9.0764284
9.0588999
9.0700213
9.0613585
9.0609221
9.0588974
9.0523718
7.8001853
7.8876617
9.3524742
9.069477
9.0652688
9.0613586
9.0654992
9.057974
9.0564275
9.0502426
7.8004099
7.8872781
9.3484261
9.0674821
9.0630588
9.0609221
9.057974
9.0608025
9.0493655
9.0504945
7.7958124
7.8809447
9.3503826
9.0621265
9.0570718
9.0588974
9.0564275
9.0493655
9.0550189
9.0371962
7.7961775
7.8815754
9.3369716
9.0637148
9.0505416
9.0523718
9.0502426
9.0504945
9.0371962
9.0452971
7.7836011
7.2039045
8.0253296
7.8067724
7.8043718
7.8001853
7.8004099
7.7958125
7.7961775
7.7836011
6.237454
6.6968287
8.8319908
8.4655187
8.4451359
8.4467868
8.4464519
8.4461189
8.4391526
8.4398814
7.7067577
8.8319908
10.340195
9.9897276
10.010311
9.9988647
10.000574
9.9962255
9.9983236
9.9838455
8.5710756
8.4655187
9.9897276
9.7267818
9.6877821
9.7065342
9.6995335
9.6971138
9.6914147
9.6930114
8.3394136
8.4451359
10.010311
9.6877821
9.7058052
9.6883811
9.6947223
9.6924623
9.6859843
9.6789554
8.3368066
8.4467868
9.9988647
9.7065342
9.6883811
9.6997827
9.6906483
9.690159
9.6877633
9.6808768
8.332356
8.4464519
10.000574
9.6995335
9.6947223
9.6906483
9.6950559
9.6867152
9.6853997
9.6783569
8.3325354
8.4461189
9.9962255
9.6971137
9.6924622
9.690159
9.6867152
9.6901376
9.6772109
9.6789822
8.3274851
8.4391526
9.9983237
9.6914147
9.6859843
9.6877633
9.6853997
9.677211
9.684003
9.6640562
8.3280387
8.4398814
9.9838455
9.6930114
9.6789555
9.6808768
9.6783569
9.6789822
9.6640562
9.6733901
8.31425
7.7067577
8.5710756
8.3394136
8.3368066
8.332356
8.3325354
8.3274851
8.3280387
8.31425
6.6479185
7.1147783
9.3601177
8.9733207
8.9519808
8.9536496
8.9531702
8.9528898
8.9453314
8.9461522
8.1620952
9.3601177
10.944888
10.576281
10.597139
10.585479
10.587023
10.5824
10.584623
10.569165
9.0639766
8.9733207
10.576281
10.297937
10.257819
10.276802
10.269792
10.266962
10.260951
10.262545
8.8206368
8.9519807
10.597139
10.257819
10.275934
10.258125
10.264406
10.262107
10.255177
10.247691
8.8178379
8.9536496
10.585479
10.276802
10.258125
10.269742
10.260191
10.25965
10.256896
10.24969
8.8131489
8.9531701
10.587023
10.269792
10.264406
10.260191
10.264836
10.255729
10.254651
10.246792
8.8132803
8.9528898
10.5824
10.266962
10.262107
10.25965
10.255729
10.259722
10.245384
10.247785
8.8078064
8.9453314
10.584623
10.260951
10.255177
10.256896
10.254651
10.245384
10.253271
10.231322
8.8085438
8.9461522
10.569165
10.262545
10.247691
10.24969
10.246792
10.247785
10.231322
10.24183
8.7936269
8.1620953
9.0639766
8.8206368
8.8178379
8.8131489
8.8132803
8.8078064
8.8085438
8.7936269
7.0173873
7.48887
9.830544
9.4258091
9.403642
9.4053159
9.4046914
9.4044642
9.3963596
9.3972666
8.5671101
9.830544
11.482107
11.097635
11.118639
11.106833
11.108202
11.103331
11.105664
11.089321
9.5009938
9.4258091
11.097635
10.805609
10.764619
10.783715
10.776735
10.773511
10.767225
10.768805
9.2474758
9.403642
11.118639
10.764619
10.782716
10.764627
10.770806
10.768482
10.76114
10.753243
9.2445011
9.4053158
11.106833
10.783715
10.764627
10.776385
10.766474
10.765884
10.762787
10.755305
9.2396012
9.4046914
11.108202
10.776735
10.770806
10.766474
10.771328
10.761509
10.760674
10.752046
9.2396824
9.4044642
11.103331
10.773511
10.768482
10.765884
10.761509
10.766047
10.750384
10.753399
9.2338176
9.3963596
11.105664
10.767225
10.76114
10.762787
10.760674
10.750384
10.759316
10.735499
9.2347331
9.3972666
11.089321
10.768805
10.753243
10.755305
10.752046
10.753399
10.735499
10.747115
9.2187793
8.5671101
9.5009938
9.2474758
9.2445011
9.2396012
9.2396824
9.2338176
9.2347331
9.2187793
7.3435848
7.8167961
10.240368
9.8201886
9.7973307
9.798999
9.7982324
9.7980584
9.7894566
9.7904435
8.9193052
10.240368
11.948541
11.550573
11.571593
11.559713
11.560898
11.555807
11.558236
11.541107
9.8794332
9.8201886
11.550573
11.246665
11.205054
11.224145
11.217237
11.213637
11.207114
11.20867
9.6172994
9.7973307
11.571593
11.205054
11.223021
11.204763
11.210801
11.208464
11.200756
11.192495
9.6141664
9.7989991
11.559713
11.224145
11.204763
11.216588
11.206378
11.205741
11.20232
11.194607
9.6090849
9.7982324
11.560898
11.217237
11.210801
11.206378
11.211409
11.200937
11.200349
11.191006
9.6091144
9.7980584
11.555807
11.213637
11.208464
11.205741
11.200937
11.20599
11.189098
11.192709
9.6028939
9.7894566
11.558236
11.207114
11.200756
11.20232
11.200349
11.189098
11.19902
11.173481
9.6039812
9.7904435
11.541107
11.20867
11.192495
11.194607
11.191006
11.192709
11.173481
11.186133
9.5870882
8.9193052
9.8794332
9.6172994
9.6141664
9.6090849
9.6091144
9.6028939
9.6039811
9.5870882
7.6245016
8.0965328
10.587061
10.154027
10.130618
10.13227
10.131365
10.131245
10.122198
10.123259
9.2165092
10.587061
12.341314
11.932302
11.953208
11.941326
11.942318
11.937038
11.939546
11.921737
10.196962
10.154027
11.932302
11.618385
11.576408
11.595377
11.588582
11.584628
11.577907
11.579429
9.9278278
10.130618
11.953208
11.576408
11.594134
11.575818
11.581678
11.579342
11.571314
11.56274
9.9245553
10.13227
11.941326
11.595377
11.575818
11.587637
11.57719
11.576509
11.572784
11.564887
9.9193229
10.131365
11.942318
11.588582
11.581678
11.57719
11.582366
11.571305
11.570967
11.560965
9.9192998
10.131245
11.937038
11.584628
11.579342
11.576509
11.571305
11.576842
11.558825
11.563007
9.9127612
10.122198
11.939546
11.577907
11.571314
11.572784
11.570967
11.558825
11.569673
11.542569
9.9140129
10.123259
11.921737
11.579429
11.56274
11.564887
11.560965
11.563007
11.542569
11.556179
9.8962847
9.2165092
10.196962
9.9278278
9.9245553
9.9193229
9.9192998
9.9127612
9.914013
9.8962847
7.8584071
8.3263541
10.868484
10.425265
10.40145
10.403074
10.402036
10.40197
10.392534
10.39366
9.45689
10.868484
12.658001
12.240467
12.261129
12.249318
12.25011
12.244674
12.247245
12.228866
10.451622
10.425265
12.240467
11.918475
11.876392
11.89512
11.88848
11.884196
11.877317
11.878795
10.177147
10.40145
12.261129
11.876392
11.893767
11.875505
11.88115
11.878828
11.870529
11.861695
10.173755
10.403074
12.249318
11.89512
11.875505
11.887245
11.876625
11.875903
11.871896
11.863864
10.168403
10.402036
12.25011
11.88848
11.88115
11.876625
11.881913
11.87033
11.870244
11.859645
10.168327
10.40197
12.244674
11.884196
11.878828
11.875903
11.87033
11.876316
11.857284
11.862013
10.16151
10.392533
12.247245
11.877317
11.870529
11.871896
11.870244
11.857284
11.868992
11.840491
10.162918
10.39366
12.228865
11.878795
11.861695
11.863864
11.859645
11.862013
11.840491
11.854974
10.144464
9.45689
10.451622
10.177147
10.173755
10.168403
10.168327
10.16151
10.162918
10.144464
8.0438603
8.5048427
11.082902
10.63223
10.608154
10.609741
10.608576
10.608563
10.598795
10.599981
9.6389656
11.082902
12.896649
12.473168
12.493458
12.48179
12.482378
12.476817
12.479436
12.460598
10.641844
10.63223
12.473168
12.145087
12.103155
12.121527
12.115082
12.110494
12.1035
12.104925
10.36372
10.608154
12.493458
12.103155
12.120072
12.101977
12.107371
12.105077
12.096558
12.087518
10.360228
10.609741
12.48179
12.121527
12.101977
12.113564
12.102835
12.102077
12.097813
12.089695
10.35479
10.608576
12.482378
12.115082
12.107371
12.102835
12.108203
12.09617
12.096335
12.085204
10.354661
10.608563
12.476817
12.110494
12.105077
12.102077
12.09617
12.102568
12.082637
12.087883
10.347608
10.598795
12.479436
12.1035
12.096558
12.097813
12.096335
12.082637
12.095133
12.065409
10.349164
10.599981
12.460598
12.104924
12.087518
12.089695
12.085204
12.087883
12.065409
12.080676
10.330097
9.6389656
10.641844
10.36372
10.360228
10.35479
10.354661
10.347608
10.349164
10.330097
8.1797186
8.6308973
11.228991
10.773644
10.749456
10.750996
10.74971
10.749751
10.739712
10.74095
9.7616136
11.228991
13.055787
12.628968
12.648761
12.637309
12.637687
12.632037
12.634687
12.615507
10.766455
10.773644
12.628968
12.29682
12.255298
12.2732
12.26699
12.262126
12.25506
12.256423
10.486397
10.749456
12.648761
12.255298
12.271653
12.253836
12.258946
12.256695
12.248008
12.238817
10.482827
10.750996
12.637309
12.2732
12.253836
12.265199
12.254427
12.253638
12.249142
12.240988
10.477336
10.74971
12.637687
12.26699
12.258946
12.254427
12.259842
12.247432
12.247848
12.236253
10.477155
10.749751
12.632037
12.262126
12.256695
12.253638
12.247432
12.254201
12.233496
12.239226
10.469908
10.739712
12.634687
12.25506
12.248008
12.249142
12.247848
12.233496
12.246702
12.215938
10.471602
10.74095
12.615507
12.256422
12.238817
12.240988
12.236253
12.239226
12.215938
12.231895
10.452039
9.7616136
10.766455
10.486397
10.482827
10.477336
10.477155
10.469908
10.471602
10.452039
8.2651451
8.7037403
11.305851
10.848637
10.824485
10.825968
10.82457
10.824664
10.814415
10.815697
9.824078
11.305851
13.134432
12.706907
12.726082
12.714914
12.715082
12.709376
12.712041
12.692637
10.824688
10.848637
12.706907
12.37274
12.331884
12.349206
12.343269
12.338159
12.331064
12.332355
10.544421
10.824485
12.726082
12.331884
12.347575
12.330146
12.33494
12.332745
12.323944
12.314659
10.540796
10.825968
12.714914
12.349206
12.330146
12.341215
12.330467
12.32965
12.324951
12.316811
10.535285
10.82457
12.715082
12.343269
12.33494
12.330467
12.335894
12.323184
12.323848
12.31186
10.535053
10.824664
12.709376
12.338159
12.332745
12.32965
12.323184
12.330284
12.308931
12.315109
10.527658
10.814415
12.712041
12.331064
12.323944
12.324951
12.323848
12.308931
12.322765
12.291151
10.529478
10.815697
12.692637
12.332356
12.314659
12.316811
12.31186
12.315109
12.291151
12.307699
10.509541
9.824078
10.824688
10.544421
10.540796
10.535285
10.535053
10.527658
10.529478
10.509541
8.2996139
8.7229224
11.313007
10.856744
10.832778
10.834194
10.832692
10.832839
10.822443
10.823761
9.8259738
11.313007
13.1321
12.706505
12.724942
12.714129
12.714083
12.708359
12.711021
12.691513
10.816183
10.856744
12.706505
12.372379
12.332441
12.349075
12.343448
12.338123
12.331042
12.332256
10.537436
10.832778
12.724942
12.332441
12.347371
12.330437
12.334886
12.33276
12.323899
12.314577
10.533777
10.834194
12.714129
12.349075
12.330437
12.341144
12.330485
12.329647
12.324773
12.316697
10.528281
10.832692
12.714083
12.343448
12.334886
12.330485
12.335891
12.32296
12.323867
12.311561
10.527999
10.832839
12.708359
12.338123
12.33276
12.329647
12.32296
12.330345
12.308476
12.315065
10.5205
10.822443
12.711021
12.331042
12.323899
12.324773
12.323867
12.308476
12.322854
12.290585
10.522437
10.823761
12.691513
12.332256
12.314577
12.316697
12.311561
12.315065
12.290585
12.307622
10.502248
9.8259738
10.816183
10.537436
10.533777
10.528281
10.527999
10.5205
10.522437
10.502248
8.2829128
8.6883249
11.250414
10.797916
10.774284
10.775625
10.774028
10.774227
10.763748
10.765094
9.7672896
11.250414
13.048804
12.627762
12.645349
12.634956
12.634699
12.62899
12.631633
12.612142
10.740993
10.797916
12.627762
12.295738
12.256964
12.272809
12.267525
12.262018
12.254997
12.256124
10.465485
10.774284
12.645349
12.256964
12.271041
12.254707
12.258783
12.25674
12.247874
12.238573
10.461815
10.775625
12.634956
12.272809
12.254707
12.264985
12.254482
12.253627
12.248608
12.240647
10.456367
10.774028
12.634699
12.267525
12.258783
12.254482
12.259835
12.246761
12.247907
12.235358
10.456036
10.774227
12.62899
12.262018
12.25674
12.253627
12.246761
12.254387
12.232137
12.239096
10.448481
10.763748
12.631633
12.254997
12.247874
12.248608
12.247907
12.232137
12.246969
12.214245
10.450522
10.765094
12.612142
12.256124
12.238573
12.240647
12.235358
12.239096
12.214245
12.231665
10.430206
9.7672896
10.740993
10.465485
10.461815
10.456367
10.456036
10.448481
10.450522
10.430206
8.2151455
8.6001609
11.118459
10.672515
10.649362
10.65062
10.648938
10.649188
10.638691
10.640057
9.6483873
11.118459
12.885058
12.471166
12.487793
12.477885
12.477418
12.471759
12.474368
12.455014
10.599582
10.672515
12.471166
12.143289
12.105919
12.120876
12.11597
12.110315
12.103395
12.104429
10.32901
10.649362
12.487793
12.105919
12.119057
12.103423
12.107101
12.105154
12.096337
12.087114
10.325352
10.65062
12.477885
12.120876
12.103423
12.11321
12.102927
12.10206
12.096928
12.08913
10.319986
10.648938
12.477418
12.11597
12.107101
12.102927
12.108192
12.095058
12.096434
12.083721
10.31961
10.649188
12.471759
12.110315
12.105154
12.10206
12.095058
12.102878
12.080384
12.08767
10.312045
10.638691
12.474368
12.103395
12.096337
12.096928
12.096434
12.080384
12.095579
12.0626
10.314177
10.640057
12.455014
12.104429
12.087114
12.08913
12.083721
12.08767
12.0626
12.080297
10.293859
9.6483873
10.599582
10.32901
10.325352
10.319986
10.31961
10.312045
10.314177
10.293859
8.0967305
8.4589735
10.917953
10.481314
10.458783
10.45995
10.458195
10.458493
10.448044
10.449422
9.4700001
10.917953
12.64187
12.237679
12.253245
12.243884
12.243209
12.237637
12.240195
12.221097
10.392821
10.481314
12.237679
11.915973
11.880236
11.894214
11.889716
11.883948
11.877173
11.878108
10.128856
10.458783
12.253245
11.880236
11.892354
11.877517
11.880776
11.878936
11.870224
11.861135
10.125232
10.45995
12.243884
11.894214
11.877517
11.886753
11.876754
11.875881
11.870668
11.863081
10.119982
10.458195
12.243209
11.889716
11.880776
11.876754
11.8819
11.868785
11.870385
11.857585
10.119562
10.458493
12.237637
11.883948
11.878936
11.875881
11.868785
11.876751
11.854152
11.861721
10.112034
10.448044
12.240195
11.877173
11.870223
11.870668
11.870385
11.854152
11.869617
11.836588
10.114244
10.449422
12.221097
11.878108
11.861135
11.863081
11.857585
11.861721
11.836588
11.854453
10.09405
9.4700001
10.392821
10.128856
10.125232
10.119982
10.119562
10.112034
10.114244
10.09405
7.9283983
8.2656328
10.650134
10.225491
10.203722
10.204791
10.202972
10.203319
10.192981
10.194363
9.2332281
10.650134
12.320739
11.928743
11.943151
11.934394
11.933518
11.928066
11.930558
11.911834
10.121987
10.225491
11.928743
11.615189
11.581307
11.594221
11.590158
11.584313
11.577726
11.578556
9.8662542
10.203722
11.943151
11.581307
11.592331
11.578383
11.581202
11.579482
11.570927
11.562031
9.8626876
10.204791
11.934394
11.594221
11.578383
11.58701
11.577358
11.576485
11.571222
11.563894
9.8575855
10.202972
11.933518
11.590158
11.581202
11.577358
11.582354
11.56934
11.571154
11.558346
9.8571257
10.203319
11.928066
11.584313
11.579482
11.576485
11.56934
11.577403
11.554839
11.562644
9.8496811
10.192981
11.930558
11.577725
11.570927
11.571222
11.571154
11.554839
11.570479
11.537603
9.8519568
10.194362
11.911834
11.578556
11.562031
11.563894
11.558346
11.562644
11.537603
11.555525
9.8320104
9.2332281
10.121987
9.8662542
9.8626876
9.8575855
9.8571257
9.8496811
9.8519568
9.8320104
7.7111879
8.0213302
10.316651
9.9066227
9.8857493
9.8867145
9.8848451
9.8852381
9.8750763
9.8764526
8.9395312
10.316651
11.923644
11.546259
11.559422
11.551325
11.550251
11.544954
11.547367
11.529132
9.7887484
9.9066228
11.546259
11.242793
11.210975
11.222744
11.219143
11.213258
11.206899
11.207619
9.5428257
9.8857493
11.559422
11.210975
11.220837
11.207865
11.210227
11.208638
11.200294
11.191644
9.5393386
9.8867145
11.551325
11.222744
11.207865
11.215831
11.206585
11.205718
11.200439
11.193415
9.5344168
9.8848451
11.550251
11.219143
11.210227
11.206585
11.2114
11.198569
11.200585
11.187849
9.53392
9.8852381
11.544954
11.213258
11.208638
11.205718
11.198569
11.20668
11.18429
11.192283
9.5266054
9.8750763
11.547367
11.206899
11.200294
11.200439
11.200585
11.18429
11.200008
11.167489
9.5289328
9.8764526
11.529132
11.207619
11.191644
11.193415
11.187849
11.192283
11.167489
11.185359
9.5093578
8.9395312
9.7887484
9.5428258
9.5393386
9.5344168
9.53392
9.5266054
9.5289328
9.5093578
7.446439
7.727571
9.9195593
9.5266741
9.5068259
9.5076821
9.5057737
9.5062112
9.4962887
9.4976521
8.5907202
9.9195593
11.453032
11.092586
11.104423
11.097036
11.095773
11.090665
11.092982
11.075351
9.3951605
9.5266741
11.092586
10.801079
10.771522
10.782075
10.778958
10.77307
10.766979
10.767586
9.1605645
9.5068259
11.104423
10.771522
10.780162
10.768246
10.770137
10.76869
10.76061
10.75226
9.1571789
9.5076821
11.097036
10.782075
10.768246
10.775503
10.766721
10.765866
10.760604
10.753928
9.1524682
9.5057737
11.095773
10.778958
10.770137
10.766721
10.771326
10.758757
10.760964
10.74838
9.1519382
9.5062112
11.090665
10.77307
10.76869
10.765866
10.758757
10.766867
10.744791
10.752923
9.1447995
9.4962887
11.092982
10.766979
10.76061
10.760604
10.760964
10.744791
10.760492
10.728529
9.1471654
9.4976521
11.075351
10.767586
10.75226
10.753928
10.74838
10.752923
10.728529
10.746237
9.1280829
8.5907202
9.3951605
9.1605645
9.1571789
9.1524682
9.1519382
9.1447995
9.1471654
9.1280829
7.1357856
7.3861652
9.461305
9.0879862
9.0692864
9.0700292
9.0680947
9.068575
9.0589536
9.0602964
8.1889459
9.461305
10.911803
10.570519
10.580958
10.574327
10.572885
10.567998
10.570207
10.553288
8.9436502
9.0879862
10.570519
10.292768
10.265655
10.274929
10.272317
10.266463
10.260678
10.26117
8.721828
9.0692864
10.580958
10.265656
10.273021
10.262236
10.263647
10.262351
10.254585
10.246588
8.718566
9.0700291
10.574327
10.274929
10.262236
10.26874
10.260478
10.259642
10.25443
10.248144
8.7140969
9.0680947
10.572885
10.272317
10.263647
10.260478
10.264847
10.252618
10.255004
10.242648
8.7135376
9.068575
10.567998
10.266463
10.262351
10.259642
10.252618
10.260677
10.23905
10.247275
8.7066185
9.0589536
10.570207
10.260678
10.254585
10.25443
10.255004
10.23905
10.25464
10.223433
8.7090085
9.0602964
10.553288
10.26117
10.246588
10.248144
10.242648
10.247275
10.223433
10.240872
8.6905381
8.1889459
8.9436502
8.721828
8.718566
8.7140969
8.7135376
8.7066185
8.7090085
8.6905382
6.7811444
6.9992159
8.9447114
8.5932617
8.5758267
8.5764527
8.5745054
8.5750269
8.5657672
8.567082
7.7366854
8.9447114
10.303291
9.9832741
9.9922521
9.9864206
9.9848091
9.9801746
9.9822634
9.9661618
8.4370012
8.5932617
9.983274
9.7209938
9.6964936
9.7044318
9.7023418
9.6965604
9.6911192
9.6914914
8.2293211
8.5758267
9.9922521
9.6964936
9.7025408
9.6929546
9.6938776
9.6927427
9.6853402
9.6777448
8.2262033
8.5764528
9.9864206
9.7044318
9.6929546
9.6986673
9.6909772
9.6901667
9.6850384
9.6791799
8.2220052
8.5745054
9.9848091
9.7023418
9.6938776
9.6909772
9.6950846
9.6832747
9.685826
9.6737732
8.221424
8.5750269
9.9801746
9.6965605
9.6927427
9.6901667
9.6832747
9.6912402
9.6701906
9.6784581
8.2147703
8.5657672
9.9822634
9.6911192
9.6853401
9.6850384
9.685826
9.6701906
9.6855738
9.6553131
8.2171709
8.567082
9.9661618
9.6914914
9.6777448
9.6791799
9.6737732
9.6784581
9.6553131
9.6723717
8.1994232
7.7366854
8.4370013
8.2293211
8.2262033
8.2220052
8.221424
8.2147704
8.2171709
8.1994231
6.3847048
6.5691065
8.3729603
8.045548
8.0294868
8.0299941
8.0280477
8.0286091
8.0197698
8.0210495
7.2367267
8.3729603
9.6312442
9.334469
9.3419326
9.3369385
9.3351698
9.3308191
9.3327769
9.3175936
7.8783363
8.045548
9.3344691
9.0892777
9.0675432
9.0740989
9.0725467
9.0668753
9.0618141
9.0620675
7.6860801