/*--------------------------------*- C++ -*----------------------------------*\
| =========                 |                                                 |
| \\      /  F ield         | OpenFOAM: The Open Source CFD Toolbox           |
|  \\    /   O peration     | Version:  v2106                                 |
|   \\  /    A nd           | Website:  www.openfoam.com                      |
|    \\/     M anipulation  |                                                 |
\*---------------------------------------------------------------------------*/
FoamFile
{
    version     2.0;
    format      ascii;
    arch        "LSB;label=32;scalar=64";
    class       volVectorField;
    location    "1";
    object      U;
}
// * * * * * * * * * * * * * * * * * * * * * * * * * * * * * * * * * * * * * //

dimensions      [0 1 -1 0 0 0 0];

internalField   nonuniform List<vector> 
400
(
(0.000363205 0 0)
(0.00107978 0 0)
(0.00176734 0 0)
(0.002408 0 0)
(0.00298576 0 0)
(0.00348694 0 0)
(0.00390041 0 0)
(0.00421759 0 0)
(0.00443228 0 0)
(0.00454053 0 0)
(0.00454043 0 0)
(0.00443197 0 0)
(0.0042171 0 0)
(0.00389977 0 0)
(0.00348618 0 0)
(0.00298492 0 0)
(0.00240716 0 0)
(0.00176657 0 0)
(0.0010792 0 0)
(0.00036296 0 0)
(0.00111299 0 0)
(0.00330869 0 0)
(0.00541514 0 0)
(0.00737738 0 0)
(0.00914637 0 0)
(0.0106803 0 0)
(0.0119453 0 0)
(0.0129154 0 0)
(0.0135718 0 0)
(0.0139028 0 0)
(0.0139025 0 0)
(0.013571 0 0)
(0.012914 0 0)
(0.0119435 0 0)
(0.0106782 0 0)
(0.00914409 0 0)
(0.00737511 0 0)
(0.00541309 0 0)
(0.00330715 0 0)
(0.00111235 0 0)
(0.00193364 0 0)
(0.0057479 0 0)
(0.00940582 0 0)
(0.0128114 0 0)
(0.0158794 0 0)
(0.0185377 0 0)
(0.0207282 0 0)
(0.0224068 0 0)
(0.0235422 0 0)
(0.0241144 0 0)
(0.024114 0 0)
(0.0235409 0 0)
(0.0224048 0 0)
(0.0207256 0 0)
(0.0185346 0 0)
(0.0158761 0 0)
(0.0128081 0 0)
(0.00940285 0 0)
(0.00574569 0 0)
(0.00193274 0 0)
(0.00287489 0 0)
(0.00854473 0 0)
(0.0139791 0 0)
(0.0190341 0 0)
(0.0235829 0 0)
(0.0275193 0 0)
(0.0307592 0 0)
(0.0332392 0 0)
(0.0349152 0 0)
(0.0357595 0 0)
(0.035759 0 0)
(0.0349136 0 0)
(0.0332367 0 0)
(0.0307559 0 0)
(0.0275155 0 0)
(0.0235788 0 0)
(0.01903 0 0)
(0.0139755 0 0)
(0.00854209 0 0)
(0.00287381 0 0)
(0.00399016 0 0)
(0.0118573 0 0)
(0.0193915 0 0)
(0.0263908 0 0)
(0.032679 0 0)
(0.0381113 0 0)
(0.0425745 0 0)
(0.0459857 0 0)
(0.0482881 0 0)
(0.0494472 0 0)
(0.0494467 0 0)
(0.0482864 0 0)
(0.0459829 0 0)
(0.0425709 0 0)
(0.0381071 0 0)
(0.0326745 0 0)
(0.0263863 0 0)
(0.0193876 0 0)
(0.0118544 0 0)
(0.00398896 0 0)
(0.00533843 0 0)
(0.0158598 0 0)
(0.0259244 0 0)
(0.0352579 0 0)
(0.0436251 0 0)
(0.0508359 0 0)
(0.0567464 0 0)
(0.0612544 0 0)
(0.0642922 0 0)
(0.06582 0 0)
(0.0658194 0 0)
(0.0642904 0 0)
(0.0612515 0 0)
(0.0567427 0 0)
(0.0508315 0 0)
(0.0436203 0 0)
(0.0352533 0 0)
(0.0259203 0 0)
(0.0158568 0 0)
(0.00533718 0 0)
(0.00698667 0 0)
(0.0207491 0 0)
(0.0338938 0 0)
(0.0460548 0 0)
(0.0569247 0 0)
(0.0662626 0 0)
(0.0738928 0 0)
(0.0796963 0 0)
(0.0835987 0 0)
(0.0855588 0 0)
(0.0855582 0 0)
(0.083597 0 0)
(0.0796934 0 0)
(0.0738891 0 0)
(0.0662582 0 0)
(0.0569201 0 0)
(0.0460503 0 0)
(0.0338898 0 0)
(0.0207461 0 0)
(0.00698541 0 0)
(0.00901303 0 0)
(0.0267542 0 0)
(0.0436637 0 0)
(0.0592581 0 0)
(0.0731424 0 0)
(0.0850198 0 0)
(0.0946854 0 0)
(0.102011 0 0)
(0.106923 0 0)
(0.109385 0 0)
(0.109385 0 0)
(0.106921 0 0)
(0.102008 0 0)
(0.094682 0 0)
(0.0850157 0 0)
(0.0731381 0 0)
(0.0592539 0 0)
(0.04366 0 0)
(0.0267514 0 0)
(0.00901183 0 0)
(0.0115119 0 0)
(0.0341493 0 0)
(0.0556647 0 0)
(0.075422 0 0)
(0.0929213 0 0)
(0.107808 0 0)
(0.119859 0 0)
(0.128949 0 0)
(0.135022 0 0)
(0.138061 0 0)
(0.13806 0 0)
(0.135021 0 0)
(0.128947 0 0)
(0.119856 0 0)
(0.107805 0 0)
(0.0929176 0 0)
(0.0754183 0 0)
(0.0556614 0 0)
(0.0341468 0 0)
(0.0115108 0 0)
(0.0146016 0 0)
(0.0432756 0 0)
(0.070423 0 0)
(0.0952077 0 0)
(0.117008 0 0)
(0.135419 0 0)
(0.150218 0 0)
(0.161315 0 0)
(0.168695 0 0)
(0.172376 0 0)
(0.172376 0 0)
(0.168694 0 0)
(0.161313 0 0)
(0.150215 0 0)
(0.135416 0 0)
(0.117005 0 0)
(0.0952047 0 0)
(0.0704203 0 0)
(0.0432735 0 0)
(0.0146006 0 0)
(0.018438 0 0)
(0.0545761 0 0)
(0.0886057 0 0)
(0.119428 0 0)
(0.146286 0 0)
(0.16875 0 0)
(0.186645 0 0)
(0.199959 0 0)
(0.208763 0 0)
(0.213139 0 0)
(0.213139 0 0)
(0.208762 0 0)
(0.199958 0 0)
(0.186643 0 0)
(0.168748 0 0)
(0.146284 0 0)
(0.119426 0 0)
(0.0886038 0 0)
(0.0545745 0 0)
(0.0184372 0 0)
(0.0232377 0 0)
(0.0686559 0 0)
(0.111096 0 0)
(0.149114 0 0)
(0.181824 0 0)
(0.208836 0 0)
(0.230102 0 0)
(0.24577 0 0)
(0.256054 0 0)
(0.261142 0 0)
(0.261142 0 0)
(0.256054 0 0)
(0.24577 0 0)
(0.230101 0 0)
(0.208835 0 0)
(0.181823 0 0)
(0.149113 0 0)
(0.111095 0 0)
(0.068655 0 0)
(0.0232372 0 0)
(0.029322 0 0)
(0.086391 0 0)
(0.139121 0 0)
(0.185623 0 0)
(0.224947 0 0)
(0.256873 0 0)
(0.281631 0 0)
(0.299646 0 0)
(0.311361 0 0)
(0.317125 0 0)
(0.317125 0 0)
(0.311361 0 0)
(0.299646 0 0)
(0.281631 0 0)
(0.256873 0 0)
(0.224947 0 0)
(0.185623 0 0)
(0.139121 0 0)
(0.0863907 0 0)
(0.0293217 0 0)
(0.0372044 0 0)
(0.10913 0 0)
(0.174462 0 0)
(0.230798 0 0)
(0.277315 0 0)
(0.314244 0 0)
(0.34233 0 0)
(0.36245 0 0)
(0.375387 0 0)
(0.381709 0 0)
(0.381709 0 0)
(0.375388 0 0)
(0.36245 0 0)
(0.34233 0 0)
(0.314245 0 0)
(0.277316 0 0)
(0.230799 0 0)
(0.174463 0 0)
(0.10913 0 0)
(0.0372044 0 0)
(0.0477823 0 0)
(0.139094 0 0)
(0.219837 0 0)
(0.287204 0 0)
(0.34103 0 0)
(0.382517 0 0)
(0.4133 0 0)
(0.434935 0 0)
(0.448659 0 0)
(0.455311 0 0)
(0.455312 0 0)
(0.44866 0 0)
(0.434936 0 0)
(0.413302 0 0)
(0.382519 0 0)
(0.341032 0 0)
(0.287206 0 0)
(0.219839 0 0)
(0.139095 0 0)
(0.0477826 0 0)
(0.0628077 0 0)
(0.180205 0 0)
(0.279536 0 0)
(0.358447 0 0)
(0.418693 0 0)
(0.463376 0 0)
(0.495531 0 0)
(0.517619 0 0)
(0.53141 0 0)
(0.538034 0 0)
(0.538034 0 0)
(0.531411 0 0)
(0.51762 0 0)
(0.495534 0 0)
(0.463378 0 0)
(0.418696 0 0)
(0.358449 0 0)
(0.279538 0 0)
(0.180207 0 0)
(0.0628082 0 0)
(0.086221 0 0)
(0.239888 0 0)
(0.360483 0 0)
(0.449484 0 0)
(0.513327 0 0)
(0.558407 0 0)
(0.589676 0 0)
(0.610596 0 0)
(0.623433 0 0)
(0.629537 0 0)
(0.629537 0 0)
(0.623434 0 0)
(0.610598 0 0)
(0.589678 0 0)
(0.55841 0 0)
(0.51333 0 0)
(0.449487 0 0)
(0.360486 0 0)
(0.23989 0 0)
(0.0862216 0 0)
(0.128548 0 0)
(0.333059 0 0)
(0.473703 0 0)
(0.566607 0 0)
(0.627874 0 0)
(0.668597 0 0)
(0.695681 0 0)
(0.713296 0 0)
(0.723912 0 0)
(0.72891 0 0)
(0.72891 0 0)
(0.723913 0 0)
(0.713298 0 0)
(0.695683 0 0)
(0.6686 0 0)
(0.627877 0 0)
(0.566609 0 0)
(0.473706 0 0)
(0.333061 0 0)
(0.128549 0 0)
(0.223563 0 0)
(0.490405 0 0)
(0.635169 0 0)
(0.716053 0 0)
(0.763823 0 0)
(0.793429 0 0)
(0.812278 0 0)
(0.824212 0 0)
(0.831289 0 0)
(0.834592 0 0)
(0.834593 0 0)
(0.83129 0 0)
(0.824213 0 0)
(0.81228 0 0)
(0.793431 0 0)
(0.763825 0 0)
(0.716056 0 0)
(0.635171 0 0)
(0.490406 0 0)
(0.223564 0 0)
(0.498927 0 0)
(0.770018 0 0)
(0.860824 0 0)
(0.899039 0 0)
(0.918463 0 0)
(0.929633 0 0)
(0.936482 0 0)
(0.940734 0 0)
(0.943229 0 0)
(0.944387 0 0)
(0.944387 0 0)
(0.943229 0 0)
(0.940734 0 0)
(0.936483 0 0)
(0.929634 0 0)
(0.918464 0 0)
(0.89904 0 0)
(0.860825 0 0)
(0.770019 0 0)
(0.498927 0 0)
)
;

boundaryField
{
    movingWall
    {
        type            fixedValue;
        value           uniform (1 0 0);
    }
    fixedWalls
    {
        type            noSlip;
    }
    frontAndBack
    {
        type            empty;
    }
}


// ************************************************************************* //
