/*--------------------------------*- C++ -*----------------------------------*\
| =========                 |                                                 |
| \\      /  F ield         | OpenFOAM: The Open Source CFD Toolbox           |
|  \\    /   O peration     | Version:  v2106                                 |
|   \\  /    A nd           | Website:  www.openfoam.com                      |
|    \\/     M anipulation  |                                                 |
\*---------------------------------------------------------------------------*/
FoamFile
{
    version     2.0;
    format      ascii;
    arch        "LSB;label=32;scalar=64";
    class       volVectorField;
    location    "40";
    object      flux;
}
// * * * * * * * * * * * * * * * * * * * * * * * * * * * * * * * * * * * * * //

dimensions      [0 1 -1 1 0 0 0];

internalField   nonuniform List<vector> 
4000
(
(2.0373398e-06 2.0373398e-06 1.8803551)
(2.4475565e-06 1.2471261e-06 1.8803625)
(1.1186982e-06 1.6585506e-06 1.8803644)
(7.943892e-07 1.4284505e-06 1.8803669)
(1.2540848e-07 1.4835239e-06 1.8803673)
(-1.3947348e-07 1.4640297e-06 1.8803674)
(-5.0933755e-07 1.4524317e-06 1.8803667)
(-7.5591136e-07 1.4310775e-06 1.8803653)
(-7.9943629e-07 1.3785943e-06 1.8803635)
(-3.7388827e-07 1.2488299e-06 1.8803618)
(1.2471261e-06 2.4475565e-06 1.8803625)
(2.0687673e-06 2.0687674e-06 1.8803674)
(1.3000226e-06 2.1763513e-06 1.8803704)
(6.1936243e-07 1.9872097e-06 1.8803722)
(1.609877e-07 2.0265861e-06 1.8803728)
(-1.7056567e-07 1.9913342e-06 1.8803728)
(-5.4228978e-07 1.9647021e-06 1.880372)
(-8.2974879e-07 1.9187696e-06 1.8803706)
(-9.8168391e-07 1.8208251e-06 1.8803686)
(-5.036526e-07 1.6921929e-06 1.8803662)
(1.6585506e-06 1.1186982e-06 1.8803644)
(2.1763513e-06 1.3000226e-06 1.8803704)
(1.0371405e-06 1.0371405e-06 1.8803725)
(6.4462403e-07 1.0690979e-06 1.8803744)
(1.2953301e-07 1.0351432e-06 1.8803749)
(-2.0135751e-07 1.0046352e-06 1.8803749)
(-5.8190216e-07 9.7570679e-07 1.8803741)
(-8.9978833e-07 9.3758896e-07 1.8803725)
(-1.026013e-06 8.6016542e-07 1.8803704)
(-5.0252046e-07 7.9391767e-07 1.8803679)
(1.4284505e-06 7.9438917e-07 1.8803669)
(1.9872096e-06 6.1936242e-07 1.8803722)
(1.0690979e-06 6.4462405e-07 1.8803744)
(6.1736516e-07 6.1736517e-07 1.8803762)
(9.6524967e-08 5.8399772e-07 1.8803767)
(-2.3000209e-07 5.5534985e-07 1.8803766)
(-6.0933601e-07 5.2555983e-07 1.8803757)
(-9.4529018e-07 4.9892783e-07 1.8803741)
(-1.1253552e-06 4.6720258e-07 1.8803719)
(-5.6990036e-07 4.1260148e-07 1.8803692)
(1.4835239e-06 1.2540848e-07 1.8803673)
(2.0265861e-06 1.6098768e-07 1.8803728)
(1.0351432e-06 1.2953305e-07 1.8803749)
(5.8399769e-07 9.6524958e-08 1.8803767)
(6.7517701e-08 6.7517693e-08 1.8803771)
(-2.5979541e-07 4.1579708e-08 1.880377)
(-6.3832417e-07 1.2303075e-08 1.880376)
(-9.5814555e-07 -1.7961847e-08 1.8803744)
(-1.1123394e-06 -3.5866093e-08 1.8803721)
(-5.5712156e-07 -3.5361939e-08 1.8803695)
(1.4640297e-06 -1.3947346e-07 1.8803674)
(1.9913342e-06 -1.7056565e-07 1.8803728)
(1.0046352e-06 -2.0135755e-07 1.8803749)
(5.5534982e-07 -2.3000213e-07 1.8803766)
(4.1579708e-08 -2.5979544e-07 1.880377)
(-2.8521669e-07 -2.8521671e-07 1.8803768)
(-6.6887759e-07 -3.0892637e-07 1.8803758)
(-9.9345935e-07 -3.3686546e-07 1.8803741)
(-1.1427553e-06 -3.6508793e-07 1.8803717)
(-5.6939621e-07 -3.8431029e-07 1.880369)
(1.4524317e-06 -5.093376e-07 1.8803667)
(1.9647021e-06 -5.4228976e-07 1.880372)
(9.7570676e-07 -5.8190218e-07 1.8803741)
(5.2555979e-07 -6.0933601e-07 1.8803757)
(1.2303119e-08 -6.3832417e-07 1.880376)
(-3.0892635e-07 -6.6887759e-07 1.8803758)
(-6.8997291e-07 -6.8997291e-07 1.8803747)
(-1.0143071e-06 -7.1245001e-07 1.880373)
(-1.1597842e-06 -7.3411915e-07 1.8803706)
(-5.7634393e-07 -7.4967057e-07 1.8803679)
(1.4310775e-06 -7.5591131e-07 1.8803653)
(1.9187696e-06 -8.2974883e-07 1.8803706)
(9.3758895e-07 -8.9978838e-07 1.8803725)
(4.9892784e-07 -9.4529014e-07 1.8803741)
(-1.7961839e-08 -9.581455e-07 1.8803744)
(-3.3686544e-07 -9.9345935e-07 1.8803741)
(-7.1245003e-07 -1.0143071e-06 1.880373)
(-1.0376056e-06 -1.0376056e-06 1.8803712)
(-1.1799758e-06 -1.0638068e-06 1.8803687)
(-5.8494765e-07 -1.086443e-06 1.880366)
(1.3785942e-06 -7.9943626e-07 1.8803635)
(1.820825e-06 -9.8168391e-07 1.8803686)
(8.6016545e-07 -1.026013e-06 1.8803704)
(4.6720265e-07 -1.1253552e-06 1.8803719)
(-3.586611e-08 -1.1123394e-06 1.8803721)
(-3.6508797e-07 -1.1427553e-06 1.8803717)
(-7.3411913e-07 -1.1597842e-06 1.8803706)
(-1.0638068e-06 -1.1799758e-06 1.8803687)
(-1.2086216e-06 -1.2086216e-06 1.8803662)
(-5.9898013e-07 -1.2402953e-06 1.8803634)
(1.2488299e-06 -3.7388828e-07 1.8803618)
(1.6921929e-06 -5.0365261e-07 1.8803662)
(7.9391766e-07 -5.0252042e-07 1.8803679)
(4.1260147e-07 -5.6990039e-07 1.8803692)
(-3.536193e-08 -5.5712161e-07 1.8803695)
(-3.8431027e-07 -5.6939621e-07 1.880369)
(-7.4967054e-07 -5.7634391e-07 1.8803679)
(-1.086443e-06 -5.8494762e-07 1.880366)
(-1.2402953e-06 -5.9898011e-07 1.8803634)
(-6.1662132e-07 -6.1662132e-07 1.8803605)
(5.3081371e-06 5.3081371e-06 1.8803249)
(6.7924977e-06 3.6740874e-06 1.8803308)
(3.2450635e-06 4.3124087e-06 1.8803329)
(2.1342266e-06 3.9070252e-06 1.8803348)
(4.3740866e-07 3.9904825e-06 1.8803354)
(-4.8880351e-07 3.9450849e-06 1.8803354)
(-1.5770234e-06 3.910858e-06 1.8803346)
(-2.3775978e-06 3.8421593e-06 1.8803332)
(-2.7452023e-06 3.7031793e-06 1.8803312)
(-1.3919395e-06 3.1750035e-06 1.8803287)
(3.6740874e-06 6.7924977e-06 1.8803308)
(5.7967692e-06 5.7967692e-06 1.8803352)
(3.4780012e-06 5.9063218e-06 1.8803376)
(1.8123005e-06 5.5382672e-06 1.8803393)
(4.754684e-07 5.5793464e-06 1.8803399)
(-5.6842802e-07 5.490019e-06 1.8803398)
(-1.6799491e-06 5.4112881e-06 1.880339)
(-2.5852765e-06 5.2621391e-06 1.8803374)
(-3.4123581e-06 4.9842468e-06 1.8803353)
(-1.9201153e-06 4.4388264e-06 1.8803321)
(4.3124087e-06 3.2450635e-06 1.8803329)
(5.9063218e-06 3.4780013e-06 1.8803376)
(2.9865614e-06 2.9865614e-06 1.8803397)
(1.8072512e-06 2.9899958e-06 1.8803413)
(3.8916054e-07 2.898094e-06 1.8803419)
(-6.5686187e-07 2.8101965e-06 1.8803418)
(-1.8049034e-06 2.7244038e-06 1.8803409)
(-2.804639e-06 2.6045456e-06 1.8803392)
(-3.568515e-06 2.377372e-06 1.8803369)
(-1.93736e-06 2.1989497e-06 1.8803337)
(3.9070252e-06 2.1342266e-06 1.8803348)
(5.5382671e-06 1.8123004e-06 1.8803393)
(2.9899958e-06 1.8072512e-06 1.8803413)
(1.7238331e-06 1.7238331e-06 1.8803429)
(2.9566914e-07 1.6307783e-06 1.8803434)
(-7.4211817e-07 1.5449547e-06 1.8803432)
(-1.8856001e-06 1.4557267e-06 1.8803423)
(-2.9323084e-06 1.3754352e-06 1.8803405)
(-3.817954e-06 1.2762284e-06 1.8803381)
(-2.0985376e-06 1.1285974e-06 1.8803347)
(3.9904825e-06 4.3740863e-07 1.8803354)
(5.5793464e-06 4.7546839e-07 1.8803399)
(2.898094e-06 3.8916054e-07 1.8803419)
(1.6307782e-06 2.9566911e-07 1.8803434)
(2.1028218e-07 2.1028221e-07 1.8803438)
(-8.3191338e-07 1.3202264e-07 1.8803436)
(-1.9744229e-06 4.4046511e-08 1.8803426)
(-2.9841373e-06 -4.54645e-08 1.8803408)
(-3.8153528e-06 -1.0448145e-07 1.8803384)
(-2.084991e-06 -1.2253155e-07 1.8803349)
(3.945085e-06 -4.8880351e-07 1.8803354)
(5.490019e-06 -5.68428e-07 1.8803398)
(2.8101965e-06 -6.5686187e-07 1.8803418)
(1.5449547e-06 -7.4211817e-07 1.8803432)
(1.3202265e-07 -8.3191341e-07 1.8803436)
(-9.0835386e-07 -9.0835385e-07 1.8803433)
(-2.0630872e-06 -9.8104706e-07 1.8803423)
(-3.0808363e-06 -1.0635873e-06 1.8803404)
(-3.895021e-06 -1.1434531e-06 1.8803379)
(-2.1165877e-06 -1.1965741e-06 1.8803345)
(3.910858e-06 -1.5770234e-06 1.8803346)
(5.4112881e-06 -1.6799491e-06 1.880339)
(2.7244038e-06 -1.8049034e-06 1.8803409)
(1.4557267e-06 -1.8856001e-06 1.8803423)
(4.4046503e-08 -1.9744229e-06 1.8803426)
(-9.8104705e-07 -2.0630872e-06 1.8803423)
(-2.1296563e-06 -2.1296563e-06 1.8803412)
(-3.1465434e-06 -2.1997706e-06 1.8803393)
(-3.9483397e-06 -2.2688707e-06 1.8803367)
(-2.1381119e-06 -2.3203197e-06 1.8803332)
(3.8421592e-06 -2.3775978e-06 1.8803332)
(5.2621391e-06 -2.5852765e-06 1.8803374)
(2.6045456e-06 -2.804639e-06 1.8803392)
(1.3754352e-06 -2.9323084e-06 1.8803405)
(-4.5464518e-08 -2.9841373e-06 1.8803408)
(-1.0635873e-06 -3.0808363e-06 1.8803404)
(-2.1997706e-06 -3.1465434e-06 1.8803393)
(-3.2200507e-06 -3.2200507e-06 1.8803373)
(-4.0155701e-06 -3.3071555e-06 1.8803347)
(-2.1680367e-06 -3.3874059e-06 1.8803312)
(3.7031792e-06 -2.7452023e-06 1.8803312)
(4.9842468e-06 -3.4123581e-06 1.8803353)
(2.377372e-06 -3.568515e-06 1.8803369)
(1.2762284e-06 -3.817954e-06 1.8803381)
(-1.0448144e-07 -3.8153528e-06 1.8803384)
(-1.1434531e-06 -3.895021e-06 1.8803379)
(-2.2688707e-06 -3.9483396e-06 1.8803367)
(-3.3071555e-06 -4.0155701e-06 1.8803347)
(-4.1156949e-06 -4.1156949e-06 1.880332)
(-2.2183624e-06 -4.2586383e-06 1.8803284)
(3.1750035e-06 -1.3919395e-06 1.8803287)
(4.4388264e-06 -1.9201153e-06 1.8803321)
(2.1989497e-06 -1.93736e-06 1.8803337)
(1.1285974e-06 -2.0985376e-06 1.8803347)
(-1.2253154e-07 -2.084991e-06 1.8803349)
(-1.1965741e-06 -2.1165877e-06 1.8803345)
(-2.3203197e-06 -2.1381119e-06 1.8803332)
(-3.3874059e-06 -2.1680367e-06 1.8803312)
(-4.2586383e-06 -2.2183624e-06 1.8803284)
(-2.3109801e-06 -2.3109802e-06 1.8803244)
(7.956679e-06 7.956679e-06 1.8802618)
(1.0473128e-05 5.5726749e-06 1.8802668)
(5.135674e-06 6.3533946e-06 1.8802688)
(3.2787431e-06 5.8393626e-06 1.8802704)
(6.9074791e-07 5.9276822e-06 1.8802709)
(-9.3600022e-07 5.862258e-06 1.8802708)
(-2.7559319e-06 5.8044595e-06 1.8802699)
(-4.1813753e-06 5.6706696e-06 1.8802683)
(-5.2312631e-06 5.4973607e-06 1.8802662)
(-2.8385895e-06 4.6502939e-06 1.8802633)
(5.5726749e-06 1.0473128e-05 1.8802668)
(8.8698434e-06 8.8698434e-06 1.8802706)
(5.4023617e-06 8.9810541e-06 1.8802727)
(2.8530307e-06 8.4850503e-06 1.8802742)
(7.1364332e-07 8.505983e-06 1.8802747)
(-1.0592229e-06 8.3711635e-06 1.8802745)
(-2.9475203e-06 8.2442711e-06 1.8802736)
(-4.4884741e-06 7.9646781e-06 1.8802719)
(-6.2516387e-06 7.5286507e-06 1.8802696)
(-3.6856562e-06 6.6145314e-06 1.880266)
(6.3533946e-06 5.135674e-06 1.8802688)
(8.9810541e-06 5.4023617e-06 1.8802727)
(4.7508809e-06 4.7508809e-06 1.8802746)
(2.803672e-06 4.709151e-06 1.880276)
(5.7686105e-07 4.5634853e-06 1.8802765)
(-1.1977121e-06 4.4205102e-06 1.8802763)
(-3.1624173e-06 4.283826e-06 1.8802754)
(-4.8969956e-06 4.0783308e-06 1.8802735)
(-6.5814098e-06 3.6819064e-06 1.880271)
(-3.7527088e-06 3.3848499e-06 1.8802673)
(5.8393626e-06 3.2787431e-06 1.8802704)
(8.4850503e-06 2.8530307e-06 1.8802742)
(4.709151e-06 2.803672e-06 1.880276)
(2.6656351e-06 2.6656351e-06 1.8802774)
(4.2500246e-07 2.5172892e-06 1.8802778)
(-1.3388822e-06 2.374176e-06 1.8802775)
(-3.2896997e-06 2.2256727e-06 1.8802765)
(-5.0903936e-06 2.0946441e-06 1.8802746)
(-6.9451197e-06 1.9313874e-06 1.880272)
(-3.9827128e-06 1.7060208e-06 1.8802682)
(5.9276822e-06 6.9074789e-07 1.8802709)
(8.5059829e-06 7.1364326e-07 1.8802747)
(4.5634853e-06 5.7686107e-07 1.8802765)
(2.5172892e-06 4.2500247e-07 1.8802778)
(2.8540194e-07 2.8540201e-07 1.8802782)
(-1.4893285e-06 1.5556641e-07 1.8802778)
(-3.4419492e-06 8.3313217e-09 1.8802768)
(-5.191281e-06 -1.414555e-07 1.8802748)
(-6.9700331e-06 -2.4655762e-07 1.8802722)
(-3.9780755e-06 -2.9113456e-07 1.8802684)
(5.862258e-06 -9.3600023e-07 1.8802708)
(8.3711635e-06 -1.0592229e-06 1.8802745)
(4.4205102e-06 -1.1977121e-06 1.8802763)
(2.374176e-06 -1.3388822e-06 1.8802775)
(1.5556644e-07 -1.4893284e-06 1.8802778)
(-1.6159529e-06 -1.6159529e-06 1.8802775)
(-3.5867216e-06 -1.7385718e-06 1.8802764)
(-5.3452826e-06 -1.8754643e-06 1.8802743)
(-7.0947987e-06 -2.0060633e-06 1.8802717)
(-4.0272897e-06 -2.0925687e-06 1.8802678)
(5.8044595e-06 -2.7559318e-06 1.8802699)
(8.2442711e-06 -2.9475202e-06 1.8802736)
(4.283826e-06 -3.1624173e-06 1.8802754)
(2.2256728e-06 -3.2896997e-06 1.8802765)
(8.331287e-09 -3.4419492e-06 1.8802768)
(-1.7385718e-06 -3.5867216e-06 1.8802764)
(-3.7014606e-06 -3.7014606e-06 1.8802752)
(-5.4587725e-06 -3.8228582e-06 1.8802731)
(-7.1871376e-06 -3.9464714e-06 1.8802704)
(-4.0645809e-06 -4.0455703e-06 1.8802665)
(5.6706696e-06 -4.1813753e-06 1.8802683)
(7.964678e-06 -4.488474e-06 1.8802719)
(4.0783308e-06 -4.8969956e-06 1.8802735)
(2.0946441e-06 -5.0903937e-06 1.8802746)
(-1.4145555e-07 -5.191281e-06 1.8802748)
(-1.8754643e-06 -5.3452826e-06 1.8802743)
(-3.8228582e-06 -5.4587725e-06 1.8802731)
(-5.5902933e-06 -5.5902933e-06 1.880271)
(-7.3175108e-06 -5.755318e-06 1.8802682)
(-4.1263887e-06 -5.8983601e-06 1.8802642)
(5.4973607e-06 -5.2312631e-06 1.8802662)
(7.5286507e-06 -6.2516388e-06 1.8802696)
(3.6819064e-06 -6.5814098e-06 1.880271)
(1.9313874e-06 -6.9451197e-06 1.880272)
(-2.4655762e-07 -6.9700331e-06 1.8802722)
(-2.0060633e-06 -7.0947987e-06 1.8802717)
(-3.9464713e-06 -7.1871376e-06 1.8802704)
(-5.755318e-06 -7.3175108e-06 1.8802682)
(-7.4952043e-06 -7.4952043e-06 1.8802653)
(-4.207623e-06 -7.9788882e-06 1.8802613)
(4.650294e-06 -2.8385895e-06 1.8802633)
(6.6145313e-06 -3.6856563e-06 1.880266)
(3.3848498e-06 -3.7527088e-06 1.8802673)
(1.7060208e-06 -3.9827128e-06 1.8802682)
(-2.9113451e-07 -3.9780755e-06 1.8802684)
(-2.0925687e-06 -4.0272897e-06 1.8802678)
(-4.0455703e-06 -4.0645809e-06 1.8802665)
(-5.8983601e-06 -4.1263887e-06 1.8802642)
(-7.9788882e-06 -4.2076231e-06 1.8802613)
(-4.6100725e-06 -4.6100725e-06 1.8802566)
(1.0390048e-05 1.0390048e-05 1.8801648)
(1.378928e-05 7.3918739e-06 1.8801695)
(6.7967141e-06 8.291748e-06 1.8801712)
(4.2833455e-06 7.6788871e-06 1.8801726)
(8.3519079e-07 7.7708606e-06 1.880173)
(-1.4761097e-06 7.6878113e-06 1.8801728)
(-4.045622e-06 7.6106451e-06 1.8801719)
(-6.1113915e-06 7.3926628e-06 1.8801702)
(-7.7799422e-06 7.147082e-06 1.8801679)
(-4.288736e-06 5.9298335e-06 1.880165)
(7.3918739e-06 1.378928e-05 1.8801695)
(1.169098e-05 1.169098e-05 1.880173)
(7.0837274e-06 1.1795039e-05 1.8801749)
(3.7624582e-06 1.1181747e-05 1.8801762)
(8.44115e-07 1.118242e-05 1.8801766)
(-1.6363252e-06 1.1004739e-05 1.8801764)
(-4.3407705e-06 1.0839773e-05 1.8801754)
(-6.5749546e-06 1.0422574e-05 1.8801735)
(-9.2427715e-06 9.8120321e-06 1.8801711)
(-5.5059845e-06 8.4952156e-06 1.8801675)
(8.291748e-06 6.7967142e-06 1.8801712)
(1.1795039e-05 7.0837274e-06 1.8801749)
(6.287481e-06 6.287481e-06 1.8801766)
(3.6707269e-06 6.2032847e-06 1.8801778)
(6.5818227e-07 6.0065941e-06 1.8801782)
(-1.8187567e-06 5.8083775e-06 1.8801779)
(-4.627787e-06 5.6250784e-06 1.8801769)
(-7.1391326e-06 5.3417581e-06 1.8801749)
(-9.7073003e-06 4.7916174e-06 1.8801723)
(-5.6055525e-06 4.3927174e-06 1.8801686)
(7.6788871e-06 4.2833456e-06 1.8801726)
(1.1181747e-05 3.7624581e-06 1.8801762)
(6.2032847e-06 3.6707269e-06 1.8801778)
(3.4815713e-06 3.4815713e-06 1.880179)
(4.4920774e-07 3.2809896e-06 1.8801794)
(-2.017841e-06 3.0809715e-06 1.880179)
(-4.8073899e-06 2.8728186e-06 1.8801779)
(-7.4084156e-06 2.6886152e-06 1.8801759)
(-1.0191812e-05 2.4552886e-06 1.8801732)
(-5.9048844e-06 2.1511727e-06 1.8801693)
(7.7708606e-06 8.3519081e-07 1.880173)
(1.118242e-05 8.4411506e-07 1.8801766)
(6.0065941e-06 6.5818228e-07 1.8801782)
(3.2809896e-06 4.4920775e-07 1.8801794)
(2.5758251e-07 2.5758251e-07 1.8801796)
(-2.2269277e-06 7.6778583e-08 1.8801792)
(-5.0201433e-06 -1.2876353e-07 1.8801781)
(-7.5566626e-06 -3.3707143e-07 1.880176)
(-1.0244743e-05 -4.8787765e-07 1.8801733)
(-5.9096684e-06 -5.5890791e-07 1.8801694)
(7.6878113e-06 -1.4761098e-06 1.8801728)
(1.1004739e-05 -1.6363253e-06 1.8801764)
(5.8083775e-06 -1.8187567e-06 1.8801779)
(3.0809715e-06 -2.017841e-06 1.880179)
(7.6778557e-08 -2.2269277e-06 1.8801792)
(-2.404187e-06 -2.404187e-06 1.8801788)
(-5.2212399e-06 -2.5776528e-06 1.8801776)
(-7.7675297e-06 -2.7695613e-06 1.8801754)
(-1.0413649e-05 -2.9513876e-06 1.8801726)
(-5.9759147e-06 -3.071373e-06 1.8801687)
(7.6106451e-06 -4.045622e-06 1.8801719)
(1.0839773e-05 -4.3407705e-06 1.8801754)
(5.6250784e-06 -4.6277871e-06 1.8801769)
(2.8728186e-06 -4.8073899e-06 1.8801779)
(-1.2876354e-07 -5.0201433e-06 1.8801781)
(-2.5776528e-06 -5.2212399e-06 1.8801776)
(-5.3855176e-06 -5.3855177e-06 1.8801763)
(-7.9303973e-06 -5.5603838e-06 1.8801741)
(-1.0546555e-05 -5.7452156e-06 1.8801713)
(-6.0296538e-06 -5.9082287e-06 1.8801674)
(7.3926628e-06 -6.1113916e-06 1.8801702)
(1.0422574e-05 -6.5749546e-06 1.8801735)
(5.3417581e-06 -7.1391326e-06 1.8801749)
(2.6886152e-06 -7.4084157e-06 1.8801759)
(-3.3707145e-07 -7.5566626e-06 1.880176)
(-2.7695613e-06 -7.7675298e-06 1.8801754)
(-5.5603837e-06 -7.9303974e-06 1.8801741)
(-8.1272277e-06 -8.1272277e-06 1.8801719)
(-1.0761494e-05 -8.3872976e-06 1.880169)
(-6.1389278e-06 -8.5431827e-06 1.8801649)
(7.147082e-06 -7.7799423e-06 1.8801679)
(9.8120322e-06 -9.2427715e-06 1.8801711)
(4.7916174e-06 -9.7073003e-06 1.8801723)
(2.4552886e-06 -1.0191812e-05 1.8801732)
(-4.8787765e-07 -1.0244743e-05 1.8801733)
(-2.9513876e-06 -1.0413649e-05 1.8801726)
(-5.7452156e-06 -1.0546555e-05 1.8801713)
(-8.3872976e-06 -1.0761494e-05 1.880169)
(-1.096251e-05 -1.096251e-05 1.8801659)
(-6.1855389e-06 -1.1839939e-05 1.880162)
(5.9298335e-06 -4.2887359e-06 1.880165)
(8.4952156e-06 -5.5059845e-06 1.8801675)
(4.3927174e-06 -5.6055525e-06 1.8801686)
(2.1511726e-06 -5.9048844e-06 1.8801693)
(-5.5890792e-07 -5.9096684e-06 1.8801694)
(-3.071373e-06 -5.9759147e-06 1.8801687)
(-5.9082287e-06 -6.0296538e-06 1.8801674)
(-8.5431826e-06 -6.1389278e-06 1.8801649)
(-1.1839939e-05 -6.1855389e-06 1.880162)
(-7.0163569e-06 -7.0163569e-06 1.8801572)
(1.2659704e-05 1.2659704e-05 1.8800355)
(1.6864052e-05 9.0918156e-06 1.8800399)
(8.3052573e-06 1.0103151e-05 1.8800415)
(5.1585233e-06 9.3966685e-06 1.8800428)
(8.8176058e-07 9.4921458e-06 1.8800431)
(-2.0917517e-06 9.3917983e-06 1.8800428)
(-5.4058359e-06 9.3010491e-06 1.8800418)
(-8.1432483e-06 9.0109312e-06 1.8800401)
(-1.0416557e-05 8.7070523e-06 1.8800377)
(-5.7632464e-06 7.1155985e-06 1.8800348)
(9.0918157e-06 1.6864052e-05 1.8800399)
(1.4307499e-05 1.4307499e-05 1.8800432)
(8.6101102e-06 1.4403686e-05 1.880045)
(4.5475184e-06 1.3679746e-05 1.8800462)
(8.7689038e-07 1.3661252e-05 1.8800465)
(-2.2828484e-06 1.3440092e-05 1.8800461)
(-5.786703e-06 1.3240511e-05 1.8800451)
(-8.7372451e-06 1.2694681e-05 1.8800432)
(-1.2311889e-05 1.192848e-05 1.8800408)
(-7.3547002e-06 1.0208989e-05 1.8800371)
(1.0103151e-05 8.3052574e-06 1.8800415)
(1.4403686e-05 8.6101102e-06 1.880045)
(7.6775043e-06 7.6775043e-06 1.8800465)
(4.4160898e-06 7.5540113e-06 1.8800477)
(6.421062e-07 7.3091881e-06 1.8800479)
(-2.5124934e-06 7.0559811e-06 1.8800476)
(-6.1512463e-06 6.8247205e-06 1.8800465)
(-9.4552794e-06 6.459798e-06 1.8800445)
(-1.2902249e-05 5.7599063e-06 1.8800418)
(-7.4827373e-06 5.2642196e-06 1.8800381)
(9.3966685e-06 5.1585234e-06 1.8800428)
(1.3679746e-05 4.5475184e-06 1.8800462)
(7.5540113e-06 4.4160899e-06 1.8800477)
(4.1792022e-06 4.1792022e-06 1.8800487)
(3.7886024e-07 3.9290016e-06 1.880049)
(-2.767316e-06 3.6739392e-06 1.8800485)
(-6.3828861e-06 3.407991e-06 1.8800474)
(-9.8020593e-06 3.1708585e-06 1.8800453)
(-1.3507468e-05 2.8666456e-06 1.8800426)
(-7.8503869e-06 2.4845731e-06 1.8800388)
(9.4921458e-06 8.8176057e-07 1.8800431)
(1.3661252e-05 8.7689037e-07 1.8800465)
(7.3091881e-06 6.4210623e-07 1.8800479)
(3.9290015e-06 3.7886024e-07 1.880049)
(1.3684323e-07 1.3684324e-07 1.8800491)
(-3.033504e-06 -9.4058468e-08 1.8800486)
(-6.654327e-06 -3.5700803e-07 1.8800475)
(-9.9966247e-06 -6.227809e-07 1.8800453)
(-1.3588535e-05 -8.1895406e-07 1.8800426)
(-7.8648098e-06 -9.1607978e-07 1.8800387)
(9.3917983e-06 -2.0917517e-06 1.8800428)
(1.3440092e-05 -2.2828484e-06 1.8800461)
(7.0559811e-06 -2.5124934e-06 1.8800476)
(3.6739392e-06 -2.7673159e-06 1.8800485)
(-9.4058476e-08 -3.033504e-06 1.8800486)
(-3.2611672e-06 -3.2611672e-06 1.8800481)
(-6.9116085e-06 -3.4856773e-06 1.8800469)
(-1.0264005e-05 -3.7323993e-06 1.8800447)
(-1.3800767e-05 -3.9644317e-06 1.8800419)
(-7.9475126e-06 -4.1155737e-06 1.880038)
(9.301049e-06 -5.4058358e-06 1.8800418)
(1.3240511e-05 -5.786703e-06 1.8800451)
(6.8247205e-06 -6.1512463e-06 1.8800465)
(3.407991e-06 -6.3828861e-06 1.8800474)
(-3.5700802e-07 -6.654327e-06 1.8800475)
(-3.4856774e-06 -6.9116086e-06 1.8800469)
(-7.1255591e-06 -7.1255591e-06 1.8800456)
(-1.0475379e-05 -7.3530906e-06 1.8800434)
(-1.3971709e-05 -7.6019671e-06 1.8800405)
(-8.0159518e-06 -7.8483435e-06 1.8800366)
(9.0109312e-06 -8.1432484e-06 1.8800401)
(1.2694681e-05 -8.7372451e-06 1.8800432)
(6.459798e-06 -9.4552794e-06 1.8800445)
(3.1708585e-06 -9.8020593e-06 1.8800453)
(-6.2278094e-07 -9.9966248e-06 1.8800453)
(-3.7323993e-06 -1.0264005e-05 1.8800447)
(-7.3530906e-06 -1.0475379e-05 1.8800434)
(-1.0740413e-05 -1.0740413e-05 1.8800411)
(-1.429602e-05 -1.1123438e-05 1.8800382)
(-8.193889e-06 -1.127321e-05 1.8800341)
(8.7070523e-06 -1.0416557e-05 1.8800377)
(1.192848e-05 -1.2311889e-05 1.8800408)
(5.7599063e-06 -1.2902249e-05 1.8800418)
(2.8666456e-06 -1.3507468e-05 1.8800426)
(-8.1895402e-07 -1.3588535e-05 1.8800426)
(-3.9644318e-06 -1.3800767e-05 1.8800419)
(-7.6019672e-06 -1.3971709e-05 1.8800405)
(-1.1123438e-05 -1.429602e-05 1.8800382)
(-1.4504506e-05 -1.4504506e-05 1.880035)
(-8.1657241e-06 -1.5740746e-05 1.8800311)
(7.1155985e-06 -5.7632464e-06 1.8800348)
(1.0208989e-05 -7.3547002e-06 1.8800371)
(5.2642195e-06 -7.4827374e-06 1.8800381)
(2.4845732e-06 -7.8503869e-06 1.8800388)
(-9.1607978e-07 -7.8648098e-06 1.8800387)
(-4.1155738e-06 -7.9475127e-06 1.880038)
(-7.8483436e-06 -8.0159518e-06 1.8800366)
(-1.127321e-05 -8.1938891e-06 1.8800341)
(-1.5740746e-05 -8.1657241e-06 1.8800311)
(-9.4301296e-06 -9.4301296e-06 1.8800263)
(1.4831595e-05 1.4831595e-05 1.8798748)
(1.9778137e-05 1.0715657e-05 1.879879)
(9.6858641e-06 1.1832544e-05 1.8798805)
(5.9246358e-06 1.1037702e-05 1.8798817)
(8.4903133e-07 1.113658e-05 1.8798819)
(-2.7649374e-06 1.1018444e-05 1.8798815)
(-6.7948411e-06 1.09124e-05 1.8798805)
(-1.0184457e-05 1.055016e-05 1.8798788)
(-1.3038844e-05 1.0191767e-05 1.8798764)
(-7.2205725e-06 8.2329482e-06 1.8798736)
(1.0715657e-05 1.9778137e-05 1.879879)
(1.6779086e-05 1.6779086e-05 1.8798822)
(1.000791e-05 1.6868076e-05 1.8798838)
(5.228672e-06 1.603971e-05 1.8798849)
(8.2977358e-07 1.6003571e-05 1.8798851)
(-2.9891176e-06 1.5739786e-05 1.8798847)
(-7.2631256e-06 1.5504602e-05 1.8798837)
(-1.0905091e-05 1.4829668e-05 1.8798818)
(-1.5356055e-05 1.3914399e-05 1.8798793)
(-9.1793908e-06 1.1800113e-05 1.8798757)
(1.1832544e-05 9.6858641e-06 1.8798805)
(1.6868076e-05 1.000791e-05 1.8798838)
(8.9464882e-06 8.9464882e-06 1.8798852)
(5.0601314e-06 8.7858149e-06 1.8798863)
(5.4910692e-07 8.4957151e-06 1.8798864)
(-3.2639066e-06 8.1900447e-06 1.879886)
(-7.7049592e-06 7.9129323e-06 1.8798849)
(-1.177466e-05 7.4664762e-06 1.8798829)
(-1.6068398e-05 6.6206965e-06 1.8798803)
(-9.3348582e-06 6.031287e-06 1.8798766)
(1.1037702e-05 5.9246358e-06 1.8798817)
(1.603971e-05 5.228672e-06 1.8798849)
(8.7858149e-06 5.0601314e-06 1.8798863)
(4.7778989e-06 4.7778989e-06 1.8798872)
(2.3400337e-07 4.4801981e-06 1.8798874)
(-3.5719004e-06 4.1719973e-06 1.8798869)
(-7.9866941e-06 3.8505066e-06 1.8798857)
(-1.2197326e-05 3.5617281e-06 1.8798837)
(-1.6791244e-05 3.1877949e-06 1.879881)
(-9.7688003e-06 2.7294734e-06 1.8798772)
(1.113658e-05 8.4903131e-07 1.8798819)
(1.6003571e-05 8.2977363e-07 1.8798851)
(8.4957151e-06 5.4910694e-07 1.8798864)
(4.4801981e-06 2.3400339e-07 1.8798874)
(-5.6794656e-08 -5.6794621e-08 1.8798875)
(-3.8935981e-06 -3.3661048e-07 1.8798869)
(-8.3152285e-06 -6.5580217e-07 1.8798857)
(-1.2437372e-05 -9.7808156e-07 1.8798836)
(-1.6900652e-05 -1.219312e-06 1.8798809)
(-9.7931796e-06 -1.3425715e-06 1.8798771)
(1.1018444e-05 -2.7649374e-06 1.8798815)
(1.5739786e-05 -2.9891176e-06 1.8798847)
(8.1900446e-06 -3.2639066e-06 1.879886)
(4.1719973e-06 -3.5719004e-06 1.8798869)
(-3.3661046e-07 -3.893598e-06 1.8798869)
(-4.1709079e-06 -4.1709079e-06 1.8798864)
(-8.6281651e-06 -4.4462392e-06 1.8798851)
(-1.2760836e-05 -4.7473029e-06 1.8798829)
(-1.7155734e-05 -5.0276344e-06 1.8798801)
(-9.8920598e-06 -5.2055036e-06 1.8798763)
(1.09124e-05 -6.7948412e-06 1.8798805)
(1.5504602e-05 -7.2631256e-06 1.8798837)
(7.9129323e-06 -7.7049592e-06 1.8798849)
(3.8505067e-06 -7.9866941e-06 1.8798857)
(-6.5580213e-07 -8.3152284e-06 1.8798857)
(-4.4462392e-06 -8.6281651e-06 1.8798851)
(-8.8916235e-06 -8.8916235e-06 1.8798838)
(-1.3018767e-05 -9.1690521e-06 1.8798816)
(-1.7358853e-05 -9.4767214e-06 1.8798787)
(-9.9710488e-06 -9.8132983e-06 1.8798748)
(1.055016e-05 -1.0184457e-05 1.8798788)
(1.4829668e-05 -1.0905091e-05 1.8798818)
(7.4664761e-06 -1.177466e-05 1.8798829)
(3.5617281e-06 -1.2197326e-05 1.8798837)
(-9.7808152e-07 -1.2437372e-05 1.8798836)
(-4.747303e-06 -1.2760836e-05 1.8798829)
(-9.1690521e-06 -1.3018767e-05 1.8798816)
(-1.3345934e-05 -1.3345934e-05 1.8798793)
(-1.779998e-05 -1.3863065e-05 1.8798764)
(-1.0228637e-05 -1.4012453e-05 1.8798724)
(1.0191767e-05 -1.3038843e-05 1.8798764)
(1.3914399e-05 -1.5356055e-05 1.8798793)
(6.6206965e-06 -1.6068398e-05 1.8798803)
(3.1877949e-06 -1.6791244e-05 1.879881)
(-1.219312e-06 -1.6900652e-05 1.8798809)
(-5.0276345e-06 -1.7155734e-05 1.8798801)
(-9.4767214e-06 -1.7358853e-05 1.8798787)
(-1.3863065e-05 -1.779998e-05 1.8798764)
(-1.8025372e-05 -1.8025372e-05 1.8798733)
(-1.0120437e-05 -1.9608885e-05 1.8798694)
(8.2329483e-06 -7.2205725e-06 1.8798736)
(1.1800113e-05 -9.1793908e-06 1.8798757)
(6.031287e-06 -9.3348582e-06 1.8798766)
(2.7294735e-06 -9.7688003e-06 1.8798772)
(-1.3425715e-06 -9.7931796e-06 1.8798771)
(-5.2055037e-06 -9.8920598e-06 1.8798763)
(-9.8132984e-06 -9.9710488e-06 1.8798748)
(-1.4012453e-05 -1.0228637e-05 1.8798724)
(-1.9608885e-05 -1.0120437e-05 1.8798694)
(-1.1812149e-05 -1.1812149e-05 1.8798647)
(1.6895171e-05 1.6895171e-05 1.8796839)
(2.2529442e-05 1.2257495e-05 1.8796879)
(1.0956044e-05 1.3473545e-05 1.8796892)
(6.6007213e-06 1.2595702e-05 1.8796904)
(7.5715162e-07 1.2697942e-05 1.8796905)
(-3.476424e-06 1.2563262e-05 1.8796901)
(-8.1956243e-06 1.2442693e-05 1.8796891)
(-1.2210729e-05 1.201031e-05 1.8796873)
(-1.5616252e-05 1.1600174e-05 1.8796851)
(-8.6465207e-06 9.2858482e-06 1.8796823)
(1.2257495e-05 2.2529442e-05 1.8796879)
(1.9107816e-05 1.9107816e-05 1.8796909)
(1.129425e-05 1.9189983e-05 1.8796924)
(5.8251191e-06 1.8263092e-05 1.8796934)
(7.2471161e-07 1.821041e-05 1.8796936)
(-3.7316732e-06 1.7906463e-05 1.8796931)
(-8.7485762e-06 1.7637673e-05 1.8796921)
(-1.3053248e-05 1.683716e-05 1.8796902)
(-1.8340714e-05 1.5779015e-05 1.8796878)
(-1.0960847e-05 1.3282779e-05 1.8796843)
(1.3473545e-05 1.0956044e-05 1.8796892)
(1.9189983e-05 1.1294251e-05 1.8796924)
(1.0111319e-05 1.0111319e-05 1.8796937)
(5.6211478e-06 9.9150429e-06 1.8796947)
(4.0052298e-07 9.5819328e-06 1.8796948)
(-4.0491606e-06 9.2260666e-06 1.8796943)
(-9.2649269e-06 8.9054761e-06 1.8796932)
(-1.4069387e-05 8.3798596e-06 1.8796912)
(-1.9170634e-05 7.3933064e-06 1.8796887)
(-1.1142757e-05 6.7137584e-06 1.8796851)
(1.2595702e-05 6.6007213e-06 1.8796904)
(1.8263092e-05 5.8251191e-06 1.8796934)
(9.9150428e-06 5.6211478e-06 1.8796947)
(5.2957328e-06 5.2957328e-06 1.8796956)
(3.5735338e-08 4.952641e-06 1.8796956)
(-4.40813e-06 4.5932362e-06 1.8796951)
(-9.5947832e-06 4.218362e-06 1.879694)
(-1.4565418e-05 3.8795922e-06 1.8796919)
(-2.0006815e-05 3.4379046e-06 1.8796893)
(-1.1640395e-05 2.9057112e-06 1.8796856)
(1.2697942e-05 7.571516e-07 1.8796905)
(1.821041e-05 7.2471158e-07 1.8796936)
(9.5819328e-06 4.0052295e-07 1.8796948)
(4.9526409e-06 3.5735356e-08 1.8796956)
(-3.0197357e-07 -3.0197359e-07 1.8796957)
(-4.7834395e-06 -6.290954e-07 1.8796951)
(-9.978571e-06 -1.0028835e-06 1.8796939)
(-1.4849844e-05 -1.3803523e-06 1.8796918)
(-2.0144515e-05 -1.6662039e-06 1.8796891)
(-1.1674951e-05 -1.8160463e-06 1.8796854)
(1.2563262e-05 -3.476424e-06 1.8796901)
(1.7906463e-05 -3.7316732e-06 1.8796931)
(9.2260666e-06 -4.0491606e-06 1.8796943)
(4.5932362e-06 -4.40813e-06 1.8796951)
(-6.2909539e-07 -4.7834395e-06 1.8796951)
(-5.10904e-06 -5.1090399e-06 1.8796945)
(-1.034604e-05 -5.4344208e-06 1.8796932)
(-1.5228738e-05 -5.7895146e-06 1.8796911)
(-2.0442509e-05 -6.1175094e-06 1.8796884)
(-1.1790237e-05 -6.3194544e-06 1.8796846)
(1.2442693e-05 -8.1956243e-06 1.8796891)
(1.7637673e-05 -8.7485762e-06 1.8796921)
(8.905476e-06 -9.2649269e-06 1.8796932)
(4.218362e-06 -9.5947832e-06 1.879694)
(-1.0028835e-06 -9.9785709e-06 1.8796939)
(-5.4344208e-06 -1.034604e-05 1.8796932)
(-1.0659046e-05 -1.0659046e-05 1.8796919)
(-1.5532933e-05 -1.0985555e-05 1.8796897)
(-2.0674454e-05 -1.1347238e-05 1.8796869)
(-1.1876896e-05 -1.1772084e-05 1.8796832)
(1.201031e-05 -1.2210729e-05 1.8796873)
(1.683716e-05 -1.3053248e-05 1.8796902)
(8.3798596e-06 -1.4069387e-05 1.8796912)
(3.8795922e-06 -1.4565418e-05 1.8796919)
(-1.3803523e-06 -1.4849844e-05 1.8796918)
(-5.7895145e-06 -1.5228738e-05 1.8796911)
(-1.0985555e-05 -1.5532933e-05 1.8796897)
(-1.5916931e-05 -1.5916931e-05 1.8796875)
(-2.1229038e-05 -1.656556e-05 1.8796846)
(-1.2215083e-05 -1.6715738e-05 1.8796807)
(1.1600174e-05 -1.5616252e-05 1.8796851)
(1.5779015e-05 -1.8340714e-05 1.8796878)
(7.3933065e-06 -1.9170634e-05 1.8796887)
(3.4379046e-06 -2.0006815e-05 1.8796893)
(-1.6662039e-06 -2.0144515e-05 1.8796891)
(-6.1175094e-06 -2.0442509e-05 1.8796884)
(-1.1347238e-05 -2.0674454e-05 1.8796869)
(-1.656556e-05 -2.1229038e-05 1.8796846)
(-2.1473262e-05 -2.1473262e-05 1.8796816)
(-1.2027073e-05 -2.3394553e-05 1.8796779)
(9.2858482e-06 -8.6465207e-06 1.8796823)
(1.3282779e-05 -1.0960847e-05 1.8796843)
(6.7137584e-06 -1.1142757e-05 1.8796851)
(2.9057112e-06 -1.1640395e-05 1.8796856)
(-1.8160463e-06 -1.1674951e-05 1.8796854)
(-6.3194544e-06 -1.1790237e-05 1.8796846)
(-1.1772084e-05 -1.1876896e-05 1.8796832)
(-1.6715738e-05 -1.2215083e-05 1.8796807)
(-2.3394552e-05 -1.2027073e-05 1.8796779)
(-1.4136374e-05 -1.4136374e-05 1.8796733)
(1.8845131e-05 1.8845131e-05 1.879464)
(2.5117573e-05 1.3714692e-05 1.8794678)
(1.2125994e-05 1.502262e-05 1.879469)
(7.1994689e-06 1.4067328e-05 1.87947)
(6.2303641e-07 1.4172433e-05 1.8794702)
(-4.2040055e-06 1.4022209e-05 1.8794697)
(-9.5817229e-06 1.3887978e-05 1.8794687)
(-1.4192728e-05 1.3388128e-05 1.879467)
(-1.8119314e-05 1.2928887e-05 1.8794648)
(-1.0027183e-05 1.0273355e-05 1.8794621)
(1.3714692e-05 2.5117573e-05 1.8794678)
(2.1295062e-05 2.1295062e-05 1.8794706)
(1.2478631e-05 2.1370346e-05 1.879472)