/*--------------------------------*- C++ -*----------------------------------*\
| =========                 |                                                 |
| \\      /  F ield         | OpenFOAM: The Open Source CFD Toolbox           |
|  \\    /   O peration     | Version:  v2106                                 |
|   \\  /    A nd           | Website:  www.openfoam.com                      |
|    \\/     M anipulation  |                                                 |
\*---------------------------------------------------------------------------*/
FoamFile
{
    version     2.0;
    format      ascii;
    arch        "LSB;label=32;scalar=64";
    class       volScalarField;
    location    "40";
    object      gradTy;
}
// * * * * * * * * * * * * * * * * * * * * * * * * * * * * * * * * * * * * * //

dimensions      [0 -1 0 1 0 0 0];

internalField   nonuniform List<scalar> 
4000
(
0.00030394059
-8.6220479e-05
4.4701153e-06
3.7278861e-06
6.8461035e-06
1.0478857e-05
1.7484042e-05
3.3201244e-05
6.2846423e-05
8.2891662e-05
-9.8763719e-05
-0.00039823418
-0.00030059459
-0.0002972039
-0.0002900329
-0.00028197745
-0.00026929034
-0.00024414247
-0.00019287673
-0.00012734359
-0.00050417555
-0.00041422717
-0.00040314526
-0.00039444337
-0.00038563647
-0.00037591527
-0.0003640687
-0.00034810231
-0.00032144973
-0.00027460171
-0.00015592122
-0.00015354523
-0.00014535955
-0.00013603645
-0.00012637344
-0.00011591219
-0.00010403894
-9.1129312e-05
-7.9847254e-05
-7.4669042e-05
-5.4426373e-05
-4.7675412e-05
-3.9199921e-05
-2.9147299e-05
-1.9075682e-05
-9.0652971e-06
1.2846946e-06
1.2006337e-05
2.2004957e-05
2.8182873e-05
4.4512494e-05
5.5150422e-05
6.5255069e-05
7.6718208e-05
8.7589561e-05
9.7078578e-05
0.0001057011
0.00011329635
0.00011939391
0.00012301881
0.0001194717
0.00014219409
0.00015730668
0.00017000703
0.00018208956
0.00019107866
0.00019830735
0.00020378907
0.00020724848
0.00020865993
0.00015393781
0.00019930018
0.00023035142
0.00024191915
0.00025454312
0.00026263941
0.00026823592
0.00027158055
0.0002721047
0.00026996634
0.00012067228
0.00017036271
0.00023747116
0.00024386331
0.00025393143
0.00026003984
0.00026365388
0.00026491071
0.00026203968
0.00025277633
4.1717289e-05
6.1762529e-05
0.00010725042
0.00010861055
0.00011242863
0.00011478846
0.00011605352
0.00011619992
0.00011391517
0.00010693659
0.00064377478
-0.00017201194
4.36335e-07
4.1831365e-06
1.2840524e-05
2.3439063e-05
4.4220787e-05
9.3739651e-05
0.00019471648
0.00023816378
-0.00034916404
-0.00099250248
-0.00079229068
-0.00077511004
-0.00075428218
-0.00073036098
-0.00069246636
-0.00061450266
-0.00044550546
-0.00026822923
-0.0013061519
-0.0011299568
-0.0010887595
-0.0010616208
-0.001035305
-0.0010061755
-0.00097061535
-0.00092248093
-0.000837415
-0.00069379625
-0.00046766799
-0.00045526381
-0.00042965949
-0.0004018093
-0.00037301603
-0.00034178187
-0.00030632499
-0.00026793556
-0.00023309806
-0.00021323445
-0.00014867756
-0.00012942163
-0.00010392849
-7.3976339e-05
-4.390106e-05
-1.3933812e-05
1.7029596e-05
4.8862782e-05
7.7927994e-05
9.4716453e-05
0.00014593603
0.00017731628
0.00020775183
0.0002420059
0.0002744429
0.00030293657
0.00032882273
0.00035173292
0.00037011065
0.0003805659
0.00037466199
0.00044496258
0.00049052033
0.00052865713
0.00056436662
0.00059145373
0.00061316297
0.00062966425
0.0006399205
0.00064342255
0.00047561474
0.00062611042
0.00072257563
0.00075931076
0.00079580255
0.00082020915
0.00083709048
0.00084696668
0.0008467185
0.00083364828
0.00031075611
0.00045518022
0.00065702952
0.00068386491
0.00071173064
0.00072971856
0.00074056362
0.00074347687
0.00072724521
0.00066034447
6.9644686e-05
0.00011309198
0.0002469209
0.00025671074
0.00026678453
0.0002734992
0.00027723977
0.00027700124
0.00026416955
0.00021010051
0.00078015529
-0.00030881183
-9.0452746e-05
-8.198808e-05
-6.8550485e-05
-5.1835387e-05
-1.917445e-05
6.4002779e-05
0.00025860803
0.00035938317
-0.00065883837
-0.0015294464
-0.0012676852
-0.0012372754
-0.001203815
-0.0011648178
-0.0011037414
-0.00097529127
-0.00067008905
-0.0003576355
-0.001941604
-0.0017147802
-0.001649433
-0.001605112
-0.0015618469
-0.0015133875
-0.0014540849
-0.0013755246
-0.0012341982
-0.0010010482
-0.00073916516
-0.0007172629
-0.00067529498
-0.00062967681
-0.00058226862
-0.00053058603
-0.00047160683
-0.00040768164
-0.0003480949
-0.00031044275
-0.00021113723
-0.00018098456
-0.00013867966
-8.9260016e-05
-3.9588877e-05
1.0065032e-05
6.1377303e-05
0.0001139144
0.00016151521
0.00018859786
0.00027802682
0.00032740285
0.00037810042
0.00043516489
0.00048876221
0.00053613107
0.00057923286
0.00061754759
0.00064836797
0.00066567533
0.000675131
0.00079096917
0.00086465756
0.00092883213
0.00098756195
0.0010326815
0.0010689785
0.0010969323
0.0011146108
0.001120377
0.00086542834
0.0011432108
0.0012990807
0.0013630975
0.0014225926
0.0014632354
0.0014917277
0.0015088677
0.0015070144
0.0014727714
0.00047854406
0.00077392445
0.0010961998
0.0011484008
0.0011934387
0.0012230843
0.0012415664
0.001246529
0.0012054701
0.00096145589
3.5637483e-05
0.00013641262
0.00034809103
0.00036956265
0.00038574318
0.00039664531
0.00040305052
0.00040241147
0.00036880754
0.00015839723
0.00091208729
-0.00041159415
-0.00015201991
-0.00013920984
-0.00012125342
-9.8660691e-05
-5.544722e-05
5.6074201e-05
0.00033577769
0.00047085355
-0.00092141296
-0.0019855202
-0.0016691691
-0.0016266755
-0.0015812127
-0.0015274725
-0.0014442915
-0.001270593
-0.00083741714
-0.00041798262
-0.0024985529
-0.0022261686
-0.0021397082
-0.0020794803
-0.0020199843
-0.0019525799
-0.0018695092
-0.0017607459
-0.0015626373
-0.0012445283
-0.00096413305
-0.00093336657
-0.00087617666
-0.00081364262
-0.00074823282
-0.00067661992
-0.00059454385
-0.00050566647
-0.00042139093
-0.00036532507
-0.00023824863
-0.00019769948
-0.00013904568
-7.0799162e-05
-2.0229859e-06
6.6901748e-05
0.00013821367
0.0002110455
0.00027678613
0.0003141315
0.00044205704
0.00050786324
0.00057897833
0.00065833828
0.00073266729
0.00079857493
0.00085864821
0.00091225194
0.00095559159
0.00097999727
0.0010162626
0.0011709975
0.0012731422
0.0013628316
0.0014440956
0.0015069753
0.0015577726
0.0015975513
0.0016240389
0.0016344728
0.0013295542
0.0017207791
0.0019364285
0.002027651
0.0021095814
0.0021662235
0.0022065248
0.0022324898
0.0022339778
0.0021852574
0.00074124444
0.0011560238
0.0015938548
0.0016722413
0.0017341962
0.0017753273
0.0018019415
0.0018122489
0.0017547091
0.0012659873
4.6727622e-05
0.00018180348
0.00046616213
0.00049991242
0.00052222799
0.00053725781
0.00054663368
0.00054769169
0.00049791328
5.8969822e-05
0.001043827
-0.0004995064
-0.00019978733
-0.00018267502
-0.00016033092
-0.00013184262
-7.7896183e-05
6.1286424e-05
0.00042353508
0.00058275698
-0.0011541411
-0.0023977554
-0.002028444
-0.0019742871
-0.0019172746
-0.0018490707
-0.0017438188
-0.0015258403
-0.00096743812
-0.0004551856
-0.0030036243
-0.002686793
-0.002580156
-0.002504756
-0.0024296711
-0.0023439405
-0.0022376481
-0.0020993867
-0.0018447912
-0.0014460034
-0.0011494266
-0.0011099702
-0.0010382573
-0.00095948535
-0.00087668849
-0.0007857486
-0.0006811864
-0.00056811762
-0.00045954713
-0.00038544229
-0.00023285651
-0.00018202412
-0.00010764012
-2.1208573e-05
6.6096625e-05
0.00015375735
0.00024456292
0.000337121
0.00042048607
0.0004678504
0.00063340005
0.00071583479
0.00080685581
0.00090785784
0.0010023579
0.0010863241
0.0011629394
0.0012314019
0.0012868252
0.0013179756
0.0013816243
0.0015747534
0.0017048548
0.0018193071
0.0019224858
0.0020026708
0.0020675636
0.0021187472
0.0021537701
0.0021690298
0.00182096
0.0023223912
0.0025973407
0.0027152481
0.00281898
0.0028911713
0.0029428657
0.0029773779
0.0029837997
0.0029273302
0.0010393665
0.0015608371
0.0021100212
0.0022142204
0.0022926965
0.0023449498
0.0023792703
0.0023952325
0.0023292226
0.0015822675
7.7544752e-05
0.00023676666
0.00058979727
0.00063555442
0.00066390211
0.00068291876
0.00069505256
0.00069817845
0.00063858304
-4.8776646e-05
0.001174669
-0.00057751671
-0.00023918724
-0.00021783305
-0.00019127954
-0.00015712402
-9.2738775e-05
7.329936e-05
0.00051595479
0.00069579006
-0.0013630076
-0.0027768638
-0.0023564949
-0.002290996
-0.0022228827
-0.002140759
-0.002014108
-0.0017532217
-0.0010726547
-0.00047423073
-0.0034661523
-0.0031064686
-0.0029802844
-0.0028902734
-0.002800183
-0.0026967853
-0.0025680437
-0.0024013303
-0.0020914779
-0.001615559
-0.0013018639
-0.0012539562
-0.0011682517
-0.0010738548
-0.0009743026
-0.00086470572
-0.00073839444
-0.00060200658
-0.0004697856
-0.00037826466
-0.00020017071
-0.00013946168
-4.9933703e-05
5.4026429e-05
0.00015921536
0.00026498352
0.00037466164
0.00048628543
0.00058670219
0.00064376054
0.00084674107
0.00094528185
0.0010555157
0.0011774211
0.0012914239
0.0013928674
0.0014855121
0.001568356
0.0016354085
0.0016729301
0.0017639913
0.0019944147
0.0021515286
0.0022898697
0.0024142277
0.0025111716
0.0025897163
0.00265185
0.0026948086
0.0027140713
0.0023252614
0.0029339549
0.0032667147
0.0034105208
0.0035353235
0.0036225613
0.0036852199
0.0037276536
0.0037385261
0.0036764764
0.0013522151
0.0019747058
0.002631206
0.0027604771
0.0028549479
0.0029179522
0.002959522
0.0029801736
0.0029083448
0.0019042206
0.00011742146
0.00029725673
0.00071584542
0.0007731756
0.00080736635
0.00083023394
0.00084488797
0.0008494967
0.00078283832
-0.00015462754
0.0013023787
-0.00064763365
-0.00027268335
-0.00024719587
-0.00021660564
-0.00017702166
-0.00010261669
8.9234162e-05
0.00060961423
0.00080834261
-0.0015518442
-0.0031269062
-0.002657936
-0.00258148
-0.0025027176
-0.002407243
-0.0022600395
-0.0019579506
-0.0011592973
-0.00047931756
-0.0038904827
-0.0034900449
-0.0033450565
-0.0032410209
-0.0031365378
-0.0030161827
-0.0028658677
-0.002671882
-0.0023086139
-0.0017589026
-0.0014269443
-0.0013708666
-0.0012717259
-0.0011623479
-0.0010467269
-0.00091922348
-0.000772013
-0.00061326912
-0.00045824069
-0.0003499811
-0.00014602906
-7.5854836e-05
2.8207908e-05
0.0001489834
0.00027133234
0.00039448406
0.00052229782
0.00065222323
0.00076902697
0.00083540361
0.0010751589
0.0011891479
0.001317837
0.001459818
0.0015925509
0.0017107834
0.0018188377
0.0019155112
0.0019937471
0.0020373883
0.0021549631
0.0024212189
0.0026042555
0.0027655197
0.0029102099
0.0030232589
0.0031149377
0.0031876048
0.0032381139
0.0032608696
0.0028322999
0.0035445308
0.003933042
0.0041017846
0.0042468143
0.0043485138
0.0044217237
0.00447169
0.0044865961
0.0044196609
0.0016696338
0.0023887422
0.0031482668
0.0033017215
0.0034115548
0.0034849019
0.0035334319
0.0035581667
0.0034814028
0.0022255372
0.00016179347
0.00036052184
0.00084177326
0.0009102331
0.00095003284
0.00097660976
0.00099367403
0.00099936542
0.00092673882
-0.00025650015
0.0014249438
-0.00071083666
-0.00030155248
-0.0002720831
-0.00023764947
-0.00019289394
-0.00010894482
0.00010751577
0.00070241558
0.00091867423
-0.0017229691
-0.0034494654
-0.0029347468
-0.0028478024
-0.0027588939
-0.0026506892
-0.0024838823
-0.002142518
-0.0012306951
-0.00047358424
-0.0042787581
-0.0038400045
-0.0036770951
-0.0035596939
-0.0034414961
-0.0033049693
-0.0031340583
-0.0029140834
-0.0024996512
-0.0018796727
-0.0015288068
-0.0014649038
-0.0013529539
-0.0012293049
-0.0010983741
-0.0009538015
-0.00078665075
-0.00060660564
-0.00042976467
-0.00030549471
-7.55229e-05
3.6662617e-06
0.0001215903
0.00025839091
0.00039709366
0.00053681576
0.0006819259
0.00082929124
0.0009617163
0.0010369734
0.0013124479
0.0014411525
0.0015874595
0.0017485903
0.0018991829
0.0020334226
0.0021561696
0.0022660272
0.002354929
0.002404423
0.002547179
0.0028475887
0.0030553502
0.0032384746
0.0034025461
0.0035309501
0.0036351507
0.0037178658
0.0037755735
0.0038015457
0.0033340991
0.0041454595
0.0045872864
0.0047798666
0.0049441724
0.005059657
0.0051429319
0.0052000799
0.0052187877
0.0051473972
0.0019852837
0.0027964422
0.0036542175
0.0038308529
0.0039553284
0.004038535
0.0040937242
0.0041222149
0.0040410416
0.0025410197
0.00020835447
0.00042461313
0.00096546526
0.0010445916
0.0010897352
0.0011198487
0.0011392292
0.0011458209
0.0010678388
-0.00035420097
0.0015407598
-0.00076761666
-0.00032651591
-0.00029324622
-0.00025518538
-0.0002055414
-0.00011257559
0.00012714821
0.00079289419
0.0010253185
-0.0018776758
-0.0037449515
-0.0031876488
-0.0030907553
-0.0029922612
-0.0028720127
-0.0026866554
-0.002308155
-0.0012887986
-0.00045928449
-0.0046318966
-0.0041575262
-0.0039777004
-0.0038476703
-0.0037165086
-0.0035646803
-0.0033742592
-0.0031296978
-0.0026666797
-0.0019803024
-0.001610537
-0.0015392065
-0.0014151494
-0.0012780147
-0.001132612
-0.00097189673
-0.00078587205
-0.00058568091
-0.00038814871
-0.00024866443
7.0998971e-06
9.4804713e-05
0.00022584253
0.00037779465
0.00053196048
0.00068735326
0.00084882743
0.0010126829
0.0011598785
0.0012435291
0.0015533148
0.0016959246
0.0018589205
0.002038174
0.0022056605
0.002355041
0.002491685
0.0026140097
0.0027129967
0.0027680323
0.0029344605
0.0032671501
0.0034983182
0.0037021327
0.0038845341
0.0040274623
0.0041435028
0.0042357195
0.0043002424
0.004329226
0.0038241883
0.0047296581
0.0052220451
0.0054372377
0.0056197685
0.0057482887
0.0058410801
0.0059050283
0.0059273669
0.0058519441
0.0022946177
0.003192788
0.0041434881
0.0043421834
0.0044805046
0.0045730296
0.0046345272
0.0046665361
0.0045814429
0.0028464834
0.00025575098
0.00048817533
0.0010852651
0.0011745525
0.0012247494
0.0012582032
0.001279785
0.0012871867
0.0012043622
-0.00044777282
0.0016485354
-0.00081820607
-0.00034800705
-0.00031114333
-0.00026969293
-0.00021547103
-0.00011406746
0.00014743501
0.00087991765
0.0011270666
-0.0020166238
-0.0040131663
-0.0034167141
-0.0033104734
-0.0032030097
-0.003071471
-0.0028687212
-0.0024554365
-0.0013348442
-0.00043805872
-0.0049500784
-0.0044430157
-0.0042473855
-0.0041055378
-0.003962236
-0.0037960613
-0.0035873248
-0.0033197102
-0.0028109788
-0.0020624524
-0.0016744082
-0.0015960941
-0.0014607038
-0.0013109445
-0.0011519871
-0.0009761441
-0.00077241725
-0.00055334172
-0.00033635742
-0.0001825338
9.8379686e-05
0.00019405198
0.00033738198
0.00050352848
0.00067218244
0.00084226102
0.0010190769
0.0011983849
0.0013594207
0.0014509345
0.001793316
0.0019489414
0.0021276045
0.0023238526
0.0025071743
0.0026707471
0.0028204181
0.0029544284
0.0030628664
0.0031230956
0.0033116133
0.0036745193
0.0039276479
0.0041508703
0.0043504502
0.0045069942
0.0046341316
0.0047352543
0.0048061738
0.0048379724
0.0042971482
0.0052911334
0.0058310253
0.0060674794
0.0062670851
0.0064078232
0.0065095334
0.0065798653
0.0066056706
0.0065266669
0.0025940374
0.003573669
0.0046114152
0.0048309269
0.0049822231
0.0050834764
0.0051508903
0.0051861945
0.0050976919
0.003138487
0.00030305514
0.0005502041
0.0011998406
0.0012987305
0.0013536642
0.0013902443
0.0014138934
0.001422043
0.0013348897
-0.00053716191
0.0017472053
-0.00086269478
-0.00036629642
-0.00032606721
-0.00028148497
-0.00022302234
-0.00011380967
0.00016785557
0.00096255579
0.0012229029
-0.0021400924
-0.0042535941
-0.0036216707
-0.0035067414
-0.003390977
-0.0032489672
-0.003030084
-0.0025845732
-0.0013696621
-0.00041114102
-0.005233045
-0.0046964175
-0.0044861924
-0.0043334088
-0.0041788606
-0.0039993765
-0.0037736254
-0.0034846223
-0.0029333259
-0.0021272734
-0.0017220926
-0.0016372811
-0.0014913988
-0.0013299493
-0.0011584312
-0.00096856086
-0.00074840481
-0.00051181271
-0.00027672808
-0.0001095218
0.00019551677
0.00029856164
0.00045329099
0.00063259385
0.00081467945
0.00099837675
0.0011894255
0.0013830626
0.0015569306
0.0016557346
0.0020287303
0.0021964056
0.0023896233
0.0026016408
0.0027996497
0.0029763869
0.0031381431
0.0032829943
0.0034001991
0.0034652434
0.0036742298
0.0040651077
0.0043386238
0.004579862
0.004795372
0.0049645478
0.0051019794
0.0052113666
0.0052882307
0.0053226396
0.0047483367
0.0058247022
0.0064087587
0.0066650017
0.0068804354
0.0070325068
0.0071424915
0.0072187581
0.0072478563
0.0071657507
0.0028805326
0.0039355799
0.0050539648
0.0052929288
0.0054562557
0.0055656007
0.0056385048
0.0056768737
0.0055854973
0.0034141268
0.0003495573
0.00060990439
0.0013080784
0.0014159569
0.0014752847
0.0015147608
0.0015403289
0.0015491698
0.0014582232
-0.00062220078
0.0018358755
-0.00090109373
-0.00038155672
-0.00033821108
-0.00029077341
-0.00022843236
-0.00011208608
0.00018800324
0.0010400196
0.0013119585
-0.0022481364
-0.0044655686
-0.0038020712
-0.0036791649
-0.0035558177
-0.0034042176
-0.0031705564
-0.0026955722
-0.0013938375
-0.00037949369
-0.0054802949
-0.0049174123
-0.0046938912
-0.0045311187
-0.004366284
-0.0041746055
-0.0039332404
-0.0036246396
-0.0030341845
-0.0021755799
-0.0017548294
-0.0016640461
-0.0015085759
-0.0013364389
-0.0011534271
-0.000950711
-0.00071549439
-0.00046285543
-0.00021112891
-3.1575777e-05
0.00029623431
0.00040601304
0.00057118166
0.00076252624
0.00095690958
0.0011530805
0.0013571716
0.001563932
0.0017495503
0.0018550298
0.0022564259
0.0024351132
0.0026416872
0.0028681568
0.0030796199
0.0032684188
0.0034412496
0.0035960365
0.0037212751
0.0037907284
0.0040185328
0.0044349684
0.0047271782
0.0049849344
0.0052150338
0.0053957858
0.0055426515
0.005659617
0.0057419419
0.0057787439
0.005173717
0.0063258227
0.0069504358
0.0072248785
0.0074548013
0.0076172572
0.0077348269
0.0078165477
0.0078487504
0.0077640441
0.0031515091
0.0042754643
0.0054675876
0.0057245239
0.0058988672
0.0060156218
0.0060935591
0.0061347488
0.0060410556
0.003670908
0.00039467982
0.0006666187
0.0014090237
0.0015252233
0.0015885768
0.0016307028
0.0016580301
0.0016675048
0.0015733238
-0.00070264283
0.0019137929
-0.00093337239
-0.00039390007
-0.00034770598
-0.00029770637
-0.00023187252
-0.00010911129
0.00020755062
0.0011116291
0.0013934825
-0.0023406835
-0.0046483764
-0.0039573966
-0.0038272731
-0.0036971064
-0.0035368541
-0.0032898593
-0.0027883339
-0.0014078044
-0.0003438933
-0.0056912169
-0.0051055505
-0.0048701135
-0.0046983592
-0.004524259
-0.0043215733
-0.0040660881
-0.0037397978
-0.0031138292
-0.0022079688
-0.0017735544
-0.0016773606
-0.0015132642
-0.0013315061
-0.0011381354
-0.00092383061
-0.00067501118
-0.00040789005
-0.00014107951
4.9710361e-05
0.00039865942
0.00051449287
0.00068907838
0.00089127881
0.0010967539
0.0013041806
0.0015200471
0.001738648
0.0019348657
0.0020463671
0.0024737454
0.0026623405
0.0028809925
0.0031205113
0.0033441168
0.0035438046
0.0037266355
0.0038903956
0.0040228891
0.0040963198
0.004341258
0.0047806811
0.0050897783
0.0053624566
0.0056057188
0.005796924
0.0059523098
0.0060761245
0.0061633963
0.0062023613
0.005569747
0.0067904874
0.0074518019
0.0077427463
0.0079857336
0.0081575649
0.0082819872
0.0083686514
0.0084037542
0.0083169667
0.0034046971
0.004590629
0.0058491377
0.0061224581
0.0063067381
0.0064301772
0.0065126623
0.006556414
0.0064609776
0.003906667
0.00043793599
0.00071978942
0.0015018471
0.0016256499
0.001692637
0.0017371513
0.0017660677
0.0017761162
0.0016792801
-0.00077819435
0.0019803259
-0.00095948256
-0.00040340116
-0.00035464394
-0.00030239135
-0.00023347143
-0.00010505299
0.00022622837
0.0011767943
0.0014668242
-0.0024175991
-0.0048013262
-0.0040871246
-0.0039505876
-0.003814406
-0.0036464918
-0.0033876886
-0.0028627163
-0.0014119053
-0.00030498744
-0.0058651847
-0.0052603461
-0.0050144461
-0.0048347715
-0.0046524822
-0.0044400426
-0.0041720163
-0.0038300519
-0.003172432
-0.0022249022
-0.0017789961
-0.0016779863
-0.0015062776
-0.0013160223
-0.0011134893
-0.00088892193
-0.0006280387
-0.00034808697
-6.7841274e-05
0.00013300708
0.00050122811
0.00062240062
0.00080532393
0.0010171295
0.0012324243
0.0014498223
0.0016761277
0.0019052161
0.0021108191
0.0022276527
0.0026784159
0.0028757543
0.0031051333
0.0033562201
0.0035905839
0.0037999235
0.0039916214
0.0041633396
0.0043022665
0.0043792197
0.004639569
0.0050992688
0.0054233446
0.0057092595
0.0059641795
0.0061646533
0.0063275956
0.0064574908
0.0065491671
0.0065900527
0.0059333076
0.0072151549
0.0079090909
0.0082147393
0.0084692884
0.0086494306
0.0087799335
0.0088710021
0.0089087849
0.0088204493
0.0036380972
0.004878693
0.006195826
0.0064838427
0.0066769201
0.0068062792
0.0068928002
0.0069388411
0.0068422473
0.0041195232
0.00047890721
0.00076893707
0.0015858251
0.0017164669
0.0017866734
0.0018333005
0.0018636266
0.0018741861
0.001775291
-0.00084853809
0.0020349529
-0.00097937464
-0.00041011267
-0.0003590933
-0.00030491037
-0.00023332983
-0.0001000465
0.00024381132
0.0012350038
0.0015314217
-0.0024787315
-0.004923797
-0.0041907774
-0.0040486697
-0.0039073141
-0.0037327747
-0.0034637603
-0.0029185792
-0.0014064327
-0.00026333326
-0.0060016261
-0.0053813448
-0.0051264988
-0.0049400131
-0.0047506608
-0.0045297795
-0.0042508671
-0.0038953392
-0.0032101244
-0.0022267682
-0.0017717495
-0.0016665472
-0.0014882862
-0.0012907092
-0.0010802653
-0.0008468232
-0.00057548794
-0.00028443468
7.5158491e-06
0.00021718308
0.00060261289
0.00072837635
0.00091850789
0.00113861
0.0013623939
0.0015884191
0.0018237642
0.0020619242
0.0022756419
0.002397086
0.0028684799
0.0030733438
0.0033120337
0.0035731374
0.003816811
0.0040345078
0.0042338868
0.0044125007
0.0045570015
0.0046370013
0.0049109972
0.0053881384
0.0057251928
0.0060225787
0.0062875813
0.0064960839
0.0066655742
0.0068007457
0.0068962582
0.006938811
0.0062616555
0.0075967058
0.0083189831
0.0086374485
0.0089019869
0.0090893261
0.0092251015
0.0093200102
0.0093602373
0.009270897
0.0038499465
0.0051375569
0.0065051925
0.0068061279
0.0070068102
0.0071412896
0.0072313108
0.007279355
0.0071821976
0.0043078473
0.000517229
0.00081364689
0.0016603285
0.0017970032
0.0018699957
0.0019184473
0.0019499954
0.001961
0.0018606551
-0.0009133502
0.0020772538
-0.0009930089
-0.00041407611
-0.00036110935
-0.00030533048
-0.00023153098
-9.4204859e-05
0.00026010905
0.0012858167
0.001586795
-0.0025239442
-0.0050152741
-0.004267956
-0.0041211545
-0.0039754971
-0.0037954097
-0.0035178437
-0.002955816
-0.0013916577
-0.00021942462
-0.0061000735
-0.0054681739
-0.0052059538
-0.0050138079
-0.0048185613
-0.0045906017
-0.0043025245
-0.0039356265
-0.0032270427
-0.0022139234
-0.0017523293
-0.0016435837
-0.0014598704
-0.0012561912
-0.0010391359
-0.00079826042
-0.00051814816
-0.00021778984
8.4063832e-05
0.0003012564
0.0007016681
0.00083124647
0.0010274129
0.0012544527
0.0014853436
0.0017186
0.0019615315
0.0022072923
0.0024278052
0.00255311
0.0030422448
0.0032533704
0.0034998983
0.0037694073
0.004020886
0.0042455951
0.0044514234
0.0046358293
0.004785011
0.0048675632
0.0051533986
0.0056450386
0.0059929922
0.0063000138
0.0065734628
0.0067887062
0.006963697
0.007103309
0.0072020671
0.0072460238
0.0065523917
0.0079324133
0.0086785777
0.009007895
0.0092807897
0.0094741687
0.0096143774
0.0097125388
0.0097549605
0.0096651655
0.0040386979
0.0053653838
0.0067750893
0.007087087
0.0072941356
0.0074329046
0.0075258694
0.0075756194
0.0074784961
0.0044702419
0.00055258188
0.00085356017
0.001724815
0.0018666795
0.0019420075
0.0019919844
0.0020245597
0.0020359411
0.0019347646
-0.00097231314
0.0021069053
-0.0010003637
-0.00041532947
-0.00036074207
-0.00030371132
-0.00022814813
-8.7626129e-05
0.00027495921
0.0013288581
0.001632541
-0.0025531397
-0.0050753744
-0.0043183656
-0.0041677756
-0.0040187151
-0.0038341906
-0.003549785
-0.0029743765
-0.0013678503
-0.00017371118
-0.0061602015
-0.0055205799
-0.0052526027
-0.005055982
-0.0048560458
-0.0046224144
-0.0043269495
-0.0039509446
-0.0032233613
-0.0021867255
-0.0017212101
-0.001609592
-0.0014215597
-0.0012130351
-0.0009907078
-0.00074388549
-0.00045672468
-0.00014891446
0.00016098021
0.00038435851
0.0007973898
0.00092998374
0.0011309748
0.0013635513
0.0016001244
0.0018391721
0.0020881904
0.0023400355
0.0025659826
0.0026943751
0.0031982459
0.0034143311
0.0036671761
0.0039434275
0.0042011592
0.0044314936
0.0046425003
0.0048315597
0.0049845013
0.0050690962
0.0053649233
0.0058680306
0.0062247374
0.0065395005
0.0068197085
0.0070403638
0.0072197746
0.0073629649
0.0074643582
0.0075094473
0.0068034415
0.0082199257
0.0089853761
0.0093235139
0.009603081
0.0098013061
0.009945082
0.01004589
0.010090243
0.010000547
0.0042030061
0.0055605879
0.0070036714
0.007324807
0.0075369444
0.0076791466
0.0077744809
0.0078256289
0.0077291378
0.004605527
0.00058468531
0.00088836825
0.0017788245
0.001925004
0.0020022028
0.0020533965
0.0020867977
0.0020984855
0.001997101
-0.0010251252
0.0021236766
-0.0010014416
-0.00041391288
-0.00035804146
-0.0003001106
-0.00022324973
-8.0398382e-05
0.00028822277
0.0013638151
0.0016683303
-0.0025662768
-0.0051038663
-0.004341834
-0.0041883843
-0.0040368401
-0.0038490166
-0.0035595252
-0.0029742838
-0.001335295
-0.00012661221
-0.0061818559
-0.0055384557
-0.0052663739
-0.005066491
-0.0048630986
-0.0046252365
-0.0043242062
-0.0039414132
-0.0031993167
-0.002145556
-0.0016788562
-0.0015650539
-0.0013738624
-0.0011617786
-0.000935551
-0.00068430449
-0.00039186653
-7.850303e-05
0.00023752127
0.00046570774
0.00088888584
0.0010236776
0.0012282536
0.0014649321
0.0017057277
0.001949092
0.0022026608
0.0024590362
0.0026890238
0.0028197118
0.0033352194
0.0035549316
0.0038125343
0.0040938241
0.0043562188
0.0045907571
0.0048056403
0.0049981865
0.0051539441
0.0052400597
0.0055439946
0.0060554671
0.0064187273
0.0067392904
0.0070245288
0.0072492347
0.0074319582
0.0075778428
0.0076812453
0.0077271884
0.0070130404
0.0084572539
0.0092372706
0.0095821434
0.0098666584
0.010068506
0.010214962
0.010317794
0.010363805
0.010274759
0.0043417191
0.0057218266
0.0071893907
0.0075176838
0.0077336015
0.0078783593
0.0079754747
0.0080277049
0.0079324403
0.0047127315
0.0006132934
0.00091780863
0.0018219762
0.0019715693
0.0020501627
0.0021022574
0.0021362784
0.0021482004
0.0020472327
-0.0010715084
0.0021274263
-0.00099627365
-0.00040987282
-0.00035306192
-0.00029458821
-0.00021690363
-7.2603756e-05
0.00029978044
0.0013904348
0.0016939048
-0.0025633843
-0.0051006835
-0.004338326
-0.0041829629
-0.0040298696
-0.0038399053
-0.0035471132
-0.0029556475
-0.0012943011
-7.8526706e-05
-0.0061650735
-0.0055218618
-0.005247353
-0.0050454406
-0.0048398463
-0.0045992204
-0.0042944811
-0.0039072605
-0.0031552266
-0.0020908379
-0.0016257439
-0.0015104592
-0.0013172874
-0.0011029526
-0.00087421986
-0.00062009878
-0.00032418725
-7.2030576e-06
0.00031300202
0.00054458955
0.00097535367
0.001111512
0.0013184113
0.0015577321
0.0018012651
0.0020474447
0.002304
0.0025633246
0.002795934
0.0029281116
0.0034520822
0.0036740667
0.0039348386
0.0042194318
0.0044848712
0.0047221667
0.0049396007
0.005134446
0.0052920586
0.0053791639
0.0056892932
0.0062059773
0.006573551
0.0068979372
0.0071864467
0.007413817
0.007598726
0.0077464049
0.0078511786
0.0078976921
0.0071797255
0.008642764
0.0094325375
0.0097820186
0.010069727
0.010273953
0.010422185
0.010526405
0.01057379
0.010485944
0.0044538718
0.0058479962
0.0073309926
0.0076644188
0.0078827852
0.0080292058
0.0081275031
0.0081804931
0.0080870419
0.004791086
0.00063819196
0.00094166198
0.0018539664
0.0020060506
0.0020855539
0.0021382283
0.0021726592
0.0021847418
0.0020848133
-0.0011112141
0.0021181003
-0.00098492297
-0.00040326538
-0.00034586529
-0.0002872093
-0.00020918003
-6.4321347e-05
0.00030952997
0.0014085221
0.0017090759
-0.0025445705
-0.0050659361
-0.0043079537
-0.0041516351
-0.0039979367
-0.003807003
-0.0035127157
-0.0029186724
-0.0012452113
-2.9840943e-05
-0.0061100989
-0.0054710413
-0.005195798
-0.0049931012
-0.0047865728
-0.0045446669
-0.0042380978
-0.0038488372
-0.0030915025
-0.0020230483
-0.0015623781
-0.001446322
-0.001252361
-0.0010370968
-0.00080726955
-0.00055184104
-0.00025428069
6.4369551e-05
0.00038678095
0.00062034158
0.0010560633
0.0011927486
0.0014006954
0.0016411828
0.0018859512
0.002133428
0.0023913875
0.0026520621
0.0028858589
0.003018711
0.0035479171
0.003770805
0.0040331381
0.00431928
0.004586127
0.0048247163
0.0050433601
0.0052393027
0.0053977983
0.005485356
0.0057997458
0.0063184558
0.0066880765
0.0070142855
0.0073042871
0.0075329196
0.0077188735
0.0078674358
0.0079729344
0.0080197314
0.0073023279
0.0087751713
0.0095698323
0.0099217667
0.010210894
0.010416238
0.010565332
0.010670299
0.010718765
0.01063266
0.0045386823
0.0059382281
0.0074275137
0.0077640171
0.0079834857
0.0081306661
0.008229539
0.0082829617
0.0081918999
0.0048400178
0.00065919626
0.00095975006
0.0018745666
0.0020282043
0.0021081272
0.0021610564
0.0021956849
0.0022078535
0.0021095802
-0.0011440287
0.0020957283
-0.00096748692
-0.00039415872
-0.00033652336
-0.00027804675
-0.00020015389
-5.5629536e-05
0.00031738397
0.0014179381
0.0017137227
-0.0025100309
-0.004999918
-0.004250984
-0.0040946737
-0.0039413179
-0.0037505921
-0.0034566239
-0.0028636656
-0.0011884073
1.9065763e-05
-0.006017395
-0.0053864314
-0.0051121507
-0.0049099193
-0.0047037303
-0.0044620361
-0.0041555275
-0.0037666269
-0.0030086607
-0.0019427284
-0.0014893059
-0.0013731939
-0.0011796398
-0.00096477353
-0.00073526889
-0.00048010791
-0.00018273349
0.00013561804
0.00045824779
0.0006923415
0.0011303438
0.0012667133
0.0014744254
0.0017145965
0.0019590911
0.002206339
0.0024641122
0.0027245293
0.002958072
0.0030907795
0.0036219597
0.0038443769
0.0041066537
0.0043925798
0.004659189
0.004897601
0.0051161064
0.005311938
0.0054703392
0.0055578094
0.0058745149
0.0063920528
0.0067614415
0.007087462
0.0073771674
0.0076056523
0.0077915045
0.007940034
0.0080456069
0.0080923989
0.0073799677
0.0088535354
0.0096481844
0.010000402
0.010289166
0.010494362
0.010643399
0.010748464
0.010797712
0.010713879
0.0045955479
0.0059918866
0.0074782792
0.0078157851
0.0080350027
0.0081820353
0.0082808741
0.0083344002
0.008246289
0.0048591462
0.00067614937
0.0009719339
0.0018836224
0.0020378663
0.0021177161
0.0021705738
0.0022051863
0.0022173658
0.0021213536
-0.001169777
0.0020604221
-0.00094409928
-0.00038263526
-0.00032511999
-0.00026718328
-0.00018990708
-4.6608092e-05
0.00032326782
0.0014185988
0.0017077905
-0.0024600549
-0.0049031122
-0.0041678441
-0.004012506
-0.0038604382
-0.0036710963
-0.0033792597
-0.0027910421
-0.0011243151
6.7816107e-05
-0.0058876518
-0.0052686725
-0.0049970456
-0.0047965265
-0.0045919482
-0.0043519558
-0.0040473973
-0.0036612546
-0.0029073301
-0.0018504914
-0.0014071275
-0.0012916755
-0.0010997216
-0.00088657805
-0.00065881104
-0.00040549079
-0.00011013577
0.00020595429
0.00052681326
0.00075999677
0.0011975713
0.0013327843