/*--------------------------------*- C++ -*----------------------------------*\
| =========                 |                                                 |
| \\      /  F ield         | OpenFOAM: The Open Source CFD Toolbox           |
|  \\    /   O peration     | Version:  v2106                                 |
|   \\  /    A nd           | Website:  www.openfoam.com                      |
|    \\/     M anipulation  |                                                 |
\*---------------------------------------------------------------------------*/
FoamFile
{
    version     2.0;
    format      ascii;
    arch        "LSB;label=32;scalar=64";
    class       volVectorField;
    location    "40";
    object      gradT;
}
// * * * * * * * * * * * * * * * * * * * * * * * * * * * * * * * * * * * * * //

dimensions      [0 -1 0 1 0 0 0];

internalField   nonuniform List<vector> 
4000
(
(0.00030394058 0.00030394059 746.77911)
(-9.8763706e-05 -8.6220479e-05 746.78006)
(-0.00050417554 4.4701153e-06 746.77866)
(-0.00015592123 3.7278861e-06 746.77825)
(-5.4426373e-05 6.8461035e-06 746.77804)
(4.4512494e-05 1.0478857e-05 746.77804)
(0.0001194717 1.7484042e-05 746.77823)
(0.00015393781 3.3201244e-05 746.77854)
(0.00012067228 6.2846423e-05 746.77886)
(4.1717289e-05 8.2891662e-05 746.77897)
(-8.6220486e-05 -9.8763719e-05 746.78006)
(-0.00039823418 -0.00039823418 746.7798)
(-0.00041422717 -0.00030059459 746.77867)
(-0.00015354523 -0.0002972039 746.77826)
(-4.7675405e-05 -0.0002900329 746.77806)
(5.5150429e-05 -0.00028197745 746.77808)
(0.00014219408 -0.00026929034 746.77829)
(0.00019930019 -0.00024414247 746.77867)
(0.00017036271 -0.00019287673 746.77912)
(6.1762522e-05 -0.00012734359 746.77929)
(4.4701222e-06 -0.00050417555 746.77866)
(-0.00030059458 -0.00041422717 746.77867)
(-0.00040314526 -0.00040314526 746.77757)
(-0.00014535955 -0.00039444337 746.77718)
(-3.9199928e-05 -0.00038563647 746.77699)
(6.5255069e-05 -0.00037591527 746.77703)
(0.00015730669 -0.0003640687 746.77727)
(0.00023035142 -0.00034810231 746.77768)
(0.00023747116 -0.00032144973 746.77822)
(0.00010725042 -0.00027460171 746.77857)
(3.7278861e-06 -0.00015592122 746.77825)
(-0.0002972039 -0.00015354523 746.77826)
(-0.00039444337 -0.00014535955 746.77718)
(-0.00013603644 -0.00013603645 746.7768)
(-2.9147303e-05 -0.00012637344 746.77664)
(7.6718201e-05 -0.00011591219 746.7767)
(0.00017000703 -0.00010403894 746.77696)
(0.00024191915 -9.1129312e-05 746.7774)
(0.00024386331 -7.9847254e-05 746.77796)
(0.00010861055 -7.4669042e-05 746.77832)
(6.846114e-06 -5.4426373e-05 746.77804)
(-0.00029003291 -4.7675412e-05 746.77806)
(-0.00038563648 -3.9199921e-05 746.77699)
(-0.00012637343 -2.9147299e-05 746.77664)
(-1.9075668e-05 -1.9075682e-05 746.7765)
(8.7589547e-05 -9.0652971e-06 746.77657)
(0.00018208957 1.2846946e-06 746.77686)
(0.00025454311 1.2006337e-05 746.77732)
(0.00025393143 2.2004957e-05 746.77791)
(0.00011242863 2.8182873e-05 746.77829)
(1.0478861e-05 4.4512494e-05 746.77804)
(-0.00028197746 5.5150422e-05 746.77808)
(-0.00037591526 6.5255069e-05 746.77703)
(-0.00011591219 7.6718208e-05 746.7767)
(-9.0652971e-06 8.7589561e-05 746.77657)
(9.7078571e-05 9.7078578e-05 746.77667)
(0.00019107866 0.0001057011 746.77697)
(0.00026263942 0.00011329635 746.77746)
(0.00026003986 0.00011939391 746.77806)
(0.00011478847 0.00012301881 746.77845)
(1.7484035e-05 0.0001194717 746.77823)
(-0.00026929034 0.00014219409 746.77829)
(-0.00036406869 0.00015730668 746.77727)
(-0.00010403895 0.00017000703 746.77696)
(1.284698e-06 0.00018208956 746.77686)
(0.0001057011 0.00019107866 746.77697)
(0.00019830734 0.00019830735 746.77729)
(0.00026823592 0.00020378907 746.77779)
(0.00026365389 0.00020724848 746.7784)
(0.00011605352 0.00020865993 746.77879)
(3.3201244e-05 0.00015393781 746.77854)
(-0.00024414247 0.00019930018 746.77867)
(-0.00034810231 0.00023035142 746.77768)
(-9.1129312e-05 0.00024191915 746.7774)
(1.200633e-05 0.00025454312 746.77732)
(0.00011329636 0.00026263941 746.77746)
(0.00020378907 0.00026823592 746.77779)
(0.00027158055 0.00027158055 746.77829)
(0.00026491072 0.0002721047 746.7789)
(0.00011619992 0.00026996634 746.7793)
(6.2846412e-05 0.00012067228 746.77886)
(-0.00019287673 0.00017036271 746.77912)
(-0.00032144973 0.00023747116 746.77822)
(-7.984725e-05 0.00024386331 746.77796)
(2.2004953e-05 0.00025393143 746.77791)
(0.00011939391 0.00026003984 746.77806)
(0.00020724848 0.00026365388 746.7784)
(0.0002721047 0.00026491071 746.7789)
(0.00026203967 0.00026203968 746.77952)
(0.00011391517 0.00025277633 746.77989)
(8.2891655e-05 4.1717289e-05 746.77897)
(-0.00012734359 6.1762529e-05 746.77929)
(-0.00027460171 0.00010725042 746.77857)
(-7.4669038e-05 0.00010861055 746.77832)
(2.8182866e-05 0.00011242863 746.77829)
(0.00012301881 0.00011478846 746.77845)
(0.00020865994 0.00011605352 746.77879)
(0.00026996634 0.00011619992 746.7793)
(0.00025277633 0.00011391517 746.77989)
(0.00010693659 0.00010693659 746.78021)
(0.00064377477 0.00064377478 746.79887)
(-0.00034916404 -0.00017201194 746.79935)
(-0.0013061519 4.36335e-07 746.79831)
(-0.00046766799 4.1831365e-06 746.79791)
(-0.00014867755 1.2840524e-05 746.79773)
(0.00014593602 2.3439063e-05 746.79775)
(0.000374662 4.4220787e-05 746.79796)
(0.00047561472 9.3739651e-05 746.79831)
(0.0003107561 0.00019471648 746.79867)
(6.9644686e-05 0.00023816378 746.79867)
(-0.00017201195 -0.00034916404 746.79935)
(-0.00099250248 -0.00099250248 746.79912)
(-0.0011299568 -0.00079229068 746.79822)
(-0.00045526381 -0.00077511004 746.79782)
(-0.00012942162 -0.00075428218 746.79765)
(0.00017731629 -0.00073036098 746.79769)
(0.00044496257 -0.00069246636 746.79792)
(0.00062611041 -0.00061450266 746.79834)
(0.00045518022 -0.00044550546 746.79887)
(0.00011309198 -0.00026822923 746.79894)
(4.3633847e-07 -0.0013061519 746.79831)
(-0.00079229068 -0.0011299568 746.79822)
(-0.0010887595 -0.0010887595 746.79734)
(-0.00042965949 -0.0010616208 746.79697)
(-0.00010392849 -0.001035305 746.79681)
(0.00020775184 -0.0010061755 746.79687)
(0.00049052032 -0.00097061535 746.79713)
(0.00072257562 -0.00092248093 746.79758)
(0.00065702953 -0.000837415 746.7982)
(0.00024692091 -0.00069379625 746.79844)
(4.183133e-06 -0.00046766799 746.79791)
(-0.00077511004 -0.00045526381 746.79782)
(-0.0010616208 -0.00042965949 746.79697)
(-0.0004018093 -0.0004018093 746.79661)
(-7.3976342e-05 -0.00037301603 746.79648)
(0.00024200591 -0.00034178187 746.79655)
(0.00052865713 -0.00030632499 746.79683)
(0.00075931075 -0.00026793556 746.79731)
(0.00068386491 -0.00023309806 746.79796)
(0.00025671074 -0.00021323445 746.79822)
(1.2840524e-05 -0.00014867756 746.79773)
(-0.00075428216 -0.00012942163 746.79765)
(-0.001035305 -0.00010392849 746.79681)
(-0.00037301605 -7.3976339e-05 746.79648)
(-4.390106e-05 -4.390106e-05 746.79636)
(0.00027444289 -1.3933812e-05 746.79646)
(0.00056436662 1.7029596e-05 746.79676)
(0.00079580256 4.8862782e-05 746.79726)
(0.00071173064 7.7927994e-05 746.79793)
(0.00026678453 9.4716453e-05 746.7982)
(2.343907e-05 0.00014593603 746.79775)
(-0.00073036099 0.00017731628 746.79769)
(-0.0010061755 0.00020775183 746.79687)
(-0.00034178186 0.0002420059 746.79655)
(-1.3933816e-05 0.0002744429 746.79646)
(0.00030293656 0.00030293657 746.79657)
(0.00059145373 0.00032882273 746.79689)
(0.00082020915 0.00035173292 746.79741)
(0.00072971858 0.00037011065 746.7981)
(0.0002734992 0.0003805659 746.79838)
(4.4220783e-05 0.00037466199 746.79796)
(-0.00069246637 0.00044496258 746.79792)
(-0.00097061535 0.00049052033 746.79713)
(-0.00030632498 0.00052865713 746.79683)
(1.70296e-05 0.00056436662 746.79676)
(0.00032882273 0.00059145373 746.79689)
(0.00061316297 0.00061316297 746.79723)
(0.00083709048 0.00062966425 746.79777)
(0.00074056362 0.0006399205 746.79846)
(0.00027723977 0.00064342255 746.79874)
(9.3739651e-05 0.00047561474 746.79831)
(-0.00061450265 0.00062611042 746.79834)
(-0.00092248093 0.00072257563 746.79758)
(-0.00026793557 0.00075931076 746.79731)
(4.8862796e-05 0.00079580255 746.79726)
(0.00035173291 0.00082020915 746.79741)
(0.00062966424 0.00083709048 746.79777)
(0.00084696668 0.00084696668 746.79831)
(0.00074347687 0.0008467185 746.799)
(0.00027700125 0.00083364828 746.79929)
(0.00019471646 0.00031075611 746.79867)
(-0.00044550546 0.00045518022 746.79887)
(-0.000837415 0.00065702952 746.7982)
(-0.00023309807 0.00068386491 746.79796)
(7.792799e-05 0.00071173064 746.79793)
(0.00037011065 0.00072971856 746.7981)
(0.0006399205 0.00074056362 746.79846)
(0.00084671849 0.00074347687 746.799)
(0.00072724521 0.00072724521 746.79969)
(0.00026416956 0.00066034447 746.79995)
(0.00023816376 6.9644686e-05 746.79867)
(-0.00026822924 0.00011309198 746.79894)
(-0.00069379625 0.0002469209 746.79844)
(-0.00021323444 0.00025671074 746.79822)
(9.471645e-05 0.00026678453 746.7982)
(0.00038056589 0.0002734992 746.79838)
(0.00064342255 0.00027723977 746.79874)
(0.00083364827 0.00027700124 746.79929)
(0.00066034448 0.00026416955 746.79995)
(0.00021010051 0.00021010051 746.8)
(0.00078015529 0.00078015529 746.83822)
(-0.00065883838 -0.00030881183 746.83849)
(-0.001941604 -9.0452746e-05 746.83765)
(-0.00073916517 -8.198808e-05 746.8373)
(-0.00021113723 -6.8550485e-05 746.83715)
(0.00027802683 -5.1835387e-05 746.83721)
(0.000675131 -1.917445e-05 746.83745)
(0.00086542834 6.4002779e-05 746.83785)
(0.00047854405 0.00025860803 746.8383)
(3.5637476e-05 0.00035938317 746.83828)
(-0.00030881184 -0.00065883837 746.83849)
(-0.0015294464 -0.0015294464 746.83825)
(-0.0017147803 -0.0012676852 746.8375)
(-0.00071726291 -0.0012372754 746.83715)
(-0.00018098454 -0.001203815 746.83702)
(0.00032740286 -0.0011648178 746.83709)
(0.00079096917 -0.0011037414 746.83735)
(0.0011432108 -0.00097529127 746.83781)
(0.00077392445 -0.00067008905 746.83844)
(0.00013641262 -0.0003576355 746.83851)
(-9.0452753e-05 -0.001941604 746.83765)
(-0.0012676852 -0.0017147802 746.8375)
(-0.001649433 -0.001649433 746.83677)
(-0.00067529497 -0.001605112 746.83645)
(-0.00013867966 -0.0015618469 746.83633)
(0.00037810041 -0.0015133875 746.83641)
(0.00086465756 -0.0014540849 746.8367)
(0.0012990807 -0.0013755246 746.83719)
(0.0010961998 -0.0012341982 746.83791)
(0.00034809103 -0.0010010482 746.83813)
(-8.1988066e-05 -0.00073916516 746.8373)
(-0.0012372754 -0.0007172629 746.83715)
(-0.001605112 -0.00067529498 746.83645)
(-0.00062967682 -0.00062967681 746.83614)
(-8.9260023e-05 -0.00058226862 746.83603)
(0.00043516489 -0.00053058603 746.83614)
(0.00092883212 -0.00047160683 746.83645)
(0.0013630975 -0.00040768164 746.83697)
(0.0011484008 -0.0003480949 746.83772)
(0.00036956264 -0.00031044275 746.83796)
(-6.8550485e-05 -0.00021113723 746.83715)
(-0.001203815 -0.00018098456 746.83702)
(-0.0015618469 -0.00013867966 746.83633)
(-0.00058226861 -8.9260016e-05 746.83603)
(-3.9588884e-05 -3.9588877e-05 746.83595)
(0.00048876221 1.0065032e-05 746.83608)
(0.00098756195 6.1377303e-05 746.83641)
(0.0014225926 0.0001139144 746.83696)
(0.0011934387 0.00016151521 746.83772)
(0.00038574318 0.00018859786 746.83798)
(-5.1835394e-05 0.00027802682 746.83721)
(-0.0011648178 0.00032740285 746.83709)
(-0.0015133875 0.00037810042 746.83641)
(-0.00053058603 0.00043516489 746.83614)
(1.0065032e-05 0.00048876221 746.83608)
(0.00053613106 0.00053613107 746.83622)
(0.0010326815 0.00057923286 746.83657)
(0.0014632354 0.00061754759 746.83714)
(0.0012230843 0.00064836797 746.83792)
(0.0003966453 0.00066567533 746.83818)
(-1.9174461e-05 0.000675131 746.83745)
(-0.0011037414 0.00079096917 746.83735)
(-0.0014540849 0.00086465756 746.8367)
(-0.00047160682 0.00092883213 746.83645)
(6.1377303e-05 0.00098756195 746.83641)
(0.00057923286 0.0010326815 746.83657)
(0.0010689785 0.0010689785 746.83694)
(0.0014917277 0.0010969323 746.83752)
(0.0012415664 0.0011146108 746.83831)
(0.00040305052 0.001120377 746.83858)
(6.4002786e-05 0.00086542834 746.83785)
(-0.00097529127 0.0011432108 746.83781)
(-0.0013755246 0.0012990807 746.83719)
(-0.00040768165 0.0013630975 746.83697)
(0.00011391439 0.0014225926 746.83696)
(0.00061754759 0.0014632354 746.83714)
(0.0010969323 0.0014917277 746.83752)
(0.0015088677 0.0015088677 746.8381)
(0.001246529 0.0015070144 746.8389)
(0.00040241147 0.0014727714 746.83917)
(0.00025860804 0.00047854406 746.8383)
(-0.00067008905 0.00077392445 746.83844)
(-0.0012341982 0.0010961998 746.83791)
(-0.0003480949 0.0011484008 746.83772)
(0.00016151521 0.0011934387 746.83772)
(0.00064836798 0.0012230843 746.83792)
(0.0011146108 0.0012415664 746.83831)
(0.0015070144 0.001246529 746.8389)
(0.0012054701 0.0012054701 746.8397)
(0.00036880755 0.00096145589 746.83993)
(0.00035938317 3.5637483e-05 746.83828)
(-0.0003576355 0.00013641262 746.83851)
(-0.0010010482 0.00034809103 746.83813)
(-0.00031044275 0.00036956265 746.83796)
(0.00018859786 0.00038574318 746.83798)
(0.00066567532 0.00039664531 746.83818)
(0.001120377 0.00040305052 746.83858)
(0.0014727714 0.00040241147 746.83917)
(0.00096145588 0.00036880754 746.83993)
(0.00015839724 0.00015839723 746.83978)
(0.00091208728 0.00091208729 746.89692)
(-0.00092141296 -0.00041159415 746.89719)
(-0.0024985529 -0.00015201991 746.89643)
(-0.00096413306 -0.00013920984 746.89613)
(-0.00023824864 -0.00012125342 746.89602)
(0.00044205705 -9.8660691e-05 746.8961)
(0.0010162626 -5.544722e-05 746.89637)
(0.0013295542 5.6074201e-05 746.89681)
(0.00074124443 0.00033577769 746.89733)
(4.6727618e-05 0.00047085355 746.89737)
(-0.00041159415 -0.00092141296 746.89719)
(-0.0019855202 -0.0019855202 746.897)
(-0.0022261686 -0.0016691691 746.89632)
(-0.00093336657 -0.0016266755 746.89603)
(-0.00019769949 -0.0015812127 746.89593)
(0.00050786325 -0.0015274725 746.89602)
(0.0011709975 -0.0014442915 746.89632)
(0.0017207791 -0.001270593 746.89681)
(0.0011560238 -0.00083741714 746.89749)
(0.00018180348 -0.00041798262 746.8976)
(-0.00015201991 -0.0024985529 746.89643)
(-0.0016691691 -0.0022261686 746.89632)
(-0.0021397082 -0.0021397082 746.89567)
(-0.00087617666 -0.0020794803 746.89539)
(-0.00013904569 -0.0020199843 746.89531)
(0.00057897832 -0.0019525799 746.89542)
(0.0012731422 -0.0018695092 746.89573)
(0.0019364285 -0.0017607459 746.89626)
(0.0015938548 -0.0015626373 746.89703)
(0.00046616214 -0.0012445283 746.89727)
(-0.00013920985 -0.00096413305 746.89613)
(-0.0016266755 -0.00093336657 746.89603)
(-0.0020794803 -0.00087617666 746.89539)
(-0.00081364263 -0.00081364262 746.89513)
(-7.0799165e-05 -0.00074823282 746.89506)
(0.00065833827 -0.00067661992 746.89519)
(0.0013628316 -0.00059454385 746.89553)
(0.002027651 -0.00050566647 746.89608)
(0.0016722413 -0.00042139093 746.89688)
(0.00049991242 -0.00036532507 746.89715)
(-0.00012125342 -0.00023824863 746.89602)
(-0.0015812127 -0.00019769948 746.89593)
(-0.0020199843 -0.00013904568 746.89531)
(-0.00074823281 -7.0799162e-05 746.89506)
(-2.0229894e-06 -2.0229859e-06 746.89501)
(0.00073266729 6.6901748e-05 746.89517)
(0.0014440956 0.00013821367 746.89552)
(0.0021095814 0.0002110455 746.8961)
(0.0017341962 0.00027678613 746.89692)
(0.00052222799 0.0003141315 746.8972)
(-9.8660694e-05 0.00044205704 746.8961)
(-0.0015274726 0.00050786324 746.89602)
(-0.0019525799 0.00057897833 746.89542)
(-0.00067661992 0.00065833828 746.89519)
(6.6901745e-05 0.00073266729 746.89517)
(0.00079857492 0.00079857493 746.89534)
(0.0015069753 0.00085864821 746.89572)
(0.0021662235 0.00091225194 746.89631)
(0.0017753273 0.00095559159 746.89714)
(0.0005372578 0.00097999727 746.89743)
(-5.5447223e-05 0.0010162626 746.89637)
(-0.0014442915 0.0011709975 746.89632)
(-0.0018695092 0.0012731422 746.89573)
(-0.00059454386 0.0013628316 746.89553)
(0.00013821367 0.0014440956 746.89552)
(0.00085864822 0.0015069753 746.89572)
(0.0015577726 0.0015577726 746.89611)
(0.0022065248 0.0015975513 746.89671)
(0.0018019415 0.0016240389 746.89756)
(0.00054663367 0.0016344728 746.89785)
(5.6074208e-05 0.0013295542 746.89681)
(-0.001270593 0.0017207791 746.89681)
(-0.0017607459 0.0019364285 746.89626)
(-0.00050566647 0.002027651 746.89608)
(0.00021104549 0.0021095814 746.8961)
(0.00091225194 0.0021662235 746.89631)
(0.0015975513 0.0022065248 746.89671)
(0.0022324898 0.0022324898 746.89733)
(0.0018122489 0.0022339778 746.89818)
(0.00054769169 0.0021852574 746.89848)
(0.00033577768 0.00074124444 746.89733)
(-0.00083741713 0.0011560238 746.89749)
(-0.0015626373 0.0015938548 746.89703)
(-0.00042139094 0.0016722413 746.89688)
(0.00027678613 0.0017341962 746.89692)
(0.00095559159 0.0017753273 746.89714)
(0.0016240389 0.0018019415 746.89756)
(0.0022339778 0.0018122489 746.89818)
(0.0017547091 0.0017547091 746.89904)
(0.00049791329 0.0012659873 746.89931)
(0.00047085354 4.6727622e-05 746.89737)
(-0.00041798262 0.00018180348 746.8976)
(-0.0012445283 0.00046616213 746.89727)
(-0.00036532507 0.00049991242 746.89715)
(0.00031413151 0.00052222799 746.8972)
(0.00097999727 0.00053725781 746.89743)
(0.0016344728 0.00054663368 746.89785)
(0.0021852574 0.00054769169 746.89848)
(0.0012659873 0.00049791328 746.89931)
(5.8969826e-05 5.8969822e-05 746.8991)
(0.001043827 0.001043827 746.9749)
(-0.0011541411 -0.0004995064 746.97517)
(-0.0030036243 -0.00019978733 746.97446)
(-0.0011494267 -0.00018267502 746.9742)
(-0.00023285652 -0.00016033092 746.97413)
(0.00063340005 -0.00013184262 746.97424)
(0.0013816243 -7.7896183e-05 746.97453)
(0.00182096 6.1286424e-05 746.97499)
(0.0010393665 0.00042353508 746.97553)
(7.7544759e-05 0.00058275698 746.9756)
(-0.00049950639 -0.0011541411 746.97517)
(-0.0023977554 -0.0023977554 746.975)
(-0.002686793 -0.002028444 746.97438)
(-0.0011099703 -0.0019742871 746.97412)
(-0.00018202411 -0.0019172746 746.97406)
(0.00071583479 -0.0018490707 746.97418)
(0.0015747534 -0.0017438188 746.97449)
(0.0023223912 -0.0015258403 746.975)
(0.0015608371 -0.00096743812 746.97571)
(0.00023676667 -0.0004551856 746.97582)
(-0.00019978732 -0.0030036243 746.97446)
(-0.002028444 -0.002686793 746.97438)
(-0.002580156 -0.002580156 746.97378)
(-0.0010382573 -0.002504756 746.97354)
(-0.00010764011 -0.0024296711 746.97348)
(0.0008068558 -0.0023439405 746.97362)
(0.0017048548 -0.0022376481 746.97396)
(0.0025973407 -0.0020993867 746.9745)
(0.0021100212 -0.0018447912 746.97529)
(0.00058979727 -0.0014460034 746.97554)
(-0.00018267502 -0.0011494266 746.9742)
(-0.0019742871 -0.0011099702 746.97412)
(-0.002504756 -0.0010382573 746.97354)
(-0.00095948535 -0.00095948535 746.97331)
(-2.1208587e-05 -0.00087668849 746.97328)
(0.00090785783 -0.0007857486 746.97344)
(0.0018193071 -0.0006811864 746.97379)
(0.0027152481 -0.00056811762 746.97436)
(0.0022142204 -0.00045954713 746.97518)
(0.00063555443 -0.00038544229 746.97545)
(-0.00016033092 -0.00023285651 746.97413)
(-0.0019172746 -0.00018202412 746.97406)
(-0.0024296711 -0.00010764012 746.97348)
(-0.00087668849 -2.1208573e-05 746.97328)
(6.6096628e-05 6.6096625e-05 746.97326)
(0.0010023579 0.00015375735 746.97344)
(0.0019224858 0.00024456292 746.97382)
(0.00281898 0.000337121 746.97441)
(0.0022926965 0.00042048607 746.97524)
(0.00066390212 0.0004678504 746.97553)
(-0.00013184262 0.00063340005 746.97424)
(-0.0018490707 0.00071583479 746.97418)
(-0.0023439405 0.00080685581 746.97362)
(-0.00078574861 0.00090785784 746.97344)
(0.00015375734 0.0010023579 746.97344)
(0.0010863241 0.0010863241 746.97363)
(0.0020026708 0.0011629394 746.97403)
(0.0028911713 0.0012314019 746.97464)
(0.0023449498 0.0012868252 746.97549)
(0.00068291876 0.0013179756 746.97578)
(-7.7896186e-05 0.0013816243 746.97453)
(-0.0017438188 0.0015747534 746.97449)
(-0.0022376481 0.0017048548 746.97396)
(-0.00068118641 0.0018193071 746.97379)
(0.00024456291 0.0019224858 746.97382)
(0.0011629394 0.0020026708 746.97403)
(0.0020675636 0.0020675636 746.97444)
(0.0029428657 0.0021187472 746.97506)
(0.0023792703 0.0021537701 746.97592)
(0.00069505256 0.0021690298 746.97622)
(6.1286427e-05 0.00182096 746.97499)
(-0.0015258403 0.0023223912 746.975)
(-0.0020993867 0.0025973407 746.9745)
(-0.00056811762 0.0027152481 746.97436)
(0.000337121 0.00281898 746.97441)
(0.0012314019 0.0028911713 746.97464)
(0.0021187472 0.0029428657 746.97506)
(0.0029773779 0.0029773779 746.97569)
(0.0023952325 0.0029837997 746.97656)
(0.00069817845 0.0029273302 746.97686)
(0.00042353508 0.0010393665 746.97553)
(-0.00096743812 0.0015608371 746.97571)
(-0.0018447912 0.0021100212 746.97529)
(-0.00045954712 0.0022142204 746.97518)
(0.00042048607 0.0022926965 746.97524)
(0.0012868252 0.0023449498 746.97549)
(0.0021537701 0.0023792703 746.97592)
(0.0029837998 0.0023952325 746.97656)
(0.0023292226 0.0023292226 746.97743)
(0.00063858305 0.0015822675 746.97771)
(0.00058275698 7.7544752e-05 746.9756)
(-0.00045518559 0.00023676666 746.97582)
(-0.0014460034 0.00058979727 746.97554)
(-0.00038544229 0.00063555442 746.97545)
(0.0004678504 0.00066390211 746.97553)
(0.0013179756 0.00068291876 746.97578)
(0.0021690298 0.00069505256 746.97622)
(0.0029273302 0.00069817845 746.97686)
(0.0015822675 0.00063858304 746.97771)
(-4.8776639e-05 -4.8776646e-05 746.9775)
(0.001174669 0.001174669 747.0716)
(-0.0013630076 -0.00057751671 747.07186)
(-0.0034661523 -0.00023918724 747.0712)
(-0.0013018639 -0.00021783305 747.07097)
(-0.00020017071 -0.00019127954 747.07093)
(0.00084674107 -0.00015712402 747.07106)
(0.0017639913 -9.2738775e-05 747.07137)
(0.0023252614 7.329936e-05 747.07183)
(0.0013522151 0.00051595479 747.07238)
(0.00011742146 0.00069579006 747.07246)
(-0.00057751671 -0.0013630076 747.07186)
(-0.0027768638 -0.0027768638 747.07171)
(-0.0031064686 -0.0023564949 747.07113)
(-0.0012539562 -0.002290996 747.07091)
(-0.00013946168 -0.0022228827 747.07087)
(0.00094528185 -0.002140759 747.07102)
(0.0019944147 -0.002014108 747.07134)
(0.0029339549 -0.0017532217 747.07186)
(0.0019747058 -0.0010726547 747.07257)
(0.00029725675 -0.00047423073 747.07269)
(-0.00023918724 -0.0034661523 747.0712)
(-0.0023564949 -0.0031064686 747.07113)
(-0.0029802844 -0.0029802844 747.07058)
(-0.0011682517 -0.0028902734 747.07037)
(-4.9933703e-05 -0.002800183 747.07034)
(0.0010555158 -0.0026967853 747.0705)
(0.0021515286 -0.0025680437 747.07085)
(0.0032667147 -0.0024013303 747.0714)
(0.002631206 -0.0020914779 747.07219)
(0.00071584542 -0.001615559 747.07244)
(-0.00021783304 -0.0013018639 747.07097)
(-0.002290996 -0.0012539562 747.07091)
(-0.0028902734 -0.0011682517 747.07037)
(-0.0010738548 -0.0010738548 747.07017)
(5.4026422e-05 -0.0009743026 747.07016)
(0.0011774211 -0.00086470572 747.07034)
(0.0022898697 -0.00073839444 747.07072)
(0.0034105208 -0.00060200658 747.07129)
(0.0027604771 -0.0004697856 747.0721)
(0.00077317561 -0.00037826466 747.07238)
(-0.00019127953 -0.00020017071 747.07093)
(-0.0022228827 -0.00013946168 747.07087)
(-0.002800183 -4.9933703e-05 747.07034)
(-0.0009743026 5.4026429e-05 747.07016)
(0.00015921536 0.00015921536 747.07017)
(0.0012914239 0.00026498352 747.07037)
(0.0024142277 0.00037466164 747.07076)
(0.0035353235 0.00048628543 747.07136)
(0.0028549479 0.00058670219 747.07219)
(0.00080736637 0.00064376054 747.07248)
(-0.00015712401 0.00084674107 747.07106)
(-0.002140759 0.00094528185 747.07102)
(-0.0026967853 0.0010555157 747.0705)
(-0.00086470573 0.0011774211 747.07034)
(0.00026498351 0.0012914239 747.07037)
(0.0013928674 0.0013928674 747.07058)
(0.0025111716 0.0014855121 747.07099)
(0.0036225613 0.001568356 747.0716)
(0.0029179522 0.0016354085 747.07245)
(0.00083023395 0.0016729301 747.07274)
(-9.2738761e-05 0.0017639913 747.07137)
(-0.002014108 0.0019944147 747.07134)
(-0.0025680437 0.0021515286 747.07085)
(-0.00073839444 0.0022898697 747.07072)
(0.00037466164 0.0024142277 747.07076)
(0.0014855121 0.0025111716 747.07099)
(0.0025897163 0.0025897163 747.07142)
(0.0036852199 0.00265185 747.07204)
(0.0029595221 0.0026948086 747.0729)
(0.00084488797 0.0027140713 747.0732)
(7.3299367e-05 0.0023252614 747.07183)
(-0.0017532217 0.0029339549 747.07186)
(-0.0024013303 0.0032667147 747.0714)
(-0.00060200657 0.0034105208 747.07129)
(0.00048628543 0.0035353235 747.07136)
(0.001568356 0.0036225613 747.0716)
(0.00265185 0.0036852199 747.07204)
(0.0037276536 0.0037276536 747.07267)
(0.0029801736 0.0037385261 747.07354)
(0.0008494967 0.0036764764 747.07384)
(0.00051595481 0.0013522151 747.07238)
(-0.0010726547 0.0019747058 747.07257)
(-0.0020914779 0.002631206 747.07219)
(-0.0004697856 0.0027604771 747.0721)
(0.00058670219 0.0028549479 747.07219)
(0.0016354085 0.0029179522 747.07245)
(0.0026948086 0.002959522 747.0729)
(0.0037385261 0.0029801736 747.07354)
(0.0029083449 0.0029083448 747.0744)
(0.00078283832 0.0019042206 747.07469)
(0.00069579007 0.00011742146 747.07246)
(-0.00047423074 0.00029725673 747.07269)
(-0.001615559 0.00071584542 747.07244)
(-0.00037826466 0.0007731756 747.07238)
(0.00064376054 0.00080736635 747.07248)
(0.0016729301 0.00083023394 747.07274)
(0.0027140713 0.00084488797 747.0732)
(0.0036764764 0.0008494967 747.07384)
(0.0019042206 0.00078283832 747.07469)
(-0.00015462753 -0.00015462754 747.07448)
(0.0013023787 0.0013023787 747.1864)
(-0.0015518442 -0.00064763365 747.18665)
(-0.0038904827 -0.00027268335 747.18604)
(-0.0014269443 -0.00024719587 747.18584)
(-0.00014602906 -0.00021660564 747.18581)
(0.0010751589 -0.00017702166 747.18596)
(0.0021549631 -0.00010261669 747.18628)
(0.0028322999 8.9234162e-05 747.18675)
(0.0016696337 0.00060961423 747.18729)
(0.00016179347 0.00080834261 747.18738)
(-0.00064763365 -0.0015518442 747.18665)
(-0.0031269062 -0.0031269062 747.18652)
(-0.0034900449 -0.002657936 747.18598)
(-0.0013708666 -0.00258148 747.18578)
(-7.5854843e-05 -0.0025027176 747.18577)
(0.0011891479 -0.002407243 747.18593)
(0.0024212189 -0.0022600395 747.18626)
(0.0035445308 -0.0019579506 747.18678)
(0.0023887422 -0.0011592973 747.18747)
(0.00036052185 -0.00047931756 747.1876)
(-0.00027268335 -0.0038904827 747.18604)
(-0.002657936 -0.0034900449 747.18598)
(-0.0033450565 -0.0033450565 747.18546)
(-0.0012717259 -0.0032410209 747.18528)
(2.8207901e-05 -0.0031365378 747.18528)
(0.001317837 -0.0030161827 747.18545)
(0.0026042555 -0.0028658677 747.18581)
(0.003933042 -0.002671882 747.18636)
(0.0031482668 -0.0023086139 747.18713)
(0.00084177326 -0.0017589026 747.18738)
(-0.00024719587 -0.0014269443 747.18584)
(-0.00258148 -0.0013708666 747.18578)
(-0.0032410209 -0.0012717259 747.18528)
(-0.0011623479 -0.0011623479 747.18511)
(0.0001489834 -0.0010467269 747.18513)
(0.001459818 -0.00091922348 747.18532)
(0.0027655197 -0.000772013 747.1857)
(0.0041017846 -0.00061326912 747.18627)
(0.0033017215 -0.00045824069 747.18707)
(0.00091023312 -0.0003499811 747.18734)
(-0.00021660564 -0.00014602906 747.18581)
(-0.0025027176 -7.5854836e-05 747.18577)
(-0.0031365378 2.8207908e-05 747.18528)
(-0.0010467269 0.0001489834 747.18513)
(0.00027133233 0.00027133234 747.18515)
(0.0015925509 0.00039448406 747.18536)
(0.0029102099 0.00052229782 747.18576)
(0.0042468143 0.00065222323 747.18635)
(0.0034115548 0.00076902697 747.18717)
(0.00095003285 0.00083540361 747.18745)
(-0.00017702164 0.0010751589 747.18596)
(-0.002407243 0.0011891479 747.18593)
(-0.0030161827 0.001317837 747.18545)
(-0.0009192235 0.001459818 747.18532)
(0.00039448406 0.0015925509 747.18536)
(0.0017107834 0.0017107834 747.18559)
(0.0030232589 0.0018188377 747.186)
(0.0043485138 0.0019155112 747.18661)
(0.0034849019 0.0019937471 747.18744)
(0.00097660977 0.0020373883 747.18773)
(-0.00010261669 0.0021549631 747.18628)
(-0.0022600395 0.0024212189 747.18626)
(-0.0028658677 0.0026042555 747.18581)
(-0.000772013 0.0027655197 747.1857)
(0.0005222978 0.0029102099 747.18576)
(0.0018188377 0.0030232589 747.186)
(0.0031149377 0.0031149377 747.18643)
(0.0044217237 0.0031876048 747.18705)
(0.0035334319 0.0032381139 747.18789)
(0.00099367403 0.0032608696 747.18818)
(8.9234162e-05 0.0028322999 747.18675)
(-0.0019579506 0.0035445308 747.18678)
(-0.0026718819 0.003933042 747.18636)
(-0.00061326911 0.0041017846 747.18627)
(0.00065222323 0.0042468143 747.18635)
(0.0019155112 0.0043485138 747.18661)
(0.0031876048 0.0044217237 747.18705)
(0.00447169 0.00447169 747.18768)
(0.0035581667 0.0044865961 747.18852)
(0.00099936542 0.0044196609 747.18882)
(0.00060961422 0.0016696338 747.18729)
(-0.0011592973 0.0023887422 747.18747)
(-0.0023086139 0.0031482668 747.18713)
(-0.00045824069 0.0033017215 747.18707)
(0.00076902696 0.0034115548 747.18717)
(0.0019937471 0.0034849019 747.18744)
(0.0032381139 0.0035334319 747.18789)
(0.0044865961 0.0035581667 747.18852)
(0.0034814028 0.0034814028 747.18937)
(0.00092673882 0.0022255372 747.18966)
(0.00080834259 0.00016179347 747.18738)
(-0.00047931755 0.00036052184 747.1876)
(-0.0017589026 0.00084177326 747.18738)
(-0.00034998109 0.0009102331 747.18734)
(0.00083540361 0.00095003284 747.18745)
(0.0020373883 0.00097660976 747.18773)
(0.0032608696 0.00099367403 747.18818)
(0.0044196609 0.00099936542 747.18882)
(0.0022255372 0.00092673882 747.18966)
(-0.00025650014 -0.00025650015 747.18946)
(0.0014249438 0.0014249438 747.31858)
(-0.0017229691 -0.00071083666 747.31882)
(-0.0042787581 -0.00030155248 747.31825)
(-0.0015288068 -0.0002720831 747.31808)
(-7.5522907e-05 -0.00023764947 747.31807)
(0.0013124479 -0.00019289394 747.31823)
(0.002547179 -0.00010894482 747.31855)
(0.0033340991 0.00010751577 747.31901)
(0.0019852837 0.00070241558 747.31954)
(0.00020835447 0.00091867423 747.31963)
(-0.00071083666 -0.0017229691 747.31882)
(-0.0034494654 -0.0034494654 747.3187)
(-0.0038400045 -0.0029347468 747.3182)
(-0.0014649038 -0.0028478024 747.31803)
(3.6662617e-06 -0.0027588939 747.31803)
(0.0014411525 -0.0026506892 747.3182)
(0.0028475887 -0.0024838823 747.31854)
(0.0041454595 -0.002142518 747.31905)
(0.0027964422 -0.0012306951 747.31972)
(0.00042461312 -0.00047358424 747.31985)
(-0.00030155248 -0.0042787581 747.31825)
(-0.0029347468 -0.0038400045 747.3182)
(-0.0036770951 -0.0036770951 747.31772)
(-0.0013529539 -0.0035596939 747.31757)
(0.00012159031 -0.0034414961 747.31758)
(0.0015874595 -0.0033049693 747.31776)
(0.0030553502 -0.0031340583 747.31812)
(0.0045872864 -0.0029140834 747.31866)
(0.0036542175 -0.0024996512 747.31941)
(0.00096546527 -0.0018796727 747.31965)
(-0.00027208309 -0.0015288068 747.31808)
(-0.0028478024 -0.0014649038 747.31803)
(-0.003559694 -0.0013529539 747.31757)
(-0.0012293049 -0.0012293049 747.31742)