/*--------------------------------*- C++ -*----------------------------------*\
| =========                 |                                                 |
| \\      /  F ield         | OpenFOAM: The Open Source CFD Toolbox           |
|  \\    /   O peration     | Version:  v2106                                 |
|   \\  /    A nd           | Website:  www.openfoam.com                      |
|    \\/     M anipulation  |                                                 |
\*---------------------------------------------------------------------------*/
FoamFile
{
    version     2.0;
    format      ascii;
    arch        "LSB;label=32;scalar=64";
    class       volScalarField;
    location    "40";
    object      gradTy;
}
// * * * * * * * * * * * * * * * * * * * * * * * * * * * * * * * * * * * * * //

dimensions      [0 -1 0 1 0 0 0];

internalField   nonuniform List<scalar> 
4000
(
0.00081493593
0.00049885045
0.00066342025
0.00057138021
0.00059340954
0.0005856119
0.00058097267
0.000572431
0.0005514377
0.00049953196
0.00097902261
0.00082750694
0.0008705405
0.00079488386
0.00081063444
0.00079653368
0.00078588082
0.00076750783
0.00072833003
0.00067687715
0.00044747929
0.00052000904
0.0004148562
0.00042763916
0.00041405729
0.00040185407
0.00039028272
0.00037503558
0.00034406617
0.00031756707
0.00031775567
0.00024774497
0.00025784962
0.00024694607
0.00023359909
0.00022213994
0.00021022393
0.00019957113
0.00018688103
0.00016504059
5.0163391e-05
6.4395073e-05
5.181322e-05
3.8609983e-05
2.7007077e-05
1.6631883e-05
4.9212301e-06
-7.1847389e-06
-1.4346437e-05
-1.4144776e-05
-5.5789384e-05
-6.8226261e-05
-8.054302e-05
-9.2000851e-05
-0.00010391818
-0.00011408668
-0.00012357055
-0.00013474618
-0.00014603517
-0.00015372412
-0.00020373504
-0.00021691591
-0.00023276087
-0.0002437344
-0.00025532967
-0.00026755104
-0.00027598916
-0.00028498
-0.00029364766
-0.00029986823
-0.00030236453
-0.00033189953
-0.00035991535
-0.00037811606
-0.0003832582
-0.00039738374
-0.00040572285
-0.00041504224
-0.00042552272
-0.0004345772
-0.00031977451
-0.00039267356
-0.0004104052
-0.00045014209
-0.00044493575
-0.00045710212
-0.00046391368
-0.00047199033
-0.00048344864
-0.00049611811
-0.00014955531
-0.00020146104
-0.00020100817
-0.00022796016
-0.00022284864
-0.00022775848
-0.00023053756
-0.00023397905
-0.00023959204
-0.00024664853
0.0021232548
0.001469635
0.0017249635
0.0015628101
0.001596193
0.001578034
0.0015643432
0.0015368637
0.0014812717
0.0012700014
0.0027169991
0.0023187077
0.0023625287
0.0022153069
0.0022317386
0.0021960076
0.0021645152
0.0021048556
0.0019936987
0.0017755305
0.0012980254
0.0013912005
0.0011946246
0.0011959983
0.0011592376
0.0011240786
0.0010897615
0.0010418182
0.00095094878
0.00087957987
0.00085369064
0.00072492018
0.0007229005
0.00068953323
0.0006523113
0.00061798188
0.00058229069
0.00055017409
0.00051049137
0.00045143896
0.00017496345
0.00019018736
0.00015566422
0.00011826765
8.4112883e-05
5.2809056e-05
1.7618604e-05
-1.81858e-05
-4.179258e-05
-4.901262e-05
-0.0001955214
-0.0002273712
-0.00026274475
-0.00029684727
-0.00033276536
-0.00036334154
-0.00039241882
-0.00042543491
-0.00045738126
-0.00047862964
-0.00063080936
-0.00067197965
-0.00072196135
-0.00075424002
-0.00078976915
-0.00082523489
-0.00085186252
-0.00087990825
-0.00090754827
-0.00092812787
-0.00095103912
-0.0010341106
-0.0011218556
-0.0011729233
-0.0011936549
-0.0012323345
-0.0012586174
-0.0012880203
-0.0013228622
-0.0013549624
-0.0010980809
-0.0013649432
-0.001427406
-0.0015271816
-0.0015261411
-0.0015580084
-0.0015793359
-0.001606228
-0.001646278
-0.0017034553
-0.00055677582
-0.00076804613
-0.00077494399
-0.00083941504
-0.00083399638
-0.00084663508
-0.00085524477
-0.00086721469
-0.00088734496
-0.00092439207
0.0031826716
0.0022290699
0.0025413578
0.002335745
0.0023710729
0.0023449032
0.0023217838
0.0022682678
0.0021989443
0.0018601176
0.0041892511
0.0035479374
0.0035924216
0.0033940201
0.0034023932
0.0033484654
0.0032977084
0.0031858712
0.0030114603
0.0026458126
0.0020542696
0.0021609447
0.0019003524
0.0018836604
0.0018253941
0.0017682041
0.0017135304
0.0016313323
0.0014727626
0.0013539399
0.0013114972
0.0011412123
0.0011214688
0.001066254
0.0010069157
0.00094967039
0.00089026909
0.00083785762
0.00077255496
0.00068240831
0.00027629916
0.0002854573
0.00023074443
0.00017000099
0.0001141608
6.2226564e-05
3.3325287e-06
-5.6582201e-05
-9.8623047e-05
-0.00011645383
-0.00037440009
-0.00042368917
-0.00047908483
-0.00053555289
-0.00059573138
-0.00064638114
-0.00069542871
-0.00075018571
-0.00080242531
-0.0008370275
-0.0011023727
-0.0011790081
-0.0012649669
-0.0013158799
-0.0013767797
-0.0014346887
-0.0014805843
-0.0015291433
-0.0015785885
-0.0016182281
-0.0016725501
-0.0017953896
-0.0019587983
-0.0020361575
-0.0020765124
-0.002138113
-0.002183509
-0.0022361173
-0.0023021272
-0.002359344
-0.0020925053
-0.0025006555
-0.0026325639
-0.0027780479
-0.0027880132
-0.0028379195
-0.002874855
-0.0029270043
-0.0029980817
-0.0031915553
-0.0011354358
-0.0014742625
-0.0015010835
-0.0015930851
-0.0015912302
-0.0016109159
-0.0016258324
-0.0016505555
-0.0016830492
-0.001844029
0.0041560191
0.0029567495
0.0033166992
0.0030715548
0.0031083442
0.0030751245
0.003044258
0.0029570651
0.0028588328
0.0023719334
0.005515712
0.0046763922
0.0047180155
0.0044726989
0.0044729681
0.0044018955
0.0043359093
0.0041690295
0.0039248129
0.0033980862
0.0027186857
0.002833491
0.0025149924
0.0024813139
0.0024026376
0.002323351
0.0022500313
0.0021367032
0.001916647
0.001757087
0.0017133382
0.0015049833
0.0014682908
0.0013926285
0.0013123959
0.0012323886
0.0011491274
0.0010754461
0.00098211542
0.00086046906
0.00033407632
0.00033764602
0.00026327291
0.0001796831
0.000103033
3.0711433e-05
-5.1505411e-05
-0.00013482857
-0.00019515106
-0.00022356316
-0.00059044391
-0.0006545301
-0.00072750266
-0.00080713639
-0.0008907711
-0.00096167481
-0.0010310611
-0.0011078245
-0.001180555
-0.0012285492
-0.0016182488
-0.0017363082
-0.0018511148
-0.001922956
-0.0020080573
-0.002088496
-0.0021542071
-0.0022241535
-0.0022980862
-0.0023632915
-0.0024445566
-0.0026299818
-0.002855653
-0.0029633663
-0.003022665
-0.0031070119
-0.0031721589
-0.0032508911
-0.003354919
-0.0034172731
-0.0031119769
-0.0036971086
-0.0038829201
-0.0040767249
-0.0040978971
-0.0041654595
-0.0042186218
-0.0043045975
-0.0043850038
-0.0047359755
-0.0017154944
-0.0022023938
-0.002242221
-0.0023619538
-0.0023638674
-0.0023903659
-0.0024118615
-0.0024555711
-0.0024742156
-0.0028065428
0.0050638814
0.0036367262
0.0040412603
0.0037586674
0.0037968583
0.0037567193
0.0037204196
0.0036043725
0.0034828209
0.0028462394
0.0067456208
0.0057229997
0.0057614744
0.0054718985
0.005464501
0.0053760367
0.0052962043
0.0050778726
0.0047713919
0.0040835955
0.0033221029
0.0034440441
0.0030710017
0.0030216045
0.0029236752
0.0028223925
0.0027298882
0.0025839192
0.0023039625
0.0021056878
0.0020634094
0.0018190074
0.001766436
0.0016716809
0.0015716006
0.0014695757
0.0013631964
0.0012683434
0.0011466582
0.00099382926
0.00035270423
0.00035075615
0.00025684249
0.0001515441
5.4737295e-05
-3.7623387e-05
-0.00014280321
-0.00024911236
-0.00032758163
-0.00036643191
-0.00083670067
-0.00091313935
-0.0010049974
-0.0011069264
-0.0012134016
-0.0013044669
-0.0013942709
-0.0014929597
-0.0015857727
-0.0016462295
-0.0021623343
-0.0023146812
-0.0024604985
-0.0025531544
-0.0026617308
-0.0027646434
-0.0028502236
-0.0029412363
-0.0030407869
-0.0031393374
-0.0032572994
-0.003494898
-0.0037821117
-0.0039208237
-0.0039986499
-0.0041056021
-0.0041901517
-0.0042961654
-0.0044493751
-0.004509284
-0.0041666226
-0.0049247557
-0.0051608997
-0.0054029871
-0.0054354139
-0.0055203066
-0.0055886836
-0.0057184078
-0.0058018022
-0.0062962984
-0.0023052986
-0.0029418801
-0.0029930949
-0.0031401548
-0.0031459239
-0.0031790051
-0.0032063807
-0.0032775556
-0.0032662896
-0.0037720518
0.005932638
0.0042862626
0.0047330176
0.0044150808
0.004454632
0.0044073777
0.00436496
0.0042200639
0.0040767066
0.0032931793
0.0079112548
0.0067116344
0.0067472303
0.0064158841
0.0064014285
0.0062959143
0.0062018408
0.0059318671
0.0055657596
0.0047200454
0.0038743457
0.0040031638
0.0035785953
0.0035143259
0.0033982861
0.0032760179
0.0031651729
0.0029865905
0.0026482786
0.0024125148
0.0023698543
0.0020914688
0.0020240526
0.0019111596
0.0017920792
0.0016687989
0.0015402027
0.0014246912
0.0012751179
0.0010917894
0.00033961253
0.00033190945
0.00021964278
9.3601356e-05
-2.2717848e-05
-0.00013464419
-0.00026232087
-0.00039123262
-0.00048772482
-0.00053702862
-0.001105975
-0.001195647
-0.0013055627
-0.0014287602
-0.0015574392
-0.0016683632
-0.0017784957
-0.0018989212
-0.0020110538
-0.0020822015
-0.0027179365
-0.0029052502
-0.0030819837
-0.0031946776
-0.0033260914
-0.0034512661
-0.0035566494
-0.0036676208
-0.0037906886
-0.0039253193
-0.0040737829
-0.0043620362
-0.004709864
-0.0048789306
-0.0049749487
-0.0051043345
-0.0052075069
-0.0053383737
-0.0055452261
-0.0056049813
-0.0052155374
-0.006142422
-0.0064273591
-0.0067164977
-0.006760261
-0.0068622937
-0.0069435412
-0.0071199922
-0.0072101488
-0.0078435539
-0.002888229
-0.0036717563
-0.0037339433
-0.0039075201
-0.0039172718
-0.0039568239
-0.0039884195
-0.0040914547
-0.0040481747
-0.0047248597
0.0067580684
0.004902998
0.0053894178
0.0050382808
0.005079177
0.0050253048
0.0049770773
0.004804124
0.0046400696
0.0037143393
0.009011777
0.0076431264
0.0076759933
0.0073052367
0.007284164
0.0071625852
0.0070550693
0.0067348642
0.0063116061
0.0053131114
0.0043824174
0.0045177002
0.0040445277
0.0039660171
0.0038327731
0.0036904266
0.0035621904
0.0033519438
0.0029573226
0.0026855034
0.0026402885
0.0023300476
0.0022484591
0.0021182931
0.0019810564
0.0018372945
0.0016873448
0.0015518369
0.0013751619
0.0011622845
0.00030286064
0.00028988463
0.00016020918
1.4294142e-05
-0.00012078943
-0.00025163816
-0.0004011534
-0.00055214093
-0.00066648157
-0.00072641854
-0.0013905696
-0.0014926693
-0.0016196642
-0.001763252
-0.0019133758
-0.002043616
-0.0021737683
-0.0023158058
-0.0024470038
-0.0025277817
-0.0032782497
-0.0034994305
-0.0037059708
-0.0038379133
-0.0039914284
-0.004138416
-0.0042636182
-0.0043942219
-0.0045388952
-0.0047088337
-0.0048842916
-0.0052212992
-0.0056277548
-0.0058261671
-0.0059399377
-0.0060914952
-0.0062131732
-0.0063667722
-0.0066262241
-0.0066862951
-0.0062465007
-0.0073362855
-0.0076682534
-0.0080027259
-0.0080578058
-0.0081770036
-0.0082697818
-0.0084916154
-0.0085893046
-0.009357821
-0.0034586083
-0.0043843386
-0.004457103
-0.0046561578
-0.0046699803
-0.0047160948
-0.0047507583
-0.0048860333
-0.0048108293
-0.0056545497
0.0075380525
0.0054858767
0.0060090482
0.0056269314
0.005668973
0.0056088837
0.0055551912
0.0053552511
0.0051715547
0.0041093418
0.010047029
0.0085180248
0.0085481384
0.0081403876
0.0081129268
0.0079761267
0.0078559312
0.007487441
0.0070096642
0.0058645416
0.0048503976
0.0049914522
0.0044727604
0.0043806392
0.0042311033
0.0040695805
0.0039248071
0.003684146
0.0032356037
0.0029293686
0.0028797876
0.0025397125
0.0024445759
0.0022980554
0.0021435862
0.0019802259
0.0018098432
0.001655135
0.001452384
0.0012111847
0.00024921459
0.00023116691
8.4953683e-05
-7.9891808e-05
-0.00023287582
-0.00038184942
-0.00055232253
-0.00072456056
-0.00085626631
-0.00092683104
-0.0016816022
-0.0017953841
-0.0019385978
-0.0021016803
-0.0022723408
-0.0024211271
-0.0025706236
-0.0027337507
-0.0028837246
-0.0029737455
-0.0038326892
-0.0040863217
-0.0043213749
-0.0044717562
-0.0046464657
-0.0048144673
-0.0049590894
-0.0051091216
-0.0052745125
-0.0054787044
-0.0056770913
-0.0060607278
-0.0065233583
-0.0067499312
-0.0068808175
-0.0070538749
-0.0071939186
-0.007369298
-0.0076797016
-0.0077398896
-0.0072477255
-0.0084936348
-0.0088706249
-0.0092484122
-0.0093145753
-0.0094506827
-0.0095545701
-0.0098202655
-0.0099251617
-0.010824157
-0.0040108732
-0.0050730861
-0.0051559958
-0.0053793212
-0.0053971951
-0.005449886
-0.0054872159
-0.0056540778
-0.005547404
-0.006553073
0.0082693459
0.006032774
0.0065895198
0.0061788186
0.0062217763
0.0061558659
0.006097053
0.0058713592
0.0056691474
0.0044769929
0.011014334
0.009334508
0.0093617834
0.0089196399
0.0088860217
0.0087348802
0.008602768
0.0081882505
0.0076588713
0.0063741483
0.0052798662
0.0054259108
0.0048649981
0.0047599277
0.0045950839
0.0044153923
0.0042549738
0.0039853457
0.003485598
0.0031467873
0.0030914104
0.002723667
0.0026156486
0.0024537527
0.0022830523
0.0021010964
0.0019113035
0.0017383061
0.0015106841
0.0012426081
0.00018337372
0.00016042104
-1.3859122e-06
-0.0001841144
-0.00035404226
-0.00052024036
-0.00071065272
-0.00090311848
-0.0010514478
-0.0011323624
-0.0019727855
-0.0020975088
-0.0022560391
-0.0024376189
-0.0026277879
-0.0027942294
-0.0029621808
-0.0031454953
-0.0033135603
-0.003412441
-0.0043732498
-0.0046577565
-0.0049198795
-0.0050878031
-0.0052826698
-0.0054706812
-0.0056339357
-0.005802759
-0.0059880396
-0.0062253418
-0.0064430245
-0.0068709301
-0.0073869213
-0.0076403059
-0.0077875407
-0.0079811009
-0.0081389202
-0.0083352048
-0.0086947568
-0.0087548092
-0.0082097776
-0.0096041439
-0.01002388
-0.010442702
-0.010519578
-0.010671946
-0.010786524
-0.011094529
-0.011206128
-0.012230157
-0.0045403761
-0.0057325306
-0.0058250991
-0.0060713413
-0.0060931751
-0.006152256
-0.0061920557
-0.0063895582
-0.0062521082
-0.0074135871
0.0089482223
0.0065410809
0.0071279986
0.0066912732
0.0067349059
0.0066635992
0.0066000382
0.0063499852
0.0061304994
0.0048157445
0.011909815
0.010089591
0.010113919
0.0096401643
0.0096006405
0.0094361176
0.0092929148
0.0088349207
0.0082571818
0.0068407505
0.0056710551
0.0058212475
0.0052216285
0.0051043093
0.0049252118
0.004728472
0.0045533908
0.0042564322
0.0037085202
0.003339178
0.0032770637
0.002883971
0.0027637851
0.0025875543
0.0024017011
0.0022022682
0.0019942084
0.0018039465
0.0015528106
0.0012594701
0.00010897104
8.1296997e-05
-9.5075642e-05
-0.00029454032
-0.00048036179
-0.00066278286
-0.00087200046
-0.0010835495
-0.00124763
-0.0013384663
-0.0022591665
-0.0023940342
-0.0025668921
-0.0027658552
-0.0029743848
-0.0031574939
-0.0033429031
-0.0035453201
-0.0037305349
-0.0038377651
-0.0048935863
-0.0052072003
-0.0054947832
-0.0056792401
-0.0058931049
-0.0061000068
-0.0062809311
-0.0064676136
-0.0066717595
-0.0069408061
-0.0071747458
-0.0076442845
-0.0082104788
-0.0084891551
-0.0086518767
-0.0088647846
-0.0090395085
-0.009255613
-0.0096621996
-0.0097218401
-0.0091248677
-0.010659108
-0.011119038
-0.011576362
-0.011663514
-0.011831279
-0.011955959
-0.012304472
-0.012422187
-0.01356502
-0.0050431716
-0.0063579266
-0.006459603
-0.0067272688
-0.0067529435
-0.0068181051
-0.0068601737
-0.0070871517
-0.0069198142
-0.0082299855
0.0095709828
0.0070081376
0.007621626
0.0071615854
0.0072056386
0.0071293869
0.0070614767
0.0067886089
0.0065532005
0.0051239456
0.012729265
0.010779908
0.010801171
0.010298756
0.010253597
0.010076725
0.0099233224
0.0094246741
0.0088021263
0.007262701
0.0060234284
0.0061768763
0.0055422765
0.0054134585
0.0052212317
0.0050086656
0.0048199978
0.0044975243
0.0039048002
0.0035071709
0.0034377959
0.0030218085
0.0028902213
0.0027007637
0.0025009166
0.0022852349
0.0020601745
0.0018537918
0.001580653
0.0012638192
2.875887e-05
-3.4396236e-06
-0.00019327277
-0.00040823252
-0.00060880161
-0.00080633659
-0.0010331
-0.0012624657
-0.0014413235
-0.0015415665
-0.0025367337
-0.0026808956
-0.0028670078
-0.0030821295
-0.0033077499
-0.0035064279
-0.0037081892
-0.0039284986
-0.0041297718
-0.0042447475
-0.0053884124
-0.0057291904
-0.006040463
-0.0062403317
-0.0064719061
-0.0066964608
-0.0068939767
-0.0070974214
-0.007319238
-0.0076184315
-0.0078660047
-0.0083742809
-0.0089872008
-0.0092894784
-0.0094667222
-0.0096977019
-0.0098883049
-0.010122963
-0.010574143
-0.010633068
-0.0099861743
-0.011650838
-0.012148147
-0.012641191
-0.01273812
-0.012920292
-0.013054369
-0.013441302
-0.013564473
-0.014819129
-0.0055157392
-0.0069449942
-0.0070551645
-0.0073426235
-0.0073719984
-0.0074428666
-0.0074869741
-0.0077420601
-0.0075458985
-0.008996716
0.010134107
0.0074313719
0.0080676575
0.007587146
0.0076313555
0.007550635
0.007478798
0.0071847993
0.0069349186
0.005399972
0.013468485
0.011402035
0.011420117
0.010892155
0.010841651
0.01065353
0.010490878
0.0099546492
0.0092911245
0.0076381852
0.0063360332
0.0064918074
0.0058261531
0.005686643
0.0054824822
0.0052554052
0.0050543126
0.0047083043
0.0040744076
0.0036509223
0.0035740748
0.0031377728
0.0029956079
0.0027941019
0.0025814996
0.0023508989
0.0021102174
0.0018889699
0.0015954889
0.0012570881
-5.5207026e-05
-9.1717946e-05
-0.00029383229
-0.00052295578
-0.00073703529
-0.00094847392
-0.0011914019
-0.0014371944
-0.0016297544
-0.0017388174
-0.0028022328
-0.0029547903
-0.0031530053
-0.0033829599
-0.0036242875
-0.0038373265
-0.0040542204
-0.0042910915
-0.0045072146
-0.0046292625
-0.0058532631
-0.0062190988
-0.0065521436
-0.0067661997
-0.0070140726
-0.0072549202
-0.0074678377
-0.007686823
-0.0079249805
-0.0082525141
-0.008511378
-0.0090552574
-0.0097111316
-0.010035162
-0.01022586
-0.010473515
-0.010678854
-0.010930658
-0.01142369
-0.011481575
-0.010787614
-0.012572442
-0.013104078
-0.013629824
-0.01373596
-0.013931447
-0.014074131
-0.014497138
-0.014625048
-0.015983834
-0.0059548927
-0.0074898392
-0.0076078319
-0.0079133246
-0.0079462327
-0.0080223875
-0.0080682806
-0.0083499211
-0.0081261661
-0.0097087069
0.010634327
0.0078083711
0.0084635349
0.0079655185
0.0080096152
0.0079249263
0.0078496071
0.0075362906
0.0072734774
0.0056423003
0.014123465
0.011952673
0.01196747
0.011417221
0.01136169
0.011163484
0.010992588
0.010422084
0.0097216699
0.0079654012
0.0066077405
0.0067648879
0.0060722892
0.0059229533
0.005708122
0.005467937
0.0052556592
0.0048882454
0.0042170766
0.003770335
0.0036860303
0.0032321106
0.0030802502
0.0028679434
0.0026439003
0.0023998033
0.0021449813
0.0019102253
0.001598199
0.0012403019
-0.00014135595
-0.00018194812
-0.00039509318
-0.00063696445
-0.00086323328
-0.0010872745
-0.0013448769
-0.0016055932
-0.0018106846
-0.0019279142
-0.0030529793
-0.0032129874
-0.003422081
-0.0036654502
-0.003921
-0.0041470938
-0.0043777956
-0.0046297841
-0.0048594438
-0.0049878331
-0.0062843162
-0.0066729519
-0.0070257162
-0.0072526435
-0.0075152942
-0.0077709621
-0.0079979844
-0.0082311793
-0.0084842315
-0.0088381086
-0.0091061099
-0.0096822397
-0.010377028
-0.010720822
-0.01092381
-0.01118663
-0.011405459
-0.011672877
-0.012204744
-0.012261259
-0.011523735
-0.013417725
-0.013980418
-0.014535636
-0.014650341
-0.014857957
-0.015008391
-0.015464886
-0.015596773
-0.017051339
-0.0063577456
-0.0079889226
-0.0081140143
-0.0084356641
-0.0084719114
-0.0085528938
-0.0086003007
-0.008906771
-0.0086568156
-0.010361337
0.01106869
0.0081369379
0.0088069422
0.0082944927
0.0083382061
0.008250072
0.0081717358
0.0078410334
0.0075669074
0.0058495554
0.014690527
0.012428779
0.012440203
0.011871064
0.01181085
0.011603784
0.011425698
0.010824436
0.010091449
0.0082426752
0.0068374088
0.0069949636
0.0062796933
0.0061214551
0.0058972805
0.0056454701
0.0054233161
0.0050367607
0.0043324544
0.0038652054
0.00377363
0.0033048939
0.003144277
0.0029224811
0.002688381
0.0024322938
0.0021649018
0.0019180817
0.0015894282
0.0012142331
-0.0002284364
-0.00027285703
-0.00049571644
-0.00074884212
-0.00098590375
-0.0012211664
-0.0014918573
-0.0017658952
-0.0019822615
-0.0021069454
-0.0032867076
-0.003453178
-0.0036718598
-0.0039271423
-0.004195339
-0.0044330959
-0.0046761881
-0.0049417479
-0.0051835384
-0.0053174896
-0.0066782588
-0.0070872975
-0.0074576065
-0.0076960068
-0.0079718186
-0.0082407357
-0.0084804706
-0.0087264471
-0.0089928457
-0.0093708975
-0.0096460053
-0.010250834
-0.010980255
-0.011341695
-0.011555728
-0.0118321
-0.012063079
-0.012344475
-0.012911912
-0.012966722
-0.012189653
-0.014181131
-0.014771414
-0.015352687
-0.015475263
-0.015693737
-0.015851004
-0.016338187
-0.016473252
-0.018014647
-0.006721694
-0.008439046
-0.0085704676
-0.008906295
-0.0089456626
-0.0090309788
-0.0090796138
-0.0094090306
-0.0091344241
-0.010950426
0.011434604
0.0084151313
0.0090958458
0.0085721231
0.0086151843
0.0085241489
0.0084432787
0.0080972294
0.0078134805
0.0060205408
0.015166418
0.01282766
0.012835641
0.012251121
0.012186598
0.011971948
0.011787771
0.011159458
0.010398416
0.0084685347
0.0070239908
0.0071809826
0.0064474517
0.0062812883
0.006049154
0.0057872718
0.0055566121
0.0051532981
0.0044201952
0.0039353172
0.0038367924
0.0033561308
0.003187749
0.0029578332
0.002715121
0.0024486237
0.0021703108
0.0019129476
0.0015696909
0.0011795077
-0.00031540615
-0.00036338038
-0.00059457893
-0.00085739688
-0.0011037884
-0.001348821
-0.0016309318
-0.0019166034
-0.0021429138
-0.0022742879
-0.0035014711
-0.0036733765
-0.0039002974
-0.0041659185
-0.0044451077
-0.004693062
-0.0049470472
-0.0052245438
-0.0054769788
-0.0056156719
-0.0070322028
-0.0074591223
-0.0078446926
-0.008093096
-0.0083803688
-0.0086608784
-0.0089118505
-0.0091690963
-0.0094472046
-0.0098471068
-0.010127366
-0.010757165
-0.011516721
-0.011893582
-0.012117341
-0.012405564
-0.012647273
-0.012940918
-0.013540432
-0.013593208
-0.012781023
-0.014857712
-0.015471947
-0.016075693
-0.016205387
-0.016433377
-0.016596515
-0.017111388
-0.017248806
-0.018867536
-0.0070444106
-0.0088373503
-0.0089742923
-0.0093222283
-0.0093644756
-0.0094536023
-0.0095031687
-0.0098535045
-0.0095559444
-0.011472235
0.011729872
0.0086412951
0.0093285233
0.0087967564
0.0088389
0.0087455247
0.0086626195
0.0083033567
0.0080117342
0.0061542606
0.015548374
0.013147025
0.013151515
0.012555218
0.012486783
0.012265875
0.012076742
0.011425253
0.010640848
0.0086417557
0.0071665986
0.0073220598
0.0065747913
0.006401728
0.0061630662
0.0058927277
0.0056549848
0.0052373992
0.0044800193
0.003980501
0.0038754572
0.0033858338
0.0032107259
0.0029741087
0.002724282
0.0024490188
0.0021615015
0.0018951823
0.0015394383
0.0011366712
-0.00040136523
-0.00045259695
-0.00069070847
-0.00096159729
-0.0012157984
-0.0014690892
-0.00176088
-0.002056424
-0.0022912842
-0.0024285403
-0.0036955814
-0.0038718619
-0.0041056221
-0.0043799432
-0.0046684026
-0.0049250249
-0.005188337
-0.0054760602
-0.0057375849
-0.0058801672
-0.0073436356
-0.0077858036
-0.0081842577
-0.0084411321
-0.0087380942
-0.0090284669
-0.0092891295
-0.0095560599
-0.0098441655
-0.010263455
-0.010546962
-0.011197847
-0.011982856
-0.012372812
-0.012604919
-0.012903217
-0.013154167
-0.013458253
-0.014086152
-0.014136571
-0.013294028
-0.015443124
-0.016077525
-0.016700022
-0.016836036
-0.017072139
-0.017240143
-0.017779534
-0.017918462
-0.019604552
-0.0073238463
-0.00918132
-0.0093229384
-0.0096808382
-0.0097257055
-0.0098180943
-0.0098682879
-0.010237384
-0.0099187076
-0.011923475
0.011952718
0.0088140779
0.0095035828
0.0089670501
0.0090080163
0.0089128769
0.0088284478
0.0084581866
0.0081604886
0.0062499327
0.015834165
0.01338503
0.013386
0.012781603
0.012709679
0.012483874
0.012290953
0.011620303
0.010817371
0.0087613937
0.0072645459
0.0074175182
0.0066611194
0.0064822236
0.0062385062
0.0059613788
0.0057180192
0.0052887368
0.0045117496
0.0040006706
0.0038896285
0.0033940621
0.003213308
0.0029714489
0.0027160488
0.0024337175
0.0021387693
0.0018651364
0.0014990986
0.0010862306
-0.0004855151
-0.00053968836
-0.0007832443
-0.0010605332
-0.0013209757
-0.0015809623
-0.0018806333
-0.0021842271
-0.002426189
-0.0025684813
-0.0038675729
-0.0040471415
-0.0042862994
-0.0045676285
-0.004863579
-0.0051272861
-0.0053983011
-0.0056944767
-0.0059634789
-0.0061090723
-0.0076103937
-0.008065084
-0.0084739649
-0.008737726
-0.0090425459
-0.0093409908
-0.0096097366
-0.0098847059
-0.010181033
-0.010617127
-0.010902009
-0.011569969
-0.012375591
-0.012776238
-0.013015261
-0.013321794
-0.013580439
-0.013893091
-0.014545504
-0.014593259
-0.013725379
-0.015933632
-0.016584288
-0.017221699
-0.017363193
-0.017605953
-0.017777789
-0.018338374
-0.018477957
-0.020221015
-0.0075582345
-0.0094687904
-0.0096142122
-0.0099798694
-0.01002708
-0.010122162
-0.010172673
-0.010558255
-0.010220428
-0.012301313
0.012101799
0.0089324464
0.009619977
0.0090819865
0.0091215228
0.0090252057
0.0089397734
0.0085607966
0.0082588583
0.0063069995
0.016022121
0.013540299
0.013537745
0.012928974
0.012854005
0.012624695
0.012429175
0.011743499
0.010926992
0.0088268045
0.0073173748
0.0074669149
0.0067060495
0.0065224244
0.0062751545
0.0059929471
0.0057454716
0.0053071395
0.0045153356
0.0039958469
0.0038794027
0.0033809485
0.003195663
0.0029500534
0.0026906551
0.002402997
0.0021024368
0.0018231779
0.0014491033
0.00102868
-0.00056713327
-0.00062391402
-0.00087141249
-0.0011533913
-0.0014184689
-0.0016835477
-0.0019892506
-0.002299022
-0.0025465935
-0.0026930448
-0.0040161815
-0.004197931
-0.0044410118
-0.0047276138
-0.00502923
-0.0052983955
-0.005575442
-0.0058782435
-0.0061530645
-0.0063007712
-0.0078306483
-0.0082950574
-0.0087118439
-0.0089808651
-0.009291663
-0.0095963394
-0.009871511
-0.010152824
-0.010455546
-0.010905754
-0.011190174
-0.011871089
-0.012692357
-0.013101225
-0.01334569
-0.013658568
-0.013923313
-0.014242603
-0.014915508
-0.014960304
-0.014072321
-0.016326118
-0.016989016
-0.017637411
-0.017783514
-0.018031433
-0.018206042
-0.018784364
-0.018923743
-0.020713022
-0.0077460975
-0.0096979563
-0.0098462848
-0.010217445
-0.010266708
-0.010363896
-0.010414415
-0.010814105
-0.010459211
-0.012603384
0.012176221
0.0089956961
0.0096770135
0.009140882
0.0091787446
0.0090818438
0.0089959349
0.0086105791
0.0083062623
0.0063251343
0.016111159
0.013611951
0.013605886
0.012996496
0.012918943
0.012687543
0.012490629
0.011794156
0.010969106
0.0088376576
0.0073248738
0.0074700597
0.0067094188
0.0065221967
0.0062728989
0.0059873519
0.0057372865
0.0052926074
0.0044908688
0.0039661734
0.0038449868
0.003346718
0.0031580437
0.0029101982
0.0026484011
0.0023571902
0.0020528716
0.0017697087
0.0013899039
0.00096451751
-0.00064555681
-0.00070459494
-0.0009545098
-0.0012394398
-0.0015075177
-0.0017760538
-0.0020859036
-0.0023999422
-0.0026515967
-0.0028013036
-0.004140331
-0.0043231407
-0.0045686455
-0.0048587531
-0.0051641751
-0.005437139
-0.0057185083
-0.0060260683
-0.0063050135
-0.0064539229
-0.0080028969
-0.0084741616
-0.0088962838
-0.0091689061
-0.0094837653
-0.0097927945
-0.010072695
-0.010358616
-0.010665866
-0.011127414
-0.011409564
-0.012099237
-0.012931086
-0.013345654
-0.013594054
-0.013911347
-0.014180559
-0.014504519
-0.015193768
-0.015235329
-0.014332642
-0.016618087
-0.01728914
-0.017944521
-0.018094331
-0.018345882
-0.018522186
-0.019114681
-0.019252996
-0.021077466
-0.0078862513
-0.0098673793
-0.0100177
-0.010392075
-0.010443086
-0.010541782
-0.010591996
-0.01100333
-0.010633557
-0.0128278
0.012175546
0.0090034577
0.0096743612
0.0091433943
0.0091793498
0.0090824627
0.0089966069
0.0086072479
0.0083024287
0.0063042458
0.016100787
0.013599602
0.013590066
0.012983812
0.012904154
0.01267209
0.012474996
0.01177202
0.010943515
0.0087939463
0.0072870906
0.0074270272
0.0066713005
0.0064816358
0.0062318474
0.0059447213
0.005693608
0.0052453237
0.0044385936
0.0039119265
0.0037867117
0.0032917003
0.0031008004
0.0028522472
0.0025896659
0.0022966978
0.0019904971
0.0017051763
0.0013219831
0.00089425656
-0.0007201706
-0.00078110213
-0.0010318924
-0.0013180167
-0.0015874419
-0.0018577794
-0.0021698652
-0.0024862346
-0.0027404203
-0.0028924598
-0.0042391244
-0.0044218673
-0.0046682823
-0.0049601067
-0.005267451
-0.00554253
-0.0058264871
-0.0061369092
-0.0064182585
-0.0065674523
-0.0081259588
-0.0086011736
-0.0090260288
-0.0093005712
-0.0096175503
-0.0099290265
-0.010211929
-0.010500696
-0.01081058
-0.011280622
-0.011558732
-0.012252911
-0.013090214
-0.013507925
-0.013758728
-0.01407848
-0.014350499
-0.014677131
-0.015378473
-0.015416543
-0.014504676
-0.016807679
-0.01748275
-0.018141076
-0.01829367
-0.018547301
-0.018724213
-0.019327227
-0.019463625
-0.021312037
-0.0079778109
-0.0099759937
-0.01012738
-0.010502661
-0.010555106
-0.0106547
-0.0107043
-0.011124742
-0.01074237
-0.012973154
0.012099797
0.0089557013
0.0096120547
0.009089526
0.0091233527
0.0090270767
0.0089418034
0.0085508418
0.0082473995
0.0062444812
0.015991124
0.013503382
0.013490433
0.012891053
0.012809782
0.012578485
0.012382427
0.011677281
0.010850429
0.0086959929
0.007204341
0.0073381655
0.0065920123
0.0064010746
0.0061523357
0.0058654009
0.005614788
0.0051656624
0.0043589145
0.003833523
0.0037050409
0.0032163388
0.0030243905
0.0027766621
0.0025149155
0.0022219966
0.0019158019
0.0016300824
0.0012458635
0.0008184339
-0.00079039909
-0.00085284829
-0.0011029677
-0.001388522
-0.0016576332
-0.0019281053
-0.0022405029
-0.0025572525
-0.002812402
-0.0029658366
-0.0043118369
-0.0044933863
-0.0047391921
-0.0050309339
-0.0053383056
-0.0056138036
-0.0058985976
-0.0062099677
-0.0064919865
-0.0066405446
-0.0081989709
-0.0086752059
-0.0091001746
-0.0093749443
-0.0096920888
-0.010004091
-0.010288253
-0.010578085
-0.010888692
-0.011364329
-0.011636677
-0.012331081
-0.013168674
-0.013586954
-0.013838613
-0.014158853
-0.014432002
-0.014759292
-0.015468404
-0.015502748
-0.01458731
-0.016893671
-0.017568598
-0.01822581
-0.018380247
-0.018634394
-0.018810824
-0.019420639
-0.01955428
-0.021415238
-0.0080201934
-0.010023112
-0.01017463
-0.010548503
-0.010602059
-0.010701938
-0.010750618
-0.011177575
-0.010784962
-0.013038533
0.011949456
0.0088527389
0.0094904955
0.0089796264
0.0090111159
0.0089160447
0.0088318796
0.0084417258
0.0081415314
0.0061462262
0.015782895
0.013323935
0.013307652
0.012718843
0.012636459
0.012407355
0.012213541
0.011510574
0.010690473
0.0085444516
0.007077214
0.0072041015
0.0064721223
0.0062810887
0.0060349329
0.0057499585
0.0055013912
0.0050541934
0.0042524017
0.0037315248
0.0036005776
0.003121198
0.0029293846
0.0026840086
0.0024247104
0.0021336468
0.0018293459
0.0015449894
0.0011621136
0.00073761614
-0.00085569859
-0.00091928036
-0.0011671868
-0.0014504105
-0.0017175486
-0.0019864876
-0.002297271
-0.0026124477
-0.0028669881
-0.0030208718
-0.0043579097
-0.0045371461
-0.0047808272
-0.0050706877
-0.0053761917
-0.0056504101
-0.0059342851
-0.0062446836
-0.0065256329
-0.0066726396
-0.0082213833
-0.0086957022
-0.0091181643
-0.0093914673
-0.0097068217
-0.010017427
-0.010301095
-0.010590205
-0.01089962
-0.01137792