/*--------------------------------*- C++ -*----------------------------------*\
| =========                 |                                                 |
| \\      /  F ield         | OpenFOAM: The Open Source CFD Toolbox           |
|  \\    /   O peration     | Version:  v2106                                 |
|   \\  /    A nd           | Website:  www.openfoam.com                      |
|    \\/     M anipulation  |                                                 |
\*---------------------------------------------------------------------------*/
FoamFile
{
    version     2.0;
    format      ascii;
    arch        "LSB;label=32;scalar=64";
    class       volScalarField;
    location    "40";
    object      gradTz;
}
// * * * * * * * * * * * * * * * * * * * * * * * * * * * * * * * * * * * * * //

dimensions      [0 -1 0 1 0 0 0];

internalField   nonuniform List<scalar> 
4000
(
752.14206
752.145
752.14575
752.14674
752.14692
752.14697
752.14667
752.14613
752.14542
752.14471
752.145
752.14696
752.14814
752.14887
752.14911
752.14913
752.14882
752.14824
752.14745
752.14648
752.14575
752.14814
752.14899
752.14975
752.14997
752.14996
752.14962
752.149
752.14814
752.14717
752.14674
752.14887
752.14975
752.1505
752.15069
752.15066
752.1503
752.14966
752.14875
752.14768
752.14692
752.14911
752.14997
752.15069
752.15085
752.1508
752.15042
752.14975
752.14884
752.14778
752.14697
752.14913
752.14996
752.15066
752.1508
752.15072
752.15032
752.14963
752.14869
752.14762
752.14667
752.14882
752.14962
752.1503
752.15042
752.15032
752.1499
752.14919
752.14824
752.14715
752.14613
752.14824
752.149
752.14966
752.14975
752.14963
752.14919
752.14847
752.14749
752.14639
752.14542
752.14745
752.14814
752.14875
752.14884
752.14869
752.14824
752.14749
752.14649
752.14536
752.14471
752.14648
752.14717
752.14768
752.14778
752.14762
752.14715
752.14639
752.14536
752.14419
752.12996
752.13233
752.13317
752.13394
752.13417
752.13416
752.13385
752.13326
752.13248
752.13149
752.13233
752.13406
752.13505
752.1357
752.13594
752.13592
752.13559
752.13496
752.13412
752.13285
752.13317
752.13505
752.13589
752.13654
752.13676
752.13671
752.13636
752.13568
752.13476
752.13346
752.13394
752.1357
752.13654
752.13716
752.13736
752.13729
752.13691
752.13622
752.13525
752.13389
752.13417
752.13594
752.13676
752.13736
752.13753
752.13744
752.13704
752.13632
752.13535
752.13398
752.13416
752.13592
752.13671
752.13729
752.13744
752.13733
752.13691
752.13617
752.13517
752.13379
752.13385
752.13559
752.13636
752.13691
752.13704
752.13691
752.13647
752.13571
752.13469
752.13329
752.13326
752.13496
752.13568
752.13622
752.13632
752.13617
752.13571
752.13492
752.13388
752.13247
752.13248
752.13412
752.13476
752.13525
752.13535
752.13517
752.13469
752.13388
752.13281
752.13137
752.13149
752.13285
752.13346
752.13389
752.13398
752.13379
752.13329
752.13247
752.13137
752.12977
752.10471
752.10674
752.1075
752.10816
752.10836
752.10832
752.10797
752.10733
752.10648
752.10532
752.10674
752.10823
752.1091
752.10967
752.10988
752.10982
752.10945
752.10875
752.10785
752.10642
752.1075
752.1091
752.10986
752.11042
752.11061
752.11052
752.11014
752.1094
752.10841
752.10694
752.10816
752.10967
752.11042
752.11095
752.11112
752.11101
752.11061
752.10985
752.10882
752.1073
752.10836
752.10988
752.11061
752.11112
752.11127
752.11114
752.11071
752.10992
752.10888
752.10735
752.10832
752.10982
752.11052
752.11101
752.11114
752.11099
752.11054
752.10973
752.10867
752.10712
752.10797
752.10945
752.11014
752.11061
752.11071
752.11054
752.11007
752.10924
752.10816
752.1066
752.10733
752.10875
752.1094
752.10985
752.10992
752.10973
752.10924
752.10839
752.10728
752.10569
752.10648
752.10785
752.10841
752.10882
752.10888
752.10867
752.10816
752.10728
752.10612
752.10454
752.10532
752.10642
752.10694
752.1073
752.10735
752.10712
752.1066
752.10569
752.10454
752.10265
752.06591
752.06779
752.06847
752.06906
752.06922
752.06913
752.06876
752.06807
752.06717
752.066
752.06779
752.0692
752.06997
752.07048
752.07064
752.07055
752.07015
752.06941
752.06845
752.06699
752.06847
752.06997
752.07063
752.07114
752.07128
752.07116
752.07075
752.06997
752.06893
752.06744
752.06906
752.07048
752.07114
752.07162
752.07174
752.0716
752.07117
752.07036
752.06929
752.06774
752.06922
752.07064
752.07128
752.07174
752.07184
752.07168
752.07123
752.0704
752.0693
752.06775
752.06913
752.07055
752.07116
752.0716
752.07168
752.0715
752.07102
752.07017
752.06906
752.06749
752.06876
752.07015
752.07075
752.07117
752.07123
752.07102
752.07053
752.06965
752.06852
752.06694
752.06807
752.06941
752.06997
752.07036
752.0704
752.07017
752.06965
752.06876
752.06759
752.06597
752.06717
752.06845
752.06893
752.06929
752.0693
752.06906
752.06852
752.06759
752.06637
752.06479
752.066
752.06699
752.06744
752.06774
752.06775
752.06749
752.06694
752.06597
752.06479
752.06286
752.01419
752.01597
752.01658
752.01712
752.01724
752.01713
752.01673
752.01603
752.0151
752.01392
752.01597
752.0173
752.018
752.01846
752.01859
752.01846
752.01805
752.01729
752.01631
752.01484
752.01658
752.018
752.01861
752.01906
752.01917
752.01902
752.01859
752.01779
752.01674
752.01525
752.01712
752.01846
752.01906
752.0195
752.01958
752.01941
752.01896
752.01814
752.01705
752.0155
752.01724
752.01859
752.01917
752.01958
752.01965
752.01946
752.01898
752.01814
752.01703
752.01548
752.01713
752.01846
752.01902
752.01941
752.01946
752.01925
752.01875
752.01788
752.01675
752.01519
752.01673
752.01805
752.01859
752.01896
752.01898
752.01875
752.01824
752.01735
752.0162
752.01462
752.01603
752.01729
752.01779
752.01814
752.01814
752.01788
752.01735
752.01644
752.01526
752.01362
752.0151
752.01631
752.01674
752.01705
752.01703
752.01675
752.0162
752.01526
752.01401
752.01244
752.01392
752.01484
752.01525
752.0155
752.01548
752.01519
752.01462
752.01362
752.01244
752.01052
751.94991
751.95161
751.95218
751.95267
751.95276
751.95262
751.9522
751.9515
751.95058
751.94942
751.95161
751.95287
751.95353
751.95395
751.95404
751.95389
751.95346
751.9527
751.95173
751.95029
751.95218
751.95353
751.95409
751.9545
751.95458
751.95441
751.95396
751.95316
751.95212
751.95065
751.95267
751.95395
751.9545
751.95489
751.95495
751.95476
751.95429
751.95347
751.95239
751.95087
751.95276
751.95404
751.95458
751.95495
751.95499
751.95477
751.95429
751.95344
751.95235
751.95082
751.95262
751.95389
751.95441
751.95476
751.95477
751.95454
751.95403
751.95317
751.95205
751.95051
751.9522
751.95346
751.95396
751.95429
751.95429
751.95403
751.95351
751.95262
751.95148
751.94994
751.9515
751.9527
751.95316
751.95347
751.95344
751.95317
751.95262
751.95171
751.95055
751.94894
751.95058
751.95173
751.95212
751.95239
751.95235
751.95205
751.95148
751.95055
751.94931
751.94776
751.94942
751.95029
751.95065
751.95087
751.95082
751.95051
751.94994
751.94894
751.94776
751.94588
751.87356
751.87517
751.8757
751.87614
751.87621
751.87605
751.87563
751.87494
751.87403
751.8729
751.87517
751.87637
751.87697
751.87735
751.87742
751.87725
751.87682
751.87607
751.87512
751.87372
751.8757
751.87697
751.8775
751.87787
751.87792
751.87773
751.87728
751.87649
751.87547
751.87405
751.87614
751.87735
751.87787
751.87822
751.87825
751.87805
751.87758
751.87677
751.87571
751.87424
751.87621
751.87742
751.87792
751.87825
751.87827
751.87804
751.87755
751.87672
751.87565
751.87417
751.87605
751.87725
751.87773
751.87805
751.87804
751.8778
751.87729
751.87644
751.87534
751.87385
751.87563
751.87682
751.87728
751.87758
751.87755
751.87729
751.87676
751.87589
751.87478
751.87328
751.87494
751.87607
751.87649
751.87677
751.87672
751.87644
751.87589
751.87499
751.87386
751.87229
751.87403
751.87512
751.87547
751.87571
751.87565
751.87534
751.87478
751.87386
751.87264
751.87114
751.8729
751.87372
751.87405
751.87424
751.87417
751.87385
751.87328
751.87229
751.87114
751.86931
751.78561
751.78712
751.78761
751.78802
751.78806
751.7879
751.78748
751.7868
751.78592
751.78484
751.78712
751.78825
751.78881
751.78916
751.7892
751.78903
751.7886
751.78787
751.78695
751.7856
751.78761
751.78881
751.7893
751.78963
751.78966
751.78947
751.78903
751.78826
751.78727
751.7859
751.78802
751.78916
751.78963
751.78995
751.78997
751.78975
751.78929
751.7885
751.78748
751.78606
751.78806
751.7892
751.78966
751.78997
751.78997
751.78973
751.78925
751.78844
751.7874
751.78598
751.7879
751.78903
751.78947
751.78975
751.78973
751.78948
751.78898
751.78815
751.78709
751.78566
751.78748
751.7886
751.78903
751.78929
751.78925
751.78898
751.78846
751.78761
751.78654
751.7851
751.7868
751.78787
751.78826
751.7885
751.78844
751.78815
751.78761
751.78674
751.78564
751.78414
751.78592
751.78695
751.78727
751.78748
751.7874
751.78709
751.78654
751.78564
751.78447
751.78303
751.78484
751.7856
751.7859
751.78606
751.78598
751.78566
751.7851
751.78414
751.78303
751.78127
751.68662
751.68803
751.68848
751.68885
751.68888
751.68871
751.6883
751.68765
751.6868
751.68577
751.68803
751.68908
751.6896
751.68991
751.68994
751.68976
751.68934
751.68864
751.68776
751.68648
751.68848
751.6896
751.69005
751.69035
751.69036
751.69017
751.68974
751.68899
751.68805
751.68675
751.68885
751.68991
751.69035
751.69064
751.69064
751.69042
751.68997
751.68921
751.68823
751.68689
751.68888
751.68994
751.69036
751.69064
751.69062
751.69039
751.68992
751.68914
751.68815
751.68679
751.68871
751.68976
751.69017
751.69042
751.69039
751.69014
751.68965
751.68885
751.68784
751.68647
751.6883
751.68934
751.68974
751.68997
751.68992
751.68965
751.68915
751.68833
751.6873
751.68593
751.68765
751.68864
751.68899
751.68921
751.68914
751.68885
751.68833
751.6875
751.68645
751.68501
751.6868
751.68776
751.68805
751.68823
751.68815
751.68784
751.6873
751.68645
751.68532
751.68395
751.68577
751.68648
751.68675
751.68689
751.68679
751.68647
751.68593
751.68501
751.68395
751.68227
751.57721
751.57851
751.57892
751.57925
751.57927
751.5791
751.57871
751.57808
751.57728
751.57631
751.57851
751.57949
751.57996
751.58024
751.58025
751.58007
751.57967
751.579
751.57817
751.57695
751.57892
751.57996
751.58036
751.58063
751.58064
751.58044
751.58003
751.57932
751.57843
751.5772
751.57925
751.58024
751.58063
751.58089
751.58088
751.58067
751.58024
751.57951
751.57859
751.57731
751.57927
751.58025
751.58064
751.58088
751.58086
751.58062
751.58018
751.57944
751.5785
751.57722
751.5791
751.58007
751.58044
751.58067
751.58062
751.58038
751.57991
751.57915
751.5782
751.57691
751.57871
751.57967
751.58003
751.58024
751.58018
751.57991
751.57943
751.57865
751.57768
751.57638
751.57808
751.579
751.57932
751.57951
751.57944
751.57915
751.57865
751.57786
751.57686
751.57551
751.57728
751.57817
751.57843
751.57859
751.5785
751.5782
751.57768
751.57686
751.5758
751.57451
751.57631
751.57695
751.5772
751.57731
751.57722
751.57691
751.57638
751.57551
751.57451
751.57292
751.45806
751.45925
751.45962
751.45991
751.45992
751.45975
751.45938
751.45879
751.45804
751.45713
751.45925
751.46014
751.46056
751.46081
751.46081
751.46064
751.46025
751.45962
751.45884
751.45771
751.45962
751.46056
751.46093
751.46117
751.46116
751.46097
751.46057
751.45991
751.45907
751.45792
751.45991
751.46081
751.46117
751.46139
751.46137
751.46116
751.46075
751.46008
751.45921
751.45802
751.45992
751.46081
751.46116
751.46137
751.46134
751.46112
751.46069
751.45999
751.45912
751.45792
751.45975
751.46064
751.46097
751.46116
751.46112
751.46088
751.46044
751.45972
751.45883
751.45762
751.45938
751.46025
751.46057
751.46075
751.46069
751.46044
751.45998
751.45925
751.45834
751.45713
751.45879
751.45962
751.45991
751.46008
751.45999
751.45972
751.45925
751.4585
751.45757
751.45631
751.45804
751.45884
751.45907
751.45921
751.45912
751.45883
751.45834
751.45757
751.45658
751.45537
751.45713
751.45771
751.45792
751.45802
751.45792
751.45762
751.45713
751.45631
751.45537
751.45389
751.32992
751.33098
751.33131
751.33157
751.33156
751.3314
751.33105
751.3305
751.32981
751.32896
751.33098
751.33178
751.33216
751.33237
751.33237
751.33219
751.33183
751.33125
751.33053
751.32948
751.33131
751.33216
751.33248
751.33269
751.33267
751.33248
751.33211
751.3315
751.33072
751.32967
751.33157
751.33237
751.33269
751.33288
751.33285
751.33265
751.33227
751.33164
751.33084
751.32974
751.33156
751.33237
751.33267
751.33285
751.33281
751.3326
751.3322
751.33155
751.33074
751.32964
751.3314
751.33219
751.33248
751.33265
751.3326
751.33237
751.33196
751.3313
751.33047
751.32936
751.33105
751.33183
751.33211
751.33227
751.3322
751.33196
751.33153
751.33085
751.33001
751.3289
751.3305
751.33125
751.3315
751.33164
751.33155
751.3313
751.33085
751.33016
751.3293
751.32814
751.32981
751.33053
751.33072
751.33084
751.33074
751.33047
751.33001
751.3293
751.32838
751.32727
751.32896
751.32948
751.32967
751.32974
751.32964
751.32936
751.3289
751.32814
751.32727
751.32591
751.19357
751.1945
751.19479
751.19501
751.19499
751.19483
751.19451
751.19401
751.19337
751.19261
751.1945
751.19521
751.19553
751.19571
751.1957
751.19553
751.1952
751.19466
751.194
751.19306
751.19479
751.19553
751.19581
751.19599
751.19596
751.19578
751.19544
751.19488
751.19417
751.19321
751.19501
751.19571
751.19599
751.19615
751.19611
751.19592
751.19557
751.19499
751.19426
751.19327
751.19499
751.1957
751.19596
751.19611
751.19607
751.19586
751.1955
751.19491
751.19417
751.19317
751.19483
751.19553
751.19578
751.19592
751.19586
751.19565
751.19527
751.19466
751.19391
751.1929
751.19451
751.1952
751.19544
751.19557
751.1955
751.19527
751.19487
751.19426
751.19349
751.19248
751.19401
751.19466
751.19488
751.19499
751.19491
751.19466
751.19426
751.19362
751.19284
751.19178
751.19337
751.194
751.19417
751.19426
751.19417
751.19391
751.19349
751.19284
751.192
751.19099
751.19261
751.19306
751.19321
751.19327
751.19317
751.1929
751.19248
751.19178
751.19099
751.18975
751.04986
751.05066
751.0509
751.05108
751.05105
751.0509
751.0506
751.05015
751.04958
751.0489
751.05066
751.05127
751.05153
751.05168
751.05166
751.0515
751.0512
751.05071
751.05012
751.04927
751.0509
751.05153
751.05177
751.05191
751.05188
751.05171
751.0514
751.05089
751.05026
751.0494
751.05108
751.05168
751.05191
751.05204
751.052
751.05182
751.0515
751.05098
751.05033
751.04944
751.05105
751.05166
751.05188
751.052
751.05195
751.05176
751.05142
751.05089
751.05023
751.04934
751.0509
751.0515
751.05171
751.05182
751.05176
751.05156
751.05121
751.05067
751.04999
751.04909
751.0506
751.0512
751.0514
751.0515
751.05142
751.05121
751.05086
751.0503
751.04961
751.04871
751.05015
751.05071
751.05089
751.05098
751.05089
751.05067
751.0503
751.04973
751.04903
751.04808
751.04958
751.05012
751.05026
751.05033
751.05023
751.04999
751.04961
751.04903
751.04828
751.04738
751.0489
751.04927
751.0494
751.04944
751.04934
751.04909
751.04871
751.04808
751.04738
751.04627
750.89967
750.90033
750.90053
750.90066
750.90063
750.90049
750.90022
750.89982
750.89932
750.89872
750.90033
750.90084
750.90105
750.90116
750.90113
750.90098
750.90071
750.90029
750.89977
750.89902
750.90053
750.90105
750.90124
750.90135
750.90131
750.90115
750.90087
750.90042
750.89987
750.89912
750.90066
750.90116
750.90135
750.90144
750.9014
750.90123
750.90095
750.90049
750.89991
750.89914
750.90063
750.90113
750.90131
750.9014
750.90134
750.90117
750.90087
750.9004
750.89982
750.89904
750.90049
750.90098
750.90115
750.90123
750.90117
750.90098
750.90068
750.9002
750.89961
750.89882
750.90022
750.90071
750.90087
750.90095
750.90087
750.90068
750.90036
750.89987
750.89927
750.89848
750.89982
750.90029
750.90042
750.90049
750.9004
750.9002
750.89987
750.89937
750.89875
750.89793
750.89932
750.89977
750.89987
750.89991
750.89982
750.89961
750.89927
750.89875
750.89809
750.89731
750.89872
750.89902
750.89912
750.89914
750.89904
750.89882
750.89848
750.89793
750.89731
750.89634
750.74394
750.74445
750.7446
750.74469
750.74466
750.74452
750.74429
750.74395
750.74352
750.743
750.74445
750.74485
750.74501
750.74509
750.74505
750.74491
750.74468
750.74431
750.74386
750.74323
750.7446
750.74501
750.74515
750.74523
750.74518
750.74504
750.74479
750.74441
750.74394
750.7433
750.74469
750.74509
750.74523
750.74529
750.74524
750.74509
750.74484
750.74444
750.74395
750.7433
750.74466
750.74505
750.74518
750.74524
750.74518
750.74502
750.74476
750.74436
750.74386
750.7432
750.74452
750.74491
750.74504
750.74509
750.74502
750.74486
750.74459
750.74418
750.74367
750.743
750.74429
750.74468
750.74479
750.74484
750.74476
750.74459
750.74431
750.74389
750.74338
750.74271
750.74395
750.74431
750.74441
750.74444
750.74436
750.74418
750.74389
750.74346
750.74294
750.74223
750.74352
750.74386
750.74394
750.74395
750.74386
750.74367
750.74338
750.74294
750.74237
750.74171
750.743
750.74323
750.7433
750.7433
750.7432
750.743
750.74271
750.74223
750.74171
750.74088
750.58361
750.58398
750.58409
750.58414
750.58409
750.58397
750.58377
750.58348
750.58313
750.5827
750.58398
750.58428
750.58438
750.58442
750.58437
750.58425
750.58405
750.58374
750.58337
750.58286
750.58409
750.58438
750.58447
750.58451
750.58446
750.58433
750.58412
750.5838
750.58341
750.58289
750.58414
750.58442
750.58451
750.58454
750.58448
750.58435
750.58414
750.58381
750.58341
750.58287
750.58409
750.58437
750.58446
750.58448
750.58442
750.58428
750.58406
750.58373
750.58332
750.58278
750.58397
750.58425
750.58433
750.58435
750.58428
750.58413
750.58391
750.58357
750.58315
750.58261
750.58377
750.58405
750.58412
750.58414
750.58406
750.58391
750.58368
750.58333
750.58291
750.58236
750.58348
750.58374
750.5838
750.58381
750.58373
750.58357
750.58333
750.58297
750.58254
750.58197
750.58313
750.58337
750.58341
750.58341
750.58332
750.58315
750.58291
750.58254
750.58208
750.58154
750.5827
750.58286
750.58289
750.58287
750.58278
750.58261
750.58236
750.58197
750.58154
750.58086
750.41969
750.41991
750.41997
750.41997
750.41992
750.41981
750.41965
750.41942
750.41914
750.41881
750.41991
750.42009
750.42014
750.42015
750.42009
750.41998
750.41982
750.41957
750.41929
750.41889
750.41997
750.42014
750.42019
750.42019
750.42013
750.42002
750.41985
750.41959
750.41929
750.41889
750.41997
750.42015
750.42019
750.42019
750.42013
750.42001
750.41984
750.41958
750.41927
750.41885
750.41992
750.42009
750.42013
750.42013
750.42006
750.41994
750.41976
750.4195
750.41918
750.41877
750.41981
750.41998
750.42002
750.42001
750.41994
750.41981
750.41963
750.41936
750.41904
750.41862
750.41965
750.41982
750.41985
750.41984
750.41976
750.41963
750.41944
750.41917
750.41884
750.41842
750.41942
750.41957
750.41959
750.41958
750.4195
750.41936
750.41917
750.41889
750.41856
750.41811
750.41914
750.41929
750.41929
750.41927
750.41918
750.41904
750.41884
750.41856
750.41819
750.41778
750.41881
750.41889
750.41889
750.41885
750.41877
750.41862
750.41842
750.41811
750.41778
750.41725
750.25318
750.25325
750.25326
750.25322
750.25316
750.25307
750.25294
750.25277
750.25257
750.25234
750.25325
750.25332
750.25331
750.25328
750.25322
750.25313
750.253
750.25282
750.25262
750.25234
750.25326
750.25331
750.25331
750.25328
750.25321
750.25312
750.25299
750.2528
750.25259
750.25231
750.25322
750.25328
750.25328
750.25324
750.25318
750.25308
750.25295
750.25276
750.25254
750.25225
750.25316
750.25322
750.25321
750.25318
750.25311
750.25301
750.25287
750.25268
750.25246
750.25217
750.25307
750.25313
750.25312
750.25308
750.25301
750.2529
750.25277
750.25257
750.25235
750.25205
750.25294
750.253
750.25299
750.25295
750.25287
750.25277
750.25262
750.25242
750.2522
750.25191
750.25277
750.25282
750.2528
750.25276
750.25268
750.25257
750.25242
750.25222
750.25199
750.25168
750.25257
750.25262
750.25259
750.25254
750.25246
750.25235
750.2522
750.25199
750.25173
750.25145
750.25234
750.25234
750.25231
750.25225
750.25217
750.25205
750.25191
750.25168
750.25145
750.25108
750.0851
750.08503
750.08498
750.08491
750.08484
750.08476
750.08467
750.08457
750.08445
750.08431
750.08503
750.08499
750.08492
750.08486
750.08479
750.08471
750.08462
750.08451
750.08439
750.08423
750.08498
750.08492
750.08487
750.0848
750.08474
750.08465
750.08456
750.08445
750.08433
750.08417
750.08491
750.08486
750.0848
750.08474
750.08467
750.08459
750.0845
750.08438
750.08426
750.0841
750.08484
750.08479
750.08474
750.08467
750.0846
750.08452
750.08443
750.08431
750.08418
750.08402
750.08476
750.08471
750.08465
750.08459
750.08452
750.08443
750.08434
750.08422
750.08409
750.08393
750.08467
750.08462
750.08456
750.0845
750.08443
750.08434
750.08425
750.08413
750.084
750.08384
750.08457
750.08451
750.08445
750.08438
750.08431
750.08422
750.08413
750.084
750.08387
750.0837
750.08445
750.08439
750.08433
750.08426
750.08418
750.08409
750.084
750.08387
750.08372
750.08357
750.08431
750.08423
750.08417
750.0841
750.08402
750.08393
750.08384
750.0837
750.08357
750.08336
749.91651
749.91628
749.91619
749.91607
749.916
749.91593
749.91588
749.91584
749.9158
749.91576
749.91628
749.91613
749.916
749.91591
749.91583
749.91577
749.91572
749.91567
749.91564
749.91561
749.91619
749.916
749.91591
749.9158
749.91573
749.91567
749.91562
749.91558
749.91555
749.91551
749.91607
749.91591
749.9158
749.91571
749.91564
749.91557
749.91553
749.91548
749.91545
749.91543
749.916
749.91583
749.91573
749.91564
749.91557
749.91551
749.91546
749.91542
749.91539
749.91536
749.91593
749.91577
749.91567
749.91557
749.91551
749.91544
749.9154
749.91536
749.91533
749.9153
749.91588
749.91572
749.91562
749.91553
749.91546
749.9154
749.91535
749.91531
749.91528
749.91525
749.91584
749.91567
749.91558
749.91548
749.91542
749.91536
749.91531
749.91527
749.91524
749.9152
749.9158
749.91564
749.91555
749.91545
749.91539
749.91533
749.91528
749.91524
749.91519
749.91518
749.91576
749.91561
749.91551
749.91543
749.91536
749.9153
749.91525
749.9152
749.91518
749.91513
749.74842
749.74805
749.74791
749.74775
749.74768
749.74762
749.74761
749.74763
749.74767
749.74773
749.74805
749.74779
749.74761
749.74747
749.7474
749.74735
749.74734
749.74736
749.74741
749.7475
749.74791
749.74761
749.74746
749.74733
749.74725
749.74721
749.7472
749.74723
749.74729
749.74738
749.74775
749.74747
749.74733
749.7472
749.74712
749.74708
749.74708
749.74711
749.74717
749.74727
749.74768
749.7474
749.74725
749.74712
749.74706
749.74702
749.74701
749.74705
749.74711
749.74721
749.74762
749.74735
749.74721
749.74708
749.74702
749.74698
749.74698
749.74701
749.74708
749.74718
749.74761
749.74734
749.7472
749.74708
749.74701
749.74698
749.74698
749.74702
749.74708
749.74719
749.74763
749.74736
749.74723
749.74711
749.74705
749.74701
749.74702
749.74705
749.74712
749.74723
749.74767
749.74741
749.74729
749.74717
749.74711
749.74708
749.74708
749.74712
749.74719
749.7473
749.74773
749.7475
749.74738
749.74727
749.74721
749.74718
749.74719
749.74723
749.7473
749.74741
749.58189
749.58137
749.58118
749.58098
749.58091
749.58087
749.5809
749.58098
749.5811
749.58126
749.58137
749.581
749.58076
749.5806
749.58052
749.58048
749.58051
749.5806
749.58074
749.58095
749.58118
749.58076
749.58057
749.5804
749.58033
749.5803
749.58033
749.58043
749.58058
749.5808
749.58098
749.5806
749.5804
749.58024
749.58017
749.58015
749.58019
749.58029
749.58045
749.58068
749.58091
749.58052
749.58033
749.58017
749.5801
749.58008
749.58013
749.58023
749.58039
749.58063
749.58087
749.58048
749.5803
749.58015
749.58008
749.58007
749.58012
749.58023
749.58039
749.58063
749.5809
749.58051
749.58033
749.58019
749.58013
749.58012
749.58017
749.58028
749.58045
749.58069
749.58098
749.5806
749.58043
749.58029
749.58023
749.58023
749.58028
749.5804
749.58057
749.58081
749.5811
749.58074
749.58058
749.58045
749.58039
749.58039
749.58045
749.58057
749.58075
749.58099
749.58126
749.58095
749.5808
749.58068
749.58063
749.58063
749.58069
749.58081
749.58099
749.58126
749.41793
749.41727
749.41703
749.4168
749.41672
749.4167
749.41676
749.41691
749.41711
749.41737
749.41727
749.41679
749.4165
749.41631
749.41622
749.41621
749.41628
749.41643
749.41665
749.41699
749.41703
749.4165
749.41627
749.41607
749.41599
749.41598
749.41606
749.41623
749.41647
749.41681
749.4168
749.41631
749.41607
749.41588
749.41581
749.4158
749.41588
749.41606
749.41631
749.41667
749.41672
749.41622
749.41599
749.41581
749.41574
749.41574
749.41583
749.41601
749.41627
749.41663
749.4167
749.41621
749.41598
749.4158
749.41574
749.41575
749.41584
749.41603
749.41629
749.41666
749.41676
749.41628
749.41606
749.41588
749.41583
749.41584
749.41594
749.41614
749.4164
749.41677
749.41691
749.41643
749.41623
749.41606
749.41601
749.41603
749.41614
749.41633
749.41661
749.41698
749.41711
749.41665
749.41647
749.41631
749.41627
749.41629
749.4164
749.41661
749.41689
749.41726
749.41737
749.41699
749.41681
749.41667
749.41663
749.41666
749.41677
749.41698
749.41726
749.41769
749.25756
749.25676
749.25648
749.25621
749.25613
749.25612
749.25623
749.25643
749.25671
749.25707
749.25676
749.25618
749.25584
749.25561
749.25553
749.25553
749.25564
749.25586
749.25616
749.25662
749.25648
749.25584
749.25556
749.25533
749.25525
749.25526
749.25538
749.25562
749.25595
749.25641
749.25621
749.25561
749.25533
749.25512
749.25504
749.25506
749.25518
749.25543
749.25577
749.25626
749.25613
749.25553
749.25525
749.25504
749.25498
749.255
749.25514
749.25539
749.25574
749.25622
749.25612
749.25553
749.25526
749.25506
749.255
749.25503
749.25517
749.25544
749.25579
749.25628
749.25623
749.25564
749.25538
749.25518
749.25514
749.25517
749.25532
749.25559
749.25595
749.25645
749.25643
749.25586
749.25562
749.25543
749.25539
749.25544
749.25559
749.25587
749.25624
749.25675
749.25671
749.25616
749.25595
749.25577
749.25574
749.25579
749.25595
749.25624
749.25662
749.25713
749.25707
749.25662
749.25641
749.25626
749.25622
749.25628
749.25645
749.25675
749.25713
749.25771
749.10176
749.10083
749.10051
749.10021
749.10012
749.10013
749.10028
749.10054
749.1009
749.10135
749.10083
749.10015
749.09977
749.09951
749.09942
749.09944
749.09959
749.09988
749.10026
749.10083
749.10051
749.09977
749.09944
749.09919
749.09911
749.09913
749.09929
749.0996
749.10002
749.1006
749.10021
749.09951
749.09919
749.09894
749.09887
749.09891
749.09908
749.09939
749.09983
749.10043
749.10012
749.09942
749.09911
749.09887
749.09881
749.09885
749.09903
749.09936
749.0998
749.10041
749.10013
749.09944
749.09913
749.09891
749.09885
749.09891
749.0991
749.09943
749.09988
749.1005
749.10028
749.09959
749.09929
749.09908
749.09903
749.0991
749.09929
749.09964
749.10009
749.10071
749.10054
749.09988
749.0996
749.09939
749.09936
749.09943
749.09964
749.09999
749.10046
749.10109
749.1009
749.10026
749.10002
749.09983
749.0998
749.09988
749.10009
749.10046
749.10095
749.10158
749.10135
749.10083
749.1006
749.10043
749.10041
749.1005
749.10071
749.10109
749.10158
749.10231
748.95151
748.95044
748.95009
748.94975
748.94966
748.94969
748.94987
748.9502
748.95063
748.95117
748.95044
748.94967
748.94924
748.94896
748.94886
748.9489
748.94909
748.94944
748.9499
748.95059
748.95009
748.94924
748.94888
748.9486
748.94851
748.94856
748.94876
748.94913
748.94963
748.95033
748.94975
748.94896
748.9486
748.94833
748.94825
748.94831
748.94852
748.94891
748.94943
748.95016
748.94966
748.94886
748.94851
748.94825
748.94819
748.94826
748.94848
748.94888
748.94941
748.95014
748.94969
748.9489
748.94856
748.94831
748.94826
748.94834
748.94857
748.94898
748.94952
748.95026
748.94987
748.94909
748.94876
748.94852
748.94848
748.94857
748.94881
748.94923
748.94978
748.95052
748.9502
748.94944
748.94913
748.94891
748.94888
748.94898
748.94923
748.94966
748.95022
748.95099
748.95063
748.9499
748.94963
748.94943
748.94941
748.94952
748.94978
748.95022
748.95081
748.95157
748.95117
748.95059
748.95033
748.95016
748.95014
748.95026
748.95052
748.95099
748.95157
748.95245
748.80771
748.80653
748.80613
748.80576
748.80568
748.80572
748.80594
748.80632
748.80683
748.80746
748.80653
748.80567
748.80519
748.80488
748.80479
748.80484
748.80507
748.80548
748.80602
748.80681
748.80613
748.80519
748.80479
748.80449
748.8044
748.80447
748.80471
748.80515
748.80573
748.80654
748.80576
748.80488
748.80449
748.80419
748.80412
748.8042
748.80445
748.8049
748.80551
748.80635
748.80568
748.80479
748.8044
748.80412
748.80407
748.80416
748.80442
748.80488
748.8055
748.80634
748.80572
748.80484
748.80447
748.8042
748.80416
748.80426
748.80453
748.80501
748.80564
748.80649
748.80594
748.80507
748.80471
748.80445
748.80442
748.80453
748.80482
748.80531
748.80595
748.80681
748.80632
748.80548
748.80515
748.8049
748.80488
748.80501
748.80531
748.80581
748.80646
748.80735
748.80683
748.80602
748.80573
748.80551
748.8055
748.80564
748.80595
748.80646
748.80715
748.80802
748.80746
748.80681
748.80654
748.80635
748.80634
748.80649
748.80681
748.80735
748.80802
748.80905
748.67126
748.66996
748.66953
748.66914
748.66905
748.66912
748.66937
748.66981
748.67038
748.6711
748.66996
748.66902
748.6685
748.66817
748.66808
748.66815
748.66841
748.66889
748.6695
748.6704
748.66953
748.6685
748.66807
748.66774
748.66766
748.66775
748.66802
748.66852
748.66919
748.6701
748.66914
748.66817
748.66774
748.66743
748.66736
748.66746
748.66775
748.66827
748.66895
748.66991
748.66905
748.66808
748.66766
748.66736
748.66731
748.66742
748.66773
748.66826
748.66895
748.66991
748.66912
748.66815
748.66775
748.66746
748.66742
748.66755
748.66787
748.66841
748.66912
748.67009
748.66937
748.66841
748.66802
748.66775
748.66773
748.66787
748.6682
748.66876
748.66948
748.67045
748.66981
748.66889
748.66852
748.66827
748.66826
748.66841
748.66876
748.66933
748.67007
748.67107
748.67038
748.6695
748.66919
748.66895
748.66895
748.66912
748.66948
748.67007
748.67085
748.67183
748.6711
748.6704
748.6701
748.66991
748.66991
748.67009
748.67045
748.67107
748.67183
748.67299
748.543
748.54159
748.54113
748.54072
748.54063
748.54071
748.541
748.54149
748.54214
748.54293
748.54159
748.54057
748.54002
748.53967
748.53958
748.53967
748.53997
748.5405
748.54118
748.54218
748.54113
748.54002
748.53955
748.53921
748.53913
748.53924
748.53955
748.54011
748.54085
748.54187
748.54072
748.53967
748.53921
748.53888
748.53882
748.53894
748.53926
748.53984
748.54061
748.54166
748.54063