/*--------------------------------*- C++ -*----------------------------------*\
| =========                 |                                                 |
| \\      /  F ield         | OpenFOAM: The Open Source CFD Toolbox           |
|  \\    /   O peration     | Version:  v2106                                 |
|   \\  /    A nd           | Website:  www.openfoam.com                      |
|    \\/     M anipulation  |                                                 |
\*---------------------------------------------------------------------------*/
FoamFile
{
    version     2.0;
    format      ascii;
    arch        "LSB;label=32;scalar=64";
    class       volVectorField;
    location    "40";
    object      gradT;
}
// * * * * * * * * * * * * * * * * * * * * * * * * * * * * * * * * * * * * * //

dimensions      [0 -1 0 1 0 0 0];

internalField   nonuniform List<vector> 
4000
(
(0.00081493591 0.00081493593 752.14206)
(0.00097902261 0.00049885045 752.145)
(0.00044747928 0.00066342025 752.14575)
(0.00031775568 0.00057138021 752.14674)
(5.0163391e-05 0.00059340954 752.14692)
(-5.578939e-05 0.0005856119 752.14697)
(-0.00020373502 0.00058097267 752.14667)
(-0.00030236454 0.000572431 752.14613)
(-0.00031977452 0.0005514377 752.14542)
(-0.00014955531 0.00049953196 752.14471)
(0.00049885045 0.00097902261 752.145)
(0.00082750693 0.00082750694 752.14696)
(0.00052000904 0.0008705405 752.14814)
(0.00024774497 0.00079488386 752.14887)
(6.439508e-05 0.00081063444 752.14911)
(-6.8226268e-05 0.00079653368 752.14913)
(-0.00021691591 0.00078588082 752.14882)
(-0.00033189951 0.00076750783 752.14824)
(-0.00039267356 0.00072833003 752.14745)
(-0.00020146104 0.00067687715 752.14648)
(0.00066342025 0.00044747929 752.14575)
(0.0008705405 0.00052000904 752.14814)
(0.0004148562 0.0004148562 752.14899)
(0.00025784961 0.00042763916 752.14975)
(5.1813203e-05 0.00041405729 752.14997)
(-8.0543003e-05 0.00040185407 752.14996)
(-0.00023276086 0.00039028272 752.14962)
(-0.00035991533 0.00037503558 752.149)
(-0.0004104052 0.00034406617 752.14814)
(-0.00020100819 0.00031756707 752.14717)
(0.0005713802 0.00031775567 752.14674)
(0.00079488386 0.00024774497 752.14887)
(0.00042763916 0.00025784962 752.14975)
(0.00024694606 0.00024694607 752.1505)
(3.8609987e-05 0.00023359909 752.15069)
(-9.2000834e-05 0.00022213994 752.15066)
(-0.0002437344 0.00021022393 752.1503)
(-0.00037811607 0.00019957113 752.14966)
(-0.00045014209 0.00018688103 752.14875)
(-0.00022796014 0.00016504059 752.14768)
(0.00059340956 5.0163391e-05 752.14692)
(0.00081063444 6.4395073e-05 752.14911)
(0.0004140573 5.181322e-05 752.14997)
(0.00023359907 3.8609983e-05 752.15069)
(2.7007081e-05 2.7007077e-05 752.15085)
(-0.00010391817 1.6631883e-05 752.1508)
(-0.00025532967 4.9212301e-06 752.15042)
(-0.00038325822 -7.1847389e-06 752.14975)
(-0.00044493575 -1.4346437e-05 752.14884)
(-0.00022284862 -1.4144776e-05 752.14778)
(0.00058561189 -5.5789384e-05 752.14697)
(0.00079653368 -6.8226261e-05 752.14913)
(0.00040185407 -8.054302e-05 752.14996)
(0.00022213993 -9.2000851e-05 752.15066)
(1.6631883e-05 -0.00010391818 752.1508)
(-0.00011408667 -0.00011408668 752.15072)
(-0.00026755104 -0.00012357055 752.15032)
(-0.00039738374 -0.00013474618 752.14963)
(-0.00045710211 -0.00014603517 752.14869)
(-0.00022775849 -0.00015372412 752.14762)
(0.00058097268 -0.00020373504 752.14667)
(0.00078588082 -0.00021691591 752.14882)
(0.00039028271 -0.00023276087 752.14962)
(0.00021022391 -0.0002437344 752.1503)
(4.9212474e-06 -0.00025532967 752.15042)
(-0.00012357054 -0.00026755104 752.15032)
(-0.00027598916 -0.00027598916 752.1499)
(-0.00040572285 -0.00028498 752.14919)
(-0.00046391369 -0.00029364766 752.14824)
(-0.00023053757 -0.00029986823 752.14715)
(0.00057243101 -0.00030236453 752.14613)
(0.00076750784 -0.00033189953 752.14824)
(0.00037503558 -0.00035991535 752.149)
(0.00019957114 -0.00037811606 752.14966)
(-7.1847354e-06 -0.0003832582 752.14975)
(-0.00013474618 -0.00039738374 752.14963)
(-0.00028498001 -0.00040572285 752.14919)
(-0.00041504223 -0.00041504224 752.14847)
(-0.00047199034 -0.00042552272 752.14749)
(-0.00023397906 -0.0004345772 752.14639)
(0.00055143767 -0.00031977451 752.14542)
(0.00072833 -0.00039267356 752.14745)
(0.00034406618 -0.0004104052 752.14814)
(0.00018688106 -0.00045014209 752.14875)
(-1.4346444e-05 -0.00044493575 752.14884)
(-0.00014603519 -0.00045710212 752.14869)
(-0.00029364765 -0.00046391368 752.14824)
(-0.00042552271 -0.00047199033 752.14749)
(-0.00048344864 -0.00048344864 752.14649)
(-0.00023959205 -0.00049611811 752.14536)
(0.00049953194 -0.00014955531 752.14471)
(0.00067687714 -0.00020146104 752.14648)
(0.00031756706 -0.00020100817 752.14717)
(0.00016504059 -0.00022796016 752.14768)
(-1.4144772e-05 -0.00022284864 752.14778)
(-0.00015372411 -0.00022775848 752.14762)
(-0.00029986822 -0.00023053756 752.14715)
(-0.0004345772 -0.00023397905 752.14639)
(-0.00049611812 -0.00023959204 752.14536)
(-0.00024664853 -0.00024664853 752.14419)
(0.0021232548 0.0021232548 752.12996)
(0.0027169991 0.001469635 752.13233)
(0.0012980254 0.0017249635 752.13317)
(0.00085369064 0.0015628101 752.13394)
(0.00017496346 0.001596193 752.13417)
(-0.0001955214 0.001578034 752.13416)
(-0.00063080938 0.0015643432 752.13385)
(-0.0009510391 0.0015368637 752.13326)
(-0.0010980809 0.0014812717 752.13248)
(-0.00055677581 0.0012700014 752.13149)
(0.001469635 0.0027169991 752.13233)
(0.0023187077 0.0023187077 752.13406)
(0.0013912005 0.0023625287 752.13505)
(0.0007249202 0.0022153069 752.1357)
(0.00019018736 0.0022317386 752.13594)
(-0.00022737121 0.0021960076 752.13592)
(-0.00067197965 0.0021645152 752.13559)
(-0.0010341106 0.0021048556 752.13496)
(-0.0013649432 0.0019936987 752.13412)
(-0.00076804612 0.0017755305 752.13285)
(0.0017249635 0.0012980254 752.13317)
(0.0023625287 0.0013912005 752.13505)
(0.0011946246 0.0011946246 752.13589)
(0.0007229005 0.0011959983 752.13654)
(0.00015566422 0.0011592376 752.13676)
(-0.00026274475 0.0011240786 752.13671)
(-0.00072196136 0.0010897615 752.13636)
(-0.0011218556 0.0010418182 752.13568)
(-0.001427406 0.00095094878 752.13476)
(-0.00077494399 0.00087957987 752.13346)
(0.0015628101 0.00085369064 752.13394)
(0.0022153068 0.00072492018 752.1357)
(0.0011959983 0.0007229005 752.13654)
(0.00068953323 0.00068953323 752.13716)
(0.00011826766 0.0006523113 752.13736)
(-0.00029684727 0.00061798188 752.13729)
(-0.00075424003 0.00058229069 752.13691)
(-0.0011729233 0.00055017409 752.13622)
(-0.0015271816 0.00051049137 752.13525)
(-0.00083941503 0.00045143896 752.13389)
(0.001596193 0.00017496345 752.13417)
(0.0022317386 0.00019018736 752.13594)
(0.0011592376 0.00015566422 752.13676)
(0.00065231129 0.00011826765 752.13736)
(8.4112873e-05 8.4112883e-05 752.13753)
(-0.00033276535 5.2809056e-05 752.13744)
(-0.00078976915 1.7618604e-05 752.13704)
(-0.0011936549 -1.81858e-05 752.13632)
(-0.0015261411 -4.179258e-05 752.13535)
(-0.00083399639 -4.901262e-05 752.13398)
(0.001578034 -0.0001955214 752.13416)
(0.0021960076 -0.0002273712 752.13592)
(0.0011240786 -0.00026274475 752.13671)
(0.00061798189 -0.00029684727 752.13729)
(5.2809059e-05 -0.00033276536 752.13744)
(-0.00036334154 -0.00036334154 752.13733)
(-0.00082523488 -0.00039241882 752.13691)
(-0.0012323345 -0.00042543491 752.13617)
(-0.0015580084 -0.00045738126 752.13517)
(-0.00084663508 -0.00047862964 752.13379)
(0.0015643432 -0.00063080936 752.13385)
(0.0021645152 -0.00067197965 752.13559)
(0.0010897615 -0.00072196135 752.13636)
(0.00058229068 -0.00075424002 752.13691)
(1.7618601e-05 -0.00078976915 752.13704)
(-0.00039241882 -0.00082523489 752.13691)
(-0.00085186251 -0.00085186252 752.13647)
(-0.0012586174 -0.00087990825 752.13571)
(-0.0015793359 -0.00090754827 752.13469)
(-0.00085524476 -0.00092812787 752.13329)
(0.0015368637 -0.00095103912 752.13326)
(0.0021048556 -0.0010341106 752.13496)
(0.0010418182 -0.0011218556 752.13568)
(0.00055017408 -0.0011729233 752.13622)
(-1.8185807e-05 -0.0011936549 752.13632)
(-0.00042543491 -0.0012323345 752.13617)
(-0.00087990824 -0.0012586174 752.13571)
(-0.0012880203 -0.0012880203 752.13492)
(-0.001606228 -0.0013228622 752.13388)
(-0.00086721468 -0.0013549624 752.13247)
(0.0014812717 -0.0010980809 752.13248)
(0.0019936987 -0.0013649432 752.13412)
(0.0009509488 -0.001427406 752.13476)
(0.00051049135 -0.0015271816 752.13525)
(-4.1792576e-05 -0.0015261411 752.13535)
(-0.00045738125 -0.0015580084 752.13517)
(-0.00090754826 -0.0015793359 752.13469)
(-0.0013228622 -0.001606228 752.13388)
(-0.001646278 -0.001646278 752.13281)
(-0.00088734496 -0.0017034553 752.13137)
(0.0012700014 -0.00055677582 752.13149)
(0.0017755306 -0.00076804613 752.13285)
(0.00087957987 -0.00077494399 752.13346)
(0.00045143897 -0.00083941504 752.13389)
(-4.9012617e-05 -0.00083399638 752.13398)
(-0.00047862964 -0.00084663508 752.13379)
(-0.00092812788 -0.00085524477 752.13329)
(-0.0013549624 -0.00086721469 752.13247)
(-0.0017034553 -0.00088734496 752.13137)
(-0.00092439206 -0.00092439207 752.12977)
(0.0031826716 0.0031826716 752.10471)
(0.0041892511 0.0022290699 752.10674)
(0.0020542696 0.0025413578 752.1075)
(0.0013114972 0.002335745 752.10816)
(0.00027629916 0.0023710729 752.10836)
(-0.00037440009 0.0023449032 752.10832)
(-0.0011023727 0.0023217838 752.10797)
(-0.0016725501 0.0022682678 752.10733)
(-0.0020925052 0.0021989443 752.10648)
(-0.0011354358 0.0018601176 752.10532)
(0.0022290699 0.0041892511 752.10674)
(0.0035479373 0.0035479374 752.10823)
(0.0021609447 0.0035924216 752.1091)
(0.0011412123 0.0033940201 752.10967)
(0.00028545733 0.0034023932 752.10988)
(-0.00042368915 0.0033484654 752.10982)
(-0.0011790081 0.0032977084 752.10945)
(-0.0017953896 0.0031858712 752.10875)
(-0.0025006555 0.0030114603 752.10785)
(-0.0014742625 0.0026458126 752.10642)
(0.0025413578 0.0020542696 752.1075)
(0.0035924216 0.0021609447 752.1091)
(0.0019003524 0.0019003524 752.10986)
(0.0011214688 0.0018836604 752.11042)
(0.00023074442 0.0018253941 752.11061)
(-0.00047908482 0.0017682041 752.11052)
(-0.0012649669 0.0017135304 752.11014)
(-0.0019587983 0.0016313323 752.1094)
(-0.0026325639 0.0014727626 752.10841)
(-0.0015010835 0.0013539399 752.10694)
(0.002335745 0.0013114972 752.10816)
(0.0033940201 0.0011412123 752.10967)
(0.0018836604 0.0011214688 752.11042)
(0.001066254 0.001066254 752.11095)
(0.00017000099 0.0010069157 752.11112)
(-0.00053555287 0.00094967039 752.11101)
(-0.0013158799 0.00089026909 752.11061)
(-0.0020361575 0.00083785762 752.10985)
(-0.0027780479 0.00077255496 752.10882)
(-0.0015930851 0.00068240831 752.1073)
(0.0023710729 0.00027629916 752.10836)
(0.0034023932 0.0002854573 752.10988)
(0.0018253941 0.00023074443 752.11061)
(0.0010069157 0.00017000099 752.11112)
(0.00011416077 0.0001141608 752.11127)
(-0.00059573139 6.2226564e-05 752.11114)
(-0.0013767797 3.3325287e-06 752.11071)
(-0.0020765124 -5.6582201e-05 752.10992)
(-0.0027880132 -9.8623047e-05 752.10888)
(-0.0015912302 -0.00011645383 752.10735)
(0.0023449032 -0.00037440009 752.10832)
(0.0033484654 -0.00042368917 752.10982)
(0.0017682041 -0.00047908483 752.11052)
(0.0009496704 -0.00053555289 752.11101)
(6.2226575e-05 -0.00059573138 752.11114)
(-0.00064638115 -0.00064638114 752.11099)
(-0.0014346886 -0.00069542871 752.11054)
(-0.002138113 -0.00075018571 752.10973)
(-0.0028379195 -0.00080242531 752.10867)
(-0.0016109159 -0.0008370275 752.10712)
(0.0023217838 -0.0011023727 752.10797)
(0.0032977084 -0.0011790081 752.10945)
(0.0017135304 -0.0012649669 752.11014)
(0.00089026912 -0.0013158799 752.11061)
(3.3325148e-06 -0.0013767797 752.11071)
(-0.00069542873 -0.0014346887 752.11054)
(-0.0014805842 -0.0014805843 752.11007)
(-0.002183509 -0.0015291433 752.10924)
(-0.002874855 -0.0015785885 752.10816)
(-0.0016258324 -0.0016182281 752.1066)
(0.0022682678 -0.0016725501 752.10733)
(0.0031858712 -0.0017953896 752.10875)
(0.0016313323 -0.0019587983 752.1094)
(0.00083785763 -0.0020361575 752.10985)
(-5.6582218e-05 -0.0020765124 752.10992)
(-0.00075018572 -0.002138113 752.10973)
(-0.0015291433 -0.002183509 752.10924)
(-0.0022361173 -0.0022361173 752.10839)
(-0.0029270043 -0.0023021272 752.10728)
(-0.0016505555 -0.002359344 752.10569)
(0.0021989443 -0.0020925053 752.10648)
(0.0030114603 -0.0025006555 752.10785)
(0.0014727626 -0.0026325639 752.10841)
(0.00077255497 -0.0027780479 752.10882)
(-9.8623047e-05 -0.0027880132 752.10888)
(-0.00080242533 -0.0028379195 752.10867)
(-0.0015785885 -0.002874855 752.10816)
(-0.0023021272 -0.0029270043 752.10728)
(-0.0029980817 -0.0029980817 752.10612)
(-0.0016830492 -0.0031915553 752.10454)
(0.0018601176 -0.0011354358 752.10532)
(0.0026458125 -0.0014742625 752.10642)
(0.0013539399 -0.0015010835 752.10694)
(0.00068240831 -0.0015930851 752.1073)
(-0.0001164538 -0.0015912302 752.10735)
(-0.0008370275 -0.0016109159 752.10712)
(-0.0016182281 -0.0016258324 752.1066)
(-0.002359344 -0.0016505555 752.10569)
(-0.0031915553 -0.0016830492 752.10454)
(-0.001844029 -0.001844029 752.10265)
(0.004156019 0.0041560191 752.06591)
(0.005515712 0.0029567495 752.06779)
(0.0027186857 0.0033166992 752.06847)
(0.0017133382 0.0030715548 752.06906)
(0.00033407632 0.0031083442 752.06922)
(-0.00059044388 0.0030751245 752.06913)
(-0.0016182488 0.003044258 752.06876)
(-0.0024445566 0.0029570651 752.06807)
(-0.0031119769 0.0028588328 752.06717)
(-0.0017154944 0.0023719334 752.066)
(0.0029567495 0.005515712 752.06779)
(0.0046763922 0.0046763922 752.0692)
(0.002833491 0.0047180155 752.06997)
(0.0015049833 0.0044726989 752.07048)
(0.000337646 0.0044729681 752.07064)
(-0.00065453009 0.0044018955 752.07055)
(-0.0017363082 0.0043359093 752.07015)
(-0.0026299819 0.0041690295 752.06941)
(-0.0036971086 0.0039248129 752.06845)
(-0.0022023938 0.0033980862 752.06699)
(0.0033166992 0.0027186857 752.06847)
(0.0047180155 0.002833491 752.06997)
(0.0025149924 0.0025149924 752.07063)
(0.0014682908 0.0024813139 752.07114)
(0.00026327291 0.0024026376 752.07128)
(-0.00072750267 0.002323351 752.07116)
(-0.0018511148 0.0022500313 752.07075)
(-0.002855653 0.0021367032 752.06997)
(-0.0038829201 0.001916647 752.06893)
(-0.002242221 0.001757087 752.06744)
(0.0030715548 0.0017133382 752.06906)
(0.0044726989 0.0015049833 752.07048)
(0.0024813139 0.0014682908 752.07114)
(0.0013926285 0.0013926285 752.07162)
(0.00017968309 0.0013123959 752.07174)
(-0.0008071364 0.0012323886 752.0716)
(-0.0019229559 0.0011491274 752.07117)
(-0.0029633662 0.0010754461 752.07036)
(-0.0040767249 0.00098211542 752.06929)
(-0.0023619538 0.00086046906 752.06774)
(0.0031083442 0.00033407632 752.06922)
(0.004472968 0.00033764602 752.07064)
(0.0024026377 0.00026327291 752.07128)
(0.0013123959 0.0001796831 752.07174)
(0.00010303301 0.000103033 752.07184)
(-0.00089077109 3.0711433e-05 752.07168)
(-0.0020080573 -5.1505411e-05 752.07123)
(-0.003022665 -0.00013482857 752.0704)
(-0.0040978971 -0.00019515106 752.0693)
(-0.0023638674 -0.00022356316 752.06775)
(0.0030751245 -0.00059044391 752.06913)
(0.0044018955 -0.0006545301 752.07055)
(0.002323351 -0.00072750266 752.07116)
(0.0012323886 -0.00080713639 752.0716)
(3.0711423e-05 -0.0008907711 752.07168)
(-0.00096167481 -0.00096167481 752.0715)
(-0.0020884959 -0.0010310611 752.07102)
(-0.0031070119 -0.0011078245 752.07017)
(-0.0041654595 -0.001180555 752.06906)
(-0.0023903659 -0.0012285492 752.06749)
(0.003044258 -0.0016182488 752.06876)
(0.0043359093 -0.0017363082 752.07015)
(0.0022500314 -0.0018511148 752.07075)
(0.0011491274 -0.001922956 752.07117)
(-5.1505418e-05 -0.0020080573 752.07123)
(-0.0010310611 -0.002088496 752.07102)
(-0.0021542071 -0.0021542071 752.07053)
(-0.0031721589 -0.0022241535 752.06965)
(-0.0042186218 -0.0022980862 752.06852)
(-0.0024118615 -0.0023632915 752.06694)
(0.0029570651 -0.0024445566 752.06807)
(0.0041690294 -0.0026299818 752.06941)
(0.0021367032 -0.002855653 752.06997)
(0.0010754461 -0.0029633663 752.07036)
(-0.00013482858 -0.003022665 752.0704)
(-0.0011078245 -0.0031070119 752.07017)
(-0.0022241535 -0.0031721589 752.06965)
(-0.0032508911 -0.0032508911 752.06876)
(-0.0043045974 -0.003354919 752.06759)
(-0.0024555711 -0.0034172731 752.06597)
(0.0028588328 -0.0031119769 752.06717)
(0.0039248129 -0.0036971086 752.06845)
(0.001916647 -0.0038829201 752.06893)
(0.00098211543 -0.0040767249 752.06929)
(-0.00019515106 -0.0040978971 752.0693)
(-0.001180555 -0.0041654595 752.06906)
(-0.0022980862 -0.0042186218 752.06852)
(-0.003354919 -0.0043045975 752.06759)
(-0.0043850038 -0.0043850038 752.06637)
(-0.0024742156 -0.0047359755 752.06479)
(0.0023719334 -0.0017154944 752.066)
(0.0033980862 -0.0022023938 752.06699)
(0.001757087 -0.002242221 752.06744)
(0.00086046906 -0.0023619538 752.06774)
(-0.00022356317 -0.0023638674 752.06775)
(-0.0012285492 -0.0023903659 752.06749)
(-0.0023632915 -0.0024118615 752.06694)
(-0.0034172731 -0.0024555711 752.06597)
(-0.0047359755 -0.0024742156 752.06479)
(-0.0028065428 -0.0028065428 752.06286)
(0.0050638815 0.0050638814 752.01419)
(0.0067456208 0.0036367262 752.01597)
(0.0033221029 0.0040412603 752.01658)
(0.0020634093 0.0037586674 752.01712)
(0.00035270423 0.0037968583 752.01724)
(-0.00083670066 0.0037567193 752.01713)
(-0.0021623343 0.0037204196 752.01673)
(-0.0032572993 0.0036043725 752.01603)
(-0.0041666226 0.0034828209 752.0151)
(-0.0023052986 0.0028462394 752.01392)
(0.0036367263 0.0067456208 752.01597)
(0.0057229997 0.0057229997 752.0173)
(0.0034440441 0.0057614744 752.018)
(0.0018190074 0.0054718985 752.01846)
(0.00035075615 0.005464501 752.01859)
(-0.00091313935 0.0053760367 752.01846)
(-0.0023146812 0.0052962043 752.01805)
(-0.003494898 0.0050778726 752.01729)
(-0.0049247557 0.0047713919 752.01631)
(-0.0029418801 0.0040835955 752.01484)
(0.0040412603 0.0033221029 752.01658)
(0.0057614744 0.0034440441 752.018)
(0.0030710017 0.0030710017 752.01861)
(0.0017664359 0.0030216045 752.01906)
(0.00025684248 0.0029236752 752.01917)
(-0.0010049974 0.0028223925 752.01902)
(-0.0024604985 0.0027298882 752.01859)
(-0.0037821117 0.0025839192 752.01779)
(-0.0051608997 0.0023039625 752.01674)
(-0.0029930949 0.0021056878 752.01525)
(0.0037586674 0.0020634094 752.01712)
(0.0054718985 0.0018190074 752.01846)
(0.0030216045 0.001766436 752.01906)
(0.0016716809 0.0016716809 752.0195)
(0.0001515441 0.0015716006 752.01958)
(-0.0011069264 0.0014695757 752.01941)
(-0.0025531544 0.0013631964 752.01896)
(-0.0039208237 0.0012683434 752.01814)
(-0.0054029871 0.0011466582 752.01705)
(-0.0031401548 0.00099382926 752.0155)
(0.0037968583 0.00035270423 752.01724)
(0.005464501 0.00035075615 752.01859)
(0.0029236752 0.00025684249 752.01917)
(0.0015716006 0.0001515441 752.01958)
(5.4737291e-05 5.4737295e-05 752.01965)
(-0.0012134016 -3.7623387e-05 752.01946)
(-0.0026617308 -0.00014280321 752.01898)
(-0.0039986499 -0.00024911236 752.01814)
(-0.0054354139 -0.00032758163 752.01703)
(-0.0031459239 -0.00036643191 752.01548)
(0.0037567193 -0.00083670067 752.01713)
(0.0053760367 -0.00091313935 752.01846)
(0.0028223925 -0.0010049974 752.01902)
(0.0014695757 -0.0011069264 752.01941)
(-3.7623391e-05 -0.0012134016 752.01946)
(-0.0013044669 -0.0013044669 752.01925)
(-0.0027646434 -0.0013942709 752.01875)
(-0.0041056021 -0.0014929597 752.01788)
(-0.0055203067 -0.0015857727 752.01675)
(-0.0031790051 -0.0016462295 752.01519)
(0.0037204196 -0.0021623343 752.01673)
(0.0052962043 -0.0023146812 752.01805)
(0.0027298882 -0.0024604985 752.01859)
(0.0013631964 -0.0025531544 752.01896)
(-0.00014280321 -0.0026617308 752.01898)
(-0.0013942709 -0.0027646434 752.01875)
(-0.0028502237 -0.0028502236 752.01824)
(-0.0041901517 -0.0029412363 752.01735)
(-0.0055886836 -0.0030407869 752.0162)
(-0.0032063807 -0.0031393374 752.01462)
(0.0036043725 -0.0032572994 752.01603)
(0.0050778726 -0.003494898 752.01729)
(0.0025839192 -0.0037821117 752.01779)
(0.0012683434 -0.0039208237 752.01814)
(-0.00024911238 -0.0039986499 752.01814)
(-0.0014929597 -0.0041056021 752.01788)
(-0.0029412363 -0.0041901517 752.01735)
(-0.0042961654 -0.0042961654 752.01644)
(-0.0057184078 -0.0044493751 752.01526)
(-0.0032775556 -0.004509284 752.01362)
(0.0034828209 -0.0041666226 752.0151)
(0.0047713919 -0.0049247557 752.01631)
(0.0023039625 -0.0051608997 752.01674)
(0.0011466583 -0.0054029871 752.01705)
(-0.00032758161 -0.0054354139 752.01703)
(-0.0015857727 -0.0055203066 752.01675)
(-0.0030407869 -0.0055886836 752.0162)
(-0.004449375 -0.0057184078 752.01526)
(-0.0058018022 -0.0058018022 752.01401)
(-0.0032662896 -0.0062962984 752.01244)
(0.0028462394 -0.0023052986 752.01392)
(0.0040835955 -0.0029418801 752.01484)
(0.0021056878 -0.0029930949 752.01525)
(0.00099382927 -0.0031401548 752.0155)
(-0.00036643191 -0.0031459239 752.01548)
(-0.0016462295 -0.0031790051 752.01519)
(-0.0031393374 -0.0032063807 752.01462)
(-0.004509284 -0.0032775556 752.01362)
(-0.0062962984 -0.0032662896 752.01244)
(-0.0037720518 -0.0037720518 752.01052)
(0.005932638 0.005932638 751.94991)
(0.0079112548 0.0042862626 751.95161)
(0.0038743456 0.0047330176 751.95218)
(0.0023698543 0.0044150808 751.95267)
(0.00033961253 0.004454632 751.95276)
(-0.001105975 0.0044073777 751.95262)
(-0.0027179365 0.00436496 751.9522)
(-0.0040737829 0.0042200639 751.9515)
(-0.0052155374 0.0040767066 751.95058)
(-0.002888229 0.0032931793 751.94942)
(0.0042862626 0.0079112548 751.95161)
(0.0067116344 0.0067116344 751.95287)
(0.0040031638 0.0067472303 751.95353)
(0.0020914688 0.0064158841 751.95395)
(0.00033190943 0.0064014285 751.95404)
(-0.001195647 0.0062959143 751.95389)
(-0.0029052502 0.0062018408 751.95346)
(-0.0043620362 0.0059318671 751.9527)
(-0.006142422 0.0055657596 751.95173)
(-0.0036717563 0.0047200454 751.95029)
(0.0047330176 0.0038743457 751.95218)
(0.0067472303 0.0040031638 751.95353)
(0.0035785953 0.0035785953 751.95409)
(0.0020240525 0.0035143259 751.9545)
(0.00021964277 0.0033982861 751.95458)
(-0.0013055626 0.0032760179 751.95441)
(-0.0030819837 0.0031651729 751.95396)
(-0.004709864 0.0029865905 751.95316)
(-0.0064273591 0.0026482786 751.95212)
(-0.0037339433 0.0024125148 751.95065)
(0.0044150808 0.0023698543 751.95267)
(0.0064158841 0.0020914688 751.95395)
(0.0035143259 0.0020240526 751.9545)
(0.0019111596 0.0019111596 751.95489)
(9.3601349e-05 0.0017920792 751.95495)
(-0.0014287602 0.0016687989 751.95476)
(-0.0031946776 0.0015402027 751.95429)
(-0.0048789306 0.0014246912 751.95347)
(-0.0067164977 0.0012751179 751.95239)
(-0.0039075201 0.0010917894 751.95087)
(0.0044546321 0.00033961253 751.95276)
(0.0064014285 0.00033190945 751.95404)
(0.0033982861 0.00021964278 751.95458)
(0.0017920792 9.3601356e-05 751.95495)
(-2.2717862e-05 -2.2717848e-05 751.95499)
(-0.0015574392 -0.00013464419 751.95477)
(-0.0033260914 -0.00026232087 751.95429)
(-0.0049749487 -0.00039123262 751.95344)
(-0.006760261 -0.00048772482 751.95235)
(-0.0039172718 -0.00053702862 751.95082)
(0.0044073777 -0.001105975 751.95262)
(0.0062959143 -0.001195647 751.95389)
(0.0032760179 -0.0013055627 751.95441)
(0.0016687989 -0.0014287602 751.95476)
(-0.00013464418 -0.0015574392 751.95477)
(-0.0016683632 -0.0016683632 751.95454)
(-0.0034512661 -0.0017784957 751.95403)
(-0.0051043345 -0.0018989212 751.95317)
(-0.0068622937 -0.0020110538 751.95205)
(-0.0039568239 -0.0020822015 751.95051)
(0.00436496 -0.0027179365 751.9522)
(0.0062018408 -0.0029052502 751.95346)
(0.0031651729 -0.0030819837 751.95396)
(0.0015402027 -0.0031946776 751.95429)
(-0.00026232085 -0.0033260914 751.95429)
(-0.0017784957 -0.0034512661 751.95403)
(-0.0035566494 -0.0035566494 751.95351)
(-0.0052075068 -0.0036676208 751.95262)
(-0.0069435412 -0.0037906886 751.95148)
(-0.0039884195 -0.0039253193 751.94994)
(0.0042200639 -0.0040737829 751.9515)
(0.0059318671 -0.0043620362 751.9527)
(0.0029865905 -0.004709864 751.95316)
(0.0014246913 -0.0048789306 751.95347)
(-0.00039123261 -0.0049749487 751.95344)
(-0.0018989212 -0.0051043345 751.95317)
(-0.0036676208 -0.0052075069 751.95262)
(-0.0053383737 -0.0053383737 751.95171)
(-0.0071199922 -0.0055452261 751.95055)
(-0.0040914547 -0.0056049813 751.94894)
(0.0040767066 -0.0052155374 751.95058)
(0.0055657596 -0.006142422 751.95173)
(0.0026482786 -0.0064273591 751.95212)
(0.001275118 -0.0067164977 751.95239)
(-0.0004877248 -0.006760261 751.95235)
(-0.0020110538 -0.0068622937 751.95205)
(-0.0037906886 -0.0069435412 751.95148)
(-0.0055452261 -0.0071199922 751.95055)
(-0.0072101488 -0.0072101488 751.94931)
(-0.0040481747 -0.0078435539 751.94776)
(0.0032931793 -0.002888229 751.94942)
(0.0047200454 -0.0036717563 751.95029)
(0.0024125148 -0.0037339433 751.95065)
(0.0010917894 -0.0039075201 751.95087)
(-0.00053702862 -0.0039172718 751.95082)
(-0.0020822015 -0.0039568239 751.95051)
(-0.0039253193 -0.0039884195 751.94994)
(-0.0056049813 -0.0040914547 751.94894)
(-0.0078435539 -0.0040481747 751.94776)
(-0.0047248597 -0.0047248597 751.94588)
(0.0067580684 0.0067580684 751.87356)
(0.009011777 0.004902998 751.87517)
(0.0043824174 0.0053894178 751.8757)
(0.0026402885 0.0050382808 751.87614)
(0.00030286065 0.005079177 751.87621)
(-0.0013905696 0.0050253048 751.87605)
(-0.0032782497 0.0049770773 751.87563)
(-0.0048842916 0.004804124 751.87494)
(-0.0062465007 0.0046400696 751.87403)
(-0.0034586083 0.0037143393 751.8729)
(0.004902998 0.009011777 751.87517)
(0.0076431264 0.0076431264 751.87637)
(0.0045177002 0.0076759933 751.87697)
(0.0023300476 0.0073052367 751.87735)
(0.00028988464 0.007284164 751.87742)
(-0.0014926693 0.0071625852 751.87725)
(-0.0034994305 0.0070550693 751.87682)
(-0.0052212992 0.0067348642 751.87607)
(-0.0073362855 0.0063116061 751.87512)
(-0.0043843387 0.0053131114 751.87372)
(0.0053894178 0.0043824174 751.8757)
(0.0076759933 0.0045177002 751.87697)
(0.0040445277 0.0040445277 751.8775)
(0.0022484591 0.0039660171 751.87787)
(0.00016020919 0.0038327731 751.87792)
(-0.0016196642 0.0036904266 751.87773)
(-0.0037059708 0.0035621904 751.87728)
(-0.0056277548 0.0033519438 751.87649)
(-0.0076682535 0.0029573226 751.87547)
(-0.004457103 0.0026855034 751.87405)
(0.0050382808 0.0026402885 751.87614)
(0.0073052367 0.0023300476 751.87735)
(0.0039660171 0.0022484591 751.87787)
(0.0021182931 0.0021182931 751.87822)
(1.4294135e-05 0.0019810564 751.87825)
(-0.001763252 0.0018372945 751.87805)
(-0.0038379133 0.0016873448 751.87758)
(-0.0058261671 0.0015518369 751.87677)
(-0.0080027259 0.0013751619 751.87571)
(-0.0046561579 0.0011622845 751.87424)
(0.0050791769 0.00030286064 751.87621)
(0.0072841639 0.00028988463 751.87742)
(0.0038327731 0.00016020918 751.87792)
(0.0019810564 1.4294142e-05 751.87825)
(-0.00012078943 -0.00012078943 751.87827)
(-0.0019133758 -0.00025163816 751.87804)
(-0.0039914284 -0.0004011534 751.87755)
(-0.0059399377 -0.00055214093 751.87672)
(-0.0080578058 -0.00066648157 751.87565)
(-0.0046699803 -0.00072641854 751.87417)
(0.0050253048 -0.0013905696 751.87605)
(0.0071625852 -0.0014926693 751.87725)
(0.0036904266 -0.0016196642 751.87773)
(0.0018372945 -0.001763252 751.87805)
(-0.00025163815 -0.0019133758 751.87804)
(-0.002043616 -0.002043616 751.8778)
(-0.0041384161 -0.0021737683 751.87729)
(-0.0060914952 -0.0023158058 751.87644)
(-0.0081770035 -0.0024470038 751.87534)
(-0.0047160948 -0.0025277817 751.87385)
(0.0049770773 -0.0032782497 751.87563)
(0.0070550693 -0.0034994305 751.87682)
(0.0035621904 -0.0037059708 751.87728)
(0.0016873448 -0.0038379133 751.87758)
(-0.0004011534 -0.0039914284 751.87755)
(-0.0021737683 -0.004138416 751.87729)
(-0.0042636183 -0.0042636182 751.87676)
(-0.0062131732 -0.0043942219 751.87589)
(-0.0082697818 -0.0045388952 751.87478)
(-0.0047507583 -0.0047088337 751.87328)
(0.004804124 -0.0048842916 751.87494)
(0.0067348641 -0.0052212992 751.87607)
(0.0033519438 -0.0056277548 751.87649)
(0.0015518369 -0.0058261671 751.87677)
(-0.00055214092 -0.0059399377 751.87672)
(-0.0023158058 -0.0060914952 751.87644)
(-0.0043942219 -0.0062131732 751.87589)
(-0.0063667723 -0.0063667722 751.87499)
(-0.0084916153 -0.0066262241 751.87386)
(-0.0048860333 -0.0066862951 751.87229)
(0.0046400696 -0.0062465007 751.87403)
(0.0063116061 -0.0073362855 751.87512)
(0.0029573226 -0.0076682534 751.87547)
(0.0013751618 -0.0080027259 751.87571)
(-0.00066648155 -0.0080578058 751.87565)
(-0.0024470038 -0.0081770036 751.87534)
(-0.0045388952 -0.0082697818 751.87478)
(-0.0066262241 -0.0084916154 751.87386)
(-0.0085893046 -0.0085893046 751.87264)
(-0.0048108293 -0.009357821 751.87114)
(0.0037143393 -0.0034586083 751.8729)
(0.0053131114 -0.0043843386 751.87372)
(0.0026855034 -0.004457103 751.87405)
(0.0011622845 -0.0046561578 751.87424)
(-0.00072641854 -0.0046699803 751.87417)
(-0.0025277818 -0.0047160948 751.87385)
(-0.0047088337 -0.0047507583 751.87328)
(-0.0066862951 -0.0048860333 751.87229)
(-0.009357821 -0.0048108293 751.87114)
(-0.0056545497 -0.0056545497 751.86931)
(0.0075380525 0.0075380525 751.78561)
(0.010047029 0.0054858767 751.78712)
(0.0048503976 0.0060090482 751.78761)
(0.0028797875 0.0056269314 751.78802)
(0.00024921457 0.005668973 751.78806)
(-0.0016816022 0.0056088837 751.7879)
(-0.0038326892 0.0055551912 751.78748)
(-0.0056770913 0.0053552511 751.7868)
(-0.0072477255 0.0051715547 751.78592)
(-0.0040108732 0.0041093418 751.78484)
(0.0054858767 0.010047029 751.78712)
(0.0085180248 0.0085180248 751.78825)
(0.0049914522 0.0085481384 751.78881)
(0.0025397124 0.0081403876 751.78916)
(0.0002311669 0.0081129268 751.7892)
(-0.0017953841 0.0079761267 751.78903)
(-0.0040863217 0.0078559312 751.7886)
(-0.0060607278 0.007487441 751.78787)
(-0.0084936348 0.0070096642 751.78695)
(-0.0050730861 0.0058645416 751.7856)
(0.0060090482 0.0048503976 751.78761)
(0.0085481384 0.0049914522 751.78881)
(0.0044727604 0.0044727604 751.7893)
(0.0024445759 0.0043806392 751.78963)
(8.495369e-05 0.0042311033 751.78966)
(-0.0019385978 0.0040695805 751.78947)
(-0.0043213749 0.0039248071 751.78903)
(-0.0065233583 0.003684146 751.78826)
(-0.0088706249 0.0032356037 751.78727)
(-0.0051559958 0.0029293686 751.7859)
(0.0056269314 0.0028797876 751.78802)
(0.0081403876 0.0025397125 751.78916)
(0.0043806392 0.0024445759 751.78963)
(0.0022980554 0.0022980554 751.78995)
(-7.9891795e-05 0.0021435862 751.78997)
(-0.0021016803 0.0019802259 751.78975)
(-0.0044717562 0.0018098432 751.78929)
(-0.0067499312 0.001655135 751.7885)
(-0.0092484122 0.001452384 751.78748)