/*--------------------------------*- C++ -*----------------------------------*\
| =========                 |                                                 |
| \\      /  F ield         | OpenFOAM: The Open Source CFD Toolbox           |
|  \\    /   O peration     | Version:  v2106                                 |
|   \\  /    A nd           | Website:  www.openfoam.com                      |
|    \\/     M anipulation  |                                                 |
\*---------------------------------------------------------------------------*/
FoamFile
{
    version     2.0;
    format      ascii;
    arch        "LSB;label=32;scalar=64";
    class       volScalarField;
    location    "40";
    object      laplacianT;
}
// * * * * * * * * * * * * * * * * * * * * * * * * * * * * * * * * * * * * * //

dimensions      [0 -2 0 1 0 0 0];

internalField   nonuniform List<scalar> 
4000
(
-0.26970798
-0.69039268
-0.48315087
-0.60440528
-0.54464202
-0.56433638
-0.56115862
-0.5610302
-0.55961079
-0.56583564
-0.69039269
-0.73345379
-0.81147634
-0.79570887
-0.78133338
-0.79152544
-0.7890615
-0.78956342
-0.78559817
-0.76551714
-0.48315086
-0.81147634
-0.68926837
-0.73814245
-0.71340564
-0.72348576
-0.72142934
-0.72223455
-0.71255532
-0.7138963
-0.60440528
-0.79570887
-0.73814245
-0.78105534
-0.75442072
-0.76470269
-0.76290613
-0.76596402
-0.7555383
-0.73348485
-0.54464201
-0.78133339
-0.71340565
-0.75442073
-0.72795202
-0.73842351
-0.73590169
-0.73860816
-0.73322421
-0.72359656
-0.56433639
-0.79152543
-0.72348577
-0.76470269
-0.7384235
-0.74942921
-0.74705203
-0.74846259
-0.73990854
-0.72691964
-0.56115861
-0.78906151
-0.72142934
-0.76290611
-0.73590168
-0.74705203
-0.74536685
-0.74740459
-0.73954409
-0.72686318
-0.56103018
-0.78956343
-0.72223455
-0.76596402
-0.73860816
-0.74846259
-0.74740459
-0.74935727
-0.7415927
-0.72909314
-0.55961082
-0.78559816
-0.7125553
-0.75553831
-0.73322422
-0.73990853
-0.73954409
-0.7415927
-0.73372787
-0.72066483
-0.56583565
-0.76551714
-0.71389631
-0.73348485
-0.72359655
-0.72691964
-0.72686318
-0.72909314
-0.72066483
-0.70737734
-0.9739516
-1.8850091
-1.5092983
-1.6903067
-1.5975566
-1.6303063
-1.6247165
-1.6244265
-1.6212605
-1.5833532
-1.8850091
-2.1635288
-2.2042968
-2.1895231
-2.1648138
-2.1821421
-2.1783631
-2.1778018
-2.1848517
-1.9840645
-1.5092983
-2.2042968
-1.9610199
-2.040279
-1.9996883
-2.0168423
-2.0144233
-2.0121983
-2.0032196
-1.8656898
-1.6903067
-2.1895231
-2.040279
-2.1107207
-2.0671833
-2.0844271
-2.0827738
-2.0875621
-2.0775069
-1.8937593
-1.5975566
-2.1648138
-1.9996883
-2.0671833
-2.0241858
-2.0417606
-2.0379663
-2.0416385
-2.0417682
-1.8794272
-1.6303063
-2.1821421
-2.0168423
-2.0844271
-2.0417606
-2.0607519
-2.0573663
-2.0583795
-2.0527674
-1.884663
-1.6247165
-2.1783631
-2.0144233
-2.0827738
-2.0379663
-2.0573663
-2.0554677
-2.0576819
-2.0532838
-1.8858523
-1.6244265
-2.1778018
-2.0121983
-2.0875621
-2.0416385
-2.0583795
-2.0576819
-2.0598874
-2.0558126
-1.8883825
-1.6212605
-2.1848517
-2.0032196
-2.0775069
-2.0417682
-2.0527674
-2.0532838
-2.0558126
-2.050741
-1.8805632
-1.5833532
-1.9840645
-1.8656898
-1.8937593
-1.8794272
-1.884663
-1.8858523
-1.8883825
-1.8805632
-1.7075883
-1.9549637
-3.2346506
-2.7406969
-2.9532394
-2.8444322
-2.8832197
-2.8771777
-2.8758503
-2.8818002
-2.6870849
-3.2346506
-3.6156783
-3.658818
-3.6351193
-3.6064185
-3.6271881
-3.6237789
-3.6113196
-3.6643322
-3.2218877
-2.7406969
-3.658818
-3.3587605
-3.4456184
-3.3985722
-3.4191558
-3.4204127
-3.402365
-3.4111721
-3.0530705
-2.9532394
-3.6351193
-3.4456184
-3.5228453
-3.4722817
-3.492135
-3.494554
-3.4912098
-3.5042706
-3.0882975
-2.8444322
-3.6064185
-3.3985722
-3.4722817
-3.4228337
-3.4431631
-3.4415738
-3.4351552
-3.4608357
-3.071089
-2.8832197
-3.6271881
-3.4191558
-3.492135
-3.4431631
-3.4659463
-3.4652334
-3.4554377
-3.473893
-3.0770073
-2.8771777
-3.6237789
-3.4204127
-3.494554
-3.4415739
-3.4652334
-3.4665191
-3.4583002
-3.4783975
-3.0829187
-2.8758503
-3.6113196
-3.402365
-3.4912098
-3.4351552
-3.4554377
-3.4583002
-3.4503733
-3.4710984
-3.0720551
-2.8818002
-3.6643322
-3.4111721
-3.5042706
-3.4608357
-3.473893
-3.4783975
-3.4710984
-3.4858274
-3.1004039
-2.6870849
-3.2218876
-3.0530705
-3.0882975
-3.071089
-3.0770073
-3.0829187
-3.0720551
-3.1004039
-2.6086769
-2.8688945
-4.5123144
-3.8874128
-4.1432174
-4.0142206
-4.0593849
-4.0537374
-4.0483393
-4.0671922
-3.7596199
-4.5123144
-5.0487825
-5.065004
-5.0449632
-5.0083868
-5.0333352
-5.0336382
-4.9992783
-5.0824428
-4.4132848
-3.8874128
-5.065004
-4.6820956
-4.7885019
-4.7312882
-4.7552885
-4.7650031
-4.7275278
-4.7518781
-4.2010579
-4.1432174
-5.0449632
-4.7885019
-4.8848954
-4.8237324
-4.8458465
-4.8559739
-4.8380412
-4.8669304
-4.2434057
-4.0142206
-5.0083868
-4.7312882
-4.8237324
-4.7643224
-4.7871885
-4.7919908
-4.7701994
-4.8150917
-4.2231516
-4.0593849
-5.0333352
-4.7552885
-4.8458465
-4.7871885
-4.8133313
-4.8192717
-4.7931928
-4.8293563
-4.229066
-4.0537374
-5.0336382
-4.7650031
-4.8559739
-4.7919908
-4.8192717
-4.8276997
-4.8035587
-4.8419875
-4.2447357
-4.0483393
-4.9992783
-4.7275278
-4.8380411
-4.7701994
-4.7931928
-4.8035587
-4.7804863
-4.8201117
-4.2060693
-4.0671921
-5.0824428
-4.7518781
-4.8669304
-4.8150917
-4.8293563
-4.8419875
-4.8201117
-4.8366359
-4.2920255
-3.7596199
-4.4132848
-4.2010579
-4.2434057
-4.2231516
-4.229066
-4.2447357
-4.2060693
-4.2920255
-3.4894285
-3.7871786
-5.7696355
-5.0256093
-5.3225173
-5.1736172
-5.2249908
-5.2207542
-5.2116298
-5.2318938
-4.8079807
-5.7696355
-6.4468215
-6.4420567
-6.4253211
-6.380646
-6.4092345
-6.4160388
-6.3661028
-6.4763344
-5.5771622
-5.0256092
-6.4420567
-5.9848973
-6.1098294
-6.0424453
-6.0687095
-6.0878059
-6.03372
-6.0697992
-5.323286
-5.3225173
-6.4253211
-6.1098294
-6.2244673
-6.1528518
-6.1763965
-6.1957214
-6.1661338
-6.2065729
-5.3726522
-5.1736172
-6.380646
-6.0424453
-6.1528518
-6.0835372
-6.1080496
-6.1207747
-6.0867723
-6.1466317
-5.3494808
-5.2249908
-6.4092345
-6.0687095
-6.1763965
-6.1080496
-6.1366264
-6.1506848
-6.1114114
-6.1609819
-5.354335
-5.2207542
-6.4160388
-6.0878059
-6.1957214
-6.1207747
-6.1506848
-6.1676517
-6.1306482
-6.1835378
-5.3837098
-5.2116298
-6.3661028
-6.03372
-6.1661338
-6.0867723
-6.1114114
-6.1306482
-6.0963099
-6.1529369
-5.3119798
-5.2318937
-6.4763344
-6.0697992
-6.2065729
-6.1466317
-6.1609819
-6.1835378
-6.1529369
-6.1539244
-5.4558789
-4.8079807
-5.5771622
-5.323286
-5.3726522
-5.3494808
-5.354335
-5.3837098
-5.3119798
-5.4558789
-4.3482148
-4.6691568
-6.9844289
-6.1252085
-6.4610159
-6.2932378
-6.3503577
-6.3475111
-6.3375397
-6.3611484
-5.8255137
-6.9844289
-7.8017938
-7.7755827
-7.7620327
-7.7097382
-7.7411804
-7.7530992
-7.6892232
-7.828159
-6.7058628
-6.1252085
-7.7755827
-7.246565
-7.3890367
-7.3122757
-7.3403975
-7.3678825
-7.2983819
-7.3480809
-6.411927
-6.4610159
-7.7620327
-7.3890367
-7.5209145
-7.4396215
-7.4642036
-7.4919607
-7.4519571
-7.5058398
-6.4681167
-6.2932378
-7.7097382
-7.3122757
-7.4396215
-7.3611341
-7.3868511
-7.406749
-7.3618396
-7.4384515
-6.4423728
-6.3503577
-7.7411804
-7.3403975
-7.4642036
-7.3868511
-7.4174035
-7.4388009
-7.3875838
-7.452222
-6.4452855
-6.3475111
-7.7530992
-7.3678825
-7.4919606
-7.406749
-7.4388009
-7.463413
-7.4145679
-7.4836495
-6.4896539
-6.3375397
-7.6892232
-7.2983819
-7.4519571
-7.3618396
-7.3875838
-7.4145679
-7.370457
-7.4491762
-6.3851747
-6.3611484
-7.828159
-7.3480809
-7.5058398
-7.4384515
-7.452222
-7.4836495
-7.4491762
-7.4333364
-6.5866083
-5.8255137
-6.7058628
-6.411927
-6.4681167
-6.4423728
-6.4452855
-6.4896539
-6.3851747
-6.5866083
-5.1804427
-5.5253214
-8.1579104
-7.1887192
-7.561426
-7.3760141
-7.4386005
-7.4365717
-7.4253343
-7.4516648
-6.8073232
-8.1579104
-9.1095572
-9.0620365
-9.0518504
-8.992591
-9.0270071
-9.04355
-8.9656427
-9.1320962
-7.7933899
-7.1887192
-9.0620365
-8.4643757
-8.6235646
-8.5381854
-8.5683016
-8.603757
-8.518761
-8.5814338
-7.4612275
-7.561426
-9.0518504
-8.6235646
-8.7719118
-8.681708
-8.7074307
-8.7432255
-8.6925852
-8.7592638
-7.5239729
-7.3760141
-8.992591
-8.5381854
-8.681708
-8.5948057
-8.6218121
-8.6485279
-8.5925381
-8.6851352
-7.4960678
-7.4386005
-9.0270071
-8.5683016
-8.7074307
-8.6218121
-8.6544165
-8.6828107
-8.6194955
-8.6983644
-7.496722
-7.4365717
-9.04355
-8.603757
-8.7432256
-8.6485279
-8.6828107
-8.7146685
-8.6535324
-8.7374792
-7.5559267
-7.4253343
-8.9656427
-8.518761
-8.6925852
-8.5925381
-8.6194955
-8.6535324
-8.598796
-8.699987
-7.4192875
-7.4516648
-9.1320962
-8.5814338
-8.7592638
-8.6851352
-8.6983644
-8.7374792
-8.699987
-8.6672493
-7.6771815
-6.8073232
-7.7933899
-7.4612275
-7.5239729
-7.4960678
-7.496722
-7.5559267
-7.4192875
-7.6771815
-5.9810385
-6.3467074
-9.2803064
-8.2072193
-8.6145934
-8.4128022
-8.4806907
-8.4796427
-8.4673045
-8.4962432
-7.7471545
-9.2803064
-10.360354
-10.29191
-10.285196
-10.219425
-10.256836
-10.278071
-10.186722
-10.379725
-8.832879
-8.2072193
-10.29191
-9.6293859
-9.8043561
-9.710959
-9.7430852
-9.7864795
-9.6866122
-9.7619165
-8.4645692
-8.6145934
-10.285196
-9.8043561
-9.9683124
-9.8698315
-9.8967157
-9.9405067
-9.8796419
-9.9587527
-8.5335234
-8.4128022
-10.219425
-9.710959
-9.8698315
-9.775139
-9.803446
-9.8369926
-9.7703832
-9.8784766
-8.5037911
-8.4806907
-10.256835
-9.7430853
-9.8967156
-9.803446
-9.838092
-9.8735189
-9.798662
-9.8913654
-8.502214
-8.4796427
-10.278071
-9.7864795
-9.9405067
-9.8369926
-9.8735189
-9.912692
-9.8397486
-9.9377749
-8.5759422
-8.4673045
-10.186722
-9.6866122
-9.8796419
-9.7703832
-9.798662
-9.8397486
-9.7744424
-9.8975879
-8.4079742
-8.4962432
-10.379725
-9.7619165
-9.9587527
-9.8784766
-9.8913655
-9.9377749
-9.8975878
-9.8481015
-8.7207859
-7.7471545
-8.832879
-8.4645692
-8.5335234
-8.5037911
-8.502214
-8.5759422
-8.4079742
-8.7207859
-6.7450379
-7.1285256
-10.345064
-9.174747
-9.6143087
-9.3974058
-9.4702361
-9.470251
-9.4569548
-9.4883854
-8.6392047
-10.345064
-11.546882
-11.45799
-11.454827
-11.382976
-11.42321
-11.449081
-11.34492
-11.563336
-9.8179198
-9.174747
-11.45799
-10.734742
-10.924456
-10.823642
-10.857634
-10.908772
-10.794714
-10.882233
-9.4157643
-9.6143087
-11.454827
-10.924456
-11.103055
-10.996934
-11.024863
-11.076448
-11.005794
-11.096891
-9.4905268
-9.3974058
-11.382976
-10.823642
-10.996934
-10.895069
-10.924549
-10.964781
-10.888022
-11.011002
-9.4592196
-9.4702361
-11.42321
-10.857634
-11.024863
-10.924549
-10.961067
-11.003376
-10.917531
-11.023605
-9.45548
-9.470251
-11.449081
-10.908772
-11.076448
-10.964781
-11.003376
-11.049732
-10.965566
-11.077066
-9.5433337
-9.4569548
-11.34492
-10.794714
-11.005794
-10.888022
-10.917531
-10.965566
-10.890103
-11.034495
-9.3450983
-9.4883854
-11.563336
-10.882233
-11.096891
-11.011002
-11.023605
-11.077066
-11.034495
-10.968575
-9.7109215
-8.6392047
-9.8179198
-9.4157643
-9.4905268
-9.4592196
-9.45548
-9.5433337
-9.3450983
-9.7109215
-7.4676817
-7.8662024
-11.345824
-10.085524
-10.554595
-10.323947
-10.401301
-10.402414
-10.38827
-10.422022
-9.4779976
-11.345824
-12.661993
-12.553238
-12.553683
-12.476229
-12.519077
-12.549462
-12.433164
-12.675669
-10.742453
-10.085524
-12.553238
-11.773759
-11.977085
-11.869512
-11.905196
-11.9638
-11.836287
-11.935502
-10.308957
-10.554595
-12.553683
-11.977085
-12.169266
-12.056196
-12.085034
-12.144131
-12.064153
-12.166693
-10.389092
-10.323947
-12.476229
-11.869512
-12.056196
-11.947825
-11.978332
-12.025034
-11.938623
-12.075746
-10.356437
-10.401301
-12.519077
-11.905196
-12.085034
-11.978332
-12.016528
-12.065486
-11.969211
-12.088039
-10.350596
-10.402414
-12.549462
-11.9638
-12.144131
-12.025034
-12.065486
-12.118773
-12.023958
-12.148265
-10.452071
-10.38827
-12.433164
-11.836287
-12.064153
-11.938623
-11.969211
-12.023958
-11.938835
-12.103614
-10.224818
-10.422022
-12.675669
-11.935502
-12.166693
-12.075746
-12.088039
-12.148265
-12.103614
-12.021686
-10.641412
-9.4779976
-10.742453
-10.308957
-10.389092
-10.356437
-10.350596
-10.452071
-10.224818
-10.641412
-8.1444569
-8.555244
-12.276477
-10.933985
-11.4297
-11.186754
-11.268182
-11.27041
-11.255525
-11.291404
-10.258363
-12.276477
-13.698876
-13.570952
-13.575032
-13.492482
-13.537709
-13.572447
-13.44475
-13.709865
-11.600775
-10.933985
-13.570952
-12.74007
-12.955782
-12.842142
-12.879328
-12.945064
-12.804904
-12.915219
-11.138629
-11.4297
-13.575032
-12.955782
-13.160386
-13.041094
-13.070694
-13.136966
-13.048179
-13.161545
-11.223661
-11.186754
-13.492482
-12.842142
-13.041094
-12.926916
-12.958292
-13.011203
-12.915693
-13.066125
-11.189885
-11.268182
-13.537709
-12.879328
-13.070694
-12.958292
-12.99796
-13.05329
-12.947195
-13.078064
-11.182002
-11.27041
-13.572447
-12.945064
-13.136966
-13.011203
-13.05329
-13.113202
-13.008347
-13.144711
-11.296497
-11.255525
-13.44475
-12.804904
-13.048179
-12.915693
-12.947195
-13.008347
-12.914112
-13.09828
-11.041645
-11.291404
-13.709865
-12.915219
-13.161545
-13.066125
-13.078064
-13.144711
-13.09828
-13.000865
-11.506453
-10.258363
-11.600775
-11.138629
-11.223661
-11.189885
-11.182002
-11.296497
-11.041645
-11.506453
-8.7711379
-9.1914459
-13.131341
-11.714949
-12.234267
-11.980539
-12.065555
-12.068901
-12.053379
-12.091173
-10.975489
-13.131341
-14.6512
-14.504911
-14.512617
-14.4255
-14.472844
-14.511739
-14.373445
-14.659544
-12.387586
-11.714949
-14.504911
-13.627762
-13.854546
-13.735558
-13.774035
-13.846515
-13.694585
-13.815331
-11.89965
-12.234267
-14.512617
-13.854546
-14.070328
-13.945568
-13.975765
-14.048822
-13.951789
-14.07529
-11.989071
-11.980539
-14.4255
-13.735558
-13.945568
-13.826305
-13.858376
-13.917188
-13.813183
-13.976005
-11.954396
-12.065555
-14.472844
-13.774035
-13.975765
-13.858376
-13.899292
-13.960669
-13.845423
-13.987534
-11.944535
-12.068901
-14.511739
-13.846515
-14.048822
-13.917188
-13.960669
-14.026852
-13.91262
-14.060208
-12.071358
-12.053379
-14.373445
-13.694585
-13.951789
-13.813183
-13.845423
-13.91262
-13.809869
-14.012299
-11.790493
-12.091173
-14.659544
-13.815331
-14.07529
-13.976005
-13.987534
-14.060208
-14.012299
-13.900011
-12.300656
-10.975489
-12.387586
-11.89965
-11.989071
-11.954395
-11.944535
-12.071358
-11.790493
-12.300656
-9.3438184
-9.7709284
-13.905194
-12.423643
-12.96337
-12.700433
-12.788522
-12.792974
-12.776918
-12.816399
-11.624953
-13.905194
-15.513145
-15.3494
-15.360694
-15.269555
-15.318736
-15.361556
-15.213525
-15.51885
-13.098032
-12.423643
-15.3494
-14.431399
-14.667865
-14.544272
-14.583812
-14.662598
-14.499844
-14.63028
-12.587321
-12.96337
-15.360694
-14.667865
-14.893503
-14.764053
-14.794672
-14.874071
-14.769397
-14.902279
-12.680586
-12.700433
-15.269555
-14.544272
-14.764053
-14.64045
-14.673029
-14.737389
-14.625537
-14.799752
-12.645235
-12.788522
-15.318736
-14.583812
-14.794672
-14.673029
-14.71495
-14.782007
-14.658327
-14.810812
-12.633467
-12.792974
-15.361556
-14.662598
-14.874071
-14.737389
-14.782007
-14.854064
-14.731166
-14.889076
-12.771845
-12.776918
-15.213525
-14.499844
-14.769397
-14.625537
-14.658327
-14.731166
-14.620542
-14.839994
-12.466706
-12.816399
-15.51885
-14.63028
-14.902279
-14.799752
-14.810811
-14.889076
-14.839994
-14.713532
-13.019084
-11.624953
-13.098032
-12.587321
-12.680586
-12.645235
-12.633467
-12.771845
-12.466706
-13.019084
-9.858937
-10.290147
-14.593296
-13.055722
-13.612535
-13.342015
-13.432638
-13.438172
-13.421685
-13.462611
-12.202749
-14.593296
-16.279426
-16.099239
-16.114054
-16.01946
-16.070178
-16.116664
-15.959811
-16.282482
-13.727731
-13.055722
-16.099239
-15.146048
-15.390743
-15.26331
-15.303674
-15.388283
-15.215711
-15.355037
-13.197395
-13.612535
-16.114054
-15.390743
-15.624848
-15.49151
-15.522366
-15.607623
-15.495958
-15.637404
-13.293933
-13.342015
-16.01946
-15.26331
-15.49151
-15.364333
-15.397223
-15.46674
-15.347736
-15.532272
-13.258129
-13.432637
-16.070178
-15.303674
-15.522366
-15.397223
-15.439898
-15.512225
-15.38088
-15.5428
-13.244532
-13.438172
-16.116664
-15.388283
-15.607623
-15.46674
-15.512225
-15.589717
-15.458917
-15.626179
-13.393616
-13.421685
-15.959811
-15.215711
-15.495958
-15.347736
-15.38088
-15.458917
-15.341106
-15.576232
-13.066089
-13.462611
-16.282482
-15.355037
-15.637404
-15.532272
-15.5428
-15.626179
-15.576232
-15.436379
-13.657279
-12.202749
-13.727731
-13.197395
-13.293933
-13.258129
-13.244532
-13.393616
-13.066089
-13.657279
-10.313297
-10.745916
-15.191419
-13.607303
-14.177769
-13.901335
-13.993935
-14.000519
-13.983703
-14.025824
-12.705314
-15.191419
-16.945334
-16.749815
-16.768062
-16.670598
-16.722542
-16.772408
-16.607703
-16.945731
-14.272797
-13.607303
-16.749815
-15.767313
-16.018728
-15.888244
-15.929184
-16.019097
-15.837773
-15.985131
-13.726108
-14.177769
-16.768062
-16.018728
-16.259859
-16.123458
-16.154361
-16.244952
-16.126986
-16.276126
-13.825325
-13.901335
-16.670598
-15.888244
-16.123458
-15.993492
-16.026493
-16.100739
-15.975318
-16.169039
-13.78929
-13.993935
-16.722542
-15.929184
-16.154361
-16.026493
-16.069659
-16.146814
-16.008614
-16.178975
-13.77395
-14.000519
-16.772408
-16.019097
-16.244952
-16.100739
-16.146814
-16.229265
-16.091372
-16.266956
-13.932825
-13.983703
-16.607703
-15.837773
-16.126986
-15.975318
-16.008614
-16.091372
-15.967103
-16.216454
-13.584931
-14.025824
-16.945731
-15.985131
-16.276126
-16.169039
-16.178974
-16.266956
-16.216454
-16.064077
-14.21129
-12.705314
-14.272797
-13.726108
-13.825325
-13.78929
-13.77395
-13.932825
-13.584931
-14.21129
-10.704085
-11.135432
-15.69588
-14.07499
-14.655593
-14.37495
-14.468957
-14.47655
-14.45951
-14.502565
-13.129548
-15.69588
-17.506767
-17.297124
-17.318689
-17.218957
-17.271807
-17.324747
-17.153204
-17.504506
-14.729868
-14.07499
-17.297124
-16.291368
-16.547954
-16.415222
-16.456486
-16.551149
-16.362191
-16.516673
-14.170196
-14.655593
-17.318689
-16.547954
-16.794624
-16.656
-16.686761
-16.782128
-16.658589
-16.814503
-14.271483
-14.37495
-17.218957
-16.415222
-16.656
-16.524048
-16.556956
-16.635474
-16.50441
-16.706123
-14.23544
-14.468957
-17.271807
-16.456486
-16.686761
-16.556956
-16.600348
-16.681855
-16.537654
-16.715405
-14.218452
-14.47655
-17.324747
-16.551149
-16.782128
-16.635474
-16.681855
-16.768758
-16.624623
-16.807448
-14.386138
-14.45951
-17.153204
-16.362191
-16.658589
-16.50441
-16.537654
-16.624623
-16.494665
-16.756704
-14.020024
-14.502565
-17.504506
-16.516673
-16.814503
-16.706123
-16.715405
-16.807448
-16.756704
-16.592744
-14.677692
-13.129548
-14.729868
-14.170196
-14.271483
-14.23544
-14.218452
-14.386138
-14.020024
-14.677692
-11.028884
-11.456294
-16.103573
-14.455901
-15.043062
-14.759939
-14.854773
-14.863329
-14.846169
-14.889895
-13.472836
-16.103573
-17.960267
-17.737791
-17.762543
-17.661156
-17.714587
-17.770274
-17.592952
-17.955362
-15.096126
-14.455901
-17.737791
-16.714982
-16.975156
-16.840996
-16.88233
-16.98116
-16.785733
-16.946385
-14.526922
-15.043062
-17.762543
-16.975156
-17.225845
-17.085853
-17.116283
-17.215838
-17.087487
-17.249215
-14.629653
-14.759939
-17.661156
-16.840996
-17.085853
-16.952728
-16.985341
-17.067647
-16.931749
-17.14021
-14.593825
-14.854773
-17.714587
-16.88233
-17.116283
-16.985341
-17.028691
-17.114048
-16.964736
-17.148781
-14.575294
-14.863329
-17.770274
-16.98116
-17.215838
-17.067647
-17.114048
-17.204868
-17.05538
-17.244319
-14.750758
-14.846169
-17.592952
-16.785733
-17.087487
-16.931749
-16.964736
-17.05538
-16.920533
-17.193647
-14.368682
-14.889895
-17.955362
-16.946385
-17.249215
-17.14021
-17.148781
-17.244319
-17.193647
-17.019114
-15.053604
-13.472836
-15.096126
-14.526922
-14.629653
-14.593825
-14.575294
-14.750758
-14.368682
-15.053604
-11.285688
-11.706525
-16.411983
-14.747688
-15.337786
-15.053929
-15.149005
-15.158471
-15.141298
-15.185423
-13.733059
-16.411983
-18.303038
-18.069101
-18.096886
-17.994469
-18.048151
-18.106242
-17.924234
-18.295517
-15.369312
-14.747688
-18.069101
-17.035544
-17.297703
-17.162941
-17.20409
-17.306476
-17.105785
-17.271618
-14.794085
-15.337786
-18.096886
-17.297703
-17.550865
-17.410367
-17.440278
-17.543407
-17.411035
-17.57758
-14.897626
-15.053929
-17.994469
-17.162941
-17.410367
-17.27689
-17.309006
-17.394593
-17.254698
-17.468622
-14.862235
-15.149005
-18.048151
-17.20409
-17.440278
-17.309006
-17.352048
-17.440728
-17.287225
-17.47643
-14.842276
-15.158471
-18.106242
-17.306476
-17.543407
-17.394593
-17.440728
-17.534905
-17.380985
-17.574874
-15.024435
-15.141298
-17.924234
-17.105785
-17.411035
-17.254698
-17.287225
-17.380985
-17.242081
-17.524586
-14.628754
-15.185423
-18.295517
-17.271618
-17.57758
-17.468622
-17.47643
-17.574874
-17.524586
-17.340557
-15.336706
-13.733059
-15.369312
-14.794085
-14.897626
-14.862235
-14.842276
-15.024435
-14.628754
-15.336706
-11.472914
-11.884583
-16.619209
-14.948551
-15.537948
-15.255108
-15.34984
-15.360157
-15.343076
-15.387329
-13.908614
-16.619209
-18.532965
-18.289009
-18.319656
-18.216842
-18.270443
-18.330579
-18.145007
-18.522875
-15.547742
-14.948551
-18.289009
-17.251077
-17.513604
-17.379072
-17.419781
-17.525093
-17.320375
-17.490367
-14.970038
-15.537948
-18.319656
-17.513604
-17.767678
-17.627542
-17.656748
-17.762815
-17.62724
-17.797574
-15.073752
-15.255108
-18.216842
-17.379072
-17.627542
-17.494535
-17.525956
-17.614296
-17.471266
-17.689334
-15.039014
-15.34984
-18.270443
-17.419781
-17.656748
-17.525956
-17.568423
-17.659881
-17.503132
-17.696332
-15.017749
-15.360157
-18.330579
-17.525093
-17.762815
-17.614296
-17.659881
-17.756833
-17.599431
-17.797074
-15.205482
-15.343076
-18.145007
-17.320375
-17.62724
-17.471266
-17.503132
-17.599431
-17.457327
-17.74748
-14.798634
-15.387329
-18.522875
-17.490367
-17.797574
-17.689334
-17.696332
-17.797074
-17.74748
-17.55509
-15.525252
-13.908614
-15.547742
-14.970038
-15.073752
-15.039014
-15.017749
-15.205482
-14.798634
-15.525252
-11.589405
-11.989369
-16.723973
-15.057252
-15.642315
-15.362234
-15.456039
-15.467143
-15.450259
-15.494368
-13.998418
-16.723973
-18.648632
-18.396161
-18.429481
-18.326902
-18.380093
-18.441903
-18.253911
-18.636034
-15.630315
-15.057252
-18.396161
-17.360252
-17.621529
-17.488055
-17.528074
-17.635662
-17.428179
-17.601281
-15.053696
-15.642315
-18.429481
-17.621529
-17.874948
-17.736037
-17.764359
-17.87271
-17.734766
-17.90784
-15.156943
-15.362234
-18.326902
-17.488055
-17.736037
-17.60432
-17.634853
-17.725401
-17.580119
-17.800986
-15.123073
-15.456039
-18.380093
-17.528074
-17.764359
-17.634853
-17.676484
-17.770154
-17.611127
-17.807129
-15.100634
-15.467143
-18.441903
-17.635662
-17.87271
-17.725401
-17.770154
-17.869284
-17.70937
-17.909549
-15.292782
-15.450259
-18.253911
-17.428179
-17.734766
-17.580119
-17.611127
-17.70937
-17.564942
-17.860954
-14.877276
-15.494368
-18.636034
-17.601281
-17.90784
-17.800986
-17.807129
-17.909549
-17.860954
-17.661391
-15.618081
-13.998418
-15.630315
-15.053696
-15.156943
-15.123073
-15.100634
-15.292782
-14.877276
-15.618081
-11.634444
-12.020238
-16.725628
-15.073121
-15.650242
-15.374648
-15.466946
-15.478769
-15.462187
-15.505879
-14.001917
-16.725628
-18.649324
-18.389894
-18.425682
-18.323972
-18.376423
-18.439527
-18.250274
-18.634295
-15.616522
-15.073121
-18.389894
-17.362396
-17.620812
-17.489219
-17.528301
-17.637502
-17.428533
-17.603678
-15.044544
-15.650242
-18.425682
-17.620812
-17.872014
-17.735184
-17.762448
-17.872415
-17.732952
-17.907698
-15.146686
-15.374648
-18.323972
-17.489219
-17.735184
-17.60557
-17.635025
-17.727223
-17.580584
-17.80289
-15.113893
-15.466946
-18.376423
-17.528301
-17.762448
-17.635025
-17.675563
-17.770869
-17.610544
-17.80814
-15.090418
-15.478769
-18.439527
-17.637502
-17.872415
-17.727223
-17.770869
-17.871566
-17.710126
-17.911605
-15.285797
-15.462187
-18.250274
-17.428533
-17.732952
-17.580584
-17.610544
-17.710126
-17.564263
-17.864311
-14.864195
-15.505879
-18.634295
-17.603679
-17.907698
-17.80289
-17.80814
-17.911605
-17.864311
-17.658803
-15.614618
-14.001917
-15.616522
-15.044544
-15.146686
-15.113893
-15.090418
-15.285797
-14.864195
-15.614618
-11.607753
-11.976997
-16.624165
-14.996059
-15.56168
-15.292272
-15.382494
-15.394964
-15.378785
-15.421791
-13.91909
-16.624165
-18.535037
-18.270248
-18.308283
-18.208068
-18.259457
-18.323466
-18.134118
-18.517671
-15.506448
-14.996059
-18.270248
-17.257495
-17.511457
-17.382556
-17.42046
-17.530601
-17.321435
-17.497543
-14.942636
-15.56168
-18.308283
-17.511457
-17.758893
-17.624988
-17.651025
-17.76193
-17.621809
-17.79715
-15.043045
-15.292272
-18.208068
-17.382556
-17.624988
-17.498275
-17.526472
-17.619752
-17.47266
-17.695032
-15.011531
-15.382494
-18.259457
-17.42046
-17.651025
-17.526472
-17.565667
-17.662021
-17.501386
-17.699358
-14.987165
-15.394964
-18.323466
-17.530601
-17.76193
-17.619752
-17.662021
-17.763664
-17.601693
-17.803232
-15.184571
-15.378785
-18.134118
-17.321435
-17.621809
-17.47266
-17.501386
-17.601693
-17.455296
-17.757528
-14.759471
-15.421791
-18.517671
-17.497543
-17.79715
-17.695033
-17.699358
-17.803232
-17.757528
-17.547343
-15.514887
-13.91909
-15.506448
-14.942636
-15.043045
-15.011531
-14.987165
-15.184571
-14.759471
-15.514887
-11.509496
-11.859915
-16.420207
-14.826542
-15.377175
-15.115614
-15.203204
-15.216243
-15.200569
-15.242622
-13.750447
-16.420207
-18.306475
-18.03796
-18.078007
-17.979905
-18.029916
-18.094434
-17.906159
-18.286879
-15.300772
-14.826542
-18.03796
-17.046196
-17.294137
-17.168724
-17.205217
-17.315619
-17.107545
-17.28353
-14.748603
-15.377175
-18.078007
-17.294137
-17.536282
-17.406127
-17.430777
-17.541937
-17.402022
-17.576877
-14.84666
-15.115614
-17.979905
-17.168724
-17.406127
-17.283098
-17.309863
-17.403649
-17.257011
-17.47808
-14.816619
-15.203204
-18.029916
-17.205217
-17.430777
-17.309863
-17.347473
-17.444281
-17.284327
-17.481454
-14.791512
-15.216243
-18.094434
-17.315619
-17.541937
-17.403649
-17.444281
-17.546243
-17.38474
-17.585096
-14.989727
-15.200569
-17.906159
-17.107545
-17.402022
-17.257011
-17.284327
-17.38474
-17.238711
-17.541265
-14.563751
-15.242622
-18.286879
-17.28353
-17.576877
-17.47808
-17.481454
-17.585096
-17.541265
-17.327699
-15.319503
-13.750447
-15.300772
-14.748603
-14.84666
-14.816619
-14.791512
-14.989727
-14.563751
-15.319503
-11.340281
-11.669711
-16.115013
-14.565613
-15.097864
-14.845762
-14.930181
-14.943709
-14.928635
-14.969478
-13.497028
-16.115013
-17.965046
-17.69446
-17.736273
-17.640889
-17.689213
-17.753843
-17.567803
-17.943341
-15.000761
-14.565613
-17.69446
-16.729801
-16.970193
-16.84904
-16.883897
-16.993879
-16.78818
-16.962959
-14.463639
-15.097864
-17.736273
-16.970193
-17.205554
-17.079952
-17.103063
-17.213792
-17.074946
-17.248237
-14.558739
-14.845762
-17.640889
-16.84904
-17.079952
-16.961364
-16.986532
-17.080246
-16.934967
-17.153369
-14.530357
-14.930181
-17.689213
-16.883897
-17.103063
-16.986532
-17.022327
-17.118991
-16.960704
-17.155772
-14.504664
-14.943709
-17.753843
-16.993879
-17.213792
-17.080246
-17.118991
-17.220644
-17.060605
-17.258542
-14.702466
-14.928635
-17.567803
-16.78818
-17.074946
-16.934967
-16.960704
-17.060605
-16.915845
-17.216855
-14.278241
-14.969478
-17.943341
-16.962959
-17.248237
-17.153369
-17.155772
-17.258542
-17.216855
-17.001224
-15.029668
-13.497028
-15.000761
-14.463639
-14.558739
-14.530357
-14.504665
-14.702466
-14.278241
-15.029668
-11.101148
-11.407559
-15.710463
-14.214881
-14.725469
-14.484381
-14.565107
-14.579041
-14.56466
-14.604041
-13.160395
-15.710463
-17.512856
-17.241867
-17.285188
-17.19311
-17.239449
-17.303793
-17.121134
-17.489177
-14.608264
-14.214881
-17.241867
-16.310259
-16.541621
-16.425475
-16.458481
-16.567365
-16.36531
-16.537803
-14.089502
-14.725469
-17.285188
-16.541621
-16.768747
-16.648473
-16.669902
-16.779517
-16.642596
-16.813254
-14.181059
-14.484381
-17.19311
-16.425475
-16.648473
-16.535057
-16.558473
-16.651538
-16.508513
-16.722902
-14.15451
-14.565107
-17.239449
-16.458481
-16.669902
-16.558473
-16.592231
-16.688157
-16.532513
-16.724317
-14.12839
-14.579041
-17.303793
-16.567365
-16.779517
-16.651538
-16.688157
-16.788874
-16.631285
-16.825583
-14.32456
-14.56466
-17.121134
-16.36531
-16.642596
-16.508513
-16.532513
-16.631285
-16.488686
-16.786296
-13.9047
-14.604041
-17.489177
-16.537803
-16.813254
-16.722902
-16.724317
-16.825583
-16.786296
-16.56993
-14.64717
-13.160395
-14.608264
-14.089502
-14.181059
-14.15451
-14.12839
-14.32456
-13.9047
-14.64717
-10.793573
-11.075075
-15.209051
-13.776508
-14.262284
-14.033696
-14.110233
-14.124487
-14.110887
-14.148563
-12.742621
-15.209051
-16.952691
-16.682969
-16.727531
-16.639327
-16.683395
-16.747057
-16.568905
-16.927182
-14.1257
-13.776508
-16.682969
-15.790157
-16.011061
-15.900639
-15.931591
-16.038706
-15.84154
-16.010685
-13.628495
-14.262284
-16.727531
-16.011061
-16.228552
-16.114347
-16.133963
-16.241789
-16.107636
-16.27461
-13.715944
-14.033696
-16.639327
-15.900639
-16.114347
-16.006803
-16.028323
-16.120165
-15.980275
-16.18933
-13.691394
-14.110233
-16.683395
-15.931591
-16.133963
-16.028323
-16.059836
-16.154431
-16.00239
-16.18975
-13.665007
-14.124487
-16.747057
-16.038706
-16.241789
-16.120165
-16.154432
-16.253592
-16.099425
-16.288886
-13.858334
-14.110887
-16.568905
-15.84154
-16.107636
-15.980275
-16.00239
-16.099425
-15.959866
-16.252242
-13.445429
-14.148563
-16.927182
-16.010685
-16.27461
-16.18933
-16.189749
-16.288886
-16.252241
-16.036474
-14.174364
-12.742621
-14.1257
-13.628495
-13.715944
-13.691394
-13.665007
-13.858334
-13.445429
-14.174364
-10.419448
-10.674309
-14.61387
-13.253197
-13.711165
-13.496486
-13.568361
-13.582846
-13.570112
-13.60585
-12.246279
-14.61387
-16.288006
-16.021214
-16.066741
-15.982954
-16.024479
-16.087064
-15.914517
-16.26082
-13.55604
-13.253197
-16.021214
-15.172701
-15.381785
-15.277767
-15.306472
-15.411157
-15.220096
-15.384848
-13.083458
-13.711165
-16.066741
-15.381785
-15.588298
-15.480866
-15.498547
-15.603919
-15.473361
-15.63562
-13.16626
-13.496486
-15.982954
-15.277767
-15.480866
-15.379857
-15.399347
-15.489399
-15.353507
-15.555937
-13.143857
-13.568361
-16.024479
-15.306472
-15.498547
-15.399347
-15.42842
-15.521102
-15.3736
-15.555358
-13.117366
-13.582846
-16.087064