/*--------------------------------*- C++ -*----------------------------------*\
| =========                 |                                                 |
| \\      /  F ield         | OpenFOAM: The Open Source CFD Toolbox           |
|  \\    /   O peration     | Version:  v2106                                 |
|   \\  /    A nd           | Website:  www.openfoam.com                      |
|    \\/     M anipulation  |                                                 |
\*---------------------------------------------------------------------------*/
FoamFile
{
    version     2.0;
    format      ascii;
    arch        "LSB;label=32;scalar=64";
    class       volScalarField;
    location    "40";
    object      T;
}
// * * * * * * * * * * * * * * * * * * * * * * * * * * * * * * * * * * * * * //

dimensions      [0 0 0 1 0 0 0];

internalField   nonuniform List<scalar> 
4000
(
276.76073
276.76074
276.76074
276.76075
276.76075
276.76075
276.76075
276.76075
276.76074
276.76074
276.76074
276.76075
276.76076
276.76076
276.76076
276.76076
276.76076
276.76076
276.76075
276.76075
276.76074
276.76076
276.76076
276.76077
276.76077
276.76077
276.76077
276.76076
276.76076
276.76075
276.76075
276.76076
276.76077
276.76077
276.76077
276.76077
276.76077
276.76077
276.76076
276.76076
276.76075
276.76076
276.76077
276.76077
276.76077
276.76077
276.76077
276.76077
276.76076
276.76076
276.76075
276.76076
276.76077
276.76077
276.76077
276.76077
276.76077
276.76077
276.76076
276.76076
276.76075
276.76076
276.76077
276.76077
276.76077
276.76077
276.76077
276.76076
276.76076
276.76075
276.76075
276.76076
276.76076
276.76077
276.76077
276.76077
276.76076
276.76076
276.76076
276.76075
276.76074
276.76075
276.76076
276.76076
276.76076
276.76076
276.76076
276.76076
276.76075
276.76075
276.76074
276.76075
276.76075
276.76076
276.76076
276.76076
276.76075
276.76075
276.76075
276.76074
284.28212
284.28216
284.28217
284.28218
284.28219
284.28219
284.28218
284.28218
284.28216
284.28215
284.28216
284.28219
284.2822
284.28222
284.28222
284.28222
284.28221
284.28221
284.28219
284.28218
284.28217
284.2822
284.28222
284.28223
284.28223
284.28223
284.28223
284.28222
284.2822
284.28219
284.28218
284.28222
284.28223
284.28224
284.28224
284.28224
284.28224
284.28223
284.28221
284.2822
284.28219
284.28222
284.28223
284.28224
284.28225
284.28224
284.28224
284.28223
284.28221
284.2822
284.28219
284.28222
284.28223
284.28224
284.28224
284.28224
284.28224
284.28223
284.28221
284.2822
284.28218
284.28221
284.28223
284.28224
284.28224
284.28224
284.28223
284.28222
284.28221
284.28219
284.28218
284.28221
284.28222
284.28223
284.28223
284.28223
284.28222
284.28221
284.28219
284.28218
284.28216
284.28219
284.2822
284.28221
284.28221
284.28221
284.28221
284.28219
284.28218
284.28216
284.28215
284.28218
284.28219
284.2822
284.2822
284.2822
284.28219
284.28218
284.28216
284.28214
291.80332
291.80339
291.80341
291.80343
291.80343
291.80343
291.80343
291.80341
291.80339
291.80337
291.80339
291.80343
291.80346
291.80348
291.80348
291.80348
291.80347
291.80346
291.80344
291.80341
291.80341
291.80346
291.80348
291.8035
291.8035
291.8035
291.80349
291.80348
291.80345
291.80342
291.80343
291.80348
291.8035
291.80351
291.80352
291.80352
291.80351
291.80349
291.80347
291.80344
291.80343
291.80348
291.8035
291.80352
291.80352
291.80352
291.80351
291.80349
291.80347
291.80344
291.80343
291.80348
291.8035
291.80352
291.80352
291.80352
291.80351
291.80349
291.80346
291.80343
291.80343
291.80347
291.80349
291.80351
291.80351
291.80351
291.8035
291.80348
291.80345
291.80342
291.80341
291.80346
291.80348
291.80349
291.80349
291.80349
291.80348
291.80346
291.80343
291.8034
291.80339
291.80344
291.80345
291.80347
291.80347
291.80346
291.80345
291.80343
291.80341
291.80337
291.80337
291.80341
291.80342
291.80344
291.80344
291.80343
291.80342
291.8034
291.80337
291.80334
299.32421
299.32429
299.32432
299.32435
299.32435
299.32435
299.32434
299.32432
299.32429
299.32426
299.32429
299.32435
299.32439
299.32441
299.32442
299.32442
299.3244
299.32438
299.32435
299.32431
299.32432
299.32439
299.32441
299.32444
299.32444
299.32444
299.32443
299.32441
299.32437
299.32433
299.32435
299.32441
299.32444
299.32446
299.32446
299.32446
299.32445
299.32442
299.32439
299.32434
299.32435
299.32442
299.32444
299.32446
299.32447
299.32447
299.32445
299.32443
299.32439
299.32434
299.32435
299.32442
299.32444
299.32446
299.32447
299.32446
299.32445
299.32442
299.32439
299.32434
299.32434
299.3244
299.32443
299.32445
299.32445
299.32445
299.32443
299.3244
299.32437
299.32432
299.32432
299.32438
299.32441
299.32442
299.32443
299.32442
299.3244
299.32438
299.32434
299.32429
299.32429
299.32435
299.32437
299.32439
299.32439
299.32439
299.32437
299.32434
299.3243
299.32425
299.32426
299.32431
299.32433
299.32434
299.32434
299.32434
299.32432
299.32429
299.32425
299.3242
306.84464
306.84474
306.84478
306.84481
306.84482
306.84482
306.8448
306.84477
306.84474
306.84469
306.84474
306.84482
306.84486
306.84489
306.84489
306.84489
306.84488
306.84485
306.84481
306.84475
306.84478
306.84486
306.84489
306.84492
306.84493
306.84492
306.84491
306.84488
306.84483
306.84477
306.84481
306.84489
306.84492
306.84495
306.84495
306.84495
306.84493
306.8449
306.84485
306.84479
306.84482
306.84489
306.84493
306.84495
306.84496
306.84495
306.84494
306.8449
306.84486
306.84479
306.84482
306.84489
306.84492
306.84495
306.84495
306.84495
306.84493
306.84489
306.84485
306.84478
306.8448
306.84488
306.84491
306.84493
306.84494
306.84493
306.84491
306.84487
306.84482
306.84476
306.84477
306.84485
306.84488
306.8449
306.8449
306.84489
306.84487
306.84483
306.84479
306.84472
306.84474
306.84481
306.84483
306.84485
306.84486
306.84485
306.84482
306.84479
306.84473
306.84467
306.84469
306.84475
306.84477
306.84479
306.84479
306.84478
306.84476
306.84472
306.84467
306.84459
314.36449
314.36461
314.36465
314.36469
314.3647
314.3647
314.36468
314.36464
314.3646
314.36454
314.36461
314.3647
314.36475
314.36478
314.36479
314.36478
314.36476
314.36473
314.36468
314.3646
314.36465
314.36475
314.36479
314.36482
314.36483
314.36482
314.3648
314.36476
314.36471
314.36463
314.36469
314.36478
314.36482
314.36485
314.36486
314.36485
314.36483
314.36479
314.36473
314.36465
314.3647
314.36479
314.36483
314.36486
314.36486
314.36486
314.36483
314.36479
314.36473
314.36465
314.3647
314.36478
314.36482
314.36485
314.36486
314.36485
314.36482
314.36478
314.36472
314.36464
314.36468
314.36476
314.3648
314.36483
314.36483
314.36482
314.3648
314.36475
314.36469
314.36461
314.36464
314.36473
314.36476
314.36479
314.36479
314.36478
314.36475
314.36471
314.36464
314.36456
314.3646
314.36468
314.36471
314.36473
314.36473
314.36472
314.36469
314.36464
314.36458
314.3645
314.36454
314.3646
314.36463
314.36465
314.36465
314.36464
314.36461
314.36456
314.3645
314.36441
321.88364
321.88378
321.88382
321.88386
321.88387
321.88387
321.88385
321.8838
321.88375
321.88368
321.88378
321.88387
321.88393
321.88396
321.88398
321.88397
321.88395
321.8839
321.88384
321.88375
321.88382
321.88393
321.88397
321.88401
321.88402
321.88401
321.88399
321.88394
321.88387
321.88379
321.88386
321.88396
321.88401
321.88404
321.88405
321.88404
321.88402
321.88397
321.8839
321.88381
321.88387
321.88398
321.88402
321.88405
321.88406
321.88405
321.88402
321.88397
321.8839
321.88381
321.88387
321.88397
321.88401
321.88404
321.88405
321.88404
321.88401
321.88396
321.88389
321.88379
321.88385
321.88395
321.88399
321.88402
321.88402
321.88401
321.88398
321.88392
321.88385
321.88376
321.8838
321.8839
321.88394
321.88397
321.88397
321.88396
321.88392
321.88387
321.8838
321.8837
321.88375
321.88384
321.88387
321.8839
321.8839
321.88389
321.88385
321.8838
321.88372
321.88362
321.88368
321.88375
321.88379
321.88381
321.88381
321.88379
321.88376
321.8837
321.88362
321.88351
329.40197
329.40212
329.40217
329.40221
329.40222
329.40222
329.40219
329.40214
329.40208
329.402
329.40212
329.40223
329.40229
329.40233
329.40234
329.40233
329.4023
329.40225
329.40218
329.40208
329.40217
329.40229
329.40234
329.40238
329.40239
329.40238
329.40235
329.40229
329.40222
329.40211
329.40221
329.40233
329.40238
329.40241
329.40242
329.40241
329.40238
329.40232
329.40224
329.40214
329.40222
329.40234
329.40239
329.40242
329.40243
329.40242
329.40238
329.40232
329.40225
329.40214
329.40222
329.40233
329.40238
329.40241
329.40242
329.4024
329.40237
329.40231
329.40223
329.40212
329.40219
329.4023
329.40235
329.40238
329.40238
329.40237
329.40233
329.40227
329.40219
329.40208
329.40214
329.40225
329.40229
329.40232
329.40232
329.40231
329.40227
329.40221
329.40212
329.40201
329.40208
329.40218
329.40222
329.40224
329.40225
329.40223
329.40219
329.40212
329.40203
329.40192
329.402
329.40208
329.40211
329.40214
329.40214
329.40212
329.40208
329.40201
329.40192
329.40179
336.91935
336.91952
336.91957
336.91962
336.91964
336.91963
336.9196
336.91954
336.91947
336.91938
336.91952
336.91964
336.91971
336.91975
336.91976
336.91975
336.91972
336.91966
336.91958
336.91947
336.91957
336.91971
336.91976
336.9198
336.91981
336.9198
336.91977
336.9197
336.91962
336.9195
336.91962
336.91975
336.9198
336.91984
336.91985
336.91984
336.9198
336.91974
336.91965
336.91953
336.91964
336.91976
336.91981
336.91985
336.91986
336.91984
336.91981
336.91974
336.91965
336.91953
336.91963
336.91975
336.9198
336.91984
336.91984
336.91983
336.91979
336.91972
336.91963
336.91951
336.9196
336.91972
336.91977
336.9198
336.91981
336.91979
336.91975
336.91968
336.91958
336.91946
336.91954
336.91966
336.9197
336.91974
336.91974
336.91972
336.91968
336.9196
336.91951
336.91938
336.91947
336.91958
336.91962
336.91965
336.91965
336.91963
336.91958
336.91951
336.91941
336.91929
336.91938
336.91947
336.9195
336.91953
336.91953
336.91951
336.91946
336.91938
336.91929
336.91914
344.4357
344.43588
344.43594
344.43599
344.436
344.43599
344.43596
344.43589
344.43581
344.43571
344.43588
344.43601
344.43608
344.43612
344.43614
344.43613
344.43609
344.43602
344.43594
344.43581
344.43594
344.43608
344.43614
344.43618
344.43619
344.43618
344.43614
344.43607
344.43598
344.43585
344.43599
344.43612
344.43618
344.43623
344.43623
344.43622
344.43618
344.43611
344.43601
344.43587
344.436
344.43614
344.43619
344.43623
344.43624
344.43622
344.43618
344.43611
344.43601
344.43587
344.43599
344.43613
344.43618
344.43622
344.43622
344.43621
344.43616
344.43608
344.43598
344.43585
344.43596
344.43609
344.43614
344.43618
344.43618
344.43616
344.43611
344.43604
344.43593
344.4358
344.43589
344.43602
344.43607
344.43611
344.43611
344.43608
344.43604
344.43596
344.43585
344.43571
344.43581
344.43594
344.43598
344.43601
344.43601
344.43598
344.43593
344.43585
344.43574
344.4356
344.43571
344.43581
344.43585
344.43587
344.43587
344.43585
344.4358
344.43571
344.4356
344.43544
351.9509
351.95109
351.95115
351.95121
351.95122
351.95121
351.95117
351.9511
351.95101
351.9509
351.95109
351.95123
351.9513
351.95135
351.95136
351.95135
351.95131
351.95124
351.95114
351.951
351.95115
351.9513
351.95137
351.95142
351.95143
351.95141
351.95137
351.95129
351.95119
351.95105
351.95121
351.95135
351.95142
351.95146
351.95147
351.95145
351.95141
351.95133
351.95122
351.95107
351.95122
351.95136
351.95143
351.95147
351.95148
351.95146
351.95141
351.95133
351.95122
351.95107
351.95121
351.95135
351.95141
351.95145
351.95146
351.95144
351.95139
351.9513
351.95119
351.95104
351.95117
351.95131
351.95137
351.95141
351.95141
351.95139
351.95134
351.95125
351.95114
351.95099
351.9511
351.95124
351.95129
351.95133
351.95133
351.9513
351.95125
351.95116
351.95105
351.95089
351.95101
351.95114
351.95119
351.95122
351.95122
351.95119
351.95114
351.95105
351.95093
351.95078
351.9509
351.951
351.95105
351.95107
351.95107
351.95104
351.95099
351.95089
351.95078
351.9506
359.46486
359.46506
359.46513
359.46519
359.4652
359.46519
359.46514
359.46507
359.46497
359.46485
359.46506
359.46521
359.46529
359.46534
359.46535
359.46534
359.46529
359.46521
359.46511
359.46496
359.46513
359.46529
359.46536
359.46541
359.46542
359.4654
359.46535
359.46527
359.46516
359.46501
359.46519
359.46534
359.46541
359.46545
359.46546
359.46544
359.46539
359.46531
359.46519
359.46504
359.4652
359.46535
359.46542
359.46546
359.46547
359.46545
359.4654
359.46531
359.46519
359.46503
359.46519
359.46534
359.4654
359.46544
359.46545
359.46542
359.46537
359.46528
359.46516
359.465
359.46514
359.46529
359.46535
359.46539
359.4654
359.46537
359.46531
359.46522
359.4651
359.46494
359.46507
359.46521
359.46527
359.46531
359.46531
359.46528
359.46522
359.46513
359.465
359.46484
359.46497
359.46511
359.46516
359.46519
359.46519
359.46516
359.4651
359.465
359.46487
359.46471
359.46485
359.46496
359.46501
359.46504
359.46503
359.465
359.46494
359.46484
359.46471
359.46452
366.9775
366.97771
366.97778
366.97784
366.97785
366.97784
366.97779
366.97771
366.97761
366.97748
366.97771
366.97786
366.97795
366.978
366.97801
366.978
366.97795
366.97786
366.97775
366.97759
366.97778
366.97795
366.97802
366.97807
366.97808
366.97806
366.97801
366.97792
366.9778
366.97764
366.97784
366.978
366.97807
366.97812
366.97813
366.97811
366.97805
366.97796
366.97784
366.97767
366.97785
366.97801
366.97808
366.97813
366.97813
366.97811
366.97805
366.97796
366.97783
366.97767
366.97784
366.978
366.97806
366.97811
366.97811
366.97808
366.97803
366.97793
366.9778
366.97763
366.97779
366.97795
366.97801
366.97805
366.97805
366.97803
366.97797
366.97787
366.97774
366.97757
366.97771
366.97786
366.97792
366.97796
366.97796
366.97793
366.97787
366.97776
366.97763
366.97745
366.97761
366.97775
366.9778
366.97784
366.97783
366.9778
366.97774
366.97763
366.97749
366.97732
366.97748
366.97759
366.97764
366.97767
366.97767
366.97763
366.97757
366.97745
366.97732
366.97711
374.48873
374.48895
374.48902
374.48909
374.4891
374.48908
374.48903
374.48895
374.48884
374.48871
374.48895
374.48911
374.4892
374.48925
374.48927
374.48925
374.4892
374.48911
374.48899
374.48882
374.48902
374.4892
374.48927
374.48933
374.48934
374.48932
374.48926
374.48917
374.48904
374.48887
374.48909
374.48925
374.48933
374.48938
374.48938
374.48936
374.48931
374.48921
374.48908
374.4889
374.4891
374.48927
374.48934
374.48938
374.48939
374.48936
374.48931
374.4892
374.48907
374.4889
374.48908
374.48925
374.48932
374.48936
374.48936
374.48934
374.48928
374.48917
374.48904
374.48886
374.48903
374.4892
374.48926
374.48931
374.48931
374.48928
374.48921
374.48911
374.48897
374.48879
374.48895
374.48911
374.48917
374.48921
374.4892
374.48917
374.48911
374.489
374.48886
374.48867
374.48884
374.48899
374.48904
374.48908
374.48907
374.48904
374.48897
374.48886
374.48871
374.48853
374.48871
374.48882
374.48887
374.4889
374.4889
374.48886
374.48879
374.48867
374.48853
374.48831
381.99849
381.99872
381.9988
381.99886
381.99887
381.99886
381.9988
381.99871
381.9986
381.99846
381.99872
381.99889
381.99898
381.99903
381.99905
381.99903
381.99897
381.99888
381.99876
381.99858
381.9988
381.99898
381.99905
381.99911
381.99912
381.9991
381.99904
381.99894
381.99881
381.99863
381.99886
381.99903
381.99911
381.99916
381.99917
381.99914
381.99908
381.99898
381.99884
381.99866
381.99887
381.99905
381.99912
381.99917
381.99917
381.99914
381.99908
381.99898
381.99884
381.99865
381.99886
381.99903
381.9991
381.99914
381.99914
381.99911
381.99905
381.99894
381.9988
381.99861
381.9988
381.99897
381.99904
381.99908
381.99908
381.99905
381.99898
381.99887
381.99873
381.99854
381.99871
381.99888
381.99894
381.99898
381.99898
381.99894
381.99887
381.99876
381.99861
381.99842
381.9986
381.99876
381.99881
381.99884
381.99884
381.9988
381.99873
381.99861
381.99846
381.99827
381.99846
381.99858
381.99863
381.99866
381.99865
381.99861
381.99854
381.99842
381.99827
381.99804
389.50672
389.50696
389.50703
389.5071
389.50711
389.50709
389.50704
389.50695
389.50683
389.50668
389.50696
389.50713
389.50722
389.50728
389.50729
389.50727
389.50721
389.50711
389.50699
389.5068
389.50703
389.50722
389.5073
389.50735
389.50736
389.50734
389.50728
389.50718
389.50704
389.50685
389.5071
389.50728
389.50735
389.50741
389.50741
389.50739
389.50732
389.50722
389.50708
389.50688
389.50711
389.50729
389.50736
389.50741
389.50742
389.50739
389.50732
389.50721
389.50707
389.50688
389.50709
389.50727
389.50734
389.50739
389.50739
389.50736
389.50729
389.50718
389.50703
389.50683
389.50704
389.50721
389.50728
389.50732
389.50732
389.50729
389.50722
389.5071
389.50696
389.50676
389.50695
389.50711
389.50718
389.50722
389.50721
389.50718
389.5071
389.50699
389.50683
389.50663
389.50683
389.50699
389.50704
389.50708
389.50707
389.50703
389.50696
389.50683
389.50667
389.50648
389.50668
389.5068
389.50685
389.50688
389.50688
389.50683
389.50676
389.50663
389.50648
389.50624
397.01337
397.01361
397.01369
397.01376
397.01377
397.01375
397.01369
397.01359
397.01347
397.01332
397.01361
397.01379
397.01388
397.01394
397.01395
397.01392
397.01387
397.01376
397.01363
397.01344
397.01369
397.01388
397.01396
397.01401
397.01402
397.014
397.01393
397.01383
397.01369
397.01349
397.01376
397.01394
397.01401
397.01406
397.01407
397.01404
397.01398
397.01387
397.01372
397.01352
397.01377
397.01395
397.01402
397.01407
397.01407
397.01404
397.01398
397.01386
397.01372
397.01352
397.01375
397.01392
397.014
397.01404
397.01404
397.01401
397.01394
397.01383
397.01368
397.01347
397.01369
397.01387
397.01393
397.01398
397.01398
397.01394
397.01387
397.01375
397.0136
397.01339
397.01359
397.01376
397.01383
397.01387
397.01386
397.01383
397.01375
397.01363
397.01347
397.01326
397.01347
397.01363
397.01369
397.01372
397.01372
397.01368
397.0136
397.01347
397.01331
397.0131
397.01332
397.01344
397.01349
397.01352
397.01352
397.01347
397.01339
397.01326
397.0131
397.01286
404.5184
404.51864
404.51872
404.51878
404.51879
404.51877
404.51871
404.51862
404.51849
404.51833
404.51864
404.51882
404.51891
404.51897
404.51898
404.51895
404.51889
404.51879
404.51865
404.51846
404.51872
404.51891
404.51899
404.51904
404.51905
404.51903
404.51896
404.51885
404.51871
404.51851
404.51878
404.51897
404.51904
404.5191
404.5191
404.51907
404.51901
404.51889
404.51875
404.51854
404.51879
404.51898
404.51905
404.5191
404.5191
404.51907
404.519
404.51889
404.51874
404.51853
404.51877
404.51895
404.51903
404.51907
404.51907
404.51904
404.51897
404.51885
404.51869
404.51849
404.51871
404.51889
404.51896
404.51901
404.519
404.51897
404.51889
404.51877
404.51861
404.51841
404.51862
404.51879
404.51885
404.51889
404.51889
404.51885
404.51877
404.51864
404.51849
404.51827
404.51849
404.51865
404.51871
404.51875
404.51874
404.51869
404.51861
404.51849
404.51832
404.51811
404.51833
404.51846
404.51851
404.51854
404.51853
404.51849
404.51841
404.51827
404.51811
404.51785
412.02177
412.02201
412.02209
412.02216
412.02216
412.02214
412.02208
412.02198
412.02185
412.0217
412.02201
412.02219
412.02228
412.02234
412.02235
412.02232
412.02226
412.02215
412.02202
412.02182
412.02209
412.02228
412.02236
412.02242
412.02242
412.0224
412.02233
412.02222
412.02207
412.02187
412.02216
412.02234
412.02242
412.02247
412.02247
412.02244
412.02238
412.02226
412.02211
412.0219
412.02216
412.02235
412.02242
412.02247
412.02248
412.02244
412.02237
412.02225
412.0221
412.02189
412.02214
412.02232
412.0224
412.02244
412.02244
412.02241
412.02233
412.02221
412.02206
412.02185
412.02208
412.02226
412.02233
412.02238
412.02237
412.02233
412.02226
412.02213
412.02197
412.02176
412.02198
412.02215
412.02222
412.02226
412.02225
412.02221
412.02213
412.02201
412.02184
412.02162
412.02185
412.02202
412.02207
412.02211
412.0221
412.02206
412.02197
412.02184
412.02167
412.02146
412.0217
412.02182
412.02187
412.0219
412.02189
412.02185
412.02176
412.02162
412.02146
412.0212
419.52346
419.5237
419.52378
419.52385
419.52386
419.52383
419.52377
419.52367
419.52354
419.52338
419.5237
419.52388
419.52397
419.52403
419.52404
419.52402
419.52395
419.52384
419.52371
419.52351
419.52378
419.52397
419.52405
419.52411
419.52412
419.52409
419.52402
419.52391
419.52376
419.52356
419.52385
419.52403
419.52411
419.52416
419.52417
419.52413
419.52407
419.52395
419.5238
419.52359
419.52386
419.52404
419.52412
419.52417
419.52417
419.52413
419.52406
419.52394
419.52379
419.52358
419.52383
419.52402
419.52409
419.52413
419.52413
419.5241
419.52402
419.5239
419.52374
419.52353
419.52377
419.52395
419.52402
419.52407
419.52406
419.52402
419.52395
419.52382
419.52366
419.52344
419.52367
419.52384
419.52391
419.52395
419.52394
419.5239
419.52382
419.52369
419.52352
419.5233
419.52354
419.52371
419.52376
419.5238
419.52379
419.52374
419.52366
419.52352
419.52335
419.52314
419.52338
419.52351
419.52356
419.52359
419.52358
419.52353
419.52344
419.5233
419.52314
419.52288
427.02347
427.02371
427.02379
427.02385
427.02386
427.02384
427.02378
427.02367
427.02354
427.02338
427.02371
427.02389
427.02398
427.02404
427.02404
427.02402
427.02395
427.02384
427.02371
427.02351
427.02379
427.02398
427.02406
427.02411
427.02412
427.02409
427.02402
427.02391
427.02376
427.02356
427.02385
427.02404
427.02411
427.02416
427.02417
427.02414
427.02407
427.02395
427.02379
427.02358
427.02386
427.02404
427.02412
427.02417
427.02417
427.02413
427.02406
427.02394
427.02378
427.02357
427.02384
427.02402
427.02409
427.02414
427.02413
427.0241
427.02402
427.0239
427.02374
427.02352
427.02378
427.02395
427.02402
427.02407
427.02406
427.02402
427.02394
427.02382
427.02365
427.02344
427.02367
427.02384
427.02391
427.02395
427.02394
427.0239
427.02382
427.02369
427.02352
427.0233
427.02354
427.02371
427.02376
427.02379
427.02378
427.02374
427.02365
427.02352
427.02335
427.02313
427.02338
427.02351
427.02356
427.02358
427.02357
427.02352
427.02344
427.0233
427.02313
427.02287
434.52179
434.52203
434.52211
434.52217
434.52218
434.52215
434.52209
434.52199
434.52186
434.5217
434.52203
434.52221
434.52229
434.52235
434.52236
434.52233
434.52227
434.52216
434.52202
434.52182
434.52211
434.52229
434.52237
434.52242
434.52243
434.5224
434.52233
434.52222
434.52207
434.52187
434.52217
434.52235
434.52242
434.52248
434.52248
434.52245
434.52238
434.52226
434.5221
434.52189
434.52218
434.52236
434.52243
434.52248
434.52248
434.52244
434.52237
434.52225
434.52209
434.52188
434.52215
434.52233
434.5224
434.52245
434.52244
434.52241
434.52233
434.52221
434.52205
434.52183
434.52209
434.52227
434.52233
434.52238
434.52237
434.52233
434.52225
434.52212
434.52196
434.52175
434.52199
434.52216
434.52222
434.52226
434.52225
434.52221
434.52212
434.52199
434.52183
434.52161
434.52186
434.52202
434.52207
434.5221
434.52209
434.52205
434.52196
434.52183
434.52165
434.52144
434.5217
434.52182
434.52187
434.52189
434.52188
434.52183
434.52175
434.52161
434.52144
434.52118
442.01844
442.01867
442.01875
442.01881
442.01881
442.01879
442.01873
442.01863
442.0185
442.01834
442.01867
442.01884
442.01893
442.01898
442.01899
442.01897
442.0189
442.01879
442.01866
442.01846
442.01875
442.01893
442.01901
442.01906
442.01906
442.01903
442.01897
442.01885
442.01871
442.0185
442.01881
442.01898
442.01906
442.01911
442.01911
442.01908
442.01901
442.01889
442.01874
442.01853
442.01881
442.01899
442.01906
442.01911
442.01911
442.01907
442.019
442.01888
442.01873
442.01852
442.01879
442.01897
442.01903
442.01908
442.01907
442.01904
442.01896
442.01884
442.01868
442.01847
442.01873
442.0189
442.01897
442.01901
442.019
442.01896
442.01888
442.01876
442.0186
442.01838
442.01863
442.01879
442.01885
442.01889
442.01888
442.01884
442.01876
442.01863
442.01846
442.01824
442.0185
442.01866
442.01871
442.01874
442.01873
442.01868
442.0186
442.01846
442.01829
442.01808
442.01834
442.01846
442.0185
442.01853
442.01852
442.01847
442.01838
442.01824
442.01808
442.01782
449.51343
449.51366
449.51373
449.51379
449.5138
449.51377
449.51371
449.51361
449.51348
449.51332
449.51366
449.51383
449.51391
449.51396
449.51397
449.51394
449.51388
449.51377
449.51363
449.51344
449.51373
449.51391
449.51398
449.51403
449.51404
449.51401
449.51394
449.51383
449.51368
449.51348
449.51379
449.51396
449.51403
449.51408
449.51408
449.51405
449.51398
449.51386
449.51371
449.51351
449.5138
449.51397
449.51404
449.51408
449.51408
449.51405
449.51397
449.51385
449.5137
449.51349
449.51377
449.51394
449.51401
449.51405
449.51405
449.51401
449.51393
449.51381
449.51366
449.51345
449.51371
449.51388
449.51394
449.51398
449.51397
449.51393
449.51386
449.51373
449.51357
449.51336
449.51361
449.51377
449.51383
449.51386
449.51385
449.51381
449.51373
449.5136
449.51344
449.51322
449.51348
449.51363
449.51368
449.51371
449.5137
449.51366
449.51357
449.51344
449.51327
449.51306
449.51332
449.51344
449.51348
449.51351
449.51349
449.51345
449.51336
449.51322
449.51306
449.5128
457.00679
457.00702
457.00709
457.00714
457.00715
457.00712
457.00706
457.00696
457.00684
457.00668
457.00702
457.00718
457.00726
457.00731
457.00732
457.00729
457.00723
457.00712
457.00699
457.0068
457.00709
457.00726
457.00733
457.00738
457.00738
457.00735
457.00729
457.00718
457.00703
457.00684
457.00714
457.00731
457.00738
457.00742
457.00743
457.00739
457.00733
457.00721
457.00706
457.00686
457.00715
457.00732
457.00738
457.00743
457.00742
457.00739
457.00732
457.0072
457.00705
457.00685
457.00712
457.00729
457.00735
457.00739
457.00739
457.00735
457.00728
457.00716
457.00701
457.0068
457.00706
457.00723
457.00729
457.00733
457.00732
457.00728
457.0072
457.00708
457.00692
457.00672
457.00696
457.00712
457.00718
457.00721
457.0072
457.00716
457.00708
457.00695
457.0068
457.00658
457.00684
457.00699
457.00703
457.00706
457.00705
457.00701
457.00692
457.0068
457.00663
457.00642
457.00668
457.0068
457.00684
457.00686
457.00685
457.0068
457.00672
457.00658
457.00642
457.00617
464.49858
464.49879
464.49886
464.49891
464.49892
464.49889
464.49883
464.49874
464.49861
464.49846
464.49879
464.49895
464.49903
464.49907
464.49908
464.49905
464.49899
464.49889
464.49876
464.49857
464.49886
464.49903
464.49909
464.49914
464.49914
464.49911
464.49905
464.49894
464.4988
464.49861
464.49891
464.49907
464.49914
464.49918
464.49918
464.49915
464.49908
464.49897
464.49883
464.49863
464.49892
464.49908
464.49914
464.49918
464.49918
464.49915
464.49908
464.49896
464.49882
464.49862
464.49889
464.49905
464.49911
464.49915
464.49915
464.49911
464.49904
464.49892
464.49877
464.49857
464.49883
464.49899
464.49905
464.49908
464.49908
464.49904
464.49896
464.49884
464.49869
464.49849
464.49874
464.49889
464.49894
464.49897
464.49896
464.49892
464.49884
464.49872
464.49857
464.49836
464.49861
464.49876
464.4988
464.49883
464.49882
464.49877
464.49869
464.49857
464.4984
464.4982
464.49846
464.49857
464.49861
464.49863
464.49862
464.49857
464.49849
464.49836
464.4982
464.49796
471.98883
471.98903
471.9891
471.98915
471.98915
471.98913
471.98907
471.98898
471.98886
471.98871
471.98903
471.98918
471.98926
471.9893
471.9893
471.98928
471.98922
471.98912
471.98899
471.98881
471.9891
471.98926
471.98932
471.98936
471.98936
471.98934
471.98927
471.98917
471.98903
471.98885
471.98915
471.9893
471.98936
471.9894
471.9894
471.98937
471.98931
471.9892
471.98906
471.98887
471.98915
471.9893
471.98936
471.9894
471.9894
471.98937
471.9893
471.98919
471.98905
471.98886
471.98913
471.98928
471.98934
471.98937
471.98937
471.98933
471.98926
471.98915
471.989
471.98881
471.98907
471.98922
471.98927
471.98931
471.9893
471.98926
471.98919
471.98907
471.98893
471.98873
471.98898
471.98912
471.98917
471.9892
471.98919
471.98915
471.98907
471.98895
471.9888
471.9886
471.98886
471.98899
471.98903
471.98906
471.98905
471.989
471.98893
471.9888
471.98865
471.98845
471.98871
471.98881
471.98885
471.98887
471.98886
471.98881
471.98873
471.9886
471.98845
471.98822
479.47761
479.4778
479.47786
479.47791
479.47791
479.47789
479.47783
479.47774
479.47763
479.47749
479.4778
479.47794
479.47801
479.47805
479.47806
479.47803
479.47797
479.47788
479.47776
479.47758
479.47786
479.47801
479.47807
479.47811
479.47811
479.47808
479.47802
479.47792
479.47779
479.47762
479.47791
479.47805
479.47811
479.47815
479.47815
479.47812
479.47805
479.47795
479.47782
479.47764
479.47791
479.47806
479.47811
479.47815
479.47814
479.47811
479.47805
479.47794
479.4778
479.47762
479.47789
479.47803
479.47808
479.47812
479.47811
479.47808
479.47801
479.4779
479.47776
479.47758
479.47783
479.47797
479.47802
479.47805
479.47805
479.47801
479.47794
479.47783
479.47769
479.4775
479.47774
479.47788
479.47792
479.47795
479.47794
479.4779
479.47783
479.47771
479.47757
479.47738
479.47763
479.47776
479.47779
479.47782
479.4778
479.47776
479.47769
479.47757
479.47742
479.47723
479.47749
479.47758
479.47762
479.47764
479.47762
479.47758
479.4775
479.47738
479.47723
479.47701
486.96498
486.96516
486.96522
486.96526
486.96527
486.96524
486.96519
486.9651
486.96499
486.96486
486.96516
486.9653
486.96536
486.9654
486.9654
486.96537
486.96532
486.96523
486.96511
486.96495
486.96522
486.96536
486.96542
486.96545
486.96545
486.96543
486.96537
486.96527
486.96515
486.96498
486.96526
486.9654
486.96545
486.96549
486.96549
486.96546
486.9654
486.9653
486.96517
486.965
486.96527
486.9654
486.96545
486.96549
486.96548
486.96545
486.96539
486.96529
486.96516
486.96498
486.96524
486.96537
486.96543
486.96546
486.96545
486.96541
486.96535
486.96525
486.96512
486.96494
486.96519
486.96532
486.96537
486.9654
486.96539
486.96535
486.96528
486.96518
486.96504
486.96487
486.9651
486.96523
486.96527
486.9653
486.96529
486.96525
486.96518
486.96507
486.96493
486.96475
486.96499
486.96511
486.96515
486.96517
486.96516
486.96512
486.96504
486.96493
486.96479
486.96461
486.96486
486.96495
486.96498
486.965
486.96498
486.96494
486.96487
486.96475
486.96461
486.9644
494.45103
494.4512
494.45125
494.45129
494.45129
494.45127
494.45122
494.45114
494.45103
494.45091
494.4512
494.45132
494.45138
494.45142
494.45142
494.45139
494.45134
494.45125
494.45115
494.45099
494.45125
494.45138
494.45143
494.45147
494.45146
494.45144
494.45138
494.45129
494.45118
494.45102
494.45129
494.45142
494.45147
494.4515
494.45149
494.45147
494.45141
494.45132
494.4512