/*--------------------------------*- C++ -*----------------------------------*\
| =========                 |                                                 |
| \\      /  F ield         | OpenFOAM: The Open Source CFD Toolbox           |
|  \\    /   O peration     | Version:  v2106                                 |
|   \\  /    A nd           | Website:  www.openfoam.com                      |
|    \\/     M anipulation  |                                                 |
\*---------------------------------------------------------------------------*/
FoamFile
{
    version     2.0;
    format      ascii;
    arch        "LSB;label=32;scalar=64";
    class       volVectorField;
    location    "10";
    object      U;
}
// * * * * * * * * * * * * * * * * * * * * * * * * * * * * * * * * * * * * * //

dimensions      [0 1 -1 0 0 0 0];

internalField   nonuniform List<vector> 
4000
(
(0 0 162.031)
(0 0 215.809)
(0 0 224.797)
(0 0 226.239)
(0 0 226.451)
(0 0 226.451)
(0 0 226.239)
(0 0 224.797)
(0 0 215.808)
(0 0 162.03)
(0 0 215.809)
(0 0 302.821)
(0 0 319.362)
(0 0 322.24)
(0 0 322.684)
(0 0 322.684)
(0 0 322.24)
(0 0 319.361)
(0 0 302.82)
(0 0 215.808)
(0 0 224.797)
(0 0 319.362)
(0 0 337.981)
(0 0 341.306)
(0 0 341.828)
(0 0 341.828)
(0 0 341.306)
(0 0 337.981)
(0 0 319.361)
(0 0 224.796)
(0 0 226.239)
(0 0 322.24)
(0 0 341.306)
(0 0 344.735)
(0 0 345.276)
(0 0 345.276)
(0 0 344.735)
(0 0 341.306)
(0 0 322.24)
(0 0 226.238)
(0 0 226.451)
(0 0 322.684)
(0 0 341.828)
(0 0 345.276)
(0 0 345.821)
(0 0 345.821)
(0 0 345.276)
(0 0 341.828)
(0 0 322.684)
(0 0 226.45)
(0 0 226.451)
(0 0 322.684)
(0 0 341.828)
(0 0 345.276)
(0 0 345.821)
(0 0 345.821)
(0 0 345.276)
(0 0 341.828)
(0 0 322.684)
(0 0 226.45)
(0 0 226.239)
(0 0 322.24)
(0 0 341.306)
(0 0 344.735)
(0 0 345.276)
(0 0 345.276)
(0 0 344.735)
(0 0 341.306)
(0 0 322.24)
(0 0 226.238)
(0 0 224.797)
(0 0 319.361)
(0 0 337.981)
(0 0 341.306)
(0 0 341.828)
(0 0 341.828)
(0 0 341.306)
(0 0 337.981)
(0 0 319.361)
(0 0 224.796)
(0 0 215.808)
(0 0 302.82)
(0 0 319.361)
(0 0 322.24)
(0 0 322.684)
(0 0 322.684)
(0 0 322.24)
(0 0 319.361)
(0 0 302.82)
(0 0 215.808)
(0 0 162.03)
(0 0 215.808)
(0 0 224.796)
(0 0 226.238)
(0 0 226.45)
(0 0 226.45)
(0 0 226.238)
(0 0 224.796)
(0 0 215.808)
(0 0 162.03)
(0 0 33.7987)
(0 0 56.6068)
(0 0 62.1736)
(0 0 63.2903)
(0 0 63.4781)
(0 0 63.4781)
(0 0 63.2903)
(0 0 62.1735)
(0 0 56.6065)
(0 0 33.7984)
(0 0 56.6068)
(0 0 99.3497)
(0 0 110.577)
(0 0 112.937)
(0 0 113.346)
(0 0 113.346)
(0 0 112.937)
(0 0 110.577)
(0 0 99.3497)
(0 0 56.6065)
(0 0 62.1736)
(0 0 110.577)
(0 0 123.592)
(0 0 126.376)
(0 0 126.864)
(0 0 126.864)
(0 0 126.376)
(0 0 123.592)
(0 0 110.577)
(0 0 62.1737)
(0 0 63.2903)
(0 0 112.937)
(0 0 126.376)
(0 0 129.264)
(0 0 129.773)
(0 0 129.773)
(0 0 129.265)
(0 0 126.376)
(0 0 112.938)
(0 0 63.2905)
(0 0 63.4781)
(0 0 113.346)
(0 0 126.864)
(0 0 129.773)
(0 0 130.286)
(0 0 130.286)
(0 0 129.773)
(0 0 126.864)
(0 0 113.347)
(0 0 63.4784)
(0 0 63.4781)
(0 0 113.346)
(0 0 126.864)
(0 0 129.773)
(0 0 130.286)
(0 0 130.286)
(0 0 129.773)
(0 0 126.864)
(0 0 113.347)
(0 0 63.4784)
(0 0 63.2903)
(0 0 112.937)
(0 0 126.376)
(0 0 129.265)
(0 0 129.773)
(0 0 129.773)
(0 0 129.265)
(0 0 126.376)
(0 0 112.938)
(0 0 63.2906)
(0 0 62.1735)
(0 0 110.577)
(0 0 123.592)
(0 0 126.376)
(0 0 126.864)
(0 0 126.864)
(0 0 126.376)
(0 0 123.593)
(0 0 110.578)
(0 0 62.174)
(0 0 56.6065)
(0 0 99.3497)
(0 0 110.577)
(0 0 112.938)
(0 0 113.347)
(0 0 113.347)
(0 0 112.938)
(0 0 110.578)
(0 0 99.3507)
(0 0 56.6072)
(0 0 33.7984)
(0 0 56.6065)
(0 0 62.1737)
(0 0 63.2905)
(0 0 63.4784)
(0 0 63.4784)
(0 0 63.2906)
(0 0 62.174)
(0 0 56.6072)
(0 0 33.7989)
(0 0 6.92423)
(0 0 13.2269)
(0 0 15.0799)
(0 0 15.4983)
(0 0 15.5743)
(0 0 15.5743)
(0 0 15.4983)
(0 0 15.0799)
(0 0 13.227)
(0 0 6.92422)
(0 0 13.2269)
(0 0 26.0197)
(0 0 29.9471)
(0 0 30.8604)
(0 0 31.0297)
(0 0 31.0297)
(0 0 30.8605)
(0 0 29.9473)
(0 0 26.0202)
(0 0 13.2272)
(0 0 15.0799)
(0 0 29.9471)
(0 0 34.5833)
(0 0 35.6743)
(0 0 35.8783)
(0 0 35.8783)
(0 0 35.6745)
(0 0 34.5837)
(0 0 29.9479)
(0 0 15.0805)
(0 0 15.4983)
(0 0 30.8604)
(0 0 35.6743)
(0 0 36.8116)
(0 0 37.0249)
(0 0 37.0249)
(0 0 36.8118)
(0 0 35.6748)
(0 0 30.8614)
(0 0 15.499)
(0 0 15.5743)
(0 0 31.0297)
(0 0 35.8783)
(0 0 37.0249)
(0 0 37.2401)
(0 0 37.2401)
(0 0 37.0251)
(0 0 35.8788)
(0 0 31.0307)
(0 0 15.5751)
(0 0 15.5743)
(0 0 31.0297)
(0 0 35.8783)
(0 0 37.0249)
(0 0 37.2401)
(0 0 37.2402)
(0 0 37.0251)
(0 0 35.8788)
(0 0 31.0307)
(0 0 15.5751)
(0 0 15.4983)
(0 0 30.8605)
(0 0 35.6745)
(0 0 36.8118)
(0 0 37.0251)
(0 0 37.0251)
(0 0 36.8119)
(0 0 35.675)
(0 0 30.8615)
(0 0 15.4991)
(0 0 15.0799)
(0 0 29.9473)
(0 0 34.5837)
(0 0 35.6748)
(0 0 35.8788)
(0 0 35.8788)
(0 0 35.675)
(0 0 34.5843)
(0 0 29.9484)
(0 0 15.0807)
(0 0 13.227)
(0 0 26.0202)
(0 0 29.9479)
(0 0 30.8614)
(0 0 31.0307)
(0 0 31.0307)
(0 0 30.8615)
(0 0 29.9484)
(0 0 26.0212)
(0 0 13.2277)
(0 0 6.92422)
(0 0 13.2272)
(0 0 15.0805)
(0 0 15.499)
(0 0 15.5751)
(0 0 15.5751)
(0 0 15.4991)
(0 0 15.0807)
(0 0 13.2277)
(0 0 6.92468)
(0 0 1.30165)
(0 0 2.6778)
(0 0 3.12843)
(0 0 3.23809)
(0 0 3.25908)
(0 0 3.25908)
(0 0 3.2381)
(0 0 3.12847)
(0 0 2.67788)
(0 0 1.30171)
(0 0 2.6778)
(0 0 5.60664)
(0 0 6.59194)
(0 0 6.83646)
(0 0 6.88393)
(0 0 6.88394)
(0 0 6.83652)
(0 0 6.59209)
(0 0 5.60696)
(0 0 2.67804)
(0 0 3.12843)
(0 0 6.59194)
(0 0 7.76975)
(0 0 8.06458)
(0 0 8.12218)
(0 0 8.1222)
(0 0 8.06465)
(0 0 7.76998)
(0 0 6.5924)
(0 0 3.12879)
(0 0 3.23809)
(0 0 6.83646)
(0 0 8.06458)
(0 0 8.37293)
(0 0 8.43332)
(0 0 8.43334)
(0 0 8.37301)
(0 0 8.06484)
(0 0 6.83699)
(0 0 3.23851)
(0 0 3.25908)
(0 0 6.88393)
(0 0 8.12218)
(0 0 8.43332)
(0 0 8.49431)
(0 0 8.49432)
(0 0 8.43341)
(0 0 8.12245)
(0 0 6.88448)
(0 0 3.25951)
(0 0 3.25908)
(0 0 6.88394)
(0 0 8.1222)
(0 0 8.43334)
(0 0 8.49432)
(0 0 8.49434)
(0 0 8.43343)
(0 0 8.12247)
(0 0 6.88449)
(0 0 3.25952)
(0 0 3.2381)
(0 0 6.83652)
(0 0 8.06465)
(0 0 8.37301)
(0 0 8.43341)
(0 0 8.43343)
(0 0 8.3731)
(0 0 8.06492)
(0 0 6.83707)
(0 0 3.23854)
(0 0 3.12847)
(0 0 6.59209)
(0 0 7.76998)
(0 0 8.06484)
(0 0 8.12245)
(0 0 8.12247)
(0 0 8.06492)
(0 0 7.77025)
(0 0 6.59264)
(0 0 3.12892)
(0 0 2.67788)
(0 0 5.60696)
(0 0 6.5924)
(0 0 6.83699)
(0 0 6.88448)
(0 0 6.88449)
(0 0 6.83707)
(0 0 6.59264)
(0 0 5.60746)
(0 0 2.67829)
(0 0 1.30171)
(0 0 2.67804)
(0 0 3.12879)
(0 0 3.23851)
(0 0 3.25951)
(0 0 3.25952)
(0 0 3.23854)
(0 0 3.12892)
(0 0 2.67829)
(0 0 1.30192)
(0 0 0.218307)
(0 0 0.469171)
(0 0 0.557126)
(0 0 0.579655)
(0 0 0.584132)
(0 0 0.584134)
(0 0 0.579661)
(0 0 0.557145)
(0 0 0.469209)
(0 0 0.218335)
(0 0 0.469171)
(0 0 1.01936)
(0 0 1.21574)
(0 0 1.26674)
(0 0 1.27698)
(0 0 1.27699)
(0 0 1.26676)
(0 0 1.2158)
(0 0 1.01948)
(0 0 0.469266)
(0 0 0.557126)
(0 0 1.21574)
(0 0 1.45265)
(0 0 1.51458)
(0 0 1.52708)
(0 0 1.52709)
(0 0 1.51461)
(0 0 1.45273)
(0 0 1.21591)
(0 0 0.557262)
(0 0 0.579655)
(0 0 1.26674)
(0 0 1.51458)
(0 0 1.57952)
(0 0 1.59266)
(0 0 1.59266)
(0 0 1.57955)
(0 0 1.51467)
(0 0 1.26693)
(0 0 0.579807)
(0 0 0.584132)
(0 0 1.27698)
(0 0 1.52708)
(0 0 1.59266)
(0 0 1.60593)
(0 0 1.60594)
(0 0 1.59269)
(0 0 1.52717)
(0 0 1.27717)
(0 0 0.584289)
(0 0 0.584134)
(0 0 1.27699)
(0 0 1.52709)
(0 0 1.59266)
(0 0 1.60594)
(0 0 1.60594)
(0 0 1.59269)
(0 0 1.52718)
(0 0 1.27718)
(0 0 0.584292)
(0 0 0.579661)
(0 0 1.26676)
(0 0 1.51461)
(0 0 1.57955)
(0 0 1.59269)
(0 0 1.59269)
(0 0 1.57958)
(0 0 1.5147)
(0 0 1.26695)
(0 0 0.579819)
(0 0 0.557145)
(0 0 1.2158)
(0 0 1.45273)
(0 0 1.51467)
(0 0 1.52717)
(0 0 1.52718)
(0 0 1.5147)
(0 0 1.45282)
(0 0 1.21599)
(0 0 0.557301)
(0 0 0.469209)
(0 0 1.01948)
(0 0 1.21591)
(0 0 1.26693)
(0 0 1.27717)
(0 0 1.27718)
(0 0 1.26695)
(0 0 1.21599)
(0 0 1.01965)
(0 0 0.469347)
(0 0 0.218335)
(0 0 0.469266)
(0 0 0.557262)
(0 0 0.579807)
(0 0 0.584289)
(0 0 0.584292)
(0 0 0.579819)
(0 0 0.557301)
(0 0 0.469347)
(0 0 0.218404)
(0 0 0.0325005)
(0 0 0.0717972)
(0 0 0.0862308)
(0 0 0.0900679)
(0 0 0.0908527)
(0 0 0.0908531)
(0 0 0.0900696)
(0 0 0.0862362)
(0 0 0.0718082)
(0 0 0.0325091)
(0 0 0.0717972)
(0 0 0.159743)
(0 0 0.192451)
(0 0 0.201236)
(0 0 0.203048)
(0 0 0.203049)
(0 0 0.201241)
(0 0 0.192467)
(0 0 0.159775)
(0 0 0.0718234)
(0 0 0.0862308)
(0 0 0.192451)
(0 0 0.232188)
(0 0 0.242915)
(0 0 0.245136)
(0 0 0.245138)
(0 0 0.242922)
(0 0 0.23221)
(0 0 0.192495)
(0 0 0.086267)
(0 0 0.0900679)
(0 0 0.201236)
(0 0 0.242915)
(0 0 0.254189)
(0 0 0.256527)
(0 0 0.256529)
(0 0 0.254197)
(0 0 0.242939)
(0 0 0.201285)
(0 0 0.090108)
(0 0 0.0908527)
(0 0 0.203048)
(0 0 0.245136)
(0 0 0.256527)
(0 0 0.258891)
(0 0 0.258893)
(0 0 0.256535)
(0 0 0.245161)
(0 0 0.203097)
(0 0 0.0908939)
(0 0 0.0908531)
(0 0 0.203049)
(0 0 0.245138)
(0 0 0.256529)
(0 0 0.258893)
(0 0 0.258894)
(0 0 0.256537)
(0 0 0.245162)
(0 0 0.203099)
(0 0 0.0908945)
(0 0 0.0900696)
(0 0 0.201241)
(0 0 0.242922)
(0 0 0.254197)
(0 0 0.256535)
(0 0 0.256537)
(0 0 0.254205)
(0 0 0.242947)
(0 0 0.201291)
(0 0 0.090111)
(0 0 0.0862362)
(0 0 0.192467)
(0 0 0.23221)
(0 0 0.242939)
(0 0 0.245161)
(0 0 0.245162)
(0 0 0.242947)
(0 0 0.232233)
(0 0 0.192515)
(0 0 0.0862765)
(0 0 0.0718082)
(0 0 0.159775)
(0 0 0.192495)
(0 0 0.201285)
(0 0 0.203097)
(0 0 0.203099)
(0 0 0.201291)
(0 0 0.192515)
(0 0 0.159816)
(0 0 0.0718431)
(0 0 0.0325091)
(0 0 0.0718234)
(0 0 0.086267)
(0 0 0.090108)
(0 0 0.0908939)
(0 0 0.0908945)
(0 0 0.090111)
(0 0 0.0862765)
(0 0 0.0718431)
(0 0 0.0325259)
(0 0 0.0043149)
(0 0 0.00971028)
(0 0 0.0117596)
(0 0 0.0123201)
(0 0 0.0124374)
(0 0 0.0124375)
(0 0 0.0123205)
(0 0 0.0117608)
(0 0 0.00971268)
(0 0 0.00431684)
(0 0 0.00971028)
(0 0 0.0219601)
(0 0 0.0266561)
(0 0 0.0279506)
(0 0 0.0282233)
(0 0 0.0282235)
(0 0 0.0279517)
(0 0 0.0266594)
(0 0 0.0219669)
(0 0 0.00971587)
(0 0 0.0117596)
(0 0 0.0266561)
(0 0 0.0323928)
(0 0 0.0339807)
(0 0 0.0343163)
(0 0 0.0343166)
(0 0 0.0339822)
(0 0 0.0323972)
(0 0 0.0266652)
(0 0 0.0117672)
(0 0 0.0123201)
(0 0 0.0279506)
(0 0 0.0339807)
(0 0 0.0356526)
(0 0 0.0360065)
(0 0 0.0360068)
(0 0 0.0356542)
(0 0 0.0339856)
(0 0 0.0279606)
(0 0 0.0123285)
(0 0 0.0124374)
(0 0 0.0282233)
(0 0 0.0343163)
(0 0 0.0360065)
(0 0 0.0363644)
(0 0 0.0363647)
(0 0 0.0360081)
(0 0 0.0343213)
(0 0 0.0282335)
(0 0 0.012446)
(0 0 0.0124375)
(0 0 0.0282235)
(0 0 0.0343166)
(0 0 0.0360068)
(0 0 0.0363647)
(0 0 0.036365)
(0 0 0.0360084)
(0 0 0.0343216)
(0 0 0.0282338)
(0 0 0.0124461)
(0 0 0.0123205)
(0 0 0.0279517)
(0 0 0.0339822)
(0 0 0.0356542)
(0 0 0.0360081)
(0 0 0.0360084)
(0 0 0.0356558)
(0 0 0.0339872)
(0 0 0.0279619)
(0 0 0.0123291)
(0 0 0.0117608)
(0 0 0.0266594)
(0 0 0.0323972)
(0 0 0.0339856)
(0 0 0.0343213)
(0 0 0.0343216)
(0 0 0.0339872)
(0 0 0.0324021)
(0 0 0.0266693)
(0 0 0.0117691)
(0 0 0.00971268)
(0 0 0.0219669)
(0 0 0.0266652)
(0 0 0.0279606)
(0 0 0.0282335)
(0 0 0.0282338)
(0 0 0.0279619)
(0 0 0.0266693)
(0 0 0.0219753)
(0 0 0.00971976)
(0 0 0.00431684)
(0 0 0.00971587)
(0 0 0.0117672)
(0 0 0.0123285)
(0 0 0.012446)
(0 0 0.0124461)
(0 0 0.0123291)
(0 0 0.0117691)
(0 0 0.00971976)
(0 0 0.00432016)
(0 0 0.000514883)
(0 0 0.00117412)
(0 0 0.00143098)
(0 0 0.00150282)
(0 0 0.00151814)
(0 0 0.00151815)
(0 0 0.00150289)
(0 0 0.00143119)
(0 0 0.00117455)
(0 0 0.000515234)
(0 0 0.00117412)
(0 0 0.00268706)
(0 0 0.00328074)
(0 0 0.00344785)
(0 0 0.00348367)
(0 0 0.0034837)
(0 0 0.00344804)
(0 0 0.00328131)
(0 0 0.00268824)
(0 0 0.0011751)
(0 0 0.00143098)
(0 0 0.00328074)
(0 0 0.00400926)
(0 0 0.00421503)
(0 0 0.00425927)
(0 0 0.00425932)
(0 0 0.00421528)
(0 0 0.00401003)
(0 0 0.00328231)
(0 0 0.00143229)
(0 0 0.00150282)
(0 0 0.00344785)
(0 0 0.00421503)
(0 0 0.00443204)
(0 0 0.00447875)
(0 0 0.0044788)
(0 0 0.00443231)
(0 0 0.00421587)
(0 0 0.00344957)
(0 0 0.00150426)
(0 0 0.00151814)
(0 0 0.00348367)
(0 0 0.00425927)
(0 0 0.00447875)
(0 0 0.00452601)
(0 0 0.00452606)
(0 0 0.00447903)
(0 0 0.00426013)
(0 0 0.00348543)
(0 0 0.00151961)
(0 0 0.00151815)
(0 0 0.0034837)
(0 0 0.00425932)
(0 0 0.0044788)
(0 0 0.00452606)
(0 0 0.00452612)
(0 0 0.00447908)
(0 0 0.00426018)
(0 0 0.00348547)
(0 0 0.00151963)
(0 0 0.00150289)
(0 0 0.00344804)
(0 0 0.00421528)
(0 0 0.00443231)
(0 0 0.00447903)
(0 0 0.00447908)
(0 0 0.00443259)
(0 0 0.00421614)
(0 0 0.00344979)
(0 0 0.00150436)
(0 0 0.00143119)
(0 0 0.00328131)
(0 0 0.00401003)
(0 0 0.00421587)
(0 0 0.00426013)
(0 0 0.00426018)
(0 0 0.00421614)
(0 0 0.00401085)
(0 0 0.003283)
(0 0 0.00143261)
(0 0 0.00117455)
(0 0 0.00268824)
(0 0 0.00328231)
(0 0 0.00344957)
(0 0 0.00348543)
(0 0 0.00348547)
(0 0 0.00344979)
(0 0 0.003283)
(0 0 0.00268966)
(0 0 0.00117575)
(0 0 0.000515234)
(0 0 0.0011751)
(0 0 0.00143229)
(0 0 0.00150426)
(0 0 0.00151961)
(0 0 0.00151963)
(0 0 0.00150436)
(0 0 0.00143261)
(0 0 0.00117575)
(0 0 0.000515787)
(0 0 5.56849e-05)
(0 0 0.00012825)
(0 0 0.000157097)
(0 0 0.000165316)
(0 0 0.000167096)
(0 0 0.000167098)
(0 0 0.000165326)
(0 0 0.000157129)
(0 0 0.000128315)
(0 0 5.57385e-05)
(0 0 0.00012825)
(0 0 0.000296187)
(0 0 0.000363328)
(0 0 0.000382558)
(0 0 0.000386741)
(0 0 0.000386746)
(0 0 0.000382586)
(0 0 0.000363414)
(0 0 0.000296363)
(0 0 0.000128396)
(0 0 0.000157097)
(0 0 0.000363328)
(0 0 0.000446031)
(0 0 0.000469787)
(0 0 0.000474969)
(0 0 0.000474976)
(0 0 0.000469824)
(0 0 0.000446145)
(0 0 0.000363561)
(0 0 0.000157292)
(0 0 0.000165316)
(0 0 0.000382558)
(0 0 0.000469787)
(0 0 0.000494875)
(0 0 0.000500353)
(0 0 0.000500361)
(0 0 0.000494915)
(0 0 0.000469911)
(0 0 0.000382811)
(0 0 0.000165529)
(0 0 0.000167096)
(0 0 0.000386741)
(0 0 0.000474969)
(0 0 0.000500353)
(0 0 0.000505898)
(0 0 0.000505906)
(0 0 0.000500394)
(0 0 0.000475096)
(0 0 0.000387)
(0 0 0.000167314)
(0 0 0.000167098)
(0 0 0.000386746)
(0 0 0.000474976)
(0 0 0.000500361)
(0 0 0.000505906)
(0 0 0.000505914)
(0 0 0.000500402)
(0 0 0.000475104)
(0 0 0.000387007)
(0 0 0.000167317)
(0 0 0.000165326)
(0 0 0.000382586)
(0 0 0.000469824)
(0 0 0.000494915)
(0 0 0.000500394)
(0 0 0.000500402)
(0 0 0.000494956)
(0 0 0.000469951)
(0 0 0.000382844)
(0 0 0.000165543)
(0 0 0.000157129)
(0 0 0.000363414)
(0 0 0.000446145)
(0 0 0.000469911)
(0 0 0.000475096)
(0 0 0.000475104)
(0 0 0.000469951)
(0 0 0.000446267)
(0 0 0.000363662)
(0 0 0.000157338)
(0 0 0.000128315)
(0 0 0.000296363)
(0 0 0.000363561)
(0 0 0.000382811)
(0 0 0.000387)
(0 0 0.000387007)
(0 0 0.000382844)
(0 0 0.000363662)
(0 0 0.000296569)
(0 0 0.000128489)
(0 0 5.57385e-05)
(0 0 0.000128396)
(0 0 0.000157292)
(0 0 0.000165529)
(0 0 0.000167314)
(0 0 0.000167317)
(0 0 0.000165543)
(0 0 0.000157338)
(0 0 0.000128489)
(0 0 5.58181e-05)
(0 0 5.50177e-06)
(0 0 1.27704e-05)
(0 0 1.57078e-05)
(0 0 1.65578e-05)
(0 0 1.67444e-05)
(0 0 1.67447e-05)
(0 0 1.65592e-05)
(0 0 1.57121e-05)
(0 0 1.2779e-05)
(0 0 5.50888e-06)
(0 0 1.27704e-05)
(0 0 2.97067e-05)
(0 0 3.6583e-05)
(0 0 3.85816e-05)
(0 0 3.90221e-05)
(0 0 3.90228e-05)
(0 0 3.85853e-05)
(0 0 3.65942e-05)
(0 0 2.97295e-05)
(0 0 1.27896e-05)
(0 0 1.57078e-05)
(0 0 3.6583e-05)
(0 0 4.50807e-05)
(0 0 4.75569e-05)
(0 0 4.81039e-05)
(0 0 4.81048e-05)
(0 0 4.75617e-05)
(0 0 4.50955e-05)
(0 0 3.66132e-05)
(0 0 1.57332e-05)
(0 0 1.65578e-05)
(0 0 3.85816e-05)
(0 0 4.75569e-05)
(0 0 5.01752e-05)
(0 0 5.07541e-05)
(0 0 5.07552e-05)
(0 0 5.01804e-05)
(0 0 4.7573e-05)
(0 0 3.86144e-05)
(0 0 1.65854e-05)
(0 0 1.67444e-05)
(0 0 3.90221e-05)
(0 0 4.81039e-05)
(0 0 5.07541e-05)
(0 0 5.13403e-05)
(0 0 5.13414e-05)
(0 0 5.07595e-05)
(0 0 4.81203e-05)
(0 0 3.90556e-05)
(0 0 1.67726e-05)
(0 0 1.67447e-05)
(0 0 3.90228e-05)
(0 0 4.81048e-05)
(0 0 5.07552e-05)
(0 0 5.13414e-05)
(0 0 5.13425e-05)
(0 0 5.07606e-05)
(0 0 4.81213e-05)
(0 0 3.90564e-05)
(0 0 1.6773e-05)
(0 0 1.65592e-05)
(0 0 3.85853e-05)
(0 0 4.75617e-05)
(0 0 5.01804e-05)
(0 0 5.07595e-05)
(0 0 5.07606e-05)
(0 0 5.01858e-05)
(0 0 4.75781e-05)
(0 0 3.86186e-05)
(0 0 1.65873e-05)
(0 0 1.57121e-05)
(0 0 3.65942e-05)
(0 0 4.50955e-05)
(0 0 4.7573e-05)
(0 0 4.81203e-05)
(0 0 4.81213e-05)
(0 0 4.75781e-05)
(0 0 4.51112e-05)
(0 0 3.66261e-05)
(0 0 1.5739e-05)
(0 0 1.2779e-05)
(0 0 2.97295e-05)
(0 0 3.66132e-05)
(0 0 3.86144e-05)
(0 0 3.90556e-05)
(0 0 3.90564e-05)
(0 0 3.86186e-05)
(0 0 3.66261e-05)
(0 0 2.9756e-05)
(0 0 1.28014e-05)
(0 0 5.50888e-06)
(0 0 1.27896e-05)
(0 0 1.57332e-05)
(0 0 1.65854e-05)
(0 0 1.67726e-05)
(0 0 1.6773e-05)
(0 0 1.65873e-05)
(0 0 1.5739e-05)
(0 0 1.28014e-05)
(0 0 5.51895e-06)
(0 0 5.00173e-07)
(0 0 1.16835e-06)
(0 0 1.44213e-06)
(0 0 1.52242e-06)
(0 0 1.54025e-06)
(0 0 1.54029e-06)
(0 0 1.52258e-06)
(0 0 1.44263e-06)
(0 0 1.16936e-06)
(0 0 5.01007e-07)
(0 0 1.16835e-06)
(0 0 2.73404e-06)
(0 0 3.37811e-06)
(0 0 3.56771e-06)
(0 0 3.60998e-06)
(0 0 3.61007e-06)
(0 0 3.56814e-06)
(0 0 3.37941e-06)
(0 0 2.73669e-06)
(0 0 1.17058e-06)
(0 0 1.44213e-06)
(0 0 3.37811e-06)
(0 0 4.17631e-06)
(0 0 4.41182e-06)
(0 0 4.46443e-06)
(0 0 4.46455e-06)
(0 0 4.41239e-06)
(0 0 4.17802e-06)
(0 0 3.3816e-06)
(0 0 1.44506e-06)
(0 0 1.52242e-06)
(0 0 3.56771e-06)
(0 0 4.41182e-06)
(0 0 4.66114e-06)
(0 0 4.71688e-06)
(0 0 4.71701e-06)
(0 0 4.66175e-06)
(0 0 4.41369e-06)
(0 0 3.5715e-06)
(0 0 1.5256e-06)
(0 0 1.54025e-06)
(0 0 3.60998e-06)
(0 0 4.46443e-06)
(0 0 4.71688e-06)
(0 0 4.77334e-06)
(0 0 4.77347e-06)
(0 0 4.71751e-06)
(0 0 4.46634e-06)
(0 0 3.61385e-06)
(0 0 1.54351e-06)
(0 0 1.54029e-06)
(0 0 3.61007e-06)
(0 0 4.46455e-06)
(0 0 4.71701e-06)
(0 0 4.77347e-06)
(0 0 4.77359e-06)
(0 0 4.71763e-06)
(0 0 4.46646e-06)
(0 0 3.61395e-06)
(0 0 1.54355e-06)
(0 0 1.52258e-06)
(0 0 3.56814e-06)
(0 0 4.41239e-06)
(0 0 4.66175e-06)
(0 0 4.71751e-06)
(0 0 4.71763e-06)
(0 0 4.66237e-06)
(0 0 4.41428e-06)
(0 0 3.57199e-06)
(0 0 1.52582e-06)
(0 0 1.44263e-06)
(0 0 3.37941e-06)
(0 0 4.17802e-06)
(0 0 4.41369e-06)
(0 0 4.46634e-06)
(0 0 4.46646e-06)
(0 0 4.41428e-06)
(0 0 4.17983e-06)
(0 0 3.38308e-06)
(0 0 1.44572e-06)
(0 0 1.16936e-06)
(0 0 2.73669e-06)
(0 0 3.3816e-06)
(0 0 3.5715e-06)
(0 0 3.61385e-06)
(0 0 3.61395e-06)
(0 0 3.57199e-06)
(0 0 3.38308e-06)
(0 0 2.73972e-06)
(0 0 1.17192e-06)
(0 0 5.01007e-07)
(0 0 1.17058e-06)
(0 0 1.44506e-06)
(0 0 1.5256e-06)
(0 0 1.54351e-06)
(0 0 1.54355e-06)
(0 0 1.52582e-06)
(0 0 1.44572e-06)
(0 0 1.17192e-06)
(0 0 5.02149e-07)
(0 0 4.21077e-08)
(0 0 9.88829e-08)
(0 0 1.22424e-07)
(0 0 1.29409e-07)
(0 0 1.30977e-07)
(0 0 1.30981e-07)
(0 0 1.29426e-07)
(0 0 1.22476e-07)
(0 0 9.89889e-08)
(0 0 4.21958e-08)
(0 0 9.88829e-08)
(0 0 2.32562e-07)
(0 0 2.8818e-07)
(0 0 3.0474e-07)
(0 0 3.08469e-07)
(0 0 3.08478e-07)
(0 0 3.04785e-07)
(0 0 2.88317e-07)
(0 0 2.32839e-07)
(0 0 9.91155e-08)
(0 0 1.22424e-07)
(0 0 2.8818e-07)
(0 0 3.57284e-07)
(0 0 3.77901e-07)
(0 0 3.82553e-07)
(0 0 3.82565e-07)
(0 0 3.7796e-07)
(0 0 3.57463e-07)
(0 0 2.88544e-07)
(0 0 1.2273e-07)
(0 0 1.29409e-07)
(0 0 3.0474e-07)
(0 0 3.77901e-07)
(0 0 3.99749e-07)
(0 0 4.04683e-07)
(0 0 4.04696e-07)
(0 0 3.99813e-07)
(0 0 3.78096e-07)
(0 0 3.05135e-07)
(0 0 1.29741e-07)
(0 0 1.30977e-07)
(0 0 3.08469e-07)
(0 0 3.82553e-07)
(0 0 4.04683e-07)
(0 0 4.09682e-07)
(0 0 4.09695e-07)
(0 0 4.04748e-07)
(0 0 3.82752e-07)
(0 0 3.08872e-07)
(0 0 1.31316e-07)
(0 0 1.30981e-07)
(0 0 3.08478e-07)
(0 0 3.82565e-07)
(0 0 4.04696e-07)
(0 0 4.09695e-07)
(0 0 4.09709e-07)
(0 0 4.04761e-07)
(0 0 3.82764e-07)
(0 0 3.08882e-07)
(0 0 1.3132e-07)
(0 0 1.29426e-07)
(0 0 3.04785e-07)
(0 0 3.7796e-07)
(0 0 3.99813e-07)
(0 0 4.04748e-07)
(0 0 4.04761e-07)
(0 0 3.99878e-07)
(0 0 3.78158e-07)
(0 0 3.05185e-07)
(0 0 1.29763e-07)
(0 0 1.22476e-07)
(0 0 2.88317e-07)
(0 0 3.57463e-07)
(0 0 3.78096e-07)
(0 0 3.82752e-07)
(0 0 3.82764e-07)
(0 0 3.78158e-07)
(0 0 3.57652e-07)
(0 0 2.88698e-07)
(0 0 1.22797e-07)
(0 0 9.89889e-08)
(0 0 2.32839e-07)
(0 0 2.88544e-07)
(0 0 3.05135e-07)
(0 0 3.08872e-07)
(0 0 3.08882e-07)
(0 0 3.05185e-07)
(0 0 2.88698e-07)
(0 0 2.33152e-07)
(0 0 9.92533e-08)
(0 0 4.21958e-08)
(0 0 9.91155e-08)
(0 0 1.2273e-07)
(0 0 1.29741e-07)
(0 0 1.31316e-07)
(0 0 1.3132e-07)
(0 0 1.29763e-07)
(0 0 1.22797e-07)
(0 0 9.92533e-08)
(0 0 4.23129e-08)
(0 0 3.30125e-09)
(0 0 7.78788e-09)
(0 0 9.66769e-09)
(0 0 1.02314e-08)
(0 0 1.03592e-08)
(0 0 1.03595e-08)
(0 0 1.0233e-08)
(0 0 9.67275e-09)
(0 0 7.79806e-09)
(0 0 3.3097e-09)
(0 0 7.78788e-09)
(0 0 1.83963e-08)
(0 0 2.28545e-08)
(0 0 2.41955e-08)
(0 0 2.45004e-08)
(0 0 2.45012e-08)
(0 0 2.41998e-08)
(0 0 2.28677e-08)
(0 0 1.84228e-08)
(0 0 7.81007e-09)
(0 0 9.66769e-09)
(0 0 2.28545e-08)
(0 0 2.84065e-08)
(0 0 3.00796e-08)
(0 0 3.04606e-08)
(0 0 3.04617e-08)
(0 0 3.00852e-08)
(0 0 2.84237e-08)
(0 0 2.28892e-08)
(0 0 9.69679e-09)
(0 0 1.02314e-08)
(0 0 2.41955e-08)
(0 0 3.00796e-08)
(0 0 3.18543e-08)
(0 0 3.22587e-08)
(0 0 3.226e-08)
(0 0 3.18604e-08)
(0 0 3.00982e-08)
(0 0 2.42331e-08)
(0 0 1.02629e-08)
(0 0 1.03592e-08)
(0 0 2.45004e-08)
(0 0 3.04606e-08)
(0 0 3.22587e-08)
(0 0 3.26687e-08)
(0 0 3.26699e-08)
(0 0 3.2265e-08)
(0 0 3.04796e-08)
(0 0 2.45387e-08)
(0 0 1.03913e-08)
(0 0 1.03595e-08)
(0 0 2.45012e-08)
(0 0 3.04617e-08)
(0 0 3.226e-08)
(0 0 3.26699e-08)
(0 0 3.26712e-08)
(0 0 3.22662e-08)
(0 0 3.04808e-08)
(0 0 2.45397e-08)
(0 0 1.03918e-08)
(0 0 1.0233e-08)
(0 0 2.41998e-08)
(0 0 3.00852e-08)
(0 0 3.18604e-08)
(0 0 3.2265e-08)
(0 0 3.22662e-08)
(0 0 3.18666e-08)
(0 0 3.01041e-08)
(0 0 2.42379e-08)
(0 0 1.0265e-08)
(0 0 9.67275e-09)
(0 0 2.28677e-08)
(0 0 2.84237e-08)
(0 0 3.00982e-08)
(0 0 3.04796e-08)
(0 0 3.04808e-08)
(0 0 3.01041e-08)
(0 0 2.84416e-08)
(0 0 2.29039e-08)
(0 0 9.70316e-09)
(0 0 7.79806e-09)
(0 0 1.84228e-08)
(0 0 2.28892e-08)
(0 0 2.42331e-08)
(0 0 2.45387e-08)
(0 0 2.45397e-08)
(0 0 2.42379e-08)
(0 0 2.29039e-08)
(0 0 1.84524e-08)
(0 0 7.82301e-09)
(0 0 3.3097e-09)
(0 0 7.81007e-09)
(0 0 9.69679e-09)
(0 0 1.02629e-08)
(0 0 1.03913e-08)
(0 0 1.03918e-08)
(0 0 1.0265e-08)
(0 0 9.70316e-09)
(0 0 7.82301e-09)
(0 0 3.32069e-09)
(0 0 2.42235e-10)
(0 0 5.73743e-10)
(0 0 7.13938e-10)
(0 0 7.5638e-10)
(0 0 7.66086e-10)
(0 0 7.66116e-10)
(0 0 7.56527e-10)
(0 0 7.14385e-10)
(0 0 5.7464e-10)
(0 0 2.4298e-10)
(0 0 5.73743e-10)
(0 0 1.36051e-09)
(0 0 1.69415e-09)
(0 0 1.79544e-09)
(0 0 1.81867e-09)
(0 0 1.81874e-09)
(0 0 1.79582e-09)
(0 0 1.69531e-09)
(0 0 1.36284e-09)
(0 0 5.75689e-10)
(0 0 7.13938e-10)
(0 0 1.69415e-09)
(0 0 2.11052e-09)
(0 0 2.23714e-09)
(0 0 2.26622e-09)
(0 0 2.26632e-09)
(0 0 2.23763e-09)
(0 0 2.11203e-09)
(0 0 1.69719e-09)
(0 0 7.16484e-10)
(0 0 7.5638e-10)
(0 0 1.79544e-09)
(0 0 2.23714e-09)
(0 0 2.37157e-09)
(0 0 2.40247e-09)
(0 0 2.40258e-09)
(0 0 2.37211e-09)
(0 0 2.23877e-09)
(0 0 1.79873e-09)
(0 0 7.59137e-10)
(0 0 7.66086e-10)
(0 0 1.81867e-09)
(0 0 2.26622e-09)
(0 0 2.40247e-09)
(0 0 2.43379e-09)
(0 0 2.4339e-09)
(0 0 2.40302e-09)
(0 0 2.26788e-09)
(0 0 1.82202e-09)
(0 0 7.68899e-10)
(0 0 7.66116e-10)
(0 0 1.81874e-09)
(0 0 2.26632e-09)
(0 0 2.40258e-09)
(0 0 2.4339e-09)
(0 0 2.43402e-09)
(0 0 2.40313e-09)
(0 0 2.26799e-09)
(0 0 1.82211e-09)
(0 0 7.68936e-10)
(0 0 7.56527e-10)
(0 0 1.79582e-09)
(0 0 2.23763e-09)
(0 0 2.37211e-09)
(0 0 2.40302e-09)
(0 0 2.40313e-09)
(0 0 2.37265e-09)
(0 0 2.23929e-09)
(0 0 1.79915e-09)
(0 0 7.59319e-10)
(0 0 7.14385e-10)
(0 0 1.69531e-09)
(0 0 2.11203e-09)
(0 0 2.23877e-09)
(0 0 2.26788e-09)
(0 0 2.26799e-09)
(0 0 2.23929e-09)
(0 0 2.11359e-09)
(0 0 1.69847e-09)
(0 0 7.17038e-10)
(0 0 5.7464e-10)
(0 0 1.36284e-09)
(0 0 1.69719e-09)
(0 0 1.79873e-09)
(0 0 1.82202e-09)
(0 0 1.82211e-09)
(0 0 1.79915e-09)
(0 0 1.69847e-09)
(0 0 1.36542e-09)
(0 0 5.7681e-10)
(0 0 2.4298e-10)
(0 0 5.75689e-10)
(0 0 7.16484e-10)
(0 0 7.59137e-10)
(0 0 7.68899e-10)
(0 0 7.68936e-10)
(0 0 7.59319e-10)
(0 0 7.17038e-10)
(0 0 5.7681e-10)
(0 0 2.4393e-10)
(0 0 1.67092e-11)
(0 0 3.97185e-11)
(0 0 4.95315e-11)
(0 0 5.25283e-11)
(0 0 5.32193e-11)
(0 0 5.32218e-11)
(0 0 5.25405e-11)
(0 0 4.95681e-11)
(0 0 3.97916e-11)
(0 0 1.677e-11)
(0 0 3.97185e-11)
(0 0 9.45114e-11)
(0 0 1.17938e-10)
(0 0 1.25111e-10)
(0 0 1.26769e-10)
(0 0 1.26775e-10)
(0 0 1.25142e-10)
(0 0 1.18032e-10)
(0 0 9.47004e-11)
(0 0 3.98765e-11)
(0 0 4.95315e-11)
(0 0 1.17938e-10)
(0 0 1.47231e-10)
(0 0 1.56214e-10)
(0 0 1.58294e-10)
(0 0 1.58302e-10)
(0 0 1.56255e-10)
(0 0 1.47354e-10)
(0 0 1.18185e-10)
(0 0 4.9738e-11)
(0 0 5.25283e-11)
(0 0 1.25111e-10)
(0 0 1.56214e-10)
(0 0 1.6576e-10)
(0 0 1.67971e-10)
(0 0 1.6798e-10)
(0 0 1.65804e-10)
(0 0 1.56347e-10)
(0 0 1.25378e-10)
(0 0 5.27518e-11)
(0 0 5.32193e-11)
(0 0 1.26769e-10)
(0 0 1.58294e-10)
(0 0 1.67971e-10)
(0 0 1.70214e-10)
(0 0 1.70223e-10)
(0 0 1.68016e-10)
(0 0 1.58429e-10)
(0 0 1.27041e-10)
(0 0 5.34473e-11)
(0 0 5.32218e-11)
(0 0 1.26775e-10)
(0 0 1.58302e-10)
(0 0 1.6798e-10)
(0 0 1.70223e-10)
(0 0 1.70232e-10)
(0 0 1.68025e-10)
(0 0 1.58438e-10)
(0 0 1.27048e-10)
(0 0 5.34503e-11)
(0 0 5.25405e-11)
(0 0 1.25142e-10)
(0 0 1.56255e-10)
(0 0 1.65804e-10)
(0 0 1.68016e-10)
(0 0 1.68025e-10)
(0 0 1.65849e-10)
(0 0 1.56389e-10)
(0 0 1.25412e-10)
(0 0 5.27665e-11)
(0 0 4.95681e-11)
(0 0 1.18032e-10)
(0 0 1.47354e-10)
(0 0 1.56347e-10)
(0 0 1.58429e-10)
(0 0 1.58438e-10)
(0 0 1.56389e-10)
(0 0 1.47481e-10)
(0 0 1.18288e-10)
(0 0 4.97826e-11)
(0 0 3.97916e-11)
(0 0 9.47004e-11)
(0 0 1.18185e-10)
(0 0 1.25378e-10)
(0 0 1.27041e-10)
(0 0 1.27048e-10)
(0 0 1.25412e-10)
(0 0 1.18288e-10)
(0 0 9.49087e-11)
(0 0 3.99666e-11)
(0 0 1.677e-11)
(0 0 3.98765e-11)
(0 0 4.9738e-11)
(0 0 5.27518e-11)
(0 0 5.34473e-11)
(0 0 5.34503e-11)
(0 0 5.27665e-11)
(0 0 4.97826e-11)
(0 0 3.99666e-11)
(0 0 1.68462e-11)
(0 0 1.08779e-12)
(0 0 2.59414e-12)
(0 0 3.24156e-12)
(0 0 3.44089e-12)
(0 0 3.4872e-12)
(0 0 3.48739e-12)
(0 0 3.44181e-12)
(0 0 3.24435e-12)
(0 0 2.5997e-12)
(0 0 1.0924e-12)
(0 0 2.59414e-12)
(0 0 6.19239e-12)
(0 0 7.74249e-12)
(0 0 8.22088e-12)
(0 0 8.33228e-12)
(0 0 8.33277e-12)
(0 0 8.22326e-12)
(0 0 7.74965e-12)
(0 0 6.20672e-12)
(0 0 2.60609e-12)
(0 0 3.24156e-12)
(0 0 7.74249e-12)
(0 0 9.68426e-12)
(0 0 1.02844e-11)
(0 0 1.04244e-11)
(0 0 1.0425e-11)
(0 0 1.02875e-11)
(0 0 9.69359e-12)
(0 0 7.76117e-12)
(0 0 3.25717e-12)
(0 0 3.44089e-12)
(0 0 8.22088e-12)
(0 0 1.02844e-11)
(0 0 1.09227e-11)
(0 0 1.10717e-11)
(0 0 1.10723e-11)
(0 0 1.09261e-11)
(0 0 1.02945e-11)
(0 0 8.24107e-12)
(0 0 3.45777e-12)
(0 0 3.4872e-12)
(0 0 8.33228e-12)
(0 0 1.04244e-11)
(0 0 1.10717e-11)
(0 0 1.12228e-11)
(0 0 1.12235e-11)
(0 0 1.10751e-11)
(0 0 1.04347e-11)
(0 0 8.35288e-12)
(0 0 3.50442e-12)
(0 0 3.48739e-12)
(0 0 8.33277e-12)
(0 0 1.0425e-11)
(0 0 1.10723e-11)
(0 0 1.12235e-11)
(0 0 1.12242e-11)
(0 0 1.10758e-11)
(0 0 1.04354e-11)
(0 0 8.35341e-12)
(0 0 3.50464e-12)
(0 0 3.44181e-12)
(0 0 8.22326e-12)
(0 0 1.02875e-11)
(0 0 1.09261e-11)
(0 0 1.10751e-11)
(0 0 1.10758e-11)
(0 0 1.09294e-11)
(0 0 1.02977e-11)
(0 0 8.24367e-12)
(0 0 3.45888e-12)
(0 0 3.24435e-12)
(0 0 7.74965e-12)
(0 0 9.69359e-12)
(0 0 1.02945e-11)
(0 0 1.04347e-11)
(0 0 1.04354e-11)
(0 0 1.02977e-11)
(0 0 9.70325e-12)
(0 0 7.76899e-12)
(0 0 3.26053e-12)
(0 0 2.5997e-12)
(0 0 6.20672e-12)
(0 0 7.76117e-12)
(0 0 8.24107e-12)
(0 0 8.35288e-12)
(0 0 8.35341e-12)
(0 0 8.24367e-12)
(0 0 7.76899e-12)
(0 0 6.22241e-12)
(0 0 2.61286e-12)
(0 0 1.0924e-12)
(0 0 2.60609e-12)
(0 0 3.25717e-12)
(0 0 3.45777e-12)
(0 0 3.50442e-12)
(0 0 3.50464e-12)
(0 0 3.45888e-12)
(0 0 3.26053e-12)
(0 0 2.61286e-12)
(0 0 1.09811e-12)
(0 0 6.707e-14)
(0 0 1.60426e-13)
(0 0 2.00839e-13)
(0 0 2.13375e-13)
(0 0 2.16309e-13)
(0 0 2.16323e-13)
(0 0 2.13442e-13)
(0 0 2.01038e-13)
(0 0 1.60822e-13)
(0 0 6.73978e-14)
(0 0 1.60426e-13)
(0 0 3.84068e-13)
(0 0 4.8109e-13)
(0 0 5.11255e-13)
(0 0 5.1833e-13)
(0 0 5.18365e-13)
(0 0 5.11425e-13)
(0 0 4.816e-13)
(0 0 3.85085e-13)
(0 0 1.61274e-13)
(0 0 2.00839e-13)
(0 0 4.8109e-13)
(0 0 6.02835e-13)
(0 0 6.40742e-13)
(0 0 6.49646e-13)
(0 0 6.49691e-13)
(0 0 6.40964e-13)
(0 0 6.03499e-13)
(0 0 4.82415e-13)
(0 0 2.01944e-13)
(0 0 2.13375e-13)
(0 0 5.11255e-13)
(0 0 6.40742e-13)
(0 0 6.81088e-13)
(0 0 6.9057e-13)
(0 0 6.90619e-13)
(0 0 6.81328e-13)
(0 0 6.41461e-13)
(0 0 5.12688e-13)
(0 0 2.14571e-13)
(0 0 2.16309e-13)
(0 0 5.1833e-13)
(0 0 6.49646e-13)
(0 0 6.9057e-13)
(0 0 7.00191e-13)
(0 0 7.00241e-13)
(0 0 6.90815e-13)
(0 0 6.50378e-13)
(0 0 5.19791e-13)
(0 0 2.17528e-13)
(0 0 2.16323e-13)
(0 0 5.18365e-13)
(0 0 6.49691e-13)
(0 0 6.90619e-13)
(0 0 7.00241e-13)
(0 0 7.00291e-13)
(0 0 6.90864e-13)
(0 0 6.50425e-13)
(0 0 5.19829e-13)
(0 0 2.17544e-13)
(0 0 2.13442e-13)
(0 0 5.11425e-13)
(0 0 6.40964e-13)
(0 0 6.81328e-13)
(0 0 6.90815e-13)
(0 0 6.90864e-13)
(0 0 6.8157e-13)
(0 0 6.4169e-13)
(0 0 5.12873e-13)
(0 0 2.14649e-13)
(0 0 2.01038e-13)
(0 0 4.816e-13)
(0 0 6.03499e-13)
(0 0 6.41461e-13)
(0 0 6.50378e-13)
(0 0 6.50425e-13)
(0 0 6.4169e-13)
(0 0 6.04186e-13)
(0 0 4.82969e-13)
(0 0 2.02181e-13)
(0 0 1.60822e-13)
(0 0 3.85085e-13)
(0 0 4.82415e-13)
(0 0 5.12688e-13)
(0 0 5.19791e-13)
(0 0 5.19829e-13)
(0 0 5.12873e-13)
(0 0 4.82969e-13)
(0 0 3.86194e-13)
(0 0 1.6175e-13)
(0 0 6.73978e-14)
(0 0 1.61274e-13)
(0 0 2.01944e-13)
(0 0 2.14571e-13)
(0 0 2.17528e-13)
(0 0 2.17544e-13)
(0 0 2.14649e-13)
(0 0 2.02181e-13)
(0 0 1.6175e-13)
(0 0 6.77985e-14)
(0 0 3.92894e-15)
(0 0 9.42385e-15)
(0 0 1.18185e-14)
(0 0 1.25667e-14)
(0 0 1.2743e-14)
(0 0 1.27439e-14)
(0 0 1.25712e-14)
(0 0 1.18319e-14)
(0 0 9.45033e-15)
(0 0 3.95086e-15)
(0 0 9.42385e-15)
(0 0 2.26227e-14)
(0 0 2.83865e-14)
(0 0 3.01911e-14)
(0 0 3.06173e-14)
(0 0 3.06196e-14)
(0 0 3.02026e-14)
(0 0 2.84207e-14)
(0 0 2.26907e-14)
(0 0 9.4804e-15)
(0 0 1.18185e-14)
(0 0 2.83865e-14)
(0 0 3.56309e-14)
(0 0 3.79022e-14)
(0 0 3.84393e-14)
(0 0 3.84424e-14)
(0 0 3.79171e-14)
(0 0 3.56754e-14)
(0 0 2.8475e-14)
(0 0 1.18922e-14)
(0 0 1.25667e-14)
(0 0 3.01911e-14)
(0 0 3.79022e-14)
(0 0 4.03215e-14)
(0 0 4.08939e-14)
(0 0 4.08973e-14)
(0 0 4.03377e-14)
(0 0 3.79504e-14)
(0 0 3.02868e-14)
(0 0 1.26464e-14)
(0 0 1.2743e-14)
(0 0 3.06173e-14)
(0 0 3.84393e-14)
(0 0 4.08939e-14)
(0 0 4.14748e-14)
(0 0 4.14782e-14)
(0 0 4.09104e-14)
(0 0 3.84884e-14)
(0 0 3.07149e-14)
(0 0 1.28243e-14)
(0 0 1.27439e-14)
(0 0 3.06196e-14)
(0 0 3.84424e-14)
(0 0 4.08973e-14)
(0 0 4.14782e-14)
(0 0 4.14816e-14)
(0 0 4.09137e-14)
(0 0 3.84915e-14)
(0 0 3.07174e-14)
(0 0 1.28253e-14)
(0 0 1.25712e-14)
(0 0 3.02026e-14)
(0 0 3.79171e-14)
(0 0 4.03377e-14)
(0 0 4.09104e-14)