/*--------------------------------*- C++ -*----------------------------------*\
| =========                 |                                                 |
| \\      /  F ield         | OpenFOAM: The Open Source CFD Toolbox           |
|  \\    /   O peration     | Version:  v2106                                 |
|   \\  /    A nd           | Website:  www.openfoam.com                      |
|    \\/     M anipulation  |                                                 |
\*---------------------------------------------------------------------------*/
FoamFile
{
    version     2.0;
    format      ascii;
    arch        "LSB;label=32;scalar=64";
    class       volScalarField;
    location    "77.5";
    object      gradTy;
}
// * * * * * * * * * * * * * * * * * * * * * * * * * * * * * * * * * * * * * //

dimensions      [0 -1 0 1 0 0 0];

internalField   nonuniform List<scalar> 
4000
(
0.00011760884
0.00010427381
0.0001011824
9.9981812e-05
9.9277553e-05
9.8632964e-05
9.77552e-05
9.6141603e-05
9.2507604e-05
8.3667509e-05
0.00025841078
0.00023377111
0.00022603345
0.00022221439
0.0002196126
0.00021715307
0.00021402761
0.00020902583
0.00019969943
0.0001816258
0.0001301263
0.0001236883
0.00011856956
0.00011472947
0.00011151864
0.00010836338
0.00010471754
9.997398e-05
9.3642484e-05
8.6721042e-05
7.0507417e-05
6.7650151e-05
6.4086571e-05
6.0599228e-05
5.7272359e-05
5.394584e-05
5.0397412e-05
4.6474783e-05
4.2358334e-05
3.911094e-05
2.2537078e-05
2.0513812e-05
1.7475762e-05
1.4147708e-05
1.0822375e-05
7.5356127e-06
4.244211e-06
9.8465798e-07
-1.9526283e-06
-3.875737e-06
-1.9190746e-05
-2.1474275e-05
-2.4775748e-05
-2.8275392e-05
-3.1650688e-05
-3.4853545e-05
-3.7909729e-05
-4.0770215e-05
-4.3189511e-05
-4.46723e-05
-5.4797825e-05
-5.8534875e-05
-6.2925065e-05
-6.6924261e-05
-7.0396121e-05
-7.3475218e-05
-7.6312785e-05
-7.8961939e-05
-8.1274177e-05
-8.2782172e-05
-8.0798999e-05
-8.8670387e-05
-9.5127167e-05
-9.9745443e-05
-0.00010316625
-0.00010594229
-0.00010844602
-0.00011090367
-0.00011333981
-0.00011527897
-8.6304213e-05
-0.00010501534
-0.00011370424
-0.00011826829
-0.00012106808
-0.00012312869
-0.00012497017
-0.00012694892
-0.00012934547
-0.00013196936
-2.7302569e-05
-3.6142664e-05
-3.9351659e-05
-4.0756959e-05
-4.1516591e-05
-4.2039035e-05
-4.2505118e-05
-4.3044366e-05
-4.3797893e-05
-4.4793623e-05
0.00051322593
0.00044866915
0.00043435871
0.00042871838
0.00042532054
0.00042217871
0.00041787304
0.00040981665
0.00039063325
0.00033538344
0.0011503258
0.001032025
0.00099612192
0.00097800864
0.00096542262
0.00095343629
0.00093813721
0.00091338836
0.00086549549
0.00075964032
0.0006095451
0.00057961895
0.00055552874
0.00053706297
0.00052147432
0.00050609404
0.00048828407
0.00046505333
0.00043393138
0.00040072224
0.00033582119
0.00032226394
0.0003051219
0.00028820953
0.00027201381
0.00025578859
0.00023846211
0.00021929503
0.00019917985
0.00018339128
0.00010576352
9.5954028e-05
8.1191172e-05
6.4985093e-05
4.8770248e-05
3.2727392e-05
1.664848e-05
7.1403074e-07
-1.3650796e-05
-2.3052443e-05
-9.7580618e-05
-0.00010875187
-0.00012486604
-0.00014194212
-0.00015841774
-0.00017406388
-0.00018901216
-0.00020303034
-0.00021492113
-0.00022223723
-0.00027343325
-0.00029197636
-0.00031348118
-0.00033301707
-0.00034997475
-0.00036503043
-0.00037894121
-0.00039199866
-0.00040351868
-0.00041117949
-0.00040707214
-0.00044793182
-0.00047971384
-0.00050228451
-0.00051899611
-0.00053258378
-0.00054490509
-0.00055716126
-0.00056968678
-0.00058034297
-0.00045330135
-0.00056495116
-0.0006070494
-0.00062928225
-0.00064295315
-0.00065304871
-0.00066216003
-0.00067222954
-0.00068534175
-0.00070280814
-0.00014872091
-0.00020397072
-0.00021929103
-0.00022611015
-0.00022981674
-0.00023237791
-0.00023469414
-0.00023748511
-0.00024179827
-0.00024912938
0.00082799722
0.00072394744
0.0007005075
0.00069095354
0.00068503408
0.00067947314
0.00067178585
0.00065728039
0.00062235229
0.00052042759
0.0018803918
0.0016891572
0.0016297057
0.0015987288
0.0015767142
0.00155549
0.0015282203
0.0014838558
0.0013973723
0.001204531
0.001028606
0.00097911512
0.00093817753
0.00090612395
0.00087870037
0.00085143942
0.00081974604
0.00077832505
0.00072290043
0.00066499525
0.00057023981
0.00054702968
0.00051724824
0.00048755251
0.00045892223
0.00043012052
0.00039928949
0.00036515
0.00032937212
0.00030155879
0.00017035266
0.00015313205
0.00012711385
9.8447534e-05
6.9681849e-05
4.1152572e-05
1.2500569e-05
-1.594005e-05
-4.1597248e-05
-5.8359681e-05
-0.00019082447
-0.00021069682
-0.00023931828
-0.00026965116
-0.00029895101
-0.00032683243
-0.00035355291
-0.00037872643
-0.00040022378
-0.00041356725
-0.00051134082
-0.00054462995
-0.000582975
-0.00061774432
-0.00064794553
-0.00067483695
-0.00069983953
-0.00072360173
-0.00074507064
-0.00075997433
-0.00077310999
-0.00084726031
-0.00090395798
-0.00094410591
-0.00097387536
-0.00099820373
-0.0010205462
-0.0010434348
-0.0010683774
-0.0010926485
-0.00092531685
-0.001130596
-0.0012046416
-0.0012439258
-0.0012682328
-0.0012863455
-0.0013030736
-0.0013227181
-0.0013522873
-0.0014079194
-0.00032160026
-0.00042352497
-0.00045016113
-0.00046212842
-0.00046870334
-0.00047330338
-0.00047759899
-0.00048323917
-0.00049377977
-0.00052032721
0.0011088791
0.00096972555
0.00093826366
0.00092518611
0.00091691159
0.00090902368
0.0008980293
0.00087716325
0.00082664282
0.00067843204
0.0025284705
0.0022725473
0.0021922622
0.0021495818
0.0021187077
0.0020885927
0.0020496446
0.0019860089
0.0018614871
0.0015827933
0.001396189
0.0013293798
0.0012732235
0.0012285725
0.0011899196
0.0011512012
0.0011059931
0.0010467926
0.00096763012
0.00088585961
0.00077081973
0.00073879163
0.00069726519
0.00065548772
0.00061494135
0.00057396576
0.00052997889
0.0004812119
0.00043015102
0.0003907089
0.00021161256
0.00018736891
0.00015062348
0.00010999758
6.9101521e-05
2.8426054e-05
-1.2525512e-05
-5.3252659e-05
-9.0026491e-05
-0.00011402029
-0.00030267068
-0.00033099412
-0.00037173375
-0.00041492062
-0.0004566962
-0.00049654766
-0.00053487627
-0.00057116003
-0.00060233618
-0.00062182015
-0.00076867159
-0.00081646224
-0.00087125542
-0.00092087076
-0.00096400929
-0.0010025495
-0.0010386217
-0.0010733015
-0.0011052124
-0.0011279409
-0.0011651968
-0.0012722765
-0.0013533543
-0.0014106395
-0.0014531822
-0.0014881404
-0.0015206421
-0.0015547312
-0.0015933329
-0.0016329009
-0.0014303871
-0.001728484
-0.0018336027
-0.001889417
-0.0019241057
-0.0019501846
-0.0019747658
-0.002004824
-0.0020529355
-0.0021499245
-0.00050624083
-0.00065445162
-0.00069203667
-0.00070896529
-0.00071833142
-0.00072496116
-0.00073132073
-0.00074011353
-0.00075769939
-0.0008047728
0.0013705432
0.0011980557
0.0011591446
0.001142805
0.0011323156
0.0011221983
0.0011079997
0.0010809443
0.0010152441
0.00082203688
0.0031249195
0.0028078217
0.002708245
0.0026547005
0.0026154718
0.0025768381
0.0025265897
0.0024442298
0.002282724
0.0019206601
0.00172331
0.001640434
0.0015701889
0.0015137578
0.0014644586
0.0014147478
0.001356476
0.0012800338
0.0011778516
0.0010730224
0.00094078084
0.00090053731
0.00084800758
0.00079480705
0.00074288564
0.00069019415
0.00063347551
0.00057051468
0.00050462644
0.000453941
0.00023040466
0.00019949455
0.00015254226
0.00010048452
4.792935e-05
-4.487062e-06
-5.7388127e-05
-0.00011009565
-0.0001577265
-0.00018877472
-0.0004314559
-0.00046792982
-0.00052033799
-0.00057591246
-0.0006297481
-0.00068122993
-0.00073091149
-0.00077813833
-0.00081890834
-0.00084450213
-0.0010399553
-0.0011018363
-0.0011725636
-0.0012365502
-0.0012922431
-0.0013421588
-0.0013891514
-0.0014347379
-0.0014772002
-0.0015078746
-0.0015696268
-0.0017087603
-0.0018134926
-0.0018873846
-0.0019423417
-0.001987723
-0.0020303385
-0.0020757717
-0.0021283344
-0.0021834001
-0.0019436908
-0.0023320519
-0.0024672605
-0.0025390633
-0.0025838342
-0.0026177424
-0.002650198
-0.0026908791
-0.0027578264
-0.0028955761
-0.00069248946
-0.00088569665
-0.00093386538
-0.00095558277
-0.00096765567
-0.00097628158
-0.0009847182
-0.00099673123
-0.0010214286
-0.0010885644
0.0016163512
0.0014120076
0.0013660659
0.0013466653
0.0013340845
0.00132184
0.0013045631
0.0012715483
0.0011912338
0.00095474054
0.0036793048
0.0033038769
0.0031861488
0.0031224095
0.0030752853
0.0030285249
0.0029674279
0.0028670497
0.0026699522
0.0022277244
0.0020171855
0.001919172
0.0018357181
0.0017682077
0.0017088217
0.0016486164
0.0015778077
0.001484783
0.0013604623
0.0012335031
0.0010844719
0.0010364998
0.00097360839
0.00090960339
0.00084685953
0.00078295772
0.0007140061
0.00063738002
0.00055721653
0.00049572623
0.00022996526
0.00019272733
0.00013608063
7.313606e-05
9.4349662e-06
-5.4254059e-05
-0.00011867241
-0.00018295735
-0.0002410902
-0.00027895576
-0.00057321165
-0.0006174938
-0.00068106908
-0.00074850783
-0.0008139225
-0.00087661521
-0.00093729215
-0.00099516467
-0.0010452974
-0.0010768592
-0.0013187554
-0.0013941929
-0.0014802306
-0.0015580263
-0.0016258083
-0.0016867296
-0.0017443578
-0.0018006382
-0.0018534917
-0.0018919921
-0.0019761576
-0.0021461515
-0.0022736333
-0.0023634969
-0.0024304229
-0.0024859147
-0.0025384281
-0.0025950487
-0.0026614005
-0.0027316853
-0.0024523068
-0.0029275185
-0.0030916322
-0.0031787984
-0.003233286
-0.0032747968
-0.0033149805
-0.0033661508
-0.0034516172
-0.0036290511
-0.00087586146
-0.0011123547
-0.00117068
-0.0011969942
-0.0012116735
-0.0012222379
-0.0012327148
-0.0012479048
-0.0012795713
-0.0013661941
0.0018467965
0.0016121735
0.0015595944
0.0015373152
0.0015227617
0.0015084985
0.0014882883
0.0014495873
0.0013553281
0.0010775382
0.0041945641
0.003763761
0.0036289311
0.0035556081
0.0035010351
0.0034465644
0.0033751343
0.003257569
0.0030265205
0.0025078475
0.0022820306
0.0021697431
0.0020738777
0.0019959443
0.0019270304
0.0018568644
0.0017741159
0.0016652763
0.0015198451
0.0013718183
0.0012057133
0.0011504643
0.0010778173
0.001003617
0.00093062407
0.00085606545
0.00077545142
0.00068577973
0.00059198931
0.00052019905
0.00021404223
0.00017081729
0.00010499851
3.1737424e-05
-4.2553009e-05
-0.0001169846
-0.00019240906
-0.00026777718
-0.000335969
-0.00038035849
-0.00072348128
-0.00077519139
-0.00084938209
-0.00092810589
-0.0010045547
-0.0010779619
-0.0011491821
-0.0012172914
-0.0012764427
-0.0013137537
-0.0015991686
-0.0016875353
-0.0017881639
-0.0018791234
-0.0019584496
-0.002029916
-0.0020977791
-0.0021643915
-0.0022273069
-0.0022733839
-0.0023772209
-0.0025766613
-0.0027258347
-0.0028309321
-0.0029092968
-0.002974492
-0.0030365574
-0.0031040198
-0.0031837452
-0.0032687589
-0.0029481417
-0.0035062153
-0.0036978633
-0.0037996734
-0.0038634439
-0.0039122547
-0.0039599062
-0.0040212471
-0.0041246454
-0.0043403942
-0.0010537453
-0.0013315351
-0.0013995273
-0.0014302197
-0.0014473875
-0.0014598126
-0.0014722615
-0.0014905307
-0.0015289373
-0.0016343632
0.0020614871
0.0017983194
0.0017395117
0.0017145368
0.0016981318
0.0016819664
0.0016589846
0.001614906
0.0015074569
0.0011906025
0.0046711012
0.0041881381
0.0040372788
0.0039549831
0.0038934185
0.0038316839
0.0037504937
0.0036166787
0.0033535278
0.0027625772
0.0025202241
0.0023945501
0.0022870691
0.0021993719
0.0021215082
0.002041956
0.0019479304
0.0018241403
0.0016587566
0.0014908488
0.0013074809
0.0012454111
0.0011636207
0.0010798502
0.00099721358
0.00091260126
0.0008209629
0.00071894838
0.00061226733
0.00053074563
0.00018608736
0.0001372318
6.2788217e-05
-2.0184069e-05
-0.00010446074
-0.00018904541
-0.00027489255
-0.0003607692
-0.00043850099
-0.00048907277
-0.00087812315
-0.000936844
-0.001021048
-0.0011104219
-0.0011972987
-0.0012808537
-0.0013620832
-0.0014399301
-0.0015076701
-0.0015504563
-0.0018761615
-0.001976752
-0.0020911668
-0.0021945677
-0.0022848197
-0.0023662915
-0.0024438961
-0.0025203698
-0.0025929053
-0.0026462289
-0.0027670215
-0.002994313
-0.0031639874
-0.0032834868
-0.0033726829
-0.0034470952
-0.0035182698
-0.0035961044
-0.0036886404
-0.0037877601
-0.0034254256
-0.0040618809
-0.004279527
-0.0043951724
-0.0044677298
-0.004523476
-0.0045782559
-0.0046493351
-0.0047699116
-0.0050223462
-0.0012243216
-0.001541176
-0.0016182886
-0.0016531146
-0.0016726364
-0.0016868291
-0.0017011606
-0.0017223782
-0.0017672403
-0.0018906679
0.0022597403
0.0019699237
0.0019053232
0.0018778437
0.0018597146
0.0018417719
0.0018161955
0.0017670792
0.0016472708
0.0012938045
0.0051082792
0.0045766535
0.0044108981
0.0043202658
0.0042521898
0.0041836704
0.0040933459
0.0039443124
0.0036510924
0.0029924403
0.002733083
0.0025949631
0.0024766953
0.0023799197
0.0022937156
0.0022053945
0.0021008158
0.0019630265
0.0017789644
0.001592475
0.0013919968
0.0013235839
0.0012332884
0.0011406041
0.0010489679
0.00095495466
0.00085299258
0.00073941255
0.00062065561
0.00053002854
0.00014901142
9.4903688e-05
1.2415966e-05
-7.9621558e-05
-0.00017323351
-0.00026732562
-0.00036294736
-0.00045868809
-0.00054537627
-0.00060174766
-0.0010335678
-0.0010988464
-0.0011924117
-0.0012917462
-0.0013883871
-0.00148146
-0.0015720955
-0.0016591074
-0.0017349391
-0.0017828843
-0.0021455388
-0.0022575779
-0.0023848968
-0.0024999459
-0.0026004389
-0.0026913084
-0.0027780863
-0.0028638683
-0.0029455004
-0.0030056821
-0.003140945
-0.0033943321
-0.0035831986
-0.0037161836
-0.0038155355
-0.0038986125
-0.0039783791
-0.0040660265
-0.0041707051
-0.0042832053
-0.0038796474
-0.0045895594
-0.0048315195
-0.0049601109
-0.0050409035
-0.0051031705
-0.0051646804
-0.0052449843
-0.0053818591
-0.0056691164
-0.001386163
-0.0017396293
-0.0018252644
-0.0018639555
-0.0018856824
-0.0019015364
-0.0019176459
-0.0019416576
-0.001992646
-0.0021331625
0.0024408003
0.002126382
0.0020564536
0.0020266718
0.002006953
0.0019873669
0.0019593869
0.0019056006
0.0017743317
0.0013869072
0.005505051
0.004928531
0.0047490831
0.0046507845
0.0045767048
0.0045019123
0.0044031285
0.0042399919
0.003918902
0.0031974949
0.0029213159
0.0027717505
0.0026435694
0.002538437
0.0024445374
0.0023481076
0.0022337563
0.0020829968
0.0018816343
0.0016779641
0.0014609016
0.0013866507
0.0012885233
0.0011876186
0.001087668
0.00098495458
0.00087342648
0.00074912473
0.00061917614
0.00052012103
0.00010518111
4.6223849e-05
-4.3691092e-05
-0.00014410561
-0.00024635513
-0.00034925708
-0.00045394787
-0.00055884776
-0.00065385326
-0.00071560649
-0.0011868347
-0.0012581838
-0.0013604109
-0.0014689649
-0.0015746525
-0.0016765577
-0.001775936
-0.0018714793
-0.0019548509
-0.0020076045
-0.0024038193
-0.0025264689
-0.0026657397
-0.0027915796
-0.0029015696
-0.0030011703
-0.0030964912
-0.0031909627
-0.0032811032
-0.0033477079
-0.0034952099
-0.0037727929
-0.0039794365
-0.0041249148
-0.0042336868
-0.0043248202
-0.0044126018
-0.0045094322
-0.004625501
-0.0047505699
-0.0043070861
-0.0050851262
-0.0053495831
-0.0054901589
-0.0055785868
-0.0056469177
-0.0057147121
-0.0058036629
-0.0059558498
-0.0062758538
-0.0015380773
-0.0019255018
-0.0020190154
-0.0020612819
-0.0020850521
-0.0021024507
-0.0021202212
-0.0021468539
-0.0022036005
-0.0023601899
0.0026039311
0.0022670962
0.0021923325
0.0021604613
0.0021392952
0.0021182077
0.0020880277
0.0020299639
0.0018881944
0.0014696461
0.0058602546
0.0052428566
0.0050509886
0.0049457298
0.0048661822
0.0047856598
0.0046791359
0.0045030867
0.0041564746
0.0033775921
0.003085287
0.0029253346
0.0027881602
0.0026754304
0.0025745161
0.0024706783
0.0023473862
0.0021847553
0.001967563
0.001748203
0.0015154148
0.0014358589
0.0013306084
0.0012222148
0.0011146753
0.0010040069
0.0008837218
0.00074960093
0.00060940624
0.00050264569
5.6498733e-05
-6.8817116e-06
-0.00010357133
-0.00021163376
-0.00032177927
-0.00043274631
-0.00054574984
-0.00065905139
-0.00076168726
-0.00082837419
-0.0013354629
-0.0014123641
-0.0015225091
-0.001639494
-0.0017534626
-0.0018634646
-0.0019708712
-0.0020742606
-0.0021645743
-0.0022217569
-0.0026481098
-0.0027804754
-0.0029306829
-0.0030663984
-0.0031850889
-0.0032927035
-0.0033958849
-0.0034983719
-0.0035963791
-0.0036689319
-0.0038266619
-0.0041264119
-0.0043493233
-0.0045062352
-0.0046236388
-0.0047221726
-0.0048173419
-0.0049226669
-0.0050493022
-0.0051860519
-0.0047045912
-0.0055450679
-0.0058300858
-0.0059816203
-0.006077041
-0.006150943
-0.0062245374
-0.0063215031
-0.0064879224
-0.0068384029
-0.0016790422
-0.0020975904
-0.0021982971
-0.0022438304
-0.0022694708
-0.0022882884
-0.0023075926
-0.0023366569
-0.002398759
-0.0025703106
0.0027484609
0.0023915166
0.0023124353
0.0022786981
0.0022562339
0.0022337945
0.0022016295
0.002139703
0.0019884467
0.0015417692
0.0061727661
0.0055187278
0.0053157745
0.0052042952
0.0051198417
0.005034161
0.0049206556
0.0047329509
0.0043632953
0.0035325113
0.0032251763
0.0030559485
0.0029107437
0.0027912117
0.0026839976
0.0025734892
0.0024421339
0.0022687914
0.0020373211
0.0018038415
0.0015564609
0.0014721588
0.0013605281
0.0012454128
0.0011310468
0.0010132088
0.00088502135
0.00074203549
0.00059259381
0.00047889002
4.4961945e-06
-6.2859206e-05
-0.00016563799
-0.00028058171
-0.00039784192
-0.00051608743
-0.00063660295
-0.00075750307
-0.00086704099
-0.00093818721
-0.0014774243
-0.0015593309
-0.0016766103
-0.0018011946
-0.0019226357
-0.0020399557
-0.0021546317
-0.0022651374
-0.002361756
-0.0024229633
-0.0028760003
-0.0030171375
-0.0031772103
-0.0033218354
-0.0034483837
-0.003563251
-0.0036735654
-0.0037833476
-0.0038885337
-0.0039665252
-0.0041326482
-0.0044524224
-0.0046900086
-0.0048572353
-0.0049824361
-0.0050876733
-0.0051895604
-0.0053026415
-0.0054389576
-0.0055864322
-0.0050694705
-0.0059663712
-0.0062699101
-0.0064313212
-0.0065330556
-0.0066120053
-0.0066908815
-0.006795183
-0.0069746722
-0.007353183
-0.0018081743
-0.0022548519
-0.0023620303
-0.0024105049
-0.0024378328
-0.0024579358
-0.0024786377
-0.0025099301
-0.0025769542
-0.0027622707
0.0028738056
0.0024991662
0.0024163066
0.0023809356
0.0023573289
0.0023336937
0.0022997684
0.002234413
0.0020747306
0.001603057
0.0064415856
0.0057553371
0.0055426882
0.0054257574
0.0053369837
0.0052467412
0.0051270475
0.0049290017
0.0045388945
0.0036620378
0.0033410807
0.0031637349
0.0030115009
0.0028859943
0.002773225
0.0026568157
0.0025183144
0.002335473
0.0020913466
0.0018453857
0.001584765
0.0014962983
0.0013790605
0.0012580224
0.0011376252
0.0010134384
0.00087824233
0.00072739
0.00056974644
0.00044989557
-4.9580844e-05
-0.00012044372
-0.00022859702
-0.00034962223
-0.00047318103
-0.00059788196
-0.0007250705
-0.00085272705
-0.0009684033
-0.0010435119
-0.0016110442
-0.0016973848
-0.0018209803
-0.0019522954
-0.0020803632
-0.0022041849
-0.0023253333
-0.0024421879
-0.0025444404
-0.002609247
-0.0030854814
-0.0032344025
-0.0034032209
-0.0035557452
-0.0036892693
-0.0038105903
-0.0039272723
-0.0040435893
-0.0041552267
-0.0042381179
-0.0044109363
-0.0047484931
-0.0049990893
-0.0051754608
-0.0053075851
-0.0054187936
-0.0055266922
-0.005646748
-0.0057918047
-0.0059489883
-0.0053994282
-0.0063464621
-0.0066663921
-0.0068365494
-0.0069438865
-0.0070273342
-0.0071109456
-0.0072218628
-0.007413186
-0.007817123
-0.0019247143
-0.0023963878
-0.0025092854
-0.0025603618
-0.002589186
-0.0026104342
-0.0026323905
-0.002665695
-0.0027371795
-0.0029349864
0.0029794838
0.0025896533
0.002503573
0.002466808
0.0024422195
0.0024175503
0.0023820978
0.0023137632
0.0021467549
0.0016533358
0.0066658908
0.0059520246
0.005731115
0.0056095269
0.0055170383
0.005422852
0.0052977919
0.0050907678
0.0046828964
0.0037660103
0.0034330809
0.003248813
0.0030905832
0.0029599564
0.0028424021
0.0027208892
0.0025761924
0.0023851093
0.0021300077
0.0018732603
0.0016009224
0.0015088921
0.0013868457
0.001260711
0.0011351058
0.0010054204
0.00086414291
0.00070645992
0.00054169818
0.00041652485
-0.00010470544
-0.00017859195
-0.00029138033
-0.00041765915
-0.00054667091
-0.00067697349
-0.00080996382
-0.00094350187
-0.001064523
-0.0011430782
-0.0017349362
-0.0018251187
-0.0019541826
-0.0020913284
-0.0022251455
-0.0023546213
-0.0024814132
-0.0026038174
-0.0027110045
-0.0027789668
-0.0032748828
-0.0034305635
-0.003606967
-0.0037663433
-0.0039059275
-0.0040328717
-0.0041551236
-0.0042771814
-0.0043945089
-0.0044817347
-0.0046596592
-0.0050126736
-0.0052745546
-0.0054588583
-0.0055969993
-0.0057134174
-0.0058265905
-0.0059528027
-0.0061056131
-0.0062714372
-0.0056925271
-0.0066831682
-0.0070172846
-0.0071950172
-0.0073072197
-0.0073945935
-0.0074823691
-0.0075991468
-0.0078010035
-0.0082276236
-0.0020280177
-0.0025214368
-0.0026392752
-0.0026926017
-0.002722724
-0.0027449718
-0.0027680323
-0.0028031223
-0.0028785817
-0.0030875357
0.0030651252
0.0026626808
0.0025739518
0.0025360386
0.0025106334
0.0024850965
0.0024483564
0.0023775055
0.0022043033
0.0016924843
0.0068450701
0.0061083099
0.0058806111
0.0057551796
0.0056595976
0.0055621024
0.0054325213
0.0052179209
0.00479505
0.0038443515
0.0035012866
0.0033113231
0.0031481562
0.0030132856
0.002891737
0.0027659399
0.0026160254
0.0024179939
0.002153645
0.0018878517
0.0016054501
0.0015104725
0.0013844366
0.0012540533
0.0011240858
0.00098977649
0.00084337146
0.00067992378
0.00050915875
0.00037951039
-0.00016001727
-0.00023643044
-0.00035309447
-0.00048377615
-0.00061737131
-0.00075239679
-0.00089029156
-0.0010288095
-0.0011543578
-0.0012358285
-0.0018479522
-0.0019413676
-0.0020750285
-0.0022170793
-0.0023557428
-0.0024899995
-0.0026215799
-0.0027487084
-0.0028601072
-0.0029307669
-0.0034428269
-0.0036042133
-0.0037870083
-0.0039521593
-0.004096861
-0.004228572
-0.0043555699
-0.0044825466
-0.0046047745
-0.004695748
-0.0048772772
-0.0052433568
-0.0055147486
-0.0057057373
-0.0058489613
-0.0059698035
-0.0060874886
-0.0062190081
-0.0063785452
-0.0065518962
-0.0059471643
-0.006974696
-0.0073207337
-0.0075048382
-0.0076211471
-0.0077118572
-0.0078032056
-0.0079250587
-0.0081360936
-0.0085825335
-0.0021175499
-0.0026293689
-0.0027513489
-0.0028065644
-0.0028377811
-0.0028608782
-0.0028848875
-0.0029215272
-0.0030004548
-0.0032191537
0.0031304759
0.002718051
0.0026272558
0.0025884446
0.002562391
0.002536156
0.0024983732
0.0024254789
0.0022472395
0.0017204394
0.0069787442
0.0062239142
0.0059909241
0.0058624779
0.0057644359
0.0056642798
0.0055310411
0.0053102963
0.0048752493
0.0038970884
0.0035458674
0.0033514578
0.0031844311
0.0030462092
0.0029214726
0.0027922276
0.0026380938
0.0024344343
0.0021626024
0.0018895374
0.0015988233
0.001501526
0.0013723351
0.0012385676
0.0011051007
0.00096706042
0.00081650244
0.00064837914
0.00047274945
0.00033949077
-0.00021478383
-0.0002932167
-0.00041298189
-0.00054719838
-0.00068448904
-0.00082333954
-0.00096522121
-0.0011077968
-0.0012370361
-0.0013208792
-0.0019491441
-0.0020451708
-0.0021825389
-0.0023285496
-0.0024711372
-0.0026092817
-0.0027447754
-0.0028757824
-0.0029906519
-0.0030635384
-0.0035881942
-0.0037542099
-0.0039421777
-0.0041120031
-0.004260859
-0.0043964604
-0.0045273597
-0.0046584109
-0.004784727
-0.0048788436
-0.0050625506
-0.0054392511
-0.0057183425
-0.0059147426
-0.0060620955
-0.0061865575
-0.0063079719
-0.0064439248
-0.006609129
-0.0067888556
-0.0061620538
-0.007219613
-0.0075752617
-0.00776451
-0.00788415
-0.0079775924
-0.008071906
-0.008198025
-0.0084168369
-0.0088801326
-0.0021928823
-0.0027196824
-0.0028449895
-0.0029017257
-0.0029338286
-0.0029576211
-0.0029824197
-0.0030203655
-0.0031022374
-0.0033292293
0.0031754016
0.0027556686
0.0026633969
0.0026239407
0.0025974089
0.002570648
0.0025320708
0.0024576128
0.0022755099
0.0017371983
0.0070667801
0.0062987731
0.0060620069
0.0059313838
0.0058315232
0.0057293632
0.0055933425
0.0053679057
0.0049235468
0.0039243651
0.0035670743
0.0033694824
0.0031996851
0.003059015
0.002931907
0.0028000618
0.0026427215
0.0024347734
0.0021572471
0.0018787074
0.0015815019
0.0014825198
0.0013510182
0.0012147418
0.0010786503
0.00093778456
0.00078406248
0.00061236863
0.00043302929
0.00029703674
-0.00026837155
-0.00034831052
-0.00047039217
-0.0006072637
-0.00074734942
-0.00088911368
-0.0010340506
-0.0011797471
-0.0013118279
-0.0013974922
-0.0020377354
-0.0021357426
-0.0022759161
-0.0024249281
-0.0025705038
-0.0027116293
-0.0028501464
-0.0029841714
-0.0031017568
-0.0031763912
-0.0037100974
-0.0038796503
-0.0040715549
-0.0042449387
-0.0043969709
-0.0045355721
-0.004669513
-0.0048037782
-0.0049333524
-0.0050299937
-0.0052145182
-0.0055993595
-0.005884314
-0.006084834
-0.0062353472
-0.0063626113
-0.0064869575
-0.0066264506
-0.0067962366
-0.0069811579
-0.0063362136
-0.0074168353
-0.0077797541
-0.0079729014
-0.008095086
-0.0081906465
-0.0082873058
-0.008416862
-0.0086420131
-0.0091191201
-0.0022536895
-0.0027920011
-0.0029198106
-0.0029776942
-0.0030104722
-0.0030348038
-0.0030602286
-0.0030992313
-0.0031835094
-0.0034173026
0.003199889
0.0027755421
0.0026823867
0.0026425396
0.0026157011
0.0025885875
0.0025494662
0.0024739281
0.002289145
0.0017428205
0.0071092981
0.0063330446
0.0060940248
0.0059620669
0.0058610329
0.0057575306
0.0056196104
0.0053909453
0.0049401612
0.0039264512
0.0035652535
0.0033657497
0.0031942758
0.0030520654
0.002923408
0.0027898166
0.0026302901
0.0024194031
0.0021379844
0.001855778
0.0015539489
0.0014539205
0.001320957
0.0011830527
0.001045217
0.00090243859
0.00074654918
0.00057239888
0.00039051394
0.0002526701
-0.00032022449
-0.00040115257
-0.00052476078
-0.00066340138
-0.00080537487
-0.00094913414
-0.0010961863
-0.0012440584
-0.0013781235
-0.0014650529
-0.0021130992
-0.0022124515
-0.0023545217
-0.0025055693
-0.0026531895
-0.0027963808
-0.0029370229
-0.0030731961
-0.0031927339
-0.0032686315
-0.0038078616
-0.0039798507
-0.0041744469
-0.0043502642
-0.0045044866
-0.0046451885
-0.004781302
-0.0049179091
-0.0050498997
-0.0051484374
-0.0053324819
-0.0057229637
-0.0060119311
-0.0062152694
-0.0063679663
-0.0064972066
-0.0066236773
-0.0067658043
-0.0069390681
-0.007127981
-0.0064689553
-0.0075656167
-0.0079334494
-0.0081292419
-0.0082531781
-0.0083502364
-0.0084486134
-0.0085807646
-0.0088107902
-0.0092986032
-0.0022997468
-0.0028460714
-0.0029755535
-0.003034209
-0.0030674494
-0.003092162
-0.0031180478
-0.0031578537
-0.0032439898
-0.0034830624
0.0032040457
0.0027777839
0.0026843371
0.0026443529
0.0026173789
0.0025900862
0.0025506715
0.0024745376
0.0022882597
0.0017374278
0.0071066755
0.0063271125
0.0060873596
0.0059549077
0.0058533454
0.005749163
0.0056102268
0.0053797995
0.0049254815
0.0039037458
0.0035408556
0.0033407091
0.0031686507
0.0030258072
0.0028964222
0.0027619395
0.0026012486
0.0023887744
0.0021052673
0.0018212023
0.0015166446
0.0014162073
0.0012826304
0.0011439787
0.0010052803
0.00086150297
0.00070444483
0.00052895413
0.00034568943
0.00020687764
-0.0003698485
-0.00045124848
-0.00057559315
-0.00071511615
-0.00085806892
-0.0010029027
-0.0011511279
-0.0013002277
-0.0014354173
-0.0015230544
-0.0021747415
-0.0022748027
-0.0024178601
-0.0025699763
-0.0027186956
-0.0028630353
-0.0030049007
-0.0031423485
-0.0032630714
-0.0033397447
-0.0038810081
-0.0040543309
-0.0042503716
-0.004427496
-0.0045829204
-0.004724821
-0.0048622337
-0.0050003055
-0.005133864
-0.005233664
-0.0054159928
-0.0058096104
-0.0061007381
-0.0063055917
-0.0064594935
-0.0065898811
-0.0067176642
-0.0068615113
-0.0070371374
-0.0072288246
-0.0065598743
-0.007665539
-0.008035928
-0.0082331111
-0.0083580045
-0.0084559378
-0.0085554006
-0.0086892963
-0.0089227139
-0.0094180869
-0.0023309282
-0.0028817601
-0.0030120853
-0.0030711369
-0.0031046265
-0.0031295616
-0.0031557421
-0.0031960949
-0.0032835335
-0.0035263436
0.0031880987
0.002762609
0.0026694591
0.0026295895
0.0026026504
0.0025753511
0.0025358924
0.0024596452
0.0022730529
0.0017212047
0.0070595459
0.0062815864
0.0060426093
0.0059104979
0.0058090484
0.0057048447
0.0055657719
0.0053350419
0.0048800678
0.0038567798
0.0034944412
0.003294912
0.0031233527
0.0029807767
0.0028514813
0.0027169576
0.0025561194
0.0023434033
0.0020596028
0.0017754762
0.0014700948
0.0013698818
0.0012365339
0.0010980104
0.0009593257
0.00081545892
0.00065822621
0.0004825064
0.00029902243
0.00016012126
-0.00041679911
-0.00049815681
-0.00062245234
-0.00076197588
-0.00090500378
-0.0010499953
-0.0011984549
-0.0013478375
-0.0014832949
-0.0015710843
-0.0022222884
-0.0023224253
-0.0024655649
-0.0026177872
-0.0027666643
-0.0029112383
-0.0030534277
-0.0031912782
-0.0033124197
-0.0033893817
-0.0039292417
-0.0041028004
-0.0042990445
-0.0044763548
-0.004631997
-0.004774197
-0.0049120369
-0.0050506962
-0.0051849726
-0.0052853991
-0.0054648399
-0.0058590992
-0.006150544
-0.0063556158
-0.0065097478
-0.0066404558
-0.0067687397
-0.0069133914
-0.0070902598
-0.0072834972
-0.006608841
-0.0077165018
-0.0080871031
-0.0082844288
-0.0084094883
-0.0085076756
-0.0086075918
-0.0087423785
-0.0089776976
-0.0094774641
-0.0023472033
-0.0028990515
-0.0030293954
-0.0030884692
-0.0031219961
-0.0031469955
-0.0031733041
-0.0032139466
-0.0033021291
-0.0035471242
0.0031523926
0.0027303336
0.002638061
0.0025985545
0.0025718183
0.002544683
0.0025054274
0.002429544
0.0022438054
0.0016943966
0.0069687967
0.0061972993
0.0059605868
0.0058296389
0.0057289353
0.0056253616
0.0054870222
0.0052574332
0.0048046506
0.003786215
0.0034266836
0.0032290149
0.0030590232
0.0029176036
0.0027892051
0.0026554813
0.0024955018
0.0022838746
0.002001556
0.0017191433
0.0014148389
0.0013154747
0.0011831875
0.0010456566
0.00090785222
0.00076479567
0.00060837221
0.00043352304
0.00025096799
0.00011284611
-0.00046067196
-0.00054147922
-0.00066494932
-0.00080360157
-0.00094581029
-0.0010900523
-0.0012378166
-0.0013865464
-0.0015214227
-0.0016088145
-0.0022554739
-0.0023550603
-0.0024973871
-0.0026487636
-0.0027968671
-0.0029407699
-0.003082392
-0.0032197802
-0.0033405795
-0.0034173465
-0.0039524383
-0.0041251468
-0.0043203667
-0.0044967536
-0.0046516393
-0.0047932476
-0.0049306496
-0.0050690242
-0.0052031725
-0.0053035919
-0.0054790384
-0.0058714715
-0.00616141
-0.0063654172
-0.0065188143
-0.0066490233
-0.0067770017
-0.0069215462
-0.0070985395
-0.0072921041
-0.0066159917
-0.0077187128
-0.0080872099
-0.0082834441
-0.0084078868
-0.0085057122
-0.0086054531
-0.0087402799
-0.0089760109
-0.0094770036
-0.0023486351
-0.0028980439
-0.0030275921
-0.0030863191
-0.0031196734
-0.0031445803
-0.0031708514
-0.0032115265
-0.0032998945
-0.0035455216
0.0030973862
0.0026813723
0.0025905463
0.0025516463
0.0025252779
0.0024984744
0.0024596646
0.0023846144
0.0022008785
0.0016573088
0.0068355634
0.0060753036
0.0058423149
0.0057133376
0.0056140014