/*--------------------------------*- C++ -*----------------------------------*\
| =========                 |                                                 |
| \\      /  F ield         | OpenFOAM: The Open Source CFD Toolbox           |
|  \\    /   O peration     | Version:  v2106                                 |
|   \\  /    A nd           | Website:  www.openfoam.com                      |
|    \\/     M anipulation  |                                                 |
\*---------------------------------------------------------------------------*/
FoamFile
{
    version     2.0;
    format      ascii;
    arch        "LSB;label=32;scalar=64";
    class       volScalarField;
    location    "77.5";
    object      gradTx;
}
// * * * * * * * * * * * * * * * * * * * * * * * * * * * * * * * * * * * * * //

dimensions      [0 -1 0 1 0 0 0];

internalField   nonuniform List<scalar> 
4000
(
0.00011760884
0.00025841078
0.00013012629
7.0507416e-05
2.2537071e-05
-1.9190747e-05
-5.4797822e-05
-8.0798991e-05
-8.6304211e-05
-2.7302572e-05
0.00010427381
0.00023377112
0.0001236883
6.7650146e-05
2.05138e-05
-2.1474276e-05
-5.8534864e-05
-8.8670385e-05
-0.00010501535
-3.6142668e-05
0.0001011824
0.00022603345
0.00011856957
6.4086568e-05
1.7475757e-05
-2.4775744e-05
-6.2925066e-05
-9.5127165e-05
-0.00011370424
-3.9351662e-05
9.998181e-05
0.00022221438
0.00011472947
6.0599228e-05
1.4147707e-05
-2.8275383e-05
-6.692426e-05
-9.9745439e-05
-0.00011826829
-4.0756963e-05
9.9277551e-05
0.00021961261
0.00011151865
5.7272356e-05
1.0822369e-05
-3.1650691e-05
-7.0396123e-05
-0.00010316624
-0.00012106808
-4.1516591e-05
9.8632967e-05
0.00021715307
0.00010836337
5.3945841e-05
7.5356119e-06
-3.4853547e-05
-7.3475215e-05
-0.00010594228
-0.00012312869
-4.2039035e-05
9.7755199e-05
0.0002140276
0.00010471753
5.0397415e-05
4.2442167e-06
-3.7909732e-05
-7.6312792e-05
-0.00010844603
-0.00012497017
-4.2505117e-05
9.61416e-05
0.00020902583
9.9973983e-05
4.6474785e-05
9.8465433e-07
-4.0770211e-05
-7.8961935e-05
-0.00011090367
-0.00012694892
-4.3044365e-05
9.2507606e-05
0.00019969944
9.3642478e-05
4.2358336e-05
-1.9526262e-06
-4.3189509e-05
-8.1274174e-05
-0.00011333981
-0.00012934547
-4.3797891e-05
8.3667512e-05
0.0001816258
8.6721036e-05
3.9110938e-05
-3.8757406e-06
-4.4672299e-05
-8.2782171e-05
-0.00011527897
-0.00013196935
-4.479362e-05
0.00051322593
0.0011503258
0.00060954509
0.00033582119
0.00010576353
-9.7580616e-05
-0.00027343326
-0.00040707213
-0.00045330135
-0.00014872091
0.00044866915
0.001032025
0.00057961895
0.00032226394
9.595403e-05
-0.00010875187
-0.00029197636
-0.00044793182
-0.00056495116
-0.00020397072
0.00043435871
0.00099612192
0.00055552874
0.0003051219
8.1191178e-05
-0.00012486603
-0.00031348119
-0.00047971385
-0.00060704939
-0.00021929103
0.00042871838
0.00097800864
0.00053706297
0.00028820952
6.4985095e-05
-0.00014194212
-0.00033301707
-0.0005022845
-0.00062928225
-0.00022611015
0.00042532054
0.00096542262
0.00052147432
0.00027201381
4.8770244e-05
-0.00015841774
-0.00034997475
-0.00051899611
-0.00064295315
-0.00022981674
0.00042217872
0.00095343629
0.00050609404
0.0002557886
3.2727394e-05
-0.00017406389
-0.00036503043
-0.00053258378
-0.00065304872
-0.00023237791
0.00041787304
0.00093813721
0.00048828406
0.00023846211
1.6648485e-05
-0.00018901216
-0.00037894121
-0.00054490508
-0.00066216003
-0.00023469414
0.00040981665
0.00091338836
0.00046505332
0.00021929503
7.1403175e-07
-0.00020303035
-0.00039199866
-0.00055716125
-0.00067222954
-0.00023748512
0.00039063325
0.0008654955
0.00043393137
0.00019917984
-1.365079e-05
-0.00021492113
-0.00040351869
-0.00056968677
-0.00068534175
-0.00024179827
0.00033538343
0.00075964031
0.00040072224
0.00018339128
-2.3052435e-05
-0.00022223723
-0.00041117949
-0.00058034297
-0.00070280814
-0.00024912937
0.00082799723
0.0018803918
0.001028606
0.00057023982
0.00017035267
-0.00019082447
-0.00051134083
-0.00077310998
-0.00092531685
-0.00032160026
0.00072394745
0.0016891572
0.00097911512
0.00054702968
0.00015313206
-0.00021069682
-0.00054462995
-0.00084726031
-0.001130596
-0.00042352497
0.00070050751
0.0016297057
0.00093817754
0.00051724824
0.00012711384
-0.00023931827
-0.00058297501
-0.00090395798
-0.0012046416
-0.00045016113
0.00069095354
0.0015987288
0.00090612395
0.00048755252
9.8447535e-05
-0.00026965115
-0.00061774432
-0.00094410591
-0.0012439258
-0.00046212842
0.00068503408
0.0015767142
0.00087870037
0.00045892223
6.9681849e-05
-0.00029895101
-0.00064794553
-0.00097387535
-0.0012682328
-0.00046870335
0.00067947314
0.00155549
0.00085143942
0.00043012052
4.1152573e-05
-0.00032683243
-0.00067483694
-0.00099820373
-0.0012863455
-0.00047330338
0.00067178585
0.0015282203
0.00081974603
0.0003992895
1.2500576e-05
-0.00035355291
-0.00069983953
-0.0010205462
-0.0013030736
-0.00047759899
0.00065728039
0.0014838558
0.00077832505
0.00036514999
-1.5940049e-05
-0.00037872643
-0.00072360173
-0.0010434348
-0.0013227181
-0.00048323917
0.0006223523
0.0013973724
0.00072290043
0.00032937211
-4.1597247e-05
-0.00040022377
-0.00074507064
-0.0010683774
-0.0013522873
-0.00049377977
0.00052042759
0.0012045311
0.00066499525
0.00030155879
-5.8359681e-05
-0.00041356725
-0.00075997433
-0.0010926485
-0.0014079194
-0.00052032721
0.0011088791
0.0025284705
0.001396189
0.00077081973
0.00021161256
-0.00030267068
-0.00076867158
-0.0011651968
-0.0014303871
-0.00050624084
0.00096972555
0.0022725473
0.0013293798
0.00073879163
0.00018736891
-0.00033099412
-0.00081646223
-0.0012722765
-0.001728484
-0.00065445162
0.00093826366
0.0021922622
0.0012732235
0.00069726518
0.00015062348
-0.00037173374
-0.00087125543
-0.0013533543
-0.0018336027
-0.00069203667
0.00092518611
0.0021495818
0.0012285725
0.00065548772
0.00010999758
-0.00041492062
-0.00092087076
-0.0014106395
-0.001889417
-0.00070896529
0.00091691159
0.0021187077
0.0011899196
0.00061494134
6.9101525e-05
-0.0004566962
-0.00096400929
-0.0014531822
-0.0019241057
-0.00071833142
0.00090902368
0.0020885927
0.0011512012
0.00057396576
2.8426049e-05
-0.00049654765
-0.0010025495
-0.0014881404
-0.0019501846
-0.00072496116
0.0008980293
0.0020496446
0.0011059931
0.0005299789
-1.2525517e-05
-0.00053487627
-0.0010386217
-0.0015206421
-0.0019747658
-0.00073132073
0.00087716325
0.0019860089
0.0010467926
0.00048121189
-5.3252668e-05
-0.00057116003
-0.0010733015
-0.0015547312
-0.002004824
-0.00074011352
0.00082664283
0.0018614871
0.00096763012
0.00043015102
-9.0026498e-05
-0.00060233618
-0.0011052124
-0.0015933329
-0.0020529355
-0.0007576994
0.00067843203
0.0015827933
0.00088585961
0.0003907089
-0.0001140203
-0.00062182015
-0.0011279409
-0.0016329009
-0.0021499245
-0.00080477281
0.0013705432
0.0031249195
0.00172331
0.00094078085
0.00023040466
-0.00043145591
-0.0010399553
-0.0015696268
-0.0019436908
-0.00069248945
0.0011980557
0.0028078217
0.001640434
0.00090053732
0.00019949455
-0.00046792982
-0.0011018363
-0.0017087603
-0.0023320519
-0.00088569665
0.0011591447
0.002708245
0.0015701889
0.00084800758
0.00015254225
-0.00052033798
-0.0011725636
-0.0018134926
-0.0024672605
-0.00093386538
0.001142805
0.0026547005
0.0015137578
0.00079480705
0.00010048452
-0.00057591246
-0.0012365502
-0.0018873846
-0.0025390633
-0.00095558277
0.0011323156
0.0026154718
0.0014644586
0.00074288564
4.7929349e-05
-0.00062974811
-0.0012922431
-0.0019423416
-0.0025838342
-0.00096765567
0.0011221983
0.0025768381
0.0014147478
0.00069019414
-4.4870603e-06
-0.00068122993
-0.0013421588
-0.001987723
-0.0026177424
-0.00097628159
0.0011079997
0.0025265897
0.001356476
0.00063347553
-5.7388127e-05
-0.00073091151
-0.0013891514
-0.0020303385
-0.002650198
-0.0009847182
0.0010809443
0.0024442298
0.0012800338
0.00057051468
-0.00011009565
-0.00077813833
-0.0014347379
-0.0020757717
-0.0026908791
-0.00099673123
0.0010152441
0.002282724
0.0011778516
0.00050462643
-0.0001577265
-0.00081890834
-0.0014772001
-0.0021283344
-0.0027578264
-0.0010214286
0.00082203688
0.0019206601
0.0010730224
0.000453941
-0.00018877473
-0.00084450213
-0.0015078746
-0.0021834001
-0.0028955761
-0.0010885644
0.0016163512
0.0036793048
0.0020171855
0.0010844719
0.00022996526
-0.00057321165
-0.0013187554
-0.0019761576
-0.0024523068
-0.00087586147
0.0014120076
0.0033038769
0.001919172
0.0010364998
0.00019272734
-0.00061749379
-0.0013941929
-0.0021461515
-0.0029275185
-0.0011123547
0.0013660659
0.0031861488
0.0018357181
0.00097360839
0.00013608064
-0.00068106908
-0.0014802306
-0.0022736333
-0.0030916322
-0.00117068
0.0013466653
0.0031224095
0.0017682077
0.00090960339
7.3136064e-05
-0.00074850782
-0.0015580263
-0.0023634969
-0.0031787984
-0.0011969942
0.0013340845
0.0030752853
0.0017088217
0.00084685953
9.4349633e-06
-0.00081392251
-0.0016258083
-0.0024304229
-0.003233286
-0.0012116735
0.00132184
0.0030285249
0.0016486164
0.00078295773
-5.4254054e-05
-0.0008766152
-0.0016867296
-0.0024859147
-0.0032747968
-0.0012222379
0.0013045631
0.0029674279
0.0015778077
0.00071400611
-0.00011867242
-0.00093729215
-0.0017443578
-0.0025384281
-0.0033149805
-0.0012327148
0.0012715483
0.0028670497
0.001484783
0.00063738002
-0.00018295735
-0.00099516467
-0.0018006382
-0.0025950487
-0.0033661508
-0.0012479048
0.0011912338
0.0026699522
0.0013604623
0.00055721652
-0.00024109021
-0.0010452974
-0.0018534917
-0.0026614005
-0.0034516172
-0.0012795713
0.00095474054
0.0022277244
0.0012335031
0.00049572623
-0.00027895576
-0.0010768592
-0.0018919921
-0.0027316853
-0.0036290511
-0.0013661941
0.0018467965
0.0041945641
0.0022820306
0.0012057133
0.00021404222
-0.00072348128
-0.0015991685
-0.0023772209
-0.0029481417
-0.0010537453
0.0016121735
0.003763761
0.0021697431
0.0011504642
0.0001708173
-0.00077519138
-0.0016875353
-0.0025766613
-0.0035062153
-0.0013315351
0.0015595944
0.003628931
0.0020738777
0.0010778173
0.00010499851
-0.00084938209
-0.0017881639
-0.0027258347
-0.0036978633
-0.0013995273
0.0015373152
0.0035556081
0.0019959443
0.001003617
3.1737427e-05
-0.00092810587
-0.0018791234
-0.0028309321
-0.0037996734
-0.0014302197
0.0015227617
0.0035010351
0.0019270304
0.00093062407
-4.2553008e-05
-0.0010045547
-0.0019584496
-0.0029092968
-0.0038634439
-0.0014473875
0.0015084985
0.0034465644
0.0018568644
0.00085606545
-0.0001169846
-0.0010779619
-0.002029916
-0.002974492
-0.0039122547
-0.0014598127
0.0014882883
0.0033751343
0.0017741159
0.00077545141
-0.00019240904
-0.0011491821
-0.0020977791
-0.0030365574
-0.0039599062
-0.0014722615
0.0014495873
0.003257569
0.0016652763
0.00068577972
-0.00026777718
-0.0012172914
-0.0021643915
-0.0031040198
-0.0040212471
-0.0014905306
0.0013553281
0.0030265205
0.0015198451
0.00059198932
-0.000335969
-0.0012764427
-0.0022273069
-0.0031837452
-0.0041246454
-0.0015289373
0.0010775382
0.0025078475
0.0013718183
0.00052019905
-0.00038035849
-0.0013137537
-0.0022733839
-0.0032687589
-0.0043403942
-0.0016343632
0.0020614871
0.0046711012
0.0025202241
0.0013074809
0.00018608735
-0.00087812315
-0.0018761615
-0.0027670215
-0.0034254256
-0.0012243216
0.0017983194
0.0041881381
0.0023945501
0.0012454111
0.00013723181
-0.000936844
-0.001976752
-0.002994313
-0.0040618809
-0.001541176
0.0017395117
0.0040372788
0.0022870691
0.0011636207
6.2788227e-05
-0.001021048
-0.0020911668
-0.0031639874
-0.004279527
-0.0016182886
0.0017145368
0.0039549831
0.0021993719
0.0010798502
-2.0184074e-05
-0.0011104218
-0.0021945677
-0.0032834868
-0.0043951724
-0.0016531146
0.0016981318
0.0038934185
0.0021215082
0.0009972136
-0.00010446074
-0.0011972987
-0.0022848197
-0.0033726829
-0.0044677298
-0.0016726364
0.0016819664
0.0038316839
0.002041956
0.00091260127
-0.00018904542
-0.0012808537
-0.0023662915
-0.0034470952
-0.004523476
-0.0016868291
0.0016589846
0.0037504936
0.0019479304
0.00082096289
-0.00027489254
-0.0013620832
-0.0024438961
-0.0035182698
-0.004578256
-0.0017011606
0.001614906
0.0036166787
0.0018241403
0.00071894837
-0.0003607692
-0.0014399301
-0.0025203698
-0.0035961044
-0.0046493351
-0.0017223782
0.0015074569
0.0033535278
0.0016587566
0.00061226733
-0.000438501
-0.0015076701
-0.0025929053
-0.0036886404
-0.0047699116
-0.0017672403
0.0011906025
0.0027625772
0.0014908488
0.00053074564
-0.00048907276
-0.0015504563
-0.0026462289
-0.0037877601
-0.0050223462
-0.0018906679
0.0022597403
0.0051082792
0.002733083
0.0013919967
0.00014901141
-0.0010335678
-0.0021455388
-0.0031409451
-0.0038796474
-0.001386163
0.0019699237
0.0045766535
0.0025949631
0.0013235839
9.4903687e-05
-0.0010988464
-0.0022575779
-0.0033943321
-0.0045895594
-0.0017396293
0.0019053232
0.0044108981
0.0024766953
0.0012332884
1.241597e-05
-0.0011924117
-0.0023848968
-0.0035831986
-0.0048315195
-0.0018252644
0.0018778437
0.0043202658
0.0023799197
0.0011406041
-7.9621554e-05
-0.0012917462
-0.0024999459
-0.0037161836
-0.0049601109
-0.0018639555
0.0018597146
0.0042521898
0.0022937156
0.0010489679
-0.00017323351
-0.0013883871
-0.0026004389
-0.0038155355
-0.0050409035
-0.0018856824
0.0018417719
0.0041836704
0.0022053945
0.00095495467
-0.00026732562
-0.00148146
-0.0026913084
-0.0038986125
-0.0051031705
-0.0019015364
0.0018161955
0.0040933459
0.0021008158
0.00085299259
-0.00036294736
-0.0015720955
-0.0027780863
-0.0039783791
-0.0051646804
-0.0019176459
0.0017670792
0.0039443124
0.0019630265
0.00073941256
-0.0004586881
-0.0016591074
-0.0028638683
-0.0040660265
-0.0052449843
-0.0019416576
0.0016472708
0.0036510924
0.0017789643
0.00062065563
-0.00054537628
-0.0017349391
-0.0029455004
-0.0041707051
-0.0053818591
-0.001992646
0.0012938045
0.0029924403
0.001592475
0.00053002856
-0.00060174766
-0.0017828843
-0.0030056821
-0.0042832053
-0.0056691164
-0.0021331625
0.0024408003
0.005505051
0.0029213159
0.0014609016
0.00010518111
-0.0011868347
-0.0024038193
-0.0034952099
-0.0043070862
-0.0015380773
0.002126382
0.004928531
0.0027717505
0.0013866507
4.6223849e-05
-0.0012581838
-0.0025264688
-0.0037727929
-0.0050851262
-0.0019255018
0.0020564536
0.0047490831
0.0026435694
0.0012885233
-4.3691074e-05
-0.0013604109
-0.0026657397
-0.0039794365
-0.0053495831
-0.0020190154
0.0020266718
0.0046507845
0.002538437
0.0011876186
-0.00014410561
-0.0014689649
-0.0027915796
-0.0041249148
-0.0054901589
-0.0020612819
0.002006953
0.0045767048
0.0024445373
0.001087668
-0.00024635513
-0.0015746525
-0.0029015696
-0.0042336868
-0.0055785868
-0.0020850521
0.0019873669
0.0045019123
0.0023481076
0.00098495458
-0.00034925707
-0.0016765577
-0.0030011703
-0.0043248202
-0.0056469177
-0.0021024507
0.0019593869
0.0044031285
0.0022337563
0.00087342649
-0.00045394787
-0.001775936
-0.0030964912
-0.0044126018
-0.0057147121
-0.0021202212
0.0019056006
0.0042399919
0.0020829968
0.00074912474
-0.00055884776
-0.0018714793
-0.0031909627
-0.0045094322
-0.0058036629
-0.0021468539
0.0017743317
0.003918902
0.0018816343
0.00061917613
-0.00065385326
-0.0019548509
-0.0032811032
-0.004625501
-0.0059558498
-0.0022036005
0.0013869072
0.0031974949
0.0016779641
0.00052012102
-0.00071560649
-0.0020076045
-0.0033477079
-0.0047505699
-0.0062758538
-0.0023601899
0.0026039311
0.0058602546
0.003085287
0.0015154148
5.6498731e-05
-0.0013354629
-0.0026481098
-0.0038266619
-0.0047045912
-0.0016790422
0.0022670962
0.0052428566
0.0029253347
0.0014358589
-6.8817121e-06
-0.0014123641
-0.0027804754
-0.0041264119
-0.0055450679
-0.0020975904
0.0021923325
0.0050509886
0.0027881602
0.0013306084
-0.00010357132
-0.0015225092
-0.0029306829
-0.0043493233
-0.0058300858
-0.0021982971
0.0021604613
0.0049457298
0.0026754304
0.0012222148
-0.00021163376
-0.001639494
-0.0030663984
-0.0045062352
-0.0059816202
-0.0022438304
0.0021392952
0.0048661822
0.0025745161
0.0011146753
-0.00032177925
-0.0017534626
-0.0031850889
-0.0046236388
-0.006077041
-0.0022694708
0.0021182077
0.0047856598
0.0024706783
0.0010040069
-0.0004327463
-0.0018634646
-0.0032927035
-0.0047221726
-0.006150943
-0.0022882884
0.0020880277
0.0046791359
0.0023473862
0.0008837218
-0.00054574984
-0.0019708712
-0.0033958849
-0.0048173419
-0.0062245374
-0.0023075926
0.0020299639
0.0045030867
0.0021847553
0.00074960092
-0.00065905139
-0.0020742606
-0.0034983719
-0.0049226669
-0.0063215031
-0.0023366569
0.0018881944
0.0041564746
0.001967563
0.00060940624
-0.00076168726
-0.0021645743
-0.0035963791
-0.0050493022
-0.0064879224
-0.002398759
0.0014696461
0.0033775921
0.001748203
0.00050264568
-0.00082837418
-0.0022217569
-0.0036689319
-0.0051860519
-0.0068384029
-0.0025703106
0.0027484609
0.0061727661
0.0032251763
0.0015564609
4.4962036e-06
-0.0014774243
-0.0028760003
-0.0041326482
-0.0050694705
-0.0018081743
0.0023915166
0.0055187278
0.0030559485
0.0014721588
-6.2859195e-05
-0.0015593309
-0.0030171375
-0.0044524224
-0.0059663713
-0.0022548519
0.0023124353
0.0053157745
0.0029107437
0.0013605281
-0.00016563798
-0.0016766103
-0.0031772103
-0.0046900086
-0.0062699101
-0.0023620303
0.0022786981
0.0052042952
0.0027912117
0.0012454128
-0.0002805817
-0.0018011946
-0.0033218354
-0.0048572353
-0.0064313212
-0.0024105049
0.0022562339
0.0051198417
0.0026839976
0.0011310468
-0.00039784192
-0.0019226358
-0.0034483837
-0.0049824361
-0.0065330556
-0.0024378328
0.0022337945
0.005034161
0.0025734892
0.0010132088
-0.00051608742
-0.0020399557
-0.003563251
-0.0050876733
-0.0066120053
-0.0024579358
0.0022016295
0.0049206557
0.0024421339
0.00088502135
-0.00063660296
-0.0021546317
-0.0036735654
-0.0051895604
-0.0066908815
-0.0024786377
0.002139703
0.0047329509
0.0022687914
0.00074203549
-0.00075750307
-0.0022651374
-0.0037833476
-0.0053026416
-0.006795183
-0.0025099301
0.0019884467
0.0043632953
0.0020373211
0.00059259381
-0.00086704098
-0.002361756
-0.0038885337
-0.0054389576
-0.0069746722
-0.0025769542
0.0015417692
0.0035325113
0.0018038414
0.00047889001
-0.00093818721
-0.0024229633
-0.0039665252
-0.0055864322
-0.007353183
-0.0027622707
0.0028738056
0.0064415856
0.0033410807
0.001584765
-4.9580845e-05
-0.0016110442
-0.0030854814
-0.0044109363
-0.0053994282
-0.0019247143
0.0024991662
0.0057553371
0.0031637348
0.0014962983
-0.00012044372
-0.0016973848
-0.0032344025
-0.0047484931
-0.006346462
-0.0023963878
0.0024163066
0.0055426881
0.0030115009
0.0013790605
-0.00022859702
-0.0018209803
-0.0034032209
-0.0049990893
-0.0066663921
-0.0025092854
0.0023809356
0.0054257574
0.0028859943
0.0012580224
-0.00034962223
-0.0019522954
-0.0035557452
-0.0051754608
-0.0068365494
-0.0025603618
0.0023573289
0.0053369836
0.002773225
0.0011376252
-0.00047318104
-0.0020803632
-0.0036892693
-0.0053075852
-0.0069438865
-0.002589186
0.0023336937
0.0052467412
0.0026568157
0.0010134384
-0.00059788196
-0.0022041849
-0.0038105903
-0.0054187936
-0.0070273342
-0.0026104342
0.0022997685
0.0051270475
0.0025183144
0.00087824232
-0.0007250705
-0.0023253333
-0.0039272723
-0.0055266922
-0.0071109456
-0.0026323905
0.002234413
0.0049290017
0.002335473
0.00072738999
-0.00085272705
-0.0024421879
-0.0040435893
-0.005646748
-0.0072218628
-0.002665695
0.0020747306
0.0045388945
0.0020913466
0.00056974645
-0.00096840328
-0.0025444404
-0.0041552267
-0.0057918047
-0.007413186
-0.0027371795
0.001603057
0.0036620378
0.0018453857
0.00044989558
-0.0010435119
-0.002609247
-0.0042381179
-0.0059489883
-0.007817123
-0.0029349864
0.0029794838
0.0066658908
0.0034330809
0.0016009224
-0.00010470543
-0.0017349362
-0.0032748828
-0.0046596592
-0.0056925271
-0.0020280177
0.0025896533
0.0059520246
0.003248813
0.0015088921
-0.00017859195
-0.0018251187
-0.0034305635
-0.0050126736
-0.0066831682
-0.0025214368
0.002503573
0.005731115
0.0030905832
0.0013868457
-0.00029138034
-0.0019541826
-0.003606967
-0.0052745546
-0.0070172846
-0.0026392752
0.002466808
0.0056095269
0.0029599564
0.001260711
-0.00041765914
-0.0020913284
-0.0037663433
-0.0054588583
-0.0071950172
-0.0026926017
0.0024422195
0.0055170383
0.0028424021
0.0011351058
-0.0005466709
-0.0022251455
-0.0039059275
-0.0055969993
-0.0073072197
-0.002722724
0.0024175503
0.005422852
0.0027208892
0.0010054204
-0.00067697348
-0.0023546213
-0.0040328717
-0.0057134175
-0.0073945935
-0.0027449718
0.0023820978
0.0052977919
0.0025761924
0.0008641429
-0.00080996383
-0.0024814132
-0.0041551236
-0.0058265905
-0.0074823691
-0.0027680323
0.0023137632
0.0050907678
0.0023851093
0.00070645991
-0.00094350187
-0.0026038174
-0.0042771814
-0.0059528027
-0.0075991468
-0.0028031223
0.0021467549
0.0046828964
0.0021300077
0.00054169818
-0.001064523
-0.0027110045
-0.0043945089
-0.0061056131
-0.0078010035
-0.0028785817
0.0016533358
0.0037660103
0.0018732603
0.00041652484
-0.0011430782
-0.0027789668
-0.0044817347
-0.0062714372
-0.0082276236
-0.0030875357
0.0030651252
0.0068450701
0.0035012866
0.0016054501
-0.00016001727
-0.0018479522
-0.0034428269
-0.0048772773
-0.0059471643
-0.0021175499
0.0026626808
0.0061083099
0.0033113231
0.0015104725
-0.00023643042
-0.0019413676
-0.0036042133
-0.0052433568
-0.006974696
-0.0026293689
0.0025739518
0.0058806111
0.0031481562
0.0013844366
-0.00035309448
-0.0020750284
-0.0037870083
-0.0055147486
-0.0073207337
-0.0027513489
0.0025360386
0.0057551796
0.0030132856
0.0012540533
-0.00048377615
-0.0022170792
-0.0039521593
-0.0057057373
-0.0075048382
-0.0028065644
0.0025106334
0.0056595976
0.002891737
0.0011240858
-0.0006173713
-0.0023557428
-0.004096861
-0.0058489613
-0.0076211471
-0.0028377811
0.0024850964
0.0055621024
0.0027659399
0.00098977647
-0.00075239679
-0.0024899995
-0.004228572
-0.0059698035
-0.0077118572
-0.0028608782
0.0024483564
0.0054325213
0.0026160254
0.00084337145
-0.00089029156
-0.0026215799
-0.0043555699
-0.0060874886
-0.0078032056
-0.0028848875
0.0023775055
0.0052179209
0.0024179939
0.00067992377
-0.0010288095
-0.0027487084
-0.0044825466
-0.0062190081
-0.0079250587
-0.0029215272
0.0022043033
0.00479505
0.002153645
0.00050915876
-0.0011543578
-0.0028601072
-0.0046047745
-0.0063785452
-0.0081360936
-0.0030004548
0.0016924843
0.0038443515
0.0018878517
0.00037951039
-0.0012358284
-0.0029307669
-0.004695748
-0.0065518962
-0.0085825335
-0.0032191537
0.0031304759
0.0069787442
0.0035458674
0.0015988233
-0.00021478382
-0.0019491441
-0.0035881942
-0.0050625506
-0.0061620538
-0.0021928823
0.002718051
0.0062239142
0.0033514578
0.001501526
-0.0002932167
-0.0020451707
-0.0037542099
-0.0054392511
-0.007219613
-0.0027196824
0.0026272558
0.0059909241
0.0031844311
0.0013723351
-0.00041298189
-0.0021825389
-0.0039421777
-0.0057183425
-0.0075752617
-0.0028449895
0.0025884446
0.0058624779
0.0030462092
0.0012385676
-0.00054719838
-0.0023285495
-0.0041120031
-0.0059147426
-0.00776451
-0.0029017257
0.002562391
0.0057644359
0.0029214726
0.0011051007
-0.00068448904
-0.0024711372
-0.004260859
-0.0060620955
-0.00788415
-0.0029338286
0.002536156
0.0056642798
0.0027922276
0.0009670604
-0.00082333954
-0.0026092817
-0.0043964604
-0.0061865575
-0.0079775924
-0.0029576211
0.0024983732
0.0055310411
0.0026380939
0.00081650244
-0.00096522121
-0.0027447754
-0.0045273597
-0.0063079719
-0.0080719061
-0.0029824197
0.0024254789
0.0053102963
0.0024344344
0.00064837913
-0.0011077968
-0.0028757824
-0.0046584109
-0.0064439248
-0.008198025
-0.0030203655
0.0022472395
0.0048752493
0.0021626024
0.00047274945
-0.0012370361
-0.0029906518
-0.004784727
-0.006609129
-0.0084168369
-0.0031022374
0.0017204394
0.0038970884
0.0018895374
0.00033949078
-0.0013208792
-0.0030635384
-0.0048788436
-0.0067888556
-0.0088801326
-0.0033292294
0.0031754016
0.0070667801
0.0035670743
0.0015815019
-0.00026837154
-0.0020377354
-0.0037100974
-0.0052145182
-0.0063362136
-0.0022536895
0.0027556686
0.0062987731
0.0033694824
0.0014825198
-0.00034831052
-0.0021357426
-0.0038796503
-0.0055993595
-0.0074168353
-0.0027920011
0.0026633969
0.0060620069
0.0031996851
0.0013510182
-0.00047039217
-0.0022759161
-0.0040715549
-0.005884314
-0.0077797541
-0.0029198105
0.0026239407
0.0059313838
0.003059015
0.0012147418
-0.00060726369
-0.0024249281
-0.0042449387
-0.0060848339
-0.0079729014
-0.0029776942
0.0025974089
0.0058315232
0.002931907
0.0010786502
-0.00074734942
-0.0025705038
-0.0043969709
-0.0062353472
-0.008095086
-0.0030104722
0.002570648
0.0057293632
0.0028000618
0.00093778455
-0.00088911367
-0.0027116293
-0.0045355721
-0.0063626113
-0.0081906465
-0.0030348038
0.0025320708
0.0055933426
0.0026427215
0.00078406246
-0.0010340506
-0.0028501464
-0.004669513
-0.0064869575
-0.0082873058
-0.0030602286
0.0024576128
0.0053679057
0.0024347734
0.00061236863
-0.0011797471
-0.0029841715
-0.0048037782
-0.0066264506
-0.008416862
-0.0030992313
0.0022755099
0.0049235468
0.0021572471
0.00043302929
-0.0013118279
-0.0031017568
-0.0049333524
-0.0067962366
-0.0086420131
-0.0031835094
0.0017371983
0.0039243651
0.0018787073
0.00029703675
-0.0013974922
-0.0031763912
-0.0050299937
-0.0069811579
-0.0091191201
-0.0034173026
0.003199889
0.0071092981
0.0035652535
0.0015539489
-0.00032022447
-0.0021130991
-0.0038078616
-0.0053324819
-0.0064689553
-0.0022997468
0.0027755421
0.0063330446
0.0033657497
0.0014539205
-0.00040115256
-0.0022124514
-0.0039798507
-0.0057229637
-0.0075656167
-0.0028460714
0.0026823867
0.0060940248
0.0031942758
0.001320957
-0.00052476081
-0.0023545217
-0.0041744469
-0.006011931
-0.0079334493
-0.0029755535
0.0026425396
0.0059620669
0.0030520654
0.0011830527
-0.00066340139
-0.0025055693
-0.0043502642
-0.0062152694
-0.0081292419
-0.003034209
0.0026157011
0.0058610329
0.002923408
0.001045217
-0.00080537488
-0.0026531895
-0.0045044866
-0.0063679663
-0.0082531781
-0.0030674494
0.0025885875
0.0057575306
0.0027898166
0.00090243858
-0.00094913415
-0.0027963808
-0.0046451885
-0.0064972066
-0.0083502364
-0.003092162
0.0025494662
0.0056196104
0.0026302901
0.00074654917
-0.0010961863
-0.0029370229
-0.004781302
-0.0066236773
-0.0084486134
-0.0031180478
0.0024739281
0.0053909453
0.0024194031
0.00057239888
-0.0012440585
-0.0030731961
-0.0049179091
-0.0067658043
-0.0085807646
-0.0031578537
0.002289145
0.0049401612
0.0021379844
0.00039051393
-0.0013781235
-0.0031927339
-0.0050498997
-0.0069390681
-0.0088107902
-0.0032439898
0.0017428204
0.0039264512
0.001855778
0.0002526701
-0.0014650529
-0.0032686315
-0.0051484374
-0.007127981
-0.0092986032
-0.0034830624
0.0032040457
0.0071066755
0.0035408556
0.0015166445
-0.00036984849
-0.0021747415
-0.0038810081
-0.0054159928
-0.0065598743
-0.0023309282
0.0027777839
0.0063271125
0.0033407091
0.0014162073
-0.00045124847
-0.0022748027
-0.004054331
-0.0058096104
-0.007665539
-0.0028817601
0.0026843371
0.0060873596
0.0031686507
0.0012826304
-0.00057559315
-0.0024178601
-0.0042503716
-0.0061007381
-0.008035928
-0.0030120853
0.0026443528
0.0059549077
0.0030258072
0.0011439787
-0.00071511616
-0.0025699763
-0.004427496
-0.0063055917
-0.0082331111
-0.0030711368
0.0026173789
0.0058533454
0.0028964222
0.0010052803
-0.00085806892
-0.0027186956
-0.0045829204
-0.0064594935
-0.0083580045
-0.0031046265
0.0025900862
0.005749163
0.0027619395
0.00086150298
-0.0010029027
-0.0028630353
-0.004724821
-0.0065898811
-0.0084559378
-0.0031295616
0.0025506715
0.0056102268
0.0026012486
0.00070444483
-0.0011511279
-0.0030049007
-0.0048622337
-0.0067176642
-0.0085554006
-0.0031557421
0.0024745376
0.0053797995
0.0023887744
0.00052895414
-0.0013002277
-0.0031423485
-0.0050003056
-0.0068615114
-0.0086892963
-0.0031960949
0.0022882598
0.0049254815
0.0021052673
0.00034568943
-0.0014354173
-0.0032630714
-0.005133864
-0.0070371374
-0.0089227139
-0.0032835335
0.0017374278
0.0039037458
0.0018212023
0.00020687762
-0.0015230544
-0.0033397447
-0.005233664
-0.0072288246
-0.0094180869
-0.0035263436
0.0031880987
0.0070595459
0.0034944412
0.0014700948
-0.00041679911
-0.0022222884
-0.0039292417
-0.0054648399
-0.006608841
-0.0023472033
0.002762609
0.0062815864
0.003294912
0.0013698818
-0.00049815679
-0.0023224253
-0.0041028005
-0.0058590992
-0.0077165018
-0.0028990515
0.0026694591
0.0060426093
0.0031233527
0.0012365339
-0.00062245232
-0.0024655648
-0.0042990445
-0.006150544
-0.0080871031
-0.0030293954
0.0026295895
0.0059104979
0.0029807767
0.0010980104
-0.00076197587
-0.0026177872
-0.0044763548
-0.0063556158
-0.0082844288
-0.0030884692
0.0026026504
0.0058090484
0.0028514813
0.0009593257
-0.00090500377
-0.0027666643
-0.004631997
-0.0065097478
-0.0084094883
-0.0031219961
0.002575351
0.0057048447
0.0027169576
0.00081545894
-0.0010499953
-0.0029112383
-0.004774197
-0.0066404558
-0.0085076756
-0.0031469955
0.0025358924
0.0055657719
0.0025561194
0.00065822622
-0.0011984549
-0.0030534277
-0.004912037
-0.0067687397
-0.0086075918
-0.0031733041
0.0024596452
0.0053350419
0.0023434033
0.00048250639
-0.0013478375
-0.0031912782
-0.0050506962
-0.0069133914
-0.0087423785
-0.0032139465
0.0022730529
0.0048800678
0.0020596028
0.00029902243
-0.0014832949
-0.0033124197
-0.0051849726
-0.0070902598
-0.0089776976
-0.0033021291
0.0017212047
0.0038567798
0.0017754762
0.00016012127
-0.0015710843
-0.0033893817
-0.0052853991
-0.0072834972
-0.009477464
-0.0035471242
0.0031523926
0.0069687967
0.0034266836
0.0014148389
-0.00046067194
-0.0022554739
-0.0039524383
-0.0054790384
-0.0066159917
-0.0023486351
0.0027303336
0.0061972993
0.0032290149
0.0013154748
-0.00054147921
-0.0023550603
-0.0041251469
-0.0058714715
-0.0077187128
-0.0028980439
0.002638061
0.0059605868
0.0030590232
0.0011831875
-0.00066494931
-0.0024973871
-0.0043203667
-0.0061614101
-0.0080872098
-0.0030275921
0.0025985545
0.0058296389
0.0029176036
0.0010456566
-0.00080360157
-0.0026487636
-0.0044967536
-0.0063654172
-0.0082834441
-0.0030863191
0.0025718183
0.0057289353
0.0027892051
0.00090785222
-0.00094581029
-0.0027968671
-0.0046516393
-0.0065188143
-0.0084078868
-0.0031196734
0.002544683
0.0056253616
0.0026554813
0.00076479567
-0.0010900523
-0.0029407699
-0.0047932476
-0.0066490233
-0.0085057122
-0.0031445803
0.0025054274
0.0054870222
0.0024955018
0.00060837222
-0.0012378166
-0.003082392
-0.0049306496
-0.0067770017
-0.0086054531
-0.0031708514
0.002429544
0.0052574332
0.0022838746
0.00043352302
-0.0013865463
-0.0032197802
-0.0050690242
-0.0069215463
-0.0087402799
-0.0032115265
0.0022438054
0.0048046506
0.002001556
0.00025096797
-0.0015214227
-0.0033405794
-0.0052031725
-0.0070985395
-0.0089760109
-0.0032998945
0.0016943966
0.003786215
0.0017191433
0.0001128461
-0.0016088145
-0.0034173465
-0.0053035919
-0.0072921041
-0.0094770036
-0.0035455217
0.0030973862
0.0068355634
0.0033383698
0.0013514539
-0.00050109447
-0.0022741308
-0.0039506344
-0.0054588193
-0.0065817179
-0.0023353766
0.0026813723
0.0060753036
0.0031437808
0.0012535512