/*--------------------------------*- C++ -*----------------------------------*\
| =========                 |                                                 |
| \\      /  F ield         | OpenFOAM: The Open Source CFD Toolbox           |
|  \\    /   O peration     | Version:  v2106                                 |
|   \\  /    A nd           | Website:  www.openfoam.com                      |
|    \\/     M anipulation  |                                                 |
\*---------------------------------------------------------------------------*/
FoamFile
{
    version     2.0;
    format      ascii;
    arch        "LSB;label=32;scalar=64";
    class       volVectorField;
    location    "15";
    object      flux;
}
// * * * * * * * * * * * * * * * * * * * * * * * * * * * * * * * * * * * * * //

dimensions      [0 1 -1 1 0 0 0];

internalField   nonuniform List<vector> 
4000
(
(3.4123513e-08 3.4123512e-08 1.0941469)
(3.6330163e-07 3.0714616e-07 1.0941471)
(-2.3435195e-07 -4.7831323e-08 1.0941482)
(-6.1647656e-07 2.5908355e-08 1.0941457)
(-1.5058578e-08 5.2947274e-08 1.0941454)
(1.3818091e-07 5.9516191e-08 1.0941456)
(1.7358748e-07 6.4182332e-08 1.0941461)
(1.6856402e-07 7.0981615e-08 1.0941465)
(1.2303207e-07 6.8729137e-08 1.094147)
(2.9882869e-08 3.9334479e-08 1.0941472)
(3.0714617e-07 3.6330163e-07 1.0941471)
(2.4036938e-07 2.4036939e-07 1.0941486)
(-6.5620866e-07 -1.9889882e-07 1.0941477)
(-4.6530867e-07 -4.006804e-08 1.0941457)
(3.5353176e-08 1.4018464e-08 1.0941455)
(1.550335e-07 2.8644717e-08 1.0941458)
(1.9078562e-07 4.6386666e-08 1.0941462)
(1.7538423e-07 8.5135729e-08 1.0941468)
(7.5561365e-08 1.1813291e-07 1.0941472)
(4.8821116e-10 6.0040522e-08 1.0941472)
(-4.783132e-08 -2.3435195e-07 1.0941482)
(-1.9889882e-07 -6.5620866e-07 1.0941477)
(-5.1478937e-07 -5.1478936e-07 1.094147)
(-4.0355928e-07 -4.498829e-07 1.0941452)
(5.3654179e-08 -4.3283043e-07 1.0941451)
(1.7054911e-07 -4.2898494e-07 1.0941454)
(2.300785e-07 -4.1665017e-07 1.094146)
(2.4031027e-07 -3.7010589e-07 1.0941467)
(9.7936862e-08 -2.7979009e-07 1.0941472)
(-8.8453906e-09 -2.1402656e-07 1.0941472)
(2.5908356e-08 -6.1647657e-07 1.0941457)
(-4.0068038e-08 -4.6530868e-07 1.0941457)
(-4.4988289e-07 -4.0355929e-07 1.0941452)
(-3.8334973e-07 -3.8334974e-07 1.0941435)
(5.625113e-08 -3.811397e-07 1.0941434)
(1.7121375e-07 -3.8617854e-07 1.0941438)
(2.4966468e-07 -3.9114369e-07 1.0941443)
(3.1224431e-07 -3.8095352e-07 1.0941451)
(2.3164069e-07 -3.3251711e-07 1.0941459)
(4.4330564e-08 -2.5484044e-07 1.0941462)
(5.2947275e-08 -1.5058577e-08 1.0941454)
(1.4018459e-08 3.5353185e-08 1.0941455)
(-4.3283043e-07 5.365418e-08 1.0941451)
(-3.8113969e-07 5.6251131e-08 1.0941434)
(5.0825373e-08 5.0825369e-08 1.0941433)
(1.6054512e-07 4.2142915e-08 1.0941436)
(2.3530352e-07 3.0325457e-08 1.0941441)
(2.9893684e-07 1.6211585e-08 1.0941449)
(2.2404995e-07 3.5668738e-09 1.0941457)
(4.2939063e-08 -5.6810212e-09 1.094146)
(5.9516197e-08 1.3818091e-07 1.0941456)
(2.8644719e-08 1.5503349e-07 1.0941458)
(-4.2898495e-07 1.7054911e-07 1.0941454)
(-3.8617854e-07 1.7121375e-07 1.0941438)
(4.2142913e-08 1.6054512e-07 1.0941436)
(1.5071384e-07 1.5071384e-07 1.0941439)
(2.2373335e-07 1.4163171e-07 1.0941444)
(2.8548572e-07 1.3231273e-07 1.0941451)
(2.0974808e-07 1.226641e-07 1.0941459)
(3.8165301e-08 1.1370744e-07 1.0941462)
(6.4182331e-08 1.7358749e-07 1.0941461)
(4.6386663e-08 1.9078561e-07 1.0941462)
(-4.1665017e-07 2.300785e-07 1.094146)
(-3.9114369e-07 2.4966467e-07 1.0941443)
(3.0325461e-08 2.3530352e-07 1.0941441)
(1.4163171e-07 2.2373334e-07 1.0941444)
(2.1690241e-07 2.1690241e-07 1.0941448)
(2.7996924e-07 2.1283894e-07 1.0941455)
(2.0544466e-07 2.1005043e-07 1.0941463)
(3.6967953e-08 2.085137e-07 1.0941466)
(7.098161e-08 1.6856402e-07 1.0941465)
(8.5135735e-08 1.7538423e-07 1.0941468)
(-3.7010588e-07 2.4031027e-07 1.0941467)
(-3.8095353e-07 3.1224431e-07 1.0941451)
(1.6211584e-08 2.9893683e-07 1.0941449)
(1.3231273e-07 2.8548572e-07 1.0941451)
(2.1283894e-07 2.7996923e-07 1.0941455)
(2.7863375e-07 2.7863375e-07 1.0941462)
(2.0542284e-07 2.7716935e-07 1.094147)
(3.714081e-08 2.7403529e-07 1.0941473)
(6.8729136e-08 1.2303207e-07 1.094147)
(1.1813291e-07 7.5561372e-08 1.0941472)
(-2.7979009e-07 9.793685e-08 1.0941472)
(-3.3251712e-07 2.3164069e-07 1.0941459)
(3.5668759e-09 2.2404995e-07 1.0941457)
(1.2266411e-07 2.0974808e-07 1.0941459)
(2.1005044e-07 2.0544466e-07 1.0941463)
(2.7716935e-07 2.0542284e-07 1.094147)
(2.0084619e-07 2.008462e-07 1.0941478)
(3.4878576e-08 1.8637107e-07 1.094148)
(3.9334479e-08 2.9882871e-08 1.0941472)
(6.0040516e-08 4.8821346e-10 1.0941472)
(-2.1402657e-07 -8.8453921e-09 1.0941472)
(-2.5484044e-07 4.4330563e-08 1.0941462)
(-5.6810263e-09 4.2939066e-08 1.094146)
(1.1370744e-07 3.8165296e-08 1.0941462)
(2.085137e-07 3.6967952e-08 1.0941466)
(2.7403529e-07 3.7140808e-08 1.0941473)
(1.8637108e-07 3.4878578e-08 1.094148)
(2.7490727e-08 2.7490729e-08 1.0941482)
(1.277151e-07 1.277151e-07 1.6251142)
(8.5958527e-07 5.6706721e-07 1.6251138)
(-1.3655532e-06 -3.7459174e-07 1.6251139)
(-2.3718983e-06 -1.4755784e-07 1.6251114)
(-1.0363799e-07 -5.4587644e-08 1.625111)
(6.3595288e-07 -2.8152959e-08 1.6251113)
(8.5187297e-07 -3.32008e-09 1.625112)
(8.4413064e-07 3.142074e-08 1.6251127)
(6.4655507e-07 -4.5859109e-11 1.6251134)
(1.6869269e-07 -1.3185668e-07 1.6251139)
(5.6706721e-07 8.5958528e-07 1.6251138)
(1.0612502e-07 1.0612502e-07 1.6251141)
(-2.4374908e-06 -1.1162419e-06 1.6251129)
(-1.8918922e-06 -6.132753e-07 1.6251109)
(7.546933e-08 -4.1601077e-07 1.6251106)
(7.1285423e-07 -3.523535e-07 1.625111)
(9.4123352e-07 -2.5929965e-07 1.6251117)
(8.4904197e-07 -6.139531e-08 1.6251126)
(4.0163895e-07 4.5191061e-08 1.6251131)
(3.6881873e-08 -2.3684923e-07 1.6251132)
(-3.7459174e-07 -1.3655532e-06 1.6251139)
(-1.1162419e-06 -2.4374908e-06 1.6251129)
(-2.0849535e-06 -2.0849535e-06 1.6251119)
(-1.6716672e-06 -1.8518706e-06 1.62511)
(1.5728381e-07 -1.7757537e-06 1.6251098)
(7.92664e-07 -1.7552419e-06 1.6251102)
(1.1428312e-06 -1.6898399e-06 1.6251111)
(1.1486213e-06 -1.4517045e-06 1.6251122)
(4.7110115e-07 -1.0528186e-06 1.625113)
(-1.9334174e-08 -8.1930706e-07 1.625113)
(-1.4755784e-07 -2.3718983e-06 1.6251114)
(-6.1327529e-07 -1.8918922e-06 1.6251109)
(-1.8518706e-06 -1.6716672e-06 1.62511)
(-1.5826924e-06 -1.5826924e-06 1.6251082)
(1.7209803e-07 -1.5695195e-06 1.625108)
(7.9876803e-07 -1.5926526e-06 1.6251084)
(1.2447709e-06 -1.6133803e-06 1.6251093)
(1.4860633e-06 -1.55074e-06 1.6251105)
(1.0340364e-06 -1.3141507e-06 1.6251116)
(1.9255621e-07 -9.8398715e-07 1.6251121)
(-5.4587647e-08 -1.0363798e-07 1.625111)
(-4.1601077e-07 7.5469332e-08 1.6251106)
(-1.7757537e-06 1.572838e-07 1.6251098)
(-1.5695195e-06 1.7209803e-07 1.625108)
(1.4732352e-07 1.4732352e-07 1.6251078)
(7.4880324e-07 1.0515251e-07 1.6251082)
(1.1847438e-06 4.9171494e-08 1.625109)
(1.4478509e-06 -9.5502858e-09 1.6251102)
(1.037854e-06 -4.7533476e-08 1.6251113)
(2.0077487e-07 -6.1189661e-08 1.6251118)
(-2.8152958e-08 6.3595288e-07 1.6251113)
(-3.523535e-07 7.1285423e-07 1.625111)
(-1.7552419e-06 7.92664e-07 1.6251102)
(-1.5926526e-06 7.9876804e-07 1.6251084)
(1.0515251e-07 7.4880324e-07 1.6251082)
(7.0061601e-07 7.00616e-07 1.6251086)
(1.1300681e-06 6.5638987e-07 1.6251093)
(1.3893583e-06 6.1328985e-07 1.6251105)
(9.8239705e-07 5.7301365e-07 1.6251115)
(1.8345209e-07 5.4108159e-07 1.625112)
(-3.3200779e-09 8.5187297e-07 1.625112)
(-2.5929965e-07 9.4123352e-07 1.6251117)
(-1.6898399e-06 1.1428312e-06 1.6251111)
(-1.6133803e-06 1.2447709e-06 1.6251093)
(4.9171491e-08 1.1847438e-06 1.625109)
(6.5638987e-07 1.1300681e-06 1.6251093)
(1.0974177e-06 1.0974177e-06 1.62511)
(1.3644747e-06 1.078712e-06 1.6251112)
(9.6564572e-07 1.066392e-06 1.6251122)
(1.7948683e-07 1.0609863e-06 1.6251126)
(3.1420742e-08 8.4413064e-07 1.6251127)
(-6.1395309e-08 8.4904197e-07 1.6251126)
(-1.4517045e-06 1.1486214e-06 1.6251122)
(-1.55074e-06 1.4860633e-06 1.6251105)
(-9.5502948e-09 1.4478509e-06 1.6251102)
(6.1328985e-07 1.3893583e-06 1.6251105)
(1.078712e-06 1.3644747e-06 1.6251112)
(1.3583327e-06 1.3583327e-06 1.6251123)
(9.6467136e-07 1.3460688e-06 1.6251134)
(1.7984826e-07 1.3154436e-06 1.6251138)
(-4.5860989e-11 6.4655507e-07 1.6251134)
(4.519106e-08 4.0163894e-07 1.6251131)
(-1.0528186e-06 4.7110115e-07 1.625113)
(-1.3141507e-06 1.0340364e-06 1.6251116)
(-4.7533481e-08 1.037854e-06 1.6251113)
(5.7301365e-07 9.8239706e-07 1.6251115)
(1.066392e-06 9.6564571e-07 1.6251122)
(1.3460688e-06 9.6467136e-07 1.6251134)
(9.2275662e-07 9.2275661e-07 1.6251144)
(1.5907004e-07 8.0133863e-07 1.6251147)
(-1.3185668e-07 1.6869269e-07 1.6251139)
(-2.3684923e-07 3.6881871e-08 1.6251132)
(-8.1930705e-07 -1.9334173e-08 1.625113)
(-9.8398715e-07 1.9255621e-07 1.6251121)
(-6.1189667e-08 2.0077487e-07 1.6251118)
(5.4108159e-07 1.8345209e-07 1.625112)
(1.0609863e-06 1.7948683e-07 1.6251126)
(1.3154436e-06 1.7984826e-07 1.6251138)
(8.0133863e-07 1.5907003e-07 1.6251147)
(9.8902942e-08 9.8902935e-08 1.6251149)
(-1.952357e-07 -1.952357e-07 1.6179638)
(3.9673436e-08 5.0597827e-07 1.6179628)
(-2.6605454e-06 -6.5444177e-07 1.6179622)
(-3.4912746e-06 -3.3785752e-07 1.6179605)
(-7.9881888e-08 -2.0782583e-07 1.6179603)
(1.1517673e-06 -1.6829662e-07 1.6179606)
(1.5787207e-06 -1.1492667e-07 1.6179613)
(1.5583364e-06 -2.9989568e-08 1.6179622)
(1.3144638e-06 -1.4547605e-07 1.6179628)
(4.0093415e-07 -4.567686e-07 1.6179634)
(5.0597827e-07 3.967344e-08 1.6179628)
(-6.4913568e-07 -6.4913569e-07 1.6179626)
(-3.926299e-06 -2.137295e-06 1.6179614)
(-2.8213507e-06 -1.431886e-06 1.6179599)
(1.7445945e-07 -1.1538044e-06 1.6179597)
(1.291116e-06 -1.062219e-06 1.6179602)
(1.7861813e-06 -8.8336421e-07 1.6179609)
(1.5125124e-06 -4.5668917e-07 1.617962)
(6.7429524e-07 -3.0370316e-07 1.6179624)
(8.9641597e-08 -8.6548284e-07 1.6179626)
(-6.5444178e-07 -2.6605454e-06 1.6179622)
(-2.137295e-06 -3.926299e-06 1.6179614)
(-3.4432956e-06 -3.4432956e-06 1.6179603)
(-2.5077839e-06 -3.1080062e-06 1.617959)
(2.8978509e-07 -3.0002057e-06 1.6179589)
(1.4222074e-06 -2.98182e-06 1.6179593)
(2.1842505e-06 -2.8785955e-06 1.6179601)
(2.1379975e-06 -2.4319345e-06 1.6179615)
(9.056701e-07 -1.7160431e-06 1.6179622)
(2.6414355e-08 -1.3400829e-06 1.6179623)
(-3.3785752e-07 -3.4912746e-06 1.6179605)
(-1.431886e-06 -2.8213507e-06 1.6179599)
(-3.1080062e-06 -2.5077839e-06 1.617959)
(-2.3782608e-06 -2.3782608e-06 1.6179577)
(3.0064568e-07 -2.3656411e-06 1.6179576)
(1.4127262e-06 -2.4167104e-06 1.617958)
(2.3360668e-06 -2.4676267e-06 1.6179588)
(2.6750648e-06 -2.3695611e-06 1.6179602)
(1.7661468e-06 -1.988027e-06 1.6179612)
(3.4028172e-07 -1.4928181e-06 1.6179616)
(-2.0782583e-07 -7.9881883e-08 1.6179603)
(-1.1538043e-06 1.7445945e-07 1.6179597)
(-3.0002057e-06 2.8978509e-07 1.6179589)
(-2.3656411e-06 3.0064569e-07 1.6179576)
(2.5133545e-07 2.5133544e-07 1.6179574)
(1.3202218e-06 1.7311994e-07 1.6179578)
(2.2313998e-06 7.2469154e-08 1.6179586)
(2.6175972e-06 -2.5066946e-08 1.61796)
(1.7824131e-06 -7.7928479e-08 1.617961)
(3.5655362e-07 -8.8560758e-08 1.6179614)
(-1.6829663e-07 1.1517673e-06 1.6179606)
(-1.062219e-06 1.291116e-06 1.6179602)
(-2.98182e-06 1.4222074e-06 1.6179593)
(-2.4167104e-06 1.4127262e-06 1.617958)
(1.7311994e-07 1.3202218e-06 1.6179578)
(1.2338599e-06 1.2338599e-06 1.6179581)
(2.1378799e-06 1.1573631e-06 1.6179588)
(2.5246672e-06 1.0880494e-06 1.6179602)
(1.702653e-06 1.0306253e-06 1.6179612)
(3.3319353e-07 9.9590323e-07 1.6179616)
(-1.1492668e-07 1.5787207e-06 1.6179613)
(-8.8336421e-07 1.7861813e-06 1.6179609)
(-2.8785955e-06 2.1842505e-06 1.6179601)
(-2.4676267e-06 2.3360668e-06 1.6179588)
(7.2469157e-08 2.2313998e-06 1.6179586)
(1.1573632e-06 2.1378799e-06 1.6179588)
(2.0855893e-06 2.0855893e-06 1.6179596)
(2.4908594e-06 2.0605087e-06 1.6179609)
(1.6902669e-06 2.046449e-06 1.6179619)
(3.3340555e-07 2.0454561e-06 1.6179623)
(-2.9989573e-08 1.5583364e-06 1.6179622)
(-4.5668918e-07 1.5125124e-06 1.617962)
(-2.4319345e-06 2.1379975e-06 1.6179615)
(-2.3695611e-06 2.6750648e-06 1.6179602)
(-2.5066963e-08 2.6175972e-06 1.61796)
(1.0880494e-06 2.5246672e-06 1.6179602)
(2.0605087e-06 2.4908594e-06 1.6179609)
(2.4855268e-06 2.4855268e-06 1.6179623)
(1.6876004e-06 2.4440524e-06 1.6179633)
(3.3253164e-07 2.3263301e-06 1.6179637)
(-1.4547604e-07 1.3144638e-06 1.6179628)
(-3.0370316e-07 6.7429524e-07 1.6179624)
(-1.7160431e-06 9.0567011e-07 1.6179622)
(-1.988027e-06 1.7661468e-06 1.6179612)
(-7.7928491e-08 1.7824131e-06 1.617961)
(1.0306253e-06 1.702653e-06 1.6179612)
(2.046449e-06 1.6902669e-06 1.6179619)
(2.4440524e-06 1.6876004e-06 1.6179633)
(1.5310702e-06 1.5310702e-06 1.6179641)
(2.5492399e-07 1.2734398e-06 1.6179643)
(-4.5676859e-07 4.0093415e-07 1.6179634)
(-8.6548284e-07 8.964159e-08 1.6179626)
(-1.3400829e-06 2.6414358e-08 1.6179623)
(-1.4928181e-06 3.4028171e-07 1.6179616)
(-8.8560762e-08 3.5655361e-07 1.6179614)
(9.9590324e-07 3.3319353e-07 1.6179616)
(2.0454561e-06 3.3340555e-07 1.6179623)
(2.3263301e-06 3.3253164e-07 1.6179637)
(1.2734399e-06 2.5492399e-07 1.6179643)
(1.6077804e-07 1.6077804e-07 1.6179645)
(-5.0452342e-07 -5.0452341e-07 1.6069152)
(-6.8140456e-07 3.8249908e-07 1.6069144)
(-3.6855395e-06 -9.5081073e-07 1.606914)
(-4.352003e-06 -5.5696227e-07 1.6069126)
(2.8714714e-08 -4.0020498e-07 1.6069124)
(1.7140901e-06 -3.5392467e-07 1.6069128)
(2.3858153e-06 -2.6725333e-07 1.6069136)
(2.2729533e-06 -9.1337836e-08 1.6069145)
(1.8952284e-06 -2.4694807e-07 1.6069152)
(6.0919878e-07 -7.074936e-07 1.6069158)
(3.8249908e-07 -6.8140456e-07 1.6069144)
(-1.3508356e-06 -1.3508356e-06 1.6069141)
(-5.0947314e-06 -3.032357e-06 1.6069132)
(-3.5260944e-06 -2.1566848e-06 1.606912)
(3.3327111e-07 -1.8250998e-06 1.6069119)
(1.9135175e-06 -1.7273105e-06 1.6069123)
(2.7796955e-06 -1.4711242e-06 1.6069132)
(2.3034112e-06 -7.6678895e-07 1.6069144)
(9.7099473e-07 -5.3506603e-07 1.6069149)
(1.4865325e-07 -1.369738e-06 1.6069151)
(-9.5081073e-07 -3.6855395e-06 1.606914)
(-3.0323569e-06 -5.0947314e-06 1.6069132)
(-4.4913886e-06 -4.4913887e-06 1.6069124)
(-3.1447459e-06 -4.0784194e-06 1.6069113)
(4.5808898e-07 -3.9582263e-06 1.6069113)
(2.0680657e-06 -3.9607251e-06 1.6069117)
(3.3463368e-06 -3.8425633e-06 1.6069125)
(3.2090114e-06 -3.205681e-06 1.606914)
(1.2922793e-06 -2.2242027e-06 1.6069148)
(5.2750821e-08 -1.7756707e-06 1.6069149)
(-5.5696228e-07 -4.352003e-06 1.6069126)
(-2.1566848e-06 -3.5260944e-06 1.606912)
(-4.0784194e-06 -3.1447459e-06 1.6069113)
(-2.9929321e-06 -2.9929321e-06 1.6069102)
(4.509655e-07 -2.9930618e-06 1.6069102)
(2.0291806e-06 -3.081875e-06 1.6069105)
(3.5347395e-06 -3.1723202e-06 1.6069114)
(3.9217717e-06 -3.0438167e-06 1.606913)
(2.401005e-06 -2.533425e-06 1.606914)
(4.4767457e-07 -1.9043405e-06 1.6069143)
(-4.0020499e-07 2.8714712e-08 1.6069124)
(-1.8250998e-06 3.3327111e-07 1.6069119)
(-3.9582263e-06 4.5808898e-07 1.6069113)
(-2.9930618e-06 4.5096551e-07 1.6069102)
(3.6914611e-07 3.691461e-07 1.6069101)
(1.8888073e-06 2.5027663e-07 1.6069104)
(3.384395e-06 1.0329912e-07 1.6069112)
(3.8479066e-06 -2.8849943e-08 1.6069128)
(2.4317557e-06 -8.8655558e-08 1.6069138)
(4.7214054e-07 -8.764811e-08 1.6069141)
(-3.5392468e-07 1.7140901e-06 1.6069128)
(-1.7273105e-06 1.9135176e-06 1.6069123)
(-3.960725e-06 2.0680657e-06 1.6069117)
(-3.081875e-06 2.0291806e-06 1.6069105)
(2.5027663e-07 1.8888073e-06 1.6069104)
(1.7633336e-06 1.7633336e-06 1.6069107)
(3.2556129e-06 1.6576491e-06 1.6069114)
(3.729817e-06 1.5705468e-06 1.606913)
(2.3422068e-06 1.5097419e-06 1.606914)
(4.483462e-07 1.491095e-06 1.6069143)
(-2.6725334e-07 2.3858152e-06 1.6069136)
(-1.4711242e-06 2.7796955e-06 1.6069132)
(-3.8425633e-06 3.3463368e-06 1.6069125)
(-3.1723202e-06 3.5347395e-06 1.6069114)
(1.0329911e-07 3.384395e-06 1.6069112)
(1.6576491e-06 3.2556129e-06 1.6069114)
(3.1916083e-06 3.1916082e-06 1.6069122)
(3.6999994e-06 3.1713253e-06 1.6069137)
(2.3523038e-06 3.1633187e-06 1.6069147)
(4.5970926e-07 3.1663875e-06 1.6069151)
(-9.1337844e-08 2.2729533e-06 1.6069145)
(-7.6678897e-07 2.3034112e-06 1.6069144)
(-3.205681e-06 3.2090114e-06 1.606914)
(-3.0438167e-06 3.9217717e-06 1.606913)
(-2.8849946e-08 3.8479066e-06 1.6069128)
(1.5705468e-06 3.729817e-06 1.606913)
(3.1713253e-06 3.6999994e-06 1.6069137)
(3.7015275e-06 3.7015275e-06 1.6069152)
(2.337269e-06 3.5903461e-06 1.6069163)
(4.5039207e-07 3.260771e-06 1.6069167)
(-2.4694807e-07 1.8952284e-06 1.6069152)
(-5.3506604e-07 9.7099474e-07 1.6069149)
(-2.2242027e-06 1.2922794e-06 1.6069148)
(-2.533425e-06 2.401005e-06 1.606914)
(-8.8655564e-08 2.4317557e-06 1.6069138)
(1.5097419e-06 2.3422069e-06 1.606914)
(3.1633187e-06 2.3523038e-06 1.6069147)
(3.5903461e-06 2.337269e-06 1.6069163)
(1.9115473e-06 1.9115473e-06 1.6069171)
(2.3999252e-07 1.620355e-06 1.606917)
(-7.074936e-07 6.0919878e-07 1.6069158)
(-1.369738e-06 1.4865326e-07 1.6069151)
(-1.7756707e-06 5.2750829e-08 1.6069149)
(-1.9043405e-06 4.4767457e-07 1.6069143)
(-8.7648116e-08 4.7214054e-07 1.6069141)
(1.491095e-06 4.4834621e-07 1.6069143)
(3.1663875e-06 4.5970925e-07 1.6069151)
(3.260771e-06 4.5039206e-07 1.6069167)
(1.620355e-06 2.3999251e-07 1.606917)
(2.5626383e-07 2.5626383e-07 1.6069173)
(-7.1154662e-07 -7.1154662e-07 1.5921326)
(-1.1484411e-06 3.146353e-07 1.5921321)
(-4.4996649e-06 -1.1840675e-06 1.5921318)
(-5.0570551e-06 -7.1854813e-07 1.5921306)
(1.9357339e-07 -5.4101611e-07 1.5921305)
(2.3061813e-06 -4.9610141e-07 1.5921309)
(3.2860454e-06 -3.876412e-07 1.5921317)
(3.1463156e-06 -1.273525e-07 1.5921327)
(2.5695905e-06 -3.26055e-07 1.5921334)
(8.2348261e-07 -9.1538197e-07 1.5921341)
(3.146353e-07 -1.1484411e-06 1.5921321)
(-1.8572225e-06 -1.8572225e-06 1.5921319)
(-6.04944e-06 -3.7242247e-06 1.5921312)
(-4.092478e-06 -2.6939626e-06 1.5921302)
(5.2724346e-07 -2.3250711e-06 1.5921302)
(2.5362437e-06 -2.2414339e-06 1.5921306)
(3.8391687e-06 -1.9359581e-06 1.5921314)
(3.238695e-06 -9.7512981e-07 1.5921326)
(1.3875463e-06 -6.9168916e-07 1.5921332)
(2.3415564e-07 -1.7773204e-06 1.5921335)
(-1.1840675e-06 -4.4996649e-06 1.5921318)
(-3.7242247e-06 -6.04944e-06 1.5921312)
(-5.3364051e-06 -5.3364051e-06 1.5921306)
(-3.6579015e-06 -4.8598633e-06 1.5921296)
(6.4610213e-07 -4.7404068e-06 1.5921296)
(2.6952943e-06 -4.7774631e-06 1.59213)
(4.5523494e-06 -4.6608688e-06 1.5921308)
(4.3905846e-06 -3.8499946e-06 1.5921324)
(1.7673999e-06 -2.6368443e-06 1.5921332)
(9.9728426e-08 -2.1380559e-06 1.5921333)
(-7.1854813e-07 -5.0570551e-06 1.5921306)
(-2.6939626e-06 -4.0924781e-06 1.5921302)
(-4.8598633e-06 -3.6579015e-06 1.5921296)
(-3.4964798e-06 -3.4964798e-06 1.5921287)
(6.0964367e-07 -3.5196557e-06 1.5921287)
(2.6157817e-06 -3.6550574e-06 1.592129)
(4.7666372e-06 -3.7930864e-06 1.5921298)
(5.2627194e-06 -3.6393678e-06 1.5921314)
(3.099485e-06 -3.0113813e-06 1.5921325)
(5.6668121e-07 -2.2623478e-06 1.5921328)
(-5.4101611e-07 1.9357339e-07 1.5921305)
(-2.3250711e-06 5.2724345e-07 1.5921302)
(-4.7404068e-06 6.4610213e-07 1.5921296)
(-3.5196557e-06 6.0964366e-07 1.5921287)
(4.8752449e-07 4.8752449e-07 1.5921286)
(2.4218636e-06 3.2302262e-07 1.5921289)
(4.5680391e-06 1.2754335e-07 1.5921296)
(5.1722897e-06 -3.6838276e-08 1.5921312)
(3.1444199e-06 -9.8425565e-08 1.5921323)
(5.9908414e-07 -7.9648138e-08 1.5921326)
(-4.9610142e-07 2.3061813e-06 1.5921309)
(-2.2414339e-06 2.5362437e-06 1.5921306)
(-4.7774631e-06 2.6952943e-06 1.59213)
(-3.6550574e-06 2.6157817e-06 1.592129)
(3.2302263e-07 2.4218636e-06 1.5921289)
(2.2558006e-06 2.2558006e-06 1.5921292)
(4.4067763e-06 2.1239327e-06 1.5921298)
(5.0367505e-06 2.0280461e-06 1.5921314)
(3.0566751e-06 1.9790472e-06 1.5921324)
(5.7919949e-07 1.996022e-06 1.5921328)
(-3.8764119e-07 3.2860454e-06 1.5921317)
(-1.9359581e-06 3.8391687e-06 1.5921314)
(-4.6608688e-06 4.5523494e-06 1.5921308)
(-3.7930864e-06 4.7666372e-06 1.5921298)
(1.2754335e-07 4.5680391e-06 1.5921296)
(2.1239327e-06 4.4067763e-06 1.5921298)
(4.3402847e-06 4.3402847e-06 1.5921305)
(5.0274042e-06 4.3419396e-06 1.5921321)
(3.1123957e-06 4.3612758e-06 1.5921331)
(6.1040069e-07 4.3845964e-06 1.5921336)
(-1.273525e-07 3.1463156e-06 1.5921327)
(-9.7512981e-07 3.2386949e-06 1.5921326)
(-3.8499946e-06 4.3905846e-06 1.5921324)
(-3.6393677e-06 5.2627194e-06 1.5921314)
(-3.6838272e-08 5.1722897e-06 1.5921312)
(2.0280461e-06 5.0367505e-06 1.5921314)
(4.3419396e-06 5.0274042e-06 1.5921321)
(5.0577416e-06 5.0577416e-06 1.5921337)
(3.0993318e-06 4.8689125e-06 1.5921348)
(5.9474653e-07 4.2189355e-06 1.5921352)
(-3.2605499e-07 2.5695905e-06 1.5921334)
(-6.9168917e-07 1.3875463e-06 1.5921332)
(-2.6368443e-06 1.7673999e-06 1.5921332)
(-3.0113813e-06 3.099485e-06 1.5921325)
(-9.8425559e-08 3.1444199e-06 1.5921323)
(1.9790472e-06 3.0566751e-06 1.5921324)
(4.3612758e-06 3.1123957e-06 1.5921331)
(4.8689125e-06 3.0993318e-06 1.5921348)
(2.2735897e-06 2.2735897e-06 1.5921357)
(1.7708272e-07 1.9038837e-06 1.5921355)
(-9.1538196e-07 8.234826e-07 1.5921341)
(-1.7773204e-06 2.3415563e-07 1.5921335)
(-2.1380559e-06 9.9728429e-08 1.5921333)
(-2.2623478e-06 5.6668121e-07 1.5921328)
(-7.9648136e-08 5.9908414e-07 1.5921326)
(1.996022e-06 5.791995e-07 1.5921328)
(4.3845964e-06 6.1040069e-07 1.5921336)
(4.2189355e-06 5.9474652e-07 1.5921352)
(1.9038837e-06 1.7708271e-07 1.5921355)
(3.4827587e-07 3.4827587e-07 1.5921358)
(-8.7396293e-07 -8.7396293e-07 1.5738025)
(-1.4931523e-06 2.7421477e-07 1.5738021)
(-5.1766061e-06 -1.3791868e-06 1.5738019)
(-5.6489624e-06 -8.455698e-07 1.5738008)
(3.8452631e-07 -6.5081766e-07 1.5738008)
(2.8721003e-06 -6.1185805e-07 1.5738012)
(4.1607725e-06 -4.8875649e-07 1.5738019)
(4.0363434e-06 -1.5131202e-07 1.5738029)
(3.2618727e-06 -3.9629354e-07 1.5738036)
(1.0355283e-06 -1.1043154e-06 1.5738042)
(2.7421477e-07 -1.4931523e-06 1.5738021)
(-2.2509882e-06 -2.2509882e-06 1.573802)
(-6.8562828e-06 -4.2907474e-06 1.5738014)
(-4.5564088e-06 -3.1165583e-06 1.5738005)
(7.3509392e-07 -2.7209003e-06 1.5738005)
(3.115192e-06 -2.6642456e-06 1.5738009)
(4.8515915e-06 -2.3281747e-06 1.5738016)
(4.1750378e-06 -1.1312284e-06 1.5738028)
(1.8323676e-06 -8.1324204e-07 1.5738034)
(3.2750645e-07 -2.1341669e-06 1.5738037)
(-1.3791868e-06 -5.1766061e-06 1.5738019)
(-4.2907474e-06 -6.8562828e-06 1.5738014)
(-6.0421761e-06 -6.0421761e-06 1.5738009)
(-4.0791154e-06 -5.5124271e-06 1.5738001)
(8.3683896e-07 -5.4035657e-06 1.5738001)
(3.2648258e-06 -5.4857529e-06 1.5738004)
(5.6937897e-06 -5.3838962e-06 1.5738012)
(5.5512761e-06 -4.4144974e-06 1.5738026)
(2.2589341e-06 -2.9918038e-06 1.5738034)
(1.5491168e-07 -2.4508622e-06 1.5738036)
(-8.4556979e-07 -5.6489624e-06 1.5738008)
(-3.1165583e-06 -4.5564088e-06 1.5738005)
(-5.5124271e-06 -4.0791154e-06 1.5738001)
(-3.9177984e-06 -3.9177984e-06 1.5737993)
(7.6176809e-07 -3.9725028e-06 1.5737993)
(3.1348615e-06 -4.1622324e-06 1.5737996)
(5.922847e-06 -4.3555093e-06 1.5738002)
(6.5671303e-06 -4.1839457e-06 1.5738018)
(3.7960028e-06 -3.4495043e-06 1.5738028)
(6.8813414e-07 -2.5902515e-06 1.5738031)
(-6.5081767e-07 3.8452631e-07 1.5738008)
(-2.7209003e-06 7.350939e-07 1.5738005)
(-5.4035657e-06 8.3683895e-07 1.5738001)
(-3.9725028e-06 7.6176809e-07 1.5737993)
(5.9240492e-07 5.9240491e-07 1.5737993)
(2.8818194e-06 3.7740823e-07 1.5737995)
(5.6720764e-06 1.3060549e-07 1.5738001)
(6.4572811e-06 -6.6053293e-08 1.5738016)
(3.8526283e-06 -1.2774296e-07 1.5738026)
(7.2774687e-07 -8.8220517e-08 1.5738029)
(-6.1185806e-07 2.8721003e-06 1.5738012)
(-2.6642457e-06 3.115192e-06 1.5738009)
(-5.4857529e-06 3.2648258e-06 1.5738004)
(-4.1622324e-06 3.1348615e-06 1.5737996)
(3.7740823e-07 2.8818194e-06 1.5737995)
(2.6730621e-06 2.6730621e-06 1.5737997)
(5.4793855e-06 2.5165826e-06 1.5738002)
(6.3087818e-06 2.4182115e-06 1.5738017)
(3.7738355e-06 2.3924963e-06 1.5738027)
(7.1448243e-07 2.4605135e-06 1.5738031)
(-4.887565e-07 4.1607725e-06 1.5738019)
(-2.3281747e-06 4.8515915e-06 1.5738016)
(-5.3838962e-06 5.6937897e-06 1.5738012)
(-4.3555093e-06 5.922847e-06 1.5738002)
(1.3060549e-07 5.6720764e-06 1.5738001)
(2.5165826e-06 5.4793855e-06 1.5738002)
(5.4172259e-06 5.4172259e-06 1.5738008)
(6.3331948e-06 5.4556366e-06 1.5738023)
(3.8949303e-06 5.5258049e-06 1.5738033)
(7.7309163e-07 5.5974832e-06 1.5738038)
(-1.5131203e-07 4.0363434e-06 1.5738029)
(-1.1312284e-06 4.1750378e-06 1.5738028)
(-4.4144974e-06 5.5512761e-06 1.5738026)
(-4.1839457e-06 6.5671303e-06 1.5738018)
(-6.6053294e-08 6.4572811e-06 1.5738016)
(2.4182116e-06 6.3087818e-06 1.5738017)
(5.4556366e-06 6.3331948e-06 1.5738023)
(6.4173608e-06 6.4173608e-06 1.5738038)
(3.9156821e-06 6.1758805e-06 1.5738049)
(7.6226797e-07 5.1851389e-06 1.5738054)
(-3.9629354e-07 3.2618727e-06 1.5738036)
(-8.1324204e-07 1.8323676e-06 1.5738034)
(-2.9918038e-06 2.2589341e-06 1.5738034)
(-3.4495043e-06 3.7960028e-06 1.5738028)
(-1.2774294e-07 3.8526283e-06 1.5738026)
(2.3924963e-06 3.7738355e-06 1.5738027)
(5.5258048e-06 3.8949302e-06 1.5738033)
(6.1758805e-06 3.9156821e-06 1.5738049)
(2.6627084e-06 2.6627084e-06 1.5738059)
(1.1259721e-07 2.1804025e-06 1.5738057)
(-1.1043154e-06 1.0355283e-06 1.5738042)
(-2.1341669e-06 3.2750645e-07 1.5738037)
(-2.4508622e-06 1.5491169e-07 1.5738036)
(-2.5902515e-06 6.8813414e-07 1.5738031)
(-8.8220521e-08 7.2774687e-07 1.5738029)
(2.4605135e-06 7.1448242e-07 1.5738031)
(5.5974832e-06 7.7309163e-07 1.5738038)
(5.1851389e-06 7.6226797e-07 1.5738054)
(2.1804026e-06 1.1259721e-07 1.5738057)
(4.4073076e-07 4.4073076e-07 1.573806)
(-1.0157994e-06 -1.0157994e-06 1.5521309)
(-1.7721948e-06 2.4573623e-07 1.5521305)
(-5.7468308e-06 -1.5484567e-06 1.5521304)
(-6.1451744e-06 -9.4989525e-07 1.5521295)
(5.8620864e-07 -7.4072435e-07 1.5521295)
(3.3882749e-06 -7.1090646e-07 1.5521299)
(4.9590507e-06 -5.7824238e-07 1.5521305)
(4.8676496e-06 -1.6979861e-07 1.5521314)
(3.9213043e-06 -4.6114057e-07 1.5521321)
(1.2383192e-06 -1.2808814e-06 1.5521327)
(2.4573623e-07 -1.7721948e-06 1.5521305)
(-2.5711808e-06 -2.5711808e-06 1.5521305)
(-7.5402779e-06 -4.7653445e-06 1.55213)
(-4.9335759e-06 -3.4564124e-06 1.5521292)
(9.4469182e-07 -3.0423663e-06 1.5521293)
(3.6319978e-06 -3.0223233e-06 1.5521296)
(5.7707124e-06 -2.6704413e-06 1.5521303)
(5.0433023e-06 -1.2569633e-06 1.5521314)
(2.2546802e-06 -9.1388072e-07 1.5521319)
(4.1857841e-07 -2.458162e-06 1.5521322)
(-1.5484567e-06 -5.7468308e-06 1.5521304)
(-4.7653446e-06 -7.5402779e-06 1.55213)
(-6.6320624e-06 -6.6320624e-06 1.5521296)
(-4.4221963e-06 -6.0576928e-06 1.5521289)
(1.0202978e-06 -5.9674113e-06 1.552129)
(3.7601999e-06 -6.1035091e-06 1.5521293)
(6.7244107e-06 -6.0284549e-06 1.5521299)
(6.6242102e-06 -4.9178739e-06 1.5521312)
(2.7201055e-06 -3.3049496e-06 1.5521319)
(2.0879831e-07 -2.7288909e-06 1.552132)
(-9.4989525e-07 -6.1451744e-06 1.5521295)
(-3.4564124e-06 -4.9335759e-06 1.5521292)
(-6.0576928e-06 -4.4221963e-06 1.5521289)
(-4.2689248e-06 -4.2689248e-06 1.5521282)
(8.9887555e-07 -4.3622092e-06 1.5521283)
(3.5709542e-06 -4.6129549e-06 1.5521285)
(6.9563475e-06 -4.8688126e-06 1.552129)
(7.7668075e-06 -4.6885962e-06 1.5521304)
(4.4436632e-06 -3.8600826e-06 1.5521313)
(8.0261757e-07 -2.9010135e-06 1.5521316)
(-7.4072435e-07 5.8620864e-07 1.5521295)
(-3.0423663e-06 9.4469182e-07 1.5521293)
(-5.9674113e-06 1.0202977e-06 1.552129)
(-4.3622092e-06 8.9887554e-07 1.5521283)
(6.7626764e-07 6.7626764e-07 1.5521282)
(3.2535965e-06 4.063022e-07 1.5521284)
(6.6487693e-06 1.0504631e-07 1.5521289)
(7.6329402e-06 -1.2566991e-07 1.5521302)
(4.5076883e-06 -1.8846099e-07 1.5521311)
(8.4817774e-07 -1.2815804e-07 1.5521314)
(-7.1090645e-07 3.3882749e-06 1.5521299)
(-3.0223233e-06 3.6319978e-06 1.5521296)
(-6.1035091e-06 3.7601999e-06 1.5521293)
(-4.6129549e-06 3.5709542e-06 1.5521285)
(4.0630221e-07 3.2535965e-06 1.5521284)
(2.9997329e-06 2.9997328e-06 1.5521285)
(6.4243754e-06 2.818984e-06 1.552129)
(7.4733002e-06 2.7216383e-06 1.5521302)
(4.4411751e-06 2.7259415e-06 1.5521311)
(8.4281953e-07 2.853855e-06 1.5521315)
(-5.7824237e-07 4.9590507e-06 1.5521305)
(-2.6704413e-06 5.7707124e-06 1.5521303)
(-6.0284549e-06 6.7244106e-06 1.5521299)
(-4.8688126e-06 6.9563475e-06 1.552129)
(1.0504632e-07 6.6487693e-06 1.5521289)
(2.818984e-06 6.4243754e-06 1.552129)
(6.3706748e-06 6.3706748e-06 1.5521294)
(7.5398976e-06 6.455721e-06 1.5521307)
(4.639905e-06 6.5933574e-06 1.5521317)
(9.3345342e-07 6.7349785e-06 1.5521321)
(-1.6979861e-07 4.8676496e-06 1.5521314)
(-1.2569633e-06 5.0433023e-06 1.5521314)
(-4.9178739e-06 6.6242102e-06 1.5521312)
(-4.6885962e-06 7.7668075e-06 1.5521304)
(-1.2566991e-07 7.6329402e-06 1.5521302)
(2.7216383e-06 7.4733002e-06 1.5521302)
(6.455721e-06 7.5398976e-06 1.5521307)
(7.6959828e-06 7.6959829e-06 1.5521321)
(4.7204325e-06 7.428285e-06 1.5521331)
(9.3723359e-07 6.1122448e-06 1.5521337)
(-4.6114058e-07 3.9213043e-06 1.5521321)
(-9.1388073e-07 2.2546802e-06 1.5521319)
(-3.3049496e-06 2.7201055e-06 1.5521319)
(-3.8600826e-06 4.4436632e-06 1.5521313)
(-1.8846097e-07 4.5076883e-06 1.5521311)
(2.7259415e-06 4.4411751e-06 1.5521311)
(6.5933574e-06 4.639905e-06 1.5521317)
(7.428285e-06 4.7204325e-06 1.5521331)
(3.0561669e-06 3.0561669e-06 1.5521341)
(5.6093271e-08 2.4545472e-06 1.5521339)
(-1.2808814e-06 1.2383192e-06 1.5521327)
(-2.4581621e-06 4.1857841e-07 1.5521322)
(-2.7288909e-06 2.0879831e-07 1.552132)
(-2.9010135e-06 8.0261757e-07 1.5521316)
(-1.2815804e-07 8.4817774e-07 1.5521314)
(2.853855e-06 8.4281953e-07 1.5521315)
(6.7349785e-06 9.3345342e-07 1.5521321)
(6.1122448e-06 9.372336e-07 1.5521337)
(2.4545472e-06 5.6093274e-08 1.5521339)
(5.3615382e-07 5.3615382e-07 1.5521342)
(-1.1409678e-06 -1.1409678e-06 1.5273418)
(-1.9979401e-06 2.2647048e-07 1.5273415)
(-6.2201463e-06 -1.6932182e-06 1.5273414)
(-6.554369e-06 -1.0331509e-06 1.5273406)
(7.8783858e-07 -8.1215486e-07 1.5273407)
(3.8417167e-06 -7.9411729e-07 1.527341)
(5.6584909e-06 -6.5639261e-07 1.5273415)
(5.6066142e-06 -1.8336039e-07 1.5273423)
(4.5206589e-06 -5.2028212e-07 1.5273429)
(1.426246e-06 -1.445555e-06 1.5273434)
(2.2647048e-07 -1.9979401e-06 1.5273415)
(-2.8263156e-06 -2.8263156e-06 1.5273414)
(-8.1095784e-06 -5.1544374e-06 1.527341)
(-5.2327742e-06 -3.7201183e-06 1.5273404)
(1.1463891e-06 -3.2951584e-06 1.5273405)
(4.0753601e-06 -3.3198117e-06 1.5273408)
(6.5746262e-06 -2.9656648e-06 1.5273413)
(5.81078e-06 -1.3567417e-06 1.5273423)