/*--------------------------------*- C++ -*----------------------------------*\
| =========                 |                                                 |
| \\      /  F ield         | OpenFOAM: The Open Source CFD Toolbox           |
|  \\    /   O peration     | Version:  v2106                                 |
|   \\  /    A nd           | Website:  www.openfoam.com                      |
|    \\/     M anipulation  |                                                 |
\*---------------------------------------------------------------------------*/
FoamFile
{
    version     2.0;
    format      ascii;
    arch        "LSB;label=32;scalar=64";
    class       volVectorField;
    location    "15";
    object      flux;
}
// * * * * * * * * * * * * * * * * * * * * * * * * * * * * * * * * * * * * * //

dimensions      [0 1 -1 1 0 0 0];

internalField   nonuniform List<vector> 
4000
(
(4.6835009e-07 4.6835009e-07 0.56321544)
(6.6828895e-08 -1.1831345e-08 0.56321967)
(-7.7640523e-07 6.8035887e-08 0.56321522)
(-1.8652143e-07 7.8467167e-08 0.563214)
(-3.3039174e-08 8.0938051e-08 0.56321361)
(7.2846393e-08 8.3470789e-08 0.56321372)
(1.488208e-07 8.8902838e-08 0.56321422)
(1.6743254e-07 1.0219871e-07 0.56321497)
(9.1543458e-08 1.2684492e-07 0.56321563)
(8.5724019e-09 1.3126829e-07 0.56321567)
(-1.1831346e-08 6.6828897e-08 0.56321967)
(-5.3364246e-07 -5.3364246e-07 0.56321971)
(-6.4095747e-07 -3.9469904e-07 0.56321591)
(-1.6716819e-07 -3.727003e-07 0.56321479)
(-2.5533741e-08 -3.6461696e-07 0.56321443)
(8.4793573e-08 -3.5601786e-07 0.56321457)
(1.7691268e-07 -3.3942332e-07 0.56321514)
(2.2434567e-07 -2.9904212e-07 0.56321606)
(1.3514783e-07 -2.084933e-07 0.56321705)
(1.2995767e-08 -9.6335345e-08 0.56321696)
(6.8035886e-08 -7.7640523e-07 0.56321522)
(-3.9469904e-07 -6.4095747e-07 0.56321591)
(-6.1546309e-07 -6.1546309e-07 0.56321226)
(-1.5643936e-07 -6.0412873e-07 0.5632112)
(-1.6356732e-08 -5.9552731e-07 0.56321088)
(9.8040038e-08 -5.8659669e-07 0.56321106)
(2.0579654e-07 -5.7324899e-07 0.5632117)
(2.9836255e-07 -5.4642249e-07 0.56321279)
(2.9425023e-07 -4.8485687e-07 0.56321423)
(8.3344371e-08 -3.7283628e-07 0.56321495)
(7.8467169e-08 -1.8652143e-07 0.563214)
(-3.727003e-07 -1.6716819e-07 0.56321479)
(-6.0412873e-07 -1.5643936e-07 0.5632112)
(-1.4723241e-07 -1.4723241e-07 0.56321019)
(-8.0017005e-09 -1.3925598e-07 0.5632099)
(1.070719e-07 -1.3166107e-07 0.56321011)
(2.1708688e-07 -1.232474e-07 0.5632108)
(3.127378e-07 -1.1319713e-07 0.56321194)
(3.0873404e-07 -1.0190881e-07 0.56321345)
(8.7676161e-08 -9.4003669e-08 0.56321425)
(8.093805e-08 -3.3039166e-08 0.56321361)
(-3.6461696e-07 -2.5533738e-08 0.56321443)
(-5.9552731e-07 -1.6356734e-08 0.56321088)
(-1.3925598e-07 -8.0017012e-09 0.5632099)
(-7.8538529e-10 -7.8538375e-10 0.56320964)
(1.1404862e-07 5.5899476e-09 0.56320988)
(2.2426047e-07 1.1647457e-08 0.56321059)
(3.1970114e-07 1.7543257e-08 0.56321177)
(3.1344369e-07 2.2569221e-08 0.56321331)
(8.8614466e-08 2.4770719e-08 0.56321412)
(8.3470788e-08 7.2846394e-08 0.56321372)
(-3.5601787e-07 8.4793574e-08 0.56321457)
(-5.865967e-07 9.8040034e-08 0.56321106)
(-1.3166106e-07 1.070719e-07 0.56321011)
(5.5899484e-09 1.1404862e-07 0.56320988)
(1.1950474e-07 1.1950474e-07 0.56321015)
(2.2904019e-07 1.2385062e-07 0.56321088)
(3.2365956e-07 1.2720793e-07 0.56321207)
(3.1596151e-07 1.2936625e-07 0.56321363)
(8.9143827e-08 1.3013796e-07 0.56321445)
(8.8902837e-08 1.488208e-07 0.56321422)
(-3.3942332e-07 1.7691268e-07 0.56321514)
(-5.7324899e-07 2.0579654e-07 0.5632117)
(-1.2324739e-07 2.1708689e-07 0.5632108)
(1.1647458e-08 2.2426047e-07 0.56321059)
(1.2385062e-07 2.290402e-07 0.56321088)
(2.3196366e-07 2.3196366e-07 0.56321163)
(3.2521677e-07 2.3305082e-07 0.56321283)
(3.1637373e-07 2.3216397e-07 0.56321439)
(8.9128939e-08 2.3036399e-07 0.56321521)
(1.0219871e-07 1.6743254e-07 0.56321497)
(-2.9904213e-07 2.2434567e-07 0.56321606)
(-5.4642249e-07 2.9836255e-07 0.56321279)
(-1.1319713e-07 3.127378e-07 0.56321194)
(1.7543256e-08 3.1970114e-07 0.56321177)
(1.2720793e-07 3.2365956e-07 0.56321207)
(2.3305082e-07 3.2521677e-07 0.56321283)
(3.2385987e-07 3.2385987e-07 0.56321403)
(3.1327467e-07 3.1839319e-07 0.56321558)
(8.7943839e-08 3.1030242e-07 0.56321638)
(1.2684492e-07 9.1543453e-08 0.56321563)
(-2.084933e-07 1.3514783e-07 0.56321705)
(-4.8485687e-07 2.9425023e-07 0.56321423)
(-1.0190881e-07 3.0873405e-07 0.56321345)
(2.2569219e-08 3.1344369e-07 0.56321331)
(1.2936625e-07 3.1596151e-07 0.56321363)
(2.3216397e-07 3.1637373e-07 0.56321439)
(3.1839319e-07 3.1327467e-07 0.56321558)
(3.0281628e-07 3.0281628e-07 0.56321709)
(8.3735091e-08 2.8229759e-07 0.56321784)
(1.3126829e-07 8.5724012e-09 0.56321567)
(-9.6335342e-08 1.2995767e-08 0.56321696)
(-3.7283628e-07 8.3344374e-08 0.56321495)
(-9.4003669e-08 8.7676162e-08 0.56321425)
(2.4770717e-08 8.8614466e-08 0.56321412)
(1.3013796e-07 8.9143828e-08 0.56321445)
(2.3036399e-07 8.9128939e-08 0.56321521)
(3.1030242e-07 8.7943839e-08 0.56321638)
(2.8229759e-07 8.3735093e-08 0.56321784)
(7.4264715e-08 7.4264717e-08 0.56321842)
(2.9876917e-06 2.9876917e-06 1.2025674)
(-5.6867463e-07 8.1154111e-08 1.202572)
(-6.5552492e-06 5.070533e-07 1.2025641)
(-1.9878856e-06 5.9052724e-07 1.2025616)
(-3.4994036e-07 6.1599937e-07 1.2025608)
(7.4788033e-07 6.4151989e-07 1.2025611)
(1.5264211e-06 6.965355e-07 1.2025623)
(1.7164265e-06 8.3567371e-07 1.2025642)
(8.2790283e-07 1.0968262e-06 1.2025659)
(1.5283211e-08 9.503307e-07 1.2025652)
(8.1154111e-08 -5.6867464e-07 1.202572)
(-4.2896342e-06 -4.2896342e-06 1.2025709)
(-5.7911898e-06 -3.4677035e-06 1.2025639)
(-1.8244665e-06 -3.2694084e-06 1.2025616)
(-2.7345137e-07 -3.1855014e-06 1.2025609)
(8.6868454e-07 -3.0995693e-06 1.2025613)
(1.8176518e-06 -2.9334137e-06 1.2025626)
(2.3168627e-06 -2.5177741e-06 1.2025649)
(9.9988838e-07 -1.5683818e-06 1.2025676)
(-1.3121235e-07 -8.443648e-07 1.202567)
(5.070533e-07 -6.5552492e-06 1.2025641)
(-3.4677035e-06 -5.7911898e-06 1.2025639)
(-5.5350241e-06 -5.5350241e-06 1.2025572)
(-1.7056836e-06 -5.4088763e-06 1.202555)
(-1.8010124e-07 -5.3205534e-06 1.2025544)
(9.9996792e-07 -5.2320406e-06 1.2025549)
(2.108216e-06 -5.1002256e-06 1.2025563)
(3.0814579e-06 -4.8287294e-06 1.2025589)
(2.5013117e-06 -4.1751082e-06 1.2025627)
(4.9796108e-07 -3.1307234e-06 1.2025636)
(5.9052724e-07 -1.9878856e-06 1.2025616)
(-3.2694085e-06 -1.8244665e-06 1.2025616)
(-5.4088763e-06 -1.7056836e-06 1.202555)
(-1.6099958e-06 -1.6099958e-06 1.2025529)
(-9.661565e-08 -1.5300062e-06 1.2025524)
(1.0890124e-06 -1.4548522e-06 1.2025529)
(2.2209631e-06 -1.3721052e-06 1.2025544)
(3.2419802e-06 -1.2715967e-06 1.2025571)
(2.6978949e-06 -1.1414274e-06 1.202561)
(5.6504443e-07 -1.0234461e-06 1.2025621)
(6.1599937e-07 -3.4994036e-07 1.2025608)
(-3.1855014e-06 -2.7345137e-07 1.2025609)
(-5.3205534e-06 -1.8010123e-07 1.2025544)
(-1.5300062e-06 -9.6615646e-08 1.2025524)
(-2.4957651e-08 -2.4957648e-08 1.2025519)
(1.1578689e-06 3.8171396e-08 1.2025524)
(2.2914715e-06 9.7923387e-08 1.202554)
(3.3121358e-06 1.5589551e-07 1.2025568)
(2.7494623e-06 2.071435e-07 1.2025608)
(5.7661523e-07 2.3216183e-07 1.2025619)
(6.4151989e-07 7.4788033e-07 1.2025611)
(-3.0995693e-06 8.6868454e-07 1.2025613)
(-5.2320406e-06 9.9996791e-07 1.2025549)
(-1.4548522e-06 1.0890124e-06 1.2025529)
(3.8171393e-08 1.1578689e-06 1.2025524)
(1.2118935e-06 1.2118935e-06 1.2025531)
(2.3386872e-06 1.2550337e-06 1.2025547)
(3.3512003e-06 1.2883495e-06 1.2025575)
(2.7741613e-06 1.3098501e-06 1.2025615)
(5.8172332e-07 1.3174306e-06 1.2025626)
(6.965355e-07 1.5264211e-06 1.2025623)
(-2.9334137e-06 1.8176518e-06 1.2025626)
(-5.1002256e-06 2.108216e-06 1.2025563)
(-1.3721052e-06 2.2209631e-06 1.2025544)
(9.7923388e-08 2.2914715e-06 1.202554)
(1.2550337e-06 2.3386872e-06 1.2025547)
(2.3679275e-06 2.3679275e-06 1.2025564)
(3.3669522e-06 2.3790812e-06 1.2025592)
(2.7785434e-06 2.3702975e-06 1.2025632)
(5.8166889e-07 2.352053e-06 1.2025643)
(8.3567371e-07 1.7164265e-06 1.2025642)
(-2.5177741e-06 2.3168627e-06 1.2025649)
(-4.8287294e-06 3.0814579e-06 1.2025589)
(-1.2715967e-06 3.2419802e-06 1.2025571)
(1.5589551e-07 3.3121358e-06 1.2025568)
(1.2883495e-06 3.3512003e-06 1.2025575)
(2.3790812e-06 3.3669522e-06 1.2025592)
(3.3535703e-06 3.3535703e-06 1.202562)
(2.7471331e-06 3.2963002e-06 1.202566)
(5.6956032e-07 3.2053033e-06 1.2025671)
(1.0968262e-06 8.2790282e-07 1.2025659)
(-1.5683818e-06 9.9988838e-07 1.2025676)
(-4.1751082e-06 2.5013117e-06 1.2025627)
(-1.1414274e-06 2.6978949e-06 1.202561)
(2.071435e-07 2.7494623e-06 1.2025608)
(1.3098501e-06 2.7741613e-06 1.2025615)
(2.3702975e-06 2.7785434e-06 1.2025632)
(3.2963002e-06 2.7471331e-06 1.202566)
(2.6302764e-06 2.6302764e-06 1.2025699)
(5.2100431e-07 2.3539088e-06 1.2025707)
(9.503307e-07 1.5283209e-08 1.2025652)
(-8.443648e-07 -1.3121235e-07 1.202567)
(-3.1307234e-06 4.9796107e-07 1.2025636)
(-1.0234461e-06 5.6504443e-07 1.2025621)
(2.3216183e-07 5.7661523e-07 1.2025619)
(1.3174306e-06 5.8172332e-07 1.2025626)
(2.352053e-06 5.8166889e-07 1.2025643)
(3.2053033e-06 5.6956032e-07 1.2025671)
(2.3539088e-06 5.2100431e-07 1.2025707)
(3.8531523e-07 3.8531523e-07 1.2025706)
(3.3479001e-06 3.3479001e-06 1.1915353)
(-3.3532096e-06 -7.8937677e-07 1.1915358)
(-1.1006261e-05 -1.3446757e-07 1.1915294)
(-3.4475237e-06 2.6486614e-09 1.1915274)
(-4.8782957e-07 4.6583932e-08 1.1915269)
(1.5938342e-06 8.9876374e-08 1.1915274)
(3.1836946e-06 1.908555e-07 1.1915288)
(3.6906563e-06 4.9498732e-07 1.1915311)
(1.0782197e-06 1.2492208e-06 1.1915336)
(-4.6272458e-07 1.2936403e-06 1.1915329)
(-7.8937677e-07 -3.3532096e-06 1.1915358)
(-8.5767627e-06 -8.5767627e-06 1.1915329)
(-9.8182233e-06 -7.2812977e-06 1.1915273)
(-3.1759465e-06 -6.9430905e-06 1.1915255)
(-3.5698801e-07 -6.7959005e-06 1.191525)
(1.8102415e-06 -6.6512744e-06 1.1915255)
(3.7913609e-06 -6.3648876e-06 1.1915271)
(5.2782043e-06 -5.5631635e-06 1.1915298)
(2.2761996e-06 -3.4229409e-06 1.1915338)
(-4.1830513e-07 -1.7411858e-06 1.1915336)
(-1.3446756e-07 -1.1006261e-05 1.1915294)
(-7.2812977e-06 -9.8182233e-06 1.1915273)
(-9.3725895e-06 -9.3725895e-06 1.191522)
(-2.9621267e-06 -9.143079e-06 1.1915202)
(-1.960136e-07 -8.9858369e-06 1.1915198)
(2.0248468e-06 -8.8362006e-06 1.1915204)
(4.271805e-06 -8.6223004e-06 1.191522)
(6.6326016e-06 -8.1724368e-06 1.191525)
(4.9001965e-06 -6.9901469e-06 1.1915299)
(6.5844503e-07 -5.1873726e-06 1.191531)
(2.648664e-09 -3.4475237e-06 1.1915274)
(-6.9430905e-06 -3.1759465e-06 1.1915255)
(-9.143079e-06 -2.9621267e-06 1.1915202)
(-2.7891938e-06 -2.7891938e-06 1.1915186)
(-5.0109532e-08 -2.6473678e-06 1.1915183)
(2.1737781e-06 -2.51804e-06 1.1915189)
(4.4551249e-06 -2.3805253e-06 1.1915205)
(6.9103582e-06 -2.2164527e-06 1.1915235)
(5.2612654e-06 -1.984018e-06 1.1915286)
(7.8354489e-07 -1.7654896e-06 1.1915298)
(4.6583932e-08 -4.8782957e-07 1.1915269)
(-6.7959005e-06 -3.5698801e-07 1.191525)
(-8.9858369e-06 -1.960136e-07 1.1915198)
(-2.6473678e-06 -5.0109528e-08 1.1915183)
(7.5140192e-08 7.5140198e-08 1.191518)
(2.2916893e-06 1.8465406e-07 1.1915186)
(4.5733922e-06 2.8705001e-07 1.1915203)
(7.0291088e-06 3.8520253e-07 1.1915234)
(5.3511598e-06 4.7448013e-07 1.1915285)
(8.0413069e-07 5.1928652e-07 1.1915297)
(8.9876372e-08 1.5938342e-06 1.1915274)
(-6.6512744e-06 1.8102415e-06 1.1915255)
(-8.8362006e-06 2.0248468e-06 1.1915204)
(-2.51804e-06 2.1737781e-06 1.1915189)
(1.8465405e-07 2.2916893e-06 1.1915186)
(2.3856879e-06 2.3856879e-06 1.1915194)
(4.6556734e-06 2.4619861e-06 1.1915211)
(7.0977883e-06 2.5221458e-06 1.1915241)
(5.3953494e-06 2.5627846e-06 1.1915292)
(8.1341582e-07 2.5795551e-06 1.1915305)
(1.908555e-07 3.1836946e-06 1.1915288)
(-6.3648876e-06 3.7913609e-06 1.1915271)
(-8.6223003e-06 4.2718049e-06 1.191522)
(-2.3805253e-06 4.4551249e-06 1.1915205)
(2.8705001e-07 4.5733922e-06 1.1915203)
(2.4619861e-06 4.6556734e-06 1.1915211)
(4.70985e-06 4.70985e-06 1.1915228)
(7.1299074e-06 4.734446e-06 1.1915259)
(5.4085691e-06 4.7228132e-06 1.191531)
(8.1531101e-07 4.6918614e-06 1.1915323)
(4.9498733e-07 3.6906563e-06 1.1915311)
(-5.5631635e-06 5.2782043e-06 1.1915298)
(-8.1724368e-06 6.6326016e-06 1.191525)
(-2.2164527e-06 6.9103582e-06 1.1915235)
(3.8520254e-07 7.0291088e-06 1.1915234)
(2.5221458e-06 7.0977883e-06 1.1915241)
(4.734446e-06 7.1299074e-06 1.1915259)
(7.1107514e-06 7.1107514e-06 1.191529)
(5.3527647e-06 6.9914041e-06 1.1915341)
(7.9278125e-07 6.7408337e-06 1.1915354)
(1.2492208e-06 1.0782197e-06 1.1915336)
(-3.4229409e-06 2.2761996e-06 1.1915338)
(-6.9901469e-06 4.9001965e-06 1.1915299)
(-1.984018e-06 5.2612654e-06 1.1915286)
(4.7448014e-07 5.3511598e-06 1.1915285)
(2.5627846e-06 5.3953494e-06 1.1915292)
(4.7228132e-06 5.4085691e-06 1.191531)
(6.9914041e-06 5.3527647e-06 1.1915341)
(5.0386512e-06 5.0386512e-06 1.1915392)
(6.4826403e-07 3.7380211e-06 1.1915402)
(1.2936403e-06 -4.6272458e-07 1.1915329)
(-1.7411858e-06 -4.1830513e-07 1.1915336)
(-5.1873726e-06 6.5844503e-07 1.191531)
(-1.7654896e-06 7.8354489e-07 1.1915298)
(5.1928653e-07 8.0413069e-07 1.1915297)
(2.5795551e-06 8.1341582e-07 1.1915305)
(4.6918614e-06 8.1531101e-07 1.1915323)
(6.7408337e-06 7.9278125e-07 1.1915354)
(3.7380211e-06 6.4826402e-07 1.1915402)
(-7.4305504e-08 -7.4305506e-08 1.1915387)
(3.2686187e-06 3.2686187e-06 1.1753178)
(-6.4507504e-06 -1.8086394e-06 1.1753173)
(-1.4832606e-05 -8.9151713e-07 1.1753116)
(-4.4585447e-06 -7.004255e-07 1.1753102)
(-3.4624351e-07 -6.4244377e-07 1.17531)
(2.6648958e-06 -5.9100676e-07 1.1753107)
(5.2152853e-06 -4.6530785e-07 1.1753123)
(6.580569e-06 -3.2165094e-08 1.1753149)
(2.6816126e-06 1.2118235e-06 1.1753184)
(-4.7680158e-07 1.4374505e-06 1.1753188)
(-1.8086394e-06 -6.4507504e-06 1.1753173)
(-1.2690955e-05 -1.2690955e-05 1.1753142)
(-1.3170287e-05 -1.086541e-05 1.1753093)
(-4.0849347e-06 -1.0390421e-05 1.1753081)
(-1.8211543e-07 -1.0194575e-05 1.1753079)
(2.9305996e-06 -1.0020292e-05 1.1753087)
(6.0535476e-06 -9.6728088e-06 1.1753103)
(9.0962656e-06 -8.5835594e-06 1.1753132)
(4.8860369e-06 -5.295758e-06 1.1753182)
(-2.5117453e-07 -2.737594e-06 1.1753192)
(-8.9151712e-07 -1.4832606e-05 1.1753116)
(-1.086541e-05 -1.3170287e-05 1.1753093)
(-1.2532074e-05 -1.2532074e-05 1.1753048)
(-3.7877101e-06 -1.2208812e-05 1.1753036)
(2.3885185e-08 -1.1998997e-05 1.1753035)
(3.1866617e-06 -1.1815044e-05 1.1753043)
(6.6520169e-06 -1.1565305e-05 1.1753059)
(1.0957617e-05 -1.1009416e-05 1.175309)
(8.5275769e-06 -9.3635264e-06 1.1753147)
(1.2286404e-06 -6.8934746e-06 1.1753169)
(-7.004255e-07 -4.4585447e-06 1.1753102)
(-1.0390421e-05 -4.0849347e-06 1.1753081)
(-1.2208812e-05 -3.7877101e-06 1.1753036)
(-3.5518573e-06 -3.5518573e-06 1.1753025)
(2.1165283e-07 -3.3651983e-06 1.1753025)
(3.3642913e-06 -3.2035765e-06 1.1753032)
(6.8591761e-06 -3.0420012e-06 1.1753049)
(1.1298045e-05 -2.856267e-06 1.175308)
(9.0019808e-06 -2.5615138e-06 1.1753138)
(1.3955276e-06 -2.2761214e-06 1.175316)
(-6.4244377e-07 -3.462435e-07 1.17531)
(-1.0194575e-05 -1.8211542e-07 1.1753079)
(-1.1998997e-05 2.3885184e-08 1.1753035)
(-3.3651983e-06 2.1165283e-07 1.1753025)
(3.7216603e-07 3.7216603e-07 1.1753025)
(3.5098588e-06 5.1055271e-07 1.1753033)
(6.9993263e-06 6.3724714e-07 1.1753049)
(1.1438105e-05 7.5596943e-07 1.175308)
(9.1077227e-06 8.6670889e-07 1.1753138)
(1.418902e-06 9.2080081e-07 1.1753161)
(-5.9100676e-07 2.6648958e-06 1.1753107)
(-1.0020292e-05 2.9305996e-06 1.1753087)
(-1.1815044e-05 3.1866617e-06 1.1753043)
(-3.2035765e-06 3.3642913e-06 1.1753032)
(5.1055271e-07 3.5098588e-06 1.1753033)
(3.6293724e-06 3.6293724e-06 1.1753041)
(7.1045928e-06 3.7297595e-06 1.1753057)
(1.1527507e-05 3.8130366e-06 1.1753088)
(9.1668122e-06 3.875507e-06 1.1753147)
(1.4315889e-06 3.9090725e-06 1.1753169)
(-4.6530785e-07 5.2152853e-06 1.1753123)
(-9.6728088e-06 6.0535476e-06 1.1753103)
(-1.1565305e-05 6.6520169e-06 1.1753059)
(-3.0420012e-06 6.8591761e-06 1.1753049)
(6.3724714e-07 6.9993263e-06 1.1753049)
(3.7297595e-06 7.1045928e-06 1.1753057)
(7.1829906e-06 7.1829906e-06 1.1753074)
(1.1583852e-05 7.2327973e-06 1.1753106)
(9.2037587e-06 7.2443438e-06 1.1753164)
(1.441279e-06 7.2370357e-06 1.1753187)
(-3.2165094e-08 6.580569e-06 1.1753149)
(-8.5835594e-06 9.0962656e-06 1.1753132)
(-1.1009416e-05 1.0957617e-05 1.175309)
(-2.856267e-06 1.1298045e-05 1.175308)
(7.5596943e-07 1.1438105e-05 1.175308)
(3.8130366e-06 1.1527507e-05 1.1753088)
(7.2327973e-06 1.1583852e-05 1.1753106)
(1.158886e-05 1.158886e-05 1.1753138)
(9.1710506e-06 1.1462449e-05 1.1753197)
(1.4267168e-06 1.1096268e-05 1.175322)
(1.2118235e-06 2.6816126e-06 1.1753184)
(-5.295758e-06 4.8860369e-06 1.1753182)
(-9.3635264e-06 8.5275769e-06 1.1753147)
(-2.5615138e-06 9.0019808e-06 1.1753138)
(8.6670889e-07 9.1077227e-06 1.1753138)
(3.875507e-06 9.1668122e-06 1.1753147)
(7.2443438e-06 9.2037587e-06 1.1753164)
(1.1462449e-05 9.1710506e-06 1.1753197)
(8.7111663e-06 8.7111663e-06 1.1753256)
(1.1971582e-06 5.7304085e-06 1.1753277)
(1.4374505e-06 -4.7680157e-07 1.1753188)
(-2.737594e-06 -2.5117452e-07 1.1753192)
(-6.8934746e-06 1.2286404e-06 1.1753169)
(-2.2761214e-06 1.3955276e-06 1.175316)
(9.2080081e-07 1.418902e-06 1.1753161)
(3.9090725e-06 1.4315889e-06 1.1753169)
(7.2370357e-06 1.441279e-06 1.1753187)
(1.1096268e-05 1.4267168e-06 1.175322)
(5.7304085e-06 1.1971582e-06 1.1753277)
(-5.6045509e-07 -5.6045509e-07 1.1753266)
(3.0166687e-06 3.0166687e-06 1.1546012)
(-9.5037718e-06 -2.8612764e-06 1.1546003)
(-1.8068844e-05 -1.6521106e-06 1.1545953)
(-5.0007669e-06 -1.404783e-06 1.1545945)
(7.2433361e-08 -1.3368624e-06 1.1545947)
(3.8794441e-06 -1.2866031e-06 1.1545955)
(7.372973e-06 -1.1553695e-06 1.1545971)
(9.808739e-06 -6.2572901e-07 1.1545998)
(5.0154527e-06 1.0858537e-06 1.1546036)
(-1.7776006e-07 1.5098111e-06 1.1546047)
(-2.8612764e-06 -9.5037718e-06 1.1546003)
(-1.650694e-05 -1.650694e-05 1.1545972)
(-1.5884106e-05 -1.4095842e-05 1.1545931)
(-4.5278947e-06 -1.3483195e-05 1.1545924)
(2.497032e-07 -1.3253712e-05 1.1545927)
(4.1516833e-06 -1.3079968e-05 1.1545935)
(8.3642837e-06 -1.2729298e-05 1.1545951)
(1.3170573e-05 -1.1448977e-05 1.154598)
(8.2187644e-06 -7.1002201e-06 1.1546032)
(2.4619744e-07 -3.6954193e-06 1.1546049)
(-1.6521106e-06 -1.8068844e-05 1.1545953)
(-1.4095842e-05 -1.5884106e-05 1.1545931)
(-1.5045102e-05 -1.5045102e-05 1.1545893)
(-4.1586381e-06 -1.4637325e-05 1.1545887)
(4.7565999e-07 -1.4393876e-05 1.154589)
(4.4038584e-06 -1.4206384e-05 1.1545898)
(9.003963e-06 -1.3971871e-05 1.1545914)
(1.5437813e-05 -1.3389462e-05 1.1545943)
(1.276901e-05 -1.1368397e-05 1.1546001)
(2.0921063e-06 -8.3166771e-06 1.1546029)
(-1.404783e-06 -5.0007669e-06 1.1545945)
(-1.3483195e-05 -4.5278947e-06 1.1545924)
(-1.4637325e-05 -4.1586381e-06 1.1545887)
(-3.8766694e-06 -3.8766694e-06 1.1545882)
(6.8064365e-07 -3.666053e-06 1.1545885)
(4.5736886e-06 -3.4987084e-06 1.1545893)
(9.1812059e-06 -3.349297e-06 1.1545908)
(1.5774048e-05 -3.1908069e-06 1.1545937)
(1.3291554e-05 -2.8857375e-06 1.1545995)
(2.2806784e-06 -2.5763331e-06 1.1546023)
(-1.3368624e-06 7.243336e-08 1.1545947)
(-1.3253712e-05 2.4970319e-07 1.1545927)
(-1.4393876e-05 4.7565998e-07 1.154589)
(-3.666053e-06 6.8064366e-07 1.1545885)
(8.5362097e-07 8.5362097e-07 1.1545888)
(4.7206145e-06 9.9898162e-07 1.1545896)
(9.3118644e-06 1.127369e-06 1.1545911)
(1.5901372e-05 1.2427506e-06 1.1545939)
(1.3383484e-05 1.3534342e-06 1.1545997)
(2.2983759e-06 1.4021096e-06 1.1546025)
(-1.2866031e-06 3.8794441e-06 1.1545955)
(-1.3079968e-05 4.1516833e-06 1.1545935)
(-1.4206384e-05 4.4038584e-06 1.1545898)
(-3.4987084e-06 4.5736886e-06 1.1545893)
(9.9898162e-07 4.7206145e-06 1.1545896)
(4.8474367e-06 4.8474367e-06 1.1545904)
(9.4249748e-06 4.9604513e-06 1.1545919)
(1.6000113e-05 5.0621841e-06 1.1545947)
(1.3450913e-05 5.1495507e-06 1.1546005)
(2.3131287e-06 5.2083578e-06 1.1546033)
(-1.1553695e-06 7.372973e-06 1.1545971)
(-1.2729298e-05 8.3642837e-06 1.1545951)
(-1.3971871e-05 9.003963e-06 1.1545914)
(-3.349297e-06 9.1812059e-06 1.1545908)
(1.1273691e-06 9.3118644e-06 1.1545911)
(4.9604513e-06 9.4249748e-06 1.1545919)
(9.5266118e-06 9.5266118e-06 1.1545934)
(1.6090472e-05 9.6167698e-06 1.1545963)
(1.3529658e-05 9.6860851e-06 1.1546021)
(2.3375807e-06 9.7521081e-06 1.154605)
(-6.2572902e-07 9.808739e-06 1.1545998)
(-1.1448977e-05 1.3170573e-05 1.154598)
(-1.3389462e-05 1.5437813e-05 1.1545943)
(-3.1908069e-06 1.5774048e-05 1.1545937)
(1.2427506e-06 1.5901372e-05 1.1545939)
(5.0621841e-06 1.6000113e-05 1.1545947)
(9.6167698e-06 1.6090471e-05 1.1545963)
(1.6159587e-05 1.6159587e-05 1.1545992)
(1.3586251e-05 1.6113484e-05 1.1546051)
(2.3571441e-06 1.5765212e-05 1.1546081)
(1.0858537e-06 5.0154527e-06 1.1546036)
(-7.1002201e-06 8.2187644e-06 1.1546032)
(-1.1368397e-05 1.276901e-05 1.1546001)
(-2.8857375e-06 1.3291554e-05 1.1545995)
(1.3534342e-06 1.3383484e-05 1.1545997)
(5.1495507e-06 1.3450913e-05 1.1546005)
(9.6860851e-06 1.3529658e-05 1.1546021)
(1.6113484e-05 1.3586251e-05 1.1546051)
(1.3135283e-05 1.3135283e-05 1.1546112)
(2.1053991e-06 8.4080838e-06 1.1546142)
(1.5098111e-06 -1.7776005e-07 1.1546047)
(-3.6954193e-06 2.4619744e-07 1.1546049)
(-8.3166771e-06 2.0921063e-06 1.1546029)
(-2.5763331e-06 2.2806784e-06 1.1546023)
(1.4021096e-06 2.2983759e-06 1.1546025)
(5.2083578e-06 2.3131287e-06 1.1546033)
(9.7521081e-06 2.3375807e-06 1.154605)
(1.5765212e-05 2.3571441e-06 1.1546081)
(8.4080838e-06 2.1053991e-06 1.1546142)
(-7.9432243e-07 -7.9432243e-07 1.1546138)
(2.6993916e-06 2.6993916e-06 1.1299937)
(-1.2287645e-05 -3.8633248e-06 1.1299928)
(-2.0647522e-05 -2.3478376e-06 1.1299886)
(-5.0821389e-06 -2.0447439e-06 1.1299883)
(7.2339164e-07 -1.9714386e-06 1.1299888)
(5.1354093e-06 -1.9314435e-06 1.1299898)
(9.4565179e-06 -1.8129769e-06 1.1299913)
(1.3005169e-05 -1.2197294e-06 1.1299937)
(7.6095664e-06 9.2283076e-07 1.1299974)
(2.8015186e-07 1.5636884e-06 1.1299989)
(-3.8633248e-06 -1.2287645e-05 1.1299928)
(-1.9858486e-05 -1.9858486e-05 1.12999)
(-1.7919654e-05 -1.6837298e-05 1.1299867)
(-4.5175407e-06 -1.6092561e-05 1.1299866)
(8.9334214e-07 -1.5846091e-05 1.1299871)
(5.3731018e-06 -1.5703101e-05 1.129988)
(1.0524089e-05 -1.5405719e-05 1.1299894)
(1.7108878e-05 -1.4032496e-05 1.129992)
(1.1784695e-05 -8.743008e-06 1.1299969)
(9.210096e-07 -4.5231991e-06 1.129999)
(-2.3478376e-06 -2.0647522e-05 1.1299886)
(-1.6837298e-05 -1.7919654e-05 1.1299867)
(-1.68816e-05 -1.68816e-05 1.1299837)
(-4.0909329e-06 -1.6402343e-05 1.1299836)
(1.1128513e-06 -1.6146252e-05 1.1299842)
(5.5757812e-06 -1.5987204e-05 1.129985)
(1.1127122e-05 -1.5819393e-05 1.1299864)
(1.9667875e-05 -1.5291566e-05 1.1299889)
(1.7118862e-05 -1.2998313e-05 1.1299944)
(3.0933568e-06 -9.455347e-06 1.1299974)
(-2.0447439e-06 -5.0821389e-06 1.1299883)
(-1.6092561e-05 -4.5175407e-06 1.1299866)
(-1.6402343e-05 -4.0909329e-06 1.1299836)
(-3.7821925e-06 -3.7821925e-06 1.1299837)
(1.3084812e-06 -3.570688e-06 1.1299842)
(5.6999616e-06 -3.4260586e-06 1.129985)
(1.1219727e-05 -3.3264566e-06 1.1299863)
(1.9929959e-05 -3.2454013e-06 1.1299887)
(1.7620919e-05 -2.9859087e-06 1.129994)
(3.2829886e-06 -2.6969016e-06 1.129997)
(-1.9714386e-06 7.2339164e-07 1.1299888)
(-1.5846091e-05 8.9334213e-07 1.1299871)
(-1.6146252e-05 1.1128513e-06 1.1299842)
(-3.570688e-06 1.3084812e-06 1.1299842)
(1.4689852e-06 1.4689852e-06 1.1299847)
(5.8200126e-06 1.5973947e-06 1.1299855)
(1.1307779e-05 1.7031127e-06 1.1299867)
(2.0008423e-05 1.7896783e-06 1.129989)
(1.7667362e-05 1.8768002e-06 1.1299943)
(3.2860283e-06 1.9039322e-06 1.1299973)
(-1.9314435e-06 5.1354093e-06 1.1299898)
(-1.5703101e-05 5.3731018e-06 1.129988)
(-1.5987204e-05 5.5757812e-06 1.129985)
(-3.4260586e-06 5.6999616e-06 1.129985)
(1.5973947e-06 5.8200126e-06 1.1299855)
(5.934089e-06 5.934089e-06 1.1299863)
(1.141201e-05 6.0467857e-06 1.1299875)
(2.0103646e-05 6.1611507e-06 1.1299898)
(1.7735173e-05 6.2752202e-06 1.1299951)
(3.3010766e-06 6.3659595e-06 1.129998)
(-1.8129769e-06 9.4565179e-06 1.1299913)
(-1.5405719e-05 1.0524089e-05 1.1299894)
(-1.5819393e-05 1.1127122e-05 1.1299864)
(-3.3264566e-06 1.1219727e-05 1.1299863)
(1.7031127e-06 1.1307779e-05 1.1299867)
(6.0467857e-06 1.141201e-05 1.1299875)
(1.1534841e-05 1.1534841e-05 1.1299887)
(2.0236857e-05 1.1679787e-05 1.129991)
(1.7872171e-05 1.1840164e-05 1.1299964)
(3.3465212e-06 1.2024871e-05 1.1299994)
(-1.2197294e-06 1.3005169e-05 1.1299937)
(-1.4032496e-05 1.7108878e-05 1.129992)
(-1.5291566e-05 1.9667875e-05 1.1299889)
(-3.2454013e-06 1.9929959e-05 1.1299887)
(1.7896783e-06 2.0008423e-05 1.129989)
(6.1611507e-06 2.0103646e-05 1.1299898)
(1.1679787e-05 2.0236857e-05 1.129991)
(2.040897e-05 2.040897e-05 1.1299934)
(1.8080257e-05 2.0528163e-05 1.1299989)
(3.4242143e-06 2.0328779e-05 1.1300022)
(9.2283076e-07 7.6095664e-06 1.1299974)
(-8.743008e-06 1.1784695e-05 1.1299969)
(-1.2998313e-05 1.7118862e-05 1.1299944)
(-2.9859087e-06 1.7620919e-05 1.129994)
(1.8768002e-06 1.7667362e-05 1.1299943)
(6.2752202e-06 1.7735173e-05 1.1299951)
(1.1840164e-05 1.7872171e-05 1.1299964)
(2.0528163e-05 1.8080257e-05 1.1299989)
(1.7791981e-05 1.7791981e-05 1.1300047)
(3.2135981e-06 1.1458013e-05 1.1300081)
(1.5636884e-06 2.8015185e-07 1.1299989)
(-4.5231991e-06 9.210096e-07 1.129999)
(-9.455347e-06 3.0933568e-06 1.1299974)
(-2.6969016e-06 3.2829886e-06 1.129997)
(1.9039322e-06 3.2860283e-06 1.1299973)
(6.3659595e-06 3.3010766e-06 1.129998)
(1.2024871e-05 3.3465212e-06 1.1299994)
(2.0328779e-05 3.4242143e-06 1.1300022)
(1.1458013e-05 3.2135981e-06 1.1300081)
(-7.9843159e-07 -7.9843159e-07 1.1300083)
(2.3950178e-06 2.3950178e-06 1.1020437)
(-1.4632383e-05 -4.7443383e-06 1.1020429)
(-2.2524595e-05 -2.9209647e-06 1.1020395)
(-4.7359316e-06 -2.5653468e-06 1.1020398)
(1.5419924e-06 -2.4916273e-06 1.1020406)
(6.3286477e-06 -2.470501e-06 1.1020416)
(1.1298931e-05 -2.381957e-06 1.1020428)
(1.5906347e-05 -1.7581592e-06 1.1020449)
(1.0137368e-05 7.6723234e-07 1.1020482)
(7.8634616e-07 1.6286974e-06 1.1020497)
(-4.7443383e-06 -1.4632383e-05 1.1020429)
(-2.2606352e-05 -2.2606352e-05 1.1020405)
(-1.9256112e-05 -1.8977319e-05 1.102038)
(-4.0919259e-06 -1.8112932e-05 1.1020385)
(1.6842611e-06 -1.7867402e-05 1.1020392)
(6.493153e-06 -1.778404e-05 1.1020401)
(1.2367443e-05 -1.7592801e-05 1.1020413)
(2.0630128e-05 -1.6222935e-05 1.1020434)
(1.5217656e-05 -1.0135165e-05 1.1020478)
(1.6478115e-06 -5.1608242e-06 1.1020499)
(-2.9209647e-06 -2.2524595e-05 1.1020395)
(-1.8977319e-05 -1.9256112e-05 1.102038)
(-1.8031179e-05 -1.8031179e-05 1.1020359)
(-3.6260151e-06 -1.7497574e-05 1.1020364)
(1.8708834e-06 -1.7250962e-05 1.1020372)
(6.6032483e-06 -1.7151449e-05 1.102038)
(1.2860036e-05 -1.7098728e-05 1.102039)
(2.3363977e-05 -1.6702316e-05 1.1020409)
(2.1199478e-05 -1.4243534e-05 1.1020457)
(4.1025724e-06 -1.0304928e-05 1.1020486)
(-2.5653468e-06 -4.7359316e-06 1.1020398)
(-1.8112932e-05 -4.0919259e-06 1.1020385)
(-1.7497574e-05 -3.6260151e-06 1.1020364)
(-3.3117085e-06 -3.3117085e-06 1.1020369)
(2.0303864e-06 -3.1231347e-06 1.1020376)
(6.6453867e-06 -3.0293957e-06 1.1020384)
(1.2816576e-05 -3.0157332e-06 1.1020393)
(2.3485322e-05 -3.0595073e-06 1.102041)
(2.1615049e-05 -2.8996409e-06 1.1020456)
(4.2735513e-06 -2.6734165e-06 1.1020485)
(-2.4916273e-06 1.5419924e-06 1.1020406)
(-1.7867402e-05 1.6842611e-06 1.1020392)
(-1.7250962e-05 1.8708834e-06 1.1020372)
(-3.1231347e-06 2.0303864e-06 1.1020376)
(2.1531963e-06 2.1531963e-06 1.1020383)
(6.7106499e-06 2.2405781e-06 1.102039)
(1.2829924e-05 2.2994248e-06 1.1020398)
(2.3480069e-05 2.3321765e-06 1.1020415)
(2.1585569e-05 2.3724657e-06 1.102046)
(4.2533888e-06 2.3622337e-06 1.1020488)
(-2.470501e-06 6.3286477e-06 1.1020416)
(-1.778404e-05 6.493153e-06 1.1020401)
(-1.7151449e-05 6.6032483e-06 1.102038)
(-3.0293957e-06 6.6453867e-06 1.1020384)
(2.2405781e-06 6.7106499e-06 1.102039)
(6.7916153e-06 6.7916153e-06 1.1020396)
(1.2908174e-05 6.8903479e-06 1.1020404)
(2.3558363e-05 7.0103764e-06 1.1020421)
(2.1645106e-05 7.1511306e-06 1.1020466)
(4.2667299e-06 7.278314e-06 1.1020493)
(-2.381957e-06 1.1298931e-05 1.1020428)
(-1.7592801e-05 1.2367443e-05 1.1020413)
(-1.7098728e-05 1.2860036e-05 1.102039)
(-3.0157332e-06 1.2816576e-05 1.1020393)
(2.2994248e-06 1.2829924e-05 1.1020398)
(6.8903479e-06 1.2908174e-05 1.1020404)
(1.3048685e-05 1.3048685e-05 1.1020412)
(2.3740851e-05 1.3259945e-05 1.1020429)
(2.1853507e-05 1.3539595e-05 1.1020474)
(4.3381778e-06 1.3880919e-05 1.1020503)
(-1.7581592e-06 1.5906347e-05 1.1020449)
(-1.6222935e-05 2.0630128e-05 1.1020434)
(-1.6702316e-05 2.3363977e-05 1.1020409)
(-3.0595073e-06 2.3485322e-05 1.102041)
(2.3321765e-06 2.3480069e-05 1.1020415)
(7.0103764e-06 2.3558363e-05 1.1020421)
(1.3259945e-05 2.3740851e-05 1.1020429)
(2.4049273e-05 2.4049273e-05 1.1020447)
(2.2266081e-05 2.4407788e-05 1.1020494)
(4.4942797e-06 2.4472384e-05 1.1020525)
(7.6723234e-07 1.0137368e-05 1.1020482)
(-1.0135165e-05 1.5217656e-05 1.1020478)
(-1.4243534e-05 2.1199478e-05 1.1020457)
(-2.8996409e-06 2.1615049e-05 1.1020456)
(2.3724657e-06 2.1585569e-05 1.102046)
(7.1511306e-06 2.1645106e-05 1.1020466)
(1.3539595e-05 2.1853507e-05 1.1020474)
(2.4407788e-05 2.2266081e-05 1.1020494)
(2.2276618e-05 2.2276618e-05 1.1020545)
(4.3812412e-06 1.4539012e-05 1.1020579)
(1.6286974e-06 7.8634616e-07 1.1020497)
(-5.1608242e-06 1.6478115e-06 1.1020499)
(-1.0304928e-05 4.1025724e-06 1.1020486)
(-2.6734165e-06 4.2735513e-06 1.1020485)
(2.3622337e-06 4.2533888e-06 1.1020488)
(7.278314e-06 4.2667299e-06 1.1020493)
(1.3880919e-05 4.3381778e-06 1.1020503)
(2.4472384e-05 4.4942797e-06 1.1020525)
(1.4539012e-05 4.3812412e-06 1.1020579)
(-6.6412634e-07 -6.6412634e-07 1.1020584)
(2.1555613e-06 2.1555613e-06 1.0712496)
(-1.6436304e-05 -5.4585678e-06 1.071249)
(-2.3699298e-05 -3.335703e-06 1.0712465)
(-4.016794e-06 -2.9328401e-06 1.0712473)
(2.4575295e-06 -2.8637651e-06 1.0712483)
(7.3680899e-06 -2.8692435e-06 1.0712491)
(1.277287e-05 -2.8259087e-06 1.0712501)
(1.8325655e-05 -2.2030206e-06 1.0712517)
(1.2368888e-05 6.5054732e-07 1.0712544)
(1.2617717e-06 1.7220679e-06 1.0712557)
(-5.4585678e-06 -1.6436304e-05 1.071249)
(-2.4673195e-05 -2.4673195e-05 1.0712471)
(-1.9910712e-05 -2.0459335e-05 1.0712455)
(-3.3088874e-06 -1.9492719e-05 1.0712464)
(2.5529244e-06 -1.9266227e-05 1.0712474)
(7.4248744e-06 -1.9268637e-05 1.0712482)