/*--------------------------------*- C++ -*----------------------------------*\
| =========                 |                                                 |
| \\      /  F ield         | OpenFOAM: The Open Source CFD Toolbox           |
|  \\    /   O peration     | Version:  v2106                                 |
|   \\  /    A nd           | Website:  www.openfoam.com                      |
|    \\/     M anipulation  |                                                 |
\*---------------------------------------------------------------------------*/
FoamFile
{
    version     2.0;
    format      ascii;
    arch        "LSB;label=32;scalar=64";
    class       volScalarField;
    location    "15";
    object      gradTy;
}
// * * * * * * * * * * * * * * * * * * * * * * * * * * * * * * * * * * * * * //

dimensions      [0 -1 0 1 0 0 0];

internalField   nonuniform List<scalar> 
4000
(
2.6737172e-05
0.00024066162
-3.7477804e-05
2.0300259e-05
4.1486362e-05
4.6633377e-05
5.028949e-05
5.5617007e-05
5.3852099e-05
3.0820178e-05
0.00028466173
0.00018833927
-0.00015584538
-3.1394953e-05
1.0984041e-05
2.2444311e-05
3.6345856e-05
6.6707336e-05
9.2561983e-05
4.7044212e-05
-0.00018362437
-0.00051416641
-0.00040335859
-0.00035250171
-0.0003391404
-0.0003361273
-0.0003264625
-0.00028999314
-0.00021922702
-0.00016769859
-0.00048303468
-0.00036458844
-0.00031620526
-0.00030037025
-0.00029863859
-0.00030258673
-0.00030647713
-0.00029849271
-0.0002605408
-0.00019967794
-1.1799013e-05
2.7700671e-05
4.2040251e-05
4.4075069e-05
3.9823762e-05
3.3020703e-05
2.376124e-05
1.2702442e-05
2.7947919e-06
-4.4513131e-06
0.00010827041
0.0001214751
0.00013363223
0.000134153
0.00012579369
0.00011809048
0.00011097426
0.00010367245
9.6112358e-05
8.9094444e-05
0.00013601292
0.00014948835
0.00018027595
0.00019562251
0.00018436996
0.00017530425
0.00016995194
0.00016676804
0.00016458313
0.00016337904
0.00013207683
0.00013742074
0.00018829295
0.00024465622
0.00023422927
0.00022368978
0.00021936738
0.00021832097
0.00021717356
0.00021471789
9.6400673e-05
5.9205435e-05
7.673754e-05
0.00018149998
0.00017555232
0.00016434622
0.00016097432
0.00016095722
0.00015737124
0.00014602938
2.3414455e-05
3.8253527e-07
-6.9307276e-06
3.4734815e-05
3.364452e-05
2.9904075e-05
2.8965907e-05
2.9101346e-05
2.7328796e-05
2.1540114e-05
9.908482e-05
0.00043994604
-0.00029061837
-0.00011447935
-4.2350568e-05
-2.1841825e-05
-2.5758076e-06
2.4377058e-05
-3.5578734e-08
-0.00010229797
0.00066688945
8.2334655e-05
-0.0008660106
-0.00047579553
-0.00032275238
-0.00027336535
-0.00020117166
-4.7632138e-05
3.5060444e-05
-0.00018375402
-0.001059433
-0.0018910711
-0.0016175632
-0.0014367312
-0.0013776777
-0.001361764
-0.0013110234
-0.0011262715
-0.00081680504
-0.00063564052
-0.0018401827
-0.001467781
-0.0012969245
-0.0012278955
-0.0012176756
-0.0012356229
-0.001251704
-0.0012031059
-0.0010195536
-0.00076340378
-8.0405145e-05
5.8551145e-05
0.00012202502
0.0001335183
0.00011429756
8.1580159e-05
3.8148573e-05
-7.4093696e-06
-3.6877753e-05
-4.747259e-05
0.0004933894
0.00055305155
0.00061497013
0.00061970581
0.00058094178
0.00054355681
0.00050924498
0.00047580682
0.00044455945
0.0004197857
0.00066090604
0.00073023437
0.00088663926
0.00096572685
0.00091915626
0.00087673731
0.00085140626
0.00083689387
0.00082733571
0.00082314179
0.00065489933
0.00065870967
0.00089113144
0.001152928
0.0011232818
0.0010779017
0.0010585963
0.0010538312
0.0010443165
0.0010205566
0.00050161486
0.00031160232
0.00036549298
0.00080223337
0.00080519512
0.00076217015
0.000749174
0.00074841806
0.00071589946
0.00062170012
0.00013087634
2.8613951e-05
-1.4999973e-05
0.00014939031
0.00015576656
0.00014232708
0.00013925073
0.00013953113
0.00012341082
7.6731564e-05
-0.00015001127
0.00038877339
-0.00050284679
-0.00025959616
-0.00015968503
-0.00012931238
-8.8305045e-05
-2.3042781e-05
-0.00011177795
-0.00035096265
3.0483479e-05
-0.0004987698
-0.0016422117
-0.0011002037
-0.00088653699
-0.00081616645
-0.00067874162
-0.00035090163
-0.00023335332
-0.00066500228
-0.0020442562
-0.0030168106
-0.0026456902
-0.0023880673
-0.0023052377
-0.0022911109
-0.0022117973
-0.0018686009
-0.0013185387
-0.0010296659
-0.0026825553
-0.0021678127
-0.0019268806
-0.0018273602
-0.0018176638
-0.0018569034
-0.0018960255
-0.0018206757
-0.0015275202
-0.0011470216
-6.1378035e-05
0.00013404765
0.00022265924
0.0002310041
0.00019311608
0.00013301843
5.5682393e-05
-1.9260436e-05
-5.9877117e-05
-6.8046534e-05
0.00088497179
0.00099204176
0.0010927672
0.0010854822
0.0010144055
0.00094804846
0.00088927144
0.00083601349
0.00079189116
0.00076521209
0.0012130257
0.0013724301
0.0016782905
0.0017949401
0.0017145182
0.0016426612
0.0016024832
0.0015832122
0.0015724093
0.0015716464
0.0011973632
0.0011621538
0.0016427515
0.0020554125
0.0020112567
0.001939853
0.0019138765
0.0019097791
0.0018779118
0.0017874587
0.0010099812
0.0005181014
0.00069588057
0.0013570363
0.0013695347
0.0013082502
0.0012987333
0.0012966844
0.0011764129
0.00097846005
0.0003080617
6.8877e-05
2.0295732e-05
0.00026145881
0.00027396149
0.00025601254
0.00025617545
0.00025550396
0.00019587336
0.00012353539
-0.00038401528
0.00029113712
-0.00072370448
-0.00042392886
-0.00030461389
-0.00026938788
-0.00020341845
-6.9521305e-05
-0.0001879632
-0.00053850495
-0.00051864743
-0.0010281812
-0.0023080623
-0.0016415491
-0.001389165
-0.0013147332
-0.0011197383
-0.0005836373
-0.00040726264
-0.0010425687
-0.0028052286
-0.0038778276
-0.0034185965
-0.0031042673
-0.0030127829
-0.0030146848
-0.0029247466
-0.002439987
-0.00169294
-0.0013515423
-0.0033125039
-0.002683868
-0.0023936066
-0.0022780544
-0.0022781532
-0.0023457528
-0.0024145947
-0.0023167849
-0.0019283029
-0.0014494786
2.185605e-05
0.00025366753
0.000348672
0.00034325001
0.0002809736
0.00019049673
7.8625574e-05
-2.195898e-05
-6.7479705e-05
-6.6712891e-05
0.0013046705
0.0014564637
0.0015740972
0.0015445
0.0014376557
0.001342152
0.0012617108
0.0011954133
0.001149132
0.001134939
0.0018159505
0.0021157504
0.0025470464
0.0026904482
0.0025760143
0.0024779925
0.0024292756
0.0024138373
0.0024077431
0.0024100789
0.0017300462
0.0017532291
0.0024425219
0.0029850356
0.0029288137
0.0028389304
0.0028162348
0.0028173978
0.0027327727
0.0024819183
0.0014425429
0.00073906744
0.00098361152
0.0018275122
0.0018509178
0.0017827582
0.0017904435
0.0017789998
0.001454964
0.0012333245
0.00046368838
0.00011314663
4.0151011e-05
0.00034074511
0.00035936725
0.00034125632
0.00034990524
0.0003428135
0.00018266901
0.00019505383
-0.00053663747
0.00023729309
-0.00089300543
-0.00054191793
-0.00040802602
-0.00037415205
-0.00029235302
-9.6047288e-05
-0.00024590564
-0.00069036694
-0.00086613656
-0.0014006885
-0.0028087529
-0.0020317452
-0.0017535329
-0.0016904549
-0.0014600698
-0.00073542786
-0.00052166129
-0.0013404276
-0.0033935778
-0.0045623944
-0.0040246345
-0.0036652342
-0.0035751419
-0.0036030892
-0.0035151554
-0.0029036066
-0.0019886673
-0.0016124888
-0.0038139531
-0.003086484
-0.0027587331
-0.0026369914
-0.0026544703
-0.0027565882
-0.0028606875
-0.0027447551
-0.0022711374
-0.0017062278
0.00014599007
0.0003976389
0.00048728029
0.0004597839
0.00036768349
0.0002436187
9.6191232e-05
-2.778286e-05
-7.4231044e-05
-6.0069398e-05
0.0017392864
0.0019127959
0.0020327495
0.0019727824
0.0018265323
0.0017012901
0.0016018374
0.0015295212
0.0014925669
0.001505369
0.0024782848
0.0028954419
0.0034333118
0.0035949245
0.0034451449
0.0033235229
0.0032733759
0.003274624
0.0032892069
0.0033067949
0.0023729027
0.0024425738
0.0033113112
0.0039690619
0.0039008613
0.0037986397
0.0037915908
0.0038144707
0.0036720586
0.003181856
0.0019379455
0.001046466
0.0013329457
0.0023375838
0.002371473
0.0023052972
0.0023473209
0.0023374682
0.0017147062
0.0014358796
0.00062105786
0.00017659656
7.5213642e-05
0.00042738223
0.00045182002
0.00043682333
0.00046035478
0.00044854863
0.00013355304
0.00026266427
-0.000653271
0.00020497043
-0.0010309164
-0.00063204771
-0.00048647411
-0.00045735252
-0.00036533639
-0.00011310292
-0.00029622204
-0.00082545516
-0.0011161036
-0.0016825717
-0.0032072538
-0.0023295695
-0.0020338224
-0.0019914741
-0.0017402673
-0.00084557213
-0.00060788328
-0.00159525
-0.0038694166
-0.0051249438
-0.0045164144
-0.004120437
-0.0040390651
-0.0041004985
-0.0040243624
-0.0032997546
-0.0022363176
-0.0018319739
-0.0042224945
-0.003405831
-0.0030490631
-0.0029284817
-0.0029693723
-0.0031111916
-0.0032556624
-0.0031274217
-0.0025784403
-0.0019361648
0.00028742627
0.00054946904
0.00062552159
0.00056940754
0.0004428117
0.00028210566
9.762518e-05
-4.937361e-05
-9.5485488e-05
-6.5943195e-05
0.0021468416
0.0023285482
0.0024403967
0.0023432509
0.0021541066
0.0019980643
0.0018810988
0.0018075682
0.0017883465
0.001839188
0.0031101
0.0036264745
0.004256002
0.0044272183
0.004239772
0.004095739
0.0040492758
0.0040779869
0.0041304363
0.0041840144
0.0030170915
0.0031207631
0.0041494756
0.0049088079
0.0048266977
0.0047156972
0.0047339454
0.0047968576
0.0046163555
0.0038757946
0.002438189
0.0013696607
0.0016885112
0.0028374415
0.002879768
0.0028208719
0.0029113878
0.0029268994
0.0019903248
0.0016298102
0.0007740381
0.00024480497
0.0001157936
0.00051436746
0.00054397724
0.00053406231
0.00057787159
0.00056978109
8.416431e-05
0.00032943801
-0.00075274337
0.00018209925
-0.0011474613
-0.00070390608
-0.00054890302
-0.0005268069
-0.0004284981
-0.00012582678
-0.0003417215
-0.00094917845
-0.0013132591
-0.001905336
-0.0035312892
-0.0025613243
-0.0022545014
-0.0022396488
-0.0019788917
-0.00093145433
-0.00067721799
-0.0018215851
-0.0042586053
-0.0055876132
-0.0049145935
-0.0044889654
-0.0044220636
-0.0045229169
-0.004467299
-0.0036443189
-0.0024490847
-0.0020222048
-0.0045537923
-0.0036559548
-0.0032770045
-0.003163425
-0.003232552
-0.0034183635
-0.003607963
-0.0034744161
-0.0028604581
-0.0021497538
0.0004344014
0.00070005017
0.00075607686
0.00066609872
0.00050113836
0.00030108437
7.7843049e-05
-9.3125865e-05
-0.00013965627
-9.4969653e-05
0.0025108319
0.0026914392
0.0027864416
0.0026462039
0.0024110306
0.0022229086
0.0020889673
0.0020168305
0.0020200193
0.0021148077
0.0036748324
0.0042763025
0.0049830268
0.0051549005
0.0049269742
0.0047606903
0.0047208961
0.0047839182
0.0048859115
0.0049908576
0.0036071008
0.0037372657
0.0049087745
0.0057554799
0.0056562795
0.0055379806
0.0055873315
0.0057029959
0.0055046221
0.0045293897
0.0029058254
0.0016707979
0.0020156946
0.0032929119
0.0033403569
0.0032910681
0.003438334
0.0034980076
0.0022647278
0.0018189063
0.00091763838
0.00031018143
0.00015472695
0.00059476806
0.00062852977
0.00062455914
0.00069172205
0.00069452326
4.15671e-05
0.00039730894
-0.00083843544
0.00016642089
-0.0012442543
-0.00075920672
-0.00059680866
-0.00058355382
-0.00048234739
-0.00013474161
-0.00038232714
-0.00106226
-0.001468178
-0.0020769063
-0.0037877169
-0.0027337137
-0.0024214336
-0.0024395499
-0.0021793065
-0.00099699599
-0.00073242847
-0.0020237036
-0.0045708487
-0.0059592901
-0.0052276561
-0.0047785385
-0.0047308296
-0.0048759217
-0.0048487747
-0.0039429369
-0.0026326036
-0.0021894893
-0.0048164511
-0.0038452826
-0.0034501678
-0.0033484562
-0.0034497009
-0.00368296
-0.0039219122
-0.0037905239
-0.0031225557
-0.0023530669
0.00057893994
0.00084241929
0.00087310368
0.00074503609
0.00053859983
0.00029694239
3.3310779e-05
-0.00016317109
-0.00021193521
-0.0001535906
0.0028230697
0.0029947616
0.0030651968
0.0028768165
0.0025929855
0.0023715275
0.0022206022
0.002151113
0.0021790802
0.0023205399
0.0041581186
0.0048313369
0.0056006725
0.0057643216
0.0054931087
0.0053042082
0.0052726943
0.0053742168
0.0055332439
0.005699529
0.0041199971
0.0042700274
0.0055668751
0.0064861986
0.0063662316
0.0062409526
0.0063247095
0.0065015022
0.0063018767
0.0051143794
0.0033219873
0.0019307097
0.0022952797
0.0036841574
0.0037327366
0.0036937379
0.0039021635
0.0040190501
0.0025150406
0.0019905913
0.0010480709
0.000368138
0.00018722076
0.00066354755
0.0007002133
0.00070244395
0.00079451977
0.00081330071
2.854892e-06
0.00046366783
-0.00091003237
0.00015811499
-0.0013210592
-0.00079798787
-0.00063013465
-0.00062724377
-0.00052624952
-0.00013935055
-0.00041745587
-0.0011643388
-0.0015825786
-0.0021991188
-0.0039785392
-0.0028490701
-0.0025364524
-0.0025920623
-0.0023415422
-0.0010426811
-0.00077409292
-0.0022026938
-0.0048111153
-0.0062452696
-0.0054610667
-0.0049942466
-0.0049696885
-0.0051628539
-0.0051712604
-0.0041982682
-0.0027899079
-0.0023373
-0.0050169543
-0.0039805676
-0.0035748676
-0.0034891894
-0.0036256392
-0.0039089826
-0.0042007878
-0.0040788738
-0.0033680568
-0.0025497976
0.0007144481
0.00097056424
0.00097145589
0.00080195693
0.00055166276
0.00026667231
-3.8683646e-05
-0.00026232402
-0.00031556088
-0.00024561255
0.0030779469
0.0032337746
0.0032728571
0.0030322028
0.0026977086
0.0024418563
0.0022736809
0.0022072871
0.0022610424
0.002450148
0.0045525824
0.0052844222
0.0061019636
0.0062490079
0.0059320724
0.0057200115
0.0056975031
0.0058399581
0.0060608439
0.006295065
0.0045446375
0.004707828
0.0061120868
0.0070891805
0.0069448178
0.0068123033
0.0069321792
0.007175644
0.0069884229
0.0056121813
0.0036754656
0.0021379833
0.0025154529
0.0039989515
0.0040445291
0.004015663
0.00428739
0.0044707699
0.0027239273
0.0021311868
0.0011621872
0.00041530427
0.00020978657
0.00071704284
0.00075529269
0.00076367506
0.0008813631
0.00091982249
-3.6131315e-05
0.00052466214
-0.00096686537
0.00015751227
-0.0013777166
-0.0008203903
-0.00064895322
-0.00065768663
-0.00055974144
-0.00013923147
-0.00044662881
-0.0012549489
-0.0016570781
-0.0022733549
-0.0041057545
-0.0029098369
-0.0026016012
-0.0026983523
-0.0024658619
-0.0010687997
-0.00080256119
-0.0023589124
-0.0049836533
-0.0064505071
-0.0056201352
-0.0051411733
-0.0051430661
-0.0053871865
-0.0054372192
-0.0044124461
-0.0029232236
-0.0024679037
-0.0051612495
-0.0040681045
-0.0036570962
-0.0035910353
-0.003765049
-0.0041002809
-0.0044475702
-0.0043418906
-0.0035991875
-0.002742167
0.00083534096
0.0010793965
0.0010468256
0.00083338336
0.00053757997
0.00020812277
-0.00013983135
-0.00039205384
-0.00045202717
-0.00037270724
0.0032716396
0.0034054573
0.0034073788
0.0031113041
0.0027248576
0.0024338928
0.0022481604
0.002184857
0.0022645736
0.0025012376
0.0048543536
0.0056320364
0.0064839062
0.0066067767
0.0062422965
0.0060066001
0.0059932607
0.0061778339
0.00646355
0.0067701125
0.0048754052
0.0050450742
0.006538706
0.0075590698
0.0073870887
0.007246874
0.0074035019
0.0077171632
0.0075537661
0.0060121118
0.0039595869
0.0022860107
0.0026694741
0.0042305531
0.0042691977
0.0042498997
0.0045855784
0.0048421783
0.002880527
0.0022307524
0.0012577419
0.00044942187
0.00022017444
0.00075296847
0.00079152144
0.00080584843
0.00094929748
0.0010102235
-7.8472037e-05
0.00057704043
-0.0010085845
0.00016463344
-0.0014144907
-0.00082695106
-0.00065372826
-0.00067508413
-0.00058272494
-0.0001342226
-0.00046957658
-0.0013337509
-0.0016929246
-0.0023017839
-0.0041723192
-0.0029193811
-0.0026198563
-0.0027605211
-0.0025533658
-0.0010761231
-0.00081842061
-0.0024927074
-0.0050930414
-0.0065804182
-0.0057106387
-0.0052248959
-0.0052559127
-0.0055529155
-0.0056495318
-0.0045876751
-0.0030345041
-0.0025830071
-0.0052551178
-0.0041139741
-0.0037026549
-0.0036592482
-0.0038724737
-0.0042605442
-0.004664982
-0.0045814942
-0.0038173744
-0.0029313298
0.00093707274
0.0011648731
0.0010959327
0.00083685356
0.00049463668
0.00012023323
-0.00027061735
-0.00055242308
-0.00062118064
-0.00053468568
0.0034021113
0.0035086163
0.0034686018
0.0031149972
0.0026760935
0.0023497432
0.0021462645
0.0020858223
0.0021911274
0.0024745154
0.0050623199
0.0058736122
0.0067467179
0.0068388526
0.0064257679
0.0061661963
0.006161847
0.0063887818
0.0067408519
0.0071224919
0.005110346
0.0052800685
0.0068452912
0.0078950962
0.0076928987
0.0075445329
0.0077377616
0.0081235378
0.0079935283
0.0063092838
0.0041710205
0.002371728
0.0027544362
0.004376396
0.0044046006
0.0043941335
0.0047932936
0.0051278436
0.0029790397
0.0022834401
0.0013333866
0.00046921229
0.00021719544
0.00077021032
0.00080789187
0.00082787364
0.0009968172
0.0010823003
-0.00012601244
0.00061856724
-0.0010352413
0.00017914767
-0.0014320702
-0.00081858679
-0.00064529035
-0.00068000074
-0.00059543846
-0.00012441433
-0.00048623753
-0.0014005778
-0.0016922448
-0.0022874881
-0.0041821696
-0.0028819603
-0.0025950635
-0.0027815318
-0.0026059365
-0.001065939
-0.00082256137
-0.0026046061
-0.0051443437
-0.0066409454
-0.0057388158
-0.0052514271
-0.0053136154
-0.0056644681
-0.0058114433
-0.0047262951
-0.0031255606
-0.002683987
-0.0053041911
-0.0041240214
-0.003717085
-0.003698821
-0.0039521947
-0.0043931833
-0.0048554125
-0.0047991268
-0.0040233675
-0.0031175895
0.0010161643
0.0012240434
0.0011165927
0.00081100242
0.00042223042
3.0960386e-06
-0.0004303018
-0.00074215279
-0.00082138701
-0.0007297618
0.0034690693
0.0035438471
0.0034581962
0.0030460192
0.0025549783
0.002193487
0.0019722967
0.0019144072
0.0020445509
0.0023732397
0.0051777887
0.0060111683
0.0068933815
0.0069493413
0.006487438
0.0062040924
0.0062083582
0.0064771462
0.0068958663
0.0073538793
0.005250376
0.0054141774
0.0070337511
0.00810006
0.0078657962
0.0077089748
0.0079380504
0.0083964828
0.0083077451
0.0065030703
0.0043090586
0.0023948134
0.0027703914
0.0044371214
0.0044519287
0.0044495124
0.0049107612
0.0053262456
0.0030173486
0.0022867355
0.0013885311
0.00047419085
0.00020050129
0.00076857327
0.00080435324
0.00082965674
0.0010234791
0.0011349988
-0.00017963745
0.00064792334
-0.0010472596
0.00020041094
-0.0014315094
-0.00079652986
-0.00062477173
-0.00067330147
-0.00059840309
-0.00011011303
-0.0004967358
-0.0014554328
-0.001657969
-0.0022343437
-0.0041400565
-0.0028025384
-0.0025317487
-0.0027650276
-0.0026260883
-0.0010399655
-0.00081614372
-0.0026953429
-0.0051430261
-0.0066384373
-0.0057112208
-0.0052270507
-0.0053218264
-0.0057265412
-0.0059264383
-0.0048307313
-0.0031980817
-0.0027719737
-0.0053138909
-0.0041037844
-0.0037055831
-0.0037143901
-0.0040081356
-0.0045012498
-0.0050208727
-0.0049957744
-0.0042173313
-0.0033005504
0.0010701734
0.0012550161
0.0011076843
0.00075552556
0.00032082459
-0.00014211132
-0.00061702374
-0.00095878211
-0.0010497534
-0.00095482712
0.0034738127
0.0035133657
0.0033794731
0.0029087538
0.002366736
0.0019709054
0.001732329
0.0016766962
0.0018306561
0.0022027284
0.0052041631
0.0060489458
0.0069292252
0.0069447557
0.0064347005
0.0061280849
0.0061404913
0.0064500011
0.0069345776
0.007468941
0.005298766
0.0054512669
0.0071087106
0.0081796235
0.0079122521
0.0077468938
0.0080105791
0.0085409802
0.008499808
0.0065960619
0.0043751109
0.0023571313
0.0027197335
0.0044158888
0.0044149575
0.0044198438
0.0049409897
0.0054387837
0.0029960715
0.0022406933
0.0014232089
0.00046451189
0.00017040941
0.00074858385
0.00078159664
0.00081186806
0.0010296448
0.0011681103
-0.00023951922
0.00066452483
-0.0010453859
0.00022751958
-0.0014141617
-0.00076226067
-0.0005935403
-0.00065609021
-0.00059236987
-9.1802921e-05
-0.00050135473
-0.0014984734
-0.0015936855
-0.0021468493
-0.0040513494
-0.0026865881
-0.0024349247
-0.0027151525
-0.0026168171
-0.001000251
-0.00080054171
-0.0027658371
-0.0050948193
-0.0065794897
-0.005634558
-0.0051581553
-0.0052863024
-0.0057439562
-0.0059981275
-0.0049034343
-0.003253628
-0.0028478875
-0.00528936
-0.0040584278
-0.0036729352
-0.0037101721
-0.0040438086
-0.0045873991
-0.0051629893
-0.005172007
-0.0043989355
-0.003479247
0.0010976261
0.0012568818
0.0010690617
0.00067108082
0.00019183468
-0.00031326125
-0.00082796555
-0.001198871
-0.0013023708
-0.0012057224
0.0034190257
0.0034207814
0.0032371333
0.0027089562
0.0021179526
0.001689156
0.0014338465
0.0013802437
0.0015567946
0.0019699069
0.0051466025
0.0059930335
0.006861504
0.0068335554
0.0062768961
0.0059479457
0.0059679839
0.0063165561
0.0068652115
0.0074746731
0.0052607149
0.0053972376
0.0070769903
0.0081417371
0.007841044
0.0076673318
0.0079639921
0.0085645594
0.0085757181
0.0065933285
0.0043723182
0.0022623124
0.0026067322
0.0043178592
0.0042994921
0.0043110079
0.0048891553
0.0054691248
0.0029179244
0.0021473568
0.0014379691
0.00044085037
0.0001277722
0.00071134408
0.00074089784
0.0007757764
0.0010163061
0.0011820841
-0.00030528698
0.00066837234
-0.0010306324
0.00025936759
-0.0013816121
-0.00071744155
-0.00055313617
-0.00062965094
-0.00057826935
-7.0108378e-05
-0.00050050843
-0.0015299903
-0.0015034777
-0.0020299471
-0.0039218428
-0.0025399015
-0.0023099101
-0.0026363861
-0.0025814614
-0.00094907675
-0.00077728168
-0.0028171552
-0.005005574
-0.0064707877
-0.0055155283
-0.0050510867
-0.0052127663
-0.0057215377
-0.0060301532
-0.0049468278
-0.0032936243
-0.0029124605
-0.0052354045
-0.0039926907
-0.0036234718
-0.0036899287
-0.0040622901
-0.0046538849
-0.0052830235
-0.0053280319
-0.0045674456
-0.0036522632
0.0010979271
0.001229613
0.0010014425
0.00055916192
3.7486251e-05
-0.00050743722
-0.0010595374
-0.001458212
-0.0015745521
-0.0014774938
0.0033085501
0.0032708503
0.0030369988
0.0024534634
0.0018162653
0.0013564397
0.0010853915
0.0010336959
0.00123146
0.0016828996
0.0050116843
0.0058509981
0.0066989936
0.0066257081
0.0060248466
0.0056749333
0.0057021028
0.0060876263
0.0066976921
0.0073798552
0.0051429653
0.0052596067
0.0069471451
0.0079961356
0.0076627229
0.007481121
0.0078087913
0.0084767102
0.0085434977
0.0065018487
0.0043052239
0.002115401
0.0024371454
0.0041497683
0.0041129141
0.0041304865
0.0047621178
0.0054227154
0.0027872563
0.0020103178
0.0014337863
0.00040430442
7.3870575e-05
0.00065841365
0.00068399221
0.0007231192
0.00098495194
0.0011778946
-0.00037614739
0.00065993562
-0.0010042196
0.00029470394
-0.0013356109
-0.00066385387
-0.0005052118
-0.00059539203
-0.00055716327
-4.5757025e-05
-0.00049471292
-0.0015503842
-0.001391762
-0.0018888489
-0.0037575728
-0.0023684161
-0.0021621653
-0.0025333922
-0.0025235747
-0.00088886513
-0.00074798097
-0.0028504699
-0.0048811252
-0.0063189619
-0.0053606924
-0.0049120209
-0.0051067916
-0.005664012
-0.0060261118
-0.0049632654
-0.003319352
-0.0029662543
-0.0051564486
-0.00391085
-0.0035610411
-0.0036569493
-0.0040662164
-0.0047025694
-0.0053819026
-0.0054637521
-0.0047218095
-0.0038178405
0.0010712616
0.0011739544
0.00090628553
0.00042196326
-0.00013933463
-0.00072109939
-0.0013075613
-0.0017320339
-0.0018610541
-0.0017646273
0.0031471585
0.0030692313
0.0027857491
0.0021499111
0.0014700628
0.00098168447
0.00069623074
0.00064644211
0.00086392767
0.0013506636
0.0048070795
0.005631532
0.0064516066
0.0063322786
0.0056904239
0.0053213441
0.0053551815
0.0057751595
0.0064431654
0.0071945782
0.0049534474
0.0050471229
0.0067290411
0.0077538828
0.0073891342
0.00720039
0.0075568311
0.0082883739
0.0084126927
0.0063300378
0.0041794773
0.0019225365
0.0022178725
0.0039195476
0.0038637841
0.0038869543
0.0045680057
0.005306373
0.0026096696
0.0018343603
0.001411979
0.00035630771
1.0319722e-05
0.00059170616
0.00061296575
0.0006559907
0.00093745639
0.0011569325
-0.00045098017
0.00064005968
-0.00096751857
0.0003321878
-0.0012780127
-0.00060333952
-0.00045147633
-0.00055479416
-0.00053019886
-1.9544122e-05
-0.00048455764
-0.0015601436
-0.0012631332
-0.0017288745
-0.0035646498
-0.0021780572
-0.0019971436
-0.0024108823
-0.0024468084
-0.00082209415
-0.00071428935
-0.0028670179
-0.0047271717
-0.0061304627
-0.0051763544
-0.0047468579
-0.0049737058
-0.0055759238
-0.0059894888
-0.004954995
-0.0033319441
-0.003009675
-0.0050565021
-0.0038166975
-0.0034889959
-0.0036140489
-0.0040577924
-0.0047349449
-0.0054602572
-0.0055788242
-0.0048607384
-0.0039739767
0.0010184933
0.0010913114
0.00078566823
0.00026224548
-0.00033522781
-0.00095024372
-0.0015674436
-0.0020151891
-0.0021562784
-0.0020612582
0.0029403376
0.0028222538
0.0024906729
0.0018064709
0.0010882081
0.00057425505
0.0002760527
0.00022830173
0.00046393417
0.00098266614
0.0045412494
0.0053441245
0.0061300375
0.0059650532
0.0052861583
0.0049001078
0.004940205
0.0053918146
0.0061135782
0.0069298294
0.0047009486
0.0047694105
0.0064334677
0.0074269551
0.0070329865
0.0068381203
0.0072208679
0.0080114935
0.0081939349
0.0060873372
0.0040015587
0.0016906595
0.001956635
0.0036359794
0.0035614825
0.0035899104
0.0043158469
0.0051279251
0.0023916905
0.0016251529
0.0013741339
0.00029854798
-6.1018417e-05
0.00051339405
0.00053015607
0.00057674087
0.00087597738
0.0011209083
-0.00052842106
0.00060988321
-0.00092199721
0.00037043977
-0.0012107192
-0.00053774798
-0.00039364526
-0.00050936296
-0.00049856656
7.7006479e-06
-0.00047067846
-0.0015598225
-0.0011222224
-0.0015553054
-0.0033491096
-0.0019745995
-0.0018201619
-0.0022734953
-0.0023548071
-0.00075122012
-0.00067783498
-0.0028680615
-0.0045491722
-0.0059114538
-0.0049684664
-0.004561135
-0.004818513
-0.0054615688
-0.0059236061
-0.004924129
-0.0033323828
-0.0030429877
-0.0049391404
-0.0037135295
-0.0034101927
-0.0035635761
-0.0040388085
-0.0047521605
-0.0055184597
-0.0056727129
-0.0049827801
-0.0041185133
0.00094106335
0.00098364087
0.00064216763
8.320715e-05
-0.00054641673
-0.0011905494
-0.001834333
-0.002302322
-0.0024544497
-0.0023613559
0.0026940854
0.0025367034
0.0021594402
0.0014316103
0.000679789
0.00014369408
-0.0001653001
-0.00021075135
4.1395953e-05
0.00058860047
0.0042231665
0.0049987619
0.0057454416
0.0055362017
0.0048248892
0.0044244291
0.0044704437
0.0049505916
0.0057213074
0.0065971284
0.0043948119
0.0044366441
0.0060717841
0.0070278674
0.0066074637
0.0064077507
0.0068141597
0.0076586144
0.0078985553
0.0057838534
0.0037785249
0.0014272402
0.0016616835
0.0033083814
0.0032158831
0.0032493475
0.004015235
0.0048958844
0.0021404739
0.0013889752
0.0013220348
0.00023289072
-0.00013811624
0.00042582075
0.00043806161
0.00048788331
0.00080286463
0.001071764
-0.00060693667
0.00057076482
-0.00086917061
0.00040808801
-0.0011356285
-0.00046888963
-0.00033339622
-0.00046058691
-0.00046346222
3.5143394e-05
-0.00045373282
-0.0015500205
-0.00097357104
-0.0013732579
-0.003116785
-0.0017635498
-0.0016362896
-0.0021256934
-0.0022511177
-0.00067860945
-0.0006401766
-0.0028548536
-0.0043522597
-0.0056677262
-0.0047425516
-0.0043599601
-0.0046458334
-0.0053249404
-0.0058315798
-0.0048726219
-0.0033214979
-0.0030663299
-0.0048074961
-0.0036041477
-0.0033270007
-0.0035074294
-0.0040106634
-0.0047550522
-0.0055566631
-0.0057447422
-0.0050863838
-0.0042492122
0.00084089216
0.00085334623
0.00047874862
-0.00011163411
-0.00076887414
-0.0014375114
-0.0021032596
-0.0025880157
-0.0027497695
-0.0026588828
0.0024147272
0.0022196282
0.0017998991
0.0010338818
0.00025389953
-0.00030050368
-0.00061806332
-0.00066082664
-0.00039383231
0.00017814266
0.0038620649
0.0046056604
0.0053091488
0.0050579789
0.0043194588
0.0039074746
0.0039591358
0.0044645096
0.0052788394
0.0062082104
0.0040446636
0.0040592577
0.0056556047
0.0065693396
0.0061258839
0.0059228298
0.0063501149
0.0072425333
0.0075382431
0.0054300402
0.0035177771
0.0011400313
0.0013415329
0.0029463234
0.0028370629
0.0028754563
0.0036760322
0.0046191571
0.0018635391
0.0011324738
0.0012575966
0.00016130896
-0.00021885476
0.00033142099
0.00033925964
0.00039201209
0.00072057628
0.0010115927
-0.00068489231
0.0005242159
-0.0008105566
0.0004438084
-0.0010545921
-0.00039849617
-0.00027233123
-0.00040990113
-0.00042605384
6.1972628e-05
-0.00043437754
-0.0015313642
-0.00082152264
-0.0011875759
-0.0028731988
-0.0015500497
-0.0014502574
-0.001971676
-0.0021391112
-0.00060648049
-0.00060276209
-0.0028286071
-0.0041411742
-0.005404631
-0.0045036481
-0.0041479611
-0.0044598591
-0.0051696902
-0.0057162878
-0.0048022533
-0.0032999688
-0.0030797242
-0.0046642596
-0.0034908683
-0.0032413182
-0.0034470793
-0.0039743918
-0.0047441747
-0.0055748377
-0.0057941402
-0.0051699568
-0.0043638213
0.00072028793
0.00070318049
0.00029866167
-0.0003185486
-0.00099843371
-0.0016865565
-0.0023692562
-0.0028669178
-0.0030365468
-0.002947929
0.0021087525
0.0018781686
0.0014198987
0.00062173984
-0.00018054719
-0.00074908268
-0.0010727466
-0.0011123169
-0.00083216113
-0.00023925403
0.0034672218
0.0041750324
0.0048324173
0.0045424693
0.0037824518
0.0033621081
0.0034192175
0.0039463344
0.0047984959
0.0057747544
0.003660175
0.0036476894
0.005196524
0.0060640084
0.0056014049
0.0053967178
0.0058419904
0.0067759962
0.00712475
0.0050364234
0.0032268544
0.00083684916
0.0010047278
0.0025593782
0.0024350467
0.0024783671
0.0033081096
0.0043067871
0.0015685368
0.00086244599
0.0011828066
8.5819924e-05
-0.00030109012
0.00023264961
0.00023633356
0.00029172818
0.00063160495
0.00094256714
-0.00076061275
0.00047183996
-0.00074763747
0.00047635849
-0.00096937776
-0.00032818783
-0.00021194556
-0.00035865718
-0.00038745363
8.7421982e-05
-0.00041324954
-0.0015044913
-0.00067013263
-0.0010027431
-0.0026234779
-0.0013387996
-0.0012663854
-0.0018153102
-0.00202192
-0.00053685546
-0.00056689406
-0.0027904685
-0.0039202112
-0.0051270307
-0.0042562678
-0.003929253
-0.0042643233
-0.0049990998
-0.0055803463
-0.0047146153
-0.0032683264
-0.0030830907
-0.0045116869
-0.0033755386
-0.0031545944
-0.0033835942
-0.0039306926
-0.0047198323
-0.0055728054
-0.0058200785
-0.0052319116
-0.0044601289
0.00058186284
0.00053615881
0.00010535225
-0.00053368797
-0.0012308858
-0.0019331418
-0.0026274585
-0.003133844
-0.0033093053
-0.0032228211
0.0017826748
0.0015194127
0.0010271402
0.00020338978
-0.00061497257
-0.0011931829
-0.0015202928
-0.0015560608
-0.0012644314
-0.00065452658
0.0030477715
0.0037168902
0.0043262262
0.0040013748
0.0032259799
0.0028006726
0.0028631021
0.0034083543
0.0042922081
0.0053081577
0.0032508583
0.0032121645
0.0047058843
0.0055241844
0.005046778
0.0048423376
0.0053026394
0.0062714437
0.0066696408
0.0046133674
0.0029132541
0.00052538408
0.00065964106
0.0021569086
0.0020195907
0.0020679315
0.0029211248
0.0039677348
0.0012630486
0.00058565345
0.0010996715
8.4297407e-06
-0.00038271139
0.00013192019
0.00013181041
0.0001895763
0.00053841365
0.00086687597
-0.00083243523
0.0004152792
-0.00068182771
0.00050460505
-0.00088164041
-0.00025944765
-0.00015360327
-0.00030809887
-0.00034869503
0.00011078896
-0.00039094959
-0.0014700366
-0.00052309613
-0.00082281516
-0.0023722873
-0.0011340009
-0.0010885287
-0.0016600771
-0.0019023875
-0.00047152225
-0.0005337022
-0.0027414961
-0.0036931863
-0.0048392654
-0.0040043721
-0.0037074173
-0.0040624828
-0.0048160634