/*--------------------------------*- C++ -*----------------------------------*\
| =========                 |                                                 |
| \\      /  F ield         | OpenFOAM: The Open Source CFD Toolbox           |
|  \\    /   O peration     | Version:  v2106                                 |
|   \\  /    A nd           | Website:  www.openfoam.com                      |
|    \\/     M anipulation  |                                                 |
\*---------------------------------------------------------------------------*/
FoamFile
{
    version     2.0;
    format      ascii;
    arch        "LSB;label=32;scalar=64";
    class       volVectorField;
    location    "15";
    object      gradT;
}
// * * * * * * * * * * * * * * * * * * * * * * * * * * * * * * * * * * * * * //

dimensions      [0 -1 0 1 0 0 0];

internalField   nonuniform List<vector> 
4000
(
(0.00085028296 0.00085028296 1022.5097)
(0.0001213269 -2.1479638e-05 1022.5173)
(-0.0014095527 0.00012351819 1022.5093)
(-0.00033862703 0.00014245603 1022.5071)
(-5.9982153e-05 0.00014694189 1022.5064)
(0.0001322516 0.00015154004 1022.5066)
(0.00027018206 0.00016140185 1022.5075)
(0.00030397141 0.00018554031 1022.5088)
(0.00016619585 0.00023028516 1022.51)
(1.5563074e-05 0.00023831572 1022.5101)
(-2.147964e-05 0.00012132691 1022.5173)
(-0.00096882026 -0.00096882025 1022.5173)
(-0.0011636492 -0.00071657051 1022.5105)
(-0.00030349148 -0.00067663213 1022.5085)
(-4.6356145e-05 -0.00066195694 1022.5078)
(0.00015394153 -0.00064634539 1022.5081)
(0.00032118247 -0.00061621823 1022.5091)
(0.00040729638 -0.00054290673 1022.5108)
(0.00024535896 -0.00037851663 1022.5125)
(2.359363e-05 -0.00017489545 1022.5124)
(0.00012351819 -0.0014095527 1022.5093)
(-0.00071657051 -0.0011636492 1022.5105)
(-0.0011173646 -0.0011173646 1022.5039)
(-0.00028401346 -0.0010967872 1022.502)
(-2.9695417e-05 -0.0010811715 1022.5015)
(0.00017799031 -0.0010649581 1022.5018)
(0.00037362072 -0.0010407255 1022.5029)
(0.00054167301 -0.00099202234 1022.5049)
(0.00053420713 -0.0008802508 1022.5075)
(0.00015131053 -0.00067687899 1022.5088)
(0.00014245604 -0.00033862703 1022.5071)
(-0.00067663212 -0.00030349148 1022.5085)
(-0.0010967872 -0.00028401346 1022.502)
(-0.00026729838 -0.00026729838 1022.5002)
(-1.4526975e-05 -0.00025281728 1022.4997)
(0.00019438753 -0.00023902882 1022.5001)
(0.0003941182 -0.00022375392 1022.5013)
(0.00056777107 -0.0002055078 1022.5034)
(0.00056050231 -0.00018501401 1022.5061)
(0.00015917483 -0.00017066233 1022.5075)
(0.00014694189 -5.9982141e-05 1022.5064)
(-0.00066195694 -4.6356141e-05 1022.5078)
(-0.0010811715 -2.9695421e-05 1022.5015)
(-0.00025281728 -1.4526977e-05 1022.4997)
(-1.425856e-06 -1.4258532e-06 1022.4992)
(0.00020705367 1.0148472e-05 1022.4997)
(0.00040714174 2.1145794e-05 1022.5009)
(0.00058041292 3.1849537e-05 1022.5031)
(0.00056905261 4.0974103e-05 1022.5058)
(0.00016087831 4.4970891e-05 1022.5073)
(0.00015154004 0.0001322516 1022.5066)
(-0.0006463454 0.00015394154 1022.5081)
(-0.0010649581 0.00017799031 1022.5018)
(-0.00023902882 0.00019438753 1022.5001)
(1.0148473e-05 0.00020705368 1022.4997)
(0.00021695918 0.00021695918 1022.5001)
(0.00041581926 0.00022484906 1022.5015)
(0.00058759938 0.00023094421 1022.5036)
(0.00057362366 0.00023486261 1022.5064)
(0.00016183936 0.00023626364 1022.5079)
(0.00016140185 0.00027018206 1022.5075)
(-0.00061621824 0.00032118246 1022.5091)
(-0.0010407255 0.00037362072 1022.5029)
(-0.00022375391 0.0003941182 1022.5013)
(2.1145797e-05 0.00040714174 1022.5009)
(0.00022484906 0.00041581926 1022.5015)
(0.00042112677 0.00042112677 1022.5028)
(0.00059042647 0.00042310049 1022.505)
(0.00057437203 0.00042149041 1022.5078)
(0.00016181233 0.00041822256 1022.5092)
(0.00018554031 0.0003039714 1022.5088)
(-0.00054290674 0.00040729638 1022.5108)
(-0.00099202234 0.00054167301 1022.5049)
(-0.0002055078 0.00056777107 1022.5034)
(3.1849535e-05 0.00058041292 1022.5031)
(0.00023094421 0.00058759938 1022.5036)
(0.00042310049 0.00059042647 1022.505)
(0.00058796302 0.00058796302 1022.5071)
(0.00056874573 0.00057803833 1022.5099)
(0.00015966079 0.00056334964 1022.5113)
(0.00023028516 0.00016619584 1022.51)
(-0.00037851663 0.00024535896 1022.5125)
(-0.00088025079 0.00053420714 1022.5075)
(-0.000185014 0.00056050231 1022.5061)
(4.0974099e-05 0.00056905261 1022.5058)
(0.00023486261 0.00057362366 1022.5064)
(0.00042149041 0.00057437203 1022.5078)
(0.00057803833 0.00056874573 1022.5099)
(0.00054975865 0.00054975865 1022.5126)
(0.00015201987 0.00051250726 1022.514)
(0.00023831572 1.5563073e-05 1022.5101)
(-0.00017489544 2.359363e-05 1022.5124)
(-0.00067687899 0.00015131053 1022.5088)
(-0.00017066233 0.00015917483 1022.5075)
(4.4970886e-05 0.00016087831 1022.5073)
(0.00023626363 0.00016183936 1022.5079)
(0.00041822256 0.00016181233 1022.5092)
(0.00056334965 0.00015966079 1022.5113)
(0.00051250726 0.00015201987 1022.514)
(0.00013482653 0.00013482653 1022.515)
(0.0050391127 0.0050391127 2028.2791)
(-0.00095913981 0.0001368764 2028.2858)
(-0.011056242 0.00085520833 2028.2737)
(-0.0033528163 0.00099599766 2028.2698)
(-0.00059021798 0.0010389596 2028.2686)
(0.0012613933 0.0010820032 2028.2691)
(0.0025744989 0.0011747937 2028.271)
(0.0028949665 0.0014094675 2028.2738)
(0.0013963608 0.0018499335 2028.2765)
(2.5777031e-05 0.0016028506 2028.2754)
(0.0001368764 -0.00095913981 2028.2858)
(-0.0072349963 -0.0072349963 2028.2839)
(-0.0097675597 -0.0058487118 2028.2732)
(-0.0030771894 -0.0055142636 2028.2696)
(-0.00046120973 -0.0053727441 2028.2685)
(0.0014651445 -0.0052278089 2028.269)
(0.0030656954 -0.0049475664 2028.2712)
(0.0039076761 -0.0042465381 2028.2747)
(0.0016864355 -0.00264527 2028.2791)
(-0.00022130586 -0.0014241257 2028.2781)
(0.00085520833 -0.011056242 2028.2737)
(-0.0058487118 -0.0097675597 2028.2732)
(-0.0093355088 -0.0093355088 2028.2629)
(-0.0028768486 -0.0091227463 2028.2595)
(-0.00030376327 -0.008973779 2028.2585)
(0.001686571 -0.0088244909 2028.2592)
(0.0035557697 -0.0086021676 2028.2615)
(0.005197263 -0.0081442542 2028.2656)
(0.0042187732 -0.0070418392 2028.2715)
(0.0008398732 -0.0052803538 2028.2728)
(0.00099599766 -0.0033528163 2028.2698)
(-0.0055142636 -0.0030771894 2028.2696)
(-0.0091227463 -0.0028768486 2028.2595)
(-0.0027154596 -0.0027154596 2028.2562)
(-0.0001629544 -0.0025805473 2028.2553)
(0.0018367559 -0.0024537905 2028.2561)
(0.0037459322 -0.0023142271 2028.2586)
(0.0054680045 -0.0021447067 2028.2628)
(0.0045503358 -0.0019251594 2028.2689)
(0.0009530177 -0.0017261692 2028.2705)
(0.0010389596 -0.00059021798 2028.2686)
(-0.0053727441 -0.00046120974 2028.2685)
(-0.008973779 -0.00030376326 2028.2585)
(-0.0025805473 -0.0001629544 2028.2553)
(-4.2094209e-05 -4.2094203e-05 2028.2545)
(0.0019528911 6.4380845e-05 2028.2554)
(0.0038648536 0.00016516005 2028.258)
(0.0055863307 0.00026293726 2028.2623)
(0.0046373106 0.00034937331 2028.2685)
(0.00097253331 0.0003915698 2028.2702)
(0.0010820032 0.0012613933 2028.2691)
(-0.0052278089 0.0014651445 2028.269)
(-0.0088244909 0.001686571 2028.2592)
(-0.0024537905 0.0018367559 2028.2561)
(6.4380839e-05 0.0019528911 2028.2554)
(0.0020440102 0.0020440102 2028.2564)
(0.0039444886 0.0021167713 2028.259)
(0.0056522178 0.0021729623 2028.2634)
(0.0046789683 0.0022092253 2028.2696)
(0.00098114869 0.0022220105 2028.2713)
(0.0011747937 0.0025744989 2028.271)
(-0.0049475664 0.0030656954 2028.2712)
(-0.0086021676 0.0035557697 2028.2615)
(-0.0023142271 0.0037459322 2028.2586)
(0.00016516005 0.0038648536 2028.258)
(0.0021167713 0.0039444886 2028.259)
(0.0039938057 0.0039938057 2028.2616)
(0.0056787847 0.004012617 2028.266)
(0.0046863589 0.0039978014 2028.2723)
(0.00098105678 0.0039670294 2028.274)
(0.0014094675 0.0028949665 2028.2738)
(-0.0042465381 0.0039076761 2028.2747)
(-0.0081442542 0.005197263 2028.2656)
(-0.0021447067 0.0054680045 2028.2628)
(0.00026293726 0.0055863307 2028.2623)
(0.0021729623 0.0056522178 2028.2634)
(0.0040126171 0.0056787847 2028.266)
(0.0056562135 0.0056562135 2028.2704)
(0.0046333806 0.0055596191 2028.2767)
(0.00096063403 0.0054061411 2028.2783)
(0.0018499335 0.0013963608 2028.2765)
(-0.00264527 0.0016864355 2028.2791)
(-0.0070418392 0.0042187732 2028.2715)
(-0.0019251594 0.0045503358 2028.2689)
(0.00034937331 0.0046373106 2028.2685)
(0.0022092253 0.0046789683 2028.2696)
(0.0039978014 0.0046863589 2028.2723)
(0.0055596191 0.0046333806 2028.2767)
(0.0044362865 0.0044362865 2028.2828)
(0.00087873812 0.003970158 2028.2841)
(0.0016028506 2.5777028e-05 2028.2754)
(-0.0014241257 -0.00022130586 2028.2781)
(-0.0052803538 0.0008398732 2028.2728)
(-0.0017261692 0.0009530177 2028.2705)
(0.0003915698 0.00097253331 2028.2702)
(0.0022220105 0.00098114869 2028.2713)
(0.0039670294 0.00098105679 2028.274)
(0.0054061411 0.00096063403 2028.2783)
(0.003970158 0.00087873812 2028.2841)
(0.00064988169 0.00064988169 2028.2837)
(0.0052977469 0.0052977469 1885.4961)
(-0.0053061462 -0.0012491162 1885.4959)
(-0.017416411 -0.00021278275 1885.4874)
(-0.0054553955 4.1912679e-06 1885.4847)
(-0.0007719464 7.3714879e-05 1885.4841)
(0.002522099 0.00014222127 1885.4848)
(0.0050379093 0.00030201161 1885.4868)
(0.0058401293 0.00078327262 1885.49)
(0.0017061847 0.0019767785 1885.4938)
(-0.00073221967 0.0020470684 1885.4926)
(-0.0012491162 -0.0053061462 1885.4959)
(-0.013571941 -0.013571941 1885.4916)
(-0.01553645 -0.011521994 1885.4841)
(-0.005025649 -0.010986815 1885.4817)
(-0.0005649014 -0.010753901 1885.4811)
(0.0028645441 -0.010525043 1885.4819)
(0.0059994863 -0.01007186 1885.484)
(0.0083522797 -0.0088032018 1885.4878)
(0.0036018784 -0.0054164921 1885.4937)
(-0.00066192978 -0.002755268 1885.4935)
(-0.00021278274 -0.017416411 1885.4874)
(-0.011521994 -0.01553645 1885.4841)
(-0.014831285 -0.014831285 1885.477)
(-0.0046873018 -0.014468109 1885.4747)
(-0.0003101741 -0.014219288 1885.4742)
(0.0032041399 -0.013982501 1885.475)
(0.0067597501 -0.013644021 1885.4773)
(0.010495497 -0.012932148 1885.4814)
(0.0077541186 -0.011061276 1885.4885)
(0.0010419297 -0.008208548 1885.49)
(4.1912721e-06 -0.0054553955 1885.4847)
(-0.010986815 -0.005025649 1885.4817)
(-0.014468109 -0.0046873018 1885.4747)
(-0.0044136518 -0.0044136518 1885.4725)
(-7.9293895e-05 -0.004189225 1885.4721)
(0.0034398111 -0.003984575 1885.473)
(0.007049839 -0.0037669696 1885.4753)
(0.010935024 -0.0035073383 1885.4795)
(0.0083254788 -0.0031395299 1885.4867)
(0.0012398891 -0.0027937281 1885.4884)
(7.3714881e-05 -0.00077194639 1885.4841)
(-0.010753901 -0.0005649014 1885.4811)
(-0.014219288 -0.0003101741 1885.4742)
(-0.004189225 -7.9293889e-05 1885.4721)
(0.0001189027 0.00011890271 1885.4717)
(0.0036263953 0.00029219869 1885.4727)
(0.0072369868 0.00045423114 1885.475)
(0.011122937 0.0006095486 1885.4793)
(0.0084677288 0.00075082212 1885.4866)
(0.0012724643 0.0008217241 1885.4883)
(0.00014222127 0.002522099 1885.4848)
(-0.010525043 0.0028645441 1885.4819)
(-0.013982501 0.0032041399 1885.475)
(-0.003984575 0.0034398111 1885.473)
(0.00029219868 0.0036263953 1885.4727)
(0.0037751396 0.0037751396 1885.4737)
(0.0073671889 0.0038958739 1885.4761)
(0.011231615 0.0039910701 1885.4804)
(0.0085376543 0.0040553758 1885.4877)
(0.0012871571 0.004081913 1885.4894)
(0.00030201161 0.0050379093 1885.4868)
(-0.01007186 0.0059994863 1885.484)
(-0.013644021 0.0067597501 1885.4773)
(-0.0037669696 0.007049839 1885.4753)
(0.00045423114 0.0072369868 1885.475)
(0.0038958739 0.0073671889 1885.4761)
(0.0074529173 0.0074529173 1885.4785)
(0.011282439 0.0074918361 1885.4828)
(0.0085585718 0.007473425 1885.4902)
(0.0012901558 0.0074244456 1885.4919)
(0.00078327262 0.0058401293 1885.49)
(-0.0088032018 0.0083522797 1885.4878)
(-0.012932148 0.010495497 1885.4814)
(-0.0035073383 0.010935024 1885.4795)
(0.00060954861 0.011122937 1885.4793)
(0.0039910701 0.011231615 1885.4804)
(0.0074918361 0.011282439 1885.4828)
(0.011252123 0.011252123 1885.4872)
(0.0084702638 0.011063262 1885.4945)
(0.0012545042 0.010666756 1885.4963)
(0.0019767785 0.0017061847 1885.4938)
(-0.0054164921 0.0036018784 1885.4937)
(-0.011061276 0.0077541186 1885.4885)
(-0.00313953 0.0083254788 1885.4867)
(0.00075082213 0.0084677288 1885.4866)
(0.0040553758 0.0085376543 1885.4877)
(0.007473425 0.0085585718 1885.4902)
(0.011063262 0.0084702638 1885.4945)
(0.0079732046 0.0079732046 1885.5018)
(0.0010258184 0.0059150759 1885.5031)
(0.0020470684 -0.00073221967 1885.4926)
(-0.002755268 -0.00066192978 1885.4935)
(-0.008208548 0.0010419297 1885.49)
(-0.0027937281 0.0012398891 1885.4884)
(0.00082172411 0.0012724643 1885.4883)
(0.004081913 0.0012871571 1885.4894)
(0.0074244456 0.0012901558 1885.4919)
(0.010666756 0.0012545041 1885.4963)
(0.0059150759 0.0010258184 1885.5031)
(-0.00011758165 -0.00011758165 1885.5009)
(0.0048907973 0.0048907973 1758.6148)
(-0.0096521809 -0.0027062456 1758.6133)
(-0.022193874 -0.0013339678 1758.6065)
(-0.0066712761 -0.0010480397 1758.605)
(-0.00051808077 -0.00096128231 1758.6049)
(0.0039874572 -0.00088431757 1758.6058)
(0.0078035784 -0.00069623541 1758.6079)
(0.0098464357 -4.812829e-05 1758.6113)
(0.0040124673 0.0018132381 1758.616)
(-0.00071343298 0.0021508415 1758.6167)
(-0.0027062456 -0.009652181 1758.6133)
(-0.018989329 -0.018989329 1758.609)
(-0.019706566 -0.016257802 1758.6033)
(-0.0061122478 -0.015547085 1758.6019)
(-0.00027249756 -0.015254044 1758.6019)
(0.0043850276 -0.014993265 1758.6029)
(0.0090578623 -0.014473326 1758.605)
(0.013610646 -0.012843489 1758.6088)
(0.0073109219 -0.0079239829 1758.6154)
(-0.00037582962 -0.0040962311 1758.6169)
(-0.0013339678 -0.022193874 1758.6065)
(-0.016257802 -0.019706566 1758.6033)
(-0.01875163 -0.01875163 1758.598)
(-0.0056675182 -0.018267941 1758.5967)
(3.57392e-05 -0.017953998 1758.5968)
(0.0047681747 -0.017678749 1758.5977)
(0.0099533539 -0.017305064 1758.5998)
(0.016395779 -0.016473285 1758.6038)
(0.012759725 -0.014010548 1758.6113)
(0.0018384016 -0.010314633 1758.6142)
(-0.0010480397 -0.0066712761 1758.605)
(-0.015547085 -0.0061122478 1758.6019)
(-0.018267941 -0.0056675182 1758.5967)
(-0.0053146151 -0.0053146151 1758.5956)
(0.00031669443 -0.005035319 1758.5956)
(0.0050339615 -0.0047934852 1758.5966)
(0.010263327 -0.0045517205 1758.5987)
(0.016905162 -0.0042738063 1758.6026)
(0.013469574 -0.0038327674 1758.6102)
(0.0020881135 -0.003405737 1758.6132)
(-0.00096128231 -0.00051808076 1758.6049)
(-0.015254044 -0.00027249755 1758.6019)
(-0.017953998 3.5739199e-05 1758.5968)
(-0.005035319 0.00031669442 1758.5956)
(0.00055686906 0.00055686906 1758.5957)
(0.0052517732 0.00076393587 1758.5967)
(0.010473033 0.00095350751 1758.5988)
(0.017114732 0.0011311502 1758.6028)
(0.013627795 0.0012968478 1758.6103)
(0.0021230885 0.0013777848 1758.6133)
(-0.00088431758 0.0039874572 1758.6058)
(-0.014993265 0.0043850276 1758.6029)
(-0.017678749 0.0047681747 1758.5977)
(-0.0047934852 0.0050339615 1758.5966)
(0.00076393587 0.0052517732 1758.5967)
(0.0054305999 0.0054305999 1758.5978)
(0.010630541 0.0055808071 1758.5999)
(0.017248502 0.0057054116 1758.6038)
(0.013716208 0.0057988818 1758.6114)
(0.0021420715 0.0058491044 1758.6144)
(-0.00069623541 0.0078035784 1758.6079)
(-0.014473326 0.0090578623 1758.605)
(-0.017305064 0.0099533539 1758.5998)
(-0.0045517205 0.010263327 1758.5987)
(0.00095350751 0.010473033 1758.5988)
(0.0055808071 0.010630541 1758.5999)
(0.010747844 0.010747844 1758.602)
(0.017332807 0.010822365 1758.606)
(0.013771487 0.010839636 1758.6136)
(0.0021565702 0.010828698 1758.6167)
(-4.812829e-05 0.0098464357 1758.6113)
(-0.012843489 0.013610646 1758.6088)
(-0.016473285 0.016395779 1758.6038)
(-0.0042738063 0.016905162 1758.6026)
(0.0011311502 0.017114732 1758.6028)
(0.0057054116 0.017248502 1758.6038)
(0.010822365 0.017332807 1758.606)
(0.017340293 0.017340293 1758.61)
(0.013722541 0.017151135 1758.6177)
(0.0021347801 0.016603219 1758.6209)
(0.0018132381 0.0040124673 1758.616)
(-0.0079239829 0.0073109219 1758.6154)
(-0.014010548 0.012759725 1758.6113)
(-0.0038327674 0.013469574 1758.6102)
(0.0012968479 0.013627795 1758.6103)
(0.0057988818 0.013716208 1758.6114)
(0.010839636 0.013771487 1758.6136)
(0.017151135 0.013722541 1758.6177)
(0.013034413 0.013034413 1758.6255)
(0.0017912931 0.0085743399 1758.6285)
(0.0021508415 -0.00071343298 1758.6167)
(-0.0040962311 -0.00037582962 1758.6169)
(-0.010314633 0.0018384016 1758.6142)
(-0.003405737 0.0020881135 1758.6132)
(0.0013777848 0.0021230885 1758.6133)
(0.0058491044 0.0021420715 1758.6144)
(0.010828698 0.0021565702 1758.6167)
(0.016603219 0.0021347801 1758.6209)
(0.0085743399 0.0017912931 1758.6285)
(-0.00083860213 -0.00083860213 1758.6269)
(0.0042954592 0.0042954592 1644.046)
(-0.013532493 -0.0040741933 1644.0442)
(-0.025728393 -0.0023524556 1644.0389)
(-0.0071206405 -0.0020002842 1644.0383)
(0.00010313857 -0.0019035714 1644.0387)
(0.0055239781 -0.0018320066 1644.0398)
(0.010498445 -0.0016451415 1644.0417)
(0.01396675 -0.00089098108 1644.0448)
(0.0071415444 0.001546156 1644.0496)
(-0.00025311401 0.0021498326 1644.0512)
(-0.0040741933 -0.013532493 1644.0442)
(-0.023504365 -0.023504365 1644.0404)
(-0.02261753 -0.020071203 1644.0361)
(-0.0064473144 -0.019198856 1644.0357)
(0.00035555489 -0.018872094 1644.0361)
(0.0059116231 -0.018624697 1644.0371)
(0.011909984 -0.018125369 1644.039)
(0.018753697 -0.016302302 1644.0424)
(0.011702765 -0.010110061 1644.0487)
(0.00035056251 -0.0052619371 1644.0512)
(-0.0023524556 -0.025728393 1644.0389)
(-0.020071203 -0.02261753 1644.0361)
(-0.021422884 -0.021422884 1644.0323)
(-0.0059215316 -0.020842251 1644.0319)
(0.00067729766 -0.020495604 1644.0323)
(0.0062707034 -0.02022863 1644.0334)
(0.01282084 -0.019894699 1644.0352)
(0.021982059 -0.019065392 1644.0386)
(0.018181909 -0.016187563 1644.0456)
(0.0029789683 -0.011842189 1644.0491)
(-0.0020002842 -0.0071206405 1644.0383)
(-0.019198856 -0.0064473144 1644.0357)
(-0.020842251 -0.0059215316 1644.0319)
(-0.0055200346 -0.0055200346 1644.0316)
(0.00096917647 -0.0052201358 1644.0321)
(0.0065125281 -0.0049818513 1644.033)
(0.013073222 -0.0047691014 1644.0348)
(0.022460833 -0.0045434235 1644.0381)
(0.018925968 -0.0041090286 1644.045)
(0.0032474785 -0.0036684638 1644.0486)
(-0.0019035715 0.00010313857 1644.0387)
(-0.018872094 0.00035555489 1644.0361)
(-0.020495604 0.00067729765 1644.0323)
(-0.0052201358 0.00096917647 1644.0321)
(0.0012154809 0.0012154809 1644.0325)
(0.0067217377 0.0014224615 1644.0335)
(0.013259268 0.0016052734 1644.0352)
(0.022642131 0.0017695656 1644.0384)
(0.019056868 0.0019271677 1644.0453)
(0.0032726782 0.0019964765 1644.0489)
(-0.0018320066 0.0055239781 1644.0398)
(-0.018624697 0.0059116231 1644.0371)
(-0.02022863 0.0062707034 1644.0334)
(-0.0049818513 0.0065125281 1644.033)
(0.0014224615 0.0067217377 1644.0335)
(0.0069023206 0.0069023206 1644.0345)
(0.013420326 0.0070632415 1644.0361)
(0.022782727 0.0072080964 1644.0394)
(0.019152878 0.0073324927 1644.0463)
(0.0032936844 0.0074162266 1644.0498)
(-0.0016451415 0.010498445 1644.0417)
(-0.018125369 0.011909984 1644.039)
(-0.019894699 0.01282084 1644.0352)
(-0.0047691014 0.013073222 1644.0348)
(0.0016052734 0.013259268 1644.0352)
(0.0070632415 0.013420326 1644.0361)
(0.013565044 0.013565044 1644.0379)
(0.022911383 0.013693414 1644.0411)
(0.019264999 0.013792102 1644.0481)
(0.0033285008 0.013886109 1644.0517)
(-0.00089098108 0.01396675 1644.0448)
(-0.016302302 0.018753697 1644.0424)
(-0.019065392 0.021982059 1644.0386)
(-0.0045434235 0.022460833 1644.0381)
(0.0017695656 0.022642131 1644.0384)
(0.0072080964 0.022782727 1644.0394)
(0.013693414 0.022911383 1644.0411)
(0.023009785 0.023009785 1644.0445)
(0.019345573 0.022944121 1644.0516)
(0.0033563556 0.022448207 1644.0554)
(0.001546156 0.0071415444 1644.0496)
(-0.010110061 0.011702765 1644.0487)
(-0.016187563 0.018181909 1644.0456)
(-0.0041090286 0.018925968 1644.045)
(0.0019271677 0.019056868 1644.0453)
(0.0073324927 0.019152878 1644.0463)
(0.013792102 0.019264999 1644.0481)
(0.022944121 0.019345573 1644.0516)
(0.018703421 0.018703421 1644.0589)
(0.0029978916 0.011972326 1644.0628)
(0.0021498326 -0.00025311401 1644.0512)
(-0.0052619372 0.00035056251 1644.0512)
(-0.011842189 0.0029789683 1644.0491)
(-0.0036684638 0.0032474785 1644.0486)
(0.0019964765 0.0032726782 1644.0489)
(0.0074162266 0.0032936844 1644.0498)
(0.013886109 0.0033285008 1644.0517)
(0.022448207 0.0033563556 1644.0554)
(0.011972326 0.0029978916 1644.0628)
(-0.001131041 -0.001131041 1644.0624)
(0.0036772341 0.0036772341 1539.3289)
(-0.016738784 -0.0052627955 1539.3272)
(-0.02812702 -0.0031983343 1539.3233)
(-0.0069231296 -0.0027854467 1539.3234)
(0.00098543831 -0.002685587 1539.3242)
(0.0069956967 -0.0026311035 1539.3253)
(0.012882111 -0.002469722 1539.327)
(0.017716242 -0.0016615718 1539.3296)
(0.010366097 0.001257122 1539.3338)
(0.00038163558 0.0021301273 1539.3358)
(-0.0052627955 -0.016738784 1539.3272)
(-0.027052137 -0.027052137 1539.324)
(-0.024410997 -0.022936561 1539.3211)
(-0.0061540087 -0.021922051 1539.3214)
(0.0012169532 -0.0215863 1539.3222)
(0.0073194941 -0.021391509 1539.3232)
(0.014336409 -0.020986396 1539.3248)
(0.023306508 -0.019115717 1539.3275)
(0.016053646 -0.011910122 1539.333)
(0.0012546409 -0.0061617062 1539.3357)
(-0.0031983343 -0.02812702 1539.3233)
(-0.022936561 -0.024410997 1539.3211)
(-0.022996934 -0.022996934 1539.3185)
(-0.0055728686 -0.022344072 1539.3189)
(0.0015159805 -0.021995214 1539.3197)
(0.0075956009 -0.021778548 1539.3207)
(0.015157903 -0.021549941 1539.3221)
(0.026792516 -0.020830899 1539.3247)
(0.023320108 -0.017706904 1539.3307)
(0.0042139126 -0.012880508 1539.3343)
(-0.0027854467 -0.0069231296 1539.3234)
(-0.021922051 -0.0061540087 1539.3214)
(-0.022344072 -0.0055728686 1539.3189)
(-0.0051522887 -0.0051522887 1539.3193)
(0.0017824776 -0.004864167 1539.3201)
(0.0077647673 -0.0046671451 1539.321)
(0.015284058 -0.004531461 1539.3223)
(0.027149545 -0.0044210412 1539.3247)
(0.024004037 -0.004067544 1539.3306)
(0.0044722385 -0.0036738438 1539.3341)
(-0.002685587 0.00098543831 1539.3242)
(-0.0215863 0.0012169532 1539.3222)
(-0.021995214 0.0015159805 1539.3197)
(-0.004864167 0.0017824776 1539.3201)
(0.0020011241 0.0020011241 1539.3208)
(0.0079283069 0.0021760495 1539.3217)
(0.015404007 0.002320063 1539.3229)
(0.027256433 0.0024379856 1539.3252)
(0.024067305 0.0025566648 1539.331)
(0.0044763794 0.0025936243 1539.3344)
(-0.0026311035 0.0069956967 1539.3253)
(-0.021391509 0.0073194941 1539.3232)
(-0.021778548 0.0075956009 1539.3207)
(-0.0046671451 0.0077647673 1539.321)
(0.0021760494 0.0079283069 1539.3217)
(0.0080837062 0.0080837062 1539.3225)
(0.015545994 0.0082372247 1539.3237)
(0.027386147 0.0083930136 1539.326)
(0.024159676 0.0085483965 1539.3318)
(0.0044968782 0.0086720026 1539.3352)
(-0.002469722 0.012882111 1539.327)
(-0.020986396 0.014336409 1539.3248)
(-0.021549941 0.015157903 1539.3221)
(-0.004531461 0.015284058 1539.3223)
(0.002320063 0.015404007 1539.3229)
(0.0082372247 0.015545994 1539.3237)
(0.015713315 0.015713315 1539.3249)
(0.027567604 0.015910758 1539.3272)
(0.024346294 0.016129216 1539.333)
(0.0045587835 0.016380826 1539.3366)
(-0.0016615718 0.017716242 1539.3296)
(-0.019115717 0.023306508 1539.3275)
(-0.020830899 0.026792516 1539.3247)
(-0.0044210412 0.027149545 1539.3247)
(0.0024379856 0.027256433 1539.3252)
(0.0083930136 0.027386147 1539.326)
(0.015910758 0.027567604 1539.3272)
(0.027802049 0.027802049 1539.3297)
(0.024629744 0.027964393 1539.3357)
(0.0046646179 0.027692772 1539.3395)
(0.001257122 0.010366097 1539.3338)
(-0.011910122 0.016053646 1539.333)
(-0.017706904 0.023320108 1539.3307)
(-0.004067544 0.024004037 1539.3306)
(0.0025566648 0.024067305 1539.331)
(0.0085483965 0.024159676 1539.3318)
(0.016129216 0.024346294 1539.333)
(0.027964393 0.024629744 1539.3357)
(0.024237018 0.024237018 1539.342)
(0.004377703 0.015608604 1539.3461)
(0.0021301273 0.00038163558 1539.3358)
(-0.0061617062 0.0012546409 1539.3357)
(-0.012880508 0.0042139126 1539.3343)
(-0.0036738438 0.0044722385 1539.3341)
(0.0025936243 0.0044763794 1539.3344)
(0.0086720026 0.0044968782 1539.3352)
(0.016380826 0.0045587835 1539.3366)
(0.027692772 0.0046646179 1539.3395)
(0.015608604 0.004377703 1539.3461)
(-0.0010876583 -0.0010876583 1539.3465)
(0.0031353914 0.0031353914 1442.7193)
(-0.019155697 -0.0062109575 1442.7179)
(-0.029487669 -0.0038239285 1442.7153)
(-0.0061999617 -0.0033583787 1442.7161)
(0.0020186724 -0.0032618702 1442.7171)
(0.008285037 -0.0032342127 1442.7182)
(0.014791791 -0.0031182959 1442.7194)
(0.020823496 -0.0023016612 1442.7214)
(0.013271138 0.0010044072 1442.7249)
(0.0010294296 0.0021321773 1442.7267)
(-0.0062109575 -0.019155697 1442.7179)
(-0.029594677 -0.029594677 1442.7154)
(-0.025208801 -0.024843824 1442.7138)
(-0.0053568743 -0.023712232 1442.7147)
(0.0022049214 -0.023390802 1442.7157)
(0.0085003985 -0.023281668 1442.7167)
(0.016190618 -0.023031303 1442.7178)
(0.027007551 -0.021237955 1442.7198)
(0.019921895 -0.013268252 1442.7242)
(0.0021571997 -0.0067561906 1442.7268)
(-0.0038239285 -0.029487669 1442.7153)
(-0.024843824 -0.025208801 1442.7138)
(-0.023605225 -0.023605225 1442.7124)
(-0.0047469399 -0.02290667 1442.7134)
(0.0024492373 -0.022583822 1442.7144)
(0.0086445362 -0.022453543 1442.7152)
(0.016835503 -0.022384518 1442.7161)
(0.030586547 -0.021865549 1442.7179)
(0.027752902 -0.018646658 1442.7226)
(0.005370804 -0.013490499 1442.7258)
(-0.0033583787 -0.0061999617 1442.7161)
(-0.023712232 -0.0053568743 1442.7147)
(-0.02290667 -0.0047469399 1442.7134)
(-0.0043354713 -0.0043354713 1442.7144)
(0.0026580486 -0.004088603 1442.7153)
(0.0086997028 -0.0039658854 1442.7161)
(0.016778612 -0.0039479981 1442.7168)
(0.030745411 -0.0040053021 1442.7183)
(0.028296945 -0.0037960117 1442.7228)
(0.0055946388 -0.0034998526 1442.7259)
(-0.0032618702 0.0020186724 1442.7171)
(-0.023390802 0.0022049214 1442.7157)
(-0.022583822 0.0024492373 1442.7144)
(-0.004088603 0.0026580486 1442.7153)
(0.0028188232 0.0028188232 1442.7162)
(0.008785141 0.0029332173 1442.7169)
(0.016796086 0.0030102546 1442.7176)
(0.030738533 0.0030531292 1442.7189)
(0.028258352 0.0031058699 1442.7233)
(0.0055682434 0.0030924735 1442.7263)
(-0.0032342127 0.0082850371 1442.7182)
(-0.023281668 0.0085003985 1442.7167)
(-0.022453543 0.0086445362 1442.7152)
(-0.0039658854 0.0086997028 1442.7161)
(0.0029332173 0.008785141 1442.7169)
(0.0088911343 0.0088911343 1442.7175)
(0.016898524 0.0090203856 1442.7181)
(0.030841026 0.0091775137 1442.7194)
(0.028336289 0.0093617699 1442.7238)
(0.0055857078 0.0095282655 1442.7267)
(-0.0031182959 0.014791791 1442.7194)
(-0.023031303 0.016190618 1442.7178)
(-0.022384518 0.016835503 1442.7161)
(-0.0039479982 0.016778612 1442.7168)
(0.0030102546 0.016796086 1442.7176)
(0.0090203856 0.016898524 1442.7181)
(0.017082466 0.017082466 1442.7187)
(0.031079917 0.017359023 1442.72)
(0.028609104 0.017725103 1442.7245)
(0.0056792405 0.018171934 1442.7275)
(-0.0023016612 0.020823496 1442.7214)
(-0.021237955 0.027007551 1442.7198)
(-0.021865549 0.030586547 1442.7179)
(-0.0040053021 0.030745411 1442.7183)
(0.0030531292 0.030738533 1442.7189)
(0.0091775137 0.030841026 1442.7194)
(0.017359023 0.031079917 1442.72)
(0.031483663 0.031483663 1442.7215)
(0.0291492 0.031952974 1442.7262)
(0.0058835947 0.032037523 1442.7296)
(0.0010044072 0.013271138 1442.7249)
(-0.013268252 0.019921895 1442.7242)
(-0.018646658 0.027752902 1442.7226)
(-0.0037960117 0.028296945 1442.7228)
(0.0031058699 0.028258352 1442.7233)
(0.0093617699 0.028336289 1442.7238)
(0.017725103 0.028609104 1442.7245)
(0.031952974 0.0291492 1442.7262)
(0.029162963 0.029162963 1442.7313)
(0.0057356065 0.019033431 1442.7352)
(0.0021321773 0.0010294296 1442.7267)
(-0.0067561906 0.0021571997 1442.7268)
(-0.013490499 0.005370804 1442.7258)
(-0.0034998526 0.0055946388 1442.7259)
(0.0030924735 0.0055682434 1442.7263)
(0.0095282655 0.0055857078 1442.7267)
(0.018171934 0.0056792405 1442.7275)
(0.032037523 0.0058835947 1442.7296)
(0.019033431 0.0057356065 1442.7352)
(-0.0008694266 -0.0008694266 1442.7359)
(0.0027223873 0.0027223873 1352.9452)
(-0.020758388 -0.0068939504 1352.9442)
(-0.029931293 -0.0042128633 1352.9427)
(-0.0050730561 -0.0037040641 1352.944)
(0.0031037651 -0.003616825 1352.9453)
(0.0093056123 -0.0036237435 1352.9462)
(0.016131635 -0.0035690122 1352.947)
(0.023144574 -0.0027823275 1352.9483)
(0.015621403 0.00082161485 1352.9508)
(0.0015935662 0.0021749016 1352.9523)
(-0.0068939504 -0.020758388 1352.9442)
(-0.031161264 -0.031161264 1352.9425)
(-0.025146463 -0.025839353 1352.9419)
(-0.0041789985 -0.02461856 1352.9433)
(0.003224246 -0.024332509 1352.9445)
(0.0093773315 -0.024335549 1352.9453)
(0.017393759 -0.024287207 1352.9459)
(0.029730514 -0.022674016 1352.9471)
(0.023057247 -0.014168968 1352.9504)
(0.0029468529 -0.0070422511 1352.9525)
(-0.0042128633 -0.029931293 1352.9427)
(-0.025839353 -0.025146463 1352.9419)
(-0.023388589 -0.023388589 1352.9416)
(-0.0035662122 -0.022671064 1352.943)
(0.0033867759 -0.02239931 1352.9442)
(0.009350914 -0.022384846 1352.9448)
(0.017793168 -0.022517678 1352.9452)
(0.033262813 -0.022269349 1352.946)
(0.031253168 -0.019084463 1352.9494)
(0.0063447106 -0.013732905 1352.952)
(-0.0037040641 -0.0050730561 1352.944)
(-0.02461856 -0.0041789985 1352.9433)
(-0.022671064 -0.0035662122 1352.943)
(-0.0031897193 -0.0031897193 1352.9445)
(0.0035104638 -0.0030097728 1352.9455)
(0.0092589638 -0.0029888185 1352.9461)
(0.017509256 -0.0031212106 1352.9462)
(0.033163729 -0.0033870359 1352.9468)
(0.031593691 -0.0033722677 1352.9499)
(0.0065145584 -0.0032139817 1352.9523)
(-0.003616825 0.0031037651 1352.9453)
(-0.024332509 0.003224246 1352.9445)
(-0.02239931 0.0033867759 1352.9442)
(-0.0030097728 0.0035104638 1352.9455)
(0.0035876767 0.0035876767 1352.9465)
(0.0092394762 0.0036174793 1352.947)
(0.017394951 0.0036040568 1352.947)
(0.033011756 0.0035483397 1352.9474)
(0.031426223 0.0035129079 1352.9504)
(0.0064502346 0.0034345138 1352.9526)
(-0.0036237435 0.0093056123 1352.9462)
(-0.024335549 0.0093773315 1352.9453)
(-0.022384846 0.009350914 1352.9448)
(-0.0029888185 0.0092589638 1352.9461)
(0.0036174793 0.0092394762 1352.947)
(0.0092753439 0.0092753439 1352.9473)
(0.017440116 0.0093651813 1352.9473)
(0.03307258 0.0095139552 1352.9476)
(0.031479865 0.0097229451 1352.9506)
(0.0064622957 0.0099324272 1352.9528)