/*--------------------------------*- C++ -*----------------------------------*\
| =========                 |                                                 |
| \\      /  F ield         | OpenFOAM: The Open Source CFD Toolbox           |
|  \\    /   O peration     | Version:  v2106                                 |
|   \\  /    A nd           | Website:  www.openfoam.com                      |
|    \\/     M anipulation  |                                                 |
\*---------------------------------------------------------------------------*/
FoamFile
{
    version     2.0;
    format      ascii;
    arch        "LSB;label=32;scalar=64";
    class       volVectorField;
    location    "15";
    object      gradT;
}
// * * * * * * * * * * * * * * * * * * * * * * * * * * * * * * * * * * * * * //

dimensions      [0 -1 0 1 0 0 0];

internalField   nonuniform List<vector> 
4000
(
(2.6737173e-05 2.6737172e-05 857.30896)
(0.00028466173 0.00024066162 857.30914)
(-0.00018362436 -3.7477804e-05 857.30997)
(-0.00048303468 2.0300259e-05 857.30806)
(-1.1799014e-05 4.1486362e-05 857.30778)
(0.00010827041 4.6633377e-05 857.30799)
(0.00013601292 5.028949e-05 857.30832)
(0.00013207682 5.5617007e-05 857.3087)
(9.6400673e-05 5.3852099e-05 857.30902)
(2.3414454e-05 3.0820178e-05 857.30923)
(0.00024066162 0.00028466173 857.30914)
(0.00018833927 0.00018833927 857.3103)
(-0.00051416641 -0.00015584538 857.30957)
(-0.00036458843 -3.1394953e-05 857.30801)
(2.7700664e-05 1.0984041e-05 857.30786)
(0.0001214751 2.2444311e-05 857.3081)
(0.00014948836 3.6345856e-05 857.30847)
(0.00013742074 6.6707336e-05 857.30889)
(5.920543e-05 9.2561983e-05 857.30919)
(3.8253347e-07 4.7044212e-05 857.30922)
(-3.7477801e-05 -0.00018362437 857.30997)
(-0.00015584538 -0.00051416641 857.30957)
(-0.00040335859 -0.00040335859 857.30908)
(-0.00031620526 -0.00035250171 857.30768)
(4.204025e-05 -0.0003391404 857.30759)
(0.00013363223 -0.0003361273 857.30785)
(0.00018027594 -0.0003264625 857.30826)
(0.00018829295 -0.00028999314 857.3088)
(7.6737549e-05 -0.00021922702 857.30923)
(-6.9307264e-06 -0.00016769859 857.3092)
(2.030026e-05 -0.00048303468 857.30806)
(-3.1394952e-05 -0.00036458844 857.30801)
(-0.0003525017 -0.00031620526 857.30768)
(-0.00030037024 -0.00030037025 857.30635)
(4.4075068e-05 -0.00029863859 857.30626)
(0.000134153 -0.00030258673 857.30652)
(0.00019562252 -0.00030647713 857.30695)
(0.00024465623 -0.00029849271 857.30756)
(0.00018149998 -0.0002605408 857.3082)
(3.4734815e-05 -0.00019967794 857.30846)
(4.1486362e-05 -1.1799013e-05 857.30778)
(1.0984038e-05 2.7700671e-05 857.30786)
(-0.0003391404 4.2040251e-05 857.30759)
(-0.00029863859 4.4075069e-05 857.30626)
(3.9823765e-05 3.9823762e-05 857.30618)
(0.00012579369 3.3020703e-05 857.30642)
(0.00018436996 2.376124e-05 857.30682)
(0.00023422928 1.2702442e-05 857.3074)
(0.00017555233 2.7947919e-06 857.30803)
(3.3644517e-05 -4.4513131e-06 857.30829)
(4.6633382e-05 0.00010827041 857.30799)
(2.2444312e-05 0.0001214751 857.3081)
(-0.00033612731 0.00013363223 857.30785)
(-0.00030258673 0.000134153 857.30652)
(3.3020702e-05 0.00012579369 857.30642)
(0.00011809048 0.00011809048 857.30664)
(0.00017530426 0.00011097426 857.30702)
(0.00022368978 0.00010367245 857.30758)
(0.00016434623 9.6112358e-05 857.30818)
(2.9904079e-05 8.9094444e-05 857.30842)
(5.0289489e-05 0.00013601292 857.30832)
(3.6345853e-05 0.00014948835 857.30847)
(-0.0003264625 0.00018027595 857.30826)
(-0.00030647713 0.00019562251 857.30695)
(2.3761243e-05 0.00018436996 857.30682)
(0.00011097426 0.00017530425 857.30702)
(0.00016995194 0.00016995194 857.30738)
(0.00021936738 0.00016676804 857.30793)
(0.00016097432 0.00016458313 857.30852)
(2.8965907e-05 0.00016337904 857.30875)
(5.5617003e-05 0.00013207683 857.3087)
(6.6707341e-05 0.00013742074 857.30889)
(-0.00028999314 0.00018829295 857.3088)
(-0.00029849272 0.00024465622 857.30756)
(1.2702441e-05 0.00023422927 857.3074)
(0.00010367245 0.00022368978 857.30758)
(0.00016676804 0.00021936738 857.30793)
(0.00021832097 0.00021832097 857.30847)
(0.00016095722 0.00021717356 857.30907)
(2.9101348e-05 0.00021471789 857.30929)
(5.3852098e-05 9.6400673e-05 857.30902)
(9.2561982e-05 5.9205435e-05 857.30919)
(-0.00021922702 7.673754e-05 857.30923)
(-0.00026054081 0.00018149998 857.3082)
(2.7947936e-06 0.00017555232 857.30803)
(9.6112364e-05 0.00016434622 857.30818)
(0.00016458313 0.00016097432 857.30852)
(0.00021717356 0.00016095722 857.30907)
(0.00015737123 0.00015737124 857.30965)
(2.7328795e-05 0.00014602938 857.30986)
(3.0820178e-05 2.3414455e-05 857.30923)
(4.7044208e-05 3.8253527e-07 857.30922)
(-0.0001676986 -6.9307276e-06 857.3092)
(-0.00019967794 3.4734815e-05 857.30846)
(-4.4513172e-06 3.364452e-05 857.30829)
(8.9094445e-05 2.9904075e-05 857.30842)
(0.00016337904 2.8965907e-05 857.30875)
(0.00021471789 2.9101346e-05 857.30929)
(0.00014602938 2.7328796e-05 857.30986)
(2.1540112e-05 2.1540114e-05 857.31)
(9.9084819e-05 9.908482e-05 1260.8074)
(0.00066688944 0.00043994604 1260.8071)
(-0.001059433 -0.00029061837 1260.8072)
(-0.0018401827 -0.00011447935 1260.8053)
(-8.0405151e-05 -4.2350568e-05 1260.805)
(0.00049338941 -2.1841825e-05 1260.8052)
(0.00066090604 -2.5758076e-06 1260.8057)
(0.00065489932 2.4377058e-05 1260.8063)
(0.00050161486 -3.5578734e-08 1260.8068)
(0.00013087634 -0.00010229797 1260.8072)
(0.00043994604 0.00066688945 1260.8071)
(8.2334656e-05 8.2334655e-05 1260.8074)
(-0.0018910711 -0.0008660106 1260.8065)
(-0.001467781 -0.00047579553 1260.8049)
(5.8551143e-05 -0.00032275238 1260.8047)
(0.00055305155 -0.00027336535 1260.805)
(0.00073023436 -0.00020117166 1260.8055)
(0.00065870967 -4.7632138e-05 1260.8062)
(0.00031160233 3.5060444e-05 1260.8065)
(2.8613952e-05 -0.00018375402 1260.8066)
(-0.00029061838 -0.001059433 1260.8072)
(-0.0008660106 -0.0018910711 1260.8065)
(-0.0016175632 -0.0016175632 1260.8057)
(-0.0012969245 -0.0014367312 1260.8042)
(0.00012202502 -0.0013776777 1260.8041)
(0.00061497013 -0.001361764 1260.8044)
(0.00088663926 -0.0013110234 1260.805)
(0.00089113143 -0.0011262715 1260.8059)
(0.00036549298 -0.00081680504 1260.8065)
(-1.4999974e-05 -0.00063564052 1260.8065)
(-0.00011447935 -0.0018401827 1260.8053)
(-0.00047579552 -0.001467781 1260.8049)
(-0.0014367312 -0.0012969245 1260.8042)
(-0.0012278955 -0.0012278955 1260.8028)
(0.0001335183 -0.0012176756 1260.8027)
(0.00061970581 -0.0012356229 1260.803)
(0.00096572685 -0.001251704 1260.8036)
(0.001152928 -0.0012031059 1260.8046)
(0.00080223336 -0.0010195536 1260.8054)
(0.0001493903 -0.00076340378 1260.8058)
(-4.235057e-05 -8.0405145e-05 1260.805)
(-0.00032275239 5.8551145e-05 1260.8047)
(-0.0013776777 0.00012202502 1260.8041)
(-0.0012176756 0.0001335183 1260.8027)
(0.00011429757 0.00011429756 1260.8025)
(0.00058094178 8.1580159e-05 1260.8028)
(0.00091915626 3.8148573e-05 1260.8034)
(0.0011232818 -7.4093696e-06 1260.8044)
(0.00080519512 -3.6877753e-05 1260.8052)
(0.00015576656 -4.747259e-05 1260.8056)
(-2.1841825e-05 0.0004933894 1260.8052)
(-0.00027336536 0.00055305155 1260.805)
(-0.001361764 0.00061497013 1260.8044)
(-0.0012356229 0.00061970581 1260.803)
(8.158016e-05 0.00058094178 1260.8028)
(0.00054355682 0.00054355681 1260.8031)
(0.00087673732 0.00050924498 1260.8037)
(0.0010779017 0.00047580682 1260.8046)
(0.00076217014 0.00044455945 1260.8054)
(0.00014232708 0.0004197857 1260.8057)
(-2.575806e-06 0.00066090604 1260.8057)
(-0.00020117166 0.00073023437 1260.8055)
(-0.0013110234 0.00088663926 1260.805)
(-0.001251704 0.00096572685 1260.8036)
(3.8148571e-05 0.00091915626 1260.8034)
(0.00050924498 0.00087673731 1260.8037)
(0.00085140626 0.00085140626 1260.8042)
(0.0010585963 0.00083689387 1260.8051)
(0.000749174 0.00082733571 1260.8059)
(0.00013925072 0.00082314179 1260.8062)
(2.437706e-05 0.00065489933 1260.8063)
(-4.7632137e-05 0.00065870967 1260.8062)
(-0.0011262716 0.00089113144 1260.8059)
(-0.0012031059 0.001152928 1260.8046)
(-7.4093766e-06 0.0011232818 1260.8044)
(0.00047580682 0.0010779017 1260.8046)
(0.00083689388 0.0010585963 1260.8051)
(0.0010538311 0.0010538312 1260.806)
(0.00074841807 0.0010443165 1260.8068)
(0.00013953113 0.0010205566 1260.8071)
(-3.5580193e-08 0.00050161486 1260.8068)
(3.5060444e-05 0.00031160232 1260.8065)
(-0.00081680504 0.00036549298 1260.8065)
(-0.0010195536 0.00080223337 1260.8054)
(-3.6877757e-05 0.00080519512 1260.8052)
(0.00044455945 0.00076217015 1260.8054)
(0.00082733572 0.000749174 1260.8059)
(0.0010443165 0.00074841806 1260.8068)
(0.00071589947 0.00071589946 1260.8076)
(0.00012341083 0.00062170012 1260.8078)
(-0.00010229797 0.00013087634 1260.8072)
(-0.00018375402 2.8613951e-05 1260.8066)
(-0.00063564051 -1.4999973e-05 1260.8065)
(-0.00076340379 0.00014939031 1260.8058)
(-4.7472595e-05 0.00015576656 1260.8056)
(0.0004197857 0.00014232708 1260.8057)
(0.00082314179 0.00013925073 1260.8062)
(0.0010205566 0.00013953113 1260.8071)
(0.00062170012 0.00012341082 1260.8078)
(7.6731569e-05 7.6731564e-05 1260.808)
(-0.00015001127 -0.00015001127 1243.1784)
(3.0483476e-05 0.00038877339 1243.1777)
(-0.0020442562 -0.00050284679 1243.1772)
(-0.0026825553 -0.00025959616 1243.176)
(-6.1378038e-05 -0.00015968503 1243.1758)
(0.00088497179 -0.00012931238 1243.1761)
(0.0012130257 -8.8305045e-05 1243.1766)
(0.0011973632 -2.3042781e-05 1243.1772)
(0.0010099812 -0.00011177795 1243.1777)
(0.0003080617 -0.00035096265 1243.1782)
(0.00038877339 3.0483479e-05 1243.1777)
(-0.0004987698 -0.0004987698 1243.1775)
(-0.0030168106 -0.0016422117 1243.1766)
(-0.0021678127 -0.0011002037 1243.1755)
(0.00013404764 -0.00088653699 1243.1754)
(0.00099204176 -0.00081616645 1243.1757)
(0.0013724301 -0.00067874162 1243.1763)
(0.0011621538 -0.00035090163 1243.1771)
(0.0005181014 -0.00023335332 1243.1774)
(6.8877005e-05 -0.00066500228 1243.1775)
(-0.00050284679 -0.0020442562 1243.1772)
(-0.0016422117 -0.0030168106 1243.1766)
(-0.0026456902 -0.0026456902 1243.1758)
(-0.0019268806 -0.0023880673 1243.1748)
(0.00022265925 -0.0023052377 1243.1747)
(0.0010927672 -0.0022911109 1243.175)
(0.0016782905 -0.0022117973 1243.1757)
(0.0016427515 -0.0018686009 1243.1767)
(0.00069588056 -0.0013185387 1243.1772)
(2.029573e-05 -0.0010296659 1243.1773)
(-0.00025959616 -0.0026825553 1243.176)
(-0.0011002037 -0.0021678127 1243.1755)
(-0.0023880673 -0.0019268806 1243.1748)
(-0.0018273602 -0.0018273602 1243.1738)
(0.00023100409 -0.0018176638 1243.1737)
(0.0010854822 -0.0018569034 1243.174)
(0.0017949401 -0.0018960255 1243.1747)
(0.0020554125 -0.0018206757 1243.1758)
(0.0013570363 -0.0015275202 1243.1765)
(0.00026145882 -0.0011470216 1243.1768)
(-0.00015968503 -6.1378035e-05 1243.1758)
(-0.00088653698 0.00013404765 1243.1754)
(-0.0023052377 0.00022265924 1243.1747)
(-0.0018176638 0.0002310041 1243.1737)
(0.00019311609 0.00019311608 1243.1736)
(0.0010144055 0.00013301843 1243.1739)
(0.0017145182 5.5682393e-05 1243.1745)
(0.0020112567 -1.9260436e-05 1243.1756)
(0.0013695347 -5.9877117e-05 1243.1763)
(0.00027396149 -6.8046534e-05 1243.1766)
(-0.00012931238 0.00088497179 1243.1761)
(-0.00081616646 0.00099204176 1243.1757)
(-0.0022911109 0.0010927672 1243.175)
(-0.0018569034 0.0010854822 1243.174)
(0.00013301843 0.0010144055 1243.1739)
(0.00094804847 0.00094804846 1243.1741)
(0.0016426612 0.00088927144 1243.1747)
(0.001939853 0.00083601349 1243.1757)
(0.0013082502 0.00079189116 1243.1765)
(0.00025601254 0.00076521209 1243.1768)
(-8.8305046e-05 0.0012130257 1243.1766)
(-0.00067874162 0.0013724301 1243.1763)
(-0.0022117973 0.0016782905 1243.1757)
(-0.0018960255 0.0017949401 1243.1747)
(5.5682395e-05 0.0017145182 1243.1745)
(0.00088927144 0.0016426612 1243.1747)
(0.0016024832 0.0016024832 1243.1753)
(0.0019138765 0.0015832122 1243.1763)
(0.0012987333 0.0015724093 1243.177)
(0.00025617545 0.0015716464 1243.1773)
(-2.3042785e-05 0.0011973632 1243.1772)
(-0.00035090164 0.0011621538 1243.1771)
(-0.0018686009 0.0016427515 1243.1767)
(-0.0018206757 0.0020554125 1243.1758)
(-1.9260449e-05 0.0020112567 1243.1756)
(0.00083601349 0.001939853 1243.1757)
(0.0015832122 0.0019138765 1243.1763)
(0.0019097791 0.0019097791 1243.1773)
(0.0012966844 0.0018779118 1243.178)
(0.00025550396 0.0017874587 1243.1784)
(-0.00011177795 0.0010099812 1243.1777)
(-0.00023335332 0.0005181014 1243.1774)
(-0.0013185387 0.00069588057 1243.1772)
(-0.0015275202 0.0013570363 1243.1765)
(-5.9877127e-05 0.0013695347 1243.1763)
(0.00079189116 0.0013082502 1243.1765)
(0.0015724093 0.0012987333 1243.177)
(0.0018779118 0.0012966844 1243.178)
(0.0011764129 0.0011764129 1243.1787)
(0.00019587336 0.00097846005 1243.1788)
(-0.00035096265 0.0003080617 1243.1782)
(-0.00066500227 6.8877e-05 1243.1775)
(-0.0010296659 2.0295732e-05 1243.1773)
(-0.0011470216 0.00026145881 1243.1768)
(-6.8046537e-05 0.00027396149 1243.1766)
(0.00076521209 0.00025601254 1243.1768)
(0.0015716464 0.00025617545 1243.1773)
(0.0017874587 0.00025550396 1243.1784)
(0.00097846005 0.00019587336 1243.1788)
(0.00012353539 0.00012353539 1243.179)
(-0.00038401529 -0.00038401528 1223.0949)
(-0.00051864743 0.00029113712 1223.0943)
(-0.0028052286 -0.00072370448 1223.094)
(-0.0033125039 -0.00042392886 1223.0929)
(2.1856052e-05 -0.00030461389 1223.0928)
(0.0013046705 -0.00026938788 1223.0931)
(0.0018159505 -0.00020341845 1223.0937)
(0.0017300462 -6.9521305e-05 1223.0944)
(0.0014425429 -0.0001879632 1223.0949)
(0.00046368838 -0.00053850495 1223.0953)
(0.00029113712 -0.00051864743 1223.0943)
(-0.0010281812 -0.0010281812 1223.0941)
(-0.0038778276 -0.0023080623 1223.0934)
(-0.002683868 -0.0016415491 1223.0925)
(0.00025366753 -0.001389165 1223.0925)
(0.0014564637 -0.0013147332 1223.0928)
(0.0021157504 -0.0011197383 1223.0934)
(0.0017532291 -0.0005836373 1223.0943)
(0.00073906743 -0.00040726264 1223.0947)
(0.00011314663 -0.0010425687 1223.0948)
(-0.00072370448 -0.0028052286 1223.094)
(-0.0023080623 -0.0038778276 1223.0934)
(-0.0034185965 -0.0034185965 1223.0928)
(-0.0023936066 -0.0031042673 1223.092)
(0.000348672 -0.0030127829 1223.092)
(0.0015740972 -0.0030146848 1223.0923)
(0.0025470464 -0.0029247466 1223.0929)
(0.0024425219 -0.002439987 1223.094)
(0.0009836115 -0.00169294 1223.0946)
(4.0151004e-05 -0.0013515423 1223.0947)
(-0.00042392887 -0.0033125039 1223.0929)
(-0.0016415491 -0.002683868 1223.0925)
(-0.0031042673 -0.0023936066 1223.092)
(-0.0022780544 -0.0022780544 1223.0912)
(0.00034325001 -0.0022781532 1223.0912)
(0.0015445 -0.0023457528 1223.0915)
(0.0026904482 -0.0024145947 1223.0921)
(0.0029850357 -0.0023167849 1223.0933)
(0.0018275121 -0.0019283029 1223.094)
(0.0003407451 -0.0014494786 1223.0942)
(-0.00030461389 2.185605e-05 1223.0928)
(-0.001389165 0.00025366753 1223.0925)
(-0.0030127829 0.000348672 1223.092)
(-0.0022781532 0.00034325001 1223.0912)
(0.00028097361 0.0002809736 1223.0911)
(0.0014376557 0.00019049673 1223.0914)
(0.0025760143 7.8625574e-05 1223.0919)
(0.0029288137 -2.195898e-05 1223.0931)
(0.0018509178 -6.7479705e-05 1223.0938)
(0.00035936725 -6.6712891e-05 1223.0941)
(-0.00026938788 0.0013046705 1223.0931)
(-0.0013147332 0.0014564637 1223.0928)
(-0.0030146848 0.0015740972 1223.0923)
(-0.0023457528 0.0015445 1223.0915)
(0.00019049673 0.0014376557 1223.0914)
(0.001342152 0.001342152 1223.0916)
(0.0024779925 0.0012617108 1223.0921)
(0.0028389304 0.0011954133 1223.0932)
(0.0017827582 0.001149132 1223.094)
(0.00034125631 0.001134939 1223.0942)
(-0.00020341845 0.0018159505 1223.0937)
(-0.0011197383 0.0021157504 1223.0934)
(-0.0029247466 0.0025470464 1223.0929)
(-0.0024145947 0.0026904482 1223.0921)
(7.8625569e-05 0.0025760143 1223.0919)
(0.0012617108 0.0024779925 1223.0921)
(0.0024292757 0.0024292756 1223.0927)
(0.0028162348 0.0024138373 1223.0938)
(0.0017904435 0.0024077431 1223.0945)
(0.00034990524 0.0024100789 1223.0948)
(-6.9521311e-05 0.0017300462 1223.0944)
(-0.00058363732 0.0017532291 1223.0943)
(-0.002439987 0.0024425219 1223.094)
(-0.0023167849 0.0029850356 1223.0933)
(-2.1958983e-05 0.0029288137 1223.0931)
(0.0011954133 0.0028389304 1223.0932)
(0.0024138373 0.0028162348 1223.0938)
(0.0028173978 0.0028173978 1223.0949)
(0.0017789998 0.0027327727 1223.0957)
(0.0003428135 0.0024819183 1223.096)
(-0.0001879632 0.0014425429 1223.0949)
(-0.00040726265 0.00073906744 1223.0947)
(-0.00169294 0.00098361152 1223.0946)
(-0.0019283029 0.0018275122 1223.094)
(-6.7479709e-05 0.0018509178 1223.0938)
(0.001149132 0.0017827582 1223.094)
(0.0024077431 0.0017904435 1223.0945)
(0.0027327727 0.0017789998 1223.0957)
(0.001454964 0.001454964 1223.0963)
(0.00018266901 0.0012333245 1223.0962)
(-0.00053850495 0.00046368838 1223.0953)
(-0.0010425687 0.00011314663 1223.0948)
(-0.0013515423 4.0151011e-05 1223.0947)
(-0.0014494786 0.00034074511 1223.0942)
(-6.6712895e-05 0.00035936725 1223.0941)
(0.001134939 0.00034125632 1223.0942)
(0.0024100789 0.00034990524 1223.0948)
(0.0024819183 0.0003428135 1223.096)
(0.0012333245 0.00018266901 1223.0962)
(0.00019505383 0.00019505383 1223.0964)
(-0.00053663747 -0.00053663747 1200.7618)
(-0.00086613657 0.00023729309 1200.7614)
(-0.0033935778 -0.00089300543 1200.7612)
(-0.0038139531 -0.00054191793 1200.7604)
(0.00014599007 -0.00040802602 1200.7603)
(0.0017392864 -0.00037415205 1200.7606)
(0.0024782848 -0.00029235302 1200.7612)
(0.0023729027 -9.6047288e-05 1200.7619)
(0.0019379455 -0.00024590564 1200.7625)
(0.00062105786 -0.00069036694 1200.7629)
(0.00023729309 -0.00086613656 1200.7614)
(-0.0014006885 -0.0014006885 1200.7613)
(-0.0045623944 -0.0028087529 1200.7608)
(-0.003086484 -0.0020317452 1200.7601)
(0.00039763891 -0.0017535329 1200.7601)
(0.0019127959 -0.0016904549 1200.7604)
(0.0028954419 -0.0014600698 1200.7609)
(0.0024425738 -0.00073542786 1200.7619)
(0.001046466 -0.00052166129 1200.7623)
(0.00017659657 -0.0013404276 1200.7625)
(-0.00089300543 -0.0033935778 1200.7612)
(-0.0028087529 -0.0045623944 1200.7608)
(-0.0040246345 -0.0040246345 1200.7603)
(-0.0027587331 -0.0036652342 1200.7597)
(0.0004872803 -0.0035751419 1200.7597)
(0.0020327495 -0.0036030892 1200.76)
(0.0034333118 -0.0035151554 1200.7606)
(0.0033113112 -0.0029036066 1200.7617)
(0.0013329457 -0.0019886673 1200.7623)
(7.5213639e-05 -0.0016124888 1200.7624)
(-0.00054191793 -0.0038139531 1200.7604)
(-0.0020317452 -0.003086484 1200.7601)
(-0.0036652342 -0.0027587331 1200.7597)
(-0.0026369914 -0.0026369914 1200.759)
(0.0004597839 -0.0026544703 1200.759)
(0.0019727824 -0.0027565882 1200.7593)
(0.0035949245 -0.0028606875 1200.7598)
(0.0039690619 -0.0027447551 1200.761)
(0.0023375838 -0.0022711374 1200.7618)
(0.00042738223 -0.0017062278 1200.762)
(-0.00040802602 0.00014599007 1200.7603)
(-0.0017535329 0.0003976389 1200.7601)
(-0.0035751419 0.00048728029 1200.7597)
(-0.0026544703 0.0004597839 1200.759)
(0.00036768349 0.00036768349 1200.759)
(0.0018265323 0.0002436187 1200.7592)
(0.0034451449 9.6191232e-05 1200.7597)
(0.0039008613 -2.778286e-05 1200.7609)
(0.002371473 -7.4231044e-05 1200.7616)
(0.00045182002 -6.0069398e-05 1200.7619)
(-0.00037415205 0.0017392864 1200.7606)
(-0.0016904549 0.0019127959 1200.7604)
(-0.0036030892 0.0020327495 1200.76)
(-0.0027565882 0.0019727824 1200.7593)
(0.00024361871 0.0018265323 1200.7592)
(0.0017012901 0.0017012901 1200.7594)
(0.0033235229 0.0016018374 1200.7599)
(0.0037986397 0.0015295212 1200.761)
(0.0023052972 0.0014925669 1200.7617)
(0.00043682332 0.001505369 1200.762)
(-0.00029235301 0.0024782848 1200.7612)
(-0.0014600698 0.0028954419 1200.7609)
(-0.0035151555 0.0034333118 1200.7606)
(-0.0028606875 0.0035949245 1200.7598)
(9.6191238e-05 0.0034451449 1200.7597)
(0.0016018374 0.0033235229 1200.7599)
(0.0032733759 0.0032733759 1200.7603)
(0.0037915908 0.003274624 1200.7615)
(0.0023473209 0.0032892069 1200.7623)
(0.00046035478 0.0033067949 1200.7626)
(-9.6047289e-05 0.0023729027 1200.7619)
(-0.00073542786 0.0024425738 1200.7619)
(-0.0029036066 0.0033113112 1200.7617)
(-0.0027447551 0.0039690619 1200.761)
(-2.7782858e-05 0.0039008613 1200.7609)
(0.0015295212 0.0037986397 1200.761)
(0.003274624 0.0037915908 1200.7615)
(0.0038144707 0.0038144707 1200.7626)
(0.0023374682 0.0036720586 1200.7635)
(0.00044854864 0.003181856 1200.7638)
(-0.00024590564 0.0019379455 1200.7625)
(-0.00052166129 0.001046466 1200.7623)
(-0.0019886673 0.0013329457 1200.7623)
(-0.0022711374 0.0023375838 1200.7618)
(-7.423104e-05 0.002371473 1200.7616)
(0.0014925669 0.0023052972 1200.7617)
(0.0032892069 0.0023473209 1200.7623)
(0.0036720586 0.0023374682 1200.7635)
(0.0017147062 0.0017147062 1200.7641)
(0.00013355304 0.0014358796 1200.764)
(-0.00069036693 0.00062105786 1200.7629)
(-0.0013404276 0.00017659656 1200.7625)
(-0.0016124888 7.5213642e-05 1200.7624)
(-0.0017062278 0.00042738223 1200.762)
(-6.0069397e-05 0.00045182002 1200.7619)
(0.001505369 0.00043682333 1200.762)
(0.0033067949 0.00046035478 1200.7626)
(0.003181856 0.00044854863 1200.7638)
(0.0014358796 0.00013355304 1200.764)
(0.00026266427 0.00026266427 1200.7642)
(-0.000653271 -0.000653271 1176.3881)
(-0.0011161036 0.00020497043 1176.3877)
(-0.0038694166 -0.0010309164 1176.3876)
(-0.0042224945 -0.00063204771 1176.3869)
(0.00028742627 -0.00048647411 1176.3869)
(0.0021468416 -0.00045735252 1176.3872)
(0.0031101 -0.00036533639 1176.3877)
(0.0030170915 -0.00011310292 1176.3884)
(0.002438189 -0.00029622204 1176.3889)
(0.00077403809 -0.00082545516 1176.3893)
(0.00020497043 -0.0011161036 1176.3877)
(-0.0016825717 -0.0016825717 1176.3877)
(-0.0051249438 -0.0032072538 1176.3872)
(-0.003405831 -0.0023295695 1176.3866)
(0.00054946905 -0.0020338224 1176.3867)
(0.0023285482 -0.0019914741 1176.3869)
(0.0036264745 -0.0017402673 1176.3874)
(0.0031207631 -0.00084557213 1176.3883)
(0.0013696607 -0.00060788328 1176.3887)
(0.00024480497 -0.00159525 1176.3889)
(-0.0010309164 -0.0038694166 1176.3876)
(-0.0032072538 -0.0051249438 1176.3872)
(-0.0045164144 -0.0045164144 1176.3869)
(-0.0030490631 -0.004120437 1176.3863)
(0.0006255216 -0.0040390651 1176.3864)
(0.0024403967 -0.0041004985 1176.3866)
(0.004256002 -0.0040243624 1176.3871)
(0.0041494756 -0.0032997546 1176.3882)
(0.0016885111 -0.0022363176 1176.3887)
(0.0001157936 -0.0018319739 1176.3888)
(-0.00063204771 -0.0042224945 1176.3869)
(-0.0023295695 -0.003405831 1176.3866)
(-0.004120437 -0.0030490631 1176.3863)
(-0.0029284817 -0.0029284817 1176.3858)
(0.00056940754 -0.0029693723 1176.3858)
(0.0023432509 -0.0031111916 1176.386)
(0.0044272183 -0.0032556624 1176.3865)
(0.0049088079 -0.0031274217 1176.3876)
(0.0028374415 -0.0025784403 1176.3883)
(0.00051436746 -0.0019361648 1176.3885)
(-0.00048647412 0.00028742627 1176.3869)
(-0.0020338225 0.00054946904 1176.3867)
(-0.0040390651 0.00062552159 1176.3864)
(-0.0029693723 0.00056940754 1176.3858)
(0.0004428117 0.0004428117 1176.3858)
(0.0021541066 0.00028210566 1176.386)
(0.004239772 9.762518e-05 1176.3864)
(0.0048266977 -4.937361e-05 1176.3874)
(0.002879768 -9.5485488e-05 1176.3881)
(0.00054397725 -6.5943195e-05 1176.3884)
(-0.00045735253 0.0021468416 1176.3872)
(-0.0019914741 0.0023285482 1176.3869)
(-0.0041004985 0.0024403967 1176.3866)
(-0.0031111916 0.0023432509 1176.386)
(0.00028210566 0.0021541066 1176.386)
(0.0019980643 0.0019980643 1176.3861)
(0.004095739 0.0018810988 1176.3865)
(0.0047156972 0.0018075682 1176.3875)
(0.0028208719 0.0017883465 1176.3882)
(0.00053406232 0.001839188 1176.3885)
(-0.00036533639 0.0031101 1176.3877)
(-0.0017402673 0.0036264745 1176.3874)
(-0.0040243624 0.004256002 1176.3871)
(-0.0032556624 0.0044272183 1176.3865)
(9.762518e-05 0.004239772 1176.3864)
(0.0018810988 0.004095739 1176.3865)
(0.0040492758 0.0040492758 1176.3869)
(0.0047339454 0.0040779869 1176.3879)
(0.0029113879 0.0041304363 1176.3887)
(0.00057787159 0.0041840144 1176.389)
(-0.00011310292 0.0030170915 1176.3884)
(-0.00084557214 0.0031207631 1176.3883)
(-0.0032997546 0.0041494756 1176.3882)
(-0.0031274217 0.0049088079 1176.3876)
(-4.937361e-05 0.0048266977 1176.3874)
(0.0018075682 0.0047156972 1176.3875)
(0.0040779869 0.0047339454 1176.3879)
(0.0047968576 0.0047968576 1176.389)
(0.0029268994 0.0046163555 1176.3898)
(0.00056978108 0.0038757946 1176.3902)
(-0.00029622204 0.002438189 1176.3889)
(-0.00060788327 0.0013696607 1176.3887)
(-0.0022363176 0.0016885112 1176.3887)
(-0.0025784403 0.0028374415 1176.3883)
(-9.5485474e-05 0.002879768 1176.3881)
(0.0017883465 0.0028208719 1176.3882)
(0.0041304362 0.0029113878 1176.3887)
(0.0046163555 0.0029268994 1176.3898)
(0.0019903248 0.0019903248 1176.3905)
(8.4164312e-05 0.0016298102 1176.3904)
(-0.00082545516 0.0007740381 1176.3893)
(-0.00159525 0.00024480497 1176.3889)
(-0.0018319738 0.0001157936 1176.3888)
(-0.0019361648 0.00051436746 1176.3885)
(-6.5943198e-05 0.00054397724 1176.3884)
(0.001839188 0.00053406231 1176.3885)
(0.0041840144 0.00057787159 1176.389)
(0.0038757946 0.00056978109 1176.3902)
(0.0016298102 8.416431e-05 1176.3904)
(0.00032943801 0.00032943801 1176.3906)
(-0.00075274337 -0.00075274337 1150.184)
(-0.0013132591 0.00018209925 1150.1837)
(-0.0042586053 -0.0011474613 1150.1837)
(-0.0045537923 -0.00070390608 1150.183)
(0.0004344014 -0.00054890302 1150.1831)
(0.0025108319 -0.0005268069 1150.1833)
(0.0036748324 -0.0004284981 1150.1837)
(0.0036071008 -0.00012582678 1150.1844)
(0.0029058254 -0.0003417215 1150.1848)
(0.00091763838 -0.00094917845 1150.1852)
(0.00018209925 -0.0013132591 1150.1837)
(-0.001905336 -0.001905336 1150.1837)
(-0.0055876132 -0.0035312892 1150.1833)
(-0.0036559548 -0.0025613243 1150.1828)
(0.00070005017 -0.0022545014 1150.1829)
(0.0026914392 -0.0022396488 1150.1831)
(0.0042763025 -0.0019788917 1150.1836)
(0.0037372657 -0.00093145433 1150.1843)
(0.0016707979 -0.00067721799 1150.1847)
(0.00031018142 -0.0018215851 1150.1849)
(-0.0011474613 -0.0042586053 1150.1837)
(-0.0035312892 -0.0055876132 1150.1833)
(-0.0049145935 -0.0049145935 1150.1831)
(-0.0032770045 -0.0044889654 1150.1826)
(0.00075607686 -0.0044220636 1150.1827)
(0.0027864416 -0.0045229169 1150.1829)
(0.0049830268 -0.004467299 1150.1833)
(0.0049087745 -0.0036443189 1150.1842)
(0.0020156946 -0.0024490847 1150.1847)
(0.00015472695 -0.0020222048 1150.1848)
(-0.00070390608 -0.0045537923 1150.183)
(-0.0025613243 -0.0036559548 1150.1828)
(-0.0044889654 -0.0032770045 1150.1826)
(-0.003163425 -0.003163425 1150.1822)
(0.00066609872 -0.003232552 1150.1822)
(0.0026462039 -0.0034183635 1150.1824)
(0.0051549005 -0.003607963 1150.1827)
(0.0057554799 -0.0034744161 1150.1837)
(0.0032929119 -0.0028604581 1150.1843)
(0.00059476806 -0.0021497538 1150.1845)
(-0.00054890302 0.0004344014 1150.1831)
(-0.0022545014 0.00070005017 1150.1829)
(-0.0044220636 0.00075607686 1150.1827)
(-0.003232552 0.00066609872 1150.1822)
(0.00050113836 0.00050113836 1150.1822)
(0.0024110306 0.00030108437 1150.1823)
(0.0049269742 7.7843049e-05 1150.1826)
(0.0056562795 -9.3125865e-05 1150.1836)
(0.0033403568 -0.00013965627 1150.1842)
(0.00062852977 -9.4969653e-05 1150.1844)
(-0.0005268069 0.0025108319 1150.1833)
(-0.0022396488 0.0026914392 1150.1831)
(-0.0045229169 0.0027864416 1150.1829)
(-0.0034183635 0.0026462039 1150.1824)
(0.00030108437 0.0024110306 1150.1823)
(0.0022229086 0.0022229086 1150.1824)
(0.0047606903 0.0020889673 1150.1827)
(0.0055379806 0.0020168305 1150.1836)
(0.0032910681 0.0020200193 1150.1842)
(0.00062455914 0.0021148077 1150.1844)
(-0.0004284981 0.0036748324 1150.1837)
(-0.0019788917 0.0042763025 1150.1836)
(-0.004467299 0.0049830268 1150.1833)
(-0.003607963 0.0051549005 1150.1827)
(7.7843052e-05 0.0049269742 1150.1826)
(0.0020889673 0.0047606903 1150.1827)
(0.0047208961 0.0047208961 1150.183)
(0.0055873315 0.0047839182 1150.1839)
(0.003438334 0.0048859115 1150.1846)
(0.00069172205 0.0049908576 1150.1849)
(-0.00012582679 0.0036071008 1150.1844)
(-0.00093145434 0.0037372657 1150.1843)
(-0.0036443189 0.0049087745 1150.1842)
(-0.0034744161 0.0057554799 1150.1837)
(-9.3125863e-05 0.0056562795 1150.1836)
(0.0020168305 0.0055379806 1150.1836)
(0.0047839182 0.0055873315 1150.1839)
(0.0057029959 0.0057029959 1150.1849)
(0.0034980076 0.0055046221 1150.1856)
(0.00069452326 0.0045293897 1150.186)
(-0.0003417215 0.0029058254 1150.1848)
(-0.00067721799 0.0016707979 1150.1847)
(-0.0024490847 0.0020156946 1150.1847)
(-0.0028604581 0.0032929119 1150.1843)
(-0.00013965626 0.0033403569 1150.1842)
(0.0020200193 0.0032910681 1150.1842)
(0.0048859115 0.003438334 1150.1846)
(0.0055046221 0.0034980076 1150.1856)
(0.0022647278 0.0022647278 1150.1862)
(4.1567098e-05 0.0018189063 1150.1861)
(-0.00094917845 0.00091763838 1150.1852)
(-0.0018215851 0.00031018143 1150.1849)
(-0.0020222048 0.00015472695 1150.1848)
(-0.0021497538 0.00059476806 1150.1845)
(-9.496965e-05 0.00062852977 1150.1844)
(0.0021148077 0.00062455914 1150.1844)
(0.0049908576 0.00069172205 1150.1849)
(0.0045293897 0.00069452326 1150.186)
(0.0018189063 4.15671e-05 1150.1861)
(0.00039730894 0.00039730894 1150.1863)
(-0.00083843544 -0.00083843544 1122.3608)
(-0.001468178 0.00016642089 1122.3605)
(-0.0045708486 -0.0012442543 1122.3605)
(-0.0048164511 -0.00075920672 1122.36)
(0.00057893994 -0.00059680866 1122.36)
(0.0028230697 -0.00058355382 1122.3603)
(0.0041581186 -0.00048234739 1122.3606)
(0.0041199971 -0.00013474161 1122.3611)
(0.0033219873 -0.00038232714 1122.3615)
(0.0010480709 -0.00106226 1122.3619)
(0.00016642089 -0.001468178 1122.3605)
(-0.0020769063 -0.0020769063 1122.3605)
(-0.0059592901 -0.0037877169 1122.3602)
(-0.0038452826 -0.0027337137 1122.3598)
(0.0008424193 -0.0024214336 1122.3599)
(0.0029947616 -0.0024395499 1122.3601)
(0.0048313369 -0.0021793065 1122.3605)
(0.0042700274 -0.00099699599 1122.3611)
(0.0019307097 -0.00073242847 1122.3614)
(0.000368138 -0.0020237036 1122.3616)
(-0.0012442543 -0.0045708487 1122.3605)
(-0.0037877169 -0.0059592901 1122.3602)
(-0.0052276561 -0.0052276561 1122.36)
(-0.0034501678 -0.0047785385 1122.3597)
(0.00087310368 -0.0047308296 1122.3597)
(0.0030651968 -0.0048759217 1122.3599)
(0.0056006725 -0.0048487747 1122.3602)
(0.0055668751 -0.0039429369 1122.361)
(0.0022952796 -0.0026326036 1122.3614)
(0.00018722076 -0.0021894893 1122.3615)
(-0.00075920672 -0.0048164511 1122.36)
(-0.0027337137 -0.0038452826 1122.3598)
(-0.0047785385 -0.0034501678 1122.3597)
(-0.0033484562 -0.0033484562 1122.3593)
(0.00074503609 -0.0034497009 1122.3594)
(0.0028768165 -0.00368296 1122.3595)
(0.0057643217 -0.0039219122 1122.3597)
(0.0064861986 -0.0037905239 1122.3606)