/*--------------------------------*- C++ -*----------------------------------*\
| =========                 |                                                 |
| \\      /  F ield         | OpenFOAM: The Open Source CFD Toolbox           |
|  \\    /   O peration     | Version:  v2106                                 |
|   \\  /    A nd           | Website:  www.openfoam.com                      |
|    \\/     M anipulation  |                                                 |
\*---------------------------------------------------------------------------*/
FoamFile
{
    version     2.0;
    format      ascii;
    arch        "LSB;label=32;scalar=64";
    class       volScalarField;
    location    "15";
    object      laplacianT;
}
// * * * * * * * * * * * * * * * * * * * * * * * * * * * * * * * * * * * * * //

dimensions      [0 -2 0 1 0 0 0];

internalField   nonuniform List<scalar> 
4000
(
162251.27
162251.01
162250.71
162250.22
162250.09
162250.12
162250.26
162250.46
162250.64
162250.66
162251.01
162251.2
162250.56
162250.12
162250.01
162250.04
162250.2
162250.45
162250.7
162250.67
162250.71
162250.56
162250.03
162249.61
162249.51
162249.56
162249.73
162250.03
162250.39
162250.44
162250.22
162250.12
162249.61
162249.2
162249.11
162249.17
162249.36
162249.68
162250.07
162250.18
162250.09
162250.01
162249.51
162249.11
162249.03
162249.09
162249.29
162249.62
162250.02
162250.14
162250.12
162250.04
162249.56
162249.17
162249.09
162249.17
162249.37
162249.7
162250.11
162250.23
162250.26
162250.2
162249.73
162249.36
162249.29
162249.37
162249.58
162249.91
162250.32
162250.44
162250.46
162250.45
162250.03
162249.68
162249.62
162249.7
162249.91
162250.24
162250.65
162250.76
162250.64
162250.7
162250.39
162250.07
162250.02
162250.11
162250.32
162250.65
162251.05
162251.15
162250.66
162250.67
162250.44
162250.18
162250.14
162250.23
162250.44
162250.76
162251.15
162251.21
-15177.434
-15184.81
-15179.658
-15180.335
-15180.409
-15180.422
-15180.449
-15180.49
-15180.54
-15180.588
-15184.81
-15185.158
-15182.311
-15182.917
-15182.975
-15182.987
-15183.019
-15183.101
-15183.388
-15182.518
-15179.658
-15182.311
-15179.248
-15179.821
-15179.876
-15179.887
-15179.913
-15179.988
-15180.512
-15180.854
-15180.335
-15182.917
-15179.821
-15180.391
-15180.447
-15180.459
-15180.48
-15180.52
-15180.925
-15181.053
-15180.409
-15182.975
-15179.876
-15180.447
-15180.505
-15180.518
-15180.541
-15180.581
-15180.979
-15181.084
-15180.422
-15182.987
-15179.887
-15180.459
-15180.518
-15180.533
-15180.557
-15180.599
-15180.998
-15181.102
-15180.449
-15183.019
-15179.913
-15180.48
-15180.541
-15180.557
-15180.582
-15180.624
-15181.024
-15181.129
-15180.49
-15183.101
-15179.988
-15180.52
-15180.581
-15180.599
-15180.624
-15180.667
-15181.067
-15181.175
-15180.54
-15183.388
-15180.512
-15180.925
-15180.979
-15180.998
-15181.024
-15181.067
-15181.468
-15181.589
-15180.588
-15182.518
-15180.854
-15181.053
-15181.084
-15181.102
-15181.129
-15181.175
-15181.589
-15181.696
-13372.968
-13380.961
-13374.392
-13375.454
-13375.584
-13375.603
-13375.631
-13375.693
-13375.903
-13374.649
-13380.961
-13380.297
-13376.767
-13377.717
-13377.823
-13377.835
-13377.858
-13378.007
-13379.19
-13377.165
-13374.392
-13376.767
-13372.929
-13373.829
-13373.929
-13373.936
-13373.932
-13373.996
-13375.448
-13375.108
-13375.454
-13377.717
-13373.829
-13374.724
-13374.824
-13374.831
-13374.817
-13374.815
-13376.066
-13375.398
-13375.584
-13377.823
-13373.929
-13374.824
-13374.925
-13374.934
-13374.922
-13374.917
-13376.155
-13375.446
-13375.603
-13377.835
-13373.936
-13374.831
-13374.934
-13374.943
-13374.932
-13374.93
-13376.168
-13375.458
-13375.631
-13377.858
-13373.932
-13374.817
-13374.922
-13374.932
-13374.922
-13374.92
-13376.16
-13375.454
-13375.693
-13378.007
-13373.996
-13374.815
-13374.917
-13374.93
-13374.92
-13374.919
-13376.162
-13375.479
-13375.903
-13379.19
-13375.448
-13376.066
-13376.155
-13376.168
-13376.16
-13376.162
-13377.421
-13376.838
-13374.649
-13377.165
-13375.108
-13375.398
-13375.446
-13375.458
-13375.454
-13375.479
-13376.838
-13375.192
-11997.183
-12005.851
-11998.068
-11999.492
-11999.677
-11999.699
-11999.721
-11999.817
-12000.521
-11998.843
-12005.851
-12004.496
-12000.414
-12001.688
-12001.838
-12001.845
-12001.836
-12001.982
-12004.226
-12001.73
-11998.068
-12000.414
-11995.935
-11997.143
-11997.285
-11997.284
-11997.23
-11997.215
-11999.764
-11999.352
-11999.492
-12001.688
-11997.143
-11998.342
-11998.483
-11998.482
-11998.414
-11998.3
-12000.572
-11999.728
-11999.677
-12001.838
-11997.285
-11998.483
-11998.625
-11998.625
-11998.559
-11998.442
-12000.693
-11999.793
-11999.699
-12001.845
-11997.284
-11998.482
-11998.625
-11998.626
-11998.561
-11998.445
-12000.697
-11999.794
-11999.721
-12001.836
-11997.23
-11998.414
-11998.559
-11998.561
-11998.496
-11998.382
-12000.635
-11999.741
-11999.817
-12001.982
-11997.215
-11998.3
-11998.442
-11998.445
-11998.382
-11998.268
-12000.532
-11999.703
-12000.521
-12004.226
-11999.764
-12000.572
-12000.693
-12000.697
-12000.635
-12000.532
-12002.852
-12002.411
-11998.843
-12001.73
-11999.352
-11999.728
-11999.793
-11999.794
-11999.741
-11999.703
-12002.411
-11999.024
-10911.055
-10920.145
-10911.359
-10913.135
-10913.372
-10913.393
-10913.396
-10913.474
-10914.572
-10912.682
-10920.145
-10918.098
-10913.615
-10915.201
-10915.392
-10915.39
-10915.333
-10915.406
-10918.542
-10915.856
-10911.359
-10913.615
-10908.643
-10910.148
-10910.328
-10910.315
-10910.196
-10910.031
-10913.493
-10913.217
-10913.135
-10915.201
-10910.148
-10911.641
-10911.82
-10911.807
-10911.668
-10911.374
-10914.486
-10913.677
-10913.372
-10915.392
-10910.328
-10911.82
-10912
-10911.988
-10911.852
-10911.553
-10914.637
-10913.756
-10913.393
-10915.39
-10910.315
-10911.807
-10911.988
-10911.977
-10911.843
-10911.545
-10914.63
-10913.744
-10913.396
-10915.333
-10910.196
-10911.668
-10911.852
-10911.843
-10911.709
-10911.411
-10914.498
-10913.625
-10913.474
-10915.406
-10910.031
-10911.374
-10911.553
-10911.545
-10911.411
-10911.115
-10914.215
-10913.457
-10914.572
-10918.542
-10913.493
-10914.486
-10914.637
-10914.63
-10914.498
-10914.215
-10917.417
-10917.453
-10912.682
-10915.856
-10913.217
-10913.677
-10913.756
-10913.744
-10913.625
-10913.457
-10917.453
-10912.702
-10027.578
-10036.894
-10027.309
-10029.425
-10029.71
-10029.728
-10029.706
-10029.743
-10031.153
-10029.158
-10036.894
-10034.195
-10029.448
-10031.333
-10031.562
-10031.548
-10031.434
-10031.398
-10035.27
-10032.563
-10027.309
-10029.448
-10024.122
-10025.91
-10026.126
-10026.099
-10025.906
-10025.556
-10029.757
-10029.719
-10029.425
-10031.333
-10025.91
-10027.683
-10027.898
-10027.871
-10027.655
-10027.146
-10030.926
-10030.257
-10029.71
-10031.562
-10026.126
-10027.898
-10028.114
-10028.088
-10027.875
-10027.359
-10031.106
-10030.349
-10029.728
-10031.548
-10026.099
-10027.871
-10028.088
-10028.063
-10027.852
-10027.337
-10031.085
-10030.322
-10029.706
-10031.434
-10025.906
-10027.655
-10027.875
-10027.852
-10027.641
-10027.126
-10030.875
-10030.128
-10029.743
-10031.398
-10025.556
-10027.146
-10027.359
-10027.337
-10027.126
-10026.612
-10030.376
-10029.792
-10031.153
-10035.27
-10029.757
-10030.926
-10031.106
-10031.085
-10030.875
-10030.376
-10034.28
-10034.933
-10029.158
-10032.563
-10029.719
-10030.257
-10030.349
-10030.322
-10030.128
-10029.792
-10034.933
-10029.14
-9290.2608
-9299.679
-9289.4804
-9291.9159
-9292.2448
-9292.2588
-9292.2074
-9292.188
-9293.8447
-9291.8037
-9299.679
-9296.4086
-9291.5131
-9293.6784
-9293.9416
-9293.9138
-9293.7377
-9293.5694
-9298.0348
-9295.4
-9289.4804
-9291.5131
-9285.9526
-9288.0051
-9288.2537
-9288.2116
-9287.9409
-9287.3839
-9292.1654
-9292.4004
-9291.9159
-9293.6784
-9288.0051
-9290.0408
-9290.2878
-9290.2454
-9289.9494
-9289.2057
-9293.5012
-9293.0128
-9292.2448
-9293.9416
-9288.2537
-9290.2878
-9290.5355
-9290.4951
-9290.2029
-9289.4504
-9293.7074
-9293.1169
-9292.2588
-9293.9138
-9288.2116
-9290.2454
-9290.4951
-9290.4557
-9290.1652
-9289.4145
-9293.672
-9293.0727
-9292.2074
-9293.7377
-9287.9409
-9289.9494
-9290.2029
-9290.1652
-9289.8747
-9289.1232
-9293.3799
-9292.7991
-9292.188
-9293.5694
-9287.3839
-9289.2057
-9289.4504
-9289.4145
-9289.1232
-9288.3707
-9292.6423
-9292.2723
-9293.8447
-9298.0348
-9292.1654
-9293.5012
-9293.7074
-9293.672
-9293.3799
-9292.6423
-9297.0901
-9298.4006
-9291.8037
-9295.4
-9292.4004
-9293.0128
-9293.1169
-9293.0727
-9292.7991
-9292.2723
-9298.4006
-9291.8161
-8661.0519
-8670.4938
-8659.8437
-8662.5749
-8662.9439
-8662.9517
-8662.8689
-8662.7833
-8664.6263
-8662.5712
-8670.4938
-8666.7534
-8661.8028
-8664.2255
-8664.5192
-8664.4763
-8664.2355
-8663.919
-8668.8496
-8666.3291
-8659.8437
-8661.8028
-8656.1055
-8658.4012
-8658.6786
-8658.6203
-8658.2712
-8657.4958
-8662.7174
-8663.2165
-8662.5749
-8664.2255
-8658.4012
-8660.6776
-8660.9533
-8660.8951
-8660.5184
-8659.531
-8664.2066
-8663.8967
-8662.9439
-8664.5192
-8658.6786
-8660.9533
-8661.2296
-8661.1739
-8660.8019
-8659.8048
-8664.4372
-8664.0113
-8662.9517
-8664.4763
-8658.6203
-8660.8951
-8661.1739
-8661.1194
-8660.7493
-8659.7541
-8664.3869
-8663.95
-8662.8689
-8664.2355
-8658.2712
-8660.5184
-8660.8019
-8660.7493
-8660.3788
-8659.3819
-8664.0119
-8663.5948
-8662.7833
-8663.919
-8657.4958
-8659.531
-8659.8048
-8659.7541
-8659.3819
-8658.3816
-8663.0245
-8662.8629
-8664.6263
-8668.8496
-8662.7174
-8664.2066
-8664.4372
-8664.3869
-8664.0119
-8663.0245
-8667.8735
-8669.8267
-8662.5712
-8666.3291
-8663.2165
-8663.8967
-8664.0113
-8663.95
-8663.5948
-8662.8629
-8669.8267
-8662.6395
-8113.5006
-8122.9177
-8111.9578
-8114.9565
-8115.361
-8115.3618
-8115.2464
-8115.088
-8117.0647
-8115.0085
-8122.9177
-8118.8145
-8113.8831
-8116.5372
-8116.8573
-8116.7989
-8116.493
-8116.0191
-8121.3
-8118.9037
-8111.9578
-8113.8831
-8108.1295
-8110.6437
-8110.9462
-8110.8716
-8110.4453
-8109.4479
-8114.986
-8115.7152
-8114.9565
-8116.5372
-8110.6437
-8113.1363
-8113.437
-8113.3632
-8112.9076
-8111.6755
-8116.6139
-8116.4564
-8115.361
-8116.8573
-8110.9462
-8113.437
-8113.7384
-8113.6676
-8113.2177
-8111.9752
-8116.8664
-8116.5801
-8115.3618
-8116.7989
-8110.8716
-8113.3632
-8113.6676
-8113.598
-8113.1503
-8111.9099
-8116.8013
-8116.5017
-8115.2464
-8116.493
-8110.4453
-8112.9076
-8113.2177
-8113.1503
-8112.7019
-8111.4587
-8116.3451
-8116.0657
-8115.088
-8116.0191
-8109.4479
-8111.6755
-8111.9752
-8111.9099
-8111.4587
-8110.2092
-8115.105
-8115.1221
-8117.0647
-8121.3
-8114.986
-8116.6139
-8116.8664
-8116.8013
-8116.3451
-8115.105
-8120.2315
-8122.7779
-8115.0085
-8118.9037
-8115.7152
-8116.4564
-8116.5801
-8116.5017
-8116.0657
-8115.1221
-8122.7779
-8115.1324
-7628.7329
-7638.0951
-7626.9487
-7630.1839
-7630.6192
-7630.6124
-7630.4645
-7630.2298
-7632.2944
-7630.2392
-7638.0951
-7633.7345
-7628.8802
-7631.7379
-7632.0804
-7632.0065
-7631.6368
-7631.0023
-7636.5322
-7634.2507
-7626.9487
-7628.8802
-7623.136
-7625.842
-7626.1659
-7626.0754
-7625.575
-7624.3585
-7630.1063
-7631.0182
-7630.1839
-7631.7379
-7625.842
-7628.5245
-7628.8465
-7628.7576
-7628.2267
-7626.7557
-7631.8565
-7631.8128
-7630.6192
-7632.0804
-7626.1659
-7628.8465
-7629.1693
-7629.0839
-7628.5599
-7627.078
-7632.1284
-7631.9442
-7630.6124
-7632.0065
-7626.0754
-7628.7576
-7629.0839
-7628.9999
-7628.4784
-7626.9988
-7632.0491
-7631.8495
-7630.4645
-7631.6368
-7625.575
-7628.2267
-7628.5599
-7628.4784
-7627.9558
-7626.4723
-7631.515
-7631.3352
-7630.2298
-7631.0023
-7624.3585
-7626.7557
-7627.078
-7626.9988
-7626.4723
-7624.9791
-7630.0267
-7630.1802
-7632.2944
-7636.5322
-7630.1063
-7631.8565
-7632.1284
-7632.0491
-7631.515
-7630.0267
-7635.3244
-7638.3949
-7630.2392
-7634.2507
-7631.0182
-7631.8128
-7631.9442
-7631.8495
-7631.3352
-7630.1802
-7638.3949
-7630.4032
-7192.9798
-7202.2678
-7191.0418
-7194.4809
-7194.9421
-7194.9274
-7194.7478
-7194.4359
-7196.5493
-7194.4916
-7202.2678
-7197.7484
-7193.0158
-7196.0477
-7196.4087
-7196.3196
-7195.889
-7195.0954
-7200.7863
-7198.5997
-7191.0418
-7193.0158
-7187.3337
-7190.2038
-7190.5453
-7190.4397
-7189.8699
-7188.4425
-7194.3085
-7195.3509
-7194.4809
-7196.0477
-7190.2038
-7193.0487
-7193.3883
-7193.2853
-7192.6843
-7190.9853
-7196.164
-7196.1911
-7194.9421
-7196.4087
-7190.5453
-7193.3883
-7193.7289
-7193.6298
-7193.0369
-7191.327
-7196.4525
-7196.3289
-7194.9274
-7196.3196
-7190.4397
-7193.2853
-7193.6298
-7193.5324
-7192.9421
-7191.2347
-7196.36
-7196.2187
-7194.7478
-7195.889
-7189.8699
-7192.6843
-7193.0369
-7192.9421
-7192.3505
-7190.6379
-7195.753
-7195.6305
-7194.4359
-7195.0954
-7188.4425
-7190.9853
-7191.327
-7191.2347
-7190.6379
-7188.9122
-7194.0265
-7194.2697
-7196.5493
-7200.7863
-7194.3085
-7196.164
-7196.4525
-7196.36
-7195.753
-7194.0265
-7199.4055
-7202.9214
-7194.4916
-7198.5997
-7195.3509
-7196.1911
-7196.3289
-7196.2187
-7195.6305
-7194.2697
-7202.9214
-7194.6719
-6796.0054
-6805.2051
-6793.992
-6797.6014
-6798.0836
-6798.0611
-6797.8514
-6797.4636
-6799.5928
-6797.5267
-6805.2051
-6800.6159
-6796.0383
-6799.2146
-6799.5902
-6799.4869
-6798.9995
-6798.0521
-6803.8282
-6801.7124
-6793.992
-6796.0383
-6790.4606
-6793.4666
-6793.822
-6793.7026
-6793.0692
-6791.4432
-6797.3504
-6798.4711
-6797.6014
-6799.2146
-6793.4666
-6796.4458
-6796.7995
-6796.6835
-6796.0186
-6794.1072
-6799.2934
-6799.3487
-6798.0836
-6799.5902
-6793.822
-6796.7995
-6797.1543
-6797.0428
-6796.3871
-6794.4648
-6799.5957
-6799.4917
-6798.0611
-6799.4869
-6793.7026
-6796.6835
-6797.0428
-6796.9331
-6796.2804
-6794.3606
-6799.4912
-6799.3674
-6797.8514
-6798.9995
-6793.0692
-6796.0186
-6796.3871
-6796.2804
-6795.6259
-6793.6998
-6798.8174
-6798.7107
-6797.4636
-6798.0521
-6791.4432
-6794.1072
-6794.4648
-6794.3606
-6793.6998
-6791.7569
-6796.8675
-6797.1541
-6799.5928
-6803.8282
-6797.3504
-6799.2934
-6799.5957
-6799.4912
-6798.8174
-6796.8675
-6802.2527
-6806.1325
-6797.5267
-6801.7124
-6798.4711
-6799.3487
-6799.4917
-6799.3674
-6798.7107
-6797.1541
-6806.1325
-6797.6967
-6430.0764
-6439.1758
-6428.0554
-6431.8013
-6432.2997
-6432.2697
-6432.0321
-6431.5714
-6433.6891
-6431.6086
-6439.1758
-6434.5947
-6430.1962
-6433.4872
-6433.8736
-6433.7571
-6433.2178
-6432.1255
-6437.9219
-6435.8525
-6428.0554
-6430.1962
-6424.7565
-6427.87
-6428.236
-6428.1041
-6427.4136
-6425.6051
-6431.4887
-6432.6395
-6431.8013
-6433.4872
-6427.87
-6430.9558
-6431.3201
-6431.1925
-6430.4707
-6428.3655
-6433.5015
-6433.5465
-6432.2997
-6433.8736
-6428.236
-6431.3201
-6431.6857
-6431.563
-6430.8516
-6428.7356
-6433.8149
-6433.6933
-6432.2697
-6433.7571
-6428.1041
-6431.1925
-6431.563
-6431.4424
-6430.7341
-6428.6209
-6433.6997
-6433.5563
-6432.0321
-6433.2178
-6427.4136
-6430.4707
-6430.8516
-6430.7341
-6430.0238
-6427.9031
-6432.9661
-6432.8377
-6431.5714
-6432.1255
-6425.6051
-6428.3655
-6428.7356
-6428.6209
-6427.9031
-6425.7619
-6430.8112
-6431.0991
-6433.6891
-6437.9219
-6431.4887
-6433.5015
-6433.8149
-6433.6997
-6432.9661
-6430.8112
-6436.1408
-6440.3046
-6431.6086
-6435.8525
-6432.6395
-6433.5465
-6433.6933
-6433.5563
-6432.8377
-6431.0991
-6440.3046
-6431.742
-6089.2694
-6098.2561
-6087.2973
-6091.146
-6091.6561
-6091.619
-6091.356
-6090.8271
-6092.9109
-6090.8112
-6098.2561
-6093.7494
-6089.5469
-6092.9231
-6093.3168
-6093.1885
-6092.603
-6091.3768
-6097.1389
-6095.0939
-6087.2973
-6089.5469
-6084.2713
-6087.4647
-6087.8378
-6087.6949
-6086.9546
-6084.9819
-6090.7888
-6091.927
-6091.146
-6092.9231
-6087.4647
-6090.6294
-6091.001
-6090.8633
-6090.0923
-6087.8145
-6092.8535
-6092.8553
-6091.6561
-6093.3168
-6087.8378
-6091.001
-6091.3741
-6091.2419
-6090.4821
-6088.1938
-6093.1754
-6093.0047
-6091.619
-6093.1885
-6087.6949
-6090.8633
-6091.2419
-6091.1117
-6090.3554
-6088.0701
-6093.0509
-6092.8567
-6091.356
-6092.603
-6086.9546
-6090.0923
-6090.4821
-6090.3554
-6089.5967
-6087.3027
-6092.265
-6092.0833
-6090.8271
-6091.3768
-6084.9819
-6087.8145
-6088.1938
-6088.0701
-6087.3027
-6084.9846
-6089.9264
-6090.1793
-6092.9109
-6097.1389
-6090.7888
-6092.8535
-6093.1754
-6093.0509
-6092.265
-6089.9264
-6095.1505
-6099.5227
-6090.8112
-6095.0939
-6091.927
-6092.8553
-6093.0047
-6092.8567
-6092.0833
-6090.1793
-6099.5227
-6090.8844
-5768.9932
-5777.8535
-5767.1153
-5771.0341
-5771.5514
-5771.5078
-5771.2222
-5770.6308
-5772.6628
-5770.5414
-5777.8535
-5773.4761
-5769.4805
-5772.9133
-5773.3109
-5773.1723
-5772.5466
-5771.1999
-5776.8818
-5774.8428
-5767.1153
-5769.4805
-5764.3891
-5767.6354
-5768.0126
-5767.8604
-5767.0777
-5764.9611
-5770.6478
-5771.7374
-5771.0341
-5772.9133
-5767.6354
-5770.8524
-5771.2283
-5771.0821
-5770.2695
-5767.842
-5772.7471
-5772.6792
-5771.5514
-5773.3109
-5768.0126
-5771.2283
-5771.6058
-5771.4654
-5770.665
-5768.2275
-5773.0747
-5772.8302
-5771.5078
-5773.1723
-5767.8604
-5771.0821
-5771.4654
-5771.3273
-5770.5306
-5768.0961
-5772.9425
-5772.6727
-5771.2222
-5772.5466
-5767.0777
-5770.2695
-5770.665
-5770.5306
-5769.7312
-5767.2869
-5772.1123
-5771.8523
-5770.6308
-5771.1999
-5764.9611
-5767.842
-5768.2275
-5768.0961
-5767.2869
-5764.8151
-5769.613
-5769.8016
-5772.6628
-5776.8818
-5770.6478
-5772.7471
-5773.0747
-5772.9425
-5772.1123
-5769.613
-5774.6922
-5779.2035
-5770.5414
-5774.8428
-5771.7374
-5772.6792
-5772.8302
-5772.6727
-5771.8523
-5769.8016
-5779.2035
-5770.5344
-5465.6535
-5474.3713
-5463.9046
-5467.8617
-5468.382
-5468.3326
-5468.0276
-5467.3803
-5469.3464
-5467.2029
-5474.3713
-5470.1675
-5466.3849
-5469.8468
-5470.2453
-5470.0979
-5469.4384
-5467.9857
-5473.5495
-5471.5026
-5463.9046
-5466.3849
-5461.4933
-5464.7665
-5465.1448
-5464.9849
-5464.1677
-5461.9285
-5467.4602
-5468.4724
-5467.8617
-5469.8468
-5464.7665
-5468.0101
-5468.3873
-5468.2342
-5467.3881
-5464.8347
-5469.5773
-5469.4201
-5468.382
-5470.2453
-5465.1448
-5468.3873
-5468.7662
-5468.6193
-5467.7862
-5465.2234
-5469.9081
-5469.5714
-5468.3326
-5470.0979
-5464.9849
-5468.2342
-5468.6193
-5468.4749
-5467.6456
-5465.0859
-5469.7696
-5469.4063
-5468.0276
-5469.4384
-5464.1677
-5467.3881
-5467.7862
-5467.6456
-5466.8134
-5464.2429
-5468.9031
-5468.5467
-5467.3803
-5467.9857
-5461.9285
-5464.8347
-5465.2234
-5465.0859
-5464.2429
-5461.6417
-5466.2678
-5466.3695
-5469.3464
-5473.5495
-5467.4602
-5469.5773
-5469.9081
-5469.7696
-5468.9031
-5466.2678
-5471.1712
-5475.7595
-5467.2029
-5471.5026
-5468.4724
-5469.4201
-5469.5714
-5469.4063
-5468.5467
-5466.3695
-5475.7595
-5467.1005
-5176.4123
-5184.9691
-5174.8174
-5178.7824
-5179.3019
-5179.2473
-5178.9262
-5178.2302
-5180.1195
-5177.9563
-5184.9691
-5180.9733
-5177.4063
-5180.8711
-5181.2676
-5181.113
-5180.4262
-5178.8831
-5184.2977
-5182.2338
-5174.8174
-5177.4063
-5172.7258
-5176.0013
-5176.378
-5176.2121
-5175.3681
-5173.0285
-5178.3775
-5179.2904
-5178.7824
-5180.8711
-5176.0013
-5179.2471
-5179.6228
-5179.4645
-5178.5927
-5175.9381
-5180.4963
-5180.2367
-5179.3019
-5181.2676
-5176.378
-5179.6228
-5180.0004
-5179.8486
-5178.9905
-5176.327
-5180.8278
-5180.3872
-5179.2473
-5181.113
-5176.2121
-5179.4645
-5179.8486
-5179.6994
-5178.8453
-5176.1849
-5180.6846
-5180.2162
-5178.9262
-5180.4262
-5175.3681
-5178.5927
-5178.9905
-5178.8453
-5177.9881
-5175.316
-5179.7901
-5179.3256
-5178.2302
-5178.8831
-5173.0285
-5175.9381
-5176.327
-5176.1849
-5175.316
-5172.6103
-5177.0438
-5177.043
-5180.1195
-5184.2977
-5178.3775
-5180.4963
-5180.8278
-5180.6846
-5179.7901
-5177.0438
-5181.7483
-5186.3591
-5177.9563
-5182.2338
-5179.2904
-5180.2367
-5180.3872
-5180.2162
-5179.3256
-5177.043
-5186.3591
-5177.748
-4899.0121
-4907.3874
-4897.5877
-4901.532
-4902.0469
-4901.988
-4901.654
-4900.9168
-4902.7216
-4900.5431
-4907.3874
-4903.6252
-4900.2734
-4903.7165
-4904.1082
-4903.9481
-4903.2406
-4901.6232
-4906.8634
-4904.7778
-4897.5877
-4900.2734
-4895.8123
-4899.0668
-4899.4393
-4899.2692
-4898.406
-4895.9882
-4901.1334
-4901.9314
-4901.532
-4903.7165
-4899.0668
-4902.2917
-4902.6634
-4902.5015
-4901.6119
-4898.8804
-4903.2385
-4902.8694
-4902.0469
-4904.1082
-4899.4393
-4902.6634
-4903.0372
-4902.882
-4902.0067
-4899.2669
-4903.5684
-4903.0183
-4901.988
-4903.9481
-4899.2692
-4902.5015
-4902.882
-4902.7295
-4901.8583
-4899.1216
-4903.422
-4902.843
-4901.654
-4903.2406
-4898.406
-4901.6119
-4902.0067
-4901.8583
-4900.9838
-4898.2347
-4902.5074
-4901.9295
-4900.9168
-4901.6232
-4895.9882
-4898.8804
-4899.2669
-4899.1216
-4898.2347
-4895.4494
-4899.6756
-4899.5632
-4902.7216
-4906.8634
-4901.1334
-4903.2385
-4903.5684
-4903.422
-4902.5074
-4899.6756
-4904.1646
-4908.7505
-4900.5431
-4904.7778
-4901.9314
-4902.8694
-4903.0183
-4902.843
-4901.9295
-4899.5632
-4908.7505
-4900.223
-4631.6464
-4639.8178
-4630.4017
-4634.2981
-4634.8051
-4634.7426
-4634.3989
-4633.6285
-4635.3432
-4633.1562
-4639.8178
-4636.3072
-4633.1681
-4636.5661
-4636.9507
-4636.7867
-4636.065
-4634.3895
-4639.4353
-4637.3277
-4630.4017
-4633.1681
-4628.9319
-4632.1436
-4632.5096
-4632.3368
-4631.4621
-4628.9883
-4633.9135
-4634.587
-4634.2981
-4636.5661
-4632.1436
-4635.326
-4635.6915
-4635.5274
-4634.6276
-4631.8435
-4635.9907
-4635.5104
-4634.8051
-4636.9507
-4632.5096
-4635.6915
-4636.0591
-4635.902
-4635.0169
-4632.225
-4636.3167
-4635.6566
-4634.7426
-4636.7867
-4632.3368
-4635.5274
-4635.902
-4635.7476
-4634.8667
-4632.078
-4636.1684
-4635.4787
-4634.3989
-4636.065
-4631.4621
-4634.6276
-4635.0169
-4634.8667
-4633.9823
-4631.1806
-4635.2416
-4634.5502
-4633.6285
-4634.3895
-4628.9883
-4631.8435
-4632.225
-4632.078
-4631.1806
-4628.3404
-4632.3496
-4632.1219
-4635.3432
-4639.4353
-4633.9135
-4635.9907
-4636.3167
-4636.1684
-4635.2416
-4632.3496
-4636.6117
-4641.1326
-4633.1562
-4637.3277
-4634.587
-4635.5104
-4635.6566
-4635.4787
-4634.5502
-4632.1219
-4641.1326
-4632.7225
-4372.8617
-4380.8052
-4371.7993
-4375.6226
-4376.1186
-4376.0534
-4375.7033
-4374.9075
-4376.5285
-4374.3414
-4380.8052
-4377.5574
-4374.627
-4377.9585
-4378.3337
-4378.1675
-4377.4377
-4375.7204
-4380.5562
-4378.4299
-4371.7993
-4374.627
-4370.6193
-4373.768
-4374.1255
-4373.9516
-4373.0723
-4370.5643
-4375.2579
-4375.8026
-4375.6226
-4377.9585
-4373.768
-4376.8879
-4377.245
-4377.0803
-4376.1775
-4373.3644
-4377.2938
-4376.7053
-4376.1186
-4378.3337
-4374.1255
-4377.245
-4377.6043
-4377.4466
-4376.5589
-4373.7386
-4377.6139
-4376.848
-4376.0534
-4378.1675
-4373.9516
-4377.0803
-4377.4466
-4377.2919
-4376.4084
-4373.5912
-4377.465
-4376.669
-4375.7033
-4377.4377
-4373.0723
-4376.1775
-4376.5589
-4376.4084
-4375.5212
-4372.6904
-4376.5336
-4375.7331
-4374.9075
-4375.7204
-4370.5643
-4373.3644
-4373.7386
-4373.5912
-4372.6904
-4369.8194
-4373.606
-4373.2643
-4376.5285
-4380.5562
-4375.2579
-4377.2938
-4377.6139
-4377.465
-4376.5336
-4373.606
-4377.6345
-4382.0567
-4374.3414
-4378.4299
-4375.8026
-4376.7053
-4376.848
-4376.669
-4375.7331
-4373.2643
-4382.0567
-4373.7963
-4121.4826
-4129.1735
-4120.6003
-4124.3271
-4124.8093
-4124.7421
-4124.3887
-4123.5753
-4125.1008
-4122.9234
-4129.1735
-4126.1943
-4123.4673
-4126.7124
-4127.0764
-4126.9093
-4126.1776
-4124.4344
-4129.0481
-4126.9096
-4120.6003
-4123.4673
-4119.6902
-4122.7571
-4123.1041
-4122.9306
-4122.0538
-4119.5324
-4123.9866
-4124.4022
-4124.3271
-4126.7124
-4122.7571
-4125.796
-4126.1428
-4125.9789
-4125.0801
-4122.2606
-4125.9687
-4125.2788
-4124.8093
-4127.0764
-4123.1041
-4126.1428
-4126.4919
-4126.3351
-4125.4514
-4122.6253
-4126.2809
-4125.4172
-4124.7421
-4126.9093
-4122.9306
-4125.9789
-4126.3351
-4126.1812
-4125.3017
-4122.4787
-4126.1328
-4125.2386
-4124.3887
-4126.1776
-4122.0538
-4125.0801
-4125.4514
-4125.3017
-4124.4186
-4121.5816
-4125.204
-4124.3027
-4123.5753
-4124.4344
-4119.5324
-4122.2606
-4122.6253
-4122.4787
-4121.5816
-4118.7029
-4122.2646
-4121.8143
-4125.1008
-4129.0481
-4123.9866
-4125.9687
-4126.2809
-4126.1328
-4125.204
-4122.2646
-4126.0562
-4130.3522
-4122.9234
-4126.9096
-4124.4022
-4125.2788
-4125.4172
-4125.2386
-4124.3027
-4121.8143
-4130.3522
-4122.2724
-3876.5551
-3883.968
-3875.8461
-3879.4551
-3879.9209
-3879.8525
-3879.4989
-3878.6754
-3880.1048
-3877.9481
-3883.968
-3881.2586
-3878.729
-3881.8696
-3882.2204
-3882.0541
-3881.3261
-3879.5723
-3883.9551
-3881.8135
-3875.8461
-3878.729
-3875.183
-3878.1511
-3878.4859
-3878.3143
-3877.4464
-3874.9317
-3879.1416
-3879.4317
-3879.4551
-3881.8696
-3878.1511
-3881.0921
-3881.4269
-3881.2651
-3880.3767
-3877.5725
-3881.0585
-3880.277
-3879.9209
-3882.2204
-3878.4859
-3881.4269
-3881.764
-3881.6093
-3880.736
-3877.9257
-3881.3611
-3880.4104
-3879.8525
-3882.0541
-3878.3143
-3881.2651
-3881.6093
-3881.4575
-3880.5885
-3877.7812
-3881.2149
-3880.2337
-3879.4989
-3881.3261
-3877.4464
-3880.3767
-3880.736
-3880.5885
-3879.7157
-3876.8942
-3880.2954
-3879.3047
-3878.6754
-3879.5723
-3874.9317
-3877.5725
-3877.9257
-3877.7812
-3876.8942
-3874.0299
-3877.367
-3876.8169
-3880.1048
-3883.9551
-3879.1416
-3881.0585
-3881.3611
-3881.2149
-3880.2954
-3877.367
-3880.9214
-3885.0688
-3877.9481
-3881.8135
-3879.4317
-3880.277
-3880.4104
-3880.2337
-3879.3047
-3876.8169
-3885.0688
-3877.1991
-3637.3006
-3644.4103
-3636.7553
-3640.227
-3640.674
-3640.6051
-3640.2541
-3639.428
-3640.7617
-3638.6374
-3644.4103
-3641.9681
-3639.6297
-3642.6492
-3642.9853
-3642.821
-3642.1023
-3640.3526
-3644.4983
-3642.3644
-3636.7553
-3639.6297
-3636.3144
-3639.1683
-3639.4893
-3639.3209
-3638.4678
-3635.9789
-3639.942
-3640.1131
-3640.227
-3642.6492
-3639.1683
-3641.996
-3642.3172
-3642.1587
-3641.2867
-3638.5182
-3641.7833
-3640.9226
-3640.674
-3642.9853
-3639.4893
-3642.3172
-3642.6407
-3642.4893
-3641.6323
-3638.8582
-3642.0747
-3641.0502
-3640.6051
-3642.821
-3639.3209
-3642.1587
-3642.4893
-3642.3407
-3641.488
-3638.7167
-3641.9314
-3640.8766
-3640.2541
-3642.1023
-3638.4678
-3641.2867
-3641.6323
-3641.488
-3640.6315
-3637.8459
-3641.0277
-3639.9612
-3639.428
-3640.3526
-3635.9789
-3638.5182
-3638.8582
-3638.7167
-3637.8459
-3635.0169
-3638.132
-3637.4933
-3640.7617
-3644.4983
-3639.942
-3641.7833
-3642.0747
-3641.9314
-3641.0277
-3638.132
-3641.4511
-3645.4322
-3638.6374
-3642.3644
-3640.1131
-3640.9226
-3641.0502
-3640.8766
-3639.9612
-3637.4933
-3645.4322
-3637.8006
-3403.0818
-3409.8634
-3402.6879
-3406.0046
-3406.4308
-3406.3622
-3406.0164
-3405.1946
-3406.4339
-3404.3541
-3409.8634
-3407.683
-3405.529
-3408.4125
-3408.7325
-3408.5716
-3407.8671
-3406.1355
-3410.0399
-3407.9263
-3402.6879
-3405.529
-3402.4435
-3405.1689
-3405.4749
-3405.3109
-3404.4783
-3402.0329
-3405.7488
-3405.8096
-3406.0046
-3408.4125
-3405.1689
-3407.8695
-3408.1758
-3408.0217
-3407.1718
-3404.458
-3407.505
-3406.579
-3406.4308
-3408.7325
-3405.4749
-3408.1758
-3408.4844
-3408.3372
-3407.5021
-3404.7831
-3407.7838
-3406.7003
-3406.3622
-3408.5716
-3405.3109
-3408.0217
-3408.3372
-3408.1929
-3407.3619
-3404.6457
-3407.6444
-3406.531
-3406.0164
-3407.8671
-3404.4783
-3407.1718
-3407.5021
-3407.3619
-3406.5272
-3403.7966
-3406.7622
-3405.6352
-3405.1946
-3406.1355
-3402.0329
-3404.458
-3404.7831
-3404.6457
-3403.7966
-3401.0224
-3403.9194
-3403.2053
-3406.4339
-3410.0399
-3405.7488
-3407.505
-3407.7838
-3407.6444
-3406.7622
-3403.9194
-3407.007
-3410.8083
-3404.3541
-3407.9263
-3405.8096
-3406.579
-3406.7003
-3406.531
-3405.6352
-3403.2053
-3410.8083
-3403.4413
-3173.3738
-3179.8033
-3173.1174
-3176.2632
-3176.6668
-3176.5991
-3176.261
-3175.4502
-3176.5969
-3174.5739
-3179.8033
-3177.8769
-3175.9008
-3178.6349
-3178.9376
-3178.7812
-3178.0957
-3176.3952
-3180.0559
-3177.976
-3173.1174
-3175.9008
-3173.0432
-3175.6278
-3175.9176
-3175.759
-3174.9521
-3172.5668
-3176.0365
-3175.9973
-3176.2632
-3178.6349
-3175.6278
-3178.1888
-3178.479
-3178.3303
-3177.5076
-3174.8662
-3177.6992
-3176.7229
-3176.6668
-3178.9376
-3175.9176
-3178.479
-3178.7714
-3178.6294
-3177.8212
-3175.175
-3177.9639
-3176.8373
-3176.5991
-3178.7812
-3175.759
-3178.3303
-3178.6294
-3178.4903
-3177.6861
-3175.0425
-3177.8294
-3176.6734
-3176.261
-3178.0957
-3174.9521
-3177.5076
-3177.8212
-3177.6861
-3176.8781
-3174.2203
-3176.9742
-3175.803
-3175.4502
-3176.3952
-3172.5668
-3174.8662
-3175.175
-3175.0425
-3174.2203
-3171.519
-3174.2032
-3173.4281
-3176.5969
-3180.0559
-3176.0365
-3177.6992
-3177.9639
-3177.8294
-3176.9742
-3174.2032
-3177.0642
-3180.6754
-3174.5739
-3177.976
-3175.9973
-3176.7229
-3176.8373
-3176.6734
-3175.803
-3173.4281
-3180.6754
-3173.5978
-2947.7424
-2953.7969
-2947.6087
-2950.5695
-2950.9488
-2950.8827
-2950.5546
-2949.7609
-2950.8174
-2948.8632
-2953.7969
-2952.1153
-2950.3105
-2952.8833
-2953.1676
-2953.0169
-2952.3546
-2950.6973
-2954.1135
-2952.0811
-2947.6087
-2950.3105
-2947.6788
-2950.1113
-2950.3838
-2950.2317
-2949.4551
-2947.1452
-2950.371
-2950.2433
-2950.5695
-2952.8833
-2950.1113
-2952.5218
-2952.7947
-2952.6523
-2951.8615
-2949.3088
-2951.9327
-2950.9218
-2950.9488
-2953.1676
-2950.3838
-2952.7947
-2953.0698
-2952.934
-2952.1571
-2949.6
-2952.1822
-2951.0289
-2950.8827
-2953.0169
-2950.2317
-2952.6523
-2952.934
-2952.8009
-2952.0279
-2949.4732
-2952.0532
-2950.8713
-2950.5546
-2952.3546
-2949.4551
-2951.8615
-2952.1571
-2952.0279
-2951.2513
-2948.6826
-2951.23
-2950.0315
-2949.7609
-2950.6973
-2947.1452
-2949.3088
-2949.6
-2949.4732
-2948.6826
-2946.0709
-2948.5481
-2947.7273
-2950.8174
-2954.1135
-2950.371
-2951.9327
-2952.1822
-2952.0532
-2951.23
-2948.5481
-2951.1886
-2954.6024
-2948.8632
-2952.0811
-2950.2433
-2950.9218
-2951.0289
-2950.8713
-2950.0315
-2947.7273
-2954.6024
-2947.8374
-2725.827
-2731.4848
-2725.8005
-2728.5637
-2728.9174
-2728.8534
-2728.5374
-2727.7664
-2728.7354
-2726.8618
-2731.4848
-2730.0378
-2728.3978
-2730.7988
-2731.0638
-2730.9197
-2730.2846
-2728.6816
-2731.8535
-2729.8826
-2725.8005
-2728.3978
-2725.9895
-2728.2602
-2728.5144
-2728.3697
-2727.6278
-2725.4072
-2728.3922
-2728.1881
-2728.5637
-2730.7988
-2728.2602
-2730.5102
-2730.765
-2730.6298
-2729.875
-2727.4259
-2729.8461
-2728.8166
-2728.9174
-2731.0638
-2728.5144
-2730.765
-2731.022
-2730.893
-2730.1516
-2727.6984
-2730.0793
-2728.9159
-2728.8534
-2730.9197
-2728.3697
-2730.6298
-2730.893
-2730.7667
-2730.029
-2727.578
-2729.9567
-2728.7655
-2728.5374
-2730.2846
-2727.6278
-2729.875
-2730.1516
-2730.029
-2729.2879
-2726.8231
-2729.1698
-2727.961
-2727.7664
-2728.6816
-2725.4072
-2727.4259
-2727.6984
-2727.578
-2726.8231
-2724.3163
-2726.593