/*--------------------------------*- C++ -*----------------------------------*\
| =========                 |                                                 |
| \\      /  F ield         | OpenFOAM: The Open Source CFD Toolbox           |
|  \\    /   O peration     | Version:  v2106                                 |
|   \\  /    A nd           | Website:  www.openfoam.com                      |
|    \\/     M anipulation  |                                                 |
\*---------------------------------------------------------------------------*/
FoamFile
{
    version     2.0;
    format      ascii;
    arch        "LSB;label=32;scalar=64";
    class       volScalarField;
    location    "15";
    object      T;
}
// * * * * * * * * * * * * * * * * * * * * * * * * * * * * * * * * * * * * * //

dimensions      [0 0 0 1 0 0 0];

internalField   nonuniform List<scalar> 
4000
(
275.40837
275.40839
275.40837
275.40837
275.40836
275.40837
275.40837
275.40837
275.40837
275.40837
275.40839
275.40839
275.40838
275.40837
275.40837
275.40837
275.40837
275.40838
275.40838
275.40838
275.40837
275.40838
275.40836
275.40835
275.40835
275.40835
275.40835
275.40836
275.40837
275.40837
275.40837
275.40837
275.40835
275.40835
275.40835
275.40835
275.40835
275.40836
275.40836
275.40837
275.40836
275.40837
275.40835
275.40835
275.40835
275.40835
275.40835
275.40836
275.40836
275.40837
275.40837
275.40837
275.40835
275.40835
275.40835
275.40835
275.40835
275.40836
275.40836
275.40837
275.40837
275.40837
275.40835
275.40835
275.40835
275.40835
275.40836
275.40836
275.40837
275.40837
275.40837
275.40838
275.40836
275.40836
275.40836
275.40836
275.40836
275.40837
275.40837
275.40838
275.40837
275.40838
275.40837
275.40836
275.40836
275.40836
275.40837
275.40837
275.40838
275.40838
275.40837
275.40838
275.40837
275.40837
275.40837
275.40837
275.40837
275.40838
275.40838
275.40839
296.45018
296.45033
296.45016
296.45011
296.4501
296.4501
296.45012
296.45015
296.45018
296.45018
296.45033
296.45034
296.45019
296.45014
296.45013
296.45013
296.45016
296.45019
296.45024
296.45023
296.45016
296.45019
296.45005
296.45
296.44999
296.45
296.45002
296.45007
296.45013
296.45015
296.45011
296.45014
296.45
296.44996
296.44995
296.44996
296.44999
296.45003
296.45009
296.45012
296.4501
296.45013
296.44999
296.44995
296.44994
296.44995
296.44998
296.45002
296.45009
296.45012
296.4501
296.45013
296.45
296.44996
296.44995
296.44996
296.44999
296.45004
296.4501
296.45013
296.45012
296.45016
296.45002
296.44999
296.44998
296.44999
296.45002
296.45007
296.45013
296.45016
296.45015
296.45019
296.45007
296.45003
296.45002
296.45004
296.45007
296.45012
296.45018
296.45021
296.45018
296.45024
296.45013
296.45009
296.45009
296.4501
296.45013
296.45018
296.45024
296.45027
296.45018
296.45023
296.45015
296.45012
296.45012
296.45013
296.45016
296.45021
296.45027
296.45029
315.97395
315.97411
315.97385
315.97376
315.97374
315.97375
315.97379
315.97385
315.9739
315.97388
315.97411
315.97407
315.97384
315.97376
315.97374
315.97375
315.9738
315.97387
315.97396
315.97394
315.97385
315.97384
315.97361
315.97354
315.97352
315.97354
315.97358
315.97367
315.97379
315.97383
315.97376
315.97376
315.97354
315.97347
315.97345
315.97347
315.97352
315.97361
315.97374
315.97378
315.97374
315.97374
315.97352
315.97345
315.97344
315.97346
315.97351
315.9736
315.97373
315.97377
315.97375
315.97375
315.97354
315.97347
315.97346
315.97348
315.97353
315.97362
315.97376
315.97379
315.97379
315.9738
315.97358
315.97352
315.97351
315.97353
315.97359
315.97368
315.97381
315.97385
315.97385
315.97387
315.97367
315.97361
315.9736
315.97362
315.97368
315.97377
315.97391
315.97394
315.9739
315.97396
315.97379
315.97374
315.97373
315.97376
315.97381
315.97391
315.97403
315.97407
315.97388
315.97394
315.97383
315.97378
315.97377
315.97379
315.97385
315.97394
315.97407
315.97406
334.1601
334.16025
334.15991
334.15981
334.15978
334.1598
334.15986
334.15995
334.16005
334.16003
334.16025
334.16017
334.15987
334.15978
334.15975
334.15977
334.15984
334.15995
334.16011
334.1601
334.15991
334.15987
334.15959
334.1595
334.15947
334.1595
334.15957
334.1597
334.1599
334.15995
334.15981
334.15978
334.1595
334.15941
334.15939
334.15942
334.15949
334.15962
334.15983
334.15989
334.15978
334.15975
334.15947
334.15939
334.15937
334.1594
334.15948
334.15961
334.15982
334.15988
334.1598
334.15977
334.1595
334.15942
334.1594
334.15943
334.15951
334.15965
334.15986
334.15992
334.15986
334.15984
334.15957
334.15949
334.15948
334.15951
334.15959
334.15973
334.15994
334.16
334.15995
334.15995
334.1597
334.15962
334.15961
334.15965
334.15973
334.15986
334.16007
334.16014
334.16005
334.16011
334.1599
334.15983
334.15982
334.15986
334.15994
334.16007
334.16028
334.16033
334.16003
334.1601
334.15995
334.15989
334.15988
334.15992
334.16
334.16014
334.16033
334.16031
351.14625
351.14638
351.14598
351.14586
351.14583
351.14586
351.14594
351.14607
351.14622
351.14622
351.14638
351.14625
351.14591
351.1458
351.14578
351.14581
351.14589
351.14605
351.14627
351.14628
351.14598
351.14591
351.14557
351.14548
351.14546
351.14549
351.14558
351.14575
351.14602
351.14611
351.14586
351.1458
351.14548
351.14538
351.14537
351.1454
351.1455
351.14566
351.14595
351.14604
351.14583
351.14578
351.14546
351.14537
351.14535
351.14539
351.14549
351.14566
351.14594
351.14604
351.14586
351.14581
351.14549
351.1454
351.14539
351.14543
351.14553
351.1457
351.14598
351.14608
351.14594
351.14589
351.14558
351.1455
351.14549
351.14553
351.14563
351.1458
351.14609
351.14619
351.14607
351.14605
351.14575
351.14566
351.14566
351.1457
351.1458
351.14597
351.14626
351.14636
351.14622
351.14627
351.14602
351.14595
351.14594
351.14598
351.14609
351.14626
351.14654
351.14663
351.14622
351.14628
351.14611
351.14604
351.14604
351.14608
351.14619
351.14636
351.14663
351.1466
367.04103
367.04114
367.04069
367.04057
367.04055
367.04059
367.04069
367.04085
367.04105
367.04106
367.04114
367.04098
367.04059
367.04049
367.04047
367.04051
367.04062
367.0408
367.04108
367.04112
367.04069
367.04059
367.04023
367.04013
367.04012
367.04016
367.04027
367.04047
367.04081
367.04093
367.04057
367.04049
367.04013
367.04004
367.04003
367.04008
367.04019
367.04038
367.04073
367.04086
367.04055
367.04047
367.04012
367.04003
367.04002
367.04007
367.04018
367.04038
367.04073
367.04086
367.04059
367.04051
367.04016
367.04008
367.04007
367.04012
367.04023
367.04043
367.04078
367.04092
367.04069
367.04062
367.04027
367.04019
367.04018
367.04023
367.04035
367.04055
367.0409
367.04103
367.04085
367.0408
367.04047
367.04038
367.04038
367.04043
367.04055
367.04075
367.0411
367.04124
367.04105
367.04108
367.04081
367.04073
367.04073
367.04078
367.0409
367.0411
367.04146
367.04159
367.04106
367.04112
367.04093
367.04086
367.04086
367.04092
367.04103
367.04124
367.04159
367.04156
381.93283
381.93292
381.93244
381.93233
381.93232
381.93237
381.93248
381.93267
381.9329
381.93293
381.93292
381.93273
381.93233
381.93223
381.93222
381.93227
381.93239
381.9326
381.93293
381.933
381.93244
381.93233
381.93195
381.93186
381.93185
381.9319
381.93202
381.93224
381.93263
381.9328
381.93233
381.93223
381.93186
381.93177
381.93177
381.93182
381.93194
381.93216
381.93256
381.93273
381.93232
381.93222
381.93185
381.93177
381.93177
381.93182
381.93194
381.93216
381.93256
381.93273
381.93237
381.93227
381.9319
381.93182
381.93182
381.93188
381.932
381.93222
381.93262
381.93279
381.93248
381.93239
381.93202
381.93194
381.93194
381.932
381.93212
381.93234
381.93275
381.93292
381.93267
381.9326
381.93224
381.93216
381.93216
381.93222
381.93234
381.93257
381.93297
381.93315
381.9329
381.93293
381.93263
381.93256
381.93256
381.93262
381.93275
381.93297
381.93339
381.93356
381.93293
381.933
381.9328
381.93273
381.93273
381.93279
381.93292
381.93315
381.93356
381.93353
395.89541
395.89549
395.895
395.89489
395.89489
395.89496
395.89508
395.89528
395.89554
395.89559
395.89549
395.89529
395.89487
395.89478
395.89479
395.89485
395.89497
395.8952
395.89557
395.89566
395.895
395.89487
395.89448
395.8944
395.89441
395.89447
395.89459
395.89483
395.89526
395.89545
395.89489
395.89478
395.8944
395.89433
395.89434
395.8944
395.89452
395.89475
395.89519
395.89538
395.89489
395.89479
395.89441
395.89434
395.89435
395.89441
395.89453
395.89476
395.89519
395.89539
395.89496
395.89485
395.89447
395.8944
395.89441
395.89447
395.8946
395.89482
395.89526
395.89545
395.89508
395.89497
395.89459
395.89452
395.89453
395.8946
395.89472
395.89495
395.89539
395.89558
395.89528
395.8952
395.89483
395.89475
395.89476
395.89482
395.89495
395.89518
395.89563
395.89583
395.89554
395.89557
395.89526
395.89519
395.89519
395.89526
395.89539
395.89563
395.89608
395.89629
395.89559
395.89566
395.89545
395.89538
395.89539
395.89545
395.89558
395.89583
395.89629
395.89627
408.99173
408.9918
408.9913
408.99121
408.99122
408.99129
408.99142
408.99163
408.99192
408.99198
408.9918
408.99158
408.99117
408.9911
408.99111
408.99118
408.99131
408.99154
408.99194
408.99204
408.9913
408.99117
408.99078
408.99072
408.99073
408.9908
408.99093
408.99116
408.99162
408.99184
408.99121
408.9911
408.99072
408.99066
408.99068
408.99075
408.99087
408.99109
408.99156
408.99177
408.99122
408.99111
408.99073
408.99068
408.9907
408.99076
408.99088
408.99111
408.99157
408.99178
408.99129
408.99118
408.9908
408.99075
408.99076
408.99083
408.99095
408.99117
408.99163
408.99184
408.99142
408.99131
408.99093
408.99087
408.99088
408.99095
408.99107
408.9913
408.99176
408.99198
408.99163
408.99154
408.99116
408.99109
408.99111
408.99117
408.9913
408.99153
408.992
408.99223
408.99192
408.99194
408.99162
408.99156
408.99157
408.99163
408.99176
408.992
408.99249
408.99273
408.99198
408.99204
408.99184
408.99177
408.99178
408.99184
408.99198
408.99223
408.99273
408.99272
421.27655
421.27662
421.27611
421.27605
421.27607
421.27615
421.27628
421.27649
421.27679
421.27685
421.27662
421.27639
421.27598
421.27593
421.27596
421.27603
421.27616
421.27639
421.27681
421.27693
421.27611
421.27598
421.2756
421.27556
421.27559
421.27566
421.27579
421.27601
421.27649
421.27672
421.27605
421.27593
421.27556
421.27553
421.27556
421.27562
421.27574
421.27596
421.27643
421.27666
421.27607
421.27596
421.27559
421.27556
421.27559
421.27565
421.27576
421.27598
421.27645
421.27667
421.27615
421.27603
421.27566
421.27562
421.27565
421.27571
421.27583
421.27604
421.27651
421.27673
421.27628
421.27616
421.27579
421.27574
421.27576
421.27583
421.27594
421.27615
421.27663
421.27686
421.27649
421.27639
421.27601
421.27596
421.27598
421.27604
421.27615
421.27638
421.27686
421.27711
421.27679
421.27681
421.27649
421.27643
421.27645
421.27651
421.27663
421.27686
421.27737
421.27763
421.27685
421.27693
421.27672
421.27666
421.27667
421.27673
421.27686
421.27711
421.27763
421.27762
432.79835
432.79843
432.79793
432.79788
432.79792
432.798
432.79813
432.79833
432.79863
432.7987
432.79843
432.7982
432.79781
432.79778
432.79782
432.79789
432.79801
432.79823
432.79866
432.79878
432.79793
432.79781
432.79744
432.79742
432.79746
432.79753
432.79765
432.79786
432.79834
432.79858
432.79788
432.79778
432.79742
432.7974
432.79744
432.79751
432.79762
432.79782
432.79829
432.79852
432.79792
432.79782
432.79746
432.79744
432.79748
432.79755
432.79765
432.79784
432.79831
432.79853
432.798
432.79789
432.79753
432.79751
432.79755
432.79761
432.7977
432.7979
432.79836
432.79859
432.79813
432.79801
432.79765
432.79762
432.79765
432.7977
432.7978
432.798
432.79847
432.7987
432.79833
432.79823
432.79786
432.79782
432.79784
432.7979
432.798
432.79821
432.79869
432.79894
432.79863
432.79866
432.79834
432.79829
432.79831
432.79836
432.79847
432.79869
432.7992
432.79948
432.7987
432.79878
432.79858
432.79852
432.79853
432.79859
432.7987
432.79894
432.79948
432.79947
443.60072
443.6008
443.60031
443.60029
443.60034
443.60042
443.60054
443.60073
443.60103
443.6011
443.6008
443.60058
443.6002
443.60019
443.60025
443.60032
443.60043
443.60064
443.60106
443.60118
443.60031
443.6002
443.59986
443.59986
443.59991
443.59998
443.60008
443.60028
443.60075
443.60099
443.60029
443.60019
443.59986
443.59986
443.59991
443.59998
443.60006
443.60025
443.60071
443.60094
443.60034
443.60025
443.59991
443.59991
443.59996
443.60002
443.6001
443.60027
443.60073
443.60095
443.60042
443.60032
443.59998
443.59998
443.60002
443.60007
443.60015
443.60032
443.60077
443.60099
443.60054
443.60043
443.60008
443.60006
443.6001
443.60015
443.60023
443.6004
443.60086
443.60109
443.60073
443.60064
443.60028
443.60025
443.60027
443.60032
443.6004
443.60059
443.60106
443.60131
443.60103
443.60106
443.60075
443.60071
443.60073
443.60077
443.60086
443.60106
443.60157
443.60185
443.6011
443.60118
443.60099
443.60094
443.60095
443.60099
443.60109
443.60131
443.60185
443.60184
453.72334
453.72342
453.72296
453.72295
453.72301
453.72309
453.7232
453.72338
453.72367
453.72373
453.72342
453.72321
453.72286
453.72287
453.72293
453.72301
453.72311
453.72329
453.7237
453.72382
453.72296
453.72286
453.72254
453.72256
453.72262
453.72269
453.72277
453.72295
453.7234
453.72363
453.72295
453.72287
453.72256
453.72258
453.72264
453.7227
453.72277
453.72293
453.72337
453.72359
453.72301
453.72293
453.72262
453.72264
453.72269
453.72274
453.72281
453.72295
453.72338
453.7236
453.72309
453.72301
453.72269
453.7227
453.72274
453.72279
453.72285
453.72299
453.72342
453.72363
453.7232
453.72311
453.72277
453.72277
453.72281
453.72285
453.72291
453.72305
453.72349
453.72371
453.72338
453.72329
453.72295
453.72293
453.72295
453.72299
453.72305
453.72321
453.72366
453.72391
453.72367
453.7237
453.7234
453.72337
453.72338
453.72342
453.72349
453.72366
453.72416
453.72444
453.72373
453.72382
453.72363
453.72359
453.7236
453.72363
453.72371
453.72391
453.72444
453.72443
463.20278
463.20287
463.20243
463.20245
463.20252
463.2026
463.2027
463.20285
463.20312
463.20318
463.20287
463.20268
463.20235
463.20239
463.20246
463.20253
463.20261
463.20277
463.20316
463.20327
463.20243
463.20235
463.20206
463.2021
463.20217
463.20223
463.20229
463.20244
463.20288
463.20309
463.20245
463.20239
463.2021
463.20214
463.20221
463.20226
463.20231
463.20243
463.20285
463.20306
463.20252
463.20246
463.20217
463.20221
463.20226
463.20231
463.20235
463.20246
463.20286
463.20306
463.2026
463.20253
463.20223
463.20226
463.20231
463.20234
463.20238
463.20248
463.20289
463.20308
463.2027
463.20261
463.20229
463.20231
463.20235
463.20238
463.20241
463.20252
463.20293
463.20314
463.20285
463.20277
463.20244
463.20243
463.20246
463.20248
463.20252
463.20264
463.20308
463.20331
463.20312
463.20316
463.20288
463.20285
463.20286
463.20289
463.20293
463.20308
463.20355
463.20383
463.20318
463.20327
463.20309
463.20306
463.20306
463.20308
463.20314
463.20331
463.20383
463.2038
472.07312
472.07322
472.07281
472.07284
472.07292
472.07299
472.07308
472.07321
472.07346
472.0735
472.07322
472.07304
472.07274
472.0728
472.07287
472.07294
472.073
472.07314
472.07351
472.07361
472.07281
472.07274
472.07248
472.07254
472.07261
472.07266
472.07271
472.07283
472.07323
472.07344
472.07284
472.0728
472.07254
472.0726
472.07266
472.07271
472.07273
472.07283
472.07321
472.0734
472.07292
472.07287
472.07261
472.07266
472.07273
472.07276
472.07277
472.07285
472.07323
472.0734
472.07299
472.07294
472.07266
472.07271
472.07276
472.07278
472.07279
472.07287
472.07324
472.07341
472.07308
472.073
472.07271
472.07273
472.07277
472.07279
472.0728
472.07288
472.07326
472.07344
472.07321
472.07314
472.07283
472.07283
472.07285
472.07287
472.07288
472.07297
472.07337
472.07358
472.07346
472.07351
472.07323
472.07321
472.07323
472.07324
472.07326
472.07337
472.07381
472.07408
472.0735
472.07361
472.07344
472.0734
472.0734
472.07341
472.07344
472.07358
472.07408
472.07405
480.36636
480.36647
480.36608
480.36614
480.36622
480.36629
480.36635
480.36646
480.36669
480.36672
480.36647
480.36631
480.36604
480.36611
480.36619
480.36625
480.36629
480.3664
480.36674
480.36683
480.36608
480.36604
480.3658
480.36588
480.36595
480.366
480.36602
480.36611
480.36648
480.36667
480.36614
480.36611
480.36588
480.36595
480.36602
480.36605
480.36606
480.36612
480.36647
480.36664
480.36622
480.36619
480.36595
480.36602
480.36608
480.36611
480.3661
480.36614
480.36648
480.36664
480.36629
480.36625
480.366
480.36605
480.36611
480.36612
480.3661
480.36614
480.36647
480.36663
480.36635
480.36629
480.36602
480.36606
480.3661
480.3661
480.36609
480.36613
480.36647
480.36663
480.36646
480.3664
480.36611
480.36612
480.36614
480.36614
480.36613
480.36618
480.36655
480.36674
480.36669
480.36674
480.36648
480.36647
480.36648
480.36647
480.36647
480.36655
480.36696
480.36722
480.36672
480.36683
480.36667
480.36664
480.36664
480.36663
480.36663
480.36674
480.36722
480.36717
488.11281
488.11293
488.11257
488.11265
488.11273
488.11279
488.11284
488.11292
488.11312
488.11314
488.11293
488.11279
488.11255
488.11264
488.11272
488.11277
488.11279
488.11287
488.11318
488.11325
488.11257
488.11255
488.11233
488.11243
488.11251
488.11254
488.11254
488.1126
488.11294
488.1131
488.11265
488.11264
488.11243
488.11252
488.11259
488.11261
488.11259
488.11261
488.11293
488.11308
488.11273
488.11272
488.11251
488.11259
488.11265
488.11266
488.11263
488.11264
488.11294
488.11307
488.11279
488.11277
488.11254
488.11261
488.11266
488.11266
488.11262
488.11262
488.11292
488.11305
488.11284
488.11279
488.11254
488.11259
488.11263
488.11262
488.11258
488.11258
488.11288
488.11303
488.11292
488.11287
488.1126
488.11261
488.11264
488.11262
488.11258
488.1126
488.11293
488.1131
488.11312
488.11318
488.11294
488.11293
488.11294
488.11292
488.11288
488.11293
488.11331
488.11355
488.11314
488.11325
488.1131
488.11308
488.11307
488.11305
488.11303
488.1131
488.11355
488.11349
495.34138
495.34151
495.34118
495.34127
495.34136
495.34141
495.34144
495.3415
495.34167
495.34167
495.34151
495.34139
495.34117
495.34127
495.34136
495.3414
495.34141
495.34146
495.34174
495.34179
495.34118
495.34117
495.34099
495.34109
495.34117
495.34119
495.34118
495.3412
495.34151
495.34165
495.34127
495.34127
495.34109
495.34119
495.34126
495.34127
495.34123
495.34122
495.3415
495.34163
495.34136
495.34136
495.34117
495.34126
495.34133
495.34132
495.34127
495.34124
495.3415
495.34161
495.34141
495.3414
495.34119
495.34127
495.34132
495.34131
495.34124
495.34121
495.34147
495.34157
495.34144
495.34141
495.34118
495.34123
495.34127
495.34124
495.34118
495.34114
495.34141
495.34153
495.3415
495.34146
495.3412
495.34122
495.34124
495.34121
495.34114
495.34113
495.34142
495.34157
495.34167
495.34174
495.34151
495.3415
495.3415
495.34147
495.34141
495.34142
495.34177
495.34199
495.34167
495.34179
495.34165
495.34163
495.34161
495.34157
495.34153
495.34157
495.34199
495.34191
502.07979
502.07993
502.07963
502.07972
502.07981
502.07985
502.07986
502.0799
502.08005
502.08004
502.07993
502.07983
502.07964
502.07975
502.07983
502.07986
502.07985
502.07987
502.08012
502.08016
502.07963
502.07964
502.07947
502.07959
502.07967
502.07968
502.07964
502.07963
502.07991
502.08003
502.07972
502.07975
502.07959
502.0797
502.07977
502.07976
502.0797
502.07966
502.07991
502.08001
502.07981
502.07983
502.07967
502.07977
502.07983
502.07981
502.07973
502.07967
502.0799
502.07998
502.07985
502.07986
502.07968
502.07976
502.07981
502.07978
502.0797
502.07963
502.07985
502.07993
502.07986
502.07985
502.07964
502.0797
502.07973
502.0797
502.07961
502.07954
502.07977
502.07986
502.0799
502.07987
502.07963
502.07966
502.07967
502.07963
502.07954
502.07949
502.07975
502.07988
502.08005
502.08012
502.07991
502.07991
502.0799
502.07985
502.07977
502.07975
502.08006
502.08026
502.08004
502.08016
502.08003
502.08001
502.07998
502.07993
502.07986
502.07988
502.08026
502.08017
508.35475
508.3549
508.35463
508.35473
508.35482
508.35485
508.35485
508.35486
508.35498
508.35495
508.3549
508.35482
508.35465
508.35477
508.35485
508.35487
508.35484
508.35484
508.35506
508.35507
508.35463
508.35465
508.35451
508.35463
508.35471
508.35471
508.35465
508.35462
508.35486
508.35495
508.35473
508.35477
508.35463
508.35475
508.35482
508.3548
508.35472
508.35465
508.35486
508.35494
508.35482
508.35485
508.35471
508.35482
508.35487
508.35485
508.35475
508.35466
508.35485
508.35491
508.35485
508.35487
508.35471
508.3548
508.35485
508.35481
508.3547
508.3546
508.35478
508.35484
508.35485
508.35484
508.35465
508.35472
508.35475
508.3547
508.35458
508.35449
508.35468
508.35475
508.35486
508.35484
508.35462
508.35465
508.35466
508.3546
508.35449
508.35441
508.35463
508.35474
508.35498
508.35506
508.35486
508.35486
508.35485
508.35478
508.35468
508.35463
508.3549
508.35508
508.35495
508.35507
508.35495
508.35494
508.35491
508.35484
508.35475
508.35474
508.35508
508.35498
514.19214
514.19229
514.19204
514.19215
514.19224
514.19226
514.19224
514.19223
514.19233
514.19229
514.19229
514.19223
514.19208
514.19221
514.19229
514.1923
514.19225
514.19222
514.19241
514.19241
514.19204
514.19208
514.19196
514.19209
514.19216
514.19215
514.19208
514.19202
514.19222
514.1923
514.19215
514.19221
514.19209
514.19221
514.19227
514.19225
514.19215
514.19205
514.19223
514.19228
514.19224
514.19229
514.19216
514.19227
514.19233
514.19229
514.19217
514.19205
514.19221
514.19225
514.19226
514.1923
514.19215
514.19225
514.19229
514.19224
514.19211
514.19198
514.19213
514.19217
514.19224
514.19225
514.19208
514.19215
514.19217
514.19211
514.19198
514.19185
514.19201
514.19206
514.19223
514.19222
514.19202
514.19205
514.19205
514.19198
514.19185
514.19175
514.19193
514.19201
514.19233
514.19241
514.19222
514.19223
514.19221
514.19213
514.19201
514.19193
514.19217
514.19233
514.19229
514.19241
514.1923
514.19228
514.19225
514.19217
514.19206
514.19201
514.19233
514.19222
519.61707
519.61722
519.617
519.61712
519.6172
519.61722
519.61718
519.61715
519.61722
519.61717
519.61722
519.61718
519.61705
519.61718
519.61726
519.61726
519.6172
519.61715
519.6173
519.61729
519.617
519.61705
519.61695
519.61708
519.61715
519.61713
519.61704
519.61696
519.61713
519.61719
519.61712
519.61718
519.61708
519.61721
519.61727
519.61723
519.61712
519.617
519.61713
519.61717
519.6172
519.61726
519.61715
519.61727
519.61731
519.61727
519.61713
519.61699
519.61711
519.61713
519.61722
519.61726
519.61713
519.61723
519.61727
519.6172
519.61706
519.61691
519.61702
519.61704
519.61718
519.6172
519.61704
519.61712
519.61713
519.61706
519.61691
519.61676
519.61688
519.61691
519.61715
519.61715
519.61696
519.617
519.61699
519.61691
519.61676
519.61663
519.61678
519.61684
519.61722
519.6173
519.61713
519.61713
519.61711
519.61702
519.61688
519.61678
519.61698
519.61713
519.61717
519.61729
519.61719
519.61717
519.61713
519.61704
519.61691
519.61684
519.61713
519.617
524.65403
524.65419
524.65399
524.65411
524.65419
524.65419
524.65414
524.65409
524.65414
524.65408
524.65419
524.65415
524.65405
524.65418
524.65425
524.65424
524.65417
524.6541
524.65423
524.6542
524.65399
524.65405
524.65397
524.6541
524.65416
524.65414
524.65403
524.65393
524.65407
524.6541
524.65411
524.65418
524.6541
524.65422
524.65428
524.65423
524.6541
524.65396
524.65407
524.65409
524.65419
524.65425
524.65416
524.65428
524.65432
524.65426
524.65411
524.65395
524.65404
524.65404
524.65419
524.65424
524.65414
524.65423
524.65426
524.65419
524.65403
524.65386
524.65394
524.65394
524.65414
524.65417
524.65403
524.6541
524.65411
524.65403
524.65387
524.6537
524.65379
524.6538
524.65409
524.6541
524.65393
524.65396
524.65395
524.65386
524.6537
524.65354
524.65366
524.65371
524.65414
524.65423
524.65407
524.65407
524.65404
524.65394
524.65379
524.65366
524.65384
524.65396
524.65408
524.6542
524.6541
524.65409
524.65404
524.65394
524.6538
524.65371
524.65396
524.65383
529.32694
529.3271
529.32692
529.32704
529.32712
529.32711
529.32705
529.32698
529.32701
529.32694
529.3271
529.32708
529.32699
529.32712
529.32719
529.32717
529.32708
529.327
529.3271
529.32706
529.32692
529.32699
529.32693
529.32705
529.32712
529.32708
529.32696
529.32684
529.32695
529.32697
529.32704
529.32712
529.32705
529.32718
529.32723
529.32717
529.32703
529.32687
529.32695
529.32695
529.32712
529.32719
529.32712
529.32723
529.32726
529.3272
529.32704
529.32686
529.32692
529.3269
529.32711
529.32717
529.32708
529.32717
529.3272
529.32712
529.32695
529.32676
529.32681
529.32679
529.32705
529.32708
529.32696
529.32703
529.32704
529.32695
529.32677
529.32659
529.32665
529.32664
529.32698
529.327
529.32684
529.32687
529.32686
529.32676
529.32659
529.32641
529.3265
529.32653
529.32701
529.3271
529.32695
529.32695
529.32692
529.32681
529.32665
529.3265
529.32665
529.32675
529.32694
529.32706
529.32697
529.32695
529.3269
529.32679
529.32664
529.32653
529.32675
529.32662
533.65922
533.65938
533.65923
533.65934
533.65941
533.6594
533.65932
533.65924
533.65926
533.65918
533.65938
533.65937
533.6593
533.65943
533.65949
533.65946
533.65936
533.65926
533.65934
533.65929
533.65923
533.6593
533.65925
533.65937
533.65943
533.65938
533.65926
533.65912
533.65921
533.65921
533.65934
533.65943
533.65937
533.65949
533.65954
533.65948
533.65932
533.65915
533.65921
533.65919
533.65941
533.65949
533.65943
533.65954
533.65957
533.65949
533.65932
533.65913
533.65917
533.65914
533.6594
533.65946
533.65938
533.65948
533.65949
533.65941
533.65923
533.65903
533.65906
533.65902
533.65932
533.65936
533.65926
533.65932
533.65932
533.65923
533.65904
533.65884
533.65888
533.65886
533.65924
533.65926
533.65912
533.65915
533.65913
533.65903
533.65884
533.65866
533.65872
533.65873
533.65926
533.65934
533.65921
533.65921
533.65917
533.65906
533.65888
533.65872
533.65884
533.65893
533.65918
533.65929
533.65921
533.65919
533.65914
533.65902
533.65886
533.65873
533.65893
533.65879
537.67385
537.674
537.67387
537.67398
537.67405
537.67403
537.67394
537.67385
537.67384
537.67376
537.674
537.67401
537.67395
537.67407
537.67413
537.67409
537.67398
537.67387
537.67393
537.67387
537.67387
537.67395
537.67391
537.67403
537.67407
537.67402
537.67389
537.67374
537.67381
537.6738
537.67398
537.67407
537.67403
537.67414
537.67418
537.67411
537.67395
537.67377
537.67381
537.67378
537.67405
537.67413
537.67407
537.67418
537.6742
537.67412
537.67395
537.67375
537.67376
537.67372
537.67403
537.67409
537.67402
537.67411
537.67412
537.67403
537.67385
537.67364
537.67364
537.6736
537.67394
537.67398
537.67389
537.67395
537.67395
537.67385
537.67366
537.67345
537.67346
537.67343
537.67385
537.67387
537.67374
537.67377
537.67375
537.67364
537.67345
537.67325
537.67329
537.67329
537.67384
537.67393
537.67381
537.67381
537.67376
537.67364
537.67346
537.67329
537.67339
537.67346
537.67376
537.67387
537.6738
537.67378
537.67372
537.6736
537.67343
537.67329
537.67346
537.67332
541.39339
541.39354
541.39342
541.39353
541.39359
541.39356
541.39347
541.39337
541.39335
541.39326
541.39354
541.39355
541.3935
541.39362
541.39367
541.39363
541.39351
541.39339
541.39343
541.39337
541.39342
541.3935
541.39347
541.39359
541.39363
541.39357
541.39343
541.39327
541.39332
541.3933
541.39353
541.39362
541.39359
541.39369
541.39372
541.39365
541.39349
541.3933
541.39332
541.39328
541.39359
541.39367
541.39363
541.39372
541.39374
541.39366
541.39348
541.39327
541.39327
541.39322
541.39356
541.39363
541.39357
541.39365
541.39366
541.39356
541.39337
541.39316
541.39315
541.39309
541.39347
541.39351
541.39343
541.39349
541.39348
541.39337
541.39318
541.39297
541.39296
541.39291
541.39337
541.39339
541.39327
541.3933
541.39327
541.39316
541.39297
541.39276
541.39278
541.39277
541.39335
541.39343
541.39332
541.39332
541.39327
541.39315
541.39296
541.39278
541.39286
541.39292
541.39326
541.39337
541.3933
541.39328
541.39322
541.39309
541.39291
541.39277
541.39292
541.39277
544.84004
544.84019
544.84008
544.84019
544.84024
544.8402
544.84011
544.84
544.83997
544.83988
544.84019
544.8402
544.84017
544.84028
544.84032
544.84027
544.84016
544.84003
544.84005
544.83998
544.84008
544.84017
544.84014
544.84025
544.84028
544.84022
544.84008
544.83992
544.83995
544.83992
544.84019
544.84028
544.84025
544.84035
544.84038
544.8403
544.84014
544.83994
544.83994
544.83989
544.84024
544.84032
544.84028
544.84038
544.84039
544.8403
544.84012
544.83991
544.83989
544.83983
544.8402
544.84027
544.84022
544.8403
544.8403
544.8402
544.84001
544.83979
544.83977
544.8397
544.84011
544.84016
544.84008
544.84014
544.84012
544.84001
544.83982
544.8396
544.83958
544.83953
544.84
544.84003
544.83992
544.83994
544.83991
544.83979
544.8396
544.83939
544.8394
544.83938
544.83997
544.84005
544.83995
544.83994
544.83989
544.83977
544.83958
544.8394
544.83946
544.8395
544.83988
544.83998
544.83992
544.83989
544.83983
544.8397
544.83953
544.83938
544.8395
544.83936
548.03567
548.03581
548.03572
548.03582
548.03586
548.03582
548.03572
548.03561
548.03557
548.03548
548.03581
548.03583
548.0358
548.0359
548.03594
548.03589
548.03577
548.03564
548.03565
548.03557
548.03572
548.0358
548.03579
548.03588
548.03591
548.03585
548.0357
548.03554
548.03555
548.03551
548.03582
548.0359
548.03588
548.03598
548.03599
548.03592
548.03575
548.03556
548.03554
548.03549
548.03586
548.03594
548.03591
548.03599
548.036
548.03591
548.03573
548.03552
548.03549
548.03543
548.03582
548.03589
548.03585
548.03592
548.03591
548.03581
548.03562
548.03541
548.03537
548.0353
548.03572
548.03577
548.0357
548.03575
548.03573
548.03562
548.03543
548.03522
548.03518
548.03512
548.03561
548.03564
548.03554
548.03556
548.03552
548.03541
548.03522
548.03501
548.035
548.03497
548.03557
548.03565
548.03555
548.03554
548.03549
548.03537
548.03518
548.035
548.03504
548.03508
548.03548
548.03557
548.03551
548.03549
548.03543
548.0353
548.03512
548.03497
548.03508
548.03494
551.00183
551.00196
551.00188
551.00197
551.002
551.00196
551.00186
551.00175
551.0017
551.00161
551.00196
551.00198
551.00196
551.00205
551.00208
551.00203
551.00191
551.00177
551.00177
551.00169
551.00188
551.00196
551.00195
551.00204
551.00206
551.00199
551.00185
551.00169
551.00169
551.00164
551.00197
551.00205
551.00204
551.00212
551.00213
551.00205
551.00189
551.0017
551.00168
551.00162
551.002
551.00208