/*--------------------------------*- C++ -*----------------------------------*\
| =========                 |                                                 |
| \\      /  F ield         | OpenFOAM: The Open Source CFD Toolbox           |
|  \\    /   O peration     | Version:  v2106                                 |
|   \\  /    A nd           | Website:  www.openfoam.com                      |
|    \\/     M anipulation  |                                                 |
\*---------------------------------------------------------------------------*/
FoamFile
{
    version     2.0;
    format      ascii;
    arch        "LSB;label=32;scalar=64";
    class       volVectorField;
    location    "5";
    object      U;
}
// * * * * * * * * * * * * * * * * * * * * * * * * * * * * * * * * * * * * * //

dimensions      [0 1 -1 0 0 0 0];

internalField   nonuniform List<vector> 
8192
(
(0.00807909 0.00807909 -0.0149683)
(0.0240034 0.0136206 -0.0214838)
(0.0386571 0.0168275 -0.0204704)
(0.0449295 0.0202531 -0.0194102)
(0.0435746 0.023516 -0.0187047)
(0.0358483 0.0262215 -0.0182594)
(0.0234239 0.0281338 -0.0180033)
(0.00812711 0.0291202 -0.017887)
(-0.00813464 0.0291209 -0.0178877)
(-0.0234311 0.0281351 -0.018005)
(-0.0358558 0.0262229 -0.0182628)
(-0.0435817 0.0235184 -0.0187084)
(-0.0449335 0.0202574 -0.0194147)
(-0.0386591 0.0168312 -0.0204755)
(-0.0240052 0.0136245 -0.0214885)
(-0.00807977 0.00808205 -0.0149717)
(0.0136206 0.0240034 -0.0214838)
(0.0412165 0.0412165 -0.0283087)
(0.0642068 0.0501154 -0.0238616)
(0.0730672 0.0592746 -0.0196077)
(0.0698601 0.0680246 -0.0162853)
(0.0569446 0.0753034 -0.0138511)
(0.0370033 0.0804626 -0.012262)
(0.0128067 0.0831276 -0.0114784)
(-0.0128149 0.0831288 -0.0114795)
(-0.0370126 0.0804665 -0.0122638)
(-0.0569537 0.0753095 -0.0138537)
(-0.0698667 0.0680321 -0.0162882)
(-0.0730719 0.0592856 -0.0196127)
(-0.0642113 0.050127 -0.023867)
(-0.0412195 0.0412294 -0.0283156)
(-0.0136217 0.0240147 -0.0214916)
(0.0168275 0.0386571 -0.0204704)
(0.0501154 0.0642068 -0.0238616)
(0.0763826 0.0763826 -0.0160273)
(0.0855745 0.088783 -0.00887896)
(0.0808997 0.100643 -0.00318105)
(0.0654279 0.110533 0.00107026)
(0.0423062 0.117559 0.0038841)
(0.0146081 0.121194 0.00528411)
(-0.0146118 0.121195 0.00528401)
(-0.0423098 0.117564 0.00388264)
(-0.0654333 0.110543 0.00106738)
(-0.080904 0.100656 -0.0031821)
(-0.0855769 0.0887982 -0.00888146)
(-0.0763857 0.0763985 -0.0160311)
(-0.0501165 0.064225 -0.0238675)
(-0.0168273 0.0386725 -0.0204784)
(0.0202531 0.0449295 -0.0194102)
(0.0592746 0.0730672 -0.0196077)
(0.088783 0.0855745 -0.00887896)
(0.0983166 0.0983166 0.000641457)
(0.0922056 0.110552 0.00823336)
(0.0741587 0.120779 0.0139127)
(0.0477832 0.128053 0.0176843)
(0.0164734 0.13182 0.0195635)
(-0.0164714 0.131822 0.019563)
(-0.0477819 0.128059 0.0176833)
(-0.0741587 0.12079 0.0139114)
(-0.0922061 0.110568 0.0082323)
(-0.0983195 0.0983354 0.000638758)
(-0.0887876 0.0855955 -0.00887984)
(-0.0592761 0.0730901 -0.0196115)
(-0.0202533 0.0449475 -0.0194158)
(0.023516 0.0435746 -0.0187047)
(0.0680246 0.0698601 -0.0162853)
(0.100643 0.0808997 -0.00318105)
(0.110552 0.0922056 0.00823336)
(0.103117 0.103117 0.0173136)
(0.0826275 0.112254 0.0241006)
(0.0531147 0.11876 0.0286083)
(0.0182915 0.122132 0.0308559)
(-0.0182845 0.122134 0.030856)
(-0.053108 0.118768 0.0286086)
(-0.082622 0.112266 0.0241002)
(-0.103114 0.103134 0.0173131)
(-0.110552 0.0922276 0.00823222)
(-0.100647 0.0809279 -0.00318161)
(-0.0680272 0.0698913 -0.0162873)
(-0.0235163 0.0435993 -0.0187088)
(0.0262215 0.0358483 -0.0182594)
(0.0753034 0.0569446 -0.0138511)
(0.110533 0.0654279 0.00107026)
(0.120779 0.0741587 0.0139127)
(0.112254 0.0826275 0.0241006)
(0.0897308 0.0897308 0.031707)
(0.0575944 0.0947943 0.0367566)
(0.0198218 0.0974202 0.0392735)
(-0.0198084 0.0974232 0.0392736)
(-0.0575825 0.0948032 0.0367571)
(-0.0897213 0.0897451 0.0317077)
(-0.112247 0.0826464 0.0241019)
(-0.120775 0.074183 0.0139124)
(-0.110535 0.0654573 0.00106889)
(-0.0753067 0.0569801 -0.0138532)
(-0.0262224 0.0358761 -0.0182631)
(0.0281338 0.0234239 -0.0180033)
(0.0804626 0.0370033 -0.012262)
(0.117559 0.0423062 0.0038841)
(0.128053 0.0477832 0.0176843)
(0.11876 0.0531147 0.0286083)
(0.0947943 0.0575944 0.0367566)
(0.0607903 0.0607903 0.042163)
(0.0209142 0.0624486 0.0448571)
(-0.0208948 0.0624516 0.0448576)
(-0.0607722 0.0607996 0.0421645)
(-0.0947797 0.0576099 0.0367586)
(-0.11875 0.0531353 0.0286114)
(-0.128047 0.0478077 0.0176855)
(-0.117559 0.0423349 0.00388508)
(-0.0804655 0.0370386 -0.0122631)
(-0.0281356 0.0234516 -0.0180057)
(0.0291202 0.00812711 -0.017887)
(0.0831276 0.0128067 -0.0114784)
(0.121194 0.0146081 0.00528411)
(0.13182 0.0164734 0.0195635)
(0.122132 0.0182915 0.0308559)
(0.0974202 0.0198218 0.0392735)
(0.0624486 0.0209142 0.0448571)
(0.0214822 0.0214822 0.0476393)
(-0.0214564 0.0214853 0.0476401)
(-0.0624247 0.0209234 0.0448593)
(-0.0974008 0.0198363 0.0392766)
(-0.122118 0.0183112 0.0308601)
(-0.131813 0.0164964 0.0195667)
(-0.121193 0.0146358 0.00528654)
(-0.0831309 0.0128392 -0.0114788)
(-0.0291226 0.00815353 -0.017889)
(0.0291209 -0.00813464 -0.0178877)
(0.0831288 -0.0128149 -0.0114795)
(0.121195 -0.0146118 0.00528401)
(0.131822 -0.0164714 0.019563)
(0.122134 -0.0182845 0.030856)
(0.0974232 -0.0198084 0.0392736)
(0.0624516 -0.0208948 0.0448576)
(0.0214853 -0.0214564 0.0476401)
(-0.0214537 -0.0214537 0.0476412)
(-0.0624227 -0.0208865 0.0448607)
(-0.0973997 -0.0197955 0.0392782)
(-0.122118 -0.0182675 0.0308617)
(-0.131814 -0.0164505 0.0195682)
(-0.121195 -0.0145875 0.00528755)
(-0.0831324 -0.0127861 -0.0114781)
(-0.0291232 -0.00811054 -0.0178889)
(0.0281351 -0.0234311 -0.018005)
(0.0804665 -0.0370126 -0.0122638)
(0.117564 -0.0423098 0.00388264)
(0.128059 -0.0477819 0.0176833)
(0.118768 -0.053108 0.0286086)
(0.0948032 -0.0575825 0.0367571)
(0.0607996 -0.0607722 0.0421645)
(0.0209234 -0.0624247 0.0448593)
(-0.0208865 -0.0624227 0.0448607)
(-0.0607658 -0.0607658 0.0421681)
(-0.0947763 -0.057572 0.0367628)
(-0.118749 -0.0530946 0.0286156)
(-0.12805 -0.0477652 0.0176895)
(-0.117564 -0.04229 0.00388807)
(-0.0804698 -0.0369879 -0.0122613)
(-0.0281374 -0.0234102 -0.0180053)
(0.0262229 -0.0358558 -0.0182628)
(0.0753095 -0.0569537 -0.0138537)
(0.110543 -0.0654333 0.00106738)
(0.12079 -0.0741587 0.0139114)
(0.112266 -0.082622 0.0241002)
(0.0897451 -0.0897213 0.0317077)
(0.0576099 -0.0947797 0.0367586)
(0.0198363 -0.0974008 0.0392766)
(-0.0197955 -0.0973997 0.0392782)
(-0.057572 -0.0947763 0.0367628)
(-0.0897151 -0.0897151 0.0317141)
(-0.112246 -0.0826138 0.0241082)
(-0.120779 -0.0741481 0.0139185)
(-0.110542 -0.0654186 0.00107387)
(-0.0753124 -0.056935 -0.0138501)
(-0.0262251 -0.0358391 -0.0182621)
(0.0235184 -0.0435817 -0.0187084)
(0.0680321 -0.0698667 -0.0162882)
(0.100656 -0.080904 -0.0031821)
(0.110568 -0.0922061 0.0082323)
(0.103134 -0.103114 0.0173131)
(0.0826464 -0.112247 0.0241019)
(0.0531353 -0.11875 0.0286114)
(0.0183112 -0.122118 0.0308601)
(-0.0182675 -0.122118 0.0308617)
(-0.0530946 -0.118749 0.0286156)
(-0.0826138 -0.112246 0.0241082)
(-0.103112 -0.103112 0.0173214)
(-0.110556 -0.0922015 0.00824004)
(-0.100653 -0.0808967 -0.0031756)
(-0.0680341 -0.0698556 -0.0162836)
(-0.0235201 -0.0435712 -0.0187072)
(0.0202574 -0.0449335 -0.0194147)
(0.0592856 -0.0730719 -0.0196127)
(0.0887982 -0.0855769 -0.00888146)
(0.0983354 -0.0983195 0.000638758)
(0.0922276 -0.110552 0.00823222)
(0.074183 -0.120775 0.0139124)
(0.0478077 -0.128047 0.0176855)
(0.0164964 -0.131813 0.0195667)
(-0.0164505 -0.131814 0.0195682)
(-0.0477652 -0.12805 0.0176895)
(-0.0741481 -0.120779 0.0139185)
(-0.0922015 -0.110556 0.00824004)
(-0.0983203 -0.0983203 0.000645823)
(-0.0887935 -0.0855771 -0.00887506)
(-0.0592863 -0.0730691 -0.0196087)
(-0.020259 -0.0449306 -0.0194136)
(0.0168312 -0.0386591 -0.0204755)
(0.050127 -0.0642113 -0.023867)
(0.0763985 -0.0763857 -0.0160311)
(0.0855955 -0.0887876 -0.00887984)
(0.0809279 -0.100647 -0.00318161)
(0.0654573 -0.110535 0.00106889)
(0.0423349 -0.117559 0.00388508)
(0.0146358 -0.121193 0.00528654)
(-0.0145875 -0.121195 0.00528755)
(-0.04229 -0.117564 0.00388807)
(-0.0654186 -0.110542 0.00107387)
(-0.0808967 -0.100653 -0.0031756)
(-0.0855771 -0.0887935 -0.00887506)
(-0.076392 -0.076392 -0.0160261)
(-0.0501269 -0.0642157 -0.0238643)
(-0.0168328 -0.038662 -0.0204751)
(0.0136245 -0.0240052 -0.0214885)
(0.0412294 -0.0412195 -0.0283156)
(0.064225 -0.0501165 -0.0238675)
(0.0730901 -0.0592761 -0.0196115)
(0.0698913 -0.0680272 -0.0162873)
(0.0569801 -0.0753067 -0.0138532)
(0.0370386 -0.0804655 -0.0122631)
(0.0128392 -0.0831309 -0.0114788)
(-0.0127861 -0.0831324 -0.0114781)
(-0.0369879 -0.0804698 -0.0122613)
(-0.056935 -0.0753124 -0.0138501)
(-0.0698556 -0.0680341 -0.0162836)
(-0.0730691 -0.0592863 -0.0196087)
(-0.0642157 -0.0501269 -0.0238643)
(-0.0412269 -0.0412269 -0.0283129)
(-0.0136252 -0.0240101 -0.0214882)
(0.00808205 -0.00807977 -0.0149717)
(0.0240147 -0.0136217 -0.0214916)
(0.0386725 -0.0168273 -0.0204784)
(0.0449475 -0.0202533 -0.0194158)
(0.0435993 -0.0235163 -0.0187088)
(0.0358761 -0.0262224 -0.0182631)
(0.0234516 -0.0281356 -0.0180057)
(0.00815353 -0.0291226 -0.017889)
(-0.00811054 -0.0291232 -0.0178889)
(-0.0234102 -0.0281374 -0.0180053)
(-0.0358391 -0.0262251 -0.0182621)
(-0.0435712 -0.0235201 -0.0187072)
(-0.0449306 -0.020259 -0.0194136)
(-0.038662 -0.0168328 -0.0204751)
(-0.0240101 -0.0136252 -0.0214882)
(-0.00808218 -0.00808218 -0.0149709)
(0.0125181 0.0125181 -0.0496677)
(0.0368581 0.0208412 -0.0730466)
(0.0563678 0.0250601 -0.069927)
(0.0643739 0.0294339 -0.0663394)
(0.0619445 0.0336094 -0.0640464)
(0.0507631 0.0370966 -0.0626525)
(0.0331039 0.0395752 -0.0618739)
(0.0114752 0.0408575 -0.0615298)
(-0.0114893 0.0408576 -0.0615317)
(-0.0331176 0.0395756 -0.06188)
(-0.0507761 0.0370977 -0.0626626)
(-0.0619555 0.0336113 -0.0640581)
(-0.0643811 0.0294368 -0.0663519)
(-0.0563707 0.0250632 -0.069941)
(-0.0368596 0.0208438 -0.0730593)
(-0.0125187 0.0125184 -0.0496757)
(0.0208412 0.0368581 -0.0730466)
(0.0628498 0.0628498 -0.0993929)
(0.0939941 0.0749672 -0.0852469)
(0.105291 0.0871637 -0.0715358)
(0.0998304 0.0988693 -0.0612208)
(0.0809825 0.10867 -0.0538556)
(0.0524781 0.115649 -0.0491188)
(0.018138 0.119263 -0.0468038)
(-0.018154 0.119264 -0.0468063)
(-0.0524932 0.11565 -0.049125)
(-0.0809964 0.108673 -0.0538645)
(-0.0998421 0.0988754 -0.0612328)
(-0.1053 0.0871733 -0.0715501)
(-0.0940007 0.0749782 -0.0852624)
(-0.0628566 0.0628625 -0.0994099)
(-0.0208444 0.0368678 -0.0730615)
(0.0250601 0.0563678 -0.069927)
(0.0749672 0.0939941 -0.0852469)
(0.11054 0.11054 -0.0599371)
(0.122203 0.127214 -0.0368871)
(0.114628 0.143245 -0.0190526)
(0.0922538 0.156679 -0.00600207)
(0.0594751 0.166255 0.00254415)
(0.0205075 0.171218 0.00677016)
(-0.0205161 0.171219 0.00676882)
(-0.0594846 0.166258 0.00253978)
(-0.0922613 0.156684 -0.00600863)
(-0.114634 0.143253 -0.0190595)
(-0.122209 0.127225 -0.0368974)
(-0.110546 0.110557 -0.0599504)
(-0.0749723 0.0940158 -0.0852632)
(-0.0250623 0.056389 -0.0699449)
(0.0294339 0.0643739 -0.0663394)
(0.0871637 0.105291 -0.0715358)
(0.127214 0.122203 -0.0368871)
(0.139426 0.139426 -0.00620229)
(0.129915 0.156096 0.0176759)
(0.104049 0.170095 0.0352464)
(0.0668654 0.180083 0.0468038)
(0.0230207 0.185263 0.0525342)
(-0.0230235 0.185264 0.0525331)
(-0.0668678 0.180086 0.0468011)
(-0.104051 0.170101 0.0352424)
(-0.129919 0.156105 0.0176712)
(-0.139429 0.139439 -0.00620868)
(-0.127218 0.122222 -0.0368947)
(-0.0871691 0.105319 -0.0715488)
(-0.0294356 0.0644005 -0.0663542)
(0.0336094 0.0619445 -0.0640464)
(0.0988693 0.0998304 -0.0612208)
(0.143245 0.114628 -0.0190526)
(0.156096 0.129915 0.0176759)
(0.144837 0.144837 0.0462749)
(0.115651 0.157401 0.0673419)
(0.074177 0.166373 0.081214)
(0.0255155 0.171029 0.0880984)
(-0.0255127 0.171031 0.0880981)
(-0.0741753 0.166377 0.0812133)
(-0.11565 0.157407 0.06734)
(-0.144838 0.144847 0.046272)
(-0.156098 0.129931 0.0176723)
(-0.143249 0.11465 -0.0190584)
(-0.0988743 0.099864 -0.0612323)
(-0.0336113 0.061977 -0.0640598)
(0.0370966 0.0507631 -0.0626525)
(0.10867 0.0809825 -0.0538556)
(0.156679 0.0922538 -0.00600207)
(0.170095 0.104049 0.0352464)
(0.157401 0.115651 0.0673419)
(0.125446 0.125446 0.0909847)
(0.080363 0.132449 0.106555)
(0.0276281 0.136084 0.114283)
(-0.0276216 0.136085 0.114283)
(-0.0803576 0.132453 0.106556)
(-0.125442 0.125454 0.0909861)
(-0.1574 0.115663 0.0673434)
(-0.170097 0.104065 0.035246)
(-0.156684 0.0922781 -0.00600568)
(-0.108675 0.0810196 -0.0538642)
(-0.0370988 0.0507987 -0.0626645)
(0.0395752 0.0331039 -0.0618739)
(0.115649 0.0524781 -0.0491188)
(0.166255 0.0594751 0.00254415)
(0.180083 0.0668654 0.0468038)
(0.166373 0.074177 0.081214)
(0.132449 0.080363 0.106555)
(0.0847893 0.0847893 0.123241)
(0.0291407 0.087088 0.131522)
(-0.0291306 0.0870896 0.131523)
(-0.0847806 0.0847942 0.123244)
(-0.132442 0.0803714 0.106559)
(-0.166372 0.0741894 0.0812192)
(-0.180086 0.0668827 0.0468071)
(-0.166261 0.0595004 0.00254466)
(-0.115655 0.0525157 -0.0491252)
(-0.0395783 0.0331394 -0.0618839)
(0.0408575 0.0114752 -0.0615298)
(0.119263 0.018138 -0.0468038)
(0.171218 0.0205075 0.00677016)
(0.185263 0.0230207 0.0525342)
(0.171029 0.0255155 0.0880984)
(0.136084 0.0276281 0.114283)
(0.087088 0.0291407 0.131522)
(0.0299269 0.0299269 0.140079)
(-0.0299137 0.0299284 0.140081)
(-0.0870768 0.0291452 0.131528)
(-0.136076 0.0276355 0.11429)
(-0.171028 0.0255261 0.0881073)
(-0.185267 0.0230367 0.0525424)
(-0.171226 0.0205304 0.00677486)
(-0.119272 0.0181732 -0.046807)
(-0.0408617 0.0115089 -0.0615373)
(0.0408576 -0.0114893 -0.0615317)
(0.119264 -0.018154 -0.0468063)
(0.171219 -0.0205161 0.00676882)
(0.185264 -0.0230235 0.0525331)
(0.171031 -0.0255127 0.0880981)
(0.136085 -0.0276216 0.114283)
(0.0870896 -0.0291306 0.131523)
(0.0299284 -0.0299137 0.140081)
(-0.0299127 -0.0299127 0.140083)
(-0.0870765 -0.0291272 0.131531)
(-0.136077 -0.0276157 0.114294)
(-0.171029 -0.0255044 0.0881113)
(-0.18527 -0.0230108 0.052546)
(-0.17123 -0.0204964 0.00677761)
(-0.119274 -0.0181225 -0.0468053)
(-0.0408626 -0.0114581 -0.0615369)
(0.0395756 -0.0331176 -0.06188)
(0.11565 -0.0524932 -0.049125)
(0.166258 -0.0594846 0.00253978)
(0.180086 -0.0668678 0.0468011)
(0.166377 -0.0741753 0.0812133)
(0.132453 -0.0803576 0.106556)
(0.0847942 -0.0847806 0.123244)
(0.0291452 -0.0870768 0.131528)
(-0.0291272 -0.0870765 0.131531)
(-0.0847791 -0.0847791 0.123253)
(-0.132444 -0.0803546 0.10657)
(-0.166377 -0.0741706 0.0812299)
(-0.180094 -0.0668601 0.046817)
(-0.16627 -0.0594694 0.00255262)
(-0.115662 -0.0524673 -0.0491206)
(-0.0395811 -0.0330905 -0.061883)
(0.0370977 -0.0507761 -0.0626626)
(0.108673 -0.0809964 -0.0538645)
(0.156684 -0.0922613 -0.00600863)
(0.170101 -0.104051 0.0352424)
(0.157407 -0.11565 0.06734)
(0.125454 -0.125442 0.0909861)
(0.0803714 -0.132442 0.106559)
(0.0276355 -0.136076 0.11429)
(-0.0276157 -0.136077 0.114294)
(-0.0803546 -0.132444 0.10657)
(-0.125444 -0.125444 0.091002)
(-0.157407 -0.115651 0.0673594)
(-0.170109 -0.104049 0.0352613)
(-0.156697 -0.0922531 -0.00599305)
(-0.108686 -0.0809774 -0.0538573)
(-0.0371031 -0.0507548 -0.0626636)
(0.0336113 -0.0619555 -0.0640581)
(0.0988754 -0.0998421 -0.0612328)
(0.143253 -0.114634 -0.0190595)
(0.156105 -0.129919 0.0176712)
(0.144847 -0.144838 0.046272)
(0.115663 -0.1574 0.0673434)
(0.0741894 -0.166372 0.0812192)
(0.0255261 -0.171028 0.0881073)
(-0.0255044 -0.171029 0.0881113)
(-0.0741706 -0.166377 0.0812299)
(-0.115651 -0.157407 0.0673594)
(-0.144845 -0.144845 0.0462918)
(-0.156111 -0.129923 0.0176911)
(-0.143264 -0.114634 -0.0190433)
(-0.0988864 -0.0998333 -0.0612248)
(-0.0336167 -0.0619433 -0.0640587)
(0.0294368 -0.0643811 -0.0663519)
(0.0871733 -0.1053 -0.0715501)
(0.127225 -0.122209 -0.0368974)
(0.139439 -0.139429 -0.00620868)
(0.129931 -0.156098 0.0176723)
(0.104065 -0.170097 0.035246)
(0.0668827 -0.180086 0.0468071)
(0.0230367 -0.185267 0.0525424)
(-0.0230108 -0.18527 0.052546)
(-0.0668601 -0.180094 0.046817)
(-0.104049 -0.170109 0.0352613)
(-0.129923 -0.156111 0.0176911)
(-0.139441 -0.139441 -0.0061907)
(-0.127233 -0.122216 -0.0368817)
(-0.0871827 -0.105303 -0.0715433)
(-0.0294415 -0.0643793 -0.0663528)
(0.0250632 -0.0563707 -0.069941)
(0.0749782 -0.0940007 -0.0852624)
(0.110557 -0.110546 -0.0599504)
(0.122222 -0.127218 -0.0368947)
(0.11465 -0.143249 -0.0190584)
(0.0922781 -0.156684 -0.00600568)
(0.0595004 -0.166261 0.00254466)
(0.0205304 -0.171226 0.00677486)
(-0.0204964 -0.17123 0.00677761)
(-0.0594694 -0.16627 0.00255262)
(-0.0922531 -0.156697 -0.00599305)
(-0.114634 -0.143264 -0.0190433)
(-0.122216 -0.127233 -0.0368817)
(-0.110559 -0.110559 -0.0599385)
(-0.0749851 -0.0940089 -0.0852584)
(-0.0250673 -0.0563753 -0.0699428)
(0.0208438 -0.0368596 -0.0730593)
(0.0628625 -0.0628566 -0.0994099)
(0.0940158 -0.0749723 -0.0852632)
(0.105319 -0.0871691 -0.0715488)
(0.099864 -0.0988743 -0.0612323)
(0.0810196 -0.108675 -0.0538642)
(0.0525157 -0.115655 -0.0491252)
(0.0181732 -0.119272 -0.046807)
(-0.0181225 -0.119274 -0.0468053)
(-0.0524673 -0.115662 -0.0491206)
(-0.0809774 -0.108686 -0.0538573)
(-0.0998333 -0.0988864 -0.0612248)
(-0.105303 -0.0871827 -0.0715433)
(-0.0940089 -0.0749851 -0.0852584)
(-0.0628635 -0.0628635 -0.0994098)
(-0.020847 -0.0368648 -0.0730628)
(0.0125184 -0.0125187 -0.0496757)
(0.0368678 -0.0208444 -0.0730615)
(0.056389 -0.0250623 -0.0699449)
(0.0644005 -0.0294356 -0.0663542)
(0.061977 -0.0336113 -0.0640598)
(0.0507987 -0.0370988 -0.0626645)
(0.0331394 -0.0395783 -0.0618839)
(0.0115089 -0.0408617 -0.0615373)
(-0.0114581 -0.0408626 -0.0615369)
(-0.0330905 -0.0395811 -0.061883)
(-0.0507548 -0.0371031 -0.0626636)
(-0.0619433 -0.0336167 -0.0640587)
(-0.0643793 -0.0294415 -0.0663528)
(-0.0563753 -0.0250673 -0.0699428)
(-0.0368648 -0.020847 -0.0730628)
(-0.012521 -0.012521 -0.0496799)
(0.0128005 0.0128005 -0.0960198)
(0.0370077 0.0214153 -0.136413)
(0.0554631 0.0255177 -0.129685)
(0.062623 0.029567 -0.122565)
(0.0598928 0.0333842 -0.11796)
(0.0489162 0.0365649 -0.115112)
(0.0318404 0.0388281 -0.113491)
(0.0110262 0.0400002 -0.112764)
(-0.0110457 0.0399998 -0.112767)
(-0.0318593 0.0388277 -0.113501)
(-0.0489321 0.0365647 -0.115127)
(-0.0599044 0.0333833 -0.117978)
(-0.06263 0.0295671 -0.122586)
(-0.0554648 0.025519 -0.129707)
(-0.0370062 0.0214171 -0.136436)
(-0.0127998 0.0128005 -0.096035)
(0.0214153 0.0370077 -0.136413)
(0.0633888 0.0633888 -0.179778)
(0.0930429 0.0750427 -0.152249)
(0.102989 0.0863201 -0.126802)
(0.0969166 0.0970355 -0.107993)
(0.0782472 0.105996 -0.0947204)
(0.050563 0.112382 -0.0862484)
(0.017451 0.115692 -0.0821237)
(-0.0174716 0.115691 -0.0821263)
(-0.0505819 0.112381 -0.0862578)
(-0.0782643 0.105995 -0.0947346)
(-0.096929 0.0970349 -0.10801)
(-0.102995 0.0863208 -0.126821)
(-0.0930457 0.0750461 -0.152272)
(-0.0633913 0.0633959 -0.179804)
(-0.021417 0.0370128 -0.136432)
(0.0255177 0.0554631 -0.129685)
(0.0750427 0.0930429 -0.152249)
(0.10896 0.10896 -0.104169)
(0.119178 0.124528 -0.0617632)
(0.11098 0.13937 -0.0294865)
(0.0888811 0.151788 -0.00614038)
(0.057125 0.160638 0.00904209)
(0.0196661 0.165226 0.0165222)
(-0.0196781 0.165225 0.0165201)
(-0.0571358 0.160635 0.00903676)
(-0.0888903 0.151785 -0.00614819)
(-0.110987 0.139368 -0.0294982)
(-0.119183 0.124529 -0.0617784)
(-0.108962 0.108965 -0.104188)
(-0.0750447 0.0930553 -0.152274)
(-0.0255196 0.0554786 -0.129708)
(0.029567 0.062623 -0.122565)
(0.0863201 0.102989 -0.126802)
(0.124528 0.119178 -0.0617632)
(0.135328 0.135328 -0.00542156)
(0.125329 0.150869 0.0378636)
(0.0999449 0.163901 0.069405)
(0.0640496 0.173198 0.0900243)
(0.0220197 0.178019 0.100216)
(-0.0220261 0.178018 0.100216)
(-0.0640552 0.173195 0.090022)
(-0.0999496 0.163897 0.0694007)
(-0.125332 0.150865 0.0378579)
(-0.13533 0.135328 -0.00542939)
(-0.124531 0.119185 -0.0617783)
(-0.0863225 0.103006 -0.126823)
(-0.029568 0.0626459 -0.122588)
(0.0333842 0.0598928 -0.11796)
(0.0970355 0.0969166 -0.107993)
(0.13937 0.11098 -0.0294865)
(0.150869 0.125329 0.0378636)
(0.139292 0.139292 0.089793)
(0.110825 0.151044 0.127742)
(0.070914 0.159436 0.1526)
(0.0243622 0.163791 0.164902)
(-0.0243661 0.163789 0.164902)
(-0.070918 0.159433 0.1526)
(-0.110829 0.151039 0.127742)
(-0.139295 0.139289 0.0897919)
(-0.150871 0.125329 0.0378597)
(-0.139374 0.110989 -0.0294981)
(-0.0970389 0.0969406 -0.108013)
(-0.0333849 0.0599216 -0.117983)
(0.0365649 0.0489162 -0.115112)
(0.105996 0.0782472 -0.0947204)
(0.151788 0.0888811 -0.00614038)
(0.163901 0.0999449 0.069405)
(0.151044 0.110825 0.127742)
(0.120016 0.120016 0.170429)
(0.0767284 0.126587 0.198414)
(0.0263485 0.129998 0.212269)
(-0.0263521 0.129997 0.21227)
(-0.0767319 0.126584 0.198416)
(-0.12002 0.120012 0.170432)
(-0.151048 0.110823 0.127746)
(-0.163906 0.0999454 0.0694058)
(-0.151793 0.0888915 -0.0061465)
(-0.106002 0.0782754 -0.0947378)
(-0.0365673 0.0489487 -0.115134)
(0.0388281 0.0318404 -0.113491)
(0.112382 0.050563 -0.0862484)
(0.160638 0.057125 0.00904209)
(0.173198 0.0640496 0.0900243)
(0.159436 0.070914 0.1526)
(0.126587 0.0767284 0.198414)
(0.0808901 0.0808901 0.22846)
(0.0277708 0.0830509 0.24334)
(-0.0277755 0.0830499 0.243342)
(-0.0808953 0.0808874 0.228465)
(-0.126594 0.0767245 0.19842)
(-0.159444 0.070911 0.152608)
(-0.173206 0.0640507 0.0900304)
(-0.160647 0.0571354 0.00904076)
(-0.11239 0.0505907 -0.0862622)
(-0.0388317 0.031874 -0.113511)
(0.0400002 0.0110262 -0.112764)
(0.115692 0.017451 -0.0821237)
(0.165226 0.0196661 0.0165222)
(0.178019 0.0220197 0.100216)
(0.163791 0.0243622 0.164902)
(0.129998 0.0263485 0.212269)
(0.0830509 0.0277708 0.24334)
(0.0285091 0.0285091 0.25873)
(-0.0285156 0.028508 0.258733)
(-0.0830584 0.0277679 0.243348)
(-0.130008 0.0263445 0.212281)
(-0.163802 0.0243585 0.164915)
(-0.178033 0.0220203 0.100228)
(-0.16524 0.0196757 0.0165263)
(-0.115703 0.0174777 -0.0821321)
(-0.0400049 0.0110588 -0.112781)
(0.0399998 -0.0110457 -0.112767)
(0.115691 -0.0174716 -0.0821263)
(0.165225 -0.0196781 0.0165201)
(0.178018 -0.0220261 0.100216)
(0.163789 -0.0243661 0.164902)
(0.129997 -0.0263521 0.21227)
(0.0830499 -0.0277755 0.243342)
(0.028508 -0.0285156 0.258733)
(-0.0285171 -0.0285171 0.258737)
(-0.0830602 -0.0277794 0.243353)
(-0.13001 -0.0263574 0.212286)
(-0.163805 -0.0243712 0.16492)
(-0.178036 -0.0220282 0.100233)
(-0.165244 -0.019671 0.0165302)
(-0.115706 -0.0174479 -0.0821301)
(-0.0400059 -0.0110161 -0.11278)
(0.0388277 -0.0318593 -0.113501)
(0.112381 -0.0505819 -0.0862578)
(0.160635 -0.0571358 0.00903676)
(0.173195 -0.0640552 0.090022)
(0.159433 -0.070918 0.1526)
(0.126584 -0.0767319 0.198416)
(0.0808874 -0.0808953 0.228465)
(0.0277679 -0.0830584 0.243348)
(-0.0277794 -0.0830602 0.243353)
(-0.0809003 -0.0809003 0.228477)
(-0.126601 -0.076739 0.198435)
(-0.159453 -0.0709253 0.152623)
(-0.173218 -0.0640603 0.0900438)
(-0.160659 -0.0571323 0.00905155)
(-0.112399 -0.050563 -0.0862566)
(-0.0388349 -0.0318337 -0.113511)
(0.0365647 -0.0489321 -0.115127)
(0.105995 -0.0782643 -0.0947346)
(0.151785 -0.0888903 -0.00614819)
(0.163897 -0.0999496 0.0694007)
(0.151039 -0.110829 0.127742)
(0.120012 -0.12002 0.170432)
(0.0767245 -0.126594 0.19842)
(0.0263445 -0.130008 0.212281)
(-0.0263574 -0.13001 0.212286)
(-0.076739 -0.126601 0.198435)
(-0.12003 -0.12003 0.170453)
(-0.151062 -0.11084 0.127767)
(-0.163922 -0.0999586 0.069426)
(-0.15181 -0.088892 -0.00613037)
(-0.106015 -0.0782527 -0.0947305)
(-0.0365725 -0.0489133 -0.115136)
(0.0333833 -0.0599044 -0.117978)
(0.0970349 -0.096929 -0.10801)
(0.139368 -0.110987 -0.0294982)
(0.150865 -0.125332 0.0378579)
(0.139289 -0.139295 0.0897919)
(0.110823 -0.151048 0.127746)
(0.070911 -0.159444 0.152608)
(0.0243585 -0.163802 0.164915)
(-0.0243712 -0.163805 0.16492)
(-0.0709253 -0.159453 0.152623)
(-0.11084 -0.151062 0.127767)
(-0.13931 -0.13931 0.0898176)
(-0.150889 -0.125346 0.0378834)
(-0.139394 -0.110995 -0.0294794)
(-0.0970548 -0.0969269 -0.108006)
(-0.0333912 -0.0598946 -0.117987)
(0.0295671 -0.06263 -0.122586)
(0.0863208 -0.102995 -0.126821)
(0.124529 -0.119183 -0.0617784)
(0.135328 -0.13533 -0.00542939)
(0.125329 -0.150871 0.0378597)
(0.0999454 -0.163906 0.0694058)
(0.0640507 -0.173206 0.0900304)
(0.0220203 -0.178033 0.100228)
(-0.0220282 -0.178036 0.100233)
(-0.0640603 -0.173218 0.0900438)
(-0.0999586 -0.163922 0.069426)
(-0.125346 -0.150889 0.0378834)
(-0.135349 -0.135349 -0.00540674)
(-0.124551 -0.119197 -0.0617614)
(-0.0863394 -0.103002 -0.126818)
(-0.0295743 -0.0626292 -0.122593)
(0.025519 -0.0554648 -0.129707)
(0.0750461 -0.0930457 -0.152272)
(0.108965 -0.108962 -0.104188)
(0.119185 -0.124531 -0.0617783)
(0.110989 -0.139374 -0.0294981)
(0.0888915 -0.151793 -0.0061465)
(0.0571354 -0.160647 0.00904076)
(0.0196757 -0.16524 0.0165263)
(-0.019671 -0.165244 0.0165302)
(-0.0571323 -0.160659 0.00905155)
(-0.088892 -0.15181 -0.00613037)
(-0.110995 -0.139394 -0.0294794)
(-0.119197 -0.124551 -0.0617614)
(-0.108981 -0.108981 -0.104176)
(-0.0750606 -0.0930582 -0.152272)
(-0.0255249 -0.0554706 -0.129714)
(0.0214171 -0.0370062 -0.136436)
(0.0633959 -0.0633913 -0.179804)
(0.0930553 -0.0750447 -0.152274)
(0.103006 -0.0863225 -0.126823)
(0.0969406 -0.0970389 -0.108013)
(0.0782754 -0.106002 -0.0947378)
(0.0505907 -0.11239 -0.0862622)
(0.0174777 -0.115703 -0.0821321)
(-0.0174479 -0.115706 -0.0821301)
(-0.050563 -0.112399 -0.0862566)
(-0.0782527 -0.106015 -0.0947305)
(-0.0969269 -0.0970548 -0.108006)
(-0.103002 -0.0863394 -0.126818)
(-0.0930582 -0.0750606 -0.152272)
(-0.0634021 -0.0634021 -0.179811)
(-0.021421 -0.0370143 -0.136446)
(0.0128005 -0.0127998 -0.096035)
(0.0370128 -0.021417 -0.136432)
(0.0554786 -0.0255196 -0.129708)
(0.0626459 -0.029568 -0.122588)
(0.0599216 -0.0333849 -0.117983)
(0.0489487 -0.0365673 -0.115134)
(0.031874 -0.0388317 -0.113511)
(0.0110588 -0.0400049 -0.112781)
(-0.0110161 -0.0400059 -0.11278)
(-0.0318337 -0.0388349 -0.113511)
(-0.0489133 -0.0365725 -0.115136)
(-0.0598946 -0.0333912 -0.117987)
(-0.0626292 -0.0295743 -0.122593)
(-0.0554706 -0.0255249 -0.129714)
(-0.0370143 -0.021421 -0.136446)
(-0.0128038 -0.0128038 -0.096047)
(0.0124952 0.0124952 -0.141298)
(0.035628 0.0211 -0.198126)
(0.0528242 0.0250486 -0.187616)
(0.0591563 0.0287353 -0.176865)
(0.0562979 0.0321421 -0.169843)
(0.0458468 0.0349623 -0.165433)
(0.0297937 0.0369642 -0.162884)
(0.0103077 0.0379992 -0.161723)
(-0.0103342 0.037999 -0.161727)
(-0.029818 0.0369626 -0.162894)
(-0.0458666 0.0349601 -0.165449)
(-0.0563127 0.0321401 -0.169864)
(-0.059165 0.0287349 -0.176889)
(-0.0528269 0.0250485 -0.187641)
(-0.0356251 0.0211019 -0.198156)
(-0.0124924 0.0124955 -0.141321)
(0.0211 0.035628 -0.198126)
(0.061581 0.061581 -0.257553)
(0.0895854 0.0727079 -0.216732)
(0.0984254 0.0829319 -0.179989)
(0.092152 0.0924625 -0.1532)
(0.0741506 0.100381 -0.134466)
(0.0478149 0.106012 -0.122579)
(0.0164845 0.108928 -0.116809)
(-0.0165105 0.108926 -0.116813)
(-0.0478392 0.106008 -0.122589)
(-0.0741692 0.100375 -0.134481)
(-0.0921641 0.092456 -0.153219)
(-0.0984327 0.0829273 -0.180014)
(-0.0895878 0.0727068 -0.21676)
(-0.0615803 0.0615852 -0.257589)
(-0.0210995 0.0356311 -0.198153)
(0.0250486 0.0528242 -0.187616)
(0.0727079 0.0895854 -0.216732)
(0.104925 0.104925 -0.146478)
(0.114105 0.119236 -0.0857319)
(0.105803 0.132622 -0.0400983)
(0.0844818 0.143743 -0.00740304)
(0.0541921 0.151647 0.0137231)
(0.0186378 0.15574 0.0240951)
(-0.0186526 0.155737 0.0240932)
(-0.0542053 0.151641 0.0137179)
(-0.0844919 0.143734 -0.00741164)
(-0.10581 0.132612 -0.0401098)
(-0.114107 0.119227 -0.0857472)
(-0.104924 0.104922 -0.146499)
(-0.0727072 0.0895922 -0.216764)
(-0.0250484 0.0528347 -0.187644)
(0.0287353 0.0591563 -0.176865)
(0.0829319 0.0984254 -0.179989)
(0.119236 0.114105 -0.0857319)
(0.129071 0.129071 -0.00519516)
(0.119168 0.143217 0.0560313)
(0.0948174 0.154999 0.100285)
(0.0606712 0.163377 0.129054)
(0.0208422 0.167716 0.143229)
(-0.02085 0.167713 0.143228)
(-0.0606785 0.16337 0.129052)
(-0.0948221 0.154988 0.100281)
(-0.119169 0.143206 0.056025)
(-0.129072 0.129062 -0.00520534)
(-0.119234 0.114102 -0.0857489)
(-0.0829309 0.0984369 -0.180018)
(-0.028736 0.0591752 -0.176894)
(0.0321421 0.0562979 -0.169843)
(0.0924625 0.092152 -0.1532)
(0.132622 0.105803 -0.0400983)
(0.143217 0.119168 0.0560313)
(0.131958 0.131958 0.129557)
(0.104825 0.142651 0.182932)
(0.0670002 0.150264 0.217728)
(0.0230039 0.154208 0.234901)
(-0.02301 0.154205 0.234901)
(-0.0670057 0.150256 0.217729)
(-0.104829 0.142639 0.182932)
(-0.13196 0.131945 0.129557)
(-0.14322 0.119157 0.0560258)
(-0.132622 0.105803 -0.0401116)
(-0.0924622 0.0921676 -0.153226)
(-0.0321425 0.0563233 -0.169873)
(0.0349623 0.0458468 -0.165433)
(0.100381 0.0741506 -0.134466)
(0.143743 0.0844818 -0.00740304)
(0.154999 0.0948174 0.100285)
(0.142651 0.104825 0.182932)
(0.113226 0.113226 0.243071)
(0.0723293 0.119215 0.282339)
(0.0248262 0.122319 0.301735)
(-0.0248341 0.122316 0.301736)
(-0.0723367 0.119207 0.282342)
(-0.113232 0.113214 0.243076)
(-0.142656 0.104812 0.182935)
(-0.155004 0.094808 0.100284)
(-0.143747 0.0844835 -0.00741261)
(-0.100384 0.0741709 -0.134491)
(-0.0349638 0.0458769 -0.165463)
(0.0369642 0.0297937 -0.162884)
(0.106012 0.0478149 -0.122579)
(0.151647 0.0541921 0.0137231)
(0.163377 0.0606712 0.129054)
(0.150264 0.0670002 0.217728)
(0.119215 0.0723293 0.282339)
(0.0761332 0.0761332 0.324563)
(0.0261274 0.078105 0.34543)
(-0.0261385 0.0781023 0.345432)
(-0.0761444 0.0761258 0.324569)
(-0.119226 0.0723182 0.282347)
(-0.150274 0.0669878 0.217737)
(-0.163388 0.0606627 0.129059)
(-0.151656 0.0541944 0.0137185)
(-0.106019 0.0478378 -0.1226)
(-0.0369671 0.0298258 -0.162912)
(0.0379992 0.0103077 -0.161723)
(0.108928 0.0164845 -0.116809)
(0.15574 0.0186378 0.0240951)
(0.167716 0.0208422 0.143229)
(0.154208 0.0230039 0.234901)
(0.122319 0.0248262 0.301735)
(0.078105 0.0261274 0.34543)
(0.026801 0.026801 0.367028)
(-0.026817 0.0267981 0.367031)
(-0.0781212 0.0261197 0.345438)
(-0.122335 0.0248151 0.301748)
(-0.154225 0.0229914 0.234914)
(-0.167733 0.0208333 0.143239)
(-0.155755 0.0186398 0.0240957)
(-0.108939 0.0165068 -0.116826)
(-0.0380045 0.0103397 -0.16175)
(0.037999 -0.0103342 -0.161727)
(0.108926 -0.0165105 -0.116813)
(0.155737 -0.0186526 0.0240932)
(0.167713 -0.02085 0.143228)
(0.154205 -0.02301 0.234901)