/*--------------------------------*- C++ -*----------------------------------*\
| =========                 |                                                 |
| \\      /  F ield         | OpenFOAM: The Open Source CFD Toolbox           |
|  \\    /   O peration     | Version:  v2106                                 |
|   \\  /    A nd           | Website:  www.openfoam.com                      |
|    \\/     M anipulation  |                                                 |
\*---------------------------------------------------------------------------*/
FoamFile
{
    version     2.0;
    format      ascii;
    arch        "LSB;label=32;scalar=64";
    class       volVectorField;
    location    "75";
    object      flux;
}
// * * * * * * * * * * * * * * * * * * * * * * * * * * * * * * * * * * * * * //

dimensions      [0 1 -1 1 0 0 0];

internalField   nonuniform List<vector> 
4000
(
(-2.2674453e-07 -2.2674453e-07 0.72336049)
(-4.9820351e-07 -2.0103549e-07 0.72335882)
(-2.5087645e-07 -1.9507557e-07 0.72335801)
(-1.359348e-07 -1.9276098e-07 0.72335753)
(-4.3451115e-08 -1.9140325e-07 0.72335731)
(3.6997254e-08 -1.9016052e-07 0.72335731)
(1.0564523e-07 -1.8846823e-07 0.72335751)
(1.5577378e-07 -1.8535728e-07 0.72335787)
(1.6638777e-07 -1.7835112e-07 0.72335834)
(5.2637277e-08 -1.6130792e-07 0.72335879)
(-2.0103549e-07 -4.9820352e-07 0.72335882)
(-4.5070007e-07 -4.5070007e-07 0.72335735)
(-2.3846468e-07 -4.3578268e-07 0.72335659)
(-1.3042632e-07 -4.2841994e-07 0.72335612)
(-3.9550433e-08 -4.23404e-07 0.72335591)
(4.1399781e-08 -4.186622e-07 0.72335592)
(1.1285009e-07 -4.1263649e-07 0.72335613)
(1.7094945e-07 -4.0299331e-07 0.72335652)
(2.0246181e-07 -3.850125e-07 0.72335705)
(6.9680468e-08 -3.5016753e-07 0.72335766)
(-1.9507556e-07 -2.5087645e-07 0.72335801)
(-4.3578267e-07 -2.3846469e-07 0.72335659)
(-2.2859632e-07 -2.2859632e-07 0.72335586)
(-1.2355612e-07 -2.2119303e-07 0.72335541)
(-3.3693369e-08 -2.1500288e-07 0.72335522)
(4.7764768e-08 -2.0891978e-07 0.72335524)
(1.2131411e-07 -2.0189089e-07 0.72335547)
(1.8339777e-07 -1.9274562e-07 0.72335589)
(2.1921355e-07 -1.8053886e-07 0.72335646)
(7.5867258e-08 -1.6719465e-07 0.72335711)
(-1.9276098e-07 -1.359348e-07 0.72335753)
(-4.2841994e-07 -1.3042632e-07 0.72335612)
(-2.2119303e-07 -1.2355613e-07 0.72335541)
(-1.1683288e-07 -1.1683287e-07 0.72335499)
(-2.7277185e-08 -1.10419e-07 0.72335481)
(5.4511771e-08 -1.0400577e-07 0.72335485)
(1.2902426e-07 -9.7164725e-08 0.7233551)
(1.9230149e-07 -8.9602191e-08 0.72335554)
(2.2801277e-07 -8.1665961e-08 0.72335613)
(7.8576607e-08 -7.5405165e-08 0.7233568)
(-1.9140324e-07 -4.3451114e-08 0.72335731)
(-4.2340399e-07 -3.9550425e-08 0.72335591)
(-2.1500288e-07 -3.3693376e-08 0.72335522)
(-1.1041899e-07 -2.7277195e-08 0.72335481)
(-2.0866266e-08 -2.086627e-08 0.72335464)
(6.1019043e-08 -1.4529729e-08 0.7233547)
(1.3571769e-07 -8.184226e-09 0.72335497)
(1.9889653e-07 -1.9001001e-09 0.72335543)
(2.3341058e-07 3.7627348e-09 0.72335604)
(8.0041123e-08 7.4703394e-09 0.72335672)
(-1.9016052e-07 3.6997265e-08 0.72335731)
(-4.186622e-07 4.1399779e-08 0.72335592)
(-2.089198e-07 4.7764766e-08 0.72335524)
(-1.0400578e-07 5.4511762e-08 0.72335485)
(-1.4529719e-08 6.1019036e-08 0.7233547)
(6.7193814e-08 6.719381e-08 0.72335478)
(1.4165389e-07 7.3085802e-08 0.72335506)
(2.0424845e-07 7.8600526e-08 0.72335553)
(2.3738321e-07 8.326466e-08 0.72335616)
(8.1048344e-08 8.6123309e-08 0.72335685)
(-1.8846823e-07 1.0564523e-07 0.72335751)
(-4.1263649e-07 1.1285009e-07 0.72335613)
(-2.0189089e-07 1.2131412e-07 0.72335547)
(-9.7164724e-08 1.2902426e-07 0.7233551)
(-8.1842188e-09 1.357177e-07 0.72335497)
(7.3085809e-08 1.4165389e-07 0.72335506)
(1.4712441e-07 1.4712442e-07 0.72335536)
(2.0907539e-07 1.5223166e-07 0.72335584)
(2.4093336e-07 1.5668935e-07 0.72335648)
(8.1946889e-08 1.5959654e-07 0.72335718)
(-1.8535729e-07 1.5577378e-07 0.72335787)
(-4.0299332e-07 1.7094946e-07 0.72335652)
(-1.9274562e-07 1.8339778e-07 0.72335589)
(-8.9602193e-08 1.9230149e-07 0.72335554)
(-1.9000939e-09 1.9889654e-07 0.72335543)
(7.8600534e-08 2.0424845e-07 0.72335553)
(1.5223165e-07 2.0907539e-07 0.72335584)
(2.1381338e-07 2.1381338e-07 0.72335634)
(2.4474809e-07 2.1850989e-07 0.72335699)
(8.2986471e-08 2.222483e-07 0.7233577)
(-1.7835111e-07 1.6638777e-07 0.72335834)
(-3.8501249e-07 2.0246181e-07 0.72335705)
(-1.8053887e-07 2.1921356e-07 0.72335646)
(-8.1665967e-08 2.2801278e-07 0.72335613)
(3.7627447e-09 2.3341058e-07 0.72335604)
(8.3264659e-08 2.3738322e-07 0.72335616)
(1.5668934e-07 2.4093335e-07 0.72335648)
(2.1850989e-07 2.447481e-07 0.72335699)
(2.4936828e-07 2.4936827e-07 0.72335765)
(8.4439158e-08 2.5442674e-07 0.72335837)
(-1.6130793e-07 5.2637281e-08 0.72335879)
(-3.5016753e-07 6.9680468e-08 0.72335766)
(-1.6719465e-07 7.5867254e-08 0.72335711)
(-7.5405174e-08 7.857661e-08 0.7233568)
(7.4703456e-09 8.0041116e-08 0.72335672)
(8.6123314e-08 8.1048344e-08 0.72335685)
(1.5959653e-07 8.1946886e-08 0.72335718)
(2.2224829e-07 8.2986471e-08 0.7233577)
(2.5442674e-07 8.4439155e-08 0.72335837)
(8.6358782e-08 8.6358779e-08 0.72335911)
(-9.9602968e-07 -9.9602967e-07 1.0760205)
(-2.2324646e-06 -8.7074459e-07 1.0760184)
(-1.1829593e-06 -8.4297272e-07 1.0760174)
(-6.5173819e-07 -8.3202677e-07 1.0760167)
(-2.0526204e-07 -8.2543267e-07 1.0760164)
(1.8937013e-07 -8.193353e-07 1.0760164)
(5.3064909e-07 -8.1097912e-07 1.0760167)
(7.9000382e-07 -7.9534377e-07 1.0760173)
(8.7972261e-07 -7.5811398e-07 1.0760181)
(2.8862318e-07 -6.5088924e-07 1.0760189)
(-8.7074459e-07 -2.2324646e-06 1.0760184)
(-2.0028792e-06 -2.0028792e-06 1.0760166)
(-1.1248826e-06 -1.9332031e-06 1.0760156)
(-6.2542811e-07 -1.8980513e-06 1.0760149)
(-1.8622484e-07 -1.8736259e-06 1.0760147)
(2.1105045e-07 -1.850364e-06 1.0760147)
(5.6663639e-07 -1.8206728e-06 1.076015)
(8.6930153e-07 -1.772642e-06 1.0760156)
(1.0964044e-06 -1.6796949e-06 1.0760165)
(3.9584792e-07 -1.4742589e-06 1.0760176)
(-8.4297271e-07 -1.1829593e-06 1.0760174)
(-1.9332031e-06 -1.1248826e-06 1.0760156)
(-1.0781314e-06 -1.0781314e-06 1.0760146)
(-5.9216101e-07 -1.0422954e-06 1.076014)
(-1.5757477e-07 -1.0120428e-06 1.0760137)
(2.4232326e-07 -9.8219444e-07 1.0760138)
(6.0837114e-07 -9.4763056e-07 1.0760141)
(9.3098166e-07 -9.0254633e-07 1.0760148)
(1.1781057e-06 -8.4214726e-07 1.0760157)
(4.2558053e-07 -7.7769727e-07 1.0760169)
(-8.3202677e-07 -6.5173818e-07 1.0760167)
(-1.8980513e-06 -6.2542812e-07 1.0760149)
(-1.0422954e-06 -5.9216101e-07 1.076014)
(-5.5933955e-07 -5.5933956e-07 1.0760134)
(-1.2612391e-07 -5.2790888e-07 1.0760132)
(2.7546269e-07 -4.9642086e-07 1.0760132)
(6.462845e-07 -4.6279546e-07 1.0760136)
(9.7478483e-07 -4.2559787e-07 1.0760143)
(1.2212535e-06 -3.8656009e-07 1.0760153)
(4.3881458e-07 -3.5591885e-07 1.0760165)
(-8.2543267e-07 -2.0526204e-07 1.0760164)
(-1.8736259e-06 -1.8622484e-07 1.0760147)
(-1.0120428e-06 -1.5757478e-07 1.0760137)
(-5.2790888e-07 -1.2612392e-07 1.0760132)
(-9.4656071e-08 -9.4656073e-08 1.0760129)
(3.0743668e-07 -6.3521996e-08 1.076013)
(6.7919413e-07 -3.2317923e-08 1.0760135)
(1.007217e-06 -1.3941365e-09 1.0760142)
(1.2477847e-06 2.6483563e-08 1.0760152)
(4.4600802e-07 4.4729348e-08 1.0760164)
(-8.193353e-07 1.8937011e-07 1.0760164)
(-1.850364e-06 2.1105045e-07 1.0760147)
(-9.8219445e-07 2.4232327e-07 1.0760138)
(-4.9642085e-07 2.7546269e-07 1.0760132)
(-6.3521986e-08 3.0743668e-07 1.076013)
(3.3780084e-07 3.3780084e-07 1.0760132)
(7.0841236e-07 3.6681057e-07 1.0760136)
(1.0335863e-06 3.9401524e-07 1.0760143)
(1.267377e-06 4.1709129e-07 1.0760154)
(4.5097844e-07 4.3128937e-07 1.0760166)
(-8.1097912e-07 5.3064911e-07 1.0760167)
(-1.8206728e-06 5.666364e-07 1.076015)
(-9.4763057e-07 6.0837115e-07 1.0760141)
(-4.6279546e-07 6.4628451e-07 1.0760136)
(-3.231792e-08 6.7919412e-07 1.0760135)
(3.6681057e-07 7.0841236e-07 1.0760136)
(7.3540852e-07 7.3540852e-07 1.0760141)
(1.0574978e-06 7.6074851e-07 1.0760148)
(1.2850588e-06 7.8310477e-07 1.0760159)
(4.5547341e-07 7.9797155e-07 1.0760171)
(-7.9534378e-07 7.9000383e-07 1.0760173)
(-1.772642e-06 8.6930154e-07 1.0760156)
(-9.0254633e-07 9.3098166e-07 1.0760148)
(-4.2559788e-07 9.7478484e-07 1.0760143)
(-1.3941388e-09 1.007217e-06 1.0760142)
(3.9401524e-07 1.0335863e-06 1.0760143)
(7.6074851e-07 1.0574978e-06 1.0760148)
(1.0812826e-06 1.0812826e-06 1.0760156)
(1.3046e-06 1.10559e-06 1.0760167)
(4.6088962e-07 1.1262696e-06 1.0760179)
(-7.5811398e-07 8.7972261e-07 1.0760181)
(-1.6796949e-06 1.0964044e-06 1.0760165)
(-8.4214727e-07 1.1781057e-06 1.0760157)
(-3.8656009e-07 1.2212535e-06 1.0760153)
(2.6483572e-08 1.2477847e-06 1.0760152)
(4.1709129e-07 1.267377e-06 1.0760154)
(7.8310477e-07 1.2850588e-06 1.0760159)
(1.10559e-06 1.3046e-06 1.0760167)
(1.3300458e-06 1.3300458e-06 1.0760177)
(4.6925983e-07 1.3639418e-06 1.076019)
(-6.5088924e-07 2.8862318e-07 1.0760189)
(-1.4742589e-06 3.9584792e-07 1.0760176)
(-7.7769727e-07 4.2558053e-07 1.0760169)
(-3.5591885e-07 4.3881459e-07 1.0760165)
(4.4729346e-08 4.4600803e-07 1.0760164)
(4.3128936e-07 4.5097844e-07 1.0760166)
(7.9797154e-07 4.5547341e-07 1.0760171)
(1.1262696e-06 4.6088962e-07 1.0760179)
(1.3639418e-06 4.6925983e-07 1.076019)
(4.8348689e-07 4.8348689e-07 1.0760204)
(-1.6174026e-06 -1.6174026e-06 1.0760526)
(-3.6731468e-06 -1.414157e-06 1.0760508)
(-2.0092804e-06 -1.3683709e-06 1.0760498)
(-1.1139105e-06 -1.3497088e-06 1.0760492)
(-3.3277419e-07 -1.338146e-06 1.076049)
(3.7274527e-07 -1.3272833e-06 1.076049)
(9.9883821e-07 -1.3122669e-06 1.0760494)
(1.5101757e-06 -1.2839317e-06 1.07605)
(1.8074972e-06 -1.2157029e-06 1.0760509)
(6.2820877e-07 -1.0166029e-06 1.0760519)
(-1.414157e-06 -3.6731468e-06 1.0760508)
(-3.2995992e-06 -3.2995992e-06 1.0760493)
(-1.9126081e-06 -3.1834701e-06 1.0760483)
(-1.0685732e-06 -3.1229616e-06 1.0760478)
(-2.9913598e-07 -3.0799592e-06 1.0760475)
(4.11564e-07 -3.0385004e-06 1.0760476)
(1.0638657e-06 -2.9852319e-06 1.076048)
(1.6550217e-06 -2.89857e-06 1.0760486)
(2.2084903e-06 -2.7296327e-06 1.0760496)
(8.2730877e-07 -2.3529357e-06 1.0760509)
(-1.3683709e-06 -2.0092804e-06 1.0760498)
(-3.1834701e-06 -1.9126081e-06 1.0760483)
(-1.8326429e-06 -1.8326429e-06 1.0760475)
(-1.0103996e-06 -1.7700311e-06 1.0760469)
(-2.4831294e-07 -1.7164631e-06 1.0760467)
(4.674726e-07 -1.6632124e-06 1.0760468)
(1.1387686e-06 -1.6013031e-06 1.0760472)
(1.7657749e-06 -1.5203917e-06 1.0760479)
(2.3531314e-06 -1.4121252e-06 1.0760489)
(8.793401e-07 -1.2990127e-06 1.0760503)
(-1.3497088e-06 -1.1139105e-06 1.0760492)
(-3.1229616e-06 -1.0685732e-06 1.0760478)
(-1.7700311e-06 -1.0103996e-06 1.0760469)
(-9.5239341e-07 -9.5239341e-07 1.0760464)
(-1.923173e-07 -8.9646826e-07 1.0760462)
(5.2672397e-07 -8.4020808e-07 1.0760463)
(1.2066864e-06 -7.7998363e-07 1.0760467)
(1.8441996e-06 -7.1329622e-07 1.0760475)
(2.4298693e-06 -6.434081e-07 1.0760485)
(9.0271709e-07 -5.8907755e-07 1.07605)
(-1.338146e-06 -3.3277419e-07 1.076049)
(-3.0799592e-06 -2.9913598e-07 1.0760475)
(-1.7164631e-06 -2.4831295e-07 1.0760467)
(-8.9646825e-07 -1.9231731e-07 1.0760462)
(-1.3612761e-07 -1.361276e-07 1.076046)
(5.8395723e-07 -8.03997e-08 1.0760461)
(1.2656805e-06 -2.443201e-08 1.0760466)
(1.9023505e-06 3.1122886e-08 1.0760474)
(2.4773501e-06 8.1240863e-08 1.0760484)
(9.1556047e-07 1.139842e-07 1.0760499)
(-1.3272833e-06 3.7274527e-07 1.076049)
(-3.0385004e-06 4.1156399e-07 1.0760476)
(-1.6632124e-06 4.6747261e-07 1.0760468)
(-8.4020807e-07 5.2672396e-07 1.0760463)
(-8.0399695e-08 5.8395723e-07 1.0760461)
(6.3841956e-07 6.3841957e-07 1.0760463)
(1.318209e-06 6.9061402e-07 1.0760468)
(1.9498724e-06 7.3978662e-07 1.0760476)
(2.5127306e-06 7.8177826e-07 1.0760487)
(9.2454598e-07 8.0784256e-07 1.0760501)
(-1.3122669e-06 9.9883821e-07 1.0760494)
(-2.9852319e-06 1.0638657e-06 1.076048)
(-1.6013031e-06 1.1387687e-06 1.0760472)
(-7.7998363e-07 1.2066864e-06 1.0760467)
(-2.4432002e-08 1.2656805e-06 1.0760466)
(6.9061402e-07 1.318209e-06 1.0760468)
(1.3670475e-06 1.3670475e-06 1.0760473)
(1.9935147e-06 1.4134629e-06 1.0760481)
(2.545406e-06 1.4553985e-06 1.0760492)
(9.3293666e-07 1.4845099e-06 1.0760507)
(-1.2839317e-06 1.5101757e-06 1.07605)
(-2.89857e-06 1.6550217e-06 1.0760486)
(-1.5203917e-06 1.765775e-06 1.0760479)
(-7.1329622e-07 1.8441996e-06 1.0760475)
(3.1122891e-08 1.9023505e-06 1.0760474)
(7.3978662e-07 1.9498724e-06 1.0760476)
(1.4134629e-06 1.9935147e-06 1.0760481)
(2.0382234e-06 2.0382234e-06 1.0760489)
(2.5837775e-06 2.0869437e-06 1.0760501)
(9.4395356e-07 2.1343525e-06 1.0760516)
(-1.2157029e-06 1.8074972e-06 1.0760509)
(-2.7296327e-06 2.2084903e-06 1.0760496)
(-1.4121252e-06 2.3531314e-06 1.0760489)
(-6.434081e-07 2.4298693e-06 1.0760485)
(8.1240868e-08 2.4773501e-06 1.0760484)
(7.8177827e-07 2.5127306e-06 1.0760487)
(1.4553985e-06 2.545406e-06 1.0760492)
(2.0869437e-06 2.5837776e-06 1.0760501)
(2.6415352e-06 2.6415352e-06 1.0760512)
(9.6454256e-07 2.7502026e-06 1.0760528)
(-1.0166029e-06 6.2820877e-07 1.0760519)
(-2.3529357e-06 8.2730877e-07 1.0760509)
(-1.2990128e-06 8.793401e-07 1.0760503)
(-5.8907754e-07 9.0271708e-07 1.07605)
(1.139842e-07 9.1556047e-07 1.0760499)
(8.0784254e-07 9.2454597e-07 1.0760501)
(1.4845099e-06 9.3293666e-07 1.0760507)
(2.1343525e-06 9.4395356e-07 1.0760516)
(2.7502026e-06 9.6454255e-07 1.0760528)
(1.0163985e-06 1.0163985e-06 1.0760544)
(-2.1800221e-06 -2.1800221e-06 1.076104)
(-4.9709091e-06 -1.9064582e-06 1.0761023)
(-2.7448898e-06 -1.8446069e-06 1.0761015)
(-1.5154265e-06 -1.8188976e-06 1.0761009)
(-4.1603658e-07 -1.8026304e-06 1.0761007)
(5.9503274e-07 -1.7871229e-06 1.0761008)
(1.5111798e-06 -1.765508e-06 1.0761012)
(2.2907402e-06 -1.7244853e-06 1.0761019)
(2.8121013e-06 -1.6251624e-06 1.0761028)
(9.9525629e-07 -1.3337817e-06 1.0761039)
(-1.9064582e-06 -4.9709091e-06 1.0761023)
(-4.4677864e-06 -4.4677864e-06 1.0761009)
(-2.6135488e-06 -4.3099525e-06 1.0761001)
(-1.4524616e-06 -4.2260461e-06 1.0760996)
(-3.683746e-07 -4.1653494e-06 1.0760994)
(6.5071634e-07 -4.1061444e-06 1.0760995)
(1.6051363e-06 -4.029573e-06 1.0760999)
(2.5012584e-06 -3.9044656e-06 1.0761006)
(3.3981567e-06 -3.6596567e-06 1.0761016)
(1.286637e-06 -3.1117475e-06 1.076103)
(-1.8446069e-06 -2.7448898e-06 1.0761015)
(-4.3099525e-06 -2.6135488e-06 1.0761001)
(-2.5031495e-06 -2.5031495e-06 1.0760993)
(-1.3708233e-06 -2.4153687e-06 1.0760988)
(-2.9613492e-07 -2.3393793e-06 1.0760986)
(7.3080916e-07 -2.2632606e-06 1.0760988)
(1.7128587e-06 -2.1743829e-06 1.0760992)
(2.6606564e-06 -2.057996e-06 1.0760999)
(3.6048194e-06 -1.9023635e-06 1.076101)
(1.3605291e-06 -1.7416031e-06 1.0761025)
(-1.8188976e-06 -1.5154265e-06 1.0761009)
(-4.2260461e-06 -1.4524616e-06 1.0760996)
(-2.4153687e-06 -1.3708233e-06 1.0760988)
(-1.2886914e-06 -1.2886914e-06 1.0760983)
(-2.1626652e-07 -1.2089796e-06 1.0760982)
(8.1571277e-07 -1.1284236e-06 1.0760983)
(1.8104009e-06 -1.0419472e-06 1.0760988)
(2.7732778e-06 -9.4607291e-07 1.0760996)
(3.7145496e-06 -8.4568845e-07 1.0761007)
(1.3938106e-06 -7.6814578e-07 1.0761022)
(-1.8026304e-06 -4.1603658e-07 1.0761007)
(-4.1653494e-06 -3.683746e-07 1.0760994)
(-2.3393793e-06 -2.961349e-07 1.0760986)
(-1.2089795e-06 -2.1626652e-07 1.0760982)
(-1.3586707e-07 -1.3586707e-07 1.0760981)
(8.9784149e-07 -5.5901296e-08 1.0760982)
(1.8952093e-06 2.4607328e-08 1.0760987)
(2.8569152e-06 1.0467491e-07 1.0760995)
(3.7827465e-06 1.7697062e-07 1.0761007)
(1.4122242e-06 2.2414149e-07 1.0761022)
(-1.7871229e-06 5.9503273e-07 1.0761008)
(-4.1061444e-06 6.5071636e-07 1.0760995)
(-2.2632606e-06 7.3080916e-07 1.0760988)
(-1.1284236e-06 8.1571276e-07 1.0760983)
(-5.5901298e-08 8.9784149e-07 1.0760982)
(9.7618717e-07 9.7618716e-07 1.0760984)
(1.9709771e-06 1.0515388e-06 1.0760989)
(2.9256411e-06 1.1228702e-06 1.0760998)
(3.8340161e-06 1.1841602e-06 1.0761009)
(1.4252579e-06 1.2224641e-06 1.0761024)
(-1.7655079e-06 1.5111798e-06 1.0761012)
(-4.029573e-06 1.6051363e-06 1.0760999)
(-2.1743829e-06 1.7128587e-06 1.0760992)
(-1.0419472e-06 1.8104009e-06 1.0760988)
(2.4607328e-08 1.8952093e-06 1.0760987)
(1.0515388e-06 1.9709771e-06 1.0760989)
(2.0418924e-06 2.0418924e-06 1.0760995)
(2.9895366e-06 2.1100699e-06 1.0761003)
(3.8823404e-06 2.1728035e-06 1.0761015)
(1.4377601e-06 2.2174851e-06 1.076103)
(-1.7244853e-06 2.2907402e-06 1.0761019)
(-3.9044656e-06 2.5012584e-06 1.0761006)
(-2.057996e-06 2.6606564e-06 1.0760999)
(-9.460729e-07 2.7732778e-06 1.0760996)
(1.0467491e-07 2.8569152e-06 1.0760995)
(1.1228702e-06 2.9256411e-06 1.0760998)
(2.1100699e-06 2.9895366e-06 1.0761003)
(3.0565522e-06 3.0565522e-06 1.0761012)
(3.9414313e-06 3.1324388e-06 1.0761024)
(1.4550456e-06 3.2102247e-06 1.0761039)
(-1.6251624e-06 2.8121013e-06 1.0761028)
(-3.6596567e-06 3.3981567e-06 1.0761016)
(-1.9023635e-06 3.6048194e-06 1.076101)
(-8.4568846e-07 3.7145496e-06 1.0761007)
(1.7697062e-07 3.7827465e-06 1.0761007)
(1.1841602e-06 3.8340161e-06 1.0761009)
(2.1728035e-06 3.8823404e-06 1.0761015)
(3.1324388e-06 3.9414313e-06 1.0761024)
(4.0360129e-06 4.0360129e-06 1.0761036)
(1.4896174e-06 4.2266836e-06 1.0761052)
(-1.3337817e-06 9.9525629e-07 1.0761039)
(-3.1117476e-06 1.286637e-06 1.076103)
(-1.7416031e-06 1.3605291e-06 1.0761025)
(-7.6814576e-07 1.3938106e-06 1.0761022)
(2.241415e-07 1.4122242e-06 1.0761022)
(1.2224641e-06 1.4252579e-06 1.0761024)
(2.2174851e-06 1.4377601e-06 1.076103)
(3.2102247e-06 1.4550456e-06 1.0761039)
(4.2266836e-06 1.4896174e-06 1.0761052)
(1.5821594e-06 1.5821594e-06 1.0761069)
(-2.7115639e-06 -2.7115639e-06 1.0761739)
(-6.1825508e-06 -2.3703163e-06 1.0761724)
(-3.4095423e-06 -2.2933348e-06 1.0761716)
(-1.861326e-06 -2.2610083e-06 1.0761711)
(-4.5586118e-07 -2.2402557e-06 1.0761709)
(8.5361567e-07 -2.2202388e-06 1.076171)
(2.0575184e-06 -2.1921468e-06 1.0761715)
(3.1054631e-06 -2.1386178e-06 1.0761722)
(3.845544e-06 -2.0086303e-06 1.0761731)
(1.3700742e-06 -1.6263725e-06 1.0761742)
(-2.3703163e-06 -6.1825508e-06 1.0761724)
(-5.5552072e-06 -5.5552072e-06 1.076171)
(-3.2455804e-06 -5.3582043e-06 1.0761702)
(-1.7817073e-06 -5.2522708e-06 1.0761698)
(-3.9470687e-07 -5.1746591e-06 1.0761696)
(9.2577894e-07 -5.0982238e-06 1.0761698)
(2.1799499e-06 -4.998808e-06 1.0761702)
(3.3807378e-06 -4.8358597e-06 1.0761709)
(4.6139118e-06 -4.5163218e-06 1.076172)
(1.7523321e-06 -3.7999826e-06 1.0761734)
(-2.2933348e-06 -3.4095423e-06 1.0761716)
(-5.3582043e-06 -3.2455804e-06 1.0761702)
(-3.1066059e-06 -3.106606e-06 1.0761695)
(-1.6777809e-06 -2.9949611e-06 1.0761691)
(-3.0181416e-07 -2.8974256e-06 1.076169)
(1.0294668e-06 -2.799075e-06 1.0761691)
(2.3198826e-06 -2.683786e-06 1.0761696)
(3.5879493e-06 -2.5325468e-06 1.0761704)
(4.8814211e-06 -2.3303807e-06 1.0761714)
(1.8476337e-06 -2.1229768e-06 1.0761729)
(-2.2610083e-06 -1.861326e-06 1.0761711)
(-5.2522708e-06 -1.7817073e-06 1.0761698)
(-2.9949611e-06 -1.6777809e-06 1.0761691)
(-1.572527e-06 -1.572527e-06 1.0761687)
(-1.9882072e-07 -1.4698035e-06 1.0761686)
(1.1394186e-06 -1.365556e-06 1.0761688)
(2.4464781e-06 -1.2533406e-06 1.0761692)
(3.7341431e-06 -1.1287747e-06 1.07617)
(5.0234819e-06 -9.9841649e-07 1.0761712)
(1.8906013e-06 -8.9813615e-07 1.0761727)
(-2.2402557e-06 -4.5586118e-07 1.0761709)
(-5.1746591e-06 -3.9470687e-07 1.0761696)
(-2.8974256e-06 -3.0181414e-07 1.076169)
(-1.4698035e-06 -1.9882072e-07 1.0761686)
(-9.4843183e-08 -9.4843182e-08 1.0761685)
(1.2459297e-06 8.8598272e-09 1.0761687)
(2.5566639e-06 1.1352177e-07 1.0761692)
(3.8428735e-06 2.1780095e-07 1.07617)
(5.1120596e-06 3.1203634e-07 1.0761712)
(1.9144873e-06 3.7346393e-07 1.0761727)
(-2.2202388e-06 8.5361567e-07 1.076171)
(-5.0982238e-06 9.2577894e-07 1.0761698)
(-2.799075e-06 1.0294668e-06 1.0761691)
(-1.3655561e-06 1.1394186e-06 1.0761688)
(8.8598257e-09 1.2459297e-06 1.0761687)
(1.3477835e-06 1.3477835e-06 1.0761689)
(2.6554192e-06 1.4460753e-06 1.0761695)
(3.9326577e-06 1.5395102e-06 1.0761703)
(5.1791448e-06 1.6201705e-06 1.0761715)
(1.9315531e-06 1.6708055e-06 1.076173)
(-2.1921468e-06 2.0575184e-06 1.0761715)
(-4.998808e-06 2.1799499e-06 1.0761702)
(-2.683786e-06 2.3198825e-06 1.0761696)
(-1.2533406e-06 2.4464781e-06 1.0761692)
(1.1352177e-07 2.5566639e-06 1.0761692)
(1.4460753e-06 2.6554192e-06 1.0761695)
(2.7483906e-06 2.7483906e-06 1.07617)
(4.0169687e-06 2.8385793e-06 1.0761709)
(5.243355e-06 2.9225863e-06 1.0761721)
(1.9482439e-06 2.9832718e-06 1.0761736)
(-2.1386178e-06 3.1054631e-06 1.0761722)
(-4.8358597e-06 3.3807378e-06 1.0761709)
(-2.5325468e-06 3.5879493e-06 1.0761704)
(-1.1287747e-06 3.7341431e-06 1.07617)
(2.1780095e-07 3.8428735e-06 1.07617)
(1.5395102e-06 3.9326576e-06 1.0761703)
(2.8385793e-06 4.0169687e-06 1.0761709)
(4.1068534e-06 4.1068534e-06 1.0761718)
(5.3238374e-06 4.2108423e-06 1.076173)
(1.9720101e-06 4.3197826e-06 1.0761745)
(-2.0086303e-06 3.845544e-06 1.0761731)
(-4.5163218e-06 4.6139118e-06 1.076172)
(-2.3303807e-06 4.8814211e-06 1.0761714)
(-9.9841648e-07 5.0234819e-06 1.0761712)
(3.1203633e-07 5.1120596e-06 1.0761712)
(1.6201705e-06 5.1791448e-06 1.0761715)
(2.9225863e-06 5.243355e-06 1.0761721)
(4.2108423e-06 5.3238374e-06 1.076173)
(5.4562842e-06 5.4562842e-06 1.0761742)
(2.0208708e-06 5.7288067e-06 1.0761758)
(-1.6263725e-06 1.3700742e-06 1.0761742)
(-3.7999826e-06 1.752332e-06 1.0761734)
(-2.1229768e-06 1.8476337e-06 1.0761729)
(-8.9813615e-07 1.8906013e-06 1.0761727)
(3.7346394e-07 1.9144872e-06 1.0761727)
(1.6708055e-06 1.9315531e-06 1.076173)
(2.9832718e-06 1.9482439e-06 1.0761736)
(4.3197826e-06 1.9720101e-06 1.0761745)
(5.7288067e-06 2.0208708e-06 1.0761758)
(2.1536917e-06 2.1536917e-06 1.0761775)
(-3.2179348e-06 -3.2179348e-06 1.0762617)
(-7.3250311e-06 -2.8111312e-06 1.0762602)
(-4.0160048e-06 -2.7196706e-06 1.0762595)
(-2.1590751e-06 -2.6810475e-06 1.076259)
(-4.5784327e-07 -2.6560011e-06 1.0762589)
(1.1411963e-06 -2.6316236e-06 1.0762591)
(2.6254944e-06 -2.5972267e-06 1.0762595)
(3.9343133e-06 -2.5314973e-06 1.0762602)
(4.8822795e-06 -2.3715987e-06 1.0762612)
(1.7437471e-06 -1.9007645e-06 1.0762623)
(-2.8111312e-06 -7.3250311e-06 1.0762602)
(-6.5776348e-06 -6.5776349e-06 1.0762589)
(-3.8208792e-06 -6.3432609e-06 1.0762582)
(-2.0635709e-06 -6.216367e-06 1.0762578)
(-3.8370741e-07 -6.1225498e-06 1.0762577)
(1.2293577e-06 -6.0294555e-06 1.0762579)
(2.7756838e-06 -5.9078176e-06 1.0762583)
(4.2727553e-06 -5.7079742e-06 1.0762591)
(5.8283786e-06 -5.315572e-06 1.0762601)
(2.2145813e-06 -4.4351402e-06 1.0762615)
(-2.7196706e-06 -4.0160048e-06 1.0762595)
(-6.3432609e-06 -3.8208792e-06 1.0762582)
(-3.654737e-06 -3.654737e-06 1.0762575)
(-1.938364e-06 -3.5203345e-06 1.0762572)
(-2.709317e-07 -3.4021059e-06 1.0762571)
(1.3559285e-06 -3.2822451e-06 1.0762573)
(2.9469757e-06 -3.1412733e-06 1.0762577)
(4.5265588e-06 -2.9560711e-06 1.0762585)
(6.1551135e-06 -2.7085612e-06 1.0762596)
(2.3307016e-06 -2.4557972e-06 1.076261)
(-2.6810475e-06 -2.1590751e-06 1.076259)
(-6.2163671e-06 -2.0635708e-06 1.0762578)
(-3.5203346e-06 -1.938364e-06 1.0762572)
(-1.8109398e-06 -1.8109398e-06 1.0762568)
(-1.4561794e-07 -1.6860259e-06 1.0762567)
(1.4901904e-06 -1.5588062e-06 1.0762569)
(3.1018579e-06 -1.4215324e-06 1.0762574)
(4.7054675e-06 -1.2689791e-06 1.0762583)
(6.3286525e-06 -1.1093826e-06 1.0762594)
(2.3830906e-06 -9.8696187e-07 1.0762608)
(-2.6560011e-06 -4.5784327e-07 1.0762589)
(-6.1225498e-06 -3.8370742e-07 1.0762577)
(-3.402106e-06 -2.7093168e-07 1.0762571)
(-1.6860259e-06 -1.4561792e-07 1.0762567)
(-1.8798079e-08 -1.8798076e-08 1.0762567)
(1.620422e-06 1.0799774e-07 1.0762569)
(3.2368028e-06 2.3624564e-07 1.0762574)
(4.8387087e-06 3.6422807e-07 1.0762583)
(6.4371307e-06 4.7996273e-07 1.0762594)
(2.4123155e-06 5.5534804e-07 1.0762609)
(-2.6316236e-06 1.1411963e-06 1.0762591)
(-6.0294555e-06 1.2293578e-06 1.0762579)
(-3.2822451e-06 1.3559285e-06 1.0762573)
(-1.5588062e-06 1.4901904e-06 1.0762569)
(1.0799772e-07 1.620422e-06 1.0762569)
(1.7452341e-06 1.7452341e-06 1.0762572)
(3.3580882e-06 1.8660327e-06 1.0762577)
(4.9491845e-06 1.9812476e-06 1.0762586)
(6.5197724e-06 2.0810535e-06 1.0762597)
(2.4333475e-06 2.1438874e-06 1.0762612)
(-2.5972268e-06 2.6254944e-06 1.0762595)
(-5.9078176e-06 2.7756838e-06 1.0762583)
(-3.1412733e-06 2.9469757e-06 1.0762577)
(-1.4215324e-06 3.1018578e-06 1.0762574)
(2.3624566e-07 3.2368028e-06 1.0762574)
(1.8660327e-06 3.3580882e-06 1.0762577)
(3.4728163e-06 3.4728163e-06 1.0762583)
(5.0537295e-06 3.5848605e-06 1.0762592)
(6.5997705e-06 3.6900815e-06 1.0762604)
(2.4542047e-06 3.7667272e-06 1.0762619)
(-2.5314973e-06 3.9343132e-06 1.0762602)
(-5.7079742e-06 4.2727553e-06 1.0762591)
(-2.9560711e-06 4.5265589e-06 1.0762585)
(-1.2689791e-06 4.7054675e-06 1.0762583)
(3.6422808e-07 4.8387086e-06 1.0762583)
(1.9812476e-06 4.9491845e-06 1.0762586)
(3.5848605e-06 5.0537295e-06 1.0762592)
(5.1664497e-06 5.1664497e-06 1.0762601)
(6.7016392e-06 5.2985418e-06 1.0762613)
(2.4844446e-06 5.438463e-06 1.0762628)
(-2.3715987e-06 4.8822795e-06 1.0762612)
(-5.315572e-06 5.8283786e-06 1.0762601)
(-2.7085611e-06 6.1551135e-06 1.0762596)
(-1.1093826e-06 6.3286525e-06 1.0762594)
(4.7996273e-07 6.4371307e-06 1.0762594)
(2.0810535e-06 6.5197724e-06 1.0762597)
(3.6900815e-06 6.5997705e-06 1.0762604)
(5.2985418e-06 6.7016392e-06 1.0762613)
(6.8717838e-06 6.8717838e-06 1.0762625)
(2.5474856e-06 7.2250177e-06 1.0762641)
(-1.9007645e-06 1.7437471e-06 1.0762623)
(-4.4351402e-06 2.2145813e-06 1.0762615)
(-2.4557972e-06 2.3307017e-06 1.076261)
(-9.8696189e-07 2.3830906e-06 1.0762608)
(5.5534804e-07 2.4123155e-06 1.0762609)
(2.1438874e-06 2.4333475e-06 1.0762612)
(3.7667272e-06 2.4542047e-06 1.0762619)
(5.438463e-06 2.4844446e-06 1.0762628)
(7.2250177e-06 2.5474856e-06 1.0762641)
(2.7199339e-06 2.7199339e-06 1.0762658)
(-3.6994729e-06 -3.6994729e-06 1.0763665)
(-8.4025326e-06 -3.2295016e-06 1.0763651)
(-4.5714104e-06 -3.1241799e-06 1.0763644)
(-2.4153132e-06 -3.0795513e-06 1.0763641)
(-4.2877431e-07 -3.0503982e-06 1.076364)
(1.4492951e-06 -3.021826e-06 1.0763641)
(3.2034929e-06 -2.98134e-06 1.0763646)
(4.7621076e-06 -2.9038127e-06 1.0763653)
(5.9057939e-06 -2.7149893e-06 1.0763662)
(2.1108907e-06 -2.1585132e-06 1.0763673)
(-3.2295016e-06 -8.4025326e-06 1.0763651)
(-7.539593e-06 -7.539593e-06 1.0763639)
(-4.346485e-06 -7.2695118e-06 1.0763633)
(-2.3046407e-06 -7.1226349e-06 1.0763629)
(-3.4218625e-07 -7.0133154e-06 1.0763628)
(1.5528824e-06 -6.9041994e-06 1.076363)
(3.3805129e-06 -6.7611086e-06 1.0763635)
(5.1616336e-06 -6.525598e-06 1.0763642)
(7.023743e-06 -6.0627542e-06 1.0763652)
(2.6673669e-06 -5.0237332e-06 1.0763666)
(-3.1241799e-06 -4.5714104e-06 1.0763644)
(-7.2695118e-06 -4.346485e-06 1.0763633)
(-4.1544523e-06 -4.1544523e-06 1.0763626)
(-2.1591168e-06 -3.9983389e-06 1.0763623)
(-2.1033882e-07 -3.8602921e-06 1.0763622)
(1.7015019e-06 -3.7197359e-06 1.0763624)
(3.5820943e-06 -3.5539732e-06 1.0763629)
(5.4604621e-06 -3.3359434e-06 1.0763637)
(7.4076587e-06 -3.0446116e-06 1.0763648)
(2.8035714e-06 -2.748079e-06 1.0763662)
(-3.0795513e-06 -2.4153131e-06 1.0763641)
(-7.1226349e-06 -2.3046407e-06 1.0763629)
(-3.9983389e-06 -2.1591168e-06 1.0763623)
(-2.0104806e-06 -2.0104806e-06 1.076362)
(-6.3583187e-08 -1.8642625e-06 1.0763619)
(1.8592013e-06 -1.7149073e-06 1.0763622)
(3.7643054e-06 -1.5534214e-06 1.0763627)
(5.6709951e-06 -1.3737903e-06 1.0763635)
(7.6116074e-06 -1.1859079e-06 1.0763646)
(2.8650553e-06 -1.042096e-06 1.076366)
(-3.0503982e-06 -4.287743e-07 1.076364)
(-7.0133154e-06 -3.4218624e-07 1.0763628)
(-3.8602921e-06 -2.103388e-07 1.0763622)
(-1.8642625e-06 -6.358318e-08 1.0763619)
(8.5234412e-08 8.5234407e-08 1.0763619)
(2.012343e-06 2.3433476e-07 1.0763622)
(3.9232113e-06 3.8542407e-07 1.0763627)
(5.8279755e-06 5.3640073e-07 1.0763635)
(7.739353e-06 6.7300202e-07 1.0763647)
(2.899446e-06 7.6192279e-07 1.0763661)
(-3.021826e-06 1.4492951e-06 1.0763641)
(-6.9041994e-06 1.5528824e-06 1.076363)
(-3.7197359e-06 1.7015019e-06 1.0763624)
(-1.7149074e-06 1.8592013e-06 1.0763622)
(2.3433476e-07 2.012343e-06 1.0763622)
(2.159391e-06 2.159391e-06 1.0763624)
(4.0663714e-06 2.3020575e-06 1.076363)
(5.9585731e-06 2.4384918e-06 1.0763639)
(7.8371294e-06 2.5569812e-06 1.076365)
(2.9243358e-06 2.6317205e-06 1.0763665)
(-2.98134e-06 3.2034929e-06 1.0763646)
(-6.7611087e-06 3.3805129e-06 1.0763635)
(-3.5539732e-06 3.5820943e-06 1.0763629)
(-1.5534213e-06 3.7643054e-06 1.0763627)
(3.8542407e-07 3.9232113e-06 1.0763627)
(2.3020574e-06 4.0663713e-06 1.076363)
(4.2023121e-06 4.2023121e-06 1.0763636)
(6.0828992e-06 4.3357463e-06 1.0763645)
(7.9325817e-06 4.4617738e-06 1.0763656)
(2.9492723e-06 4.5540707e-06 1.0763671)
(-2.9038127e-06 4.7621076e-06 1.0763653)
(-6.525598e-06 5.1616335e-06 1.0763642)
(-3.3359434e-06 5.4604621e-06 1.0763637)
(-1.3737903e-06 5.6709951e-06 1.0763635)
(5.3640073e-07 5.8279755e-06 1.0763635)
(2.4384918e-06 5.958573e-06 1.0763639)
(4.3357463e-06 6.0828992e-06 1.0763645)
(6.2180348e-06 6.2180348e-06 1.0763653)
(8.0554538e-06 6.3777332e-06 1.0763665)
(2.985867e-06 6.5480237e-06 1.076368)
(-2.7149893e-06 5.9057939e-06 1.0763662)
(-6.0627542e-06 7.023743e-06 1.0763652)
(-3.0446116e-06 7.4076587e-06 1.0763648)
(-1.1859079e-06 7.6116074e-06 1.0763646)
(6.7300201e-07 7.739353e-06 1.0763647)
(2.5569812e-06 7.8371294e-06 1.076365)
(4.4617738e-06 7.9325818e-06 1.0763656)
(6.3777332e-06 8.0554538e-06 1.0763665)
(8.2625707e-06 8.2625707e-06 1.0763678)
(3.0627993e-06 8.6947389e-06 1.0763693)
(-2.1585132e-06 2.1108907e-06 1.0763673)
(-5.0237332e-06 2.6673669e-06 1.0763666)
(-2.748079e-06 2.8035714e-06 1.0763662)
(-1.042096e-06 2.8650553e-06 1.076366)
(7.6192278e-07 2.899446e-06 1.0763661)
(2.6317205e-06 2.9243358e-06 1.0763665)
(4.5540707e-06 2.9492723e-06 1.0763671)
(6.5480237e-06 2.985867e-06 1.076368)
(8.6947389e-06 3.0627993e-06 1.0763693)
(3.2739792e-06 3.2739792e-06 1.0763709)
(-4.1547654e-06 -4.1547654e-06 1.0764876)
(-9.4142997e-06 -3.6243986e-06 1.0764863)
(-5.0794167e-06 -3.5058808e-06 1.0764857)
(-2.6351784e-06 -3.4555467e-06 1.0764853)
(-3.7504266e-07 -3.4224838e-06 1.0764853)
(1.7698431e-06 -3.389903e-06 1.0764855)
(3.7813615e-06 -3.3435835e-06 1.0764859)
(5.5768662e-06 -3.2547438e-06 1.0764866)
(6.9038655e-06 -3.0381824e-06 1.0764875)
(2.4675924e-06 -2.3995709e-06 1.0764886)
(-3.6243986e-06 -9.4142997e-06 1.0764863)
(-8.4409728e-06 -8.4409728e-06 1.0764852)
(-4.8261388e-06 -8.1369368e-06 1.0764846)