/*--------------------------------*- C++ -*----------------------------------*\
| =========                 |                                                 |
| \\      /  F ield         | OpenFOAM: The Open Source CFD Toolbox           |
|  \\    /   O peration     | Version:  v2106                                 |
|   \\  /    A nd           | Website:  www.openfoam.com                      |
|    \\/     M anipulation  |                                                 |
\*---------------------------------------------------------------------------*/
FoamFile
{
    version     2.0;
    format      ascii;
    arch        "LSB;label=32;scalar=64";
    class       volScalarField;
    location    "75";
    object      gradTy;
}
// * * * * * * * * * * * * * * * * * * * * * * * * * * * * * * * * * * * * * //

dimensions      [0 -1 0 1 0 0 0];

internalField   nonuniform List<scalar> 
4000
(
-0.00017781765
-0.00015765611
-0.00015298221
-0.00015116707
-0.00015010231
-0.00014912774
-0.00014780061
-0.00014536094
-0.00013986656
-0.00012650094
-0.0003907013
-0.00035344813
-0.00034174961
-0.0003359756
-0.000332042
-0.00032832338
-0.00032359789
-0.00031603552
-0.0003019346
-0.00027460847
-0.0001967424
-0.00018700884
-0.00017926986
-0.00017346406
-0.00016860962
-0.00016383913
-0.00015832693
-0.00015115502
-0.00014158223
-0.00013111743
-0.00010660283
-0.00010228296
-9.6895219e-05
-9.1622707e-05
-8.6592817e-05
-8.1563434e-05
-7.6198546e-05
-7.0267854e-05
-6.4044102e-05
-5.9134258e-05
-3.4075244e-05
-3.1016245e-05
-2.6423029e-05
-2.1391329e-05
-1.6363752e-05
-1.1394508e-05
-6.4182359e-06
-1.490097e-06
2.9508129e-06
5.8583915e-06
2.9014005e-05
3.2466546e-05
3.7458098e-05
4.2749229e-05
4.7852365e-05
5.2694747e-05
5.7315367e-05
6.1640125e-05
6.5297834e-05
6.7539644e-05
8.2849133e-05
8.8499325e-05
9.5136988e-05
0.00010118344
0.00010643257
0.00011108785
0.00011537795
0.00011938315
0.00012287896
0.00012515884
0.00012216095
0.00013406203
0.00014382426
0.00015080673
0.0001559787
0.00016017578
0.00016396116
0.00016767679
0.00017135989
0.00017429162
0.00013048466
0.00015877465
0.00017191171
0.00017881224
0.0001830453
0.00018616073
0.00018894482
0.00019193642
0.00019555965
0.0001995266
4.1279222e-05
5.4644835e-05
5.9496638e-05
6.162137e-05
6.2769865e-05
6.3559754e-05
6.4264408e-05
6.5079672e-05
6.6218897e-05
6.7724304e-05
-0.00077598855
-0.00067838124
-0.00065674469
-0.0006482169
-0.00064307956
-0.00063832921
-0.00063181906
-0.00061963784
-0.00059063279
-0.00050709594
-0.0017392725
-0.0015604067
-0.0015061233
-0.0014787372
-0.0014597078
-0.0014415849
-0.001418453
-0.0013810331
-0.0013086197
-0.0011485683
-0.00092162203
-0.00087637552
-0.00083995253
-0.00081203336
-0.00078846414
-0.00076520982
-0.00073828173
-0.00070315742
-0.0006561016
-0.00060588978
-0.00050775735
-0.00048725967
-0.00046134187
-0.00043577128
-0.0004112842
-0.00038675246
-0.00036055552
-0.00033157555
-0.00030116193
-0.0002772899
-0.00015991592
-0.00014508438
-0.00012276364
-9.826085e-05
-7.3744825e-05
-4.9488831e-05
-2.5178306e-05
-1.0861463e-06
2.0632862e-05
3.484782e-05
0.00014753481
0.00016442556
0.00018878965
0.00021460797
0.00023951833
0.00026317449
0.00028577544
0.0003069701
0.00032494823
0.00033600969
0.00041341905
0.0004414561
0.0004739709
0.0005035085
0.00052914779
0.00055191118
0.0005729434
0.00059268532
0.00061010267
0.0006216851
0.00061547759
0.000677257
0.00072531087
0.00075943713
0.00078470446
0.0008052483
0.00082387726
0.00084240757
0.000861345
0.00087745612
0.00068537585
0.00085418871
0.00091784069
0.00095145636
0.00097212636
0.00098739033
0.0010011659
0.0010163901
0.0010362145
0.0010626222
0.00022486106
0.0003083979
0.00033156204
0.00034187246
0.00034747673
0.00035134909
0.00035485104
0.00035907071
0.00036559178
0.00037667582
-0.001251939
-0.0010946182
-0.0010591778
-0.0010447325
-0.0010357824
-0.0010273743
-0.0010157509
-0.00099381821
-0.0009410062
-0.00078689425
-0.0028431731
-0.0025540313
-0.0024641425
-0.0024173063
-0.0023840207
-0.0023519297
-0.0023106976
-0.0022436175
-0.0021128528
-0.0018212732
-0.0015552692
-0.0014804407
-0.0014185442
-0.00137008
-0.0013286161
-0.0012873978
-0.0012394773
-0.0011768484
-0.0010930455
-0.0010054916
-0.00086221451
-0.00082712151
-0.00078209268
-0.00073719339
-0.00069390493
-0.00065035713
-0.00060374082
-0.00055212189
-0.00049802548
-0.0004559713
-0.0002575815
-0.00023154409
-0.00019220488
-0.00014886185
-0.00010536861
-6.223282e-05
-1.8911425e-05
2.409045e-05
6.2883915e-05
8.8228664e-05
0.00028852083
0.0003185682
0.00036184387
0.00040770696
0.00045200797
0.00049416416
0.0005345649
0.0005726266
0.00060512993
0.0006253048
0.00077314363
0.00082347768
0.00088145582
0.00093402708
0.00097969105
0.0010203503
0.0010581535
0.001094081
0.0011265409
0.0011490743
0.0011689408
0.0012810578
0.0013667856
0.0014274896
0.0014725009
0.001509285
0.001543066
0.0015776724
0.001615384
0.0016520804
0.0013990803
0.0017094663
0.0018214247
0.0018808231
0.0019175753
0.0019449613
0.0019702535
0.0019999547
0.0020446615
0.0021287748
0.00048626053
0.00064037247
0.00068064696
0.00069874175
0.00070868309
0.00071563825
0.00072213299
0.00073066054
0.00074659729
0.00078673603
-0.0016766556
-0.0014662576
-0.0014186878
-0.0013989147
-0.0013864036
-0.0013744769
-0.0013578528
-0.0013263022
-0.001249913
-0.0010258119
-0.0038231278
-0.0034361761
-0.003314786
-0.0032502536
-0.0032035718
-0.0031580372
-0.003099146
-0.0030029259
-0.0028146433
-0.0023932461
-0.0021110957
-0.0020100813
-0.0019251732
-0.001857661
-0.0017992175
-0.0017406746
-0.0016723187
-0.0015828055
-0.0014631085
-0.0013394676
-0.001165515
-0.0011170888
-0.0010543008
-0.00099113309
-0.00092982665
-0.00086787102
-0.00080136202
-0.00072762503
-0.0006504193
-0.00059078118
-0.00031997388
-0.00028331704
-0.00022775747
-0.00016633067
-0.00010449542
-4.2993709e-05
1.8925506e-05
8.0505513e-05
0.00013610817
0.0001723873
0.00045763988
0.00050046619
0.00056206561
0.00062736501
0.00069053025
0.00075078593
0.0008087389
0.00086359989
0.00091073805
0.00094019755
0.0011622489
0.0012345109
0.0013173602
0.00139238
0.0014576062
0.0015158792
0.0015704202
0.0016228556
0.001671104
0.0017054685
0.001761809
0.0019237188
0.0020463118
0.002132929
0.0021972546
0.0022501117
0.0022992537
0.0023507954
0.0024091598
0.0024689849
0.0021627881
0.0026135235
0.0027724679
0.0028568614
0.0029093117
0.0029487432
0.0029859094
0.0030313562
0.0031040988
0.0032507437
0.00076545192
0.00098955295
0.0010463834
0.0010719802
0.0010861421
0.0010961663
0.0011057818
0.001119076
0.0011456652
0.0012168393
-0.0020723152
-0.0018115165
-0.0017526834
-0.0017279779
-0.0017121176
-0.0016968197
-0.0016753504
-0.0016344407
-0.0015350977
-0.0012429567
-0.0047250205
-0.0042455727
-0.0040950131
-0.0040140534
-0.0039547386
-0.0038963228
-0.0038203441
-0.0036958107
-0.0034516034
-0.0029041404
-0.0026057461
-0.0024804381
-0.0023742268
-0.0022889022
-0.0022143606
-0.002139196
-0.0020510862
-0.0019355015
-0.0017809958
-0.0016224871
-0.0014225203
-0.0013616717
-0.0012822458
-0.0012018054
-0.0011232989
-0.0010436277
-0.0009578669
-0.00086266725
-0.00076304082
-0.00068640144
-0.00034839236
-0.00030165513
-0.00023066178
-0.00015194895
-7.2484003e-05
6.7711324e-06
8.675913e-05
0.00016645461
0.00023847409
0.00028542018
0.00065237663
0.00070752751
0.00078677109
0.00087080183
0.00095220308
0.001030045
0.0011051645
0.0011765723
0.001238217
0.0012769148
0.0015724605
0.001666029
0.0017729727
0.0018697234
0.0019539331
0.0020294069
0.0021004604
0.0021693871
0.0022335895
0.0022799684
0.0023733532
0.0025837323
0.002742094
0.0028538227
0.00293692
0.0030055377
0.0030699725
0.0031386668
0.0032181404
0.003301398
0.0029389607
0.0035261867
0.003730631
0.0038392011
0.0039068968
0.0039581667
0.0040072393
0.004068748
0.0041699705
0.0043782459
0.0010470805
0.0013392215
0.0014120559
0.0014448939
0.0014631488
0.0014761913
0.0014889473
0.0015071106
0.0015444524
0.0016459609
-0.0024439952
-0.0021350313
-0.0020655677
-0.0020362338
-0.0020172113
-0.0019986968
-0.0019725726
-0.0019226516
-0.0018012099
-0.0014436151
-0.0055633015
-0.0049956604
-0.0048176554
-0.0047212806
-0.0046500272
-0.0045793228
-0.0044869397
-0.0043351602
-0.0040371338
-0.0033684528
-0.003050123
-0.0029019269
-0.0027757433
-0.0026736657
-0.0025838721
-0.0024928387
-0.0023857718
-0.0022451121
-0.0020571303
-0.001865158
-0.0016398
-0.0015672654
-0.0014721719
-0.0013753942
-0.0012805232
-0.0011839008
-0.0010796424
-0.0009637794
-0.00084256713
-0.00074958952
-0.00034772825
-0.00029142269
-0.00020577043
-0.00011059564
-1.4276987e-05
8.2023413e-05
0.00017942666
0.00027662828
0.00036452781
0.00042178233
0.00086672932
0.00093368729
0.0010298168
0.0011317876
0.0012306975
0.0013254913
0.0014172368
0.0015047416
0.0015805433
0.001628265
0.0019940417
0.0021081095
0.0022382043
0.0023558361
0.0024583257
0.0025504409
0.002637576
0.0027226725
0.002802587
0.0028607986
0.0029880789
0.0032451231
0.0034378849
0.0035737646
0.0036749602
0.0037588657
0.0038382667
0.0039238767
0.0040241994
0.0041304683
0.0037080515
0.0044266063
0.0046747588
0.0048065603
0.0048889487
0.0049517144
0.0050124722
0.0050898405
0.0052190638
0.0054873418
0.0013243617
0.0016819565
0.001770149
0.001809938
0.001832134
0.0018481076
0.0018639485
0.0018869154
0.0019347944
0.0020657674
-0.0027924365
-0.0024376929
-0.002358194
-0.0023245075
-0.0023025022
-0.0022809352
-0.0022503756
-0.0021918563
-0.0020493286
-0.0016292892
-0.0063424008
-0.005691037
-0.0054871744
-0.0053763088
-0.0052937923
-0.0052114293
-0.0051034215
-0.0049256532
-0.0045762891
-0.003792015
-0.0034505928
-0.0032808147
-0.0031358646
-0.0030180272
-0.0029138267
-0.0028077319
-0.0026826109
-0.0025180375
-0.0022981343
-0.0020743054
-0.0018231271
-0.0017395894
-0.0016297451
-0.0015175515
-0.0014071831
-0.0012944468
-0.0011725539
-0.0010369647
-0.00089514726
-0.00078659509
-0.00032364749
-0.00025828909
-0.00015876799
-4.7993872e-05
6.4336658e-05
0.00017688063
0.00029092589
0.00040488612
0.00050799551
0.00057511468
0.0010939572
0.001172147
0.0012843281
0.0014033628
0.0015189573
0.0016299521
0.0017376396
0.0018406229
0.001930061
0.0019864757
0.0024180611
0.0025516794
0.0027038372
0.0028413739
0.0029613193
0.0030693794
0.0031719902
0.0032727089
0.0033678369
0.0034375042
0.0035945348
0.0038961052
0.0041216671
0.0042805818
0.0043990737
0.0044976514
0.0045914952
0.0046934981
0.0048140415
0.00494258
0.0044578121
0.0053016629
0.0055914503
0.0057453949
0.00584182
0.0059156235
0.0059876727
0.0060804188
0.0062367546
0.0065629635
0.0015933428
0.0020133822
0.0021161922
0.0021626015
0.0021885603
0.0022073476
0.0022261701
0.0022537925
0.0023118624
0.0024712651
-0.0031170423
-0.0027191438
-0.0026302279
-0.0025924657
-0.0025676608
-0.0025432176
-0.0025084671
-0.0024418166
-0.002279345
-0.0018002374
-0.0070629193
-0.0063326976
-0.0061046
-0.0059801679
-0.0058870801
-0.0057937338
-0.005670968
-0.005468629
-0.0050707241
-0.0041771618
-0.0038107467
-0.0036207294
-0.0034582169
-0.0033256167
-0.003207884
-0.0030875969
-0.0029454243
-0.002758245
-0.0025081724
-0.0022542822
-0.0019769982
-0.0018831475
-0.0017594783
-0.0016328146
-0.0015078647
-0.0013799269
-0.0012413648
-0.0010871127
-0.00092580395
-0.00080253738
-0.00028136944
-0.00020749735
-9.4935345e-05
3.0522381e-05
0.00015795236
0.00028584808
0.00041565273
0.00054550214
0.00066303625
0.00073950313
0.001327795
0.0014165855
0.0015439071
0.0016790452
0.0018104071
0.0019367456
0.0020595674
0.0021772741
0.0022796982
0.0023443912
0.0028369027
0.0029890042
0.0031620075
0.0033183561
0.0034548217
0.0035780101
0.0036953502
0.0038109791
0.0039206523
0.004001276
0.0041839497
0.004527633
0.0047841936
0.0049648849
0.0050997544
0.0052122684
0.0053198852
0.0054375705
0.0055774829
0.0057273483
0.0051795083
0.0061418771
0.0064709756
0.00664584
0.0067555509
0.006839841
0.006922668
0.0070301378
0.0072124458
0.0075941209
0.0018512694
0.0023303769
0.0024469776
0.0024996371
0.0025291553
0.002550615
0.002572284
0.0026043641
0.0026721943
0.0028588142
-0.0034167766
-0.0029785921
-0.0028809186
-0.0028393699
-0.0028119582
-0.0027848279
-0.0027461544
-0.0026718868
-0.002490728
-0.0019562635
-0.0077238857
-0.0069200987
-0.0066694808
-0.0065324446
-0.006429512
-0.0063259072
-0.0061893306
-0.0059639813
-0.005520612
-0.0045246852
-0.0041325717
-0.0039237384
-0.0037449176
-0.0035985918
-0.0034682488
-0.0033347036
-0.0031765749
-0.0029682289
-0.0026899147
-0.0024079292
-0.0021047711
-0.0020013305
-0.0018648024
-0.0017246616
-0.0015861048
-0.0014439532
-0.0012897819
-0.0011180431
-0.0009384759
-0.00080144223
-0.00022529595
-0.00014348283
-1.8758508e-05
0.0001204054
0.00026194989
0.00040422044
0.00054880389
0.00069356737
0.00082464312
0.00090987871
0.0015628424
0.0016615481
0.0018030238
0.001953222
0.0020993467
0.002240076
0.0023771191
0.0025086827
0.0026233409
0.0026958337
0.0032442171
0.0034136287
0.003606143
0.0037801034
0.003932053
0.0040694503
0.0042006598
0.004330362
0.0044537883
0.0045447806
0.004749339
0.0051324787
0.0054180576
0.0056191389
0.0057693637
0.0058949781
0.0060155855
0.0061481067
0.006306377
0.0064764719
0.0058663096
0.0069397445
0.0073056057
0.0075000442
0.0076222066
0.0077163555
0.0078093576
0.0079307741
0.0081377229
0.008572045
0.0020959797
0.0026304441
0.0027599308
0.0028184344
0.0028512866
0.0028752581
0.0028996152
0.0029359197
0.0030130118
0.0032254677
-0.0036904941
-0.0032151216
-0.003109394
-0.0030643647
-0.0030345498
-0.0030049347
-0.0029626273
-0.002881299
-0.0026828131
-0.0020970073
-0.0083237106
-0.0074520604
-0.0071807436
-0.0070321178
-0.0069201086
-0.0068070199
-0.0066576538
-0.006410982
-0.0059254763
-0.0048346704
-0.004417136
-0.0041910006
-0.0039971934
-0.0038382337
-0.0036962564
-0.003550452
-0.0033775484
-0.0031495931
-0.0028451225
-0.0025371615
-0.0022089261
-0.0020966597
-0.0019482912
-0.0017957227
-0.0016445959
-0.0014892909
-0.0013206571
-0.0011327083
-0.00093622072
-0.00078644493
-0.00015900683
-6.9861957e-05
6.6091131e-05
0.00021791976
0.00037252295
0.00052811268
0.00068640725
0.00084501808
0.00098866842
0.0010820405
0.0017945894
0.0019024731
0.0020570442
0.0022211811
0.0023809831
0.0025350654
0.0026853263
0.002829788
0.0029558454
0.0030356076
0.0036347354
0.003820189
0.0040307732
0.0042210479
0.0043873557
0.0045379533
0.0046820784
0.0048249175
0.0049612069
0.0050619093
0.0052849776
0.005704699
0.0060171551
0.0062371248
0.0064015915
0.006539386
0.0066721105
0.0068185146
0.0069940044
0.0071831004
0.0065125812
0.0076890188
0.0080888929
0.0083014504
0.0084351563
0.0085384728
0.0086409759
0.0087754646
0.0090055617
0.0094893894
0.0023256682
0.0029114739
0.0030528721
0.0031167813
0.0031527226
0.0031790293
0.0032058974
0.0032461643
0.0033319614
0.003568716
-0.0039370801
-0.0034278259
-0.0033147898
-0.0032666022
-0.0032345993
-0.0032027146
-0.0031570813
-0.0030692866
-0.0028549261
-0.0022220684
-0.0088606331
-0.0079271975
-0.0076371071
-0.0074779602
-0.0073576852
-0.0072359345
-0.0070748673
-0.0068086749
-0.0062845855
-0.0051068902
-0.0046649887
-0.0044231531
-0.0042157514
-0.004045307
-0.0038927259
-0.0037357226
-0.003549303
-0.0033034009
-0.0029749995
-0.0026433193
-0.0022913068
-0.0021710211
-0.0020118849
-0.0018479956
-0.0016853966
-0.0015180659
-0.0013361939
-0.0011334013
-0.00092142421
-0.00075999986
-8.5379871e-05
1.0451518e-05
0.00015664588
0.0003200359
0.00048657555
0.00065435744
0.00082521857
0.00099653039
0.0011517157
0.0012525461
0.002019312
0.002135589
0.0023021299
0.0024790119
0.0026513326
0.0028176549
0.0029800524
0.003136375
0.0032729268
0.0033593842
0.0040040785
0.0042042204
0.0044313381
0.0046365422
0.0048160027
0.0049787151
0.0051347228
0.0052896791
0.0054378605
0.0055475543
0.0057860902
0.006239323
0.006576372
0.0068136264
0.0069911417
0.0071401236
0.0072840161
0.0074432612
0.0076347242
0.0078414775
0.0071135524
0.0083843797
0.0088153371
0.0090444612
0.0091887385
0.009300477
0.0094117477
0.0095583522
0.0098099639
0.010339862
0.0025387865
0.0031716442
0.0033239167
0.0033927643
0.0034315329
0.0034599846
0.0034891712
0.0035331138
0.0036270068
0.003886379
-0.0041555177
-0.0036158734
-0.0034963122
-0.0034453042
-0.0034113393
-0.0033774111
-0.0033287774
-0.0032351438
-0.0030064432
-0.0023310652
-0.0093329515
-0.0083441433
-0.0080372993
-0.0078687504
-0.0077410604
-0.0076115126
-0.0074398925
-0.0071560818
-0.00659716
-0.0053410106
-0.0048764013
-0.0046205474
-0.0044010084
-0.004220283
-0.0040581796
-0.0038910936
-0.0036924858
-0.0034303923
-0.0030804087
-0.0027273856
-0.0023533115
-0.0022258522
-0.0020570726
-0.0018830234
-0.0017101061
-0.0015319384
-0.0013381215
-0.0011219288
-0.00089597434
-0.00072405489
-6.733058e-06
9.5106543e-05
0.00025050477
0.00042429599
0.00060158974
0.00078037333
0.00096258924
0.0011453867
0.0013110048
0.0014185756
0.0022339408
0.0023577837
0.0025351086
0.0027234776
0.0029070933
0.003084477
0.0032578625
0.0034249418
0.0035710236
0.0036635645
0.0043485985
0.0045619994
0.0048040292
0.0050227006
0.0052140388
0.005387714
0.0055545036
0.0057204868
0.0058795191
0.0059974338
0.0062486611
0.0067321624
0.0070913936
0.0073442395
0.0075335408
0.0076926551
0.0078467018
0.0080176706
0.0082237662
0.0084467304
0.0076651473
0.0090212651
0.0094802185
0.0097242718
0.0098780924
0.0099974607
0.010116715
0.010274408
0.010545775
0.011118041
0.0027339973
0.0034093753
0.0035714303
0.003644724
0.0036860432
0.0037164378
0.0037477372
0.0037950476
0.00389638
0.0041765583
-0.004344924
-0.0037785426
-0.0036532723
-0.0035997953
-0.0035641038
-0.0035283684
-0.0034770744
-0.0033782584
-0.0031368229
-0.0024236664
-0.0097391546
-0.0087016771
-0.0083801822
-0.0082033952
-0.0080691762
-0.0079327343
-0.0077517616
-0.0074523218
-0.0068624903
-0.0055367076
-0.005051521
-0.0047834
-0.004553239
-0.0043634846
-0.0041929859
-0.0040169819
-0.0038075741
-0.0035311246
-0.0031620132
-0.0027901266
-0.0023960377
-0.002262285
-0.0020850318
-0.0019020319
-0.0017199998
-0.0015322369
-0.0013278278
-0.0010997463
-0.00086139597
-0.00068018634
7.5048494e-05
0.00018218882
0.00034570938
0.00052869149
0.00071550431
0.00090404407
0.001096345
0.0012893537
0.0014642489
0.0015778081
0.0024359414
0.0025664855
0.002753356
0.0029518974
0.003145528
0.0033327381
0.0035159055
0.0036925801
0.0038471765
0.0039451571
0.0046652545
0.0048904196
0.005145667
0.0053762769
0.0055781577
0.0057615866
0.0059379997
0.0061138591
0.0062826417
0.0064079613
0.0066693114
0.0071796887
0.0075585827
0.0078252496
0.0080250145
0.0081931534
0.0083562856
0.0085377954
0.0087571011
0.0089947389
0.008163891
0.009595779
0.010079505
0.010336777
0.010499065
0.010625231
0.010751642
0.010919333
0.011208586
0.011819279
0.0029101511
0.0036233075
0.0037940062
0.0038712319
0.0039148126
0.0039469381
0.003980133
0.0040304845
0.0041385582
0.0044376135
-0.004504572
-0.0039152423
-0.0037851065
-0.0037295235
-0.0036923485
-0.0036550508
-0.003601449
-0.0034981314
-0.0032456258
-0.0024996098
-0.010078001
-0.008998803
-0.0086648286
-0.0084810051
-0.0083411733
-0.0081987722
-0.0080096907
-0.0076966843
-0.0070800099
-0.0056937394
-0.0051904713
-0.004911893
-0.0046726734
-0.004475183
-0.0042974545
-0.0041137389
-0.0038949697
-0.0036060667
-0.0032203709
-0.0028321859
-0.0024203874
-0.0022812505
-0.0020967322
-0.0019060316
-0.0017161303
-0.0015200592
-0.0013064608
-0.0010680579
-0.00081895175
-0.0006296998
0.00015841033
0.00027011923
0.0004406432
0.00063156334
0.00082661558
0.0010236195
0.0012246872
0.001426583
0.0016095545
0.0017283216
0.002623216
0.0027595653
0.0029546986
0.0031620501
0.0033643681
0.0035601217
0.0037518167
0.003936877
0.0040989299
0.004201679
0.0049515195
0.0051868987
0.0054536074
0.0056945709
0.0059056087
0.0060975344
0.0062823641
0.0064668983
0.006644279
0.0067761486
0.0070452168
0.0075789517
0.0079748977
0.0082535504
0.0084624067
0.0086384178
0.0088095199
0.0090003327
0.0092313549
0.0094820494
0.0086068532
0.010104636
0.010609798
0.010878516
0.011048156
0.011180255
0.011312958
0.011489505
0.011794675
0.012439645
0.0030662731
0.0038122891
0.0039904534
0.0040710791
0.0041166213
0.0041502571
0.0041851207
0.0042381702
0.0043522504
0.0046681504
-0.0046339038
-0.0040255249
-0.0038913888
-0.0038340716
-0.0037956631
-0.0037570546
-0.0037015078
-0.003594389
-0.0033325264
-0.0025587136
-0.010348571
-0.0092347988
-0.008890571
-0.0087009427
-0.0085564383
-0.008409039
-0.0082131281
-0.0078886765
-0.0072493426
-0.0058119922
-0.005293421
-0.0050062411
-0.0047595649
-0.0045556646
-0.0043719026
-0.0041817154
-0.0039550643
-0.0036556646
-0.0032559996
-0.0028541495
-0.0024271443
-0.0022835557
-0.0020930116
-0.0018958935
-0.0016994028
-0.0014963468
-0.0012750027
-0.0010278914
-0.00076971643
-0.00057370452
0.00024205016
0.00035757558
0.00053395384
0.00073152473
0.00093350055
0.001137639
0.0013461155
0.0015555342
0.0017453448
0.001868516
0.0027940277
0.0029352606
0.0031373379
0.003352099
0.0035617381
0.0037647139
0.0039636427
0.0041558399
0.0043242556
0.0044310795
0.00520531
0.0054493085
0.0057256725
0.0059753594
0.0061941279
0.0063932546
0.006585254
0.0067772192
0.0069620033
0.007099535
0.0073740494
0.0079275215
0.0083378349
0.0086265862
0.0088431212
0.0090258156
0.0092037341
0.009402565
0.00964375
0.0099058162
0.0089916105
0.010545124
0.011068295
0.011346639
0.011522482
0.01165962
0.011797721
0.011981936
0.012300973
0.012975887
0.003201555
0.0039753678
0.0041597886
0.0042432679
0.0042904632
0.004325382
0.0043616791
0.0044170698
0.0045363899
0.0048670127
-0.0047325382
-0.0041090936
-0.0039718387
-0.0039131659
-0.0038737783
-0.0038341159
-0.0037769945
-0.00366679
-0.0033973206
-0.0026008838
-0.010550298
-0.0094092486
-0.0090570336
-0.008862854
-0.0087146355
-0.0085632184
-0.0083617844
-0.0080280542
-0.0073703331
-0.0058915108
-0.0053606305
-0.0050667389
-0.0048142359
-0.0046052761
-0.0044167006
-0.0042213071
-0.0039882848
-0.0036803864
-0.0032694215
-0.0028565912
-0.0024170293
-0.0022699387
-0.0020746312
-0.0018724034
-0.001670629
-0.0014619392
-0.0012343239
-0.00098015205
-0.00071463112
-0.0005131676
0.0003248591
0.000443434
0.00062449468
0.00082740297
0.001034959
0.0012448733
0.0014593704
0.0016749166
0.0018703011
0.0019970549
0.0029469428
0.0030921185
0.0032997939
0.0035205344
0.003736099
0.0039449457
0.0041497841
0.0043478386
0.0045214957
0.0046316828
0.0054249343
0.0056759232
0.0059600985
0.0062168439
0.0064418855
0.0066468872
0.0068447784
0.0070428974
0.0072338559
0.0073761348
0.0076539363
0.0082234473
0.0086453877
0.0089423105
0.0091650804
0.0093532413
0.009536792
0.0097423187
0.0099920634
0.01026376
0.0093162212
0.01091508
0.011452765
0.011738876
0.011919749
0.012061014
0.012203593
0.012394251
0.012725034
0.013425409
0.0033153498
0.0041117866
0.0043012313
0.0043870068
0.0044355403
0.0044715093
0.0045089984
0.004566362
0.0046901293
0.0050332783
-0.0048002758
-0.0041658076
-0.0040263258
-0.00396668
-0.0039265711
-0.003886115
-0.0038277948
-0.0037152303
-0.0034399299
-0.0026261186
-0.010682987
-0.0095220623
-0.0091641519
-0.0089666886
-0.0088157262
-0.0086612852
-0.0084556529
-0.0081148416
-0.0074430666
-0.0059325183
-0.0053924836
-0.0050937922
-0.00483711
-0.0046244567
-0.0044323033
-0.0042329861
-0.0039951245
-0.003680754
-0.0032611952
-0.0028401032
-0.0023907405
-0.0022411084
-0.0020423147
-0.0018363017
-0.0016305666
-0.0014176131
-0.0011852226
-0.00092566218
-0.00065454268
-0.00044895352
0.00040587809
0.00052672546
0.00071128146
0.00091819612
0.0011299701
0.0013442818
0.0015633898
0.0017836464
0.0019833195
0.002112822
0.0030807875
0.0032289519
0.0034408608
0.0036661307
0.0038862048
0.0040995504
0.0043089522
0.0045115622
0.0046893188
0.0048021444
0.0056090527
0.0058653798
0.0061554964
0.0064176119
0.0066474473
0.0068569765
0.007059459
0.0072624296
0.0074583069
0.0076043976
0.0078834279
0.0084652253
0.0088960142
0.0091991546
0.0094266942
0.0096190843
0.0098070608
0.010017932
0.010274595
0.010554135
0.009579205
0.011212873
0.011761528
0.012053523
0.012238237
0.012382699
0.012528819
0.012724667
0.013065022
0.01378625
0.0034071672
0.0042209785
0.0044141994
0.0045017064
0.0045512589
0.0045880415
0.0046264759
0.0046854352
0.0048128359
0.0051662544
-0.0048371008
-0.0041956834
-0.0040548713
-0.0039946369
-0.0039540659
-0.0039130784
-0.003853938
-0.0037397451
-0.0034604035
-0.0026345102
-0.010746832
-0.0095734874
-0.0092121844
-0.0090127109
-0.0088599807
-0.0087035167
-0.0084950209
-0.0081493428
-0.0074678808
-0.0059354277
-0.0053895092
-0.0050879394
-0.0048287328
-0.0046137594
-0.0044192711
-0.004217322
-0.0039761649
-0.0036573639
-0.0032319372
-0.0028053187
-0.0023489812
-0.0021977731
-0.0019967775
-0.0017883114
-0.0015799478
-0.0013641111
-0.0011284534
-0.00086518955
-0.00059023237
-0.00038185267
0.00048426576
0.00060660352
0.00079346002
0.0010030409
0.0012176603
0.0014349795
0.0016572768
0.0018808138
0.0020834788
0.0022148888
0.0031946154
0.0033448073
0.0035595752
0.0037879135
0.0040110697
0.00422753
0.004440136
0.0046459857
0.004826687
0.0049414179
0.0057566481
0.0060166479
0.0063108219
0.0065766061
0.0068097435
0.0070224403
0.0072281992
0.0074347026
0.0076342254
0.0077831775
0.0080614733
0.008651775
0.0090886134
0.0093960026
0.0096268344
0.0098222045
0.010013385
0.010228231
0.010490141
0.010775705
0.009779527
0.011437379
0.011993442
0.012289425
0.012476779
0.0126235
0.012772211
0.012971975
0.013319685
0.014057071
0.0034766697
0.0043025631
0.0044983051
0.0045869754
0.0046372249
0.0046745821
0.0047137121
0.0047738836
0.004904088
0.005265474
-0.0048431804
-0.0041988951
-0.0040576483
-0.0039972091
-0.0039564351
-0.0039151784
-0.0038555971
-0.0037405085
-0.0034589189
-0.0026262457
-0.010742412
-0.0095641139
-0.0092017174
-0.0090015054
-0.0088479829
-0.0086904975
-0.0084804747
-0.0081321474
-0.0074453714
-0.0059008492
-0.0053523945
-0.0050498655
-0.0047897861
-0.0045738644
-0.0043782844
-0.0041749963
-0.0039320892
-0.0036109021
-0.0031823362
-0.0027529258
-0.0022924803
-0.0021406605
-0.0019387458
-0.0017291588
-0.0015194997
-0.0013021619
-0.0010647472
-0.00079946807
-0.00052243657
-0.0003126023
0.00055927442
0.00068232035
0.00087028231
0.0010811884
0.0012972793
0.0015162137
0.0017402751
0.0019656587
0.0021700153
0.0023024897
0.0032876817
0.0034389387
0.0036551899
0.0038851339
0.0041099424
0.0043281298
0.0045425763
0.0047503444
0.00493283
0.005048729
0.0058670009
0.0061290057
0.006425351
0.0066931
0.0069280448
0.007142545
0.0073502595
0.0075589687
0.0077608537
0.0079117084
0.0081874004
0.0087824177
0.0092225037
0.0095321707
0.0097648143
0.0099619108
0.010155068
0.010372505
0.010637976
0.010927722
0.0099165835
0.011587978
0.012147882
0.012445954
0.012634747
0.012782785
0.012933132
0.013135525
0.013488349
0.014237134
0.0035236693
0.0043563425
0.0045533508
0.0046426161
0.0046932403
0.0047309324
0.0047705063
0.0048315022
0.0049636707
0.005330692
-0.0048188632
-0.0041757724
-0.0040349802
-0.003974717
-0.0039339974
-0.0038927326
-0.0038330876
-0.0037178328
-0.0034357801
-0.0026016067
-0.010670698
-0.0094948739
-0.0091336657
-0.0089339769
-0.0087806316
-0.0086231209
-0.0084129011
-0.0080641315
-0.0073763938
-0.0058295919
-0.0052819933
-0.0049804102
-0.0047210963
-0.0045055883
-0.0043101522
-0.0041068111
-0.0038636919
-0.0035421532
-0.0031131626
-0.0026836781
-0.0022220062
-0.0020705319
-0.0018689721
-0.0016595878
-0.0014499586
-0.0012324951
-0.00099482689
-0.00072921295
-0.00045186209
-0.00024190193
0.00063023183
0.00075320835
0.0009410878
0.0011519855
0.0013681806
0.0015873441
0.00181175
0.0020375515
0.002242304
0.002375003
0.0033594231
0.0035107877
0.0037271536
0.003957248
0.0041822854
0.0044008175
0.0046157447
0.0048241126
0.0050072233
0.005123554
0.0059396697
0.0062020195
0.0064986592
0.0067666775
0.0070019413
0.0072168849
0.0074252365
0.0076348249
0.0078377869
0.0079895826
0.0082608974
0.0088568587
0.0092974046
0.009607388
0.0098403694
0.010037942
0.010231848
0.010450492
0.010717831
0.011009909
0.009990188
0.011664527
0.012224727
0.012523002
0.012712038
0.012860454
0.01301148
0.013215211
0.013570896
0.014326291
0.0035481237
0.004382297
0.0045793249
0.0046686201
0.0047192984
0.0047570861
0.0047968521
0.0048582833
0.0049915709
0.0053618801
-0.0047646756
-0.0041267981
-0.0039873382
-0.0039276263
-0.0038872152
-0.0038462004
-0.003786865
-0.0036721654
-0.0033914161
-0.0025609675
-0.010533044
-0.0093670381
-0.0090092685
-0.0088113473
-0.0086591364
-0.0085025852
-0.0082934837
-0.0079464548
-0.007262061
-0.0057226639
-0.0051793299
-0.0048805721
-0.0046236391
-0.0044098887
-0.0042158171
-0.0040136943
-0.0037718841
-0.003452006
-0.003025275
-0.0025984006
-0.002138377
-0.0019881926
-0.001788245
-0.0015803706
-0.0013720813
-0.0011558523
-0.0009194181
-0.00065513219
-0.00037919798
-0.00017042533
0.00069652667
0.00081866558
0.0010052888
0.00121486
0.0014298071
0.0016478279
0.0018711727
0.0020959772
0.0022998424
0.0024319346
0.0034094411
0.0035599664
0.0037750938
0.0040038993
0.0042277571
0.004445265
0.0046593252
0.004866985
0.0050495706
0.0051656016
0.0059744733
0.0062355257
0.0065306036
0.006797214
0.0070313238
0.0072453633
0.0074530438
0.007662193
0.0078649528
0.0080167315
0.0082819961
0.0088751695
0.0093134188
0.0096217786
0.0098536389
0.010050448
0.010243884
0.010462357
0.010729873
0.011022434
0.010000557
0.011667353
0.012224348
0.012520959
0.012709054
0.012856916
0.013007671
0.013211455
0.013567747
0.014324964
0.0035501316
0.0043805801
0.0045763963
0.004665163
0.0047155781
0.0047532244
0.0047929321
0.0048544102
0.0049879726
0.0053592216
-0.0046813172
-0.0040526039
-0.0039153366
-0.0038565441
-0.0038166909
-0.0037761795
-0.0037175208
-0.003604086
-0.0033263771
-0.0025047928
-0.01033118
-0.0091822089
-0.0088300834
-0.0086351496
-0.0084850125
-0.0083303881
-0.008123698
-0.0077805563
-0.0071037393
-0.0055812687
-0.0050456007
-0.0047515109
-0.0044985414
-0.0042878667
-0.0040963577
-0.0038967023
-0.0036576965
-0.0033414572
-0.0029196237
-0.0024979948
-0.0020424682
-0.0018944997
-0.0016973973
-0.0014923159
-0.0012866535
-0.001072996
-0.00083925853
-0.00057793587
-0.00030512515
-9.8830324e-05
0.00075759621
0.00087814317
0.0010623577
0.0012693075
0.0014816776
0.0016972065
0.0019181072
0.0021405219
0.0023422365
0.0024729035
0.003437486
0.0035862413
0.0037988005
0.0040249024
0.0042461954
0.004461332
0.0046731977
0.0048788602
0.0050597856
0.0051747952
0.0059714731
0.0062296133
0.0065213049