/*--------------------------------*- C++ -*----------------------------------*\
| =========                 |                                                 |
| \\      /  F ield         | OpenFOAM: The Open Source CFD Toolbox           |
|  \\    /   O peration     | Version:  v2106                                 |
|   \\  /    A nd           | Website:  www.openfoam.com                      |
|    \\/     M anipulation  |                                                 |
\*---------------------------------------------------------------------------*/
FoamFile
{
    version     2.0;
    format      ascii;
    arch        "LSB;label=32;scalar=64";
    class       volVectorField;
    location    "75";
    object      gradT;
}
// * * * * * * * * * * * * * * * * * * * * * * * * * * * * * * * * * * * * * //

dimensions      [0 -1 0 1 0 0 0];

internalField   nonuniform List<vector> 
4000
(
(-0.00017781765 -0.00017781765 567.27395)
(-0.00039070129 -0.00015765611 567.27264)
(-0.0001967424 -0.00015298221 567.27201)
(-0.00010660282 -0.00015116707 567.27163)
(-3.4075245e-05 -0.00015010231 567.27146)
(2.9013996e-05 -0.00014912774 567.27146)
(8.2849133e-05 -0.00014780061 567.27161)
(0.00012216095 -0.00014536094 567.2719)
(0.00013048466 -0.00013986656 567.27227)
(4.1279219e-05 -0.00012650094 567.27262)
(-0.0001576561 -0.0003907013 567.27264)
(-0.00035344813 -0.00035344813 567.27149)
(-0.00018700884 -0.00034174961 567.27089)
(-0.00010228296 -0.0003359756 567.27053)
(-3.1016251e-05 -0.000332042 567.27036)
(3.2466547e-05 -0.00032832338 567.27037)
(8.849933e-05 -0.00032359789 567.27054)
(0.00013406203 -0.00031603552 567.27084)
(0.00015877465 -0.0003019346 567.27126)
(5.4644835e-05 -0.00027460847 567.27173)
(-0.00015298221 -0.0001967424 567.27201)
(-0.0003417496 -0.00018700884 567.27089)
(-0.00017926987 -0.00017926986 567.27032)
(-9.6895214e-05 -0.00017346406 567.26998)
(-2.6423023e-05 -0.00016860962 567.26982)
(3.74581e-05 -0.00016383913 567.26984)
(9.5136987e-05 -0.00015832693 567.27002)
(0.00014382424 -0.00015115502 567.27035)
(0.00017191171 -0.00014158223 567.27079)
(5.9496641e-05 -0.00013111743 567.2713)
(-0.00015116707 -0.00010660283 567.27163)
(-0.0003359756 -0.00010228296 567.27053)
(-0.00017346405 -9.6895219e-05 567.26998)
(-9.1622715e-05 -9.1622707e-05 567.26964)
(-2.1391321e-05 -8.6592817e-05 567.2695)
(4.2749235e-05 -8.1563434e-05 567.26953)
(0.00010118344 -7.6198546e-05 567.26973)
(0.00015080672 -7.0267854e-05 567.27007)
(0.00017881224 -6.4044102e-05 567.27054)
(6.1621368e-05 -5.9134258e-05 567.27106)
(-0.0001501023 -3.4075244e-05 567.27146)
(-0.00033204199 -3.1016245e-05 567.27036)
(-0.00016860961 -2.6423029e-05 567.26982)
(-8.6592812e-05 -2.1391329e-05 567.2695)
(-1.6363749e-05 -1.6363752e-05 567.26937)
(4.785237e-05 -1.1394508e-05 567.26942)
(0.00010643257 -6.4182359e-06 567.26963)
(0.00015597869 -1.490097e-06 567.26999)
(0.00018304531 2.9508129e-06 567.27046)
(6.276987e-05 5.8583915e-06 567.271)
(-0.00014912773 2.9014005e-05 567.27146)
(-0.00032832338 3.2466546e-05 567.27037)
(-0.00016383914 3.7458098e-05 567.26984)
(-8.1563438e-05 4.2749229e-05 567.26953)
(-1.13945e-05 4.7852365e-05 567.26942)
(5.2694751e-05 5.2694747e-05 567.26948)
(0.00011108785 5.7315367e-05 567.2697)
(0.00016017577 6.1640125e-05 567.27007)
(0.00018616073 6.5297834e-05 567.27056)
(6.3559754e-05 6.7539644e-05 567.2711)
(-0.00014780061 8.2849133e-05 567.27161)
(-0.0003235979 8.8499325e-05 567.27054)
(-0.00015832693 9.5136988e-05 567.27002)
(-7.6198546e-05 0.00010118344 567.26973)
(-6.4182302e-06 0.00010643257 567.26963)
(5.7315373e-05 0.00011108785 567.2697)
(0.00011537794 0.00011537795 567.26993)
(0.00016396116 0.00011938315 567.27031)
(0.00018894483 0.00012287896 567.27081)
(6.4264411e-05 0.00012515884 567.27136)
(-0.00014536094 0.00012216095 567.2719)
(-0.00031603552 0.00013406203 567.27084)
(-0.00015115502 0.00014382426 567.27035)
(-7.0267856e-05 0.00015080673 567.27007)
(-1.4900921e-06 0.0001559787 567.26999)
(6.1640132e-05 0.00016017578 567.27007)
(0.00011938315 0.00016396116 567.27031)
(0.00016767678 0.00016767679 567.2707)
(0.00019193641 0.00017135989 567.27121)
(6.5079672e-05 0.00017429162 567.27176)
(-0.00013986656 0.00013048466 567.27227)
(-0.0003019346 0.00015877465 567.27126)
(-0.00014158224 0.00017191171 567.27079)
(-6.4044106e-05 0.00017881224 567.27054)
(2.9508207e-06 0.0001830453 567.27046)
(6.5297833e-05 0.00018616073 567.27056)
(0.00012287896 0.00018894482 567.27081)
(0.00017135988 0.00019193642 567.27121)
(0.00019555966 0.00019555965 567.27173)
(6.6218899e-05 0.0001995266 567.27229)
(-0.00012650094 4.1279222e-05 567.27262)
(-0.00027460847 5.4644835e-05 567.27173)
(-0.00013111743 5.9496638e-05 567.2713)
(-5.9134265e-05 6.162137e-05 567.27106)
(5.8583964e-06 6.2769865e-05 567.271)
(6.7539648e-05 6.3559754e-05 567.2711)
(0.00012515883 6.4264408e-05 567.27136)
(0.00017429162 6.5079672e-05 567.27176)
(0.0001995266 6.6218897e-05 567.27229)
(6.7724306e-05 6.7724304e-05 567.27287)
(-0.00077598855 -0.00077598855 838.30797)
(-0.0017392725 -0.00067838124 838.30636)
(-0.00092162202 -0.00065674469 838.30552)
(-0.00050775735 -0.0006482169 838.305)
(-0.00015991592 -0.00064307956 838.30476)
(0.00014753482 -0.00063832921 838.30478)
(0.00041341904 -0.00063181906 838.30502)
(0.00061547758 -0.00061963784 838.30547)
(0.00068537586 -0.00059063279 838.30607)
(0.00022486106 -0.00050709594 838.30674)
(-0.00067838124 -0.0017392725 838.30636)
(-0.0015604067 -0.0015604067 838.30495)
(-0.00087637552 -0.0015061233 838.30416)
(-0.00048725966 -0.0014787372 838.30366)
(-0.00014508438 -0.0014597078 838.30343)
(0.00016442556 -0.0014415849 838.30346)
(0.0004414561 -0.001418453 838.30372)
(0.000677257 -0.0013810331 838.30419)
(0.00085418871 -0.0013086197 838.30487)
(0.0003083979 -0.0011485683 838.30574)
(-0.00065674468 -0.00092162203 838.30552)
(-0.0015061233 -0.00087637552 838.30416)
(-0.00083995253 -0.00083995253 838.30339)
(-0.00046134187 -0.00081203336 838.30292)
(-0.00012276364 -0.00078846414 838.30271)
(0.00018878964 -0.00076520982 838.30275)
(0.00047397089 -0.00073828173 838.30303)
(0.00072531087 -0.00070315742 838.30354)
(0.00091784069 -0.0006561016 838.30426)
(0.00033156204 -0.00060588978 838.30519)
(-0.0006482169 -0.00050775735 838.305)
(-0.0014787372 -0.00048725967 838.30366)
(-0.00081203335 -0.00046134187 838.30292)
(-0.00043577127 -0.00043577128 838.30246)
(-9.8260842e-05 -0.0004112842 838.30227)
(0.00021460797 -0.00038675246 838.30234)
(0.0005035085 -0.00036055552 838.30264)
(0.00075943712 -0.00033157555 838.30317)
(0.00095145635 -0.00030116193 838.30391)
(0.00034187245 -0.0002772899 838.30487)
(-0.00064307956 -0.00015991592 838.30476)
(-0.0014597079 -0.00014508438 838.30343)
(-0.00078846414 -0.00012276364 838.30271)
(-0.0004112842 -9.826085e-05 838.30227)
(-7.3744823e-05 -7.3744825e-05 838.3021)
(0.00023951833 -4.9488831e-05 838.30218)
(0.00052914779 -2.5178306e-05 838.30251)
(0.00078470446 -1.0861463e-06 838.30306)
(0.00097212635 2.0632862e-05 838.30382)
(0.00034747673 3.484782e-05 838.30479)
(-0.00063832921 0.00014753481 838.30478)
(-0.0014415849 0.00016442556 838.30346)
(-0.00076520982 0.00018878965 838.30275)
(-0.00038675245 0.00021460797 838.30234)
(-4.9488824e-05 0.00023951833 838.30218)
(0.00026317449 0.00026317449 838.30228)
(0.00055191118 0.00028577544 838.30263)
(0.00080524829 0.0003069701 838.30319)
(0.00098739032 0.00032494823 838.30397)
(0.00035134909 0.00033600969 838.30495)
(-0.00063181906 0.00041341905 838.30502)
(-0.001418453 0.0004414561 838.30372)
(-0.00073828173 0.0004739709 838.30303)
(-0.00036055552 0.0005035085 838.30264)
(-2.5178304e-05 0.00052914779 838.30251)
(0.00028577544 0.00055191118 838.30263)
(0.0005729434 0.0005729434 838.30298)
(0.00082387725 0.00059268532 838.30357)
(0.0010011659 0.00061010267 838.30436)
(0.00035485104 0.0006216851 838.30535)
(-0.00061963785 0.00061547759 838.30547)
(-0.0013810331 0.000677257 838.30419)
(-0.00070315742 0.00072531087 838.30354)
(-0.00033157556 0.00075943713 838.30317)
(-1.0861482e-06 0.00078470446 838.30306)
(0.0003069701 0.0008052483 838.30319)
(0.00059268532 0.00082387726 838.30357)
(0.00084240757 0.00084240757 838.30417)
(0.0010163901 0.000861345 838.30498)
(0.00035907071 0.00087745612 838.30598)
(-0.00059063279 0.00068537585 838.30607)
(-0.0013086197 0.00085418871 838.30487)
(-0.0006561016 0.00091784069 838.30426)
(-0.00030116193 0.00095145636 838.30391)
(2.0632869e-05 0.00097212636 838.30382)
(0.00032494823 0.00098739033 838.30397)
(0.00061010267 0.0010011659 838.30436)
(0.000861345 0.0010163901 838.30498)
(0.0010362145 0.0010362145 838.30581)
(0.00036559178 0.0010626222 838.30683)
(-0.00050709594 0.00022486106 838.30674)
(-0.0011485683 0.0003083979 838.30574)
(-0.00060588978 0.00033156204 838.30519)
(-0.0002772899 0.00034187246 838.30487)
(3.4847819e-05 0.00034747673 838.30479)
(0.00033600969 0.00035134909 838.30495)
(0.0006216851 0.00035485104 838.30535)
(0.00087745612 0.00035907071 838.30598)
(0.0010626222 0.00036559178 838.30683)
(0.00037667583 0.00037667582 838.30791)
(-0.001251939 -0.001251939 832.91082)
(-0.0028431731 -0.0010946182 832.90947)
(-0.0015552692 -0.0010591778 832.90874)
(-0.00086221451 -0.0010447325 832.90828)
(-0.0002575815 -0.0010357824 832.90808)
(0.00028852083 -0.0010273743 832.90812)
(0.00077314363 -0.0010157509 832.90839)
(0.0011689408 -0.00099381821 832.90887)
(0.0013990803 -0.0009410062 832.90954)
(0.00048626052 -0.00078689425 832.91035)
(-0.0010946182 -0.0028431731 832.90947)
(-0.0025540313 -0.0025540313 832.90829)
(-0.0014804407 -0.0024641425 832.9076)
(-0.00082712151 -0.0024173063 832.90716)
(-0.00023154409 -0.0023840207 832.90697)
(0.0003185682 -0.0023519297 832.90702)
(0.00082347769 -0.0023106976 832.9073)
(0.0012810578 -0.0022436175 832.90781)
(0.0017094663 -0.0021128528 832.90855)
(0.00064037247 -0.0018212732 832.90957)
(-0.0010591778 -0.0015552692 832.90874)
(-0.0024641425 -0.0014804407 832.9076)
(-0.0014185442 -0.0014185442 832.90693)
(-0.00078209268 -0.00137008 832.90651)
(-0.00019220488 -0.0013286161 832.90634)
(0.00036184387 -0.0012873978 832.90641)
(0.00088145581 -0.0012394773 832.90671)
(0.0013667856 -0.0011768484 832.90725)
(0.0018214247 -0.0010930455 832.90803)
(0.00068064696 -0.0010054916 832.9091)
(-0.0010447325 -0.00086221451 832.90828)
(-0.0024173063 -0.00082712151 832.90716)
(-0.00137008 -0.00078209268 832.90651)
(-0.00073719339 -0.00073719339 832.90611)
(-0.00014886185 -0.00069390493 832.90596)
(0.00040770697 -0.00065035713 832.90604)
(0.00093402708 -0.00060374082 832.90637)
(0.0014274896 -0.00055212189 832.90693)
(0.0018808231 -0.00049802548 832.90774)
(0.00069874176 -0.0004559713 832.90884)
(-0.0010357824 -0.0002575815 832.90808)
(-0.0023840207 -0.00023154409 832.90697)
(-0.0013286161 -0.00019220488 832.90634)
(-0.00069390492 -0.00014886185 832.90596)
(-0.00010536861 -0.00010536861 832.90582)
(0.00045200797 -6.223282e-05 832.90593)
(0.00097969105 -1.8911425e-05 832.90627)
(0.0014725009 2.409045e-05 832.90685)
(0.0019175753 6.2883915e-05 832.90768)
(0.00070868309 8.8228664e-05 832.90879)
(-0.0010273742 0.00028852083 832.90812)
(-0.0023519297 0.0003185682 832.90702)
(-0.0012873978 0.00036184387 832.90641)
(-0.00065035712 0.00040770696 832.90604)
(-6.2232816e-05 0.00045200797 832.90593)
(0.00049416415 0.00049416416 832.90605)
(0.0010203504 0.0005345649 832.90641)
(0.001509285 0.0005726266 832.90701)
(0.0019449613 0.00060512993 832.90786)
(0.00071563826 0.0006253048 832.90898)
(-0.0010157509 0.00077314363 832.90839)
(-0.0023106976 0.00082347768 832.9073)
(-0.0012394774 0.00088145582 832.90671)
(-0.00060374082 0.00093402708 832.90637)
(-1.8911419e-05 0.00097969105 832.90627)
(0.0005345649 0.0010203503 832.90641)
(0.0010581535 0.0010581535 832.90679)
(0.001543066 0.001094081 832.90741)
(0.0019702535 0.0011265409 832.90827)
(0.000722133 0.0011490743 832.9094)
(-0.00099381821 0.0011689408 832.90887)
(-0.0022436175 0.0012810578 832.90781)
(-0.0011768484 0.0013667856 832.90725)
(-0.0005521219 0.0014274896 832.90693)
(2.4090454e-05 0.0014725009 832.90685)
(0.0005726266 0.001509285 832.90701)
(0.001094081 0.001543066 832.90741)
(0.0015776724 0.0015776724 832.90804)
(0.0019999547 0.001615384 832.90892)
(0.00073066054 0.0016520804 832.91006)
(-0.0009410062 0.0013990803 832.90954)
(-0.0021128528 0.0017094663 832.90855)
(-0.0010930455 0.0018214247 832.90803)
(-0.00049802548 0.0018808231 832.90774)
(6.2883919e-05 0.0019175753 832.90768)
(0.00060512993 0.0019449613 832.90786)
(0.0011265409 0.0019702535 832.90827)
(0.0016153839 0.0019999547 832.90892)
(0.0020446615 0.0020446615 832.90982)
(0.0007465973 0.0021287748 832.91099)
(-0.00078689425 0.00048626053 832.91035)
(-0.0018212732 0.00064037247 832.90957)
(-0.0010054916 0.00068064696 832.9091)
(-0.00045597129 0.00069874175 832.90884)
(8.8228664e-05 0.00070868309 832.90879)
(0.00062530479 0.00071563825 832.90898)
(0.0011490743 0.00072213299 832.9094)
(0.0016520804 0.00073066054 832.91006)
(0.0021287748 0.00074659729 832.91099)
(0.00078673603 0.00078673603 832.91225)
(-0.0016766556 -0.0016766556 827.63189)
(-0.0038231278 -0.0014662576 827.63066)
(-0.0021110957 -0.0014186878 827.63)
(-0.001165515 -0.0013989147 827.62961)
(-0.00031997388 -0.0013864036 827.62944)
(0.00045763989 -0.0013744769 827.62951)
(0.0011622489 -0.0013578528 827.62981)
(0.001761809 -0.0013263022 827.63031)
(0.0021627881 -0.001249913 827.63101)
(0.00076545192 -0.0010258119 827.63185)
(-0.0014662576 -0.0038231278 827.63066)
(-0.0034361761 -0.0034361761 827.62958)
(-0.0020100813 -0.003314786 827.62896)
(-0.0011170888 -0.0032502536 827.62858)
(-0.00028331704 -0.0032035718 827.62843)
(0.00050046618 -0.0031580372 827.62851)
(0.0012345109 -0.003099146 827.62882)
(0.0019237188 -0.0030029259 827.62935)
(0.0026135235 -0.0028146433 827.63012)
(0.00098955296 -0.0023932461 827.63117)
(-0.0014186878 -0.0021110957 827.63)
(-0.0033147861 -0.0020100813 827.62896)
(-0.0019251732 -0.0019251732 827.62837)
(-0.0010543008 -0.001857661 827.62801)
(-0.00022775748 -0.0017992175 827.62787)
(0.00056206561 -0.0017406746 827.62797)
(0.0013173603 -0.0016723187 827.6283)
(0.0020463118 -0.0015828055 827.62886)
(0.0027724679 -0.0014631085 827.62967)
(0.0010463834 -0.0013394676 827.63077)
(-0.0013989147 -0.001165515 827.62961)
(-0.0032502536 -0.0011170888 827.62858)
(-0.001857661 -0.0010543008 827.62801)
(-0.00099113308 -0.00099113309 827.62766)
(-0.00016633067 -0.00092982665 827.62754)
(0.00062736501 -0.00086787102 827.62766)
(0.00139238 -0.00080136202 827.62801)
(0.002132929 -0.00072762503 827.62859)
(0.0028568614 -0.0006504193 827.62943)
(0.0010719802 -0.00059078118 827.63055)
(-0.0013864036 -0.00031997388 827.62944)
(-0.0032035718 -0.00028331704 827.62843)
(-0.0017992175 -0.00022775747 827.62787)
(-0.00092982665 -0.00016633067 827.62754)
(-0.00010449542 -0.00010449542 827.62744)
(0.00069053025 -4.2993709e-05 827.62758)
(0.0014576062 1.8925506e-05 827.62794)
(0.0021972546 8.0505513e-05 827.62855)
(0.0029093117 0.00013610817 827.62941)
(0.0010861421 0.0001723873 827.63054)
(-0.0013744768 0.00045763988 827.62951)
(-0.0031580372 0.00050046619 827.62851)
(-0.0017406746 0.00056206561 827.62797)
(-0.00086787103 0.00062736501 827.62766)
(-4.299371e-05 0.00069053025 827.62758)
(0.00075078594 0.00075078593 827.62773)
(0.0015158792 0.0008087389 827.62811)
(0.0022501117 0.00086359989 827.62874)
(0.0029487432 0.00091073805 827.62961)
(0.0010961663 0.00094019755 827.63075)
(-0.0013578528 0.0011622489 827.62981)
(-0.003099146 0.0012345109 827.62882)
(-0.0016723187 0.0013173602 827.6283)
(-0.00080136201 0.00139238 827.62801)
(1.8925506e-05 0.0014576062 827.62794)
(0.0008087389 0.0015158792 827.62811)
(0.0015704202 0.0015704202 827.62852)
(0.0022992537 0.0016228556 827.62916)
(0.0029859094 0.001671104 827.63004)
(0.0011057818 0.0017054685 827.63119)
(-0.0013263022 0.001761809 827.63031)
(-0.0030029259 0.0019237188 827.62935)
(-0.0015828055 0.0020463118 827.62886)
(-0.00072762503 0.002132929 827.62859)
(8.0505516e-05 0.0021972546 827.62855)
(0.0008635999 0.0022501117 827.62874)
(0.0016228556 0.0022992537 827.62916)
(0.0023507954 0.0023507954 827.62981)
(0.0030313562 0.0024091598 827.63072)
(0.001119076 0.0024689849 827.63188)
(-0.001249913 0.0021627881 827.63101)
(-0.0028146432 0.0026135235 827.63012)
(-0.0014631085 0.0027724679 827.62967)
(-0.0006504193 0.0028568614 827.62943)
(0.00013610817 0.0029093117 827.62941)
(0.00091073806 0.0029487432 827.62961)
(0.001671104 0.0029859094 827.63004)
(0.0024091598 0.0030313562 827.63072)
(0.0031040988 0.0031040988 827.63164)
(0.0011456652 0.0032507437 827.63284)
(-0.0010258119 0.00076545192 827.63185)
(-0.0023932461 0.00098955295 827.63117)
(-0.0013394676 0.0010463834 827.63077)
(-0.00059078117 0.0010719802 827.63055)
(0.0001723873 0.0010861421 827.63054)
(0.00094019754 0.0010961663 827.63075)
(0.0017054685 0.0011057818 827.63119)
(0.0024689849 0.001119076 827.63188)
(0.0032507437 0.0011456652 827.63284)
(0.0012168393 0.0012168393 827.63413)
(-0.0020723152 -0.0020723152 822.46692)
(-0.0047250205 -0.0018115165 822.46577)
(-0.0026057461 -0.0017526834 822.46518)
(-0.0014225203 -0.0017279779 822.46483)
(-0.00034839237 -0.0017121176 822.4647)
(0.00065237663 -0.0016968197 822.4648)
(0.0015724605 -0.0016753504 822.46511)
(0.0023733532 -0.0016344407 822.46563)
(0.0029389607 -0.0015350977 822.46634)
(0.0010470805 -0.0012429567 822.46718)
(-0.0018115165 -0.0047250205 822.46577)
(-0.0042455727 -0.0042455727 822.46476)
(-0.0024804381 -0.0040950131 822.46421)
(-0.0013616717 -0.0040140534 822.46387)
(-0.00030165513 -0.0039547386 822.46376)
(0.00070752751 -0.0038963228 822.46386)
(0.001666029 -0.0038203441 822.46419)
(0.0025837323 -0.0036958107 822.46474)
(0.0035261867 -0.0034516034 822.46551)
(0.0013392215 -0.0029041404 822.46655)
(-0.0017526834 -0.0026057461 822.46518)
(-0.0040950131 -0.0024804381 822.46421)
(-0.0023742268 -0.0023742268 822.46367)
(-0.0012822458 -0.0022889022 822.46336)
(-0.00023066179 -0.0022143606 822.46326)
(0.00078677109 -0.002139196 822.46338)
(0.0017729727 -0.0020510862 822.46372)
(0.002742094 -0.0019355015 822.4643)
(0.003730631 -0.0017809958 822.46512)
(0.0014120559 -0.0016224871 822.4662)
(-0.0017279779 -0.0014225203 822.46483)
(-0.0040140534 -0.0013616717 822.46387)
(-0.0022889022 -0.0012822458 822.46336)
(-0.0012018054 -0.0012018054 822.46306)
(-0.00015194895 -0.0011232989 822.46297)
(0.00087080185 -0.0010436277 822.46311)
(0.0018697234 -0.0009578669 822.46348)
(0.0028538227 -0.00086266725 822.46408)
(0.0038392011 -0.00076304082 822.46492)
(0.0014448939 -0.00068640144 822.46602)
(-0.0017121176 -0.00034839236 822.4647)
(-0.0039547386 -0.00030165513 822.46376)
(-0.0022143606 -0.00023066178 822.46326)
(-0.0011232989 -0.00015194895 822.46297)
(-7.2484004e-05 -7.2484003e-05 822.46291)
(0.00095220308 6.7711324e-06 822.46306)
(0.0019539331 8.675913e-05 822.46345)
(0.00293692 0.00016645461 822.46406)
(0.0039068968 0.00023847409 822.46492)
(0.0014631488 0.00028542018 822.46604)
(-0.0016968197 0.00065237663 822.4648)
(-0.0038963228 0.00070752751 822.46386)
(-0.002139196 0.00078677109 822.46338)
(-0.0010436277 0.00087080183 822.46311)
(6.7711312e-06 0.00095220308 822.46306)
(0.001030045 0.001030045 822.46324)
(0.0020294069 0.0011051645 822.46364)
(0.0030055377 0.0011765723 822.46427)
(0.0039581667 0.001238217 822.46515)
(0.0014761913 0.0012769148 822.46627)
(-0.0016753504 0.0015724605 822.46511)
(-0.0038203441 0.001666029 822.46419)
(-0.0020510863 0.0017729727 822.46372)
(-0.0009578669 0.0018697234 822.46348)
(8.6759135e-05 0.0019539331 822.46345)
(0.0011051645 0.0020294069 822.46364)
(0.0021004604 0.0021004604 822.46405)
(0.0030699725 0.0021693871 822.4647)
(0.0040072393 0.0022335895 822.46559)
(0.0014889473 0.0022799684 822.46673)
(-0.0016344407 0.0023733532 822.46563)
(-0.0036958107 0.0025837323 822.46474)
(-0.0019355015 0.002742094 822.4643)
(-0.00086266725 0.0028538227 822.46408)
(0.0001664546 0.00293692 822.46406)
(0.0011765723 0.0030055377 822.46427)
(0.0021693871 0.0030699725 822.4647)
(0.0031386668 0.0031386668 822.46537)
(0.004068748 0.0032181404 822.46628)
(0.0015071106 0.003301398 822.46743)
(-0.0015350977 0.0029389607 822.46634)
(-0.0034516034 0.0035261867 822.46551)
(-0.0017809958 0.003730631 822.46512)
(-0.00076304081 0.0038392011 822.46492)
(0.00023847408 0.0039068968 822.46492)
(0.001238217 0.0039581667 822.46515)
(0.0022335895 0.0040072393 822.46559)
(0.0032181404 0.004068748 822.46628)
(0.0041699705 0.0041699705 822.46721)
(0.0015444524 0.0043782459 822.46839)
(-0.0012429567 0.0010470805 822.46718)
(-0.0029041404 0.0013392215 822.46655)
(-0.0016224871 0.0014120559 822.4662)
(-0.00068640144 0.0014448939 822.46602)
(0.00028542019 0.0014631488 822.46604)
(0.0012769148 0.0014761913 822.46627)
(0.0022799684 0.0014889473 822.46673)
(0.003301398 0.0015071106 822.46743)
(0.0043782459 0.0015444524 822.46839)
(0.0016459609 0.0016459609 822.46967)
(-0.0024439952 -0.0024439952 817.41193)
(-0.0055633015 -0.0021350313 817.41085)
(-0.003050123 -0.0020655677 817.41032)
(-0.0016398001 -0.0020362338 817.41001)
(-0.00034772825 -0.0020172113 817.40992)
(0.00086672932 -0.0019986968 817.41003)
(0.0019940417 -0.0019725726 817.41036)
(0.0029880789 -0.0019226516 817.41088)
(0.0037080515 -0.0018012099 817.41158)
(0.0013243617 -0.0014436151 817.4124)
(-0.0021350312 -0.0055633015 817.41085)
(-0.0049956603 -0.0049956604 817.40992)
(-0.0029019269 -0.0048176554 817.40941)
(-0.0015672654 -0.0047212806 817.40912)
(-0.00029142268 -0.0046500272 817.40903)
(0.00093368729 -0.0045793228 817.40916)
(0.0021081095 -0.0044869397 817.4095)
(0.0032451231 -0.0043351602 817.41004)
(0.0044266063 -0.0040371338 817.41081)
(0.0016819565 -0.0033684528 817.41182)
(-0.0020655677 -0.003050123 817.41032)
(-0.0048176554 -0.0029019269 817.40941)
(-0.0027757432 -0.0027757433 817.40893)
(-0.0014721719 -0.0026736657 817.40865)
(-0.00020577044 -0.0025838721 817.40858)
(0.0010298168 -0.0024928387 817.40872)
(0.0022382043 -0.0023857718 817.40908)
(0.0034378849 -0.0022451121 817.40965)
(0.0046747588 -0.0020571303 817.41045)
(0.001770149 -0.001865158 817.41151)
(-0.0020362338 -0.0016398 817.41001)
(-0.0047212806 -0.0015672654 817.40912)
(-0.0026736657 -0.0014721719 817.40865)
(-0.0013753942 -0.0013753942 817.40839)
(-0.00011059565 -0.0012805232 817.40833)
(0.0011317876 -0.0011839008 817.40849)
(0.0023558361 -0.0010796424 817.40886)
(0.0035737646 -0.0009637794 817.40946)
(0.0048065603 -0.00084256713 817.41029)
(0.001809938 -0.00074958952 817.41137)
(-0.0020172113 -0.00034772825 817.40992)
(-0.0046500272 -0.00029142269 817.40903)
(-0.0025838721 -0.00020577043 817.40858)
(-0.0012805232 -0.00011059564 817.40833)
(-1.427699e-05 -1.4276987e-05 817.40829)
(0.0012306975 8.2023413e-05 817.40847)
(0.0024583257 0.00017942666 817.40886)
(0.0036749602 0.00027662828 817.40948)
(0.0048889487 0.00036452781 817.41032)
(0.001832134 0.00042178233 817.41141)
(-0.0019986968 0.00086672932 817.41003)
(-0.0045793228 0.00093368729 817.40916)
(-0.0024928387 0.0010298168 817.40872)
(-0.0011839008 0.0011317876 817.40849)
(8.2023404e-05 0.0012306975 817.40847)
(0.0013254913 0.0013254913 817.40866)
(0.0025504409 0.0014172368 817.40907)
(0.0037588657 0.0015047416 817.4097)
(0.0049517144 0.0015805433 817.41056)
(0.0018481076 0.001628265 817.41166)
(-0.0019725726 0.0019940417 817.41036)
(-0.0044869397 0.0021081095 817.4095)
(-0.0023857718 0.0022382043 817.40908)
(-0.0010796424 0.0023558361 817.40886)
(0.00017942668 0.0024583257 817.40886)
(0.0014172368 0.0025504409 817.40907)
(0.002637576 0.002637576 817.40949)
(0.0038382667 0.0027226725 817.41014)
(0.0050124722 0.002802587 817.41101)
(0.0018639485 0.0028607986 817.41212)
(-0.0019226516 0.0029880789 817.41088)
(-0.0043351602 0.0032451231 817.41004)
(-0.0022451121 0.0034378849 817.40965)
(-0.0009637794 0.0035737646 817.40946)
(0.00027662829 0.0036749602 817.40948)
(0.0015047416 0.0037588657 817.4097)
(0.0027226725 0.0038382667 817.41014)
(0.0039238767 0.0039238767 817.4108)
(0.0050898405 0.0040241994 817.41169)
(0.0018869154 0.0041304683 817.41281)
(-0.0018012099 0.0037080515 817.41158)
(-0.0040371338 0.0044266063 817.41081)
(-0.0020571303 0.0046747588 817.41045)
(-0.00084256714 0.0048065603 817.41029)
(0.00036452781 0.0048889487 817.41032)
(0.0015805433 0.0049517144 817.41056)
(0.002802587 0.0050124722 817.41101)
(0.0040241994 0.0050898405 817.41169)
(0.0052190638 0.0052190638 817.41261)
(0.0019347944 0.0054873418 817.41376)
(-0.0014436151 0.0013243617 817.4124)
(-0.0033684528 0.0016819565 817.41182)
(-0.001865158 0.001770149 817.41151)
(-0.00074958954 0.001809938 817.41137)
(0.00042178233 0.001832134 817.41141)
(0.001628265 0.0018481076 817.41166)
(0.0028607986 0.0018639485 817.41212)
(0.0041304683 0.0018869154 817.41281)
(0.0054873418 0.0019347944 817.41376)
(0.0020657674 0.0020657674 817.415)
(-0.0027924365 -0.0027924365 812.46308)
(-0.0063424008 -0.0024376929 812.46207)
(-0.0034505928 -0.002358194 812.46158)
(-0.0018231271 -0.0023245075 812.46131)
(-0.0003236475 -0.0023025022 812.46125)
(0.0010939572 -0.0022809352 812.46138)
(0.0024180611 -0.0022503756 812.46171)
(0.0035945348 -0.0021918563 812.46222)
(0.0044578121 -0.0020493286 812.4629)
(0.0015933428 -0.0016292892 812.46369)
(-0.0024376929 -0.0063424008 812.46207)
(-0.005691037 -0.005691037 812.4612)
(-0.0032808147 -0.0054871744 812.46074)
(-0.0017395894 -0.0053763088 812.46048)
(-0.00025828911 -0.0052937923 812.46042)
(0.001172147 -0.0052114293 812.46056)
(0.0025516794 -0.0051034215 812.4609)
(0.0038961052 -0.0049256532 812.46144)
(0.0053016629 -0.0045762891 812.46219)
(0.0020133822 -0.003792015 812.46316)
(-0.002358194 -0.0034505928 812.46158)
(-0.0054871744 -0.0032808147 812.46074)
(-0.0031358646 -0.0031358646 812.4603)
(-0.0016297451 -0.0030180272 812.46005)
(-0.000158768 -0.0029138267 812.46001)
(0.0012843281 -0.0028077319 812.46017)
(0.0027038373 -0.0026826109 812.46052)
(0.0041216671 -0.0025180375 812.46109)
(0.0055914503 -0.0022981343 812.46187)
(0.0021161922 -0.0020743054 812.46289)
(-0.0023245075 -0.0018231271 812.46131)
(-0.0053763088 -0.0017395894 812.46048)
(-0.0030180272 -0.0016297451 812.46005)
(-0.0015175514 -0.0015175515 812.45983)
(-4.7993878e-05 -0.0014071831 812.4598)
(0.0014033628 -0.0012944468 812.45997)
(0.0028413739 -0.0011725539 812.46034)
(0.0042805818 -0.0010369647 812.46093)
(0.0057453949 -0.00089514726 812.46174)
(0.0021626015 -0.00078659509 812.46277)
(-0.0023025022 -0.00032364749 812.46125)
(-0.0052937923 -0.00025828909 812.46042)
(-0.0029138267 -0.00015876799 812.46001)
(-0.0014071831 -4.7993872e-05 812.4598)
(6.4336662e-05 6.4336658e-05 812.45978)
(0.0015189573 0.00017688063 812.45997)
(0.0029613193 0.00029092589 812.46036)
(0.0043990738 0.00040488612 812.46097)
(0.00584182 0.00050799551 812.46179)
(0.0021885603 0.00057511468 812.46283)
(-0.0022809352 0.0010939572 812.46138)
(-0.0052114293 0.001172147 812.46056)
(-0.0028077319 0.0012843281 812.46017)
(-0.0012944468 0.0014033628 812.45997)
(0.00017688062 0.0015189573 812.45997)
(0.0016299521 0.0016299521 812.46017)
(0.0030693794 0.0017376396 812.46058)
(0.0044976514 0.0018406229 812.4612)
(0.0059156235 0.001930061 812.46203)
(0.0022073476 0.0019864757 812.46309)
(-0.0022503756 0.0024180611 812.46171)
(-0.0051034215 0.0025516794 812.4609)
(-0.0026826109 0.0027038372 812.46052)
(-0.0011725539 0.0028413739 812.46034)
(0.00029092589 0.0029613193 812.46036)
(0.0017376396 0.0030693794 812.46058)
(0.0031719902 0.0031719902 812.461)
(0.0045914952 0.0032727089 812.46164)
(0.0059876727 0.0033678369 812.46249)
(0.0022261701 0.0034375042 812.46355)
(-0.0021918563 0.0035945348 812.46222)
(-0.0049256532 0.0038961052 812.46144)
(-0.0025180375 0.0041216671 812.46109)
(-0.0010369647 0.0042805818 812.46093)
(0.00040488612 0.0043990737 812.46097)
(0.0018406229 0.0044976514 812.4612)
(0.0032727089 0.0045914952 812.46164)
(0.0046934981 0.0046934981 812.46229)
(0.0060804188 0.0048140415 812.46315)
(0.0022537925 0.00494258 812.46423)
(-0.0020493286 0.0044578121 812.4629)
(-0.0045762891 0.0053016629 812.46219)
(-0.0022981343 0.0055914503 812.46187)
(-0.00089514726 0.0057453949 812.46174)
(0.00050799551 0.00584182 812.46179)
(0.001930061 0.0059156235 812.46203)
(0.0033678369 0.0059876727 812.46249)
(0.0048140415 0.0060804188 812.46315)
(0.0062367546 0.0062367546 812.46404)
(0.0023118624 0.0065629635 812.46515)
(-0.0016292892 0.0015933428 812.46369)
(-0.003792015 0.0020133822 812.46316)
(-0.0020743054 0.0021161922 812.46289)
(-0.0007865951 0.0021626015 812.46277)
(0.00057511467 0.0021885603 812.46283)
(0.0019864757 0.0022073476 812.46309)
(0.0034375042 0.0022261701 812.46355)
(0.00494258 0.0022537925 812.46423)
(0.0065629635 0.0023118624 812.46515)
(0.0024712651 0.0024712651 812.46633)
(-0.0031170423 -0.0031170423 807.6166)
(-0.0070629193 -0.0027191438 807.61567)
(-0.0038107467 -0.0026302279 807.61522)
(-0.0019769982 -0.0025924657 807.61498)
(-0.00028136944 -0.0025676608 807.61494)
(0.001327795 -0.0025432176 807.61508)
(0.0028369027 -0.0025084671 807.61541)
(0.0041839497 -0.0024418166 807.61591)
(0.0051795084 -0.002279345 807.61656)
(0.0018512694 -0.0018002374 807.61732)
(-0.0027191438 -0.0070629193 807.61567)
(-0.0063326977 -0.0063326976 807.61486)
(-0.0036207294 -0.0061046 807.61444)
(-0.0018831475 -0.0059801679 807.61421)
(-0.00020749735 -0.0058870801 807.61418)
(0.0014165855 -0.0057937338 807.61433)
(0.0029890042 -0.005670968 807.61467)
(0.004527633 -0.005468629 807.61519)
(0.0061418771 -0.0050707241 807.6159)
(0.0023303769 -0.0041771618 807.61683)
(-0.0026302279 -0.0038107467 807.61522)
(-0.0061046 -0.0036207294 807.61444)
(-0.0034582169 -0.0034582169 807.61404)
(-0.0017594783 -0.0033256167 807.61383)
(-9.4935349e-05 -0.003207884 807.6138)
(0.0015439071 -0.0030875969 807.61397)
(0.0031620074 -0.0029454243 807.61432)
(0.0047841936 -0.002758245 807.61487)
(0.0064709756 -0.0025081724 807.61562)
(0.0024469776 -0.0022542822 807.61659)
(-0.0025924657 -0.0019769982 807.61498)
(-0.0059801679 -0.0018831475 807.61421)
(-0.0033256167 -0.0017594783 807.61383)
(-0.0016328146 -0.0016328146 807.61363)
(3.0522382e-05 -0.0015078647 807.61362)
(0.0016790452 -0.0013799269 807.6138)
(0.0033183561 -0.0012413648 807.61417)
(0.0049648849 -0.0010871127 807.61474)