/*--------------------------------*- C++ -*----------------------------------*\
| =========                 |                                                 |
| \\      /  F ield         | OpenFOAM: The Open Source CFD Toolbox           |
|  \\    /   O peration     | Version:  v2106                                 |
|   \\  /    A nd           | Website:  www.openfoam.com                      |
|    \\/     M anipulation  |                                                 |
\*---------------------------------------------------------------------------*/
FoamFile
{
    version     2.0;
    format      ascii;
    arch        "LSB;label=32;scalar=64";
    class       volScalarField;
    location    "75";
    object      gradTz;
}
// * * * * * * * * * * * * * * * * * * * * * * * * * * * * * * * * * * * * * //

dimensions      [0 -1 0 1 0 0 0];

internalField   nonuniform List<scalar> 
4000
(
567.27395
567.27264
567.27201
567.27163
567.27146
567.27146
567.27161
567.2719
567.27227
567.27262
567.27264
567.27149
567.27089
567.27053
567.27036
567.27037
567.27054
567.27084
567.27126
567.27173
567.27201
567.27089
567.27032
567.26998
567.26982
567.26984
567.27002
567.27035
567.27079
567.2713
567.27163
567.27053
567.26998
567.26964
567.2695
567.26953
567.26973
567.27007
567.27054
567.27106
567.27146
567.27036
567.26982
567.2695
567.26937
567.26942
567.26963
567.26999
567.27046
567.271
567.27146
567.27037
567.26984
567.26953
567.26942
567.26948
567.2697
567.27007
567.27056
567.2711
567.27161
567.27054
567.27002
567.26973
567.26963
567.2697
567.26993
567.27031
567.27081
567.27136
567.2719
567.27084
567.27035
567.27007
567.26999
567.27007
567.27031
567.2707
567.27121
567.27176
567.27227
567.27126
567.27079
567.27054
567.27046
567.27056
567.27081
567.27121
567.27173
567.27229
567.27262
567.27173
567.2713
567.27106
567.271
567.2711
567.27136
567.27176
567.27229
567.27287
838.30797
838.30636
838.30552
838.305
838.30476
838.30478
838.30502
838.30547
838.30607
838.30674
838.30636
838.30495
838.30416
838.30366
838.30343
838.30346
838.30372
838.30419
838.30487
838.30574
838.30552
838.30416
838.30339
838.30292
838.30271
838.30275
838.30303
838.30354
838.30426
838.30519
838.305
838.30366
838.30292
838.30246
838.30227
838.30234
838.30264
838.30317
838.30391
838.30487
838.30476
838.30343
838.30271
838.30227
838.3021
838.30218
838.30251
838.30306
838.30382
838.30479
838.30478
838.30346
838.30275
838.30234
838.30218
838.30228
838.30263
838.30319
838.30397
838.30495
838.30502
838.30372
838.30303
838.30264
838.30251
838.30263
838.30298
838.30357
838.30436
838.30535
838.30547
838.30419
838.30354
838.30317
838.30306
838.30319
838.30357
838.30417
838.30498
838.30598
838.30607
838.30487
838.30426
838.30391
838.30382
838.30397
838.30436
838.30498
838.30581
838.30683
838.30674
838.30574
838.30519
838.30487
838.30479
838.30495
838.30535
838.30598
838.30683
838.30791
832.91082
832.90947
832.90874
832.90828
832.90808
832.90812
832.90839
832.90887
832.90954
832.91035
832.90947
832.90829
832.9076
832.90716
832.90697
832.90702
832.9073
832.90781
832.90855
832.90957
832.90874
832.9076
832.90693
832.90651
832.90634
832.90641
832.90671
832.90725
832.90803
832.9091
832.90828
832.90716
832.90651
832.90611
832.90596
832.90604
832.90637
832.90693
832.90774
832.90884
832.90808
832.90697
832.90634
832.90596
832.90582
832.90593
832.90627
832.90685
832.90768
832.90879
832.90812
832.90702
832.90641
832.90604
832.90593
832.90605
832.90641
832.90701
832.90786
832.90898
832.90839
832.9073
832.90671
832.90637
832.90627
832.90641
832.90679
832.90741
832.90827
832.9094
832.90887
832.90781
832.90725
832.90693
832.90685
832.90701
832.90741
832.90804
832.90892
832.91006
832.90954
832.90855
832.90803
832.90774
832.90768
832.90786
832.90827
832.90892
832.90982
832.91099
832.91035
832.90957
832.9091
832.90884
832.90879
832.90898
832.9094
832.91006
832.91099
832.91225
827.63189
827.63066
827.63
827.62961
827.62944
827.62951
827.62981
827.63031
827.63101
827.63185
827.63066
827.62958
827.62896
827.62858
827.62843
827.62851
827.62882
827.62935
827.63012
827.63117
827.63
827.62896
827.62837
827.62801
827.62787
827.62797
827.6283
827.62886
827.62967
827.63077
827.62961
827.62858
827.62801
827.62766
827.62754
827.62766
827.62801
827.62859
827.62943
827.63055
827.62944
827.62843
827.62787
827.62754
827.62744
827.62758
827.62794
827.62855
827.62941
827.63054
827.62951
827.62851
827.62797
827.62766
827.62758
827.62773
827.62811
827.62874
827.62961
827.63075
827.62981
827.62882
827.6283
827.62801
827.62794
827.62811
827.62852
827.62916
827.63004
827.63119
827.63031
827.62935
827.62886
827.62859
827.62855
827.62874
827.62916
827.62981
827.63072
827.63188
827.63101
827.63012
827.62967
827.62943
827.62941
827.62961
827.63004
827.63072
827.63164
827.63284
827.63185
827.63117
827.63077
827.63055
827.63054
827.63075
827.63119
827.63188
827.63284
827.63413
822.46692
822.46577
822.46518
822.46483
822.4647
822.4648
822.46511
822.46563
822.46634
822.46718
822.46577
822.46476
822.46421
822.46387
822.46376
822.46386
822.46419
822.46474
822.46551
822.46655
822.46518
822.46421
822.46367
822.46336
822.46326
822.46338
822.46372
822.4643
822.46512
822.4662
822.46483
822.46387
822.46336
822.46306
822.46297
822.46311
822.46348
822.46408
822.46492
822.46602
822.4647
822.46376
822.46326
822.46297
822.46291
822.46306
822.46345
822.46406
822.46492
822.46604
822.4648
822.46386
822.46338
822.46311
822.46306
822.46324
822.46364
822.46427
822.46515
822.46627
822.46511
822.46419
822.46372
822.46348
822.46345
822.46364
822.46405
822.4647
822.46559
822.46673
822.46563
822.46474
822.4643
822.46408
822.46406
822.46427
822.4647
822.46537
822.46628
822.46743
822.46634
822.46551
822.46512
822.46492
822.46492
822.46515
822.46559
822.46628
822.46721
822.46839
822.46718
822.46655
822.4662
822.46602
822.46604
822.46627
822.46673
822.46743
822.46839
822.46967
817.41193
817.41085
817.41032
817.41001
817.40992
817.41003
817.41036
817.41088
817.41158
817.4124
817.41085
817.40992
817.40941
817.40912
817.40903
817.40916
817.4095
817.41004
817.41081
817.41182
817.41032
817.40941
817.40893
817.40865
817.40858
817.40872
817.40908
817.40965
817.41045
817.41151
817.41001
817.40912
817.40865
817.40839
817.40833
817.40849
817.40886
817.40946
817.41029
817.41137
817.40992
817.40903
817.40858
817.40833
817.40829
817.40847
817.40886
817.40948
817.41032
817.41141
817.41003
817.40916
817.40872
817.40849
817.40847
817.40866
817.40907
817.4097
817.41056
817.41166
817.41036
817.4095
817.40908
817.40886
817.40886
817.40907
817.40949
817.41014
817.41101
817.41212
817.41088
817.41004
817.40965
817.40946
817.40948
817.4097
817.41014
817.4108
817.41169
817.41281
817.41158
817.41081
817.41045
817.41029
817.41032
817.41056
817.41101
817.41169
817.41261
817.41376
817.4124
817.41182
817.41151
817.41137
817.41141
817.41166
817.41212
817.41281
817.41376
817.415
812.46308
812.46207
812.46158
812.46131
812.46125
812.46138
812.46171
812.46222
812.4629
812.46369
812.46207
812.4612
812.46074
812.46048
812.46042
812.46056
812.4609
812.46144
812.46219
812.46316
812.46158
812.46074
812.4603
812.46005
812.46001
812.46017
812.46052
812.46109
812.46187
812.46289
812.46131
812.46048
812.46005
812.45983
812.4598
812.45997
812.46034
812.46093
812.46174
812.46277
812.46125
812.46042
812.46001
812.4598
812.45978
812.45997
812.46036
812.46097
812.46179
812.46283
812.46138
812.46056
812.46017
812.45997
812.45997
812.46017
812.46058
812.4612
812.46203
812.46309
812.46171
812.4609
812.46052
812.46034
812.46036
812.46058
812.461
812.46164
812.46249
812.46355
812.46222
812.46144
812.46109
812.46093
812.46097
812.4612
812.46164
812.46229
812.46315
812.46423
812.4629
812.46219
812.46187
812.46174
812.46179
812.46203
812.46249
812.46315
812.46404
812.46515
812.46369
812.46316
812.46289
812.46277
812.46283
812.46309
812.46355
812.46423
812.46515
812.46633
807.6166
807.61567
807.61522
807.61498
807.61494
807.61508
807.61541
807.61591
807.61656
807.61732
807.61567
807.61486
807.61444
807.61421
807.61418
807.61433
807.61467
807.61519
807.6159
807.61683
807.61522
807.61444
807.61404
807.61383
807.6138
807.61397
807.61432
807.61487
807.61562
807.61659
807.61498
807.61421
807.61383
807.61363
807.61362
807.6138
807.61417
807.61474
807.61551
807.61649
807.61494
807.61418
807.6138
807.61362
807.61363
807.61382
807.61421
807.61479
807.61558
807.61657
807.61508
807.61433
807.61397
807.6138
807.61382
807.61403
807.61443
807.61503
807.61583
807.61683
807.61541
807.61467
807.61432
807.61417
807.61421
807.61443
807.61485
807.61546
807.61627
807.61728
807.61591
807.61519
807.61487
807.61474
807.61479
807.61503
807.61546
807.61609
807.61691
807.61794
807.61656
807.6159
807.61562
807.61551
807.61558
807.61583
807.61627
807.61691
807.61776
807.61881
807.61732
807.61683
807.61659
807.61649
807.61657
807.61683
807.61728
807.61794
807.61881
807.61994
802.86882
802.86796
802.86756
802.86735
802.86733
802.86748
802.86779
802.86827
802.8689
802.86961
802.86796
802.86722
802.86684
802.86665
802.86663
802.86678
802.86711
802.86761
802.86829
802.86916
802.86756
802.86684
802.86648
802.8663
802.86629
802.86646
802.86681
802.86733
802.86804
802.86895
802.86735
802.86665
802.8663
802.86613
802.86614
802.86632
802.86668
802.86722
802.86795
802.86888
802.86733
802.86663
802.86629
802.86614
802.86616
802.86635
802.86673
802.86729
802.86803
802.86897
802.86748
802.86678
802.86646
802.86632
802.86635
802.86656
802.86695
802.86752
802.86828
802.86922
802.86779
802.86711
802.86681
802.86668
802.86673
802.86695
802.86735
802.86794
802.86871
802.86966
802.86827
802.86761
802.86733
802.86722
802.86729
802.86752
802.86794
802.86854
802.86932
802.87028
802.8689
802.86829
802.86804
802.86795
802.86803
802.86828
802.86871
802.86932
802.87012
802.87111
802.86961
802.86916
802.86895
802.86888
802.86897
802.86922
802.86966
802.87028
802.87111
802.87218
798.21614
798.21536
798.21501
798.21483
798.21482
798.21497
798.21528
798.21573
798.21631
798.21698
798.21536
798.21469
798.21435
798.21419
798.21419
798.21434
798.21466
798.21513
798.21577
798.21658
798.21501
798.21435
798.21404
798.21388
798.21389
798.21406
798.21439
798.21488
798.21555
798.21639
798.21483
798.21419
798.21388
798.21374
798.21376
798.21394
798.21429
798.2148
798.21548
798.21634
798.21482
798.21419
798.21389
798.21376
798.21379
798.21399
798.21434
798.21487
798.21557
798.21644
798.21497
798.21434
798.21406
798.21394
798.21399
798.21419
798.21456
798.2151
798.21581
798.21669
798.21528
798.21466
798.21439
798.21429
798.21434
798.21456
798.21495
798.2155
798.21622
798.2171
798.21573
798.21513
798.21488
798.2148
798.21487
798.2151
798.2155
798.21606
798.21679
798.21769
798.21631
798.21577
798.21555
798.21548
798.21557
798.21581
798.21622
798.21679
798.21754
798.21846
798.21698
798.21658
798.21639
798.21634
798.21644
798.21669
798.2171
798.21769
798.21846
798.21946
793.65506
793.65436
793.65405
793.6539
793.6539
793.65405
793.65434
793.65477
793.65531
793.65592
793.65436
793.65376
793.65347
793.65333
793.65334
793.6535
793.6538
793.65424
793.65482
793.65557
793.65405
793.65347
793.65319
793.65307
793.65308
793.65325
793.65356
793.65402
793.65464
793.65541
793.6539
793.65333
793.65307
793.65295
793.65298
793.65315
793.65348
793.65396
793.65459
793.65538
793.6539
793.65334
793.65308
793.65298
793.65302
793.65321
793.65354
793.65403
793.65468
793.65548
793.65405
793.6535
793.65325
793.65315
793.65321
793.65341
793.65376
793.65426
793.65491
793.65572
793.65434
793.6538
793.65356
793.65348
793.65354
793.65376
793.65412
793.65463
793.65529
793.6561
793.65477
793.65424
793.65402
793.65396
793.65403
793.65426
793.65463
793.65515
793.65583
793.65665
793.65531
793.65482
793.65464
793.65459
793.65468
793.65491
793.65529
793.65583
793.65652
793.65737
793.65592
793.65557
793.65541
793.65538
793.65548
793.65572
793.6561
793.65665
793.65737
793.65828
789.18214
789.18153
789.18126
789.18114
789.18116
789.1813
789.18157
789.18196
789.18246
789.18301
789.18153
789.181
789.18075
789.18064
789.18066
789.18081
789.18109
789.1815
789.18203
789.18271
789.18126
789.18075
789.18052
789.18042
789.18044
789.1806
789.1809
789.18132
789.18188
789.18258
789.18114
789.18064
789.18042
789.18032
789.18036
789.18053
789.18083
789.18127
789.18185
789.18256
789.18116
789.18066
789.18044
789.18036
789.18041
789.18059
789.1809
789.18135
789.18194
789.18266
789.1813
789.18081
789.1806
789.18053
789.18059
789.18078
789.18111
789.18156
789.18216
789.18289
789.18157
789.18109
789.1809
789.18083
789.1809
789.18111
789.18144
789.18191
789.18251
789.18325
789.18196
789.1815
789.18132
789.18127
789.18135
789.18156
789.18191
789.18239
789.183
789.18375
789.18246
789.18203
789.18188
789.18185
789.18194
789.18216
789.18251
789.183
789.18363
789.1844
789.18301
789.18271
789.18258
789.18256
789.18266
789.18289
789.18325
789.18375
789.1844
789.18523
784.79404
784.79351
784.79329
784.7932
784.79322
784.79336
784.79361
784.79397
784.79441
784.79491
784.79351
784.79306
784.79286
784.79277
784.7928
784.79295
784.7932
784.79357
784.79405
784.79466
784.79329
784.79286
784.79266
784.79259
784.79262
784.79278
784.79304
784.79343
784.79393
784.79456
784.7932
784.79277
784.79259
784.79252
784.79256
784.79272
784.793
784.7934
784.79391
784.79455
784.79322
784.7928
784.79262
784.79256
784.79262
784.79279
784.79307
784.79348
784.794
784.79465
784.79336
784.79295
784.79278
784.79272
784.79279
784.79297
784.79326
784.79368
784.79421
784.79486
784.79361
784.7932
784.79304
784.793
784.79307
784.79326
784.79357
784.79399
784.79453
784.79519
784.79397
784.79357
784.79343
784.7934
784.79348
784.79368
784.79399
784.79442
784.79497
784.79564
784.79441
784.79405
784.79393
784.79391
784.794
784.79421
784.79453
784.79497
784.79554
784.79622
784.79491
784.79466
784.79456
784.79455
784.79465
784.79486
784.79519
784.79564
784.79622
784.79696
780.48748
780.48705
780.48687
780.48681
780.48684
780.48697
780.4872
780.48751
780.4879
780.48834
780.48705
780.48668
780.48652
780.48646
780.48649
780.48663
780.48686
780.48719
780.48761
780.48814
780.48687
780.48652
780.48636
780.48631
780.48635
780.4865
780.48674
780.48708
780.48752
780.48807
780.48681
780.48646
780.48631
780.48626
780.48632
780.48647
780.48672
780.48707
780.48752
780.48808
780.48684
780.48649
780.48635
780.48632
780.48638
780.48653
780.48679
780.48715
780.48761
780.48817
780.48697
780.48663
780.4865
780.48647
780.48653
780.4867
780.48697
780.48733
780.4878
780.48837
780.4872
780.48686
780.48674
780.48672
780.48679
780.48697
780.48724
780.48761
780.48809
780.48866
780.48751
780.48719
780.48708
780.48707
780.48715
780.48733
780.48761
780.48799
780.48848
780.48906
780.4879
780.48761
780.48752
780.48752
780.48761
780.4878
780.48809
780.48848
780.48897
780.48957
780.48834
780.48814
780.48807
780.48808
780.48817
780.48837
780.48866
780.48906
780.48957
780.49021
776.2593
776.25895
776.25882
776.25878
776.25883
776.25895
776.25915
776.25942
776.25976
776.26013
776.25895
776.25866
776.25854
776.25851
776.25856
776.25868
776.25889
776.25917
776.25953
776.25998
776.25882
776.25854
776.25843
776.2584
776.25845
776.25859
776.2588
776.25909
776.25947
776.25994
776.25878
776.25851
776.2584
776.25838
776.25844
776.25858
776.2588
776.2591
776.25948
776.25996
776.25883
776.25856
776.25845
776.25844
776.2585
776.25864
776.25887
776.25918
776.25957
776.26005
776.25895
776.25868
776.25859
776.25858
776.25864
776.2588
776.25903
776.25935
776.25974
776.26023
776.25915
776.25889
776.2588
776.2588
776.25887
776.25903
776.25927
776.25959
776.26
776.26048
776.25942
776.25917
776.25909
776.2591
776.25918
776.25935
776.25959
776.25992
776.26033
776.26083
776.25976
776.25953
776.25947
776.25948
776.25957
776.25974
776.26
776.26033
776.26076
776.26126
776.26013
776.25998
776.25994
776.25996
776.26005
776.26023
776.26048
776.26083
776.26126
776.26181
772.10638
772.10613
772.10605
772.10603
772.10608
772.1062
772.10637
772.1066
772.10688
772.10719
772.10613
772.10592
772.10584
772.10583
772.10589
772.106
772.10618
772.10642
772.10672
772.10709
772.10605
772.10584
772.10577
772.10577
772.10582
772.10594
772.10613
772.10637
772.10669
772.10707
772.10603
772.10583
772.10577
772.10577
772.10583
772.10595
772.10614
772.10639
772.10671
772.1071
772.10608
772.10589
772.10582
772.10583
772.10589
772.10602
772.10622
772.10648
772.1068
772.10719
772.1062
772.106
772.10594
772.10595
772.10602
772.10616
772.10636
772.10662
772.10695
772.10735
772.10637
772.10618
772.10613
772.10614
772.10622
772.10636
772.10656
772.10683
772.10717
772.10756
772.1066
772.10642
772.10637
772.10639
772.10648
772.10662
772.10683
772.10711
772.10745
772.10785
772.10688
772.10672
772.10669
772.10671
772.1068
772.10695
772.10717
772.10745
772.1078
772.10821
772.10719
772.10709
772.10707
772.1071
772.10719
772.10735
772.10756
772.10785
772.10821
772.10866
768.02573
768.02557
768.02553
768.02554
768.0256
768.0257
768.02584
768.02603
768.02625
768.02649
768.02557
768.02544
768.0254
768.02542
768.02548
768.02558
768.02573
768.02592
768.02616
768.02644
768.02553
768.0254
768.02537
768.02539
768.02545
768.02556
768.02571
768.02591
768.02615
768.02645
768.02554
768.02542
768.02539
768.02541
768.02547
768.02558
768.02574
768.02594
768.0262
768.0265
768.0256
768.02548
768.02545
768.02547
768.02554
768.02566
768.02582
768.02602
768.02628
768.02658
768.0257
768.02558
768.02556
768.02558
768.02566
768.02577
768.02594
768.02615
768.02641
768.02671
768.02584
768.02573
768.02571
768.02574
768.02582
768.02594
768.02611
768.02632
768.02658
768.02689
768.02603
768.02592
768.02591
768.02594
768.02602
768.02615
768.02632
768.02654
768.02681
768.02712
768.02625
768.02616
768.02615
768.0262
768.02628
768.02641
768.02658
768.02681
768.02708
768.0274
768.02649
768.02644
768.02645
768.0265
768.02658
768.02671
768.02689
768.02712
768.0274
768.02775
764.01441
764.01434
764.01435
764.01438
764.01445
764.01454
764.01465
764.01479
764.01496
764.01513
764.01434
764.01429
764.0143
764.01434
764.0144
764.01449
764.01461
764.01476
764.01493
764.01513
764.01435
764.0143
764.01431
764.01435
764.01441
764.01451
764.01463
764.01478
764.01495
764.01516
764.01438
764.01434
764.01435
764.01439
764.01445
764.01455
764.01467
764.01483
764.01501
764.01522
764.01445
764.0144
764.01441
764.01445
764.01452
764.01462
764.01475
764.0149
764.01509
764.0153
764.01454
764.01449
764.01451
764.01455
764.01462
764.01472
764.01485
764.01501
764.01519
764.01541
764.01465
764.01461
764.01463
764.01467
764.01475
764.01485
764.01498
764.01514
764.01533
764.01555
764.01479
764.01476
764.01478
764.01483
764.0149
764.01501
764.01514
764.0153
764.0155
764.01571
764.01496
764.01493
764.01495
764.01501
764.01509
764.01519
764.01533
764.0155
764.01569
764.01592
764.01513
764.01513
764.01516
764.01522
764.0153
764.01541
764.01555
764.01571
764.01592
764.01617
760.06959
760.06962
760.06967
760.06973
760.06979
760.06987
760.06996
760.07005
760.07016
760.07027
760.06962
760.06965
760.0697
760.06976
760.06982
760.0699
760.06999
760.07009
760.0702
760.07031
760.06967
760.0697
760.06975
760.0698
760.06987
760.06995
760.07004
760.07014
760.07025
760.07037
760.06973
760.06976
760.0698
760.06986
760.06993
760.07001
760.0701
760.0702
760.07031
760.07044
760.06979
760.06982
760.06987
760.06993
760.07
760.07008
760.07017
760.07028
760.07039
760.07051
760.06987
760.0699
760.06995
760.07001
760.07008
760.07016
760.07026
760.07036
760.07047
760.0706
760.06996
760.06999
760.07004
760.0701
760.07017
760.07026
760.07035
760.07045
760.07057
760.07069
760.07005
760.07009
760.07014
760.0702
760.07028
760.07036
760.07045
760.07056
760.07068
760.0708
760.07016
760.0702
760.07025
760.07031
760.07039
760.07047
760.07057
760.07068
760.0708
760.07093
760.07027
760.07031
760.07037
760.07044
760.07051
760.0706
760.07069
760.0708
760.07093
760.07107
756.18854
756.18866
756.18875
756.18883
756.1889
756.18897
756.18902
756.18907
756.18912
756.18916
756.18866
756.18876
756.18885
756.18893
756.18901
756.18907
756.18913
756.18918
756.18922
756.18926
756.18875
756.18885
756.18894
756.18902
756.18909
756.18915
756.18921
756.18926
756.1893
756.18934
756.18883
756.18893
756.18902
756.1891
756.18917
756.18923
756.18929
756.18934
756.18938
756.18941
756.1889
756.18901
756.18909
756.18917
756.18924
756.1893
756.18936
756.1894
756.18944
756.18948
756.18897
756.18907
756.18915
756.18923
756.1893
756.18936
756.18942
756.18947
756.18951
756.18954
756.18902
756.18913
756.18921
756.18929
756.18936
756.18942
756.18947
756.18952
756.18956
756.1896
756.18907
756.18918
756.18926
756.18934
756.1894
756.18947
756.18952
756.18957
756.18961
756.18964
756.18912
756.18922
756.1893
756.18938
756.18944
756.18951
756.18956
756.18961
756.18965
756.18969
756.18916
756.18926
756.18934
756.18941
756.18948
756.18954
756.1896
756.18964
756.18969
756.18973
752.3686
752.36881
752.36894
752.36904
752.36912
752.36917
752.3692
752.3692
752.36919
752.36916
752.36881
752.36899
752.36912
752.36922
752.3693
752.36935
752.36937
752.36937
752.36935
752.36931
752.36894
752.36912
752.36924
752.36934
752.36942
752.36946
752.36949
752.36949
752.36946
752.36941
752.36904
752.36922
752.36934
752.36944
752.36951
752.36956
752.36958
752.36957
752.36955
752.36949
752.36912
752.3693
752.36942
752.36951
752.36958
752.36962
752.36964
752.36964
752.36961
752.36955
752.36917
752.36935
752.36946
752.36956
752.36962
752.36967
752.36968
752.36968
752.36965
752.36959
752.3692
752.36937
752.36949
752.36958
752.36964
752.36968
752.3697
752.36969
752.36966
752.3696
752.3692
752.36937
752.36949
752.36957
752.36964
752.36968
752.36969
752.36968
752.36965
752.36959
752.36919
752.36935
752.36946
752.36955
752.36961
752.36965
752.36966
752.36965
752.36962
752.36956
752.36916
752.36931
752.36941
752.36949
752.36955
752.36959
752.3696
752.36959
752.36956
752.3695
748.60723
748.60752
748.60769
748.60782
748.6079
748.60793
748.60793
748.60789
748.60782
748.60772
748.60752
748.60778
748.60795
748.60807
748.60814
748.60818
748.60817
748.60813
748.60804
748.60792
748.60769
748.60795
748.60811
748.60822
748.6083
748.60833
748.60832
748.60827
748.60818
748.60804
748.60782
748.60807
748.60822
748.60834
748.60841
748.60844
748.60842
748.60837
748.60827
748.60813
748.6079
748.60814
748.6083
748.60841
748.60847
748.6085
748.60848
748.60843
748.60833
748.60818
748.60793
748.60818
748.60833
748.60844
748.6085
748.60852
748.6085
748.60844
748.60834
748.6082
748.60793
748.60817
748.60832
748.60842
748.60848
748.6085
748.60848
748.60842
748.60831
748.60817
748.60789
748.60813
748.60827
748.60837
748.60843
748.60844
748.60842
748.60835
748.60825
748.6081
748.60782
748.60804
748.60818
748.60827
748.60833
748.60834
748.60831
748.60825
748.60814
748.60799
748.60772
748.60792
748.60804
748.60813
748.60818
748.6082
748.60817
748.6081
748.60799
748.60783
744.90196
744.90234
744.90255
744.90269
744.90278
744.9028
744.90277
744.90268
744.90255
744.90239
744.90234
744.90267
744.90287
744.90301
744.90309
744.90311
744.90307
744.90298
744.90283
744.90263
744.90255
744.90287
744.90307
744.9032
744.90327
744.90329
744.90325
744.90315
744.90299
744.90277
744.90269
744.90301
744.9032
744.90333
744.9034
744.90341
744.90336
744.90326
744.90309
744.90287
744.90278
744.90309
744.90327
744.9034
744.90346
744.90347
744.90342
744.90331
744.90314
744.90291
744.9028
744.90311
744.90329
744.90341
744.90347
744.90347
744.90342
744.90331
744.90313
744.9029
744.90277
744.90307
744.90325
744.90336
744.90342
744.90342
744.90336
744.90324
744.90307
744.90283
744.90268
744.90298
744.90315
744.90326
744.90331
744.90331
744.90324
744.90312
744.90294
744.90271
744.90255
744.90283
744.90299
744.90309
744.90314
744.90313
744.90307
744.90294
744.90276
744.90252
744.90239
744.90263
744.90277
744.90287
744.90291
744.9029
744.90283
744.90271
744.90252
744.90226
741.25045
741.2509
741.25115
741.25131
741.2514
741.25141
741.25134
741.25121
741.25103
741.25081
741.2509
741.25131
741.25154
741.2517
741.25178
741.25178
741.25171
741.25158
741.25137
741.25108
741.25115
741.25154
741.25177
741.25192
741.25199
741.25199
741.25192
741.25177
741.25155
741.25125
741.25131
741.2517
741.25192
741.25206
741.25213
741.25212
741.25204
741.25189
741.25166
741.25135
741.2514
741.25178
741.25199
741.25213
741.25219
741.25218
741.25209
741.25193
741.2517
741.25139
741.25141
741.25178
741.25199
741.25212
741.25218
741.25216
741.25207
741.25191
741.25167
741.25135
741.25134
741.25171
741.25192
741.25204
741.25209
741.25207
741.25198
741.2518
741.25156
741.25124
741.25121
741.25158
741.25177
741.25189
741.25193
741.25191
741.2518
741.25163
741.25138
741.25106
741.25103
741.25137
741.25155
741.25166
741.2517
741.25167
741.25156
741.25138
741.25112
741.2508
741.25081
741.25108
741.25125
741.25135
741.25139
741.25135
741.25124
741.25106
741.2508
741.25045
737.65043
737.65096
737.65124
737.65142
737.6515
737.6515
737.65141
737.65123
737.65099
737.65071
737.65096
737.65143
737.65169
737.65186
737.65194
737.65193
737.65184
737.65165
737.65139
737.65103
737.65124
737.65169
737.65195
737.65211
737.65219
737.65217
737.65207
737.65187
737.65159
737.65121
737.65142
737.65186
737.65211
737.65227
737.65234
737.65231
737.6522
737.652
737.65171
737.65132
737.6515
737.65194
737.65219
737.65234
737.6524
737.65237
737.65225
737.65204
737.65174
737.65134
737.6515
737.65193
737.65217
737.65231
737.65237
737.65233
737.6522
737.65199
737.65168
737.65129
737.65141
737.65184
737.65207
737.6522
737.65225
737.6522
737.65207
737.65185
737.65154
737.65114
737.65123
737.65165
737.65187
737.652
737.65204
737.65199
737.65185
737.65162
737.6513
737.6509
737.65099
737.65139
737.65159
737.65171
737.65174
737.65168
737.65154
737.6513
737.65098
737.65056
737.65071
737.65103
737.65121
737.65132
737.65134
737.65129
737.65114
737.6509
737.65056
737.65012
734.09974
734.10035
734.10066
734.10085
734.10094
734.10092
734.1008
734.10058
734.10029
734.09995
734.10035
734.10087
734.10117
734.10136
734.10144
734.10141
734.10128
734.10106
734.10073
734.1003
734.10066
734.10117
734.10146
734.10163
734.1017
734.10167
734.10154
734.1013
734.10096
734.1005
734.10085
734.10136
734.10163
734.1018
734.10187
734.10182
734.10168
734.10143
734.10108
734.10061
734.10094
734.10144
734.1017
734.10187
734.10192
734.10187
734.10172
734.10146
734.1011
734.10063
734.10092
734.10141
734.10167
734.10182
734.10187
734.10182
734.10165
734.10139
734.10102
734.10055
734.1008
734.10128
734.10154
734.10168
734.10172
734.10165
734.10149
734.10121
734.10084
734.10036
734.10058
734.10106
734.1013
734.10143
734.10146
734.10139
734.10121
734.10093
734.10055
734.10007
734.10029
734.10073
734.10096
734.10108
734.1011
734.10102
734.10084
734.10055
734.10016
734.09966
734.09995
734.1003
734.1005
734.10061
734.10063
734.10055
734.10036
734.10007
734.09966
734.09913
730.59633
730.59701
730.59735
730.59756
730.59764
730.5976
730.59745
730.5972
730.59686
730.59646
730.59701
730.59759
730.59792
730.59812
730.59819
730.59815
730.598
730.59773
730.59735
730.59685
730.59735
730.59792
730.59823
730.59842
730.59849
730.59844
730.59827
730.59799
730.59759
730.59706
730.59756
730.59812
730.59842
730.5986
730.59866
730.5986
730.59842
730.59813
730.59771
730.59718
730.59764
730.59819
730.59849
730.59866
730.59871
730.59864
730.59845
730.59815
730.59773
730.59718
730.5976
730.59815
730.59844
730.5986
730.59864
730.59856
730.59837
730.59806
730.59762
730.59708
730.59745
730.598
730.59827
730.59842
730.59845
730.59837
730.59816
730.59784
730.59741
730.59685
730.5972
730.59773
730.59799
730.59813
730.59815
730.59806
730.59784
730.59751
730.59707
730.59651
730.59686
730.59735
730.59759
730.59771
730.59773
730.59762
730.59741
730.59707
730.59661
730.59604
730.59646
730.59685
730.59706
730.59718
730.59718
730.59708
730.59685
730.59651
730.59604
730.59542
727.13825
727.13899
727.13936
727.13958
727.13966
727.13961
727.13943
727.13914
727.13875
727.1383
727.13899
727.13963
727.13998
727.14019
727.14026
727.1402
727.14002
727.13971
727.13928
727.13872
727.13936
727.13998
727.14031
727.14051
727.14058
727.14051
727.14031
727.13999
727.13954
727.13894
727.13958
727.14019
727.14051
727.1407
727.14075
727.14068
727.14047
727.14013
727.13966
727.13906
727.13966
727.14026
727.14058
727.14075
727.1408
727.14071
727.1405
727.14015
727.13967
727.13905
727.13961
727.1402
727.14051
727.14068
727.14071
727.14062
727.14039
727.14003
727.13954
727.13892
727.13943
727.14002
727.14031
727.14047
727.1405
727.14039
727.14015
727.13978
727.13929
727.13866
727.13914
727.13971
727.13999
727.14013
727.14015
727.14003
727.13978
727.13941
727.1389
727.13827
727.13875
727.13928
727.13954
727.13966
727.13967
727.13954
727.13929
727.1389
727.13838
727.13774
727.1383
727.13872
727.13894
727.13906
727.13905
727.13892
727.13866
727.13827
727.13774
727.13704
723.72365
723.72444
723.72483
723.72506
723.72514
723.72507
723.72487
723.72454
723.7241
723.7236
723.72444
723.72513
723.7255
723.72572
723.72579
723.72571
723.7255
723.72516
723.72468
723.72405
723.72483
723.7255
723.72585
723.72606
723.72612
723.72604
723.72581
723.72545
723.72494
723.72429
723.72506
723.72572
723.72606
723.72625
723.7263
723.72621
723.72597
723.7256
723.72507
723.7244
723.72514
723.72579
723.72612
723.7263
723.72634
723.72624
723.72599
723.7256
723.72507
723.72439
723.72507
723.72571
723.72604
723.72621
723.72624
723.72612
723.72586
723.72546
723.72492
723.72424
723.72487
723.7255
723.72581
723.72597
723.72599
723.72586
723.72559
723.72518
723.72463
723.72394
723.72454
723.72516
723.72545
723.7256
723.7256
723.72546
723.72518
723.72476
723.7242
723.7235
723.7241
723.72468
723.72494
723.72507
723.72507
723.72492
723.72463
723.7242
723.72362
723.7229
723.7236
723.72405
723.72429
723.7244
723.72439
723.72424
723.72394
723.7235
723.7229
723.72214
720.35077
720.35161
720.35202
720.35226
720.35233
720.35225
720.35202
720.35166
720.35118
720.35063
720.35161
720.35234
720.35273
720.35296
720.35302
720.35293
720.35269
720.35231
720.35179
720.3511
720.35202
720.35273
720.3531
720.35332
720.35337
720.35327
720.35302
720.35262
720.35206
720.35135
720.35226
720.35296
720.35332
720.35352
720.35356
720.35345
720.35318
720.35276
720.35219
720.35146
720.35233
720.35302
720.35337
720.35356