/*--------------------------------*- C++ -*----------------------------------*\
| =========                 |                                                 |
| \\      /  F ield         | OpenFOAM: The Open Source CFD Toolbox           |
|  \\    /   O peration     | Version:  v2106                                 |
|   \\  /    A nd           | Website:  www.openfoam.com                      |
|    \\/     M anipulation  |                                                 |
\*---------------------------------------------------------------------------*/
FoamFile
{
    version     2.0;
    format      ascii;
    arch        "LSB;label=32;scalar=64";
    class       volScalarField;
    location    "75";
    object      T;
}
// * * * * * * * * * * * * * * * * * * * * * * * * * * * * * * * * * * * * * //

dimensions      [0 0 0 1 0 0 0];

internalField   nonuniform List<scalar> 
4000
(
275.15196
275.15196
275.15196
275.15195
275.15195
275.15195
275.15195
275.15195
275.15196
275.15196
275.15196
275.15195
275.15195
275.15195
275.15195
275.15195
275.15195
275.15195
275.15195
275.15195
275.15196
275.15195
275.15195
275.15195
275.15195
275.15195
275.15195
275.15195
275.15195
275.15195
275.15195
275.15195
275.15195
275.15195
275.15195
275.15195
275.15195
275.15195
275.15195
275.15195
275.15195
275.15195
275.15195
275.15195
275.15194
275.15194
275.15195
275.15195
275.15195
275.15195
275.15195
275.15195
275.15195
275.15195
275.15194
275.15195
275.15195
275.15195
275.15195
275.15195
275.15195
275.15195
275.15195
275.15195
275.15195
275.15195
275.15195
275.15195
275.15195
275.15195
275.15195
275.15195
275.15195
275.15195
275.15195
275.15195
275.15195
275.15195
275.15195
275.15195
275.15196
275.15195
275.15195
275.15195
275.15195
275.15195
275.15195
275.15195
275.15195
275.15196
275.15196
275.15195
275.15195
275.15195
275.15195
275.15195
275.15195
275.15195
275.15196
275.15196
283.56233
283.56231
283.56229
283.56229
283.56228
283.56228
283.56229
283.56229
283.5623
283.56231
283.56231
283.56229
283.56227
283.56227
283.56227
283.56227
283.56227
283.56227
283.56228
283.56229
283.56229
283.56227
283.56226
283.56226
283.56226
283.56226
283.56226
283.56227
283.56227
283.56228
283.56229
283.56227
283.56226
283.56225
283.56225
283.56225
283.56225
283.56226
283.56227
283.56228
283.56228
283.56227
283.56226
283.56225
283.56225
283.56225
283.56225
283.56226
283.56227
283.56228
283.56228
283.56227
283.56226
283.56225
283.56225
283.56225
283.56225
283.56226
283.56227
283.56228
283.56229
283.56227
283.56226
283.56225
283.56225
283.56225
283.56226
283.56226
283.56227
283.56228
283.56229
283.56227
283.56227
283.56226
283.56226
283.56226
283.56226
283.56227
283.56228
283.56229
283.5623
283.56228
283.56227
283.56227
283.56227
283.56227
283.56227
283.56228
283.56229
283.5623
283.56231
283.56229
283.56228
283.56228
283.56228
283.56228
283.56228
283.56229
283.5623
283.56231
291.91812
291.91808
291.91807
291.91805
291.91805
291.91805
291.91805
291.91806
291.91808
291.91809
291.91808
291.91805
291.91803
291.91802
291.91802
291.91802
291.91802
291.91803
291.91805
291.91807
291.91807
291.91803
291.91802
291.91801
291.918
291.918
291.91801
291.91802
291.91804
291.91806
291.91805
291.91802
291.91801
291.91799
291.91799
291.91799
291.918
291.91801
291.91803
291.91805
291.91805
291.91802
291.918
291.91799
291.91799
291.91799
291.918
291.91801
291.91803
291.91805
291.91805
291.91802
291.918
291.91799
291.91799
291.91799
291.918
291.91801
291.91803
291.91805
291.91805
291.91802
291.91801
291.918
291.918
291.918
291.91801
291.91802
291.91804
291.91806
291.91806
291.91803
291.91802
291.91801
291.91801
291.91801
291.91802
291.91803
291.91805
291.91807
291.91808
291.91805
291.91804
291.91803
291.91803
291.91803
291.91804
291.91805
291.91807
291.91809
291.91809
291.91807
291.91806
291.91805
291.91805
291.91805
291.91806
291.91807
291.91809
291.91812
300.22055
300.2205
300.22047
300.22045
300.22045
300.22045
300.22046
300.22047
300.22049
300.22051
300.2205
300.22045
300.22043
300.22041
300.2204
300.22041
300.22041
300.22043
300.22045
300.22048
300.22047
300.22043
300.2204
300.22039
300.22038
300.22038
300.22039
300.22041
300.22043
300.22047
300.22045
300.22041
300.22039
300.22037
300.22037
300.22037
300.22038
300.2204
300.22042
300.22046
300.22045
300.2204
300.22038
300.22037
300.22036
300.22037
300.22038
300.2204
300.22042
300.22045
300.22045
300.22041
300.22038
300.22037
300.22037
300.22037
300.22038
300.2204
300.22043
300.22046
300.22046
300.22041
300.22039
300.22038
300.22038
300.22038
300.22039
300.22041
300.22044
300.22047
300.22047
300.22043
300.22041
300.2204
300.2204
300.2204
300.22041
300.22043
300.22046
300.22049
300.22049
300.22045
300.22043
300.22042
300.22042
300.22043
300.22044
300.22046
300.22049
300.22052
300.22051
300.22048
300.22047
300.22046
300.22045
300.22046
300.22047
300.22049
300.22052
300.22056
308.47076
308.4707
308.47067
308.47065
308.47064
308.47064
308.47065
308.47067
308.4707
308.47073
308.4707
308.47064
308.47061
308.47059
308.47059
308.47059
308.4706
308.47062
308.47065
308.47069
308.47067
308.47061
308.47058
308.47057
308.47056
308.47056
308.47057
308.4706
308.47063
308.47067
308.47065
308.47059
308.47057
308.47055
308.47054
308.47055
308.47056
308.47058
308.47062
308.47066
308.47064
308.47059
308.47056
308.47054
308.47054
308.47054
308.47055
308.47058
308.47061
308.47066
308.47064
308.47059
308.47056
308.47055
308.47054
308.47055
308.47056
308.47059
308.47062
308.47067
308.47065
308.4706
308.47057
308.47056
308.47055
308.47056
308.47058
308.4706
308.47064
308.47068
308.47067
308.47062
308.4706
308.47058
308.47058
308.47059
308.4706
308.47063
308.47067
308.47071
308.4707
308.47065
308.47063
308.47062
308.47061
308.47062
308.47064
308.47067
308.4707
308.47075
308.47073
308.47069
308.47067
308.47066
308.47066
308.47067
308.47068
308.47071
308.47075
308.4708
316.66988
316.66981
316.66977
316.66975
316.66974
316.66974
316.66976
316.66978
316.66982
316.66986
316.66981
316.66975
316.66971
316.66969
316.66968
316.66968
316.6697
316.66973
316.66976
316.66981
316.66977
316.66971
316.66968
316.66966
316.66965
316.66965
316.66967
316.6697
316.66974
316.66979
316.66975
316.66969
316.66966
316.66964
316.66963
316.66963
316.66965
316.66968
316.66972
316.66978
316.66974
316.66968
316.66965
316.66963
316.66962
316.66963
316.66965
316.66968
316.66972
316.66977
316.66974
316.66968
316.66965
316.66963
316.66963
316.66963
316.66965
316.66969
316.66973
316.66978
316.66976
316.6697
316.66967
316.66965
316.66965
316.66965
316.66967
316.66971
316.66975
316.66981
316.66978
316.66973
316.6697
316.66968
316.66968
316.66969
316.66971
316.66974
316.66979
316.66984
316.66982
316.66976
316.66974
316.66972
316.66972
316.66973
316.66975
316.66979
316.66983
316.66989
316.66986
316.66981
316.66979
316.66978
316.66977
316.66978
316.66981
316.66984
316.66989
316.66995
324.819
324.81892
324.81887
324.81885
324.81884
324.81884
324.81886
324.81889
324.81893
324.81898
324.81892
324.81884
324.8188
324.81878
324.81877
324.81877
324.81879
324.81882
324.81887
324.81893
324.81887
324.8188
324.81876
324.81874
324.81873
324.81874
324.81876
324.81879
324.81884
324.8189
324.81885
324.81878
324.81874
324.81872
324.81871
324.81871
324.81874
324.81877
324.81882
324.81889
324.81884
324.81877
324.81873
324.81871
324.8187
324.81871
324.81873
324.81877
324.81882
324.81889
324.81884
324.81877
324.81874
324.81871
324.81871
324.81872
324.81874
324.81878
324.81883
324.8189
324.81886
324.81879
324.81876
324.81874
324.81873
324.81874
324.81877
324.81881
324.81886
324.81893
324.81889
324.81882
324.81879
324.81877
324.81877
324.81878
324.81881
324.81885
324.8189
324.81897
324.81893
324.81887
324.81884
324.81882
324.81882
324.81883
324.81886
324.8189
324.81895
324.81902
324.81898
324.81893
324.8189
324.81889
324.81889
324.8189
324.81893
324.81897
324.81902
324.8191
332.91915
332.91905
332.919
332.91898
332.91897
332.91897
332.91899
332.91903
332.91908
332.91913
332.91905
332.91897
332.91893
332.9189
332.91889
332.91889
332.91892
332.91895
332.91901
332.91908
332.919
332.91893
332.91888
332.91886
332.91885
332.91885
332.91888
332.91892
332.91897
332.91905
332.91898
332.9189
332.91886
332.91883
332.91882
332.91883
332.91886
332.9189
332.91896
332.91903
332.91897
332.91889
332.91885
332.91882
332.91882
332.91883
332.91885
332.9189
332.91896
332.91903
332.91897
332.91889
332.91885
332.91883
332.91883
332.91884
332.91887
332.91891
332.91897
332.91905
332.91899
332.91892
332.91888
332.91886
332.91885
332.91887
332.91889
332.91894
332.919
332.91908
332.91903
332.91895
332.91892
332.9189
332.9189
332.91891
332.91894
332.91899
332.91905
332.91913
332.91908
332.91901
332.91897
332.91896
332.91896
332.91897
332.919
332.91905
332.91911
332.91919
332.91913
332.91908
332.91905
332.91903
332.91903
332.91905
332.91908
332.91913
332.91919
332.91928
340.97133
340.97123
340.97118
340.97115
340.97113
340.97114
340.97117
340.97121
340.97126
340.97132
340.97123
340.97114
340.97109
340.97106
340.97105
340.97106
340.97108
340.97113
340.97119
340.97126
340.97118
340.97109
340.97104
340.97102
340.97101
340.97101
340.97104
340.97109
340.97115
340.97123
340.97115
340.97106
340.97102
340.97099
340.97098
340.97099
340.97102
340.97107
340.97113
340.97122
340.97113
340.97105
340.97101
340.97098
340.97097
340.97099
340.97102
340.97106
340.97113
340.97122
340.97114
340.97106
340.97101
340.97099
340.97099
340.971
340.97103
340.97108
340.97115
340.97123
340.97117
340.97108
340.97104
340.97102
340.97102
340.97103
340.97106
340.97111
340.97118
340.97127
340.97121
340.97113
340.97109
340.97107
340.97106
340.97108
340.97111
340.97117
340.97124
340.97133
340.97126
340.97119
340.97115
340.97113
340.97113
340.97115
340.97118
340.97124
340.97131
340.9714
340.97132
340.97126
340.97123
340.97122
340.97122
340.97123
340.97127
340.97133
340.9714
340.9715
348.97652
348.97641
348.97636
348.97632
348.97631
348.97632
348.97635
348.97639
348.97645
348.97652
348.97641
348.97632
348.97626
348.97623
348.97622
348.97623
348.97626
348.97631
348.97637
348.97646
348.97636
348.97626
348.97621
348.97618
348.97617
348.97618
348.97621
348.97626
348.97633
348.97643
348.97632
348.97623
348.97618
348.97615
348.97615
348.97616
348.97619
348.97624
348.97632
348.97641
348.97631
348.97622
348.97617
348.97615
348.97614
348.97615
348.97619
348.97624
348.97632
348.97641
348.97632
348.97623
348.97618
348.97616
348.97615
348.97617
348.9762
348.97626
348.97634
348.97643
348.97635
348.97626
348.97621
348.97619
348.97619
348.9762
348.97624
348.9763
348.97638
348.97647
348.97639
348.97631
348.97626
348.97624
348.97624
348.97626
348.9763
348.97636
348.97643
348.97653
348.97645
348.97637
348.97633
348.97632
348.97632
348.97634
348.97638
348.97643
348.97652
348.97662
348.97652
348.97646
348.97643
348.97641
348.97641
348.97643
348.97647
348.97653
348.97662
348.97672
356.93565
356.93554
356.93548
356.93544
356.93543
356.93544
356.93547
356.93552
356.93559
356.93566
356.93554
356.93543
356.93538
356.93534
356.93533
356.93534
356.93538
356.93543
356.9355
356.9356
356.93548
356.93538
356.93532
356.93529
356.93528
356.9353
356.93533
356.93538
356.93546
356.93556
356.93544
356.93534
356.93529
356.93526
356.93526
356.93527
356.93531
356.93536
356.93544
356.93554
356.93543
356.93533
356.93528
356.93526
356.93525
356.93527
356.9353
356.93536
356.93544
356.93555
356.93544
356.93534
356.9353
356.93527
356.93527
356.93528
356.93532
356.93538
356.93546
356.93557
356.93547
356.93538
356.93533
356.93531
356.9353
356.93532
356.93536
356.93542
356.93551
356.93561
356.93552
356.93543
356.93538
356.93536
356.93536
356.93538
356.93542
356.93549
356.93557
356.93568
356.93559
356.9355
356.93546
356.93544
356.93544
356.93546
356.93551
356.93557
356.93566
356.93577
356.93566
356.9356
356.93556
356.93554
356.93555
356.93557
356.93561
356.93568
356.93577
356.93589
364.84962
364.8495
364.84944
364.8494
364.84939
364.8494
364.84943
364.84949
364.84956
364.84964
364.8495
364.84939
364.84933
364.8493
364.84929
364.8493
364.84933
364.84939
364.84947
364.84957
364.84944
364.84933
364.84928
364.84924
364.84924
364.84925
364.84929
364.84935
364.84943
364.84953
364.8494
364.8493
364.84924
364.84921
364.84921
364.84922
364.84926
364.84932
364.84941
364.84952
364.84939
364.84929
364.84924
364.84921
364.8492
364.84922
364.84926
364.84932
364.84941
364.84952
364.8494
364.8493
364.84925
364.84922
364.84922
364.84924
364.84928
364.84935
364.84943
364.84955
364.84943
364.84933
364.84929
364.84926
364.84926
364.84928
364.84932
364.84939
364.84948
364.84959
364.84949
364.84939
364.84935
364.84932
364.84932
364.84935
364.84939
364.84946
364.84955
364.84967
364.84956
364.84947
364.84943
364.84941
364.84941
364.84943
364.84948
364.84955
364.84965
364.84976
364.84964
364.84957
364.84953
364.84952
364.84952
364.84955
364.84959
364.84967
364.84976
364.84989
372.7193
372.71917
372.7191
372.71907
372.71905
372.71907
372.7191
372.71916
372.71924
372.71932
372.71917
372.71905
372.71899
372.71896
372.71895
372.71896
372.719
372.71906
372.71914
372.71925
372.7191
372.71899
372.71893
372.7189
372.71889
372.71891
372.71895
372.71901
372.7191
372.71921
372.71907
372.71896
372.7189
372.71887
372.71886
372.71888
372.71892
372.71899
372.71908
372.71919
372.71905
372.71895
372.71889
372.71886
372.71886
372.71888
372.71892
372.71899
372.71908
372.7192
372.71907
372.71896
372.71891
372.71888
372.71888
372.7189
372.71894
372.71901
372.71911
372.71923
372.7191
372.719
372.71895
372.71892
372.71892
372.71894
372.71899
372.71906
372.71916
372.71928
372.71916
372.71906
372.71901
372.71899
372.71899
372.71901
372.71906
372.71914
372.71923
372.71935
372.71924
372.71914
372.7191
372.71908
372.71908
372.71911
372.71916
372.71923
372.71933
372.71946
372.71932
372.71925
372.71921
372.71919
372.7192
372.71923
372.71928
372.71935
372.71946
372.71959
380.5455
380.54537
380.5453
380.54527
380.54525
380.54527
380.54531
380.54537
380.54545
380.54554
380.54537
380.54525
380.54519
380.54515
380.54514
380.54516
380.5452
380.54526
380.54535
380.54546
380.5453
380.54519
380.54513
380.5451
380.54509
380.5451
380.54515
380.54521
380.54531
380.54543
380.54527
380.54515
380.5451
380.54506
380.54506
380.54508
380.54512
380.54519
380.54529
380.54541
380.54525
380.54514
380.54509
380.54506
380.54505
380.54507
380.54512
380.54519
380.54529
380.54541
380.54527
380.54516
380.5451
380.54508
380.54507
380.5451
380.54515
380.54522
380.54532
380.54544
380.54531
380.5452
380.54515
380.54512
380.54512
380.54515
380.5452
380.54527
380.54537
380.5455
380.54537
380.54526
380.54521
380.54519
380.54519
380.54522
380.54527
380.54535
380.54545
380.54558
380.54545
380.54535
380.54531
380.54529
380.54529
380.54532
380.54537
380.54545
380.54556
380.54569
380.54554
380.54546
380.54543
380.54541
380.54541
380.54544
380.5455
380.54558
380.54569
380.54583
388.32905
388.32891
388.32884
388.3288
388.32879
388.32881
388.32885
388.32891
388.32899
388.32909
388.32891
388.32879
388.32872
388.32869
388.32868
388.32869
388.32874
388.3288
388.32889
388.32901
388.32884
388.32872
388.32866
388.32863
388.32862
388.32864
388.32868
388.32875
388.32885
388.32897
388.3288
388.32869
388.32863
388.3286
388.32859
388.32861
388.32866
388.32873
388.32883
388.32896
388.32879
388.32868
388.32862
388.32859
388.32859
388.32861
388.32866
388.32873
388.32883
388.32896
388.32881
388.32869
388.32864
388.32861
388.32861
388.32863
388.32868
388.32876
388.32886
388.32899
388.32885
388.32874
388.32868
388.32866
388.32866
388.32868
388.32874
388.32882
388.32892
388.32905
388.32891
388.3288
388.32875
388.32873
388.32873
388.32876
388.32882
388.3289
388.329
388.32914
388.32899
388.32889
388.32885
388.32883
388.32883
388.32886
388.32892
388.329
388.32911
388.32925
388.32909
388.32901
388.32897
388.32896
388.32896
388.32899
388.32905
388.32914
388.32925
388.3294
396.07069
396.07055
396.07048
396.07044
396.07043
396.07045
396.07049
396.07056
396.07064
396.07074
396.07055
396.07042
396.07036
396.07032
396.07031
396.07033
396.07038
396.07045
396.07054
396.07066
396.07048
396.07036
396.0703
396.07026
396.07026
396.07028
396.07032
396.0704
396.0705
396.07062
396.07044
396.07032
396.07026
396.07023
396.07023
396.07025
396.0703
396.07037
396.07048
396.07061
396.07043
396.07031
396.07026
396.07023
396.07022
396.07025
396.0703
396.07038
396.07048
396.07061
396.07045
396.07033
396.07028
396.07025
396.07025
396.07027
396.07033
396.07041
396.07051
396.07065
396.07049
396.07038
396.07032
396.0703
396.0703
396.07033
396.07038
396.07046
396.07057
396.07071
396.07056
396.07045
396.0704
396.07037
396.07038
396.07041
396.07046
396.07055
396.07066
396.07079
396.07064
396.07054
396.0705
396.07048
396.07048
396.07051
396.07057
396.07066
396.07077
396.07091
396.07074
396.07066
396.07062
396.07061
396.07061
396.07065
396.07071
396.07079
396.07091
396.07106
403.77117
403.77103
403.77096
403.77092
403.77091
403.77093
403.77097
403.77104
403.77113
403.77123
403.77103
403.7709
403.77084
403.7708
403.77079
403.77081
403.77086
403.77093
403.77103
403.77116
403.77096
403.77084
403.77078
403.77074
403.77074
403.77076
403.7708
403.77088
403.77098
403.77112
403.77092
403.7708
403.77074
403.77071
403.77071
403.77073
403.77078
403.77086
403.77096
403.7711
403.77091
403.77079
403.77074
403.77071
403.7707
403.77073
403.77078
403.77086
403.77097
403.77111
403.77093
403.77081
403.77076
403.77073
403.77073
403.77076
403.77081
403.77089
403.771
403.77114
403.77097
403.77086
403.7708
403.77078
403.77078
403.77081
403.77087
403.77095
403.77106
403.7712
403.77104
403.77093
403.77088
403.77086
403.77086
403.77089
403.77095
403.77104
403.77115
403.77129
403.77113
403.77103
403.77098
403.77096
403.77097
403.771
403.77106
403.77115
403.77127
403.77141
403.77123
403.77116
403.77112
403.7711
403.77111
403.77114
403.7712
403.77129
403.77141
403.77157
411.4312
411.43106
411.43099
411.43095
411.43094
411.43096
411.43101
411.43108
411.43117
411.43127
411.43106
411.43093
411.43087
411.43083
411.43082
411.43084
411.43089
411.43096
411.43106
411.43119
411.43099
411.43087
411.43081
411.43077
411.43077
411.43079
411.43084
411.43091
411.43102
411.43115
411.43095
411.43083
411.43077
411.43074
411.43074
411.43076
411.43081
411.43089
411.431
411.43114
411.43094
411.43082
411.43077
411.43074
411.43073
411.43076
411.43081
411.4309
411.43101
411.43115
411.43096
411.43084
411.43079
411.43076
411.43076
411.43079
411.43084
411.43093
411.43104
411.43118
411.43101
411.43089
411.43084
411.43081
411.43081
411.43084
411.4309
411.43099
411.4311
411.43124
411.43108
411.43096
411.43091
411.43089
411.4309
411.43093
411.43099
411.43108
411.43119
411.43134
411.43117
411.43106
411.43102
411.431
411.43101
411.43104
411.4311
411.43119
411.43131
411.43146
411.43127
411.43119
411.43115
411.43114
411.43115
411.43118
411.43124
411.43134
411.43146
411.43162
419.05146
419.05132
419.05125
419.05121
419.0512
419.05122
419.05127
419.05134
419.05143
419.05154
419.05132
419.05119
419.05113
419.05109
419.05108
419.0511
419.05115
419.05123
419.05133
419.05146
419.05125
419.05113
419.05106
419.05103
419.05102
419.05105
419.0511
419.05118
419.05128
419.05142
419.05121
419.05109
419.05103
419.051
419.05099
419.05102
419.05107
419.05115
419.05126
419.0514
419.0512
419.05108
419.05102
419.05099
419.05099
419.05102
419.05108
419.05116
419.05127
419.05141
419.05122
419.0511
419.05105
419.05102
419.05102
419.05105
419.05111
419.05119
419.05131
419.05145
419.05127
419.05115
419.0511
419.05107
419.05108
419.05111
419.05117
419.05125
419.05137
419.05151
419.05134
419.05123
419.05118
419.05115
419.05116
419.05119
419.05125
419.05134
419.05146
419.05161
419.05143
419.05133
419.05128
419.05126
419.05127
419.05131
419.05137
419.05146
419.05158
419.05173
419.05154
419.05146
419.05142
419.0514
419.05141
419.05145
419.05151
419.05161
419.05173
419.05189
426.6326
426.63245
426.63238
426.63235
426.63234
426.63236
426.63241
426.63248
426.63257
426.63268
426.63245
426.63233
426.63226
426.63223
426.63222
426.63224
426.63229
426.63237
426.63247
426.6326
426.63238
426.63226
426.6322
426.63217
426.63216
426.63219
426.63224
426.63232
426.63242
426.63256
426.63235
426.63223
426.63217
426.63214
426.63213
426.63216
426.63221
426.6323
426.63241
426.63255
426.63234
426.63222
426.63216
426.63213
426.63213
426.63216
426.63222
426.6323
426.63241
426.63256
426.63236
426.63224
426.63219
426.63216
426.63216
426.63219
426.63225
426.63234
426.63245
426.63259
426.63241
426.63229
426.63224
426.63221
426.63222
426.63225
426.63231
426.6324
426.63251
426.63266
426.63248
426.63237
426.63232
426.6323
426.6323
426.63234
426.6324
426.63249
426.63261
426.63275
426.63257
426.63247
426.63242
426.63241
426.63241
426.63245
426.63251
426.63261
426.63273
426.63288
426.63268
426.6326
426.63256
426.63255
426.63256
426.63259
426.63266
426.63275
426.63288
426.63304
434.17523
434.17509
434.17502
434.17499
434.17498
434.175
434.17505
434.17512
434.17521
434.17532
434.17509
434.17497
434.1749
434.17487
434.17486
434.17488
434.17493
434.17501
434.17511
434.17524
434.17502
434.1749
434.17484
434.17481
434.17481
434.17483
434.17488
434.17496
434.17507
434.17521
434.17499
434.17487
434.17481
434.17478
434.17478
434.1748
434.17486
434.17494
434.17505
434.17519
434.17498
434.17486
434.17481
434.17478
434.17478
434.17481
434.17486
434.17495
434.17506
434.1752
434.175
434.17488
434.17483
434.1748
434.17481
434.17484
434.1749
434.17498
434.1751
434.17524
434.17505
434.17493
434.17488
434.17486
434.17486
434.1749
434.17496
434.17504
434.17516
434.17531
434.17512
434.17501
434.17496
434.17494
434.17495
434.17498
434.17504
434.17514
434.17525
434.1754
434.17521
434.17511
434.17507
434.17505
434.17506
434.1751
434.17516
434.17525
434.17538
434.17553
434.17532
434.17524
434.17521
434.17519
434.1752
434.17524
434.17531
434.1754
434.17553
434.17569
441.67997
441.67983
441.67976
441.67973
441.67972
441.67974
441.67979
441.67986
441.67995
441.68006
441.67983
441.67971
441.67964
441.67961
441.67961
441.67963
441.67968
441.67975
441.67986
441.67999
441.67976
441.67964
441.67959
441.67955
441.67955
441.67958
441.67963
441.67971
441.67981
441.67995
441.67973
441.67961
441.67955
441.67953
441.67952
441.67955
441.67961
441.67969
441.6798
441.67994
441.67972
441.67961
441.67955
441.67952
441.67953
441.67955
441.67961
441.67969
441.67981
441.67995
441.67974
441.67963
441.67958
441.67955
441.67955
441.67959
441.67964
441.67973
441.67984
441.67999
441.67979
441.67968
441.67963
441.67961
441.67961
441.67964
441.6797
441.67979
441.67991
441.68005
441.67986
441.67975
441.67971
441.67969
441.67969
441.67973
441.67979
441.67988
441.68
441.68014
441.67995
441.67986
441.67981
441.6798
441.67981
441.67984
441.67991
441.68
441.68012
441.68027
441.68006
441.67999
441.67995
441.67994
441.67995
441.67999
441.68005
441.68014
441.68027
441.68043
449.14738
449.14724
449.14718
449.14714
449.14714
449.14716
449.14721
449.14728
449.14737
449.14747
449.14724
449.14712
449.14706
449.14703
449.14703
449.14705
449.1471
449.14717
449.14727
449.1474
449.14718
449.14706
449.147
449.14697
449.14697
449.147
449.14705
449.14713
449.14723
449.14737
449.14714
449.14703
449.14697
449.14695
449.14695
449.14697
449.14703
449.14711
449.14722
449.14735
449.14714
449.14703
449.14697
449.14695
449.14695
449.14698
449.14703
449.14712
449.14723
449.14737
449.14716
449.14705
449.147
449.14697
449.14698
449.14701
449.14707
449.14715
449.14726
449.1474
449.14721
449.1471
449.14705
449.14703
449.14703
449.14707
449.14713
449.14721
449.14733
449.14747
449.14728
449.14717
449.14713
449.14711
449.14712
449.14715
449.14721
449.1473
449.14742
449.14756
449.14737
449.14727
449.14723
449.14722
449.14723
449.14726
449.14733
449.14742
449.14754
449.14769
449.14747
449.1474
449.14737
449.14735
449.14737
449.1474
449.14747
449.14756
449.14769
449.14784
456.57801
456.57787
456.57781
456.57778
456.57778
456.5778
456.57785
456.57792
456.57801
456.57811
456.57787
456.57776
456.5777
456.57767
456.57767
456.57769
456.57774
456.57781
456.57791
456.57804
456.57781
456.5777
456.57765
456.57762
456.57762
456.57764
456.57769
456.57777
456.57787
456.578
456.57778
456.57767
456.57762
456.57759
456.57759
456.57762
456.57767
456.57775
456.57786
456.57799
456.57778
456.57767
456.57762
456.57759
456.57759
456.57762
456.57768
456.57776
456.57787
456.57801
456.5778
456.57769
456.57764
456.57762
456.57762
456.57765
456.57771
456.5778
456.57791
456.57804
456.57785
456.57774
456.57769
456.57767
456.57768
456.57771
456.57777
456.57786
456.57797
456.57811
456.57792
456.57781
456.57777
456.57775
456.57776
456.5778
456.57786
456.57794
456.57806
456.5782
456.57801
456.57791
456.57787
456.57786
456.57787
456.57791
456.57797
456.57806
456.57818
456.57832
456.57811
456.57804
456.578
456.57799
456.57801
456.57804
456.57811
456.5782
456.57832
456.57847
463.97239
463.97226
463.9722
463.97217
463.97217
463.97219
463.97223
463.9723
463.97239
463.97249
463.97226
463.97215
463.97209
463.97206
463.97206
463.97208
463.97213
463.9722
463.9723
463.97242
463.9722
463.97209
463.97204
463.97201
463.97201
463.97204
463.97209
463.97216
463.97226
463.97239
463.97217
463.97206
463.97201
463.97199
463.97199
463.97202
463.97207
463.97215
463.97225
463.97238
463.97217
463.97206
463.97201
463.97199
463.97199
463.97202
463.97207
463.97215
463.97226
463.97239
463.97219
463.97208
463.97204
463.97202
463.97202
463.97205
463.97211
463.97219
463.9723
463.97243
463.97223
463.97213
463.97209
463.97207
463.97207
463.97211
463.97217
463.97225
463.97236
463.97249
463.9723
463.9722
463.97216
463.97215
463.97215
463.97219
463.97225
463.97234
463.97245
463.97258
463.97239
463.9723
463.97226
463.97225
463.97226
463.9723
463.97236
463.97245
463.97256
463.9727
463.97249
463.97242
463.97239
463.97238
463.97239
463.97243
463.97249
463.97258
463.9727
463.97285
471.33102
471.33089
471.33084
471.33081
471.33081
471.33083
471.33087
471.33094
471.33103
471.33112
471.33089
471.33079
471.33074
471.33071
471.33071
471.33073
471.33078
471.33085
471.33094
471.33106
471.33084
471.33074
471.33069
471.33066
471.33066
471.33068
471.33073
471.33081
471.3309
471.33103
471.33081
471.33071
471.33066
471.33064
471.33064
471.33067
471.33072
471.33079
471.33089
471.33102
471.33081
471.33071
471.33066
471.33064
471.33064
471.33067
471.33072
471.3308
471.3309
471.33103
471.33083
471.33073
471.33068
471.33067
471.33067
471.3307
471.33076
471.33084
471.33094
471.33107
471.33087
471.33078
471.33073
471.33072
471.33072
471.33076
471.33081
471.33089
471.331
471.33113
471.33094
471.33085
471.33081
471.33079
471.3308
471.33084
471.33089
471.33098
471.33109
471.33122
471.33103
471.33094
471.3309
471.33089
471.3309
471.33094
471.331
471.33109
471.3312
471.33133
471.33112
471.33106
471.33103
471.33102
471.33103
471.33107
471.33113
471.33122
471.33133
471.33148
478.65438
478.65427
478.65421
478.65419
478.65418
478.65421
478.65425
478.65431
478.6544
478.65449
478.65427
478.65417
478.65412
478.65409
478.65409
478.65411
478.65416
478.65422
478.65431
478.65443
478.65421
478.65412
478.65407
478.65405
478.65405
478.65407
478.65412
478.65419
478.65428
478.6544
478.65419
478.65409
478.65405
478.65402
478.65403
478.65405
478.6541
478.65417
478.65427
478.65439
478.65418
478.65409
478.65405
478.65403
478.65403
478.65406
478.65411
478.65418
478.65428
478.65441
478.65421
478.65411
478.65407
478.65405
478.65406
478.65409
478.65414
478.65422
478.65432
478.65444
478.65425
478.65416
478.65412
478.6541
478.65411
478.65414
478.6542
478.65427
478.65438
478.6545
478.65431
478.65422
478.65419
478.65417
478.65418
478.65422
478.65427
478.65435
478.65446
478.65458
478.6544
478.65431
478.65428
478.65427
478.65428
478.65432
478.65438
478.65446
478.65456
478.65469
478.65449
478.65443
478.6544
478.65439
478.65441
478.65444
478.6545
478.65458
478.65469
478.65483
485.94294
485.94283
485.94278
485.94276
485.94276
485.94278
485.94282
485.94288
485.94296
485.94305
485.94283
485.94274
485.94269
485.94267
485.94267
485.94269
485.94274
485.9428
485.94289
485.943
485.94278
485.94269
485.94265
485.94263
485.94263
485.94265
485.9427
485.94277
485.94286
485.94297
485.94276
485.94267
485.94263
485.94261
485.94261
485.94264
485.94268
485.94275
485.94285
485.94296
485.94276
485.94267
485.94263
485.94261
485.94262
485.94264
485.94269
485.94276
485.94286
485.94298
485.94278
485.94269
485.94265
485.94264
485.94264
485.94267
485.94272
485.9428
485.94289
485.94301
485.94282
485.94274
485.9427
485.94268
485.94269
485.94272
485.94278
485.94285
485.94295
485.94307
485.94288
485.9428
485.94277
485.94275
485.94276
485.9428
485.94285
485.94293
485.94303
485.94315
485.94296
485.94289
485.94286
485.94285
485.94286
485.94289
485.94295
485.94303
485.94313
485.94325
485.94305
485.943
485.94297
485.94296
485.94298
485.94301
485.94307
485.94315
485.94325
485.94339
493.19715
493.19704
493.197
493.19698
493.19698
493.197
493.19704
493.1971
493.19717
493.19726
493.19704
493.19696
493.19692
493.19689
493.19689
493.19692
493.19696
493.19702
493.1971
493.1972
493.197
493.19692
493.19687
493.19686
493.19686
493.19688
493.19692
493.19699
493.19707
493.19718
493.19698
493.19689
493.19686
493.19684
493.19684
493.19687
493.19691
493.19698
493.19706
493.19717
493.19698
493.19689
493.19686
493.19684
493.19685
493.19687
493.19692
493.19699
493.19708
493.19719
493.197
493.19692
493.19688
493.19687
493.19687
493.1969
493.19695
493.19702
493.19711
493.19722
493.19704
493.19696
493.19692
493.19691
493.19692
493.19695
493.197
493.19707
493.19716
493.19727
493.1971
493.19702
493.19699
493.19698
493.19699
493.19702
493.19707
493.19714
493.19724
493.19735
493.19717
493.1971
493.19707
493.19706
493.19708
493.19711
493.19716
493.19724
493.19733
493.19745
493.19726
493.1972
493.19718
493.19717
493.19719
493.19722
493.19727
493.19735
493.19745
493.19758
500.41742
500.41732
500.41728
500.41726
500.41726
500.41728
500.41732
500.41737
500.41745
500.41752
500.41732
500.41724
500.4172
500.41719
500.41719
500.41721
500.41725
500.4173
500.41738
500.41748
500.41728
500.4172
500.41717
500.41715
500.41715
500.41717
500.41722
500.41728
500.41736
500.41746
500.41726
500.41719
500.41715
500.41713
500.41714
500.41716
500.4172
500.41727
500.41735
500.41745
500.41726