/*--------------------------------*- C++ -*----------------------------------*\
| =========                 |                                                 |
| \\      /  F ield         | OpenFOAM: The Open Source CFD Toolbox           |
|  \\    /   O peration     | Version:  v2106                                 |
|   \\  /    A nd           | Website:  www.openfoam.com                      |
|    \\/     M anipulation  |                                                 |
\*---------------------------------------------------------------------------*/
FoamFile
{
    version     2.0;
    format      ascii;
    arch        "LSB;label=32;scalar=64";
    class       volScalarField;
    location    "45";
    object      DT;
}
// * * * * * * * * * * * * * * * * * * * * * * * * * * * * * * * * * * * * * //

dimensions      [0 2 -1 0 0 0 0];

internalField   nonuniform List<scalar> 
4000
(
0.00054894404
0.00054894396
0.00054894396
0.00054894395
0.00054894395
0.00054894395
0.00054894396
0.00054894396
0.00054894397
0.00054894399
0.00054894396
0.00054894391
0.0005489439
0.0005489439
0.0005489439
0.0005489439
0.00054894391
0.00054894391
0.00054894392
0.00054894394
0.00054894396
0.0005489439
0.0005489439
0.0005489439
0.0005489439
0.0005489439
0.0005489439
0.00054894391
0.00054894392
0.00054894393
0.00054894395
0.0005489439
0.0005489439
0.0005489439
0.0005489439
0.0005489439
0.0005489439
0.00054894391
0.00054894392
0.00054894393
0.00054894395
0.0005489439
0.0005489439
0.0005489439
0.00054894389
0.0005489439
0.0005489439
0.00054894391
0.00054894391
0.00054894393
0.00054894395
0.0005489439
0.0005489439
0.0005489439
0.0005489439
0.0005489439
0.0005489439
0.00054894391
0.00054894392
0.00054894393
0.00054894396
0.00054894391
0.0005489439
0.0005489439
0.0005489439
0.0005489439
0.0005489439
0.00054894391
0.00054894392
0.00054894393
0.00054894396
0.00054894391
0.00054894391
0.00054894391
0.00054894391
0.00054894391
0.00054894391
0.00054894392
0.00054894393
0.00054894394
0.00054894397
0.00054894392
0.00054894392
0.00054894392
0.00054894391
0.00054894392
0.00054894392
0.00054894393
0.00054894394
0.00054894395
0.00054894399
0.00054894394
0.00054894393
0.00054894393
0.00054894393
0.00054894393
0.00054894393
0.00054894394
0.00054894395
0.00054894397
0.00057513083
0.0005751302
0.00057513015
0.00057513011
0.0005751301
0.00057513012
0.00057513016
0.00057513023
0.00057513033
0.00057513046
0.0005751302
0.00057512977
0.00057512972
0.00057512969
0.00057512968
0.0005751297
0.00057512974
0.0005751298
0.00057512991
0.00057513011
0.00057513015
0.00057512972
0.00057512969
0.00057512966
0.00057512965
0.00057512967
0.0005751297
0.00057512976
0.00057512986
0.00057513003
0.00057513011
0.00057512969
0.00057512966
0.00057512963
0.00057512962
0.00057512964
0.00057512967
0.00057512973
0.00057512982
0.00057512999
0.0005751301
0.00057512968
0.00057512965
0.00057512962
0.00057512962
0.00057512963
0.00057512966
0.00057512972
0.00057512981
0.00057512998
0.00057513012
0.0005751297
0.00057512967
0.00057512964
0.00057512963
0.00057512964
0.00057512968
0.00057512973
0.00057512982
0.00057512999
0.00057513016
0.00057512974
0.0005751297
0.00057512967
0.00057512966
0.00057512968
0.00057512971
0.00057512976
0.00057512985
0.00057513002
0.00057513023
0.0005751298
0.00057512976
0.00057512973
0.00057512972
0.00057512973
0.00057512976
0.00057512982
0.00057512992
0.00057513009
0.00057513033
0.00057512991
0.00057512986
0.00057512982
0.00057512981
0.00057512982
0.00057512985
0.00057512992
0.00057513001
0.00057513019
0.00057513046
0.00057513011
0.00057513003
0.00057512999
0.00057512998
0.00057512999
0.00057513002
0.00057513009
0.00057513019
0.00057513039
0.00060014212
0.00060014118
0.00060014108
0.00060014101
0.000600141
0.00060014103
0.0006001411
0.00060014123
0.00060014143
0.00060014175
0.00060014118
0.00060014051
0.00060014043
0.00060014038
0.00060014037
0.0006001404
0.00060014047
0.00060014058
0.00060014078
0.0006001412
0.00060014108
0.00060014043
0.00060014037
0.00060014033
0.00060014032
0.00060014034
0.00060014041
0.00060014051
0.00060014068
0.00060014107
0.00060014101
0.00060014038
0.00060014033
0.00060014028
0.00060014028
0.0006001403
0.00060014036
0.00060014046
0.00060014062
0.000600141
0.000600141
0.00060014037
0.00060014032
0.00060014028
0.00060014027
0.00060014029
0.00060014035
0.00060014044
0.0006001406
0.00060014098
0.00060014103
0.0006001404
0.00060014034
0.0006001403
0.00060014029
0.00060014031
0.00060014037
0.00060014046
0.00060014062
0.000600141
0.0006001411
0.00060014047
0.00060014041
0.00060014036
0.00060014035
0.00060014037
0.00060014042
0.00060014052
0.00060014068
0.00060014106
0.00060014123
0.00060014058
0.00060014051
0.00060014046
0.00060014044
0.00060014046
0.00060014052
0.00060014062
0.00060014078
0.00060014117
0.00060014143
0.00060014078
0.00060014068
0.00060014062
0.0006001406
0.00060014062
0.00060014068
0.00060014078
0.00060014097
0.00060014137
0.00060014175
0.0006001412
0.00060014107
0.000600141
0.00060014098
0.000600141
0.00060014106
0.00060014117
0.00060014137
0.00060014184
0.00062409361
0.00062409243
0.00062409231
0.00062409224
0.00062409223
0.00062409227
0.00062409237
0.00062409254
0.00062409281
0.0006240933
0.00062409243
0.0006240916
0.00062409152
0.00062409146
0.00062409145
0.00062409148
0.00062409158
0.00062409173
0.00062409199
0.00062409261
0.00062409231
0.00062409152
0.00062409145
0.0006240914
0.00062409139
0.00062409142
0.00062409151
0.00062409164
0.00062409187
0.00062409245
0.00062409224
0.00062409146
0.0006240914
0.00062409135
0.00062409134
0.00062409138
0.00062409145
0.00062409158
0.00062409179
0.00062409236
0.00062409223
0.00062409145
0.00062409139
0.00062409134
0.00062409133
0.00062409137
0.00062409144
0.00062409156
0.00062409176
0.00062409233
0.00062409227
0.00062409148
0.00062409142
0.00062409138
0.00062409137
0.00062409139
0.00062409147
0.00062409158
0.00062409178
0.00062409235
0.00062409237
0.00062409158
0.00062409151
0.00062409145
0.00062409144
0.00062409147
0.00062409154
0.00062409166
0.00062409186
0.00062409243
0.00062409254
0.00062409173
0.00062409164
0.00062409158
0.00062409156
0.00062409158
0.00062409166
0.00062409178
0.000624092
0.00062409258
0.00062409281
0.00062409199
0.00062409187
0.00062409179
0.00062409176
0.00062409178
0.00062409186
0.000624092
0.00062409224
0.00062409285
0.0006240933
0.00062409261
0.00062409245
0.00062409236
0.00062409233
0.00062409235
0.00062409243
0.00062409258
0.00062409285
0.00062409359
0.00064708049
0.00064707913
0.00064707902
0.00064707895
0.00064707895
0.000647079
0.00064707911
0.00064707931
0.00064707963
0.00064708026
0.00064707913
0.00064707819
0.00064707811
0.00064707805
0.00064707805
0.0006470781
0.0006470782
0.00064707838
0.00064707867
0.00064707947
0.00064707902
0.00064707811
0.00064707805
0.00064707801
0.00064707801
0.00064707805
0.00064707814
0.0006470783
0.00064707855
0.00064707929
0.00064707895
0.00064707805
0.00064707801
0.00064707797
0.00064707796
0.00064707801
0.00064707809
0.00064707823
0.00064707846
0.00064707918
0.00064707895
0.00064707805
0.00064707801
0.00064707796
0.00064707796
0.000647078
0.00064707808
0.00064707821
0.00064707843
0.00064707915
0.000647079
0.0006470781
0.00064707805
0.00064707801
0.000647078
0.00064707803
0.00064707811
0.00064707824
0.00064707846
0.00064707917
0.00064707911
0.0006470782
0.00064707814
0.00064707809
0.00064707808
0.00064707811
0.00064707819
0.00064707832
0.00064707854
0.00064707926
0.00064707931
0.00064707838
0.0006470783
0.00064707823
0.00064707821
0.00064707824
0.00064707832
0.00064707846
0.0006470787
0.00064707944
0.00064707963
0.00064707867
0.00064707855
0.00064707846
0.00064707843
0.00064707846
0.00064707854
0.0006470787
0.00064707897
0.00064707976
0.00064708026
0.00064707947
0.00064707929
0.00064707918
0.00064707915
0.00064707917
0.00064707926
0.00064707944
0.00064707976
0.00064708074
0.00066918257
0.00066918106
0.00066918098
0.00066918092
0.00066918092
0.00066918098
0.00066918111
0.00066918132
0.00066918167
0.00066918241
0.00066918106
0.00066918004
0.00066917999
0.00066917994
0.00066917995
0.00066918
0.00066918011
0.00066918029
0.00066918061
0.00066918154
0.00066918098
0.00066917999
0.00066917996
0.00066917992
0.00066917993
0.00066917998
0.00066918008
0.00066918023
0.00066918049
0.00066918135
0.00066918092
0.00066917994
0.00066917992
0.0006691799
0.0006691799
0.00066917995
0.00066918004
0.00066918017
0.0006691804
0.00066918124
0.00066918092
0.00066917995
0.00066917993
0.0006691799
0.00066917991
0.00066917995
0.00066918003
0.00066918015
0.00066918037
0.00066918121
0.00066918098
0.00066918
0.00066917998
0.00066917995
0.00066917995
0.00066917998
0.00066918006
0.00066918018
0.0006691804
0.00066918123
0.00066918111
0.00066918011
0.00066918008
0.00066918004
0.00066918003
0.00066918006
0.00066918013
0.00066918026
0.00066918049
0.00066918132
0.00066918132
0.00066918029
0.00066918023
0.00066918017
0.00066918015
0.00066918018
0.00066918026
0.0006691804
0.00066918064
0.0006691815
0.00066918167
0.00066918061
0.00066918049
0.0006691804
0.00066918037
0.0006691804
0.00066918049
0.00066918064
0.00066918093
0.00066918185
0.00066918241
0.00066918154
0.00066918135
0.00066918124
0.00066918121
0.00066918123
0.00066918132
0.0006691815
0.00066918185
0.00066918303
0.00069046774
0.00069046613
0.00069046608
0.00069046605
0.00069046606
0.00069046613
0.00069046625
0.00069046646
0.00069046683
0.00069046765
0.00069046613
0.00069046505
0.00069046504
0.00069046501
0.00069046503
0.00069046509
0.0006904652
0.00069046538
0.00069046569
0.00069046672
0.00069046608
0.00069046504
0.00069046505
0.00069046504
0.00069046505
0.00069046511
0.0006904652
0.00069046534
0.00069046559
0.00069046653
0.00069046605
0.00069046501
0.00069046504
0.00069046503
0.00069046504
0.00069046509
0.00069046517
0.00069046529
0.00069046551
0.00069046643
0.00069046606
0.00069046503
0.00069046505
0.00069046504
0.00069046506
0.0006904651
0.00069046517
0.00069046528
0.00069046548
0.00069046639
0.00069046613
0.00069046509
0.00069046511
0.00069046509
0.0006904651
0.00069046513
0.0006904652
0.0006904653
0.0006904655
0.00069046641
0.00069046625
0.0006904652
0.0006904652
0.00069046517
0.00069046517
0.0006904652
0.00069046526
0.00069046537
0.00069046558
0.0006904665
0.00069046646
0.00069046538
0.00069046534
0.00069046529
0.00069046528
0.0006904653
0.00069046537
0.00069046549
0.00069046572
0.00069046667
0.00069046683
0.00069046569
0.00069046559
0.00069046551
0.00069046548
0.0006904655
0.00069046558
0.00069046572
0.000690466
0.00069046702
0.00069046765
0.00069046672
0.00069046653
0.00069046643
0.00069046639
0.00069046641
0.0006904665
0.00069046667
0.00069046702
0.00069046836
0.00071099461
0.00071099292
0.00071099293
0.00071099292
0.00071099294
0.00071099301
0.00071099313
0.00071099333
0.0007109937
0.00071099457
0.00071099292
0.00071099182
0.00071099185
0.00071099185
0.00071099188
0.00071099195
0.00071099205
0.00071099221
0.0007109925
0.0007109936
0.00071099293
0.00071099185
0.00071099191
0.00071099192
0.00071099195
0.000710992
0.00071099209
0.00071099221
0.00071099242
0.00071099342
0.00071099292
0.00071099185
0.00071099192
0.00071099194
0.00071099196
0.00071099201
0.00071099208
0.00071099217
0.00071099235
0.00071099333
0.00071099294
0.00071099188
0.00071099195
0.00071099196
0.00071099198
0.00071099202
0.00071099208
0.00071099216
0.00071099232
0.00071099329
0.00071099301
0.00071099195
0.000710992
0.00071099201
0.00071099202
0.00071099205
0.0007109921
0.00071099218
0.00071099234
0.0007109933
0.00071099313
0.00071099205
0.00071099209
0.00071099208
0.00071099208
0.0007109921
0.00071099215
0.00071099223
0.0007109924
0.00071099337
0.00071099333
0.00071099221
0.00071099221
0.00071099217
0.00071099216
0.00071099218
0.00071099223
0.00071099232
0.00071099252
0.00071099352
0.0007109937
0.0007109925
0.00071099242
0.00071099235
0.00071099232
0.00071099234
0.0007109924
0.00071099252
0.00071099277
0.00071099386
0.00071099457
0.0007109936
0.00071099342
0.00071099333
0.00071099329
0.0007109933
0.00071099337
0.00071099352
0.00071099386
0.00071099532
0.00073081436
0.00073081262
0.00073081268
0.0007308127
0.00073081274
0.00073081281
0.00073081292
0.0007308131
0.00073081345
0.00073081436
0.00073081262
0.00073081151
0.0007308116
0.00073081163
0.00073081167
0.00073081173
0.00073081182
0.00073081195
0.00073081221
0.00073081336
0.00073081268
0.0007308116
0.0007308117
0.00073081174
0.00073081178
0.00073081184
0.0007308119
0.00073081199
0.00073081216
0.0007308132
0.0007308127
0.00073081163
0.00073081174
0.00073081179
0.00073081182
0.00073081186
0.00073081191
0.00073081197
0.0007308121
0.00073081311
0.00073081274
0.00073081167
0.00073081178
0.00073081182
0.00073081185
0.00073081188
0.00073081192
0.00073081196
0.00073081208
0.00073081307
0.00073081281
0.00073081173
0.00073081184
0.00073081186
0.00073081188
0.00073081191
0.00073081193
0.00073081197
0.00073081208
0.00073081308
0.00073081292
0.00073081182
0.0007308119
0.00073081191
0.00073081192
0.00073081193
0.00073081196
0.000730812
0.00073081212
0.00073081312
0.0007308131
0.00073081195
0.00073081199
0.00073081197
0.00073081196
0.00073081197
0.000730812
0.00073081206
0.00073081221
0.00073081324
0.00073081345
0.00073081221
0.00073081216
0.0007308121
0.00073081208
0.00073081208
0.00073081212
0.00073081221
0.00073081241
0.00073081354
0.00073081436
0.00073081336
0.0007308132
0.00073081311
0.00073081307
0.00073081308
0.00073081312
0.00073081324
0.00073081354
0.0007308151
0.00074997219
0.00074997044
0.00074997055
0.0007499706
0.00074997066
0.00074997072
0.00074997082
0.00074997097
0.00074997129
0.00074997222
0.00074997044
0.00074996933
0.00074996947
0.00074996953
0.00074996959
0.00074996965
0.00074996972
0.00074996981
0.00074997004
0.0007499712
0.00074997055
0.00074996947
0.00074996964
0.0007499697
0.00074996976
0.0007499698
0.00074996985
0.0007499699
0.00074997001
0.00074997106
0.0007499706
0.00074996953
0.0007499697
0.00074996977
0.00074996982
0.00074996985
0.00074996988
0.00074996989
0.00074996997
0.00074997099
0.00074997066
0.00074996959
0.00074996976
0.00074996982
0.00074996986
0.00074996988
0.00074996989
0.00074996989
0.00074996994
0.00074997095
0.00074997072
0.00074996965
0.0007499698
0.00074996985
0.00074996988
0.00074996989
0.00074996989
0.00074996988
0.00074996994
0.00074997094
0.00074997082
0.00074996972
0.00074996985
0.00074996988
0.00074996989
0.00074996989
0.00074996989
0.00074996988
0.00074996995
0.00074997096
0.00074997097
0.00074996981
0.0007499699
0.00074996989
0.00074996989
0.00074996988
0.00074996988
0.0007499699
0.00074996999
0.00074997103
0.00074997129
0.00074997004
0.00074997001
0.00074996997
0.00074996994
0.00074996994
0.00074996995
0.00074996999
0.00074997014
0.00074997129
0.00074997222
0.0007499712
0.00074997106
0.00074997099
0.00074997095
0.00074997094
0.00074997096
0.00074997103
0.00074997129
0.00074997291
0.00076850848
0.00076850672
0.00076850689
0.00076850697
0.00076850704
0.0007685071
0.00076850717
0.00076850729
0.00076850757
0.00076850851
0.00076850672
0.00076850564
0.00076850584
0.00076850592
0.00076850599
0.00076850604
0.00076850609
0.00076850615
0.00076850632
0.00076850749
0.00076850689
0.00076850584
0.00076850605
0.00076850615
0.00076850621
0.00076850625
0.00076850627
0.00076850627
0.00076850633
0.00076850737
0.00076850697
0.00076850592
0.00076850615
0.00076850625
0.0007685063
0.00076850632
0.00076850632
0.00076850629
0.0007685063
0.00076850731
0.00076850704
0.00076850599
0.00076850621
0.0007685063
0.00076850635
0.00076850636
0.00076850633
0.00076850628
0.00076850627
0.00076850726
0.0007685071
0.00076850604
0.00076850625
0.00076850632
0.00076850636
0.00076850635
0.00076850632
0.00076850626
0.00076850625
0.00076850724
0.00076850717
0.00076850609
0.00076850627
0.00076850632
0.00076850633
0.00076850632
0.00076850629
0.00076850623
0.00076850623
0.00076850722
0.00076850729
0.00076850615
0.00076850627
0.00076850629
0.00076850628
0.00076850626
0.00076850623
0.00076850619
0.00076850622
0.00076850725
0.00076850757
0.00076850632
0.00076850633
0.0007685063
0.00076850627
0.00076850625
0.00076850623
0.00076850622
0.00076850631
0.00076850745
0.00076850851
0.00076850749
0.00076850737
0.00076850731
0.00076850726
0.00076850724
0.00076850722
0.00076850725
0.00076850745
0.00076850911
0.00078645957
0.00078645783
0.00078645806
0.00078645817
0.00078645825
0.0007864583
0.00078645835
0.00078645843
0.00078645867
0.00078645959
0.00078645783
0.00078645678
0.00078645703
0.00078645715
0.00078645723
0.00078645727
0.00078645729
0.0007864573
0.00078645742
0.00078645858
0.00078645806
0.00078645703
0.0007864573
0.00078645743
0.0007864575
0.00078645753
0.00078645752
0.00078645747
0.00078645746
0.00078645849
0.00078645817
0.00078645715
0.00078645743
0.00078645755
0.00078645761
0.00078645763
0.00078645759
0.00078645751
0.00078645745
0.00078645843
0.00078645825
0.00078645723
0.0007864575
0.00078645761
0.00078645766
0.00078645766
0.00078645761
0.0007864575
0.00078645742
0.00078645839
0.0007864583
0.00078645727
0.00078645753
0.00078645763
0.00078645766
0.00078645764
0.00078645758
0.00078645746
0.00078645738
0.00078645834
0.00078645835
0.00078645729
0.00078645752
0.00078645759
0.00078645761
0.00078645758
0.00078645751
0.0007864574
0.00078645732
0.00078645829
0.00078645843
0.0007864573
0.00078645747
0.00078645751
0.0007864575
0.00078645746
0.0007864574
0.0007864573
0.00078645726
0.00078645826
0.00078645867
0.00078645742
0.00078645746
0.00078645745
0.00078645742
0.00078645738
0.00078645732
0.00078645726
0.00078645728
0.00078645841
0.00078645959
0.00078645858
0.00078645849
0.00078645843
0.00078645839
0.00078645834
0.00078645829
0.00078645826
0.00078645841
0.00078646008
0.00080385853
0.00080385681
0.0008038571
0.00080385724
0.00080385732
0.00080385737
0.00080385739
0.00080385743
0.00080385762
0.00080385852
0.00080385681
0.00080385581
0.00080385611
0.00080385626
0.00080385634
0.00080385637
0.00080385637
0.00080385633
0.00080385639
0.00080385752
0.0008038571
0.00080385611
0.00080385643
0.00080385658
0.00080385666
0.00080385668
0.00080385664
0.00080385654
0.00080385646
0.00080385745
0.00080385724
0.00080385626
0.00080385658
0.00080385673
0.0008038568
0.0008038568
0.00080385673
0.0008038566
0.00080385646
0.00080385741
0.00080385732
0.00080385634
0.00080385666
0.0008038568
0.00080385686
0.00080385684
0.00080385675
0.00080385659
0.00080385643
0.00080385736
0.00080385737
0.00080385637
0.00080385668
0.0008038568
0.00080385684
0.00080385681
0.0008038567
0.00080385653
0.00080385637
0.00080385729
0.00080385739
0.00080385637
0.00080385664
0.00080385673
0.00080385675
0.0008038567
0.0008038566
0.00080385643
0.00080385627
0.00080385721
0.00080385743
0.00080385633
0.00080385654
0.0008038566
0.00080385659
0.00080385653
0.00080385643
0.00080385628
0.00080385615
0.00080385713
0.00080385762
0.00080385639
0.00080385646
0.00080385646
0.00080385643
0.00080385637
0.00080385627
0.00080385615
0.0008038561
0.0008038572
0.00080385852
0.00080385752
0.00080385745
0.00080385741
0.00080385736
0.00080385729
0.00080385721
0.00080385713
0.0008038572
0.00080385888
0.00082073562
0.00082073395
0.00082073429
0.00082073446
0.00082073455
0.00082073459
0.00082073458
0.00082073458
0.00082073471
0.00082073558
0.00082073395
0.000820733
0.00082073335
0.00082073352
0.00082073361
0.00082073364
0.0008207336
0.00082073352
0.0008207335
0.0008207346
0.00082073429
0.00082073335
0.00082073372
0.0008207339
0.00082073398
0.00082073398
0.00082073391
0.00082073376
0.00082073361
0.00082073456
0.00082073446
0.00082073352
0.0008207339
0.00082073407
0.00082073414
0.00082073413
0.00082073402
0.00082073383
0.00082073363
0.00082073453
0.00082073455
0.00082073361
0.00082073398
0.00082073414
0.0008207342
0.00082073417
0.00082073404
0.00082073382
0.00082073359
0.00082073447
0.00082073459
0.00082073364
0.00082073398
0.00082073413
0.00082073417
0.00082073412
0.00082073398
0.00082073375
0.00082073351
0.00082073438
0.00082073458
0.0008207336
0.00082073391
0.00082073402
0.00082073404
0.00082073398
0.00082073383
0.0008207336
0.00082073337
0.00082073426
0.00082073458
0.00082073352
0.00082073376
0.00082073383
0.00082073382
0.00082073375
0.0008207336
0.0008207334
0.0008207332
0.00082073412
0.00082073471
0.0008207335
0.00082073361
0.00082073363
0.00082073359
0.00082073351
0.00082073337
0.0008207332
0.00082073307
0.00082073412
0.00082073558
0.0008207346
0.00082073456
0.00082073453
0.00082073447
0.00082073438
0.00082073426
0.00082073412
0.00082073412
0.00082073578
0.00083711882
0.0008371172
0.00083711759
0.00083711778
0.00083711788
0.0008371179
0.00083711787
0.00083711782
0.0008371179
0.00083711874
0.0008371172
0.0008371163
0.0008371167
0.0008371169
0.000837117
0.000837117
0.00083711693
0.00083711681
0.00083711673
0.00083711778
0.00083711759
0.0008371167
0.00083711712
0.00083711732
0.0008371174
0.00083711739
0.00083711729
0.00083711709
0.00083711687
0.00083711776
0.00083711778
0.0008371169
0.00083711732
0.00083711751
0.00083711759
0.00083711755
0.00083711742
0.00083711717
0.00083711689
0.00083711774
0.00083711788
0.000837117
0.0008371174
0.00083711759
0.00083711764
0.00083711759
0.00083711743
0.00083711716
0.00083711685
0.00083711768
0.0008371179
0.000837117
0.00083711739
0.00083711755
0.00083711759
0.00083711752
0.00083711735
0.00083711706
0.00083711675
0.00083711757
0.00083711787
0.00083711693
0.00083711729
0.00083711742
0.00083711743
0.00083711735
0.00083711716
0.00083711688
0.00083711657
0.0008371174
0.00083711782
0.00083711681
0.00083711709
0.00083711717
0.00083711716
0.00083711706
0.00083711688
0.00083711661
0.00083711634
0.00083711721
0.0008371179
0.00083711673
0.00083711687
0.00083711689
0.00083711685
0.00083711675
0.00083711657
0.00083711634
0.00083711614
0.00083711714
0.00083711874
0.00083711778
0.00083711776
0.00083711774
0.00083711768
0.00083711757
0.0008371174
0.00083711721
0.00083711714
0.00083711876
0.00085303409
0.00085303253
0.00085303297
0.00085303318
0.00085303329
0.0008530333
0.00085303323
0.00085303314
0.00085303316
0.00085303395
0.00085303253
0.00085303169
0.00085303214
0.00085303236
0.00085303246
0.00085303245
0.00085303235
0.00085303217
0.00085303203
0.00085303303
0.00085303297
0.00085303214
0.00085303259
0.00085303281
0.0008530329
0.00085303288
0.00085303274
0.00085303249
0.0008530322
0.00085303304
0.00085303318
0.00085303236
0.00085303281
0.00085303303
0.0008530331
0.00085303305
0.00085303288
0.00085303258
0.00085303224
0.00085303302
0.00085303329
0.00085303246
0.0008530329
0.0008530331
0.00085303316
0.00085303309
0.00085303289
0.00085303257
0.00085303219
0.00085303296
0.0008530333
0.00085303245
0.00085303288
0.00085303305
0.00085303309
0.000853033
0.00085303279
0.00085303245
0.00085303206
0.00085303282
0.00085303323
0.00085303235
0.00085303274
0.00085303288
0.00085303289
0.00085303279
0.00085303257
0.00085303223
0.00085303185
0.00085303262
0.00085303314
0.00085303217
0.00085303249
0.00085303258
0.00085303257
0.00085303245
0.00085303223
0.00085303191
0.00085303156
0.00085303236
0.00085303316
0.00085303203
0.0008530322
0.00085303224
0.00085303219
0.00085303206
0.00085303185
0.00085303156
0.00085303128
0.00085303222
0.00085303395
0.00085303303
0.00085303304
0.00085303302
0.00085303296
0.00085303282
0.00085303262
0.00085303236
0.00085303222
0.00085303381
0.00086850573
0.00086850424
0.00086850472
0.00086850495
0.00086850506
0.00086850505
0.00086850496
0.00086850482
0.00086850478
0.00086850553
0.00086850424
0.00086850346
0.00086850394
0.00086850418
0.00086850428
0.00086850426
0.00086850413
0.00086850391
0.0008685037
0.00086850464
0.00086850472
0.00086850394
0.00086850443
0.00086850467
0.00086850476
0.00086850472
0.00086850455
0.00086850425
0.0008685039
0.00086850467
0.00086850495
0.00086850418
0.00086850467
0.0008685049
0.00086850497
0.00086850491
0.0008685047
0.00086850436
0.00086850394
0.00086850466
0.00086850506
0.00086850428
0.00086850476
0.00086850497
0.00086850503
0.00086850494
0.00086850471
0.00086850434
0.00086850389
0.00086850459
0.00086850505
0.00086850426
0.00086850472
0.00086850491
0.00086850494
0.00086850484
0.00086850459
0.0008685042
0.00086850374
0.00086850444
0.00086850496
0.00086850413
0.00086850455
0.0008685047
0.00086850471
0.00086850459
0.00086850433
0.00086850394
0.00086850349
0.00086850419
0.00086850482
0.00086850391
0.00086850425
0.00086850436
0.00086850434
0.0008685042
0.00086850394
0.00086850356
0.00086850314
0.00086850389
0.00086850478
0.0008685037
0.0008685039
0.00086850394
0.00086850389
0.00086850374
0.00086850349
0.00086850314
0.0008685028
0.00086850367
0.00086850553
0.00086850464
0.00086850467
0.00086850466
0.00086850459
0.00086850444
0.00086850419
0.00086850389
0.00086850367
0.00086850521
0.00088355657
0.00088355515
0.00088355566
0.00088355591
0.00088355602
0.000883556
0.00088355588
0.0008835557
0.00088355561
0.00088355631
0.00088355515
0.00088355444
0.00088355495
0.0008835552
0.0008835553
0.00088355527
0.00088355511
0.00088355484
0.00088355458
0.00088355546
0.00088355566
0.00088355495
0.00088355547
0.00088355572
0.00088355581
0.00088355575
0.00088355555
0.00088355521
0.00088355479
0.0008835555
0.00088355591
0.0008835552
0.00088355572
0.00088355596
0.00088355604
0.00088355595
0.00088355572
0.00088355532
0.00088355485
0.0008835555
0.00088355602
0.0008835553
0.00088355581
0.00088355604
0.00088355609
0.00088355598
0.00088355572
0.0008835553
0.00088355479
0.00088355542
0.000883556
0.00088355527
0.00088355575
0.00088355595
0.00088355598
0.00088355586
0.00088355558
0.00088355514
0.00088355462
0.00088355525
0.00088355588
0.00088355511
0.00088355555
0.00088355572
0.00088355572
0.00088355558
0.00088355529
0.00088355485
0.00088355433
0.00088355497
0.0008835557
0.00088355484
0.00088355521
0.00088355532
0.0008835553
0.00088355514
0.00088355485
0.00088355442
0.00088355394
0.00088355461
0.00088355561
0.00088355458
0.00088355479
0.00088355485
0.00088355479
0.00088355462
0.00088355433
0.00088355394
0.00088355352
0.00088355433
0.00088355631
0.00088355546
0.0008835555
0.0008835555
0.00088355542
0.00088355525
0.00088355497
0.00088355461
0.00088355433
0.0008835558
0.00089820819
0.00089820685
0.00089820739
0.00089820765
0.00089820776
0.00089820772
0.00089820757
0.00089820735
0.00089820721
0.00089820786
0.00089820685
0.0008982062
0.00089820674
0.000898207
0.0008982071
0.00089820705
0.00089820686
0.00089820655
0.00089820623
0.00089820705
0.00089820739
0.00089820674
0.00089820728
0.00089820754
0.00089820763
0.00089820756
0.00089820733
0.00089820694
0.00089820647
0.00089820711
0.00089820765
0.000898207
0.00089820754
0.00089820779
0.00089820786
0.00089820776
0.0008982075
0.00089820706
0.00089820653
0.00089820712
0.00089820776
0.0008982071
0.00089820763
0.00089820786
0.00089820791
0.00089820779
0.0008982075
0.00089820703
0.00089820646
0.00089820703
0.00089820772
0.00089820705
0.00089820756
0.00089820776
0.00089820779
0.00089820765
0.00089820734
0.00089820685
0.00089820627
0.00089820683
0.00089820757
0.00089820686
0.00089820733
0.0008982075
0.0008982075
0.00089820734
0.00089820701
0.00089820653
0.00089820595
0.00089820652
0.00089820735
0.00089820655
0.00089820694
0.00089820706
0.00089820703
0.00089820685
0.00089820653
0.00089820606
0.00089820551
0.00089820612
0.00089820721
0.00089820623
0.00089820647
0.00089820653
0.00089820646
0.00089820627
0.00089820595
0.00089820551
0.00089820504
0.00089820577
0.00089820786
0.00089820705
0.00089820711
0.00089820712
0.00089820703
0.00089820683
0.00089820652
0.00089820612
0.00089820577
0.00089820718
0.00091248106
0.00091247981
0.00091248037
0.00091248064
0.00091248074
0.0009124807
0.00091248052
0.00091248026
0.00091248008
0.00091248067
0.00091247981
0.00091247922
0.00091247978
0.00091248005
0.00091248015
0.00091248008
0.00091247987
0.00091247952
0.00091247915
0.0009124799
0.00091248037
0.00091247978
0.00091248034
0.00091248061
0.00091248069
0.0009124806
0.00091248035
0.00091247992
0.0009124794
0.00091247998
0.00091248064
0.00091248005
0.00091248061
0.00091248087
0.00091248093
0.00091248082
0.00091248053
0.00091248005
0.00091247946
0.00091247999
0.00091248074
0.00091248015
0.00091248069
0.00091248093
0.00091248098
0.00091248084
0.00091248052
0.00091248001
0.00091247939
0.00091247989
0.0009124807
0.00091248008
0.0009124806
0.00091248082
0.00091248084
0.00091248068
0.00091248034
0.00091247982
0.00091247918
0.00091247968
0.00091248052
0.00091247987
0.00091248035
0.00091248053
0.00091248052
0.00091248034
0.00091247999
0.00091247946
0.00091247884
0.00091247934
0.00091248026
0.00091247952
0.00091247992
0.00091248005
0.00091248001
0.00091247982
0.00091247946
0.00091247895
0.00091247835
0.00091247889
0.00091248008
0.00091247915
0.0009124794
0.00091247946
0.00091247939
0.00091247918
0.00091247884
0.00091247835
0.00091247782
0.00091247848
0.00091248067
0.0009124799
0.00091247998
0.00091247999
0.00091247989
0.00091247968
0.00091247934
0.00091247889
0.00091247848
0.00091247982
0.00092639471
0.00092639354
0.00092639411
0.00092639439
0.00092639449
0.00092639443
0.00092639423
0.00092639394
0.00092639371
0.00092639424
0.00092639354
0.00092639301
0.00092639359
0.00092639386
0.00092639395
0.00092639388
0.00092639364
0.00092639326
0.00092639284
0.00092639352
0.00092639411
0.00092639359
0.00092639416
0.00092639443
0.00092639451
0.00092639441
0.00092639413
0.00092639367
0.0009263931
0.00092639361
0.00092639439
0.00092639386
0.00092639443
0.00092639469
0.00092639475
0.00092639463
0.00092639431
0.0009263938
0.00092639317
0.00092639362
0.00092639449
0.00092639395
0.00092639451
0.00092639475
0.00092639479
0.00092639464
0.0009263943
0.00092639376
0.00092639309
0.00092639352
0.00092639443
0.00092639388
0.00092639441
0.00092639463
0.00092639464
0.00092639447
0.0009263941
0.00092639355
0.00092639287
0.00092639329
0.00092639423
0.00092639364
0.00092639413
0.00092639431
0.0009263943
0.0009263941
0.00092639373
0.00092639317
0.00092639249
0.00092639293
0.00092639394
0.00092639326
0.00092639367
0.0009263938
0.00092639376
0.00092639355
0.00092639317
0.00092639262
0.00092639197
0.00092639244
0.00092639371
0.00092639284
0.0009263931
0.00092639317
0.00092639309
0.00092639287
0.00092639249
0.00092639197
0.00092639139
0.00092639198
0.00092639424
0.00092639352
0.00092639361
0.00092639362
0.00092639352
0.00092639329
0.00092639293
0.00092639244
0.00092639198
0.00092639324