/*--------------------------------*- C++ -*----------------------------------*\
| =========                 |                                                 |
| \\      /  F ield         | OpenFOAM: The Open Source CFD Toolbox           |
|  \\    /   O peration     | Version:  v2106                                 |
|   \\  /    A nd           | Website:  www.openfoam.com                      |
|    \\/     M anipulation  |                                                 |
\*---------------------------------------------------------------------------*/
FoamFile
{
    version     2.0;
    format      ascii;
    arch        "LSB;label=32;scalar=64";
    class       volScalarField;
    location    "45";
    object      gradTz;
}
// * * * * * * * * * * * * * * * * * * * * * * * * * * * * * * * * * * * * * //

dimensions      [0 -1 0 1 0 0 0];

internalField   nonuniform List<scalar> 
4000
(
587.53629
587.53201
587.53477
587.53584
587.5364
587.53654
587.53634
587.53596
587.53564
587.53575
587.53201
587.53103
587.53347
587.53452
587.53506
587.53516
587.5349
587.53437
587.53381
587.53397
587.53477
587.53347
587.53588
587.53691
587.53741
587.53746
587.53713
587.53646
587.53563
587.53533
587.53584
587.53452
587.53691
587.5379
587.53837
587.53837
587.53796
587.53721
587.53628
587.53589
587.5364
587.53506
587.53741
587.53837
587.53878
587.53874
587.53827
587.53745
587.53646
587.53603
587.53654
587.53516
587.53746
587.53837
587.53874
587.53864
587.53813
587.53727
587.53624
587.53579
587.53634
587.5349
587.53713
587.53796
587.53827
587.53813
587.53758
587.5367
587.53565
587.5352
587.53596
587.53437
587.53646
587.53721
587.53745
587.53727
587.5367
587.5358
587.53477
587.53433
587.53564
587.53381
587.53563
587.53628
587.53646
587.53624
587.53565
587.53477
587.53377
587.5334
587.53575
587.53397
587.53533
587.53589
587.53603
587.53579
587.5352
587.53433
587.5334
587.53317
867.9162
867.91247
867.91549
867.91696
867.91772
867.91787
867.91752
867.91685
867.91633
867.91706
867.91247
867.91155
867.91439
867.91585
867.91657
867.91667
867.91621
867.91531
867.91431
867.91515
867.91549
867.91439
867.91719
867.91861
867.91929
867.91932
867.91875
867.91765
867.91625
867.91649
867.91696
867.91585
867.91861
867.91999
867.92061
867.92056
867.91989
867.91866
867.91711
867.9172
867.91772
867.91657
867.91929
867.92061
867.92116
867.92104
867.92029
867.91896
867.91732
867.91735
867.91787
867.91667
867.91932
867.92056
867.92104
867.92085
867.92003
867.91864
867.91695
867.91695
867.91752
867.91621
867.91875
867.91989
867.92029
867.92003
867.91916
867.91774
867.91602
867.91602
867.91685
867.91531
867.91765
867.91866
867.91896
867.91864
867.91774
867.91631
867.91461
867.91465
867.91633
867.91431
867.91625
867.91711
867.91732
867.91695
867.91602
867.91461
867.913
867.9132
867.91706
867.91515
867.91649
867.9172
867.91735
867.91695
867.91602
867.91465
867.9132
867.91407
861.77422
861.77203
861.77445
861.77574
861.77637
861.77641
861.77594
861.77509
861.7743
861.77531
861.77203
861.77169
861.77402
861.77529
861.77589
861.77589
861.77531
861.77421
861.77287
861.7739
861.77445
861.77402
861.77631
861.77754
861.7781
861.77803
861.77735
861.77606
861.77433
861.77484
861.77574
861.77529
861.77754
861.77873
861.77923
861.77909
861.77831
861.7769
861.77501
861.77538
861.77637
861.77589
861.7781
861.77923
861.77967
861.77945
861.77859
861.77709
861.77511
861.77542
861.77641
861.77589
861.77803
861.77909
861.77945
861.77917
861.77824
861.77668
861.77465
861.77493
861.77594
861.77531
861.77735
861.77831
861.77859
861.77824
861.77726
861.77567
861.77363
861.7739
861.77509
861.77421
861.77606
861.7769
861.77709
861.77668
861.77567
861.77407
861.77205
861.77237
861.7743
861.77287
861.77433
861.77501
861.77511
861.77465
861.77363
861.77205
861.77014
861.7707
861.77531
861.7739
861.77484
861.77538
861.77542
861.77493
861.7739
861.77237
861.7707
861.77256
855.57289
855.571
855.57319
855.57432
855.57483
855.57476
855.57416
855.57313
855.57206
855.5728
855.571
855.57071
855.5728
855.57391
855.57439
855.57427
855.57358
855.57232
855.57071
855.57156
855.57319
855.5728
855.57486
855.57593
855.57636
855.57618
855.57538
855.57395
855.57197
855.57234
855.57432
855.57391
855.57593
855.57696
855.57733
855.57708
855.57619
855.57463
855.5725
855.57274
855.57483
855.57439
855.57636
855.57733
855.57765
855.57732
855.57635
855.57471
855.57249
855.57267
855.57476
855.57427
855.57618
855.57708
855.57732
855.57693
855.5759
855.57419
855.57193
855.57209
855.57416
855.57358
855.57538
855.57619
855.57635
855.5759
855.57482
855.57308
855.57081
855.57096
855.57313
855.57232
855.57395
855.57463
855.57471
855.57419
855.57308
855.57135
855.56909
855.56929
855.57206
855.57071
855.57197
855.5725
855.57249
855.57193
855.57081
855.56909
855.56694
855.56739
855.5728
855.57156
855.57234
855.57274
855.57267
855.57209
855.57096
855.56929
855.56739
855.56946
849.31676
849.31504
849.31709
849.31809
849.31849
849.31831
849.31761
849.31647
849.31525
849.3158
849.31504
849.3148
849.31675
849.31773
849.31809
849.31787
849.31708
849.31572
849.31398
849.31466
849.31709
849.31675
849.31865
849.31959
849.31991
849.31963
849.31874
849.3172
849.31511
849.31534
849.31809
849.31773
849.31959
849.32049
849.32076
849.32041
849.31942
849.31777
849.31553
849.31563
849.31849
849.31809
849.31991
849.32076
849.32096
849.32054
849.31948
849.31775
849.31542
849.31547
849.31831
849.31787
849.31963
849.32041
849.32054
849.32006
849.31894
849.31715
849.31478
849.31481
849.31761
849.31708
849.31874
849.31942
849.31948
849.31894
849.31777
849.31595
849.31357
849.3136
849.31647
849.31572
849.3172
849.31777
849.31775
849.31715
849.31595
849.31413
849.31178
849.31185
849.31525
849.31398
849.31511
849.31553
849.31542
849.31478
849.31357
849.31178
849.30952
849.30982
849.3158
849.31466
849.31534
849.31563
849.31547
849.31481
849.3136
849.31185
849.30982
849.31181
843.01307
843.01153
843.01346
843.01436
843.01466
843.0144
843.01361
843.01239
843.01108
843.01149
843.01153
843.01136
843.01318
843.01406
843.01433
843.01403
843.01315
843.01172
843.00992
843.01043
843.01346
843.01318
843.01496
843.01579
843.01602
843.01566
843.01469
843.0131
843.01095
843.01104
843.01436
843.01406
843.01579
843.01659
843.01676
843.01633
843.01528
843.01357
843.01128
843.01126
843.01466
843.01433
843.01602
843.01676
843.01688
843.01638
843.01525
843.01347
843.0111
843.01103
843.0144
843.01403
843.01566
843.01633
843.01638
843.01582
843.01464
843.0128
843.01039
843.0103
843.01361
843.01315
843.01469
843.01528
843.01525
843.01464
843.01341
843.01155
843.00913
843.00903
843.01239
843.01172
843.0131
843.01357
843.01347
843.0128
843.01155
843.00968
843.00729
843.00723
843.01108
843.00992
843.01095
843.01128
843.0111
843.01039
843.00913
843.00729
843.00499
843.00515
843.01149
843.01043
843.01104
843.01126
843.01103
843.0103
843.00903
843.00723
843.00515
843.00697
836.66981
836.66845
836.67026
836.67107
836.67129
836.67096
836.67012
836.66885
836.66749
836.66777
836.66845
836.66836
836.67006
836.67084
836.67104
836.67067
836.66974
836.66827
836.66644
836.66681
836.67026
836.67006
836.67172
836.67246
836.67261
836.67219
836.67117
836.66955
836.66738
836.66736
836.67107
836.67084
836.67246
836.67317
836.67327
836.67278
836.67168
836.66995
836.66765
836.66752
836.67129
836.67104
836.67261
836.67327
836.67331
836.67275
836.67159
836.66978
836.66741
836.66723
836.67096
836.67067
836.67219
836.67278
836.67275
836.67214
836.67092
836.66907
836.66666
836.66645
836.67012
836.66974
836.67117
836.67168
836.67159
836.67092
836.66966
836.66778
836.66536
836.66515
836.66885
836.66827
836.66955
836.66995
836.66978
836.66907
836.66778
836.6659
836.6635
836.66333
836.66749
836.66644
836.66738
836.66765
836.66741
836.66666
836.66536
836.6635
836.66119
836.66123
836.66777
836.66681
836.66736
836.66752
836.66723
836.66645
836.66515
836.66333
836.66123
836.66285
830.29555
830.29439
830.29607
830.2968
830.29695
830.29657
830.2957
830.29441
830.29302
830.29318
830.29439
830.29436
830.29595
830.29665
830.29678
830.29636
830.29541
830.29392
830.29208
830.29232
830.29607
830.29595
830.29749
830.29815
830.29824
830.29777
830.29673
830.2951
830.29295
830.29282
830.2968
830.29665
830.29815
830.29878
830.29881
830.29828
830.29716
830.29543
830.29316
830.29293
830.29695
830.29678
830.29824
830.29881
830.2988
830.2982
830.29702
830.29522
830.29288
830.2926
830.29657
830.29636
830.29777
830.29828
830.2982
830.29755
830.29632
830.29447
830.29209
830.29179
830.2957
830.29541
830.29673
830.29716
830.29702
830.29632
830.29504
830.29317
830.29079
830.29048
830.29441
830.29392
830.2951
830.29543
830.29522
830.29447
830.29317
830.2913
830.28894
830.28867
830.29302
830.29208
830.29295
830.29316
830.29288
830.29209
830.29079
830.28894
830.28665
830.28657
830.29318
830.29232
830.29282
830.29293
830.2926
830.29179
830.29048
830.28867
830.28657
830.288
823.89942
823.89844
823.9
823.90065
823.90074
823.90033
823.89944
823.89814
823.89675
823.89682
823.89844
823.89849
823.89996
823.90058
823.90065
823.9002
823.89923
823.89776
823.89594
823.89606
823.9
823.89996
823.90137
823.90196
823.90199
823.90149
823.90044
823.89884
823.89673
823.89651
823.90065
823.90058
823.90196
823.90251
823.9025
823.90193
823.90081
823.89912
823.8969
823.89657
823.90074
823.90065
823.90199
823.9025
823.90243
823.90181
823.90063
823.89886
823.89658
823.89621
823.90033
823.9002
823.90149
823.90193
823.90181
823.90114
823.89991
823.8981
823.89578
823.8954
823.89944
823.89923
823.90044
823.90081
823.90063
823.89991
823.89865
823.89681
823.89448
823.8941
823.89814
823.89776
823.89884
823.89912
823.89886
823.8981
823.89681
823.89498
823.89267
823.89231
823.89675
823.89594
823.89673
823.8969
823.89658
823.89578
823.89448
823.89267
823.89042
823.89024
823.89682
823.89606
823.89651
823.89657
823.89621
823.8954
823.8941
823.89231
823.89024
823.89148
817.49097
817.49019
817.49161
817.49219
817.49223
817.49179
817.4909
817.48962
817.48824
817.48822
817.49019
817.4903
817.49164
817.49219
817.49221
817.49174
817.49077
817.48933
817.48756
817.48757
817.49161
817.49164
817.49293
817.49345
817.49343
817.49291
817.49187
817.49031
817.48827
817.48796
817.49219
817.49219
817.49345
817.49393
817.49387
817.49329
817.49218
817.49053
817.48839
817.48799
817.49223
817.49221
817.49343
817.49387
817.49376
817.49313
817.49197
817.49026
817.48805
817.48762
817.49179
817.49174
817.49291
817.49329
817.49313
817.49245
817.49125
817.48949
817.48726
817.4868
817.4909
817.49077
817.49187
817.49218
817.49197
817.49125
817.49001
817.48823
817.48598
817.48553
817.48962
817.48933
817.49031
817.49053
817.49026
817.48949
817.48823
817.48645
817.48422
817.48379
817.48824
817.48756
817.48827
817.48839
817.48805
817.48726
817.48598
817.48422
817.48205
817.48177
817.48822
817.48757
817.48796
817.48799
817.48762
817.4868
817.48553
817.48379
817.48177
817.48283
811.08015
811.07955
811.08083
811.08133
811.08133
811.08088
811.08
811.07875
811.07741
811.0773
811.07955
811.07972
811.08093
811.0814
811.08138
811.08089
811.07995
811.07856
811.07685
811.07676
811.08083
811.08093
811.08209
811.08253
811.08248
811.08194
811.08093
811.07943
811.07748
811.0771
811.08133
811.0814
811.08253
811.08294
811.08284
811.08226
811.08119
811.07961
811.07756
811.0771
811.08133
811.08138
811.08248
811.08284
811.0827
811.08208
811.08095
811.07931
811.0772
811.07671
811.08088
811.08089
811.08194
811.08226
811.08208
811.0814
811.08023
811.07856
811.07642
811.07591
811.08
811.07995
811.08093
811.08119
811.08095
811.08023
811.07903
811.07734
811.07519
811.07468
811.07875
811.07856
811.07943
811.07961
811.07931
811.07856
811.07734
811.07563
811.0735
811.07301
811.07741
811.07685
811.07748
811.07756
811.0772
811.07642
811.07519
811.0735
811.07142
811.07107
811.0773
811.07676
811.0771
811.0771
811.07671
811.07591
811.07468
811.07301
811.07107
811.07194
804.67715
804.67673
804.67787
804.67829
804.67825
804.67779
804.67694
804.67574
804.67444
804.67426
804.67673
804.67696
804.67802
804.67842
804.67837
804.67788
804.67696
804.67564
804.674
804.67382
804.67787
804.67802
804.67905
804.67942
804.67933
804.6788
804.67783
804.6764
804.67455
804.67412
804.67829
804.67842
804.67942
804.67976
804.67963
804.67906
804.67803
804.67653
804.67459
804.67408
804.67825
804.67837
804.67933
804.67963
804.67947
804.67885
804.67777
804.67622
804.67423
804.67369
804.67779
804.67788
804.6788
804.67906
804.67885
804.67819
804.67707
804.67549
804.67347
804.67292
804.67694
804.67696
804.67783
804.67803
804.67777
804.67707
804.67593
804.67432
804.6723
804.67174
804.67574
804.67564
804.6764
804.67653
804.67622
804.67549
804.67432
804.67271
804.6707
804.67016
804.67444
804.674
804.67455
804.67459
804.67423
804.67347
804.6723
804.6707
804.66874
804.66832
804.67426
804.67382
804.67412
804.67408
804.67369
804.67292
804.67174
804.67016
804.66832
804.66901
798.29238
798.29214
798.29312
798.29347
798.2934
798.29294
798.29212
798.29099
798.28975
798.2895
798.29214
798.29241
798.29333
798.29366
798.29357
798.29308
798.29221
798.29096
798.28943
798.28917
798.29312
798.29333
798.29421
798.29451
798.2944
798.29387
798.29295
798.29161
798.28989
798.28941
798.29347
798.29366
798.29451
798.29478
798.29463
798.29407
798.2931
798.29169
798.28989
798.28935
798.2934
798.29357
798.2944
798.29463
798.29444
798.29384
798.29283
798.29138
798.28953
798.28896
798.29294
798.29308
798.29387
798.29407
798.29384
798.29321
798.29215
798.29068
798.28881
798.28822
798.29212
798.29221
798.29295
798.2931
798.29283
798.29215
798.29108
798.28958
798.2877
798.28711
798.29099
798.29096
798.29161
798.29169
798.29138
798.29068
798.28958
798.28808
798.28621
798.28563
798.28975
798.28943
798.28989
798.28989
798.28953
798.28881
798.2877
798.28621
798.28437
798.2839
798.2895
798.28917
798.28941
798.28935
798.28896
798.28822
798.28711
798.28563
798.2839
798.28443
791.93637
791.93629
791.93712
791.93739
791.93729
791.93684
791.93606
791.935
791.93384
791.93354
791.93629
791.93661
791.93738
791.93763
791.93751
791.93703
791.93621
791.93505
791.93363
791.9333
791.93712
791.93738
791.93811
791.93834
791.93819
791.93769
791.93682
791.93559
791.934
791.93349
791.93739
791.93763
791.93834
791.93854
791.93837
791.93782
791.93692
791.93563
791.93398
791.93341
791.93729
791.93751
791.93819
791.93837
791.93816
791.93758
791.93664
791.93531
791.93362
791.93303
791.93684
791.93703
791.93769
791.93782
791.93758
791.93698
791.936
791.93465
791.93293
791.93233
791.93606
791.93621
791.93682
791.93692
791.93664
791.936
791.935
791.93363
791.93191
791.9313
791.935
791.93505
791.93559
791.93563
791.93531
791.93465
791.93363
791.93225
791.93054
791.92994
791.93384
791.93363
791.934
791.93398
791.93362
791.93293
791.93191
791.93054
791.92885
791.92834
791.93354
791.9333
791.93349
791.93341
791.93303
791.93233
791.9313
791.92994
791.92834
791.9287
785.61968
785.61976
785.62042
785.62062
785.62049
785.62005
785.61932
785.61835
785.61727
785.61692
785.61976
785.6201
785.62072
785.62089
785.62075
785.62029
785.61953
785.61847
785.61717
785.61679
785.62042
785.62072
785.6213
785.62146
785.62129
785.6208
785.62001
785.61888
785.61745
785.61692
785.62062
785.62089
785.62146
785.62159
785.62139
785.62088
785.62005
785.61888
785.61739
785.61681
785.62049
785.62075
785.62129
785.62139
785.62117
785.62063
785.61976
785.61856
785.61705
785.61644
785.62005
785.62029
785.6208
785.62088
785.62063
785.62006
785.61917
785.61795
785.61641
785.6158
785.61932
785.61953
785.62001
785.62005
785.61976
785.61917
785.61826
785.61702
785.61548
785.61486
785.61835
785.61847
785.61888
785.61888
785.61856
785.61795
785.61702
785.61578
785.61423
785.61362
785.61727
785.61717
785.61745
785.61739
785.61705
785.61641
785.61548
785.61423
785.61271
785.61217
785.61692
785.61679
785.61692
785.61681
785.61644
785.6158
785.61486
785.61362
785.61217
785.61238
779.35283
779.35306
779.35356
779.35368
779.35352
779.3531
779.35243
779.35155
779.35057
779.35018
779.35306
779.35342
779.35388
779.35398
779.35381
779.35338
779.35268
779.35174
779.35058
779.35014
779.35356
779.35388
779.35431
779.3544
779.3542
779.35375
779.35303
779.35203
779.35076
779.35022
779.35368
779.35398
779.3544
779.35446
779.35425
779.35377
779.35301
779.35198
779.35067
779.35009
779.35352
779.35381
779.3542
779.35425
779.35401
779.35351
779.35273
779.35167
779.35034
779.34974
779.3531
779.35338
779.35375
779.35377
779.35351
779.35298
779.35218
779.35111
779.34976
779.34915
779.35243
779.35268
779.35303
779.35301
779.35273
779.35218
779.35137
779.35028
779.34892
779.34831
779.35155
779.35174
779.35203
779.35198
779.35167
779.35111
779.35028
779.34918
779.34782
779.34721
779.35057
779.35058
779.35076
779.35067
779.35034
779.34976
779.34892
779.34782
779.34648
779.34592
779.35018
779.35014
779.35022
779.35009
779.34974
779.34915
779.34831
779.34721
779.34592
779.34599
773.14625
773.14662
773.14695
773.14699
773.1468
773.1464
773.14581
773.14503
773.14416
773.14374
773.14662
773.147
773.14729
773.14732
773.14712
773.14672
773.1461
773.14527
773.14426
773.14379
773.14695
773.14729
773.14757
773.14758
773.14737
773.14694
773.1463
773.14544
773.14435
773.1438
773.14699
773.14732
773.14758
773.14757
773.14735
773.1469
773.14624
773.14535
773.14423
773.14366
773.1468
773.14712
773.14737
773.14735
773.1471
773.14664
773.14596
773.14505
773.14391
773.14332
773.1464
773.14672
773.14694
773.1469
773.14664
773.14617
773.14547
773.14454
773.14339
773.1428
773.14581
773.1461
773.1463
773.14624
773.14596
773.14547
773.14476
773.14382
773.14266
773.14206
773.14503
773.14527
773.14544
773.14535
773.14505
773.14454
773.14382
773.14288
773.14172
773.14112
773.14416
773.14426
773.14435
773.14423
773.14391
773.14339
773.14266
773.14172
773.14056
773.14
773.14374
773.14379
773.1438
773.14366
773.14332
773.1428
773.14206
773.14112
773.14
773.13993
767.01019
767.01069
767.01084
767.0108
767.01059
767.01023
767.0097
767.00903
767.00828
767.00784
767.01069
767.01107
767.0112
767.01115
767.01094
767.01056
767.01002
767.00933
767.00847
767.00797
767.01084
767.0112
767.01132
767.01126
767.01103
767.01064
767.01009
767.00937
767.00847
767.00793
767.0108
767.01115
767.01126
767.01119
767.01095
767.01055
767.00998
767.00924
767.00832
767.00776
767.01059
767.01094
767.01103
767.01095
767.0107
767.01028
767.0097
767.00895
767.00802
767.00745
767.01023
767.01056
767.01064
767.01055
767.01028
767.00986
767.00927
767.00851
767.00756
767.00699
767.0097
767.01002
767.01009
767.00998
767.0097
767.00927
767.00867
767.0079
767.00695
767.00637
767.00903
767.00933
767.00937
767.00924
767.00895
767.00851
767.0079
767.00712
767.00617
767.00559
767.00828
767.00847
767.00847
767.00832
767.00802
767.00756
767.00695
767.00617
767.00521
767.00465
767.00784
767.00797
767.00793
767.00776
767.00745
767.00699
767.00637
767.00559
767.00465
767.00446
760.95466
760.95527
760.95525
760.95514
760.95491
760.95457
760.95413
760.95358
760.95294
760.95249
760.95527
760.95565
760.95562
760.9555
760.95527
760.95492
760.95447
760.95391
760.95322
760.9527
760.95525
760.95562
760.95558
760.95545
760.95521
760.95486
760.9544
760.95383
760.95312
760.9526
760.95514
760.9555
760.95545
760.95531
760.95506
760.95471
760.95424
760.95366
760.95294
760.95242
760.95491
760.95527
760.95521
760.95506
760.95481
760.95445
760.95397
760.95339
760.95266
760.95213
760.95457
760.95492
760.95486
760.95471
760.95445
760.95408
760.9536
760.95301
760.95228
760.95174
760.95413
760.95447
760.9544
760.95424
760.95397
760.9536
760.95312
760.95252
760.95178
760.95125
760.95358
760.95391
760.95383
760.95366
760.95339
760.95301
760.95252
760.95191
760.95117
760.95063
760.95294
760.95322
760.95312
760.95294
760.95266
760.95228
760.95178
760.95117
760.95043
760.94988
760.95249
760.9527
760.9526
760.95242
760.95213
760.95174
760.95125
760.95063
760.94988
760.94958
754.98937
754.99009
754.9899
754.98971
754.98947
754.98916
754.9888
754.98837
754.98787
754.98741
754.99009
754.99046
754.99027
754.99008
754.98983
754.98952
754.98916
754.98874
754.98822
754.9877
754.9899
754.99027
754.99007
754.98987
754.98962
754.98932
754.98896
754.98853
754.98803
754.98754
754.98971
754.99008
754.98987
754.98967
754.98941
754.98911
754.98875
754.98833
754.98783
754.98734
754.98947
754.98983
754.98962
754.98941
754.98916
754.98885
754.98849
754.98807
754.98757
754.98708
754.98916
754.98952
754.98932
754.98911
754.98885
754.98854
754.98818
754.98776
754.98726
754.98677
754.9888
754.98916
754.98896
754.98875
754.98849
754.98818
754.98782
754.98739
754.98689
754.98639
754.98837
754.98874
754.98853
754.98833
754.98807
754.98776
754.98739
754.98697
754.98645
754.98595
754.98787
754.98822
754.98803
754.98783
754.98757
754.98726
754.98689
754.98645
754.98592
754.9854
754.98741
754.9877
754.98754
754.98734
754.98708
754.98677
754.98639
754.98595
754.9854
754.985
749.1237
749.12452
749.12415
749.12389
749.12363
749.12336
749.12309
749.12278
749.12242
749.12197
749.12452
749.12487
749.12451
749.12425
749.12399
749.12373
749.12346
749.12318
749.12284
749.12232
749.12415
749.12451
749.12416
749.12389
749.12363
749.12338
749.12312
749.12285
749.12256
749.1221
749.12389
749.12425
749.12389
749.12363
749.12337
749.12312
749.12287
749.12261
749.12233
749.12188
749.12363
749.12399
749.12363
749.12337
749.12312
749.12287
749.12262
749.12238
749.1221
749.12166
749.12336
749.12373
749.12338
749.12312
749.12287
749.12262
749.12238
749.12214
749.12186
749.12143
749.12309
749.12346
749.12312
749.12287
749.12262
749.12238
749.12214
749.1219
749.12162
749.12118
749.12278
749.12318
749.12285
749.12261
749.12238
749.12214
749.1219
749.12165
749.12136
749.12091
749.12242
749.12284
749.12256
749.12233
749.1221
749.12186
749.12162
749.12136
749.12106
749.12057
749.12197
749.12232
749.1221
749.12188
749.12166
749.12143
749.12118
749.12091
749.12057
749.12008
743.36661
743.3675
743.36697
743.36664
743.36636
743.36614
743.36595
743.36578
743.36555
743.36511
743.3675
743.36783
743.36732
743.36699
743.36671
743.3665
743.36633
743.36619
743.36604
743.36553
743.36697
743.36732
743.36681
743.36648
743.36621
743.366
743.36585
743.36575
743.36566
743.36525
743.36664
743.36699
743.36648
743.36615
743.36589
743.36569
743.36556
743.36547
743.36541
743.36502
743.36636
743.36671
743.36621
743.36589
743.36564
743.36545
743.36533
743.36526
743.36521
743.36483
743.36614
743.3665
743.366
743.36569
743.36545
743.36528
743.36516
743.3651
743.36505
743.36468
743.36595
743.36633
743.36585
743.36556
743.36533
743.36516
743.36504
743.36498
743.36494
743.36456
743.36578
743.36619
743.36575
743.36547
743.36526
743.3651
743.36498
743.36492
743.36487
743.36448
743.36555
743.36604
743.36566
743.36541
743.36521
743.36505
743.36494
743.36487
743.36478
743.36434
743.36511
743.36553
743.36525
743.36502
743.36483
743.36468
743.36456
743.36448
743.36434
743.36378
737.72659
737.72756
737.72686
737.72646
737.72617
737.72599
737.72589
737.72585
737.72578
737.72535
737.72756
737.72785
737.72719
737.72679
737.72651
737.72634
737.72627
737.72628
737.72631
737.72582
737.72686
737.72719
737.72653
737.72614
737.72587
737.72571
737.72566
737.72573
737.72585
737.72549
737.72646
737.72679
737.72614
737.72575
737.7255
737.72535
737.72533
737.72542
737.72558
737.72525
737.72617
737.72651
737.72587
737.7255
737.72525
737.72513
737.72512
737.72523
737.72541
737.72509
737.72599
737.72634
737.72571
737.72535
737.72513
737.72502
737.72502
737.72514
737.72533
737.72502
737.72589
737.72627
737.72566
737.72533
737.72512
737.72502
737.72504
737.72516
737.72535
737.72504
737.72585
737.72628
737.72573
737.72542
737.72523
737.72514
737.72516
737.72529
737.72546
737.72514
737.72578
737.72631
737.72585
737.72558
737.72541
737.72533
737.72535
737.72546
737.72561
737.72522
737.72535
737.72582
737.72549
737.72525
737.72509
737.72502
737.72504
737.72514
737.72522
737.72459
732.21166
732.21269
732.21183
732.21136
732.21107
732.21093
732.21093
732.21103
732.2111
732.21069
732.21269
732.21295
732.21214
732.21168
732.21139
732.21127
732.2113
732.21147
732.21168
732.21122
732.21183
732.21214
732.21134
732.21089
732.21061
732.21051
732.21057
732.2108
732.21113
732.21083
732.21136
732.21168
732.21089
732.21045
732.21019
732.21011
732.2102
732.21046
732.21084
732.21058
732.21107
732.21139
732.21061
732.21019
732.20995
732.20989
732.21001
732.2103
732.2107
732.21046
732.21093
732.21127
732.21051
732.21011
732.20989
732.20985
732.20999
732.21029
732.21071
732.21048
732.21093
732.2113
732.21057
732.2102
732.21001
732.20999
732.21013
732.21044
732.21087
732.21063
732.21103
732.21147
732.2108
732.21046
732.2103
732.21029
732.21044
732.21075
732.21116
732.21091
732.2111
732.21168
732.21113
732.21084
732.2107
732.21071
732.21087
732.21116
732.21154
732.21121
732.21069
732.21122
732.21083
732.21058
732.21046
732.21048
732.21063
732.21091
732.21121
732.21052
726.8293
726.83038
726.82936
726.82883
726.82854
726.82845
726.82854
726.82877
726.82899
726.82861
726.83038
726.8306
726.82964
726.82912
726.82884
726.82876
726.82889
726.82921
726.82961
726.82918
726.82936
726.82964
726.8287
726.8282
726.82793
726.82788
726.82805
726.82844
726.82898
726.82875
726.82883
726.82912
726.8282
726.8277
726.82745
726.82743
726.82764
726.82807
726.82868
726.82849
726.82854
726.82884
726.82793
726.82745
726.82723
726.82724
726.82747
726.82794
726.82857
726.82841
726.82845
726.82876
726.82788
726.82743
726.82724
726.82727
726.82753
726.82801
726.82866
726.82851
726.82854
726.82889
726.82805
726.82764
726.82747
726.82753
726.8278
726.8283
726.82895
726.8288
726.82877
726.82921
726.82844
726.82807
726.82794
726.82801
726.8283
726.82879
726.82944
726.82927
726.82899
726.82961
726.82898
726.82868
726.82857
726.82866
726.82895
726.82944
726.83004
726.82978
726.82861
726.82918
726.82875
726.82849
726.82841
726.82851
726.8288
726.82927
726.82978
726.82904
721.5864
721.58752
721.58635
721.58577
721.58547
721.58543
721.58562
721.58598
721.58635
721.58601
721.58752
721.58769
721.5866
721.58602
721.58574
721.58572
721.58595
721.58642
721.58701
721.58662
721.58635
721.5866
721.58553
721.58497
721.58471
721.58472
721.585
721.58554
721.5863
721.58614
721.58577
721.58602
721.58497
721.58443
721.58419
721.58423
721.58456
721.58516
721.58598
721.58588
721.58547
721.58574
721.58471
721.58419
721.58398
721.58406
721.58441
721.58505
721.58591
721.58584
721.58543
721.58572
721.58472
721.58423
721.58406
721.58416
721.58454
721.58521
721.58609
721.58602
721.58562
721.58595
721.585
721.58456
721.58441
721.58454
721.58495
721.58563
721.58651
721.58645
721.58598
721.58642
721.58554
721.58516
721.58505
721.58521
721.58563
721.58631
721.58718
721.58709
721.58635
721.58701
721.5863
721.58598
721.58591
721.58609
721.58651
721.58718
721.58801
721.58782
721.58601
721.58662
721.58614
721.58588
721.58584
721.58602
721.58645
721.58709
721.58782
721.58705
716.48925
716.4904
716.4891
716.48846
716.48816
716.48817
716.48846
716.48896
716.48947
716.48918
716.4904
716.49053
716.48931
716.48868
716.4884
716.48844
716.48877
716.48939
716.49016
716.48982
716.4891
716.48931
716.48811
716.48751
716.48725
716.48732
716.48771
716.48842
716.48938
716.48929
716.48846
716.48868
716.48751
716.48693
716.4867
716.48681
716.48725
716.48802
716.48905
716.48903
716.48816
716.4884
716.48725
716.4867
716.48651
716.48665
716.48713
716.48794
716.48902
716.48903
716.48817
716.48844
716.48732
716.48681
716.48665
716.48683
716.48734
716.48818
716.48929
716.48931
716.48846
716.48877
716.48771
716.48725
716.48713
716.48734
716.48787
716.48873
716.48984
716.48987
716.48896
716.48939
716.48842
716.48802
716.48794
716.48818
716.48873
716.48959
716.49069
716.49069
716.48947
716.49016
716.48938
716.48905
716.48902
716.48929
716.48984
716.49069
716.49174
716.49164
716.48918
716.48982
716.48929
716.48903
716.48903
716.48931
716.48987
716.49069
716.49164
716.49084
711.54352
711.54468
711.54325
711.54257
711.54228
711.54234
711.54273
711.54336
711.54402
711.54377
711.54468
711.54476
711.54342
711.54276
711.54248
711.54258
711.54302
711.54378
711.54473
711.54444
711.54325
711.54342
711.54211
711.54147
711.54123
711.54136
711.54186
711.54272
711.54389
711.54388
711.54257
711.54276
711.54147
711.54085
711.54064
711.54082
711.54137
711.5423
711.54355
711.54362
711.54228
711.54248
711.54123
711.54064
711.54047
711.54068
711.54128
711.54227
711.54356
711.54366
711.54234
711.54258
711.54136
711.54082
711.54068
711.54094
711.54157
711.54259
711.54391
711.54403
711.54273
711.54302
711.54186
711.54137
711.54128
711.54157
711.54223
711.54327
711.5446
711.54472
711.54336
711.54378
711.54272
711.5423
711.54227
711.54259
711.54327
711.54431
711.54563
711.54572
711.54402
711.54473
711.54389
711.54355
711.54356
711.54391
711.5446
711.54563
711.5469
711.54687
711.54377
711.54444
711.54388
711.54362
711.54366
711.54403
711.54472
711.54572
711.54687
711.54606
706.7542
706.75537
706.75382
706.7531
706.75282
706.75294
706.75343
706.7542
706.755
706.7548
706.75537
706.7554
706.75395
706.75325
706.75299
706.75314
706.75369
706.7546
706.75573
706.7555
706.75382
706.75395
706.75254
706.75186
706.75164
706.75183
706.75244
706.75346
706.75482
706.7549
706.7531
706.75325
706.75186
706.75122
706.75103
706.75127
706.75194
706.75303
706.75449
706.75464
706.75282
706.75299
706.75164
706.75103
706.75088
706.75116
706.75188
706.75304
706.75454
706.75473
706.75294
706.75314
706.75183
706.75127
706.75116
706.75149
706.75225
706.75344
706.75498
706.75519
706.75343
706.75369
706.75244
706.75194
706.75188
706.75225
706.75304
706.75425
706.7558
706.75601
706.7542
706.7546
706.75346
706.75303
706.75304
706.75344
706.75425
706.75546
706.757
706.75719
706.755
706.75573
706.75482
706.75449
706.75454
706.75498
706.7558
706.757
706.75848
706.75854
706.7548
706.7555
706.7549
706.75464
706.75473
706.75519
706.75601
706.75719
706.75854
706.75772
702.12562
702.12679
702.12514
702.12438
702.12412
702.12431
702.12489
702.12579
702.12673
702.12659
702.12679
702.12677
702.12523
702.12449
702.12425
702.12447
702.12512
702.12617
702.12747
702.1273
702.12514
702.12523
702.12372
702.12302
702.12281
702.12307
702.12379
702.12497
702.12651
702.12668
702.12438
702.12449
702.12302
702.12235
702.12218
702.1225
702.12328
702.12453
702.12618
702.12643
702.12412
702.12425