/*--------------------------------*- C++ -*----------------------------------*\
| =========                 |                                                 |
| \\      /  F ield         | OpenFOAM: The Open Source CFD Toolbox           |
|  \\    /   O peration     | Version:  v2106                                 |
|   \\  /    A nd           | Website:  www.openfoam.com                      |
|    \\/     M anipulation  |                                                 |
\*---------------------------------------------------------------------------*/
FoamFile
{
    version     2.0;
    format      ascii;
    arch        "LSB;label=32;scalar=64";
    class       volScalarField;
    location    "45";
    object      T;
}
// * * * * * * * * * * * * * * * * * * * * * * * * * * * * * * * * * * * * * //

dimensions      [0 0 0 1 0 0 0];

internalField   nonuniform List<scalar> 
4000
(
274.47202
274.47198
274.47198
274.47198
274.47198
274.47198
274.47198
274.47198
274.47199
274.47199
274.47198
274.47195
274.47195
274.47195
274.47195
274.47195
274.47195
274.47196
274.47196
274.47197
274.47198
274.47195
274.47195
274.47195
274.47195
274.47195
274.47195
274.47196
274.47196
274.47197
274.47198
274.47195
274.47195
274.47195
274.47195
274.47195
274.47195
274.47195
274.47196
274.47196
274.47198
274.47195
274.47195
274.47195
274.47195
274.47195
274.47195
274.47195
274.47196
274.47196
274.47198
274.47195
274.47195
274.47195
274.47195
274.47195
274.47195
274.47195
274.47196
274.47196
274.47198
274.47195
274.47195
274.47195
274.47195
274.47195
274.47195
274.47196
274.47196
274.47197
274.47198
274.47196
274.47196
274.47195
274.47195
274.47195
274.47196
274.47196
274.47196
274.47197
274.47199
274.47196
274.47196
274.47196
274.47196
274.47196
274.47196
274.47196
274.47197
274.47198
274.47199
274.47197
274.47197
274.47196
274.47196
274.47196
274.47197
274.47197
274.47198
274.47198
287.56542
287.5651
287.56507
287.56505
287.56505
287.56506
287.56508
287.56511
287.56517
287.56523
287.5651
287.56488
287.56486
287.56484
287.56484
287.56485
287.56487
287.5649
287.56496
287.56505
287.56507
287.56486
287.56484
287.56483
287.56483
287.56483
287.56485
287.56488
287.56493
287.56502
287.56505
287.56484
287.56483
287.56482
287.56481
287.56482
287.56484
287.56487
287.56491
287.565
287.56505
287.56484
287.56483
287.56481
287.56481
287.56482
287.56483
287.56486
287.5649
287.56499
287.56506
287.56485
287.56483
287.56482
287.56482
287.56482
287.56484
287.56487
287.56491
287.56499
287.56508
287.56487
287.56485
287.56484
287.56483
287.56484
287.56485
287.56488
287.56493
287.56501
287.56511
287.5649
287.56488
287.56487
287.56486
287.56487
287.56488
287.56491
287.56496
287.56504
287.56517
287.56496
287.56493
287.56491
287.5649
287.56491
287.56493
287.56496
287.56501
287.5651
287.56523
287.56505
287.56502
287.565
287.56499
287.56499
287.56501
287.56504
287.5651
287.56519
300.07106
300.07059
300.07054
300.07051
300.0705
300.07052
300.07055
300.07061
300.07072
300.07087
300.07059
300.07026
300.07022
300.07019
300.07019
300.0702
300.07023
300.07029
300.07039
300.0706
300.07054
300.07022
300.07019
300.07016
300.07016
300.07017
300.0702
300.07026
300.07034
300.07054
300.07051
300.07019
300.07016
300.07014
300.07014
300.07015
300.07018
300.07023
300.07031
300.0705
300.0705
300.07019
300.07016
300.07014
300.07013
300.07015
300.07017
300.07022
300.0703
300.07049
300.07052
300.0702
300.07017
300.07015
300.07015
300.07016
300.07018
300.07023
300.07031
300.0705
300.07055
300.07023
300.0702
300.07018
300.07017
300.07018
300.07021
300.07026
300.07034
300.07053
300.07061
300.07029
300.07026
300.07023
300.07022
300.07023
300.07026
300.07031
300.07039
300.07059
300.07072
300.07039
300.07034
300.07031
300.0703
300.07031
300.07034
300.07039
300.07048
300.07069
300.07087
300.0706
300.07054
300.0705
300.07049
300.0705
300.07053
300.07059
300.07069
300.07092
312.04681
312.04621
312.04616
312.04612
312.04611
312.04614
312.04618
312.04627
312.04641
312.04665
312.04621
312.0458
312.04576
312.04573
312.04572
312.04574
312.04579
312.04586
312.04599
312.04631
312.04616
312.04576
312.04572
312.0457
312.04569
312.04571
312.04575
312.04582
312.04593
312.04622
312.04612
312.04573
312.0457
312.04567
312.04567
312.04569
312.04573
312.04579
312.04589
312.04618
312.04611
312.04572
312.04569
312.04567
312.04567
312.04568
312.04572
312.04578
312.04588
312.04616
312.04614
312.04574
312.04571
312.04569
312.04568
312.0457
312.04573
312.04579
312.04589
312.04617
312.04618
312.04579
312.04575
312.04573
312.04572
312.04573
312.04577
312.04583
312.04593
312.04621
312.04627
312.04586
312.04582
312.04579
312.04578
312.04579
312.04583
312.04589
312.046
312.04629
312.04641
312.04599
312.04593
312.04589
312.04588
312.04589
312.04593
312.046
312.04612
312.04643
312.04665
312.04631
312.04622
312.04618
312.04616
312.04617
312.04621
312.04629
312.04643
312.0468
323.54025
323.53956
323.53951
323.53948
323.53947
323.5395
323.53956
323.53965
323.53982
323.54013
323.53956
323.53909
323.53905
323.53903
323.53902
323.53905
323.5391
323.53919
323.53934
323.53973
323.53951
323.53905
323.53903
323.539
323.539
323.53903
323.53907
323.53915
323.53927
323.53964
323.53948
323.53903
323.539
323.53898
323.53898
323.539
323.53905
323.53911
323.53923
323.53959
323.53947
323.53902
323.539
323.53898
323.53898
323.539
323.53904
323.5391
323.53922
323.53957
323.5395
323.53905
323.53903
323.539
323.539
323.53902
323.53905
323.53912
323.53923
323.53959
323.53956
323.5391
323.53907
323.53905
323.53904
323.53905
323.53909
323.53916
323.53927
323.53963
323.53965
323.53919
323.53915
323.53911
323.5391
323.53912
323.53916
323.53923
323.53935
323.53972
323.53982
323.53934
323.53927
323.53923
323.53922
323.53923
323.53927
323.53935
323.53949
323.53988
323.54013
323.53973
323.53964
323.53959
323.53957
323.53959
323.53963
323.53972
323.53988
323.54037
334.59128
334.59053
334.59049
334.59046
334.59046
334.59049
334.59055
334.59066
334.59084
334.5912
334.59053
334.59002
334.58999
334.58997
334.58997
334.59
334.59006
334.59015
334.59031
334.59077
334.59049
334.58999
334.58998
334.58996
334.58997
334.58999
334.59004
334.59012
334.59024
334.59067
334.59046
334.58997
334.58996
334.58995
334.58995
334.58997
334.59002
334.59009
334.5902
334.59062
334.59046
334.58997
334.58997
334.58995
334.58995
334.58997
334.59001
334.59008
334.59019
334.5906
334.59049
334.59
334.58999
334.58997
334.58997
334.58999
334.59003
334.59009
334.5902
334.59062
334.59055
334.59006
334.59004
334.59002
334.59001
334.59003
334.59007
334.59013
334.59024
334.59066
334.59066
334.59015
334.59012
334.59009
334.59008
334.59009
334.59013
334.5902
334.59032
334.59075
334.59084
334.59031
334.59024
334.5902
334.59019
334.5902
334.59024
334.59032
334.59046
334.59092
334.5912
334.59077
334.59067
334.59062
334.5906
334.59062
334.59066
334.59075
334.59092
334.59151
345.23387
345.23306
345.23304
345.23302
345.23303
345.23306
345.23313
345.23323
345.23342
345.23382
345.23306
345.23253
345.23252
345.23251
345.23252
345.23255
345.2326
345.23269
345.23285
345.23336
345.23304
345.23252
345.23252
345.23252
345.23253
345.23255
345.2326
345.23267
345.23279
345.23327
345.23302
345.23251
345.23252
345.23251
345.23252
345.23255
345.23259
345.23265
345.23275
345.23321
345.23303
345.23252
345.23253
345.23252
345.23253
345.23255
345.23258
345.23264
345.23274
345.2332
345.23306
345.23255
345.23255
345.23255
345.23255
345.23257
345.2326
345.23265
345.23275
345.23321
345.23313
345.2326
345.2326
345.23259
345.23258
345.2326
345.23263
345.23269
345.23279
345.23325
345.23323
345.23269
345.23267
345.23265
345.23264
345.23265
345.23269
345.23275
345.23286
345.23333
345.23342
345.23285
345.23279
345.23275
345.23274
345.23275
345.23279
345.23286
345.233
345.23351
345.23382
345.23336
345.23327
345.23321
345.2332
345.23321
345.23325
345.23333
345.23351
345.23418
355.4973
355.49646
355.49646
355.49646
355.49647
355.49651
355.49657
355.49667
355.49685
355.49729
355.49646
355.49591
355.49593
355.49593
355.49594
355.49597
355.49602
355.4961
355.49625
355.4968
355.49646
355.49593
355.49595
355.49596
355.49597
355.496
355.49604
355.4961
355.49621
355.49671
355.49646
355.49593
355.49596
355.49597
355.49598
355.496
355.49604
355.49609
355.49618
355.49666
355.49647
355.49594
355.49597
355.49598
355.49599
355.49601
355.49604
355.49608
355.49616
355.49664
355.49651
355.49597
355.496
355.496
355.49601
355.49603
355.49605
355.49609
355.49617
355.49665
355.49657
355.49602
355.49604
355.49604
355.49604
355.49605
355.49607
355.49611
355.4962
355.49669
355.49667
355.4961
355.4961
355.49609
355.49608
355.49609
355.49611
355.49616
355.49626
355.49676
355.49685
355.49625
355.49621
355.49618
355.49616
355.49617
355.4962
355.49626
355.49638
355.49693
355.49729
355.4968
355.49671
355.49666
355.49664
355.49665
355.49669
355.49676
355.49693
355.49766
365.40718
365.40631
365.40634
365.40635
365.40637
365.4064
365.40646
365.40655
365.40672
365.40718
365.40631
365.40576
365.4058
365.40581
365.40583
365.40586
365.40591
365.40598
365.40611
365.40668
365.40634
365.4058
365.40585
365.40587
365.40589
365.40592
365.40595
365.40599
365.40608
365.4066
365.40635
365.40581
365.40587
365.40589
365.40591
365.40593
365.40596
365.40599
365.40605
365.40656
365.40637
365.40583
365.40589
365.40591
365.40593
365.40594
365.40596
365.40598
365.40604
365.40654
365.4064
365.40586
365.40592
365.40593
365.40594
365.40595
365.40597
365.40599
365.40604
365.40654
365.40646
365.40591
365.40595
365.40596
365.40596
365.40597
365.40598
365.406
365.40606
365.40656
365.40655
365.40598
365.40599
365.40599
365.40598
365.40599
365.406
365.40603
365.4061
365.40662
365.40672
365.40611
365.40608
365.40605
365.40604
365.40604
365.40606
365.4061
365.40621
365.40677
365.40718
365.40668
365.4066
365.40656
365.40654
365.40654
365.40656
365.40662
365.40677
365.40755
374.9861
374.98522
374.98528
374.9853
374.98533
374.98536
374.98541
374.98548
374.98564
374.98611
374.98522
374.98467
374.98474
374.98477
374.98479
374.98482
374.98486
374.98491
374.98502
374.9856
374.98528
374.98474
374.98482
374.98485
374.98488
374.9849
374.98492
374.98495
374.98501
374.98553
374.9853
374.98477
374.98485
374.98489
374.98491
374.98493
374.98494
374.98495
374.98499
374.98549
374.98533
374.98479
374.98488
374.98491
374.98493
374.98494
374.98494
374.98494
374.98497
374.98547
374.98536
374.98482
374.9849
374.98493
374.98494
374.98495
374.98495
374.98494
374.98497
374.98547
374.98541
374.98486
374.98492
374.98494
374.98494
374.98495
374.98494
374.98494
374.98497
374.98548
374.98548
374.98491
374.98495
374.98495
374.98494
374.98494
374.98494
374.98495
374.98499
374.98551
374.98564
374.98502
374.98501
374.98499
374.98497
374.98497
374.98497
374.98499
374.98507
374.98564
374.98611
374.9856
374.98553
374.98549
374.98547
374.98547
374.98548
374.98551
374.98564
374.98645
384.25424
384.25336
384.25345
384.25349
384.25352
384.25355
384.25359
384.25365
384.25379
384.25425
384.25336
384.25282
384.25292
384.25296
384.25299
384.25302
384.25304
384.25307
384.25316
384.25374
384.25345
384.25292
384.25303
384.25307
384.25311
384.25312
384.25313
384.25314
384.25316
384.25369
384.25349
384.25296
384.25307
384.25312
384.25315
384.25316
384.25316
384.25314
384.25315
384.25365
384.25352
384.25299
384.25311
384.25315
384.25317
384.25318
384.25317
384.25314
384.25314
384.25363
384.25355
384.25302
384.25312
384.25316
384.25318
384.25318
384.25316
384.25313
384.25312
384.25362
384.25359
384.25304
384.25313
384.25316
384.25317
384.25316
384.25314
384.25312
384.25311
384.25361
384.25365
384.25307
384.25314
384.25314
384.25314
384.25313
384.25312
384.2531
384.25311
384.25363
384.25379
384.25316
384.25316
384.25315
384.25314
384.25312
384.25311
384.25311
384.25315
384.25373
384.25425
384.25374
384.25369
384.25365
384.25363
384.25362
384.25361
384.25363
384.25373
384.25456
393.22979
393.22891
393.22903
393.22908
393.22912
393.22915
393.22918
393.22922
393.22933
393.2298
393.22891
393.22839
393.22852
393.22858
393.22861
393.22863
393.22865
393.22865
393.22871
393.22929
393.22903
393.22852
393.22865
393.22871
393.22875
393.22876
393.22876
393.22874
393.22873
393.22924
393.22908
393.22858
393.22871
393.22878
393.22881
393.22881
393.22879
393.22875
393.22872
393.22922
393.22912
393.22861
393.22875
393.22881
393.22883
393.22883
393.2288
393.22875
393.22871
393.22919
393.22915
393.22863
393.22876
393.22881
393.22883
393.22882
393.22879
393.22873
393.22869
393.22917
393.22918
393.22865
393.22876
393.22879
393.2288
393.22879
393.22875
393.2287
393.22866
393.22915
393.22922
393.22865
393.22874
393.22875
393.22875
393.22873
393.2287
393.22865
393.22863
393.22913
393.22933
393.22871
393.22873
393.22872
393.22871
393.22869
393.22866
393.22863
393.22864
393.2292
393.2298
393.22929
393.22924
393.22922
393.22919
393.22917
393.22915
393.22913
393.2292
393.23004
401.92926
401.92841
401.92855
401.92862
401.92866
401.92868
401.9287
401.92872
401.92881
401.92926
401.92841
401.9279
401.92806
401.92813
401.92817
401.92819
401.92818
401.92817
401.92819
401.92876
401.92855
401.92806
401.92822
401.92829
401.92833
401.92834
401.92832
401.92827
401.92823
401.92873
401.92862
401.92813
401.92829
401.92837
401.9284
401.9284
401.92837
401.9283
401.92823
401.92871
401.92866
401.92817
401.92833
401.9284
401.92843
401.92842
401.92837
401.92829
401.92822
401.92868
401.92868
401.92819
401.92834
401.9284
401.92842
401.9284
401.92835
401.92827
401.92818
401.92865
401.9287
401.92818
401.92832
401.92837
401.92837
401.92835
401.9283
401.92821
401.92814
401.9286
401.92872
401.92817
401.92827
401.9283
401.92829
401.92827
401.92821
401.92814
401.92808
401.92856
401.92881
401.92819
401.92823
401.92823
401.92822
401.92818
401.92814
401.92808
401.92805
401.9286
401.92926
401.92876
401.92873
401.92871
401.92868
401.92865
401.9286
401.92856
401.9286
401.92944
410.36781
410.36698
410.36715
410.36723
410.36728
410.36729
410.36729
410.36729
410.36735
410.36779
410.36698
410.3665
410.36668
410.36676
410.36681
410.36682
410.3668
410.36676
410.36675
410.3673
410.36715
410.36668
410.36686
410.36695
410.36699
410.36699
410.36696
410.36688
410.36681
410.36728
410.36723
410.36676
410.36695
410.36704
410.36707
410.36706
410.36701
410.36692
410.36681
410.36726
410.36728
410.36681
410.36699
410.36707
410.3671
410.36708
410.36702
410.36691
410.3668
410.36724
410.36729
410.36682
410.36699
410.36706
410.36708
410.36706
410.36699
410.36687
410.36675
410.36719
410.36729
410.3668
410.36696
410.36701
410.36702
410.36699
410.36691
410.3668
410.36669
410.36713
410.36729
410.36676
410.36688
410.36692
410.36691
410.36687
410.3668
410.3667
410.3666
410.36706
410.36735
410.36675
410.36681
410.36681
410.3668
410.36675
410.36669
410.3666
410.36653
410.36706
410.36779
410.3673
410.36728
410.36726
410.36724
410.36719
410.36713
410.36706
410.36706
410.36789
418.55941
418.5586
418.5588
418.55889
418.55894
418.55895
418.55893
418.55891
418.55895
418.55937
418.5586
418.55815
418.55835
418.55845
418.5585
418.5585
418.55847
418.5584
418.55836
418.55889
418.5588
418.55835
418.55856
418.55866
418.5587
418.5587
418.55864
418.55854
418.55843
418.55888
418.55889
418.55845
418.55866
418.55876
418.55879
418.55878
418.55871
418.55859
418.55845
418.55887
418.55894
418.5585
418.5587
418.55879
418.55882
418.5588
418.55872
418.55858
418.55843
418.55884
418.55895
418.5585
418.5587
418.55878
418.5588
418.55876
418.55867
418.55853
418.55837
418.55878
418.55893
418.55847
418.55864
418.55871
418.55872
418.55867
418.55858
418.55844
418.55829
418.5587
418.55891
418.5584
418.55854
418.55859
418.55858
418.55853
418.55844
418.55831
418.55817
418.5586
418.55895
418.55836
418.55843
418.55845
418.55843
418.55837
418.55829
418.55817
418.55807
418.55857
418.55937
418.55889
418.55888
418.55887
418.55884
418.55878
418.5587
418.5586
418.55857
418.55938
426.51705
426.51627
426.51648
426.51659
426.51664
426.51665
426.51662
426.51657
426.51658
426.51698
426.51627
426.51585
426.51607
426.51618
426.51623
426.51623
426.51618
426.51609
426.51602
426.51652
426.51648
426.51607
426.5163
426.51641
426.51645
426.51644
426.51637
426.51624
426.5161
426.51652
426.51659
426.51618
426.51641
426.51651
426.51655
426.51653
426.51644
426.51629
426.51612
426.51651
426.51664
426.51623
426.51645
426.51655
426.51658
426.51654
426.51645
426.51628
426.51609
426.51648
426.51665
426.51623
426.51644
426.51653
426.51654
426.5165
426.51639
426.51622
426.51603
426.51641
426.51662
426.51618
426.51637
426.51644
426.51645
426.51639
426.51628
426.51611
426.51592
426.51631
426.51657
426.51609
426.51624
426.51629
426.51628
426.51622
426.51611
426.51595
426.51578
426.51618
426.51658
426.51602
426.5161
426.51612
426.51609
426.51603
426.51592
426.51578
426.51564
426.51611
426.51698
426.51652
426.51652
426.51651
426.51648
426.51641
426.51631
426.51618
426.51611
426.5169
434.25287
434.25212
434.25236
434.25247
434.25253
434.25253
434.25248
434.25241
434.25239
434.25277
434.25212
434.25173
434.25197
434.25209
434.25214
434.25213
434.25207
434.25195
434.25185
434.25232
434.25236
434.25197
434.25222
434.25233
434.25238
434.25236
434.25227
434.25212
434.25195
434.25234
434.25247
434.25209
434.25233
434.25245
434.25249
434.25245
434.25235
434.25218
434.25197
434.25233
434.25253
434.25214
434.25238
434.25249
434.25251
434.25247
434.25236
434.25217
434.25194
434.2523
434.25253
434.25213
434.25236
434.25245
434.25247
434.25242
434.25229
434.2521
434.25187
434.25222
434.25248
434.25207
434.25227
434.25235
434.25236
434.25229
434.25217
434.25197
434.25174
434.2521
434.25241
434.25195
434.25212
434.25218
434.25217
434.2521
434.25197
434.25178
434.25157
434.25194
434.25239
434.25185
434.25195
434.25197
434.25194
434.25187
434.25174
434.25157
434.2514
434.25184
434.25277
434.25232
434.25234
434.25233
434.2523
434.25222
434.2521
434.25194
434.25184
434.2526
441.77829
441.77758
441.77783
441.77796
441.77801
441.778
441.77794
441.77785
441.7778
441.77815
441.77758
441.77722
441.77748
441.7776
441.77765
441.77763
441.77755
441.77742
441.77729
441.77773
441.77783
441.77748
441.77774
441.77786
441.77791
441.77788
441.77778
441.7776
441.7774
441.77775
441.77796
441.7776
441.77786
441.77798
441.77802
441.77798
441.77786
441.77766
441.77742
441.77775
441.77801
441.77765
441.77791
441.77802
441.77804
441.77799
441.77786
441.77765
441.77739
441.77771
441.778
441.77763
441.77788
441.77798
441.77799
441.77793
441.77779
441.77757
441.77731
441.77762
441.77794
441.77755
441.77778
441.77786
441.77786
441.77779
441.77764
441.77742
441.77717
441.77748
441.77785
441.77742
441.7776
441.77766
441.77765
441.77757
441.77742
441.77721
441.77697
441.7773
441.7778
441.77729
441.7774
441.77742
441.77739
441.77731
441.77717
441.77697
441.77676
441.77716
441.77815
441.77773
441.77775
441.77775
441.77771
441.77762
441.77748
441.7773
441.77716
441.7779
449.10409
449.10342
449.10369
449.10383
449.10388
449.10386
449.10379
449.10368
449.10361
449.10393
449.10342
449.1031
449.10337
449.1035
449.10355
449.10353
449.10343
449.10328
449.10312
449.10352
449.10369
449.10337
449.10364
449.10377
449.10381
449.10378
449.10366
449.10347
449.10323
449.10356
449.10383
449.1035
449.10377
449.1039
449.10393
449.10388
449.10375
449.10353
449.10326
449.10356
449.10388
449.10355
449.10381
449.10393
449.10396
449.1039
449.10375
449.10352
449.10323
449.10351
449.10386
449.10353
449.10378
449.10388
449.1039
449.10382
449.10367
449.10343
449.10314
449.10342
449.10379
449.10343
449.10366
449.10375
449.10375
449.10367
449.10351
449.10326
449.10298
449.10326
449.10368
449.10328
449.10347
449.10353
449.10352
449.10343
449.10326
449.10303
449.10276
449.10306
449.10361
449.10312
449.10323
449.10326
449.10323
449.10314
449.10298
449.10276
449.10252
449.10289
449.10393
449.10352
449.10356
449.10356
449.10351
449.10342
449.10326
449.10306
449.10289
449.10359
456.24053
456.2399
456.24018
456.24032
456.24037
456.24035
456.24026
456.24013
456.24004
456.24033
456.2399
456.23961
456.23989
456.24003
456.24007
456.24004
456.23993
456.23976
456.23958
456.23995
456.24018
456.23989
456.24017
456.2403
456.24035
456.2403
456.24017
456.23996
456.2397
456.23999
456.24032
456.24003
456.2403
456.24043
456.24047
456.24041
456.24026
456.24003
456.23973
456.23999
456.24037
456.24007
456.24035
456.24047
456.24049
456.24042
456.24026
456.24001
456.2397
456.23995
456.24035
456.24004
456.2403
456.24041
456.24042
456.24034
456.24017
456.23991
456.23959
456.23984
456.24026
456.23993
456.24017
456.24026
456.24026
456.24017
456.23999
456.23973
456.23942
456.23967
456.24013
456.23976
456.23996
456.24003
456.24001
456.23991
456.23973
456.23948
456.23918
456.23944
456.24004
456.23958
456.2397
456.23973
456.2397
456.23959
456.23942
456.23918
456.23891
456.23924
456.24033
456.23995
456.23999
456.23999
456.23995
456.23984
456.23967
456.23944
456.23924
456.23991
463.19736
463.19677
463.19706
463.1972
463.19725
463.19722
463.19712
463.19697
463.19686
463.19712
463.19677
463.19651
463.19679
463.19693
463.19698
463.19694
463.19682
463.19663
463.19642
463.19676
463.19706
463.19679
463.19708
463.19722
463.19725
463.1972
463.19706
463.19684
463.19655
463.19681
463.1972
463.19693
463.19722
463.19735
463.19738
463.19731
463.19715
463.1969
463.19659
463.19681
463.19725
463.19698
463.19725
463.19738
463.1974
463.19732
463.19715
463.19688
463.19655
463.19676
463.19722
463.19694
463.1972
463.19731
463.19732
463.19723
463.19705
463.19677
463.19643
463.19665
463.19712
463.19682
463.19706
463.19715
463.19715
463.19705
463.19686
463.19658
463.19625
463.19646
463.19697
463.19663
463.19684
463.1969
463.19688
463.19677
463.19658
463.19631
463.19599
463.19622
463.19686
463.19642
463.19655
463.19659
463.19655
463.19643
463.19625
463.19599
463.1957
463.19599
463.19712
463.19676
463.19681
463.19681
463.19676
463.19665
463.19646
463.19622
463.19599
463.19662
469.98389
469.98335
469.98364
469.98378
469.98383
469.9838
469.98369
469.98352
469.98339
469.98363
469.98335
469.98312
469.98341
469.98355
469.98359
469.98355
469.98342
469.98321
469.98298
469.98329
469.98364
469.98341
469.9837
469.98383
469.98387
469.98381
469.98366
469.98342
469.98312
469.98334
469.98378
469.98355
469.98383
469.98397
469.98399
469.98392
469.98375
469.98349
469.98315
469.98335
469.98383
469.98359
469.98387
469.98399
469.98401
469.98393
469.98374
469.98346
469.98311
469.98329
469.9838
469.98355
469.98381
469.98392
469.98393
469.98383
469.98364
469.98335
469.98299
469.98317
469.98369
469.98342
469.98366
469.98375
469.98374
469.98364
469.98344
469.98315
469.98279
469.98298
469.98352
469.98321
469.98342
469.98349
469.98346
469.98335
469.98315
469.98286
469.98252
469.98272
469.98339
469.98298
469.98312
469.98315
469.98311
469.98299
469.98279
469.98252
469.98221
469.98247
469.98363
469.98329
469.98334
469.98335
469.98329
469.98317
469.98298
469.98272
469.98247
469.98305
476.60909
476.60859
476.60889
476.60903
476.60907
476.60903
476.60891
476.60874
476.60858
476.6088
476.60859
476.60839
476.60868
476.60882
476.60886
476.60881
476.60867
476.60845
476.60821
476.60848
476.60889
476.60868
476.60897
476.60911
476.60914
476.60908
476.60892
476.60866
476.60835
476.60854
476.60903
476.60882
476.60911
476.60924
476.60926
476.60918
476.60901
476.60873
476.60838
476.60854
476.60907
476.60886
476.60914
476.60926
476.60927
476.60918
476.60899
476.6087
476.60833
476.60849
476.60903
476.60881
476.60908
476.60918
476.60918
476.60908
476.60888
476.60858
476.60821
476.60836
476.60891
476.60867
476.60892
476.60901
476.60899
476.60888
476.60868
476.60837
476.608
476.60815
476.60874
476.60845
476.60866
476.60873
476.6087
476.60858
476.60837
476.60807
476.60771
476.60788
476.60858
476.60821
476.60835
476.60838
476.60833
476.60821
476.608
476.60771
476.60738
476.60761
476.6088
476.60848
476.60854
476.60854
476.60849
476.60836
476.60815
476.60788
476.60761
476.60816
483.08156
483.0811
483.08139
483.08153
483.08157
483.08152
483.0814
483.08121
483.08104
483.08123
483.0811
483.08092
483.08121
483.08135
483.08139
483.08133
483.08118
483.08096
483.0807
483.08094
483.08139
483.08121
483.0815
483.08163
483.08166
483.08159
483.08143
483.08116
483.08083
483.08099
483.08153
483.08135
483.08163
483.08176
483.08178
483.0817
483.08151
483.08123
483.08087
483.081
483.08157
483.08139
483.08166
483.08178
483.08179
483.08169
483.0815
483.0812
483.08082
483.08094
483.08152
483.08133
483.08159
483.0817
483.08169
483.08159
483.08138
483.08107
483.08069
483.08081
483.0814
483.08118
483.08143
483.08151
483.0815
483.08138
483.08117
483.08086
483.08047
483.0806
483.08121
483.08096
483.08116
483.08123
483.0812
483.08107
483.08086
483.08055
483.08018
483.08031
483.08104
483.0807
483.08083
483.08087
483.08082
483.08069
483.08047
483.08018
483.07984
483.08003
483.08123
483.08094
483.08099
483.081
483.08094
483.08081
483.0806
483.08031
483.08003
483.08054
489.40957
489.40915
489.40944
489.40958
489.40962
489.40956
489.40943
489.40924
489.40906
489.40922
489.40915
489.409
489.40929
489.40942
489.40945
489.40939
489.40924
489.40901
489.40874
489.40895
489.40944
489.40929
489.40957
489.4097
489.40972
489.40965
489.40948
489.40921
489.40887
489.40901
489.40958
489.40942
489.4097
489.40982
489.40984
489.40975
489.40956
489.40927
489.4089
489.40901
489.40962
489.40945
489.40972
489.40984
489.40984
489.40975
489.40954
489.40924
489.40885
489.40895
489.40956
489.40939
489.40965
489.40975
489.40975
489.40964
489.40943
489.40911
489.40872
489.40881
489.40943
489.40924
489.40948
489.40956
489.40954
489.40943
489.40921
489.40889
489.4085
489.4086
489.40924
489.40901
489.40921
489.40927
489.40924
489.40911
489.40889
489.40858
489.4082
489.40831
489.40906
489.40874
489.40887
489.4089
489.40885
489.40872
489.4085
489.4082
489.40785
489.40801
489.40922
489.40895
489.40901
489.40901
489.40895
489.40881
489.4086
489.40831
489.40801
489.40848
495.60113
495.60076
495.60104
495.60117
495.6012
495.60115
495.60101
495.60081
495.60062
495.60076
495.60076
495.60063
495.60091
495.60104
495.60106
495.601
495.60084
495.60061
495.60033
495.60051
495.60104
495.60091
495.60118
495.60131
495.60133
495.60125
495.60108
495.6008
495.60046
495.60057
495.60117
495.60104
495.60131
495.60142
495.60144
495.60135
495.60116
495.60086
495.60049
495.60057
495.6012
495.60106
495.60133
495.60144
495.60144
495.60134
495.60113
495.60082
495.60044
495.60051
495.60115
495.601
495.60125
495.60135
495.60134
495.60122
495.60101
495.60069
495.6003
495.60037
495.60101
495.60084
495.60108
495.60116
495.60113
495.60101
495.60079
495.60047
495.60008
495.60015
495.60081
495.60061
495.6008
495.60086
495.60082
495.60069
495.60047
495.60016
495.59977
495.59986
495.60062
495.60033
495.60046
495.60049
495.60044
495.6003
495.60008
495.59977
495.59942
495.59955
495.60076
495.60051
495.60057
495.60057
495.60051
495.60037
495.60015
495.59986
495.59955
495.59998
501.66397
501.66364
501.66391
501.66404
501.66406
501.664
501.66386
501.66366
501.66346
501.66358
501.66364
501.66354
501.6638
501.66392
501.66395
501.66388
501.66372
501.66348
501.6632
501.66335
501.66391
501.6638
501.66406
501.66418
501.6642
501.66412
501.66394
501.66367
501.66333
501.66341
501.66404
501.66392
501.66418
501.66429
501.6643
501.66421
501.66402
501.66372
501.66335
501.66341
501.66406
501.66395
501.6642
501.6643
501.6643
501.66419
501.66399
501.66368
501.6633
501.66335
501.664
501.66388
501.66412
501.66421
501.66419
501.66408
501.66387
501.66355
501.66316
501.66321
501.66386
501.66372
501.66394
501.66402
501.66399
501.66387
501.66365
501.66333
501.66294
501.66299
501.66366
501.66348
501.66367
501.66372
501.66368
501.66355
501.66333
501.66302
501.66264
501.66269
501.66346
501.6632
501.66333
501.66335
501.6633
501.66316
501.66294
501.66264
501.66228
501.66239
501.66358
501.66335
501.66341
501.66341
501.66335
501.66321
501.66299
501.66269
501.66239
501.66277
507.60557
507.60528
507.60554
507.60565
507.60567
507.60561
507.60547
507.60527
507.60507
507.60516
507.60528
507.60519
507.60545
507.60556
507.60558
507.60551
507.60535
507.60511
507.60483
507.60496
507.60554
507.60545
507.60569
507.6058
507.60582
507.60573
507.60556
507.60529
507.60495
507.60501
507.60565
507.60556
507.6058
507.60591
507.60591
507.60582
507.60563
507.60534
507.60497
507.60501
507.60567
507.60558
507.60582
507.60591
507.6059
507.6058
507.6056
507.6053
507.60492
507.60495
507.60561
507.60551
507.60573
507.60582
507.6058
507.60569
507.60548
507.60517
507.60478
507.60481
507.60547
507.60535
507.60556
507.60563
507.6056
507.60548
507.60526
507.60495
507.60456
507.60459
507.60527
507.60511
507.60529
507.60534
507.6053
507.60517
507.60495
507.60464
507.60426
507.6043
507.60507
507.60483
507.60495
507.60497
507.60492
507.60478
507.60456
507.60426
507.60391
507.60399
507.60516
507.60496
507.60501
507.60501
507.60495
507.60481
507.60459
507.6043
507.60399
507.60434
513.43317
513.43291
513.43315
513.43326
513.43328
513.43321
513.43307
513.43287
513.43267
513.43274
513.43291
513.43284
513.43308
513.43319
513.4332
513.43313
513.43297
513.43274
513.43246
513.43256
513.43315
513.43308
513.43331
513.43341
513.43342
513.43334
513.43317
513.4329
513.43257
513.43261
513.43326
513.43319
513.43341
513.43351
513.43351
513.43342
513.43323
513.43295
513.43259
513.43261
513.43328
513.4332
513.43342
513.43351
513.4335
513.43339
513.4332
513.4329
513.43253
513.43254
513.43321
513.43313
513.43334
513.43342
513.43339
513.43328
513.43308
513.43277
513.4324
513.43241
513.43307
513.43297
513.43317
513.43323
513.4332
513.43308
513.43286
513.43256
513.43218
513.43219
513.43287
513.43274
513.4329
513.43295
513.4329
513.43277
513.43256
513.43226
513.43189
513.43191
513.43267
513.43246
513.43257
513.43259
513.43253
513.4324
513.43218
513.43189
513.43154
513.4316
513.43274
513.43256
513.43261
513.43261
513.43254
513.43241
513.43219
513.43191
513.4316
513.43192
519.15377
519.15355
519.15377
519.15387
519.15388
519.15382
519.15368
519.15348
519.15328
519.15334
519.15355
519.1535
519.15371
519.15381
519.15382
519.15375
519.15359
519.15337
519.1531
519.15318
519.15377
519.15371
519.15393
519.15402
519.15402
519.15394
519.15377
519.15352
519.1532
519.15322
519.15387
519.15381
519.15402
519.15411
519.1541
519.15401
519.15383
519.15356
519.15321
519.15322
519.15388
519.15382