/*--------------------------------*- C++ -*----------------------------------*\
| =========                 |                                                 |
| \\      /  F ield         | OpenFOAM: The Open Source CFD Toolbox           |
|  \\    /   O peration     | Version:  v2106                                 |
|   \\  /    A nd           | Website:  www.openfoam.com                      |
|    \\/     M anipulation  |                                                 |
\*---------------------------------------------------------------------------*/
FoamFile
{
    version     2.0;
    format      ascii;
    arch        "LSB;label=32;scalar=64";
    class       volVectorField;
    location    "60";
    object      U;
}
// * * * * * * * * * * * * * * * * * * * * * * * * * * * * * * * * * * * * * //

dimensions      [0 1 -1 0 0 0 0];

internalField   nonuniform List<vector> 
4000
(
(0 0 166.727)
(0 0 228.061)
(0 0 241.493)
(0 0 245.049)
(0 0 246.055)
(0 0 246.055)
(0 0 245.049)
(0 0 241.493)
(0 0 228.061)
(0 0 166.727)
(0 0 228.061)
(0 0 334.89)
(0 0 363.216)
(0 0 371.783)
(0 0 374.391)
(0 0 374.391)
(0 0 371.783)
(0 0 363.216)
(0 0 334.89)
(0 0 228.061)
(0 0 241.493)
(0 0 363.216)
(0 0 398.195)
(0 0 409.544)
(0 0 413.163)
(0 0 413.163)
(0 0 409.544)
(0 0 398.195)
(0 0 363.216)
(0 0 241.493)
(0 0 245.049)
(0 0 371.783)
(0 0 409.544)
(0 0 422.259)
(0 0 426.426)
(0 0 426.426)
(0 0 422.259)
(0 0 409.544)
(0 0 371.783)
(0 0 245.049)
(0 0 246.055)
(0 0 374.391)
(0 0 413.163)
(0 0 426.426)
(0 0 430.825)
(0 0 430.825)
(0 0 426.426)
(0 0 413.163)
(0 0 374.391)
(0 0 246.055)
(0 0 246.055)
(0 0 374.391)
(0 0 413.163)
(0 0 426.426)
(0 0 430.825)
(0 0 430.825)
(0 0 426.426)
(0 0 413.163)
(0 0 374.391)
(0 0 246.055)
(0 0 245.049)
(0 0 371.783)
(0 0 409.544)
(0 0 422.259)
(0 0 426.426)
(0 0 426.426)
(0 0 422.259)
(0 0 409.544)
(0 0 371.783)
(0 0 245.049)
(0 0 241.493)
(0 0 363.216)
(0 0 398.195)
(0 0 409.544)
(0 0 413.163)
(0 0 413.163)
(0 0 409.544)
(0 0 398.195)
(0 0 363.216)
(0 0 241.493)
(0 0 228.061)
(0 0 334.89)
(0 0 363.216)
(0 0 371.783)
(0 0 374.391)
(0 0 374.391)
(0 0 371.783)
(0 0 363.216)
(0 0 334.89)
(0 0 228.061)
(0 0 166.727)
(0 0 228.061)
(0 0 241.493)
(0 0 245.049)
(0 0 246.055)
(0 0 246.055)
(0 0 245.049)
(0 0 241.493)
(0 0 228.061)
(0 0 166.727)
(0 0 42.4872)
(0 0 79.5641)
(0 0 93.8985)
(0 0 99.4178)
(0 0 101.339)
(0 0 101.338)
(0 0 99.4178)
(0 0 93.8985)
(0 0 79.5641)
(0 0 42.4872)
(0 0 79.5641)
(0 0 160.205)
(0 0 194.973)
(0 0 209.308)
(0 0 214.481)
(0 0 214.481)
(0 0 209.308)
(0 0 194.973)
(0 0 160.205)
(0 0 79.5641)
(0 0 93.8985)
(0 0 194.973)
(0 0 241.115)
(0 0 261.002)
(0 0 268.381)
(0 0 268.381)
(0 0 261.001)
(0 0 241.115)
(0 0 194.973)
(0 0 93.8985)
(0 0 99.4178)
(0 0 209.308)
(0 0 261.002)
(0 0 283.874)
(0 0 292.515)
(0 0 292.515)
(0 0 283.874)
(0 0 261.001)
(0 0 209.308)
(0 0 99.4178)
(0 0 101.339)
(0 0 214.481)
(0 0 268.381)
(0 0 292.515)
(0 0 301.711)
(0 0 301.711)
(0 0 292.515)
(0 0 268.381)
(0 0 214.481)
(0 0 101.338)
(0 0 101.338)
(0 0 214.481)
(0 0 268.381)
(0 0 292.515)
(0 0 301.711)
(0 0 301.711)
(0 0 292.515)
(0 0 268.381)
(0 0 214.481)
(0 0 101.338)
(0 0 99.4178)
(0 0 209.308)
(0 0 261.001)
(0 0 283.874)
(0 0 292.515)
(0 0 292.515)
(0 0 283.874)
(0 0 261.001)
(0 0 209.308)
(0 0 99.4178)
(0 0 93.8985)
(0 0 194.973)
(0 0 241.115)
(0 0 261.001)
(0 0 268.381)
(0 0 268.381)
(0 0 261.001)
(0 0 241.115)
(0 0 194.973)
(0 0 93.8985)
(0 0 79.5641)
(0 0 160.205)
(0 0 194.973)
(0 0 209.308)
(0 0 214.481)
(0 0 214.481)
(0 0 209.308)
(0 0 194.973)
(0 0 160.205)
(0 0 79.5641)
(0 0 42.4872)
(0 0 79.5641)
(0 0 93.8985)
(0 0 99.4178)
(0 0 101.338)
(0 0 101.338)
(0 0 99.4178)
(0 0 93.8985)
(0 0 79.5641)
(0 0 42.4872)
(0 0 14.2156)
(0 0 32.7997)
(0 0 42.6206)
(0 0 47.3068)
(0 0 49.1553)
(0 0 49.1553)
(0 0 47.3067)
(0 0 42.6205)
(0 0 32.7996)
(0 0 14.2156)
(0 0 32.7997)
(0 0 78.7173)
(0 0 104.347)
(0 0 117.013)
(0 0 122.106)
(0 0 122.106)
(0 0 117.013)
(0 0 104.347)
(0 0 78.7172)
(0 0 32.7996)
(0 0 42.6206)
(0 0 104.347)
(0 0 140.035)
(0 0 158.161)
(0 0 165.574)
(0 0 165.574)
(0 0 158.161)
(0 0 140.035)
(0 0 104.347)
(0 0 42.6205)
(0 0 47.3068)
(0 0 117.013)
(0 0 158.161)
(0 0 179.435)
(0 0 188.242)
(0 0 188.242)
(0 0 179.435)
(0 0 158.161)
(0 0 117.013)
(0 0 47.3067)
(0 0 49.1553)
(0 0 122.106)
(0 0 165.574)
(0 0 188.242)
(0 0 197.682)
(0 0 197.682)
(0 0 188.242)
(0 0 165.574)
(0 0 122.106)
(0 0 49.1553)
(0 0 49.1553)
(0 0 122.106)
(0 0 165.574)
(0 0 188.242)
(0 0 197.682)
(0 0 197.682)
(0 0 188.242)
(0 0 165.574)
(0 0 122.106)
(0 0 49.1553)
(0 0 47.3067)
(0 0 117.013)
(0 0 158.161)
(0 0 179.435)
(0 0 188.242)
(0 0 188.242)
(0 0 179.435)
(0 0 158.161)
(0 0 117.013)
(0 0 47.3067)
(0 0 42.6205)
(0 0 104.347)
(0 0 140.035)
(0 0 158.161)
(0 0 165.574)
(0 0 165.574)
(0 0 158.161)
(0 0 140.035)
(0 0 104.347)
(0 0 42.6205)
(0 0 32.7996)
(0 0 78.7172)
(0 0 104.347)
(0 0 117.013)
(0 0 122.106)
(0 0 122.106)
(0 0 117.013)
(0 0 104.347)
(0 0 78.7172)
(0 0 32.7996)
(0 0 14.2156)
(0 0 32.7996)
(0 0 42.6205)
(0 0 47.3067)
(0 0 49.1553)
(0 0 49.1553)
(0 0 47.3067)
(0 0 42.6205)
(0 0 32.7996)
(0 0 14.2156)
(0 0 5.88052)
(0 0 15.1808)
(0 0 21.0774)
(0 0 24.3013)
(0 0 25.6845)
(0 0 25.6845)
(0 0 24.3012)
(0 0 21.0773)
(0 0 15.1807)
(0 0 5.88049)
(0 0 15.1808)
(0 0 39.8319)
(0 0 55.8654)
(0 0 64.7879)
(0 0 68.6551)
(0 0 68.6551)
(0 0 64.7878)
(0 0 55.8653)
(0 0 39.8319)
(0 0 15.1807)
(0 0 21.0774)
(0 0 55.8654)
(0 0 78.9479)
(0 0 92.0041)
(0 0 97.7222)
(0 0 97.7222)
(0 0 92.004)
(0 0 78.9478)
(0 0 55.8653)
(0 0 21.0773)
(0 0 24.3013)
(0 0 64.7879)
(0 0 92.0041)
(0 0 107.577)
(0 0 114.451)
(0 0 114.451)
(0 0 107.577)
(0 0 92.0041)
(0 0 64.7878)
(0 0 24.3012)
(0 0 25.6845)
(0 0 68.6551)
(0 0 97.7222)
(0 0 114.451)
(0 0 121.865)
(0 0 121.865)
(0 0 114.451)
(0 0 97.7222)
(0 0 68.6551)
(0 0 25.6845)
(0 0 25.6845)
(0 0 68.6551)
(0 0 97.7222)
(0 0 114.451)
(0 0 121.865)
(0 0 121.865)
(0 0 114.451)
(0 0 97.7223)
(0 0 68.6551)
(0 0 25.6845)
(0 0 24.3012)
(0 0 64.7878)
(0 0 92.004)
(0 0 107.577)
(0 0 114.451)
(0 0 114.451)
(0 0 107.577)
(0 0 92.0042)
(0 0 64.7879)
(0 0 24.3013)
(0 0 21.0773)
(0 0 55.8653)
(0 0 78.9478)
(0 0 92.0041)
(0 0 97.7222)
(0 0 97.7223)
(0 0 92.0042)
(0 0 78.948)
(0 0 55.8654)
(0 0 21.0774)
(0 0 15.1807)
(0 0 39.8319)
(0 0 55.8653)
(0 0 64.7878)
(0 0 68.6551)
(0 0 68.6551)
(0 0 64.7879)
(0 0 55.8654)
(0 0 39.832)
(0 0 15.1808)
(0 0 5.88049)
(0 0 15.1807)
(0 0 21.0773)
(0 0 24.3012)
(0 0 25.6845)
(0 0 25.6845)
(0 0 24.3013)
(0 0 21.0774)
(0 0 15.1808)
(0 0 5.88052)
(0 0 2.72712)
(0 0 7.4285)
(0 0 10.7396)
(0 0 12.714)
(0 0 13.6102)
(0 0 13.6102)
(0 0 12.7139)
(0 0 10.7396)
(0 0 7.42847)
(0 0 2.7271)
(0 0 7.4285)
(0 0 20.3591)
(0 0 29.5728)
(0 0 35.1163)
(0 0 37.6465)
(0 0 37.6465)
(0 0 35.1162)
(0 0 29.5728)
(0 0 20.359)
(0 0 7.42847)
(0 0 10.7396)
(0 0 29.5728)
(0 0 43.1392)
(0 0 51.3794)
(0 0 55.1643)
(0 0 55.1643)
(0 0 51.3794)
(0 0 43.1392)
(0 0 29.5728)
(0 0 10.7396)
(0 0 12.714)
(0 0 35.1163)
(0 0 51.3794)
(0 0 61.3293)
(0 0 65.9224)
(0 0 65.9225)
(0 0 61.3294)
(0 0 51.3794)
(0 0 35.1163)
(0 0 12.714)
(0 0 13.6102)
(0 0 37.6465)
(0 0 55.1643)
(0 0 65.9224)
(0 0 70.9019)
(0 0 70.9019)
(0 0 65.9225)
(0 0 55.1644)
(0 0 37.6466)
(0 0 13.6102)
(0 0 13.6102)
(0 0 37.6465)
(0 0 55.1643)
(0 0 65.9225)
(0 0 70.9019)
(0 0 70.902)
(0 0 65.9226)
(0 0 55.1644)
(0 0 37.6467)
(0 0 13.6103)
(0 0 12.7139)
(0 0 35.1162)
(0 0 51.3794)
(0 0 61.3294)
(0 0 65.9225)
(0 0 65.9226)
(0 0 61.3295)
(0 0 51.3796)
(0 0 35.1164)
(0 0 12.714)
(0 0 10.7396)
(0 0 29.5728)
(0 0 43.1392)
(0 0 51.3794)
(0 0 55.1644)
(0 0 55.1644)
(0 0 51.3796)
(0 0 43.1394)
(0 0 29.5729)
(0 0 10.7397)
(0 0 7.42847)
(0 0 20.359)
(0 0 29.5728)
(0 0 35.1163)
(0 0 37.6466)
(0 0 37.6467)
(0 0 35.1164)
(0 0 29.5729)
(0 0 20.3592)
(0 0 7.42853)
(0 0 2.7271)
(0 0 7.42847)
(0 0 10.7396)
(0 0 12.714)
(0 0 13.6102)
(0 0 13.6103)
(0 0 12.714)
(0 0 10.7397)
(0 0 7.42853)
(0 0 2.72713)
(0 0 1.31519)
(0 0 3.67493)
(0 0 5.4415)
(0 0 6.55497)
(0 0 7.07997)
(0 0 7.07997)
(0 0 6.55497)
(0 0 5.44149)
(0 0 3.67492)
(0 0 1.31518)
(0 0 3.67493)
(0 0 10.2928)
(0 0 15.2742)
(0 0 18.4288)
(0 0 19.9206)
(0 0 19.9206)
(0 0 18.4288)
(0 0 15.2742)
(0 0 10.2928)
(0 0 3.67492)
(0 0 5.4415)
(0 0 15.2742)
(0 0 22.7194)
(0 0 27.4602)
(0 0 29.7108)
(0 0 29.7108)
(0 0 27.4602)
(0 0 22.7194)
(0 0 15.2743)
(0 0 5.4415)
(0 0 6.55497)
(0 0 18.4288)
(0 0 27.4602)
(0 0 33.2369)
(0 0 35.9879)
(0 0 35.9879)
(0 0 33.237)
(0 0 27.4603)
(0 0 18.4288)
(0 0 6.555)
(0 0 7.07997)
(0 0 19.9206)
(0 0 29.7108)
(0 0 35.9879)
(0 0 38.9824)
(0 0 38.9825)
(0 0 35.988)
(0 0 29.7109)
(0 0 19.9207)
(0 0 7.08001)
(0 0 7.07997)
(0 0 19.9206)
(0 0 29.7108)
(0 0 35.9879)
(0 0 38.9825)
(0 0 38.9825)
(0 0 35.988)
(0 0 29.711)
(0 0 19.9208)
(0 0 7.08003)
(0 0 6.55497)
(0 0 18.4288)
(0 0 27.4602)
(0 0 33.237)
(0 0 35.988)
(0 0 35.988)
(0 0 33.2371)
(0 0 27.4604)
(0 0 18.4289)
(0 0 6.55503)
(0 0 5.44149)
(0 0 15.2742)
(0 0 22.7194)
(0 0 27.4603)
(0 0 29.7109)
(0 0 29.711)
(0 0 27.4604)
(0 0 22.7196)
(0 0 15.2744)
(0 0 5.44156)
(0 0 3.67492)
(0 0 10.2928)
(0 0 15.2743)
(0 0 18.4288)
(0 0 19.9207)
(0 0 19.9208)
(0 0 18.4289)
(0 0 15.2744)
(0 0 10.2929)
(0 0 3.67497)
(0 0 1.31518)
(0 0 3.67492)
(0 0 5.4415)
(0 0 6.555)
(0 0 7.08001)
(0 0 7.08003)
(0 0 6.55503)
(0 0 5.44156)
(0 0 3.67497)
(0 0 1.31521)
(0 0 0.631724)
(0 0 1.78796)
(0 0 2.68564)
(0 0 3.27217)
(0 0 3.55589)
(0 0 3.55589)
(0 0 3.27217)
(0 0 2.68564)
(0 0 1.78795)
(0 0 0.631719)
(0 0 1.78796)
(0 0 5.06542)
(0 0 7.61683)
(0 0 9.28809)
(0 0 10.0979)
(0 0 10.0979)
(0 0 9.28811)
(0 0 7.61684)
(0 0 5.06543)
(0 0 1.78796)
(0 0 2.68564)
(0 0 7.61683)
(0 0 11.4681)
(0 0 13.9991)
(0 0 15.2284)
(0 0 15.2284)
(0 0 13.9991)
(0 0 11.4682)
(0 0 7.61687)
(0 0 2.68565)
(0 0 3.27217)
(0 0 9.28809)
(0 0 13.9991)
(0 0 17.1036)
(0 0 18.6144)
(0 0 18.6145)
(0 0 17.1036)
(0 0 13.9992)
(0 0 9.28817)
(0 0 3.2722)
(0 0 3.55589)
(0 0 10.0979)
(0 0 15.2284)
(0 0 18.6144)
(0 0 20.2642)
(0 0 20.2642)
(0 0 18.6145)
(0 0 15.2285)
(0 0 10.098)
(0 0 3.55594)
(0 0 3.55589)
(0 0 10.0979)
(0 0 15.2284)
(0 0 18.6145)
(0 0 20.2642)
(0 0 20.2643)
(0 0 18.6146)
(0 0 15.2285)
(0 0 10.0981)
(0 0 3.55595)
(0 0 3.27217)
(0 0 9.28811)
(0 0 13.9991)
(0 0 17.1036)
(0 0 18.6145)
(0 0 18.6146)
(0 0 17.1038)
(0 0 13.9993)
(0 0 9.28825)
(0 0 3.27223)
(0 0 2.68564)
(0 0 7.61684)
(0 0 11.4682)
(0 0 13.9992)
(0 0 15.2285)
(0 0 15.2285)
(0 0 13.9993)
(0 0 11.4683)
(0 0 7.61698)
(0 0 2.6857)
(0 0 1.78795)
(0 0 5.06543)
(0 0 7.61687)
(0 0 9.28817)
(0 0 10.098)
(0 0 10.0981)
(0 0 9.28825)
(0 0 7.61698)
(0 0 5.06553)
(0 0 1.788)
(0 0 0.631719)
(0 0 1.78796)
(0 0 2.68565)
(0 0 3.2722)
(0 0 3.55594)
(0 0 3.55595)
(0 0 3.27223)
(0 0 2.6857)
(0 0 1.788)
(0 0 0.631739)
(0 0 0.295458)
(0 0 0.842118)
(0 0 1.27619)
(0 0 1.56663)
(0 0 1.70961)
(0 0 1.70961)
(0 0 1.56663)
(0 0 1.2762)
(0 0 0.842118)
(0 0 0.295456)
(0 0 0.842118)
(0 0 2.40131)
(0 0 3.64113)
(0 0 4.47186)
(0 0 4.88125)
(0 0 4.88126)
(0 0 4.47188)
(0 0 3.64115)
(0 0 2.40132)
(0 0 0.842121)
(0 0 1.27619)
(0 0 3.64113)
(0 0 5.52514)
(0 0 6.78999)
(0 0 7.4142)
(0 0 7.41421)
(0 0 6.79002)
(0 0 5.52518)
(0 0 3.64117)
(0 0 1.27621)
(0 0 1.56663)
(0 0 4.47186)
(0 0 6.78999)
(0 0 8.34896)
(0 0 9.11931)
(0 0 9.11933)
(0 0 8.34901)
(0 0 6.79006)
(0 0 4.47193)
(0 0 1.56666)
(0 0 1.70961)
(0 0 4.88125)
(0 0 7.4142)
(0 0 9.11931)
(0 0 9.96251)
(0 0 9.96253)
(0 0 9.11939)
(0 0 7.41429)
(0 0 4.88134)
(0 0 1.70965)
(0 0 1.70961)
(0 0 4.88126)
(0 0 7.41421)
(0 0 9.11933)
(0 0 9.96253)
(0 0 9.96256)
(0 0 9.11942)
(0 0 7.41432)
(0 0 4.88136)
(0 0 1.70966)
(0 0 1.56663)
(0 0 4.47188)
(0 0 6.79002)
(0 0 8.34901)
(0 0 9.11939)
(0 0 9.11942)
(0 0 8.3491)
(0 0 6.79014)
(0 0 4.47199)
(0 0 1.56668)
(0 0 1.2762)
(0 0 3.64115)
(0 0 5.52518)
(0 0 6.79006)
(0 0 7.41429)
(0 0 7.41432)
(0 0 6.79014)
(0 0 5.52529)
(0 0 3.64125)
(0 0 1.27624)
(0 0 0.842118)
(0 0 2.40132)
(0 0 3.64117)
(0 0 4.47193)
(0 0 4.88134)
(0 0 4.88136)
(0 0 4.47199)
(0 0 3.64125)
(0 0 2.4014)
(0 0 0.842152)
(0 0 0.295456)
(0 0 0.842121)
(0 0 1.27621)
(0 0 1.56666)
(0 0 1.70965)
(0 0 1.70966)
(0 0 1.56668)
(0 0 1.27624)
(0 0 0.842152)
(0 0 0.295471)
(0 0 0.13299)
(0 0 0.38063)
(0 0 0.580136)
(0 0 0.715785)
(0 0 0.783385)
(0 0 0.783386)
(0 0 0.715788)
(0 0 0.580139)
(0 0 0.380632)
(0 0 0.13299)
(0 0 0.38063)
(0 0 1.08965)
(0 0 1.6613)
(0 0 2.05032)
(0 0 2.2443)
(0 0 2.2443)
(0 0 2.05033)
(0 0 1.66132)
(0 0 1.08966)
(0 0 0.380634)
(0 0 0.580136)
(0 0 1.6613)
(0 0 2.53397)
(0 0 3.12853)
(0 0 3.42529)
(0 0 3.42529)
(0 0 3.12856)
(0 0 2.534)
(0 0 1.66133)
(0 0 0.580148)
(0 0 0.715785)
(0 0 2.05032)
(0 0 3.12853)
(0 0 3.86395)
(0 0 4.23132)
(0 0 4.23133)
(0 0 3.86399)
(0 0 3.12859)
(0 0 2.05036)
(0 0 0.715805)
(0 0 0.783385)
(0 0 2.2443)
(0 0 3.42529)
(0 0 4.23132)
(0 0 4.63415)
(0 0 4.63417)
(0 0 4.23137)
(0 0 3.42535)
(0 0 2.24436)
(0 0 0.783411)
(0 0 0.783386)
(0 0 2.2443)
(0 0 3.42529)
(0 0 4.23133)
(0 0 4.63417)
(0 0 4.63419)
(0 0 4.23139)
(0 0 3.42537)
(0 0 2.24437)
(0 0 0.783416)
(0 0 0.715788)
(0 0 2.05033)
(0 0 3.12856)
(0 0 3.86399)
(0 0 4.23137)
(0 0 4.23139)
(0 0 3.86405)
(0 0 3.12864)
(0 0 2.0504)
(0 0 0.71582)
(0 0 0.580139)
(0 0 1.66132)
(0 0 2.534)
(0 0 3.12859)
(0 0 3.42535)
(0 0 3.42537)
(0 0 3.12864)
(0 0 2.53407)
(0 0 1.66139)
(0 0 0.580168)
(0 0 0.380632)
(0 0 1.08966)
(0 0 1.66133)
(0 0 2.05036)
(0 0 2.24436)
(0 0 2.24437)
(0 0 2.0504)
(0 0 1.66139)
(0 0 1.08971)
(0 0 0.380654)
(0 0 0.13299)
(0 0 0.380634)
(0 0 0.580148)
(0 0 0.715805)
(0 0 0.783411)
(0 0 0.783416)
(0 0 0.71582)
(0 0 0.580168)
(0 0 0.380654)
(0 0 0.133)
(0 0 0.0572675)
(0 0 0.164337)
(0 0 0.251435)
(0 0 0.311318)
(0 0 0.34142)
(0 0 0.341421)
(0 0 0.31132)
(0 0 0.251437)
(0 0 0.164339)
(0 0 0.0572677)
(0 0 0.164337)
(0 0 0.471649)
(0 0 0.721754)
(0 0 0.893803)
(0 0 0.980322)
(0 0 0.980325)
(0 0 0.893812)
(0 0 0.721766)
(0 0 0.471659)
(0 0 0.16434)
(0 0 0.251435)
(0 0 0.721754)
(0 0 1.10478)
(0 0 1.36847)
(0 0 1.50115)
(0 0 1.50116)
(0 0 1.36849)
(0 0 1.1048)
(0 0 0.721775)
(0 0 0.251443)
(0 0 0.311318)
(0 0 0.893803)
(0 0 1.36847)
(0 0 1.69548)
(0 0 1.86012)
(0 0 1.86013)
(0 0 1.69551)
(0 0 1.3685)
(0 0 0.893834)
(0 0 0.311331)
(0 0 0.34142)
(0 0 0.980322)
(0 0 1.50115)
(0 0 1.86012)
(0 0 2.0409)
(0 0 2.04091)
(0 0 1.86015)
(0 0 1.5012)
(0 0 0.980361)
(0 0 0.341437)
(0 0 0.341421)
(0 0 0.980325)
(0 0 1.50116)
(0 0 1.86013)
(0 0 2.04091)
(0 0 2.04093)
(0 0 1.86016)
(0 0 1.50121)
(0 0 0.980369)
(0 0 0.34144)
(0 0 0.31132)
(0 0 0.893812)
(0 0 1.36849)
(0 0 1.69551)
(0 0 1.86015)
(0 0 1.86016)
(0 0 1.69554)
(0 0 1.36854)
(0 0 0.893856)
(0 0 0.31134)
(0 0 0.251437)
(0 0 0.721766)
(0 0 1.1048)
(0 0 1.3685)
(0 0 1.5012)
(0 0 1.50121)
(0 0 1.36854)
(0 0 1.10485)
(0 0 0.721806)
(0 0 0.251455)
(0 0 0.164339)
(0 0 0.471659)
(0 0 0.721775)
(0 0 0.893834)
(0 0 0.980361)
(0 0 0.980369)
(0 0 0.893856)
(0 0 0.721806)
(0 0 0.471688)
(0 0 0.164352)
(0 0 0.0572677)
(0 0 0.16434)
(0 0 0.251443)
(0 0 0.311331)
(0 0 0.341437)
(0 0 0.34144)
(0 0 0.31134)
(0 0 0.251455)
(0 0 0.164352)
(0 0 0.0572733)
(0 0 0.0235238)
(0 0 0.0676242)
(0 0 0.10374)
(0 0 0.128769)
(0 0 0.14143)
(0 0 0.14143)
(0 0 0.128771)
(0 0 0.103742)
(0 0 0.0676256)
(0 0 0.0235242)
(0 0 0.0676242)
(0 0 0.194416)
(0 0 0.298282)
(0 0 0.370287)
(0 0 0.40672)
(0 0 0.406722)
(0 0 0.370293)
(0 0 0.298289)
(0 0 0.194422)
(0 0 0.0676266)
(0 0 0.10374)
(0 0 0.298282)
(0 0 0.457716)
(0 0 0.568302)
(0 0 0.624277)
(0 0 0.624281)
(0 0 0.568312)
(0 0 0.45773)
(0 0 0.298294)
(0 0 0.103745)
(0 0 0.128769)
(0 0 0.370287)
(0 0 0.568302)
(0 0 0.705712)
(0 0 0.775292)
(0 0 0.775298)
(0 0 0.705727)
(0 0 0.568321)
(0 0 0.370305)
(0 0 0.128777)
(0 0 0.14143)
(0 0 0.40672)
(0 0 0.624277)
(0 0 0.775292)
(0 0 0.851779)
(0 0 0.851785)
(0 0 0.77531)
(0 0 0.624301)
(0 0 0.406742)
(0 0 0.14144)
(0 0 0.14143)
(0 0 0.406722)
(0 0 0.624281)
(0 0 0.775298)
(0 0 0.851785)
(0 0 0.851793)
(0 0 0.775317)
(0 0 0.624307)
(0 0 0.406747)
(0 0 0.141441)
(0 0 0.128771)
(0 0 0.370293)
(0 0 0.568312)
(0 0 0.705727)
(0 0 0.77531)
(0 0 0.775317)
(0 0 0.705747)
(0 0 0.568338)
(0 0 0.370318)
(0 0 0.128782)
(0 0 0.103742)
(0 0 0.298289)
(0 0 0.45773)
(0 0 0.568321)
(0 0 0.624301)
(0 0 0.624307)
(0 0 0.568338)
(0 0 0.457753)
(0 0 0.298311)
(0 0 0.103752)
(0 0 0.0676256)
(0 0 0.194422)
(0 0 0.298294)
(0 0 0.370305)
(0 0 0.406742)
(0 0 0.406747)
(0 0 0.370318)
(0 0 0.298311)
(0 0 0.194438)
(0 0 0.0676329)
(0 0 0.0235242)
(0 0 0.0676266)
(0 0 0.103745)
(0 0 0.128777)
(0 0 0.14144)
(0 0 0.141441)
(0 0 0.128782)
(0 0 0.103752)
(0 0 0.0676329)
(0 0 0.0235271)
(0 0 0.00920726)
(0 0 0.0265011)
(0 0 0.0407321)
(0 0 0.0506518)
(0 0 0.0556929)
(0 0 0.0556932)
(0 0 0.0506526)
(0 0 0.0407331)
(0 0 0.0265019)
(0 0 0.00920752)
(0 0 0.0265011)
(0 0 0.0762815)
(0 0 0.117253)
(0 0 0.145819)
(0 0 0.160339)
(0 0 0.16034)
(0 0 0.145822)
(0 0 0.117257)
(0 0 0.076285)
(0 0 0.0265025)
(0 0 0.0407321)
(0 0 0.117253)
(0 0 0.180253)
(0 0 0.224192)
(0 0 0.246531)
(0 0 0.246533)
(0 0 0.224197)
(0 0 0.18026)
(0 0 0.11726)
(0 0 0.0407348)
(0 0 0.0506518)
(0 0 0.145819)
(0 0 0.224192)
(0 0 0.27887)
(0 0 0.306678)
(0 0 0.306681)
(0 0 0.278878)
(0 0 0.224202)
(0 0 0.145829)
(0 0 0.0506559)
(0 0 0.0556929)
(0 0 0.160339)
(0 0 0.246531)
(0 0 0.306678)
(0 0 0.337271)
(0 0 0.337274)
(0 0 0.306687)
(0 0 0.246544)
(0 0 0.160351)
(0 0 0.055698)
(0 0 0.0556932)
(0 0 0.16034)
(0 0 0.246533)
(0 0 0.306681)
(0 0 0.337274)
(0 0 0.337278)
(0 0 0.306691)
(0 0 0.246547)
(0 0 0.160353)
(0 0 0.0556988)
(0 0 0.0506526)
(0 0 0.145822)
(0 0 0.224197)
(0 0 0.278878)
(0 0 0.306687)
(0 0 0.306691)
(0 0 0.278888)
(0 0 0.224211)
(0 0 0.145835)
(0 0 0.0506583)
(0 0 0.0407331)
(0 0 0.117257)
(0 0 0.18026)
(0 0 0.224202)
(0 0 0.246544)
(0 0 0.246547)
(0 0 0.224211)
(0 0 0.180272)
(0 0 0.117268)
(0 0 0.0407381)
(0 0 0.0265019)
(0 0 0.076285)
(0 0 0.11726)
(0 0 0.145829)
(0 0 0.160351)
(0 0 0.160353)
(0 0 0.145835)
(0 0 0.117268)
(0 0 0.076293)
(0 0 0.0265056)
(0 0 0.00920752)
(0 0 0.0265025)
(0 0 0.0407348)
(0 0 0.0506559)
(0 0 0.055698)
(0 0 0.0556988)
(0 0 0.0506583)
(0 0 0.0407381)
(0 0 0.0265056)
(0 0 0.00920901)
(0 0 0.00343349)
(0 0 0.00989146)
(0 0 0.0152246)
(0 0 0.0189582)
(0 0 0.0208622)
(0 0 0.0208624)
(0 0 0.0189586)
(0 0 0.0152251)
(0 0 0.00989192)
(0 0 0.00343364)
(0 0 0.00989146)
(0 0 0.0284971)
(0 0 0.0438641)
(0 0 0.0546239)
(0 0 0.0601118)
(0 0 0.0601123)
(0 0 0.0546254)
(0 0 0.0438661)
(0 0 0.0284989)
(0 0 0.00989218)
(0 0 0.0152246)
(0 0 0.0438641)
(0 0 0.0675231)
(0 0 0.0840929)
(0 0 0.0925458)
(0 0 0.0925468)
(0 0 0.0840955)
(0 0 0.0675267)
(0 0 0.0438674)
(0 0 0.015226)
(0 0 0.0189582)
(0 0 0.0546239)
(0 0 0.0840929)
(0 0 0.104737)
(0 0 0.11527)
(0 0 0.115271)
(0 0 0.10474)
(0 0 0.0840979)
(0 0 0.0546286)
(0 0 0.0189602)
(0 0 0.0208622)
(0 0 0.0601118)
(0 0 0.0925458)
(0 0 0.11527)
(0 0 0.126866)
(0 0 0.126868)
(0 0 0.115274)
(0 0 0.0925519)
(0 0 0.0601175)
(0 0 0.0208647)
(0 0 0.0208624)
(0 0 0.0601123)
(0 0 0.0925468)
(0 0 0.115271)
(0 0 0.126868)
(0 0 0.126869)
(0 0 0.115276)
(0 0 0.0925534)
(0 0 0.0601185)
(0 0 0.0208651)
(0 0 0.0189586)
(0 0 0.0546254)
(0 0 0.0840955)
(0 0 0.10474)
(0 0 0.115274)
(0 0 0.115276)
(0 0 0.104745)
(0 0 0.084102)
(0 0 0.0546314)
(0 0 0.0189613)
(0 0 0.0152251)
(0 0 0.0438661)
(0 0 0.0675267)
(0 0 0.0840979)
(0 0 0.0925519)
(0 0 0.0925534)
(0 0 0.084102)
(0 0 0.0675323)
(0 0 0.0438714)
(0 0 0.0152275)
(0 0 0.00989192)
(0 0 0.0284989)
(0 0 0.0438674)
(0 0 0.0546286)
(0 0 0.0601175)
(0 0 0.0601185)
(0 0 0.0546314)
(0 0 0.0438714)
(0 0 0.0285027)
(0 0 0.00989363)
(0 0 0.00343364)
(0 0 0.00989218)
(0 0 0.015226)
(0 0 0.0189602)
(0 0 0.0208647)
(0 0 0.0208651)
(0 0 0.0189613)
(0 0 0.0152275)
(0 0 0.00989363)
(0 0 0.00343433)
(0 0 0.00122053)
(0 0 0.00351858)
(0 0 0.00542146)
(0 0 0.00675805)
(0 0 0.00744152)
(0 0 0.0074416)
(0 0 0.00675826)
(0 0 0.00542172)
(0 0 0.0035188)
(0 0 0.00122061)
(0 0 0.00351858)
(0 0 0.0101438)
(0 0 0.0156302)
(0 0 0.0194844)
(0 0 0.0214554)
(0 0 0.0214556)
(0 0 0.0194851)
(0 0 0.0156311)
(0 0 0.0101446)
(0 0 0.00351892)
(0 0 0.00542146)
(0 0 0.0156302)
(0 0 0.0240855)
(0 0 0.0300263)
(0 0 0.0330649)
(0 0 0.0330653)
(0 0 0.0300275)
(0 0 0.0240872)
(0 0 0.0156317)
(0 0 0.00542211)
(0 0 0.00675805)
(0 0 0.0194844)
(0 0 0.0300263)
(0 0 0.0374344)
(0 0 0.041224)
(0 0 0.0412247)
(0 0 0.0374361)
(0 0 0.0300286)
(0 0 0.0194865)
(0 0 0.00675898)
(0 0 0.00744152)
(0 0 0.0214554)
(0 0 0.0330649)
(0 0 0.041224)
(0 0 0.0453983)
(0 0 0.045399)
(0 0 0.0412261)
(0 0 0.0330676)
(0 0 0.0214579)
(0 0 0.00744265)
(0 0 0.0074416)
(0 0 0.0214556)
(0 0 0.0330653)
(0 0 0.0412247)
(0 0 0.045399)
(0 0 0.0453998)
(0 0 0.0412268)
(0 0 0.0330683)
(0 0 0.0214584)
(0 0 0.00744282)
(0 0 0.00675826)
(0 0 0.0194851)
(0 0 0.0300275)
(0 0 0.0374361)
(0 0 0.0412261)
(0 0 0.0412268)
(0 0 0.0374382)
(0 0 0.0300304)
(0 0 0.0194877)
(0 0 0.00675945)
(0 0 0.00542172)
(0 0 0.0156311)
(0 0 0.0240872)
(0 0 0.0300286)
(0 0 0.0330676)
(0 0 0.0330683)
(0 0 0.0300304)
(0 0 0.0240896)
(0 0 0.0156335)
(0 0 0.00542277)
(0 0 0.0035188)
(0 0 0.0101446)
(0 0 0.0156317)
(0 0 0.0194865)
(0 0 0.0214579)
(0 0 0.0214584)
(0 0 0.0194877)
(0 0 0.0156335)
(0 0 0.0101462)
(0 0 0.00351955)
(0 0 0.00122061)
(0 0 0.00351892)
(0 0 0.00542211)
(0 0 0.00675898)
(0 0 0.00744265)
(0 0 0.00744282)
(0 0 0.00675945)
(0 0 0.00542277)
(0 0 0.00351955)
(0 0 0.00122091)
(0 0 0.000413957)
(0 0 0.00119399)
(0 0 0.00184125)
(0 0 0.00229706)
(0 0 0.00253063)
(0 0 0.00253066)
(0 0 0.00229714)
(0 0 0.00184136)
(0 0 0.00119409)
(0 0 0.000413994)
(0 0 0.00119399)
(0 0 0.00344397)
(0 0 0.00531106)
(0 0 0.00662602)
(0 0 0.00729992)
(0 0 0.00730003)
(0 0 0.00662632)
(0 0 0.00531146)
(0 0 0.00344433)
(0 0 0.00119415)
(0 0 0.00184125)
(0 0 0.00531106)
(0 0 0.00819072)
(0 0 0.0102191)
(0 0 0.0112587)
(0 0 0.0112589)
(0 0 0.0102196)
(0 0 0.00819142)
(0 0 0.0053117)
(0 0 0.00184152)
(0 0 0.00229706)
(0 0 0.00662602)
(0 0 0.0102191)
(0 0 0.0127503)
(0 0 0.0140478)
(0 0 0.014048)
(0 0 0.012751)
(0 0 0.0102201)
(0 0 0.00662692)
(0 0 0.00229745)
(0 0 0.00253063)
(0 0 0.00729992)
(0 0 0.0112587)
(0 0 0.0140478)
(0 0 0.0154776)
(0 0 0.0154779)
(0 0 0.0140486)
(0 0 0.0112599)
(0 0 0.00730098)
(0 0 0.0025311)
(0 0 0.00253066)
(0 0 0.00730003)
(0 0 0.0112589)
(0 0 0.014048)
(0 0 0.0154779)
(0 0 0.0154782)
(0 0 0.0140489)
(0 0 0.0112601)
(0 0 0.00730117)
(0 0 0.00253117)
(0 0 0.00229714)
(0 0 0.00662632)
(0 0 0.0102196)
(0 0 0.012751)
(0 0 0.0140486)
(0 0 0.0140489)
(0 0 0.0127519)
(0 0 0.0102208)
(0 0 0.00662743)
(0 0 0.00229764)
(0 0 0.00184136)
(0 0 0.00531146)
(0 0 0.00819142)
(0 0 0.0102201)
(0 0 0.0112599)
(0 0 0.0112601)
(0 0 0.0102208)
(0 0 0.00819244)
(0 0 0.00531241)
(0 0 0.00184179)
(0 0 0.00119409)
(0 0 0.00344433)
(0 0 0.0053117)
(0 0 0.00662692)
(0 0 0.00730098)
(0 0 0.00730117)
(0 0 0.00662743)
(0 0 0.00531241)
(0 0 0.003445)
(0 0 0.0011944)
(0 0 0.000413994)
(0 0 0.00119415)
(0 0 0.00184152)
(0 0 0.00229745)
(0 0 0.0025311)
(0 0 0.00253117)
(0 0 0.00229764)
(0 0 0.00184179)
(0 0 0.0011944)
(0 0 0.000414115)
(0 0 0.000134103)
(0 0 0.000386959)
(0 0 0.000597118)
(0 0 0.000745423)
(0 0 0.000821549)
(0 0 0.000821563)
(0 0 0.000745459)
(0 0 0.000597166)
(0 0 0.000387001)
(0 0 0.000134119)
(0 0 0.000386959)
(0 0 0.00111661)
(0 0 0.00172308)
(0 0 0.00215108)
(0 0 0.0023708)
(0 0 0.00237084)
(0 0 0.0021512)
(0 0 0.00172324)
(0 0 0.00111675)
(0 0 0.000387021)
(0 0 0.000597118)
(0 0 0.00172308)
(0 0 0.00265904)
(0 0 0.00331964)
(0 0 0.00365879)
(0 0 0.00365887)
(0 0 0.00331985)
(0 0 0.00265932)
(0 0 0.00172334)
(0 0 0.00059723)
(0 0 0.000745423)
(0 0 0.00215108)
(0 0 0.00331964)
(0 0 0.00414449)
(0 0 0.004568)
(0 0 0.0045681)
(0 0 0.00414477)
(0 0 0.00332002)
(0 0 0.00215144)
(0 0 0.000745578)
(0 0 0.000821549)
(0 0 0.0023708)
(0 0 0.00365879)
(0 0 0.004568)
(0 0 0.00503485)
(0 0 0.00503497)
(0 0 0.00456833)
(0 0 0.00365924)
(0 0 0.00237122)
(0 0 0.000821736)
(0 0 0.000821563)
(0 0 0.00237084)
(0 0 0.00365887)
(0 0 0.0045681)
(0 0 0.00503497)
(0 0 0.0050351)
(0 0 0.00456845)
(0 0 0.00365935)
(0 0 0.00237129)
(0 0 0.000821763)
(0 0 0.000745459)
(0 0 0.0021512)
(0 0 0.00331985)
(0 0 0.00414477)
(0 0 0.00456833)
(0 0 0.00456845)
(0 0 0.00414511)
(0 0 0.00332031)
(0 0 0.00215164)
(0 0 0.000745653)
(0 0 0.000597166)
(0 0 0.00172324)
(0 0 0.00265932)
(0 0 0.00332002)
(0 0 0.00365924)
(0 0 0.00365935)
(0 0 0.00332031)
(0 0 0.00265972)
(0 0 0.00172361)
(0 0 0.000597333)
(0 0 0.000387001)
(0 0 0.00111675)
(0 0 0.00172334)
(0 0 0.00215144)
(0 0 0.00237122)
(0 0 0.00237129)
(0 0 0.00215164)
(0 0 0.00172361)
(0 0 0.00111701)
(0 0 0.000387119)
(0 0 0.000134119)
(0 0 0.000387021)
(0 0 0.00059723)
(0 0 0.000745578)
(0 0 0.000821736)
(0 0 0.000821763)
(0 0 0.000745653)
(0 0 0.000597333)
(0 0 0.000387119)
(0 0 0.000134165)
(0 0 4.15462e-05)
(0 0 0.000119923)
(0 0 0.000185152)
(0 0 0.00023126)
(0 0 0.00025496)
(0 0 0.000254965)
(0 0 0.000231273)
(0 0 0.00018517)
(0 0 0.000119939)
(0 0 4.15524e-05)
(0 0 0.000119923)
(0 0 0.000346164)
(0 0 0.000534461)
(0 0 0.000667568)
(0 0 0.000735992)
(0 0 0.000736009)
(0 0 0.000667613)
(0 0 0.000534522)
(0 0 0.000346219)
(0 0 0.000119947)
(0 0 0.000185152)
(0 0 0.000534461)
(0 0 0.000825206)
(0 0 0.00103075)
(0 0 0.00113642)
(0 0 0.00113645)
(0 0 0.00103083)
(0 0 0.000825311)
(0 0 0.000534557)
(0 0 0.000185194)
(0 0 0.00023126)
(0 0 0.000667568)
(0 0 0.00103075)
(0 0 0.00128752)
(0 0 0.00141953)
(0 0 0.00141957)
(0 0 0.00128763)
(0 0 0.00103089)
(0 0 0.000667699)
(0 0 0.000231318)
(0 0 0.00025496)
(0 0 0.000735992)
(0 0 0.00113642)
(0 0 0.00141953)
(0 0 0.0015651)
(0 0 0.00156515)
(0 0 0.00141966)
(0 0 0.00113658)
(0 0 0.000736147)
(0 0 0.000255029)
(0 0 0.000254965)
(0 0 0.000736009)
(0 0 0.00113645)
(0 0 0.00141957)
(0 0 0.00156515)
(0 0 0.00156519)
(0 0 0.0014197)
(0 0 0.00113662)
(0 0 0.000736173)
(0 0 0.000255039)
(0 0 0.000231273)
(0 0 0.000667613)
(0 0 0.00103083)
(0 0 0.00128763)
(0 0 0.00141966)
(0 0 0.0014197)
(0 0 0.00128775)
(0 0 0.001031)
(0 0 0.000667772)
(0 0 0.000231345)
(0 0 0.00018517)
(0 0 0.000534522)
(0 0 0.000825311)
(0 0 0.00103089)
(0 0 0.00113658)
(0 0 0.00113662)
(0 0 0.001031)
(0 0 0.000825455)
(0 0 0.000534657)
(0 0 0.000185231)
(0 0 0.000119939)
(0 0 0.000346219)
(0 0 0.000534557)
(0 0 0.000667699)
(0 0 0.000736147)
(0 0 0.000736173)
(0 0 0.000667772)
(0 0 0.000534657)
(0 0 0.000346313)
(0 0 0.000119982)
(0 0 4.15524e-05)
(0 0 0.000119947)
(0 0 0.000185194)
(0 0 0.000231318)
(0 0 0.000255029)
(0 0 0.000255039)
(0 0 0.000231345)
(0 0 0.000185231)
(0 0 0.000119982)
(0 0 4.15692e-05)
(0 0 1.23251e-05)
(0 0 3.55863e-05)
(0 0 5.49665e-05)
(0 0 6.86844e-05)
(0 0 7.57439e-05)
(0 0 7.57457e-05)
(0 0 6.86893e-05)
(0 0 5.4973e-05)
(0 0 3.55921e-05)
(0 0 1.23274e-05)
(0 0 3.55863e-05)
(0 0 0.00010275)
(0 0 0.00015871)
(0 0 0.000198322)
(0 0 0.000218708)
(0 0 0.000218714)
(0 0 0.000198338)
(0 0 0.000158731)
(0 0 0.000102769)
(0 0 3.55947e-05)
(0 0 5.49665e-05)
(0 0 0.00015871)
(0 0 0.000245152)
(0 0 0.000306346)
(0 0 0.000337841)
(0 0 0.000337851)
(0 0 0.000306373)
(0 0 0.000245189)
(0 0 0.000158744)
(0 0 5.49814e-05)
(0 0 6.86844e-05)
(0 0 0.000198322)
(0 0 0.000306346)
(0 0 0.000382822)
(0 0 0.000422185)
(0 0 0.000422198)
(0 0 0.000382859)
(0 0 0.000306396)
(0 0 0.000198368)
(0 0 6.87048e-05)
(0 0 7.57439e-05)
(0 0 0.000218708)
(0 0 0.000337841)
(0 0 0.000422185)
(0 0 0.000465599)
(0 0 0.000465614)
(0 0 0.000422228)
(0 0 0.000337899)
(0 0 0.000218762)
(0 0 7.57681e-05)
(0 0 7.57457e-05)
(0 0 0.000218714)
(0 0 0.000337851)
(0 0 0.000422198)
(0 0 0.000465614)
(0 0 0.000465631)
(0 0 0.000422243)
(0 0 0.000337912)
(0 0 0.000218771)
(0 0 7.57714e-05)
(0 0 6.86893e-05)
(0 0 0.000198338)
(0 0 0.000306373)
(0 0 0.000382859)
(0 0 0.000422228)
(0 0 0.000422243)
(0 0 0.000382902)
(0 0 0.000306432)
(0 0 0.000198393)
(0 0 6.87141e-05)
(0 0 5.4973e-05)
(0 0 0.000158731)
(0 0 0.000245189)
(0 0 0.000306396)
(0 0 0.000337899)
(0 0 0.000337912)
(0 0 0.000306432)
(0 0 0.000245239)
(0 0 0.000158778)
(0 0 5.49942e-05)
(0 0 3.55921e-05)
(0 0 0.000102769)
(0 0 0.000158744)
(0 0 0.000198368)
(0 0 0.000218762)
(0 0 0.000218771)
(0 0 0.000198393)
(0 0 0.000158778)
(0 0 0.000102802)
(0 0 3.56069e-05)
(0 0 1.23274e-05)
(0 0 3.55947e-05)
(0 0 5.49814e-05)
(0 0 6.87048e-05)
(0 0 7.57681e-05)
(0 0 7.57714e-05)
(0 0 6.87141e-05)
(0 0 5.49942e-05)
(0 0 3.56069e-05)
(0 0 1.23332e-05)
(0 0 3.50579e-06)
(0 0 1.01246e-05)
(0 0 1.56441e-05)
(0 0 1.95555e-05)
(0 0 2.15703e-05)
(0 0 2.15709e-05)
(0 0 1.95572e-05)
(0 0 1.56463e-05)
(0 0 1.01266e-05)
(0 0 3.50659e-06)
(0 0 1.01246e-05)
(0 0 2.92398e-05)
(0 0 4.51809e-05)
(0 0 5.6478e-05)
(0 0 6.22975e-05)
(0 0 6.22994e-05)
(0 0 5.64833e-05)
(0 0 4.51882e-05)
(0 0 2.92464e-05)
(0 0 1.01274e-05)
(0 0 1.56441e-05)
(0 0 4.51809e-05)
(0 0 6.98142e-05)
(0 0 8.72721e-05)
(0 0 9.62658e-05)
(0 0 9.62691e-05)
(0 0 8.72812e-05)
(0 0 6.98265e-05)
(0 0 4.51923e-05)
(0 0 1.56491e-05)
(0 0 1.95555e-05)
(0 0 5.6478e-05)
(0 0 8.72721e-05)
(0 0 0.000109097)
(0 0 0.000120342)
(0 0 0.000120346)
(0 0 0.00010911)
(0 0 8.72886e-05)
(0 0 5.64932e-05)
(0 0 1.95623e-05)
(0 0 2.15703e-05)
(0 0 6.22975e-05)
(0 0 9.62658e-05)
(0 0 0.000120342)
(0 0 0.000132746)
(0 0 0.000132751)
(0 0 0.000120356)
(0 0 9.62851e-05)
(0 0 6.23154e-05)
(0 0 2.15783e-05)
(0 0 2.15709e-05)
(0 0 6.22994e-05)
(0 0 9.62691e-05)
(0 0 0.000120346)
(0 0 0.000132751)
(0 0 0.000132756)
(0 0 0.000120361)
(0 0 9.62895e-05)
(0 0 6.23184e-05)
(0 0 2.15794e-05)
(0 0 1.95572e-05)
(0 0 5.64833e-05)
(0 0 8.72812e-05)
(0 0 0.00010911)
(0 0 0.000120356)
(0 0 0.000120361)
(0 0 0.000109124)
(0 0 8.73006e-05)
(0 0 5.65014e-05)
(0 0 1.95653e-05)
(0 0 1.56463e-05)
(0 0 4.51882e-05)
(0 0 6.98265e-05)
(0 0 8.72886e-05)
(0 0 9.62851e-05)
(0 0 9.62895e-05)
(0 0 8.73006e-05)
(0 0 6.98429e-05)
(0 0 4.52035e-05)
(0 0 1.56533e-05)
(0 0 1.01266e-05)
(0 0 2.92464e-05)
(0 0 4.51923e-05)
(0 0 5.64932e-05)
(0 0 6.23154e-05)
(0 0 6.23184e-05)
(0 0 5.65014e-05)
(0 0 4.52035e-05)
(0 0 2.9257e-05)
(0 0 1.01314e-05)
(0 0 3.50659e-06)
(0 0 1.01274e-05)
(0 0 1.56491e-05)
(0 0 1.95623e-05)
(0 0 2.15783e-05)
(0 0 2.15794e-05)
(0 0 1.95653e-05)
(0 0 1.56533e-05)
(0 0 1.01314e-05)
(0 0 3.50845e-06)
(0 0 9.57364e-07)
(0 0 2.76537e-06)
(0 0 4.27426e-06)
(0 0 5.34457e-06)
(0 0 5.89636e-06)