/*--------------------------------*- C++ -*----------------------------------*\
| =========                 |                                                 |
| \\      /  F ield         | OpenFOAM: The Open Source CFD Toolbox           |
|  \\    /   O peration     | Version:  v2106                                 |
|   \\  /    A nd           | Website:  www.openfoam.com                      |
|    \\/     M anipulation  |                                                 |
\*---------------------------------------------------------------------------*/
FoamFile
{
    version     2.0;
    format      ascii;
    arch        "LSB;label=32;scalar=64";
    class       volScalarField;
    location    "40";
    object      gradTy;
}
// * * * * * * * * * * * * * * * * * * * * * * * * * * * * * * * * * * * * * //

dimensions      [0 -1 0 1 0 0 0];

internalField   nonuniform List<scalar> 
10000
(
-0.00018097872
-4.9463343e-05
-0.00013523883
-6.143758e-05
0.00024497115
7.8229751e-05
-2.7470889e-05
0.00030600781
8.8043426e-05
-0.00021141722
-6.2269107e-07
6.7986605e-05
9.9841657e-05
0.0004550802
0.00065023107
0.00022465679
0.00035145425
0.00048976497
-0.00020096525
-0.00038188639
0.00071127801
0.00069331671
0.0010983718
0.0011721352
0.00054870497
0.00062583825
0.00064899382
-0.00014750137
-0.00020139879
0.0001379799
0.0011028382
0.0016731541
0.0016532283
0.001123487
0.0010432466
0.00099308031
0.00024894794
9.1429001e-05
0.00041426307
0.00015320543
0.0017868521
0.0019963529
0.0015564284
0.0014500559
0.0014260216
0.00067063093
0.0004395917
0.00059773433
0.00018107903
-3.321577e-05
0.0018477754
0.0014391119
0.0015489981
0.0015394011
0.0007546997
0.00055297102
0.00068523786
0.0003482165
0.00017272572
0.00039422429
0.00093077415
0.0012724415
0.0011958827
0.00049910182
0.00029423146
0.0004262055
8.9477055e-05
0.00033233565
0.00065045086
0.00044756689
0.00082060208
0.00099387356
0.0002681827
0.00014348114
0.00043349795
-0.00011503127
-7.9014086e-05
0.0004459425
0.00012355775
-8.1137188e-05
0.00086184346
8.5705665e-05
-9.8080479e-06
0.00037118733
5.1968271e-05
-0.00025976308
9.7975914e-05
-0.00014453178
-0.00042910361
-8.2412327e-05
0.00016579109
-0.00013366961
4.5177179e-05
9.2582942e-05
-0.00012886151
-5.028041e-05
1.8804125e-05
-0.00018553629
-0.00011765911
4.5591151e-05
-0.00029906988
-0.00019170047
2.365878e-05
0.00010989011
0.00017465595
0.00036187805
0.00020486912
8.8169258e-05
7.0594088e-05
-0.00017757649
0.00030570681
0.00078980003
0.00096902863
0.0011883104
0.0012858222
0.00099605487
0.00068096284
0.00045599023
-0.00012547324
-0.00052374966
0.0023246426
0.0027770287
0.0027231533
0.0027084814
0.0020677464
0.0013509052
0.00097127554
0.00017589002
-0.0003151338
-8.7784148e-06
0.0038422246
0.0040687205
0.0041590182
0.0034133138
0.00261341
0.0021067135
0.0010819746
0.00031656646
0.0004949716
0.00071206495
0.0045440651
0.0049220469
0.0043518094
0.0035644708
0.0030452093
0.0020643273
0.0013082164
0.001240616
0.0010694461
0.001003045
0.0041599196
0.0042052392
0.0035550603
0.0031087684
0.0020236251
0.0013717758
0.0014868815
0.0014028967
0.0012341605
0.001293685
0.0032918913
0.002881328
0.0027518267
0.0017063132
0.00096168
0.00088260228
0.00099280115
0.0012229475
0.0012902399
0.0012466142
0.00213309
0.0019316776
0.0013266541
0.00064526844
0.00073965131
0.00040649832
0.00048693047
0.0007039371
0.00059350157
0.0008444228
0.00084174377
0.00044312537
-0.00013799573
0.00025845685
0.00025750282
2.0886034e-05
0.00014829109
4.4553076e-05
0.00028877687
0.00053315802
7.5197931e-05
-0.00017297259
-0.00019031967
3.1264297e-05
-4.5590734e-05
-1.3003084e-05
-5.9076607e-06
-4.2086735e-05
0.00016137318
0.00012083399
-0.00011518633
-1.3307594e-05
9.1825901e-05
0.00033422935
0.00032448255
0.00024370792
0.00017729659
0.00012550701
-4.0430431e-05
-0.00026543717
0.0010575546
0.0013680729
0.001634268
0.001808554
0.0015942163
0.001001709
0.00071046108
0.00038037442
-0.00035213057
-0.00041954067
0.0034332511
0.0039545567
0.0038737323
0.0034461223
0.0026400299
0.0018526439
0.0010571753
0.00014280138
7.9043681e-07
0.000690984
0.0053160247
0.00566501
0.0052759732
0.0044313076
0.0035436328
0.0027740134
0.0014771469
0.00093780361
0.0014746672
0.001728997
0.0062706777
0.0061348957
0.0054638326
0.0045414172
0.0038065388
0.0027507905
0.0022006106
0.0023544267
0.0022027475
0.0021026173
0.0056010736
0.0053802943
0.0047173182
0.00379744
0.0026508327
0.0021915123
0.0026261508
0.0024968907
0.0022189319
0.0024692464
0.0042618488
0.0040845477
0.0036405147
0.0023747057
0.0018043051
0.0019783421
0.0021096839
0.0020906907
0.0023690229
0.0026162162
0.0028180582
0.0024914678
0.0017554669
0.0014350834
0.0017529875
0.0014372205
0.0013457688
0.0016965597
0.0021419916
0.0020369163
0.0010521144
0.00046569798
0.00025219975
0.001013881
0.0010433932
0.00076207192
0.001015749
0.0012875974
0.0013561057
0.0014945608
3.4934393e-05
-0.00019007225
-1.0005427e-05
0.00027005679
0.00015954767
0.00020330341
0.00032642405
0.00036809888
0.00025637388
0.00046040231
3.0288599e-05
0.00025327902
0.00023648821
0.00028195954
0.00030310592
0.00018654746
6.0078955e-06
0.00011981189
9.2849045e-05
-0.00010372969
0.0015123989
0.0018216983
0.001803052
0.0017530119
0.0015525727
0.00085617865
0.00047200291
0.00063384738
0.00026946222
0.00026435186
0.0038433662
0.0038863872
0.0037746797
0.0035207815
0.0026364295
0.0019001751
0.0013960157
0.00087402842
0.00094810599
0.0016081098
0.0054485283
0.0055484548
0.005198049
0.0044102045
0.0036741371
0.0031349846
0.0022153519
0.0019408426
0.0025230375
0.0027310341
0.0062611491
0.0061180308
0.005364316
0.0044974246
0.0040890963
0.0033658903
0.0031652416
0.0034014294
0.0032252889
0.0032162479
0.005872592
0.0054269453
0.0047920226
0.004186532
0.0033332378
0.0032626776
0.0038249138
0.0035167834
0.0033024773
0.003537112
0.0045370813
0.0044369779
0.0043147503
0.003410832
0.0031206088
0.0034463716
0.0033747147
0.0032636079
0.0037950158
0.003550713
0.0030920601
0.0032223219
0.0028895202
0.0027744126
0.0031972058
0.0028344602
0.0026747696
0.0032547614
0.0034794892
0.0026699018
0.0017208794
0.0013855674
0.0013513845
0.0021196489
0.0021415764
0.0019344677
0.0021619051
0.0022215732
0.0015770454
0.0014169214
0.00032155308
0.00012497433
0.00031814606
0.0005649769
0.00045681088
0.00055894983
0.00061323391
0.00039608134
7.3508942e-05
0.00028933187
0.00031519515
0.00022699207
0.00025931376
0.00026676431
0.00019979855
0.00011476698
5.5464396e-05
0.00037708869
0.00039623885
0.00015174343
0.0016954286
0.0016116065
0.001596173
0.0015325429
0.0013297295
0.00085064079
0.00091713417
0.0015227754
0.0011963279
0.0010326941
0.0032713925
0.0033310509
0.0031923288
0.0030952142
0.0024864255
0.0021823664
0.0021646532
0.0017916859
0.0018108535
0.0023391466
0.0047952631
0.0047059907
0.0045288201
0.0040000872
0.0036739887
0.0035893512
0.0029933936
0.0027528401
0.00324845
0.0034281746
0.0055546458
0.0053266497
0.0048727439
0.0044138023
0.004462008
0.0040519388
0.0040012955
0.0041258224
0.0038425823
0.0037134721
0.0052905626
0.0050740611
0.0048779673
0.0047522894
0.0041973728
0.0042915772
0.0047445668
0.0041821282
0.0038905376
0.0036234301
0.0045778615
0.0049713441
0.0052499964
0.004580664
0.0044134858
0.004654548
0.0043040372
0.0041880532
0.0043432943
0.0033072419
0.0039356217
0.0044467834
0.0042148157
0.0040929845
0.0044698727
0.0039342718
0.0036158439
0.003973529
0.0029860925
0.0022870202
0.0028496515
0.0025116341
0.0023595708
0.0030590954
0.0030349058
0.0026467456
0.0024762079
0.001765934
0.00078969924
-6.8607021e-05
0.00067297862
0.00042848344
0.00056388971
0.00078067886
0.00068370611
0.00069460551
0.0005056346
3.9038363e-06
3.9586403e-05
-0.00056830017
0.00037868081
0.00015123569
0.0002375265
0.0002497416
0.0002229926
0.00027236045
0.00030115357
0.00068163075
0.00069309315
0.00035021183
0.0015305135
0.0013187823
0.0013471406
0.0013541969
0.0014200942
0.0013013353
0.0016378559
0.002361385
0.0019488979
0.0014853441
0.0026719348
0.0028196936
0.0027073495
0.0028021487
0.0025768268
0.0026050852
0.0028040591
0.0023983828
0.0021721599
0.0025002854
0.0040598035
0.0040380025
0.0041327572
0.00390748
0.0039021604
0.0040288905
0.0034500046
0.0029699755
0.0031759718
0.0032978265
0.0048279184
0.0048618468
0.0047750571
0.0046647838
0.004896468
0.004425271
0.0041914201
0.0039959447
0.0035666534
0.0031875564
0.0049326325
0.0050498741
0.0051503945
0.0052771073
0.0046982395
0.0045720597
0.0048147357
0.0041212777
0.0035625813
0.0029195749
0.004951525
0.0055654308
0.0060115753
0.005358729
0.0049526609
0.0049294036
0.0045018791
0.0042268221
0.0034003785
0.0024273151
0.004865409
0.0054533186
0.0051764517
0.0048214201
0.0049024195
0.0041966537
0.0036502651
0.0030951532
0.0015346094
0.0008305642
0.0037392705
0.003242142
0.0028632296
0.003344045
0.0031910814
0.0025356568
0.0019893787
0.00073615044
-0.00027521048
-0.00064477638
0.00091354093
0.00057065959
0.00060450488
0.00078940976
0.00068574167
0.00053667865
0.0002570708
-0.00011203014
-0.00021229276
-0.00035840763
0.00028992421
9.8031743e-05
0.00022513806
0.00030622662
0.00038232408
0.00046482548
0.00049245955
0.0008808632
0.00084862374
0.00036030127
0.0012986185
0.0012014389
0.0013782169
0.0014916625
0.0017592148
0.0017205736
0.0020633758
0.0027671379
0.002110029
0.0012767398
0.0024793575
0.0027916498
0.0027695812
0.0029348831
0.0027971927
0.0028224069
0.0029158918
0.002262618
0.0016218168
0.0018051309
0.0038573519
0.0040931314
0.0042383501
0.0041207432
0.0040816927
0.0039543486
0.0030992447
0.0022013977
0.002136268
0.002154457
0.0046985272
0.0049364257
0.0049274385
0.0048239499
0.0047610445
0.0039377352
0.0035399397
0.00305517
0.0025713249
0.0020213332
0.0049717619
0.0051369648
0.0052759234
0.0052556645
0.0042934758
0.0040345604
0.0042225651
0.0033384769
0.0025263273
0.0019621906
0.0052299473
0.0058540039
0.0062765118
0.0052942157
0.0045235618
0.0044116509
0.0038274785
0.0030094354
0.0018223726
0.0013937059
0.0053563301
0.0058905767
0.0054029834
0.0045965022
0.0044400074
0.0036278876
0.0027437702
0.001622782
0.00077478495
-0.00019605324
0.0041165949
0.003335752
0.0026261973
0.0028782654
0.0025792567
0.0018444292
0.0012029707
0.00022869964
-0.00061586416
-6.176944e-05
0.00098350065
0.00049517818
0.00042797469
0.00061738768
0.00044010068
0.00025072681
6.4009481e-05
-3.5051128e-05
-0.00058321566
0.00033434552
0.00015728362
0.00011907641
0.0003383293
0.00043074276
0.00053076788
0.00056573496
0.00051419058
0.00087071428
0.00079342703
0.000180916
0.0012807146
0.0015522833
0.0018171797
0.0018487611
0.002035154
0.0017465707
0.0018663481
0.0024559756
0.0015272959
0.00043698753
0.0028853744
0.0033528742
0.0031818523
0.0031653593
0.0027244792
0.0023680297
0.0022293209
0.0012884952
0.00032656192
0.00038113945
0.0042067053
0.0044953632
0.0044246797
0.0040379901
0.003561947
0.0030952245
0.0021010021
0.00087469385
0.00067394626
0.00054222659
0.0048773048
0.0050797929
0.0047751146
0.0042824638
0.0038323493
0.0030181344
0.0026402543
0.001965604
0.0014535258
0.0010106702
0.0049746101
0.004949744
0.0048058044
0.0044545865
0.0033448597
0.003262492
0.0032622631
0.0022111419
0.0014678884
0.0012813914
0.0051085138
0.0055659831
0.0058179196
0.0044864491
0.0035973894
0.0034339192
0.0025460397
0.0016253285
0.0011058834
0.00059986152
0.0052331453
0.0056520003
0.0048940936
0.0037492418
0.0034670388
0.0025625136
0.0016726638
0.0011223576
0.00031835268
0.00011189039
0.0039618384
0.0029271412
0.0019428506
0.002019786
0.0016103837
0.0010648522
0.00068063335
3.938547e-05
-0.00032983402
-0.00022300412
0.00091585444
0.00030334346
0.00018898237
0.00033972858
0.0001011692
4.4491531e-05
-2.3162009e-05
-0.00029285629
-0.00016080376
-0.00022163656
0.0002131491
0.00024572207
0.00053997684
0.00060747823
0.00058844521
0.00048109774
0.00035371896
0.00072207935
0.00059250789
-0.00010919793
0.0017039172
0.0021941585
0.0023715112
0.0020929634
0.0018559142
0.0011372142
0.0010799406
0.0016252772
0.00052464927
-0.00064978187
0.0034728692
0.0040155033
0.0033716741
0.0028704977
0.0019133711
0.0012334038
0.0010327927
-4.6746806e-05
-0.0011026634
-0.001068288
0.0045823325
0.0046550353
0.004066736
0.0031967327
0.0023336451
0.001913441
0.001047422
-0.00021270407
-0.00052218428
-0.00060647261
0.0048672518
0.0046776814
0.003911503
0.0030405876
0.0026282113
0.0022427839
0.0019652422
0.00131424
0.00072510969
0.00061516147
0.0044846335
0.0041325445
0.0037086604
0.0032519663
0.0024224379
0.0025889972
0.0024366267
0.0015194832
0.0011092129
0.0011356784
0.0044125829
0.0047740554
0.0049006463
0.0034939052
0.002774502
0.0025653616
0.0017049878
0.0012559117
0.0011671169
0.00039021779
0.0046657182
0.0050239016
0.0041104269
0.0028884462
0.0025408213
0.001648314
0.001213408
0.001110443
-4.5171788e-05
0.00022655132
0.0035505982
0.0023036822
0.0012755389
0.0012821417
0.0008817712
0.0005830631
0.00049796625
-0.00028263099
-0.00038592532
-0.00036656956
0.00079094951
8.9243597e-05
7.9954627e-06
0.00011216067
-4.8196684e-05
3.8861759e-05
-3.0553148e-05
-0.00047907095
0.00015059569
-0.00046616699
0.00037936335
0.00046498978
0.00071029325
0.00066208772
0.00045849979
0.00025503012
0.00012226326
0.00050801816
0.00029071778
-0.00040084399
0.0022254397
0.0027218347
0.002541532
0.0017743627
0.0010426486
8.315678e-05
3.2597595e-05
0.0005374458
-0.00068076441
-0.0017156733
0.0037951987
0.0040908457
0.002847727
0.001795696
0.0004817586
-0.00020319047
-0.00036433147
-0.0015190628
-0.0025010433
-0.0023184558
0.0044264682
0.0040487781
0.0029275849
0.0016828098
0.00083270214
0.0006977327
-8.5484115e-05
-0.0012644954
-0.0015430381
-0.0013745396
0.0041314511
0.0035208645
0.002440245
0.0015219784
0.0014551682
0.0013126547
0.001117801
0.00064116398
0.00025178167
0.0003889505
0.0033872532
0.0028828983
0.0023772027
0.0020368088
0.0014590165
0.0016994416
0.0017423648
0.0011401488
0.0011103012
0.00069704322
0.0034303365
0.0038098191
0.003884626
0.0024939471
0.0019223986
0.0018224568
0.0013631059
0.0013073997
0.00079125278
8.6133295e-05
0.0039214241
0.0041741064
0.0032080626
0.0020373953
0.0017505097
0.0011713761
0.0011184459
0.00059952307
-8.0845356e-05
-0.00071484257
0.002912032
0.0015487382
0.00065891294
0.00074934596
0.00054886869
0.00049713225
0.00010576301
-0.00072413368
-0.0012086027
-0.00078090644
0.00058498536
-0.00010657682
-0.00010495423
1.5148371e-05
7.3779175e-06
0.0001065942
-0.0002681272
-0.00036348524
-0.00069079213
-7.835471e-05
0.00059732925
0.00058786314
0.00073023284
0.00050563591
0.00019258997
-1.9415175e-05
-0.00013934251
0.00021773805
-0.00013284697
-0.00071215468
0.0024993793
0.0026987346
0.0020676534
0.00082547038
-0.00014355038
-0.0010948061
-0.0011196998
-0.00083719056
-0.0020868205
-0.0028188453
0.003387622
0.0032642809
0.0015143576
0.00016306004
-0.0011499916
-0.0016813498
-0.0019361234
-0.0032312917
-0.0038358691
-0.0033955677
0.00338687
0.0025804059
0.0011756663
-8.3943405e-05
-0.00063997413
-0.00070489972
-0.001554033
-0.0025587212
-0.0025190516
-0.0020075884
0.0026923163
0.00190474
0.00077204035
6.0330194e-05
0.00015108392
-9.8586756e-05
-0.00013201191
-0.00039115318
-0.00052682984
-0.00042706995
0.0020484664
0.0015505678
0.0010723172
0.00076443629
0.00015825845
0.00048134064
0.00071965249
0.00018518426
8.5710496e-06
-0.00092724587
0.0023770081
0.0027327385
0.0026346241
0.001182797
0.00078080322
0.00089023064
0.00048464691
0.00025606036
-0.00080471943
-0.0014490804
0.002920866
0.0029306094
0.0019537457
0.0010308643
0.00098872755
0.00063604633
0.00027764622
-0.00065331997
-0.0015857964
-0.0018959275
0.0019697913
0.00057495166
-1.1863793e-05
0.00041067622
0.00053926928
0.00037475951
-0.0005731605
-0.0013303812
-0.0018157682
-0.0020656468
0.0003114332
-0.00026787461
-0.00017658344
2.5659877e-05
0.00016439219
9.2166431e-05
-0.00045948565
-0.00033740747
-0.00066623975
-0.00050399308
0.00077616655
0.0005302205
0.00057371909
0.00023347252
-6.2244718e-05
-0.0002277488
-0.00034475246
-5.152464e-05
-0.00045632432
-0.00091576779
0.0022930868
0.0019894154
0.0010272404
-0.00037107021
-0.001203772
-0.0019876794
-0.001953905
-0.0019942327
-0.0030351767
-0.0035109682
0.0021003866
0.0016552646
-0.00026009917
-0.0014382791
-0.0024081565
-0.0026671322
-0.0031152922
-0.0044857537
-0.0046249897
-0.0039400313
0.001647827
0.00069388173
-0.00058318537
-0.0014541759
-0.0015652283
-0.0017755332
-0.0028360681
-0.0035990634
-0.0033644146
-0.0025990119
0.0010622645
0.00037043236
-0.00055434481
-0.00085842063
-0.00087570228
-0.0014831158
-0.0015712014
-0.0018979984
-0.0021080031
-0.0022140451
0.00081298267
0.0003892209
6.2849836e-05
-0.00031791444
-0.0012079899
-0.0010134138
-0.0011011697
-0.0019736057
-0.0025481075
-0.0030266251
0.001257772
0.0015221085
0.0012512192
-0.00029651297
-0.00057231074
-0.00071139502
-0.0015325026
-0.0022574867
-0.0032782077
-0.0037653947
0.0015955769
0.001428219
0.00051430538
-8.1478189e-05
-1.4040924e-05
-0.00061827953
-0.0014609785
-0.0023639846
-0.0038055843
-0.0032915124
0.00087800248
-0.00041836239
-0.00063873298
0.00012736043
0.00036131851
-0.00018868641
-0.00069170067
-0.0016965939
-0.0016192282
-0.0015246592
7.5467955e-05
-0.00038397547
-0.0002417262
7.2663488e-05
0.00026854205
1.9688718e-06
-5.0469544e-05
-0.00032282225
0.0002922452
-0.00025977626
0.00077711299
0.00034614707
0.00030542577
6.2356473e-06
-0.00014604838
-0.00026186135
-0.00040557499
-0.00025534782
-0.00057668427
-0.0010280561
0.0015566809
0.0008491499
-0.00015957508
-0.0012338645
-0.0016714746
-0.0023682398
-0.0024558159
-0.0027497372
-0.0033657331
-0.0037643525
0.00037853977
-0.00013132757
-0.0017044748
-0.0023459523
-0.0030574369
-0.0032603681
-0.0039567182
-0.005004248
-0.004846985
-0.0039792876
-0.00011447867
-0.00079168981
-0.001626378
-0.0021446518
-0.0021417638
-0.0025536072
-0.0035950401
-0.0041785388
-0.0040055379
-0.0034578108
-0.00017785067
-0.00057999603
-0.0013122258
-0.0014944119
-0.0017211812
-0.0025537325
-0.0027972729
-0.0036080857
-0.0039272212
-0.004228745
-0.00011754364
-0.00050683366
-0.00090188482
-0.0014061147
-0.002355161
-0.0024822062
-0.0031994863
-0.0043785761
-0.0049373113
-0.0048094902
0.00010652974
0.00011630007
-0.00027496768
-0.0016275797
-0.001899899
-0.0026819325
-0.0037962687
-0.004693416
-0.0055749351
-0.0053758895
0.00013705448
-0.00011960913
-0.00077286273
-0.001009876
-0.0011833602
-0.0021398241
-0.0029211846
-0.0039184903
-0.0041333387
-0.0040215435
-9.4550074e-05
-0.0012536126
-0.0011091653
-0.00022865197
-0.00038843718
-0.00084931134
-0.00081935079
-0.0015317844
-0.00092240427
-5.6347434e-05
-5.5583199e-05
-0.00050695519
-0.0003213296
7.1509741e-05
4.3821799e-05
-0.00012950603
0.0001290359
3.1910948e-06
0.00020356611
0.00058056228
0.00062668098
9.8659009e-05
8.3965531e-05
-8.4275255e-05
-0.00014092535
-0.0004274963
-0.00061134794
-0.00044310243
-0.00056935195
-0.0011189504
0.00061659276
-0.00019748052
-0.00096422159
-0.0016330086
-0.0020809197
-0.0029072193
-0.0029232084
-0.0029526692
-0.0032570813
-0.0037278248
-0.0010416653
-0.0013160666
-0.0024771934
-0.0029427977
-0.0036237001
-0.0035357836
-0.0039921785
-0.0047780978
-0.0048490977
-0.0041376016
-0.0012110308
-0.0015483669
-0.0023277287
-0.0026948739
-0.0024141624
-0.0026985533
-0.003708222
-0.0046762216
-0.0048291177
-0.0048680761
-0.0008766261
-0.0013914579
-0.0021508369
-0.0019844437
-0.0021545163
-0.0032380419
-0.0038647232
-0.0050452623
-0.0055889157
-0.0054946821
-0.0010493865
-0.0017550204
-0.0018916752
-0.0021234983
-0.0031857346
-0.0038337056
-0.0048074193
-0.0058299839
-0.0062584365
-0.0061006543
-0.0012877468
-0.0013111557
-0.0013331963
-0.0025534698
-0.0033108647
-0.0043606902
-0.0053071428
-0.0060320377
-0.0063804452
-0.006050307
-0.001154803
-0.0010918092
-0.0014886759
-0.0019487282
-0.0026095715
-0.0036729201
-0.0040605886
-0.0047462225
-0.0040929359
-0.0034534509
-0.00061870739
-0.0016324796
-0.001393863
-0.00099198319
-0.0015857176
-0.0014414027
-0.0018563878
-0.0014596722
-0.00056361628
-0.00053939683
-5.7397701e-05
-0.0006069961
-0.00037122665
-0.00013266547
-0.00039719901
-6.9843052e-05
-0.00029201061
0.00015024906
0.00013431244
0.00016639541
0.00049964179
-7.643871e-05
2.1795718e-05
-0.00013091193
-0.00012502507
-0.00049957163
-0.000602985
-0.00038533301
-0.0004955354
-0.0011423386
1.1473415e-05
-0.00070529552
-0.0013007692
-0.0016251495
-0.0021143315
-0.0028786623
-0.0027867955
-0.0027011143
-0.0031978875
-0.0038430522
-0.0017160323
-0.0017977422
-0.0026358862
-0.0029008729
-0.0035372107
-0.0034319541
-0.0037525168
-0.0047806454
-0.0051754143
-0.0046424078
-0.0016489997
-0.001869231
-0.0024625623
-0.0027705554
-0.0026203935
-0.0028890007
-0.003923996
-0.0052624034
-0.0055731699
-0.0053933675
-0.0014237029
-0.0019766921
-0.0026772154
-0.0025077735
-0.0027956605
-0.003787159
-0.004691619
-0.0057883597
-0.0063533286
-0.0058932724
-0.0020649642
-0.0027819043
-0.0027374279
-0.0029972101
-0.0040410309
-0.0048931682
-0.0056208495
-0.0064721017
-0.0066707685
-0.006655946
-0.0024004763
-0.0022291184
-0.0022229284
-0.0035778094
-0.0045963311
-0.0055790102
-0.0061752644
-0.0065593778
-0.0062140469
-0.0063170148
-0.0017506398
-0.0015894651
-0.0021617319
-0.0030123631
-0.0038109055
-0.0046740726
-0.0048608244
-0.0047128551
-0.0050977199
-0.0036381615
-0.00076395713
-0.0018994659
-0.0019058952
-0.0017612282
-0.0020368593
-0.0018661404
-0.0022207034
-0.0016237778
-0.0011460102
-0.0018536616
-6.7717072e-05
-0.00071452049
-0.00049782684
-0.00035918252
-0.00037795854
-5.2478187e-05
-0.00036807696
-0.00012112376
0.00060496182
-0.00059289148
0.00052032109
-2.598743e-05
0.00016602189
2.1019143e-05
1.1580572e-05
-0.00052322787
-0.00049980734
-0.00030533808
-0.00061169157
-0.0013019888
8.1763349e-05
-0.00044968556
-0.0009725137
-0.0011875268
-0.0021150553
-0.0026870136
-0.0025086858
-0.0026513435
-0.0032591732
-0.0037805574
-0.0016246199
-0.00155411
-0.0023624611
-0.0029940148
-0.0035040406
-0.0029927208
-0.0035792996
-0.0047895638
-0.0047554434
-0.0039988328
-0.0016176748
-0.0018493363
-0.002760216
-0.002990916
-0.0022397393
-0.0028026905
-0.0041103524
-0.005186482
-0.0055293421
-0.0053156275
-0.0016690588
-0.0024854295
-0.0031685457
-0.0024841355
-0.0029803202
-0.0043641759
-0.0050507628
-0.005842655
-0.006370425
-0.006289884
-0.00271297
-0.0034800519
-0.0031066005
-0.0035553109
-0.0049772133
-0.0056257532
-0.0056408054
-0.006706293
-0.0066530733
-0.0058812378
-0.0030124621
-0.0026856272
-0.0029767919
-0.0044824706
-0.0053605837
-0.0059609492
-0.0064411231
-0.0067495893
-0.0067085899
-0.0066345724
-0.0019524966
-0.0021203234
-0.0027029846
-0.0032964672
-0.0041219741
-0.0046161292
-0.0051342417
-0.0048835961
-0.0051417388
-0.0056463566
-0.0010310675
-0.0025260436
-0.0021602815
-0.0017353126
-0.0022894268
-0.0021825416
-0.0014643715
-0.0020675249
-0.0022271325
-0.00083944098
-0.00023689912
-0.00092719629
-0.00058448842
-0.00042278926
-0.0004420123
-0.0003690953
7.2544897e-05
-0.00031975039
-0.00026386716
0.00060537734
0.00068117828
0.00029013985
0.00038420144
-0.00010108232
1.9615925e-05
-0.00021737376
-0.00044857302
-0.00026662364
-0.00043173818
-0.0011559082
0.00088493935
0.00043947435
-0.0008066068
-0.00097115641
-0.0013506926
-0.0018210442
-0.0021196162
-0.0019680216
-0.0023669807
-0.0027537062
-0.00079279525
-0.0013796287
-0.0022034258
-0.001941455
-0.0023372349
-0.0023641404
-0.0029379301
-0.0036892565
-0.003797969
-0.002791563
-0.0015636838
-0.0021105623
-0.0021077697
-0.0022443711
-0.0018794661
-0.0027882143
-0.0037020818
-0.0047354678
-0.0048775296
-0.0044985532
-0.0020169099
-0.0021913468
-0.0028667976
-0.0026140323
-0.0034106404
-0.0044630982
-0.0047650167
-0.0056207815
-0.0054856959
-0.0053674751
-0.0026259484
-0.0033282319
-0.0033948718
-0.0039289268
-0.0052174876
-0.0052833029
-0.0057575453
-0.0065206912
-0.0062267581
-0.0065786708
-0.002919637
-0.0029935116
-0.0030666147
-0.0043186281
-0.0050138678
-0.0054763113
-0.006251256
-0.0063307609
-0.0077223199
-0.0075867269
-0.0022003244
-0.0021750724
-0.0024476893
-0.0030351114
-0.003623137
-0.0037557903
-0.0040923498
-0.0052268545
-0.0056363319
-0.0048115745
-0.0014288393
-0.0027627668
-0.0022145245
-0.001865073
-0.00197761
-0.0016117662
-0.0020355892
-0.0028677327
-0.0016203094
-0.0011250961
-0.00042093118
-0.0011451013
-0.00067874853
-0.00047416408
-0.00042609728
-0.00039534998
-0.00066070565
-0.00030495465
-0.00011086742
2.5187493e-05
0.00073992809
0.00049376346
0.00077661575
0.00049725468
0.00010534767
0.00015820657
-4.9320571e-05
0.00010698737
-0.00015412082
-0.00074648352
0.0017614869
0.0018165179
0.00096657662
0.00017853995
-0.00055044341
-0.00085877795
-0.0010480038
-0.0010319472
-0.0019509432
-0.0015838793
0.00067482211
0.00068005909
-0.00096315568
-0.0014491775
-0.0012759864
-0.0016233134
-0.002198935
-0.0027589799
-0.0023773896
-0.0017390499
-0.00041410556
-0.0014210072
-0.0019311251
-0.0017338378
-0.0014161631
-0.0022373488
-0.0031202919
-0.0035317216
-0.0024646547
-0.0035311707
-0.0014979854
-0.0020065576
-0.0025353035
-0.0021806934
-0.0030388143
-0.0043971401
-0.0046016592
-0.0047081663
-0.0054547481
-0.004564501
-0.0022576193
-0.0024896217
-0.0027551797
-0.0034125702
-0.0044593086
-0.004975415
-0.0054138544
-0.0057863984
-0.0065990206
-0.0065024543
-0.0022793431
-0.0023561721
-0.0024525123
-0.0034918386
-0.0037468851
-0.0038028646
-0.0045578687
-0.006082605
-0.006290244
-0.007307362
-0.0019328799
-0.0020900806
-0.0028358198
-0.0022685352
-0.0021801823
-0.0031216242
-0.003365349
-0.0048539995
-0.0064586417
-0.0042614243
-0.0019357224
-0.0032159286
-0.0024876543
-0.0021959983
-0.0024871035
-0.0020523327
-0.003203159
-0.0032770901
-0.002610584
-0.0016123249
-0.0007234792
-0.0013158416
-0.00047876947
-0.00089028165
-0.0011897803
-0.00029678336
-0.0011254025
-0.00097486236
0.00033940885
-0.00030935627
0.00055571839
0.00079623622
0.00069570009
0.00065274957
0.00054202565
0.00042367509
0.00042113987
0.00062588235
0.00028356144
4.7132971e-05
0.0029049071
0.0031148798
0.0020170375
0.0012115605
0.00034591844
-0.00018619598
0.00051735466
0.00063530234
0.00019544475
-0.00034082325
0.0031812197
0.00296599
0.0012779005
0.00011483649
-0.0006082951
-0.00096019264
-0.00039078167
-0.000871417
-0.00047114813
-0.00071250528
0.0012227868
0.00099227535
-0.00044833214
-0.00089392051
-0.0012752865
-0.0016058281
-0.0023827341
-0.0023677323
-0.0028346307
-0.0028276461
-0.00014046541
-0.00048407733
-0.0015382221
-0.0015591064
-0.00225013
-0.0035617091
-0.0048772012
-0.0046248365
-0.0050238644
-0.0054400202
-0.00088065169
-0.0010619806
-0.00070921544
-0.00084446697
-0.0018166632
-0.0034715385
-0.0037837095
-0.0051040076
-0.0051247656
-0.0041896658
-0.001201305
-0.00089799411
-0.0003798066
-0.00080921851
-0.0011417109
-0.0018723464
-0.0027741806
-0.0044379257
-0.0054686255
-0.0051926792
-0.0018196248
-0.0020259922
-0.0021415347
-0.0021063586
-0.0025934314
-0.0022530224
-0.0039344875
-0.0049474675
-0.0051164989
-0.0057225807
-0.002754953
-0.0036230771
-0.0037310786
-0.0034641653
-0.0041909921
-0.004279349
-0.0032766505
-0.0050341028
-0.004051764
-0.0013517517
-0.001006229
-0.0012426578
-0.0013637413
-0.0014035625
-0.0013590846
-0.0016809996
-0.00073568513
-0.0014970356
-0.0011397396
0.00030297262
0.0010896673
0.00053821543
0.00060737748
0.00079139465
0.0012350844
0.0014077723
0.0021835001
0.0020578687
0.0018625853
0.0019639291
0.0050174917
0.0042940572
0.0037544891
0.0030374138
0.0021768664
0.0023967918
0.0051673056
0.0051553554
0.0048425819
0.004971173
0.0057479783
0.0061277471
0.0044913352
0.0025699973
-0.00042265731
-0.00034962295
0.000989593
0.0012052621
0.0014132844
0.001445497
0.0027493258
0.0036908858
0.0011717024
-0.0012231068
-0.0025459147
-0.0025118017
-0.0030961548
-0.0023534599
-0.0031186419
-0.0041254072
0.00073416465
0.0016587309
9.3542013e-05
-0.0012608894
-0.0011951528
-0.0019251984
-0.0037066194
-0.0036954808
-0.0045467972
-0.0054014438
0.00036626312
0.0017888867
0.0033567028
0.0032011373
0.002806462
0.00068967003
-0.0023713802
-0.0036966027
-0.0034565152
-0.0025233463
-0.00034169821
0.00063344631
0.0024168654
0.0021883311
0.0025752067
0.00041804855
-0.0018110661
-0.0035449261
-0.0045637249
-0.0046329314
-0.0026961337
-0.0031775057
-0.0030208573
-0.0027538142
-0.0030433443
-0.003593992
-0.0041284794
-0.006346651
-0.006842896
-0.0080753923
-0.0040996455
-0.0042405549
-0.0042838276
-0.0040003198
-0.006055775
-0.0057062832
-0.0048825192
-0.0067942888
-0.0066112603
-0.0050258592
-0.0011744312
-0.0010730876
-0.0010887039
-0.0010516126
-0.0017598809
-0.0016213771
-0.0011377685
-0.0016675148
-0.0019594326
-0.00061058068
0.00037111483
0.0022922135
0.0014526722
0.00041005653
3.3776875e-05
-0.00010609494
-0.00045151032
-0.00019270764
-0.00075584462
-0.00068976885
0.0061568087
0.0077791447
0.0057741223
0.0031165284
0.0023662141
0.0027223167
0.001828274
0.0018285193
0.00010962847
-0.0004693232
0.010071043
0.0072478078
0.005408427
0.0028039037
0.0022733808
0.0027823228
0.0030759596
0.002201624
0.0011695339
2.9175283e-05
0.0065314765
0.0044031339
0.0031235687
0.0012680877
-0.00036503869
-0.0020941453
-0.002455075
-0.0031363432
-0.0018938562
-0.0014221789
0.0046583547
0.0038841274
0.0042641428
0.0038625467
0.00090190971
-0.0026827373
-0.0038418047
-0.0038652909
-0.0028838981
-0.0022713002
0.0057772512
0.0050493199
0.0052393108
0.0058518991
0.0031492745
0.0011081844
0.0011872117
0.00036257833
-0.0015686925
-0.0026181021
0.0032798999
0.0031499808
0.0023861023
0.0025692818
0.0013439047
0.0013867282
0.00059829874
-0.0011312907
-0.0030000998
-0.0037781143
-0.0014361347
-0.0018926361
-0.0031547808
-0.0037990624
-0.0025935619
-0.0028411557
-0.0053494658
-0.0064395537
-0.0075530315
-0.0073988193
-0.0030229092
-0.0037685015
-0.0053207522
-0.0059409505
-0.0036065883
-0.0043469599
-0.0065872687
-0.0069937832
-0.0075465338
-0.0074902942
-0.00099089392
-0.00092481841
-0.0013768619
-0.0016850575
-0.0010624105
-0.0012766591
-0.001762017
-0.0017953354
-0.0016592087
-0.0017578422
-0.00044605993
0.0012243755
0.0014491422
0.00048989324
0.0015581542
0.00078639133
0.00050997454
0.0014293102
0.00047587902
-0.00037887972
0.0022306954
0.0050734986
0.0050988584
0.0028590383
0.0030934394
0.0022806603
0.0018016755
0.0023191134
0.0007083151
-0.00069881022
0.0081018367
0.0070001132
0.0058873764
0.0043366754
0.00076425766
0.0014518101
0.0014038349