/*--------------------------------*- C++ -*----------------------------------*\
| =========                 |                                                 |
| \\      /  F ield         | OpenFOAM: The Open Source CFD Toolbox           |
|  \\    /   O peration     | Version:  v2106                                 |
|   \\  /    A nd           | Website:  www.openfoam.com                      |
|    \\/     M anipulation  |                                                 |
\*---------------------------------------------------------------------------*/
FoamFile
{
    version     2.0;
    format      ascii;
    arch        "LSB;label=32;scalar=64";
    class       volVectorField;
    location    "37.5";
    object      flux;
}
// * * * * * * * * * * * * * * * * * * * * * * * * * * * * * * * * * * * * * //

dimensions      [0 1 -1 1 0 0 0];

internalField   nonuniform List<vector> 
4000
(
(-1.3017793e-07 -1.3017793e-07 0.66882417)
(3.5865842e-07 2.4019653e-07 0.66882349)
(4.9548697e-07 8.6228402e-08 0.66882593)
(-1.3349702e-07 6.7172833e-08 0.66882569)
(-1.259118e-07 6.8100274e-08 0.66882533)
(-9.4041972e-08 7.0746804e-08 0.66882507)
(-9.0787834e-08 7.3231884e-08 0.66882484)
(-1.0053412e-07 7.1017213e-08 0.66882459)
(-8.9280558e-08 5.4293825e-08 0.66882431)
(-2.4230288e-08 2.6991836e-08 0.66882414)
(2.4019653e-07 3.5865843e-07 0.66882349)
(6.8326792e-07 6.8326791e-07 0.66882493)
(2.3595142e-07 4.1467819e-07 0.66882643)
(-1.6068921e-07 3.8233033e-07 0.66882607)
(-1.2055085e-07 3.8576031e-07 0.66882571)
(-8.6344557e-08 3.9480179e-07 0.66882547)
(-9.0382221e-08 4.0668461e-07 0.66882527)
(-1.2894121e-07 4.1059342e-07 0.66882499)
(-1.5531862e-07 3.7354585e-07 0.66882456)
(-5.1532277e-08 2.7259468e-07 0.66882423)
(8.6228396e-08 4.9548697e-07 0.66882593)
(4.1467819e-07 2.3595142e-07 0.66882643)
(1.9454938e-07 1.9454937e-07 0.66882775)
(-1.6241491e-07 1.9116006e-07 0.66882736)
(-1.1344033e-07 1.9582666e-07 0.66882701)
(-7.3117666e-08 2.0612735e-07 0.6688268)
(-7.4996206e-08 2.2328108e-07 0.66882664)
(-1.3367289e-07 2.4522116e-07 0.6688264)
(-2.272793e-07 2.5457247e-07 0.6688259)
(-9.1531065e-08 2.1796379e-07 0.66882525)
(6.7172831e-08 -1.3349702e-07 0.66882569)
(3.8233032e-07 -1.6068921e-07 0.66882607)
(1.9116007e-07 -1.6241491e-07 0.66882736)
(-1.5941191e-07 -1.5941192e-07 0.66882697)
(-1.0558356e-07 -1.5322554e-07 0.66882664)
(-5.8890142e-08 -1.4322505e-07 0.66882645)
(-5.1288408e-08 -1.2785163e-07 0.66882634)
(-9.7649815e-08 -1.0458379e-07 0.66882618)
(-1.8257599e-07 -7.2463324e-08 0.66882578)
(-7.5938063e-08 -3.8232539e-08 0.66882524)
(6.8100274e-08 -1.2591181e-07 0.66882533)
(3.8576031e-07 -1.2055084e-07 0.66882571)
(1.9582667e-07 -1.1344032e-07 0.66882701)
(-1.5322554e-07 -1.0558355e-07 0.66882664)
(-9.7253469e-08 -9.7253469e-08 0.66882632)
(-4.7743759e-08 -8.7987316e-08 0.66882616)
(-3.6354944e-08 -7.7238515e-08 0.66882608)
(-7.8284575e-08 -6.4385107e-08 0.66882596)
(-1.6092805e-07 -4.9539702e-08 0.66882562)
(-6.8710542e-08 -3.568344e-08 0.66882514)
(7.074681e-08 -9.4041968e-08 0.66882507)
(3.948018e-07 -8.6344558e-08 0.66882547)
(2.0612735e-07 -7.3117668e-08 0.6688268)
(-1.4322506e-07 -5.8890146e-08 0.66882645)
(-8.798732e-08 -4.7743759e-08 0.66882616)
(-3.8875189e-08 -3.8875193e-08 0.66882602)
(-2.7686199e-08 -3.160641e-08 0.66882596)
(-6.9951002e-08 -2.5770423e-08 0.66882587)
(-1.5387433e-07 -2.1418873e-08 0.66882555)
(-6.6700555e-08 -1.8929741e-08 0.66882508)
(7.323188e-08 -9.0787837e-08 0.66882484)
(4.0668461e-07 -9.0382231e-08 0.66882527)
(2.2328108e-07 -7.4996208e-08 0.66882664)
(-1.2785163e-07 -5.1288409e-08 0.66882634)
(-7.7238515e-08 -3.6354946e-08 0.66882608)
(-3.160641e-08 -2.76862e-08 0.66882596)
(-2.3250174e-08 -2.3250165e-08 0.66882592)
(-6.8097038e-08 -2.2518779e-08 0.66882583)
(-1.5408736e-07 -2.4950491e-08 0.66882551)
(-6.7051121e-08 -2.8933925e-08 0.66882504)
(7.1017214e-08 -1.0053412e-07 0.66882459)
(4.1059343e-07 -1.2894122e-07 0.66882499)
(2.4522117e-07 -1.3367289e-07 0.6688264)
(-1.045838e-07 -9.7649809e-08 0.66882618)
(-6.4385111e-08 -7.8284576e-08 0.66882596)
(-2.5770408e-08 -6.9951001e-08 0.66882587)
(-2.2518779e-08 -6.809704e-08 0.66882583)
(-7.1651327e-08 -7.1651317e-08 0.66882574)
(-1.6028947e-07 -7.9651216e-08 0.66882541)
(-6.9356179e-08 -8.9053647e-08 0.66882492)
(5.4293816e-08 -8.9280549e-08 0.66882431)
(3.7354584e-07 -1.5531862e-07 0.66882456)
(2.5457249e-07 -2.272793e-07 0.6688259)
(-7.2463322e-08 -1.8257599e-07 0.66882578)
(-4.9539707e-08 -1.6092803e-07 0.66882562)
(-2.1418873e-08 -1.5387433e-07 0.66882555)
(-2.495049e-08 -1.5408738e-07 0.66882551)
(-7.9651214e-08 -1.6028947e-07 0.66882541)
(-1.7148969e-07 -1.7148969e-07 0.66882504)
(-7.3319408e-08 -1.8277986e-07 0.66882452)
(2.6991835e-08 -2.4230289e-08 0.66882414)
(2.7259468e-07 -5.153227e-08 0.66882423)
(2.179638e-07 -9.1531064e-08 0.66882525)
(-3.823253e-08 -7.5938063e-08 0.66882524)
(-3.5683448e-08 -6.8710536e-08 0.66882514)
(-1.8929751e-08 -6.6700558e-08 0.66882508)
(-2.8933921e-08 -6.7051122e-08 0.66882504)
(-8.9053645e-08 -6.9356178e-08 0.66882492)
(-1.8277986e-07 -7.3319409e-08 0.66882452)
(-7.6882953e-08 -7.6882953e-08 0.66882398)
(-2.8371297e-07 -2.8371297e-07 0.99526737)
(1.5647767e-06 7.1368795e-07 0.99526721)
(1.8152033e-06 2.4848607e-07 0.99526943)
(-4.9561992e-07 1.7891418e-07 0.99526918)
(-5.6074588e-07 1.8065295e-07 0.99526873)
(-4.5007507e-07 1.9276332e-07 0.99526838)
(-4.4658383e-07 2.0505296e-07 0.99526807)
(-5.029037e-07 1.9078787e-07 0.99526768)
(-4.0281039e-07 9.3941506e-08 0.99526719)
(-9.1122861e-08 9.8153827e-10 0.99526712)
(7.1368796e-07 1.5647767e-06 0.99526721)
(2.3630753e-06 2.3630753e-06 0.99526848)
(1.0130427e-06 1.4978116e-06 0.99526999)
(-5.9736959e-07 1.3635341e-06 0.99526963)
(-5.3997216e-07 1.3726272e-06 0.99526918)
(-4.1347506e-07 1.4155582e-06 0.99526886)
(-4.4954701e-07 1.4746004e-06 0.99526859)
(-6.6957088e-07 1.4868538e-06 0.99526816)
(-6.8751989e-07 1.2664609e-06 0.99526734)
(-1.8408283e-07 8.4893807e-07 0.99526695)
(2.4848607e-07 1.8152033e-06 0.99526943)
(1.4978116e-06 1.0130427e-06 0.99526999)
(8.1566211e-07 8.156621e-07 0.99527129)
(-6.2080432e-07 7.8241338e-07 0.99527089)
(-5.0872172e-07 8.0083482e-07 0.99527045)
(-3.4810186e-07 8.5148184e-07 0.99527017)
(-3.7528825e-07 9.366671e-07 0.99526997)
(-7.110432e-07 1.0412569e-06 0.99526962)
(-1.0407261e-06 1.0582567e-06 0.9952687)
(-3.6947144e-07 8.6795718e-07 0.99526793)
(1.7891418e-07 -4.9561992e-07 0.99526918)
(1.3635341e-06 -5.9736959e-07 0.99526963)
(7.8241339e-07 -6.2080432e-07 0.99527089)
(-6.1219687e-07 -6.1219688e-07 0.99527048)
(-4.7090371e-07 -5.8278957e-07 0.99527006)
(-2.7764279e-07 -5.3327186e-07 0.99526983)
(-2.59772e-07 -4.5704279e-07 0.99526969)
(-5.4798126e-07 -3.4365561e-07 0.99526945)
(-8.6081955e-07 -1.9942565e-07 0.99526867)
(-3.1094919e-07 -5.9800945e-08 0.99526801)
(1.8065296e-07 -5.6074587e-07 0.99526873)
(1.3726272e-06 -5.3997216e-07 0.99526918)
(8.0083482e-07 -5.0872171e-07 0.99527045)
(-5.8278956e-07 -4.709037e-07 0.99527006)
(-4.297967e-07 -4.297967e-07 0.99526968)
(-2.2235509e-07 -3.8397918e-07 0.99526948)
(-1.85672e-07 -3.3076207e-07 0.99526939)
(-4.5342605e-07 -2.6699666e-07 0.99526922)
(-7.5687148e-07 -1.9474845e-07 0.99526851)
(-2.763883e-07 -1.270457e-07 0.99526794)
(1.9276332e-07 -4.5007507e-07 0.99526838)
(1.4155582e-06 -4.1347506e-07 0.99526886)
(8.5148184e-07 -3.4810186e-07 0.99527017)
(-5.3327186e-07 -2.7764278e-07 0.99526983)
(-3.8397919e-07 -2.2235508e-07 0.99526948)
(-1.7860816e-07 -1.7860816e-07 0.99526931)
(-1.4278948e-07 -1.4303691e-07 0.99526926)
(-4.1196764e-07 -1.145923e-07 0.99526912)
(-7.2086859e-07 -9.3621017e-08 0.99526845)
(-2.6581402e-07 -8.1248438e-08 0.99526789)
(2.0505296e-07 -4.4658382e-07 0.99526807)
(1.4746004e-06 -4.4954701e-07 0.99526859)
(9.366671e-07 -3.7528825e-07 0.99526997)
(-4.5704279e-07 -2.59772e-07 0.99526969)
(-3.3076208e-07 -1.85672e-07 0.99526939)
(-1.4303692e-07 -1.4278948e-07 0.99526926)
(-1.2165614e-07 -1.2165614e-07 0.99526923)
(-4.0401016e-07 -1.1966277e-07 0.9952691)
(-7.2352762e-07 -1.3437918e-07 0.99526842)
(-2.6813991e-07 -1.5839315e-07 0.99526786)
(1.9078787e-07 -5.029037e-07 0.99526768)
(1.4868538e-06 -6.6957088e-07 0.99526816)
(1.0412568e-06 -7.110432e-07 0.99526962)
(-3.4365561e-07 -5.4798126e-07 0.99526945)
(-2.6699667e-07 -4.5342606e-07 0.99526922)
(-1.145923e-07 -4.1196763e-07 0.99526912)
(-1.1966277e-07 -4.0401016e-07 0.9952691)
(-4.2469067e-07 -4.2469067e-07 0.99526896)
(-7.5959898e-07 -4.6923991e-07 0.99526824)
(-2.8182334e-07 -5.2242466e-07 0.99526763)
(9.3941508e-08 -4.0281039e-07 0.99526719)
(1.2664609e-06 -6.8751989e-07 0.99526734)
(1.0582567e-06 -1.0407261e-06 0.9952687)
(-1.9942565e-07 -8.6081955e-07 0.99526867)
(-1.9474845e-07 -7.5687148e-07 0.99526851)
(-9.3621013e-08 -7.208686e-07 0.99526845)
(-1.3437917e-07 -7.2352762e-07 0.99526842)
(-4.6923991e-07 -7.5959898e-07 0.99526824)
(-8.2126161e-07 -8.212616e-07 0.99526747)
(-3.0359641e-07 -8.6179719e-07 0.99526679)
(9.8154011e-10 -9.112286e-08 0.99526712)
(8.4893806e-07 -1.8408283e-07 0.99526695)
(8.6795718e-07 -3.6947144e-07 0.99526793)
(-5.980094e-08 -3.1094919e-07 0.99526801)
(-1.2704571e-07 -2.763883e-07 0.99526794)
(-8.1248436e-08 -2.6581402e-07 0.99526789)
(-1.5839315e-07 -2.6813992e-07 0.99526786)
(-5.2242465e-07 -2.8182334e-07 0.99526763)
(-8.6179719e-07 -3.0359641e-07 0.99526679)
(-3.0884707e-07 -3.0884706e-07 0.99526629)
(-2.3638515e-07 -2.3638515e-07 0.99628921)
(2.4090155e-06 1.0811758e-06 0.99628925)
(2.4628199e-06 4.5991362e-07 0.99629063)
(-8.2588932e-07 3.6336671e-07 0.99629037)
(-9.2779177e-07 3.6761143e-07 0.99628998)
(-7.6126788e-07 3.9155713e-07 0.99628968)
(-7.9518309e-07 4.1972458e-07 0.99628941)
(-9.7767634e-07 3.9379265e-07 0.99628902)
(-6.4991508e-07 1.5691554e-07 0.99628836)
(-7.2553213e-08 -8.2352645e-08 0.9962883)
(1.0811758e-06 2.4090155e-06 0.99628925)
(3.4534637e-06 3.4534637e-06 0.99629017)
(1.3861063e-06 2.276818e-06 0.99629113)
(-9.6434261e-07 2.0841229e-06 0.99629079)
(-8.8550614e-07 2.1026835e-06 0.99629041)
(-6.8309815e-07 2.1850384e-06 0.99629016)
(-7.9182981e-07 2.3074227e-06 0.99628995)
(-1.3718899e-06 2.3477377e-06 0.99628954)
(-1.364133e-06 1.8807679e-06 0.99628849)
(-3.118214e-07 1.0869597e-06 0.99628806)
(4.5991362e-07 2.4628199e-06 0.99629063)
(2.276818e-06 1.3861063e-06 0.99629113)
(1.0934791e-06 1.0934791e-06 0.99629195)
(-1.0000238e-06 1.0403789e-06 0.99629159)
(-8.2687632e-07 1.0744305e-06 0.99629122)
(-5.5652867e-07 1.1677261e-06 0.99629101)
(-6.3248372e-07 1.3282264e-06 0.99629088)
(-1.4043312e-06 1.5338262e-06 0.99629057)
(-1.9106931e-06 1.5759617e-06 0.99628945)
(-6.0175865e-07 1.277341e-06 0.99628871)
(3.6336671e-07 -8.2588932e-07 0.99629037)
(2.0841229e-06 -9.6434261e-07 0.99629079)
(1.0403789e-06 -1.0000238e-06 0.99629159)
(-9.8339118e-07 -9.8339118e-07 0.99629122)
(-7.5815888e-07 -9.2974966e-07 0.99629088)
(-4.2930228e-07 -8.4028363e-07 0.99629071)
(-4.2572969e-07 -7.0330549e-07 0.99629065)
(-1.1241547e-06 -5.0172233e-07 0.99629045)
(-1.6206183e-06 -2.5844036e-07 0.99628945)
(-5.1090183e-07 -3.5327866e-08 0.9962888)
(3.6761143e-07 -9.2779177e-07 0.99628998)
(2.1026835e-06 -8.8550614e-07 0.99629041)
(1.0744305e-06 -8.2687632e-07 0.99629122)
(-9.2974966e-07 -7.5815888e-07 0.99629088)
(-6.8376877e-07 -6.8376877e-07 0.99629057)
(-3.300845e-07 -6.0139032e-07 0.99629044)
(-2.9392242e-07 -5.0650102e-07 0.99629043)
(-9.5946605e-07 -3.9395323e-07 0.99629029)
(-1.4442986e-06 -2.7003601e-07 0.99628936)
(-4.5301698e-07 -1.5643854e-07 0.99628877)
(3.9155713e-07 -7.6126789e-07 0.99628968)
(2.1850384e-06 -6.8309815e-07 0.99629016)
(1.1677261e-06 -5.5652868e-07 0.99629101)
(-8.4028362e-07 -4.2930227e-07 0.99629071)
(-6.0139032e-07 -3.300845e-07 0.99629044)
(-2.5203453e-07 -2.5203453e-07 0.99629034)
(-2.182926e-07 -1.8979405e-07 0.99629037)
(-8.8768965e-07 -1.4199937e-07 0.99629026)
(-1.3831036e-06 -1.1002125e-07 0.99628935)
(-4.3517017e-07 -9.4705107e-08 0.99628878)
(4.1972459e-07 -7.951831e-07 0.99628941)
(2.3074227e-06 -7.9182982e-07 0.99628995)
(1.3282264e-06 -6.3248373e-07 0.99629088)
(-7.0330548e-07 -4.257297e-07 0.99629065)
(-5.0650103e-07 -2.9392243e-07 0.99629043)
(-1.8979405e-07 -2.1829259e-07 0.99629037)
(-1.8388727e-07 -1.8388726e-07 0.99629041)
(-8.7969324e-07 -1.8792486e-07 0.99629031)
(-1.3970044e-06 -2.2792161e-07 0.99628939)
(-4.4280622e-07 -2.9121237e-07 0.9962888)
(3.9379265e-07 -9.7767633e-07 0.99628902)
(2.3477377e-06 -1.3718899e-06 0.99628954)
(1.5338263e-06 -1.4043312e-06 0.99629057)
(-5.0172232e-07 -1.1241547e-06 0.99629045)
(-3.9395322e-07 -9.5946604e-07 0.99629029)
(-1.4199936e-07 -8.8768965e-07 0.99629026)
(-1.8792486e-07 -8.7969324e-07 0.99629031)
(-9.31724e-07 -9.3172399e-07 0.99629018)
(-1.4863911e-06 -1.0371355e-06 0.9962892)
(-4.7736402e-07 -1.15872e-06 0.99628853)
(1.5691554e-07 -6.4991508e-07 0.99628836)
(1.8807679e-06 -1.364133e-06 0.99628849)
(1.5759616e-06 -1.9106931e-06 0.99628945)
(-2.5844036e-07 -1.6206183e-06 0.99628945)
(-2.7003601e-07 -1.4442986e-06 0.99628936)
(-1.1002125e-07 -1.3831036e-06 0.99628935)
(-2.279216e-07 -1.3970044e-06 0.99628939)
(-1.0371355e-06 -1.4863911e-06 0.9962892)
(-1.6240003e-06 -1.6240003e-06 0.99628812)
(-5.2386251e-07 -1.519378e-06 0.99628734)
(-8.2352642e-08 -7.2553217e-08 0.9962883)
(1.0869597e-06 -3.118214e-07 0.99628806)
(1.277341e-06 -6.0175865e-07 0.99628871)
(-3.5327862e-08 -5.1090182e-07 0.9962888)
(-1.5643853e-07 -4.5301699e-07 0.99628877)
(-9.4705109e-08 -4.3517018e-07 0.99628878)
(-2.9121237e-07 -4.4280623e-07 0.9962888)
(-1.15872e-06 -4.7736402e-07 0.99628853)
(-1.519378e-06 -5.2386251e-07 0.99628734)
(-4.0761579e-07 -4.076158e-07 0.99628714)
(-2.5563955e-07 -2.5563955e-07 0.99787506)
(2.9907755e-06 1.3284121e-06 0.99787498)
(2.933808e-06 5.7657916e-07 0.99787614)
(-1.149818e-06 4.6085636e-07 0.99787585)
(-1.2463725e-06 4.6971119e-07 0.9978755)
(-1.0150992e-06 5.0792293e-07 0.99787526)
(-1.1135248e-06 5.5934623e-07 0.99787506)
(-1.5599295e-06 5.3966357e-07 0.99787471)
(-1.1202949e-06 1.8305167e-07 0.99787396)
(-1.3051501e-07 -1.5900922e-07 0.99787376)
(1.3284121e-06 2.9907755e-06 0.99787498)
(4.2391037e-06 4.2391037e-06 0.99787566)
(1.6324743e-06 2.8103848e-06 0.99787644)
(-1.3101199e-06 2.5789283e-06 0.9978761)
(-1.1757727e-06 2.6129083e-06 0.99787576)
(-8.8064664e-07 2.7399175e-06 0.99787556)
(-1.0659139e-06 2.9391033e-06 0.99787544)
(-2.1243714e-06 3.0380325e-06 0.99787511)
(-2.1683041e-06 2.3526091e-06 0.99787401)
(-4.725759e-07 1.2575922e-06 0.99787354)
(5.7657916e-07 2.933808e-06 0.99787614)
(2.8103848e-06 1.6324743e-06 0.99787644)
(1.2736326e-06 1.2736326e-06 0.99787711)
(-1.3472945e-06 1.2125973e-06 0.99787675)
(-1.0853833e-06 1.2668677e-06 0.99787644)
(-6.8890421e-07 1.4052159e-06 0.99787629)
(-8.1540981e-07 1.6437608e-06 0.99787625)
(-2.1464238e-06 1.9531228e-06 0.99787602)
(-2.9007352e-06 2.0112043e-06 0.99787484)
(-8.6052624e-07 1.603477e-06 0.99787408)
(4.6085636e-07 -1.149818e-06 0.99787585)
(2.5789283e-06 -1.3101199e-06 0.9978761)
(1.2125973e-06 -1.3472945e-06 0.99787675)
(-1.3168849e-06 -1.3168848e-06 0.99787641)
(-9.8315404e-07 -1.236263e-06 0.99787611)
(-5.0375354e-07 -1.105699e-06 0.99787601)
(-5.1800697e-07 -9.0782322e-07 0.99787604)
(-1.7569279e-06 -6.1999614e-07 0.99787592)
(-2.5179499e-06 -2.8780909e-07 0.99787485)
(-7.4439409e-07 3.1008117e-09 0.99787416)
(4.6971119e-07 -1.2463725e-06 0.9978755)
(2.6129083e-06 -1.1757727e-06 0.99787576)
(1.2668677e-06 -1.0853833e-06 0.99787644)
(-1.236263e-06 -9.8315404e-07 0.99787611)
(-8.7419745e-07 -8.7419745e-07 0.99787585)
(-3.6046448e-07 -7.5509712e-07 0.99787578)
(-3.2970698e-07 -6.1944333e-07 0.99787586)
(-1.5264097e-06 -4.605465e-07 0.99787581)
(-2.2776382e-06 -2.905695e-07 0.9978748)
(-6.665863e-07 -1.3869238e-07 0.99787417)
(5.0792293e-07 -1.0150992e-06 0.99787526)
(2.7399175e-06 -8.8064664e-07 0.99787556)
(1.4052159e-06 -6.8890421e-07 0.99787629)
(-1.105699e-06 -5.0375355e-07 0.99787601)
(-7.5509713e-07 -3.6046448e-07 0.99787578)
(-2.4899942e-07 -2.4899944e-07 0.99787575)
(-2.2345634e-07 -1.6238047e-07 0.99787586)
(-1.428054e-06 -9.9590278e-08 0.99787584)
(-2.1960958e-06 -6.3744987e-08 0.99787485)
(-6.4314268e-07 -5.3733819e-08 0.99787424)
(5.5934623e-07 -1.1135248e-06 0.99787506)
(2.9391033e-06 -1.0659139e-06 0.99787544)
(1.6437608e-06 -8.1540982e-07 0.99787625)
(-9.0782322e-07 -5.1800698e-07 0.99787604)
(-6.1944334e-07 -3.2970697e-07 0.99787586)
(-1.6238047e-07 -2.2345635e-07 0.99787586)
(-1.8029782e-07 -1.8029783e-07 0.99787599)
(-1.4277742e-06 -1.998479e-07 0.99787596)
(-2.2317818e-06 -2.828809e-07 0.99787496)
(-6.5991219e-07 -4.1080092e-07 0.99787431)
(5.3966358e-07 -1.5599295e-06 0.99787471)
(3.0380325e-06 -2.1243714e-06 0.99787511)
(1.9531228e-06 -2.1464238e-06 0.99787602)
(-6.1999613e-07 -1.7569279e-06 0.99787592)
(-4.605465e-07 -1.5264097e-06 0.99787581)
(-9.9590279e-08 -1.428054e-06 0.99787584)
(-1.998479e-07 -1.4277742e-06 0.99787596)
(-1.5306371e-06 -1.5306371e-06 0.9978759)
(-2.4070488e-06 -1.7383739e-06 0.99787482)
(-7.2842269e-07 -1.9833524e-06 0.99787405)
(1.8305167e-07 -1.1202949e-06 0.99787396)
(2.3526091e-06 -2.1683041e-06 0.99787401)
(2.0112043e-06 -2.9007352e-06 0.99787484)
(-2.878091e-07 -2.5179499e-06 0.99787485)
(-2.905695e-07 -2.2776382e-06 0.9978748)
(-6.3744975e-08 -2.1960958e-06 0.99787485)
(-2.8288089e-07 -2.2317818e-06 0.99787496)
(-1.7383739e-06 -2.4070488e-06 0.99787482)
(-2.6844971e-06 -2.6844971e-06 0.99787358)
(-8.2323123e-07 -2.249351e-06 0.99787264)
(-1.5900922e-07 -1.3051501e-07 0.99787376)
(1.2575922e-06 -4.7257589e-07 0.99787354)
(1.603477e-06 -8.6052624e-07 0.99787408)
(3.1008149e-09 -7.4439408e-07 0.99787416)
(-1.3869239e-07 -6.665863e-07 0.99787417)
(-5.3733811e-08 -6.4314268e-07 0.99787424)
(-4.1080092e-07 -6.5991219e-07 0.99787431)
(-1.9833524e-06 -7.284227e-07 0.99787405)
(-2.249351e-06 -8.2323124e-07 0.99787264)
(-4.3832532e-07 -4.3832533e-07 0.99787256)
(-2.933748e-07 -2.933748e-07 1.0000074)
(3.48365e-06 1.5366241e-06 1.0000072)
(3.3364634e-06 6.6062341e-07 1.0000083)
(-1.465802e-06 5.2842684e-07 1.000008)
(-1.521411e-06 5.429256e-07 1.0000077)
(-1.1993976e-06 5.9615824e-07 1.0000075)
(-1.3430558e-06 6.726471e-07 1.0000074)
(-2.0745922e-06 6.6369199e-07 1.0000071)
(-1.5924214e-06 1.9298083e-07 1.0000064)
(-2.0289694e-07 -2.3356678e-07 1.0000062)
(1.5366241e-06 3.48365e-06 1.0000072)
(4.9146474e-06 4.9146474e-06 1.0000078)
(1.8241675e-06 3.2508828e-06 1.0000085)
(-1.6423487e-06 2.9888888e-06 1.0000082)
(-1.4198139e-06 3.0418605e-06 1.0000079)
(-1.0048153e-06 3.2157285e-06 1.0000077)
(-1.2417552e-06 3.4953837e-06 1.0000077)
(-2.7940916e-06 3.6604636e-06 1.0000075)
(-2.9383096e-06 2.7632003e-06 1.0000064)
(-6.2944454e-07 1.4018394e-06 1.000006)
(6.6062341e-07 3.3364634e-06 1.0000083)
(3.2508828e-06 1.8241675e-06 1.0000085)
(1.4107048e-06 1.4107048e-06 1.0000091)
(-1.6748243e-06 1.3487392e-06 1.0000087)
(-1.2945713e-06 1.4268199e-06 1.0000085)
(-7.4587441e-07 1.6120507e-06 1.0000084)
(-8.9832065e-07 1.9298216e-06 1.0000084)
(-2.8067756e-06 2.3430246e-06 1.0000083)
(-3.8510456e-06 2.4114093e-06 1.0000072)
(-1.1104708e-06 1.897814e-06 1.0000065)
(5.2842684e-07 -1.465802e-06 1.000008)
(2.9888888e-06 -1.6423487e-06 1.0000082)
(1.3487392e-06 -1.6748243e-06 1.0000087)
(-1.6262336e-06 -1.6262336e-06 1.0000084)
(-1.1565024e-06 -1.5161639e-06 1.0000081)
(-5.0181359e-07 -1.3434426e-06 1.0000081)
(-5.1078132e-07 -1.0846488e-06 1.0000082)
(-2.312504e-06 -7.122025e-07 1.0000082)
(-3.3835201e-06 -2.9715545e-07 1.0000072)
(-9.7184138e-07 5.4481028e-08 1.0000066)
(5.429256e-07 -1.521411e-06 1.0000077)
(3.0418605e-06 -1.4198139e-06 1.0000079)
(1.4268199e-06 -1.2945713e-06 1.0000085)
(-1.5161639e-06 -1.1565024e-06 1.0000081)
(-1.0117803e-06 -1.0117803e-06 1.0000079)
(-3.1435939e-07 -8.5584494e-07 1.0000079)
(-2.6708059e-07 -6.8031811e-07 1.0000081)
(-2.0192822e-06 -4.7717099e-07 1.0000081)
(-3.0843621e-06 -2.6514862e-07 1.0000072)
(-8.7604653e-07 -7.9596179e-08 1.0000066)
(5.9615825e-07 -1.1993976e-06 1.0000075)
(3.2157285e-06 -1.0048153e-06 1.0000077)
(1.6120507e-06 -7.4587441e-07 1.0000084)
(-1.3434426e-06 -5.018136e-07 1.0000081)
(-8.5584494e-07 -3.1435939e-07 1.0000079)
(-1.7035144e-07 -1.7035145e-07 1.0000079)
(-1.3210737e-07 -6.1345536e-08 1.0000081)
(-1.8973345e-06 1.3067887e-08 1.0000082)
(-2.9859453e-06 4.7860834e-08 1.0000073)
(-8.4813975e-07 4.7441974e-08 1.0000067)
(6.726471e-07 -1.3430558e-06 1.0000074)
(3.4953837e-06 -1.2417552e-06 1.0000077)
(1.9298216e-06 -8.9832067e-07 1.0000084)
(-1.0846488e-06 -5.1078133e-07 1.0000082)
(-6.8031811e-07 -2.670806e-07 1.0000081)
(-6.1345533e-08 -1.3210737e-07 1.0000081)
(-8.3661258e-08 -8.3661268e-08 1.0000083)
(-1.9100758e-06 -1.251604e-07 1.0000084)
(-3.049988e-06 -2.6269783e-07 1.0000075)
(-8.7632577e-07 -4.7206892e-07 1.0000068)
(6.6369199e-07 -2.0745922e-06 1.0000071)
(3.6604636e-06 -2.7940916e-06 1.0000075)
(2.3430246e-06 -2.8067756e-06 1.0000083)
(-7.122025e-07 -2.312504e-06 1.0000082)
(-4.7717098e-07 -2.0192822e-06 1.0000081)
(1.3067889e-08 -1.8973345e-06 1.0000082)
(-1.2516041e-07 -1.9100759e-06 1.0000084)
(-2.076371e-06 -2.0763711e-06 1.0000084)
(-3.3328538e-06 -2.4157241e-06 1.0000074)
(-9.8772048e-07 -2.8348781e-06 1.0000066)
(1.9298083e-07 -1.5924214e-06 1.0000064)
(2.7632003e-06 -2.9383096e-06 1.0000064)
(2.4114093e-06 -3.8510457e-06 1.0000072)
(-2.9715545e-07 -3.3835201e-06 1.0000072)
(-2.6514861e-07 -3.0843621e-06 1.0000072)
(4.786083e-08 -2.9859453e-06 1.0000073)
(-2.6269782e-07 -3.049988e-06 1.0000075)
(-2.4157241e-06 -3.3328538e-06 1.0000074)
(-3.8084951e-06 -3.8084951e-06 1.0000062)
(-1.1557618e-06 -3.0172435e-06 1.0000052)
(-2.3356678e-07 -2.0289694e-07 1.0000062)
(1.4018394e-06 -6.2944454e-07 1.000006)
(1.897814e-06 -1.1104709e-06 1.0000065)
(5.4481036e-08 -9.7184138e-07 1.0000066)
(-7.9596177e-08 -8.7604654e-07 1.0000066)
(4.7441973e-08 -8.4813976e-07 1.0000067)
(-4.7206891e-07 -8.7632577e-07 1.0000068)
(-2.8348781e-06 -9.8772048e-07 1.0000066)
(-3.0172435e-06 -1.1557618e-06 1.0000052)
(-4.6021944e-07 -4.6021945e-07 1.0000051)
(-3.3701746e-07 -3.3701746e-07 1.0026657)
(3.9204907e-06 1.7223075e-06 1.0026656)
(3.6870541e-06 7.2741844e-07 1.0026665)
(-1.7738301e-06 5.8035675e-07 1.0026662)
(-1.7582702e-06 6.0106751e-07 1.0026659)
(-1.3209972e-06 6.6960893e-07 1.0026658)
(-1.4879082e-06 7.7175443e-07 1.0026657)
(-2.4991299e-06 7.7551504e-07 1.0026656)
(-2.0105378e-06 1.9518024e-07 1.002665)
(-2.678147e-07 -3.0897035e-07 1.0026648)
(1.7223075e-06 3.9204907e-06 1.0026656)
(5.5171446e-06 5.5171446e-06 1.0026661)
(1.9741279e-06 3.6303822e-06 1.0026667)
(-1.9633565e-06 3.3426064e-06 1.0026663)
(-1.6243919e-06 3.4166935e-06 1.0026661)
(-1.0649668e-06 3.6385166e-06 1.002666)
(-1.329049e-06 4.0000121e-06 1.002666)
(-3.3639912e-06 4.2350004e-06 1.0026659)
(-3.6372659e-06 3.1345481e-06 1.002665)
(-7.7196529e-07 1.5247928e-06 1.0026646)
(7.2741844e-07 3.6870541e-06 1.0026665)
(3.6303822e-06 1.9741279e-06 1.0026667)
(1.5125159e-06 1.5125158e-06 1.0026672)
(-1.9875188e-06 1.4537361e-06 1.0026669)
(-1.46236e-06 1.5579723e-06 1.0026666)
(-7.3767868e-07 1.7912499e-06 1.0026666)
(-8.9142433e-07 2.1887817e-06 1.0026667)
(-3.3645939e-06 2.7060548e-06 1.0026667)
(-4.7207455e-06 2.7849862e-06 1.0026657)
(-1.3409849e-06 2.1717774e-06 1.002665)
(5.8035675e-07 -1.7738301e-06 1.0026662)
(3.3426064e-06 -1.9633565e-06 1.0026663)
(1.4537361e-06 -1.9875188e-06 1.0026669)
(-1.9179e-06 -1.9179e-06 1.0026665)
(-1.2868781e-06 -1.7766741e-06 1.0026663)
(-4.3415745e-07 -1.5611174e-06 1.0026663)
(-4.1424414e-07 -1.2415923e-06 1.0026665)
(-2.7677867e-06 -7.8577714e-07 1.0026666)
(-4.1715433e-06 -2.909357e-07 1.0026657)
(-1.1807711e-06 1.1856006e-07 1.0026651)
(6.0106751e-07 -1.7582702e-06 1.0026659)
(3.4166936e-06 -1.6243919e-06 1.0026661)
(1.5579724e-06 -1.46236e-06 1.0026666)
(-1.7766741e-06 -1.2868781e-06 1.0026663)
(-1.1055775e-06 -1.1055774e-06 1.0026661)
(-2.0259686e-07 -9.1282436e-07 1.0026661)
(-1.1608407e-07 -6.9822732e-07 1.0026664)
(-2.4139373e-06 -4.5244203e-07 1.0026665)
(-3.8164083e-06 -2.0090268e-07 1.0026657)
(-1.0679877e-06 1.5898197e-08 1.0026652)
(6.6960893e-07 -1.3209972e-06 1.0026658)
(3.6385166e-06 -1.0649668e-06 1.002666)
(1.7912499e-06 -7.3767868e-07 1.0026666)
(-1.5611174e-06 -4.3415746e-07 1.0026663)
(-9.1282436e-07 -2.0259686e-07 1.0026661)
(-2.680733e-08 -2.6807331e-08 1.0026662)
(4.6138194e-08 1.0306668e-07 1.0026665)
(-2.270462e-06 1.8682149e-07 1.0026667)
(-3.7032031e-06 2.1771059e-07 1.0026658)
(-1.0362372e-06 2.0450624e-07 1.0026653)
(7.7175443e-07 -1.4879082e-06 1.0026657)
(4.0000121e-06 -1.329049e-06 1.002666)
(2.1887817e-06 -8.9142434e-07 1.0026667)
(-1.2415923e-06 -4.1424414e-07 1.0026665)
(-6.9822732e-07 -1.1608407e-07 1.0026664)
(1.0306668e-07 4.6138198e-08 1.0026665)
(9.7544752e-08 9.7544755e-08 1.0026668)
(-2.2992934e-06 3.0424704e-08 1.0026669)
(-3.7987236e-06 -1.67233e-07 1.0026661)
(-1.0767906e-06 -4.6518251e-07 1.0026655)
(7.7551505e-07 -2.4991299e-06 1.0026656)
(4.2350005e-06 -3.3639912e-06 1.0026659)
(2.7060548e-06 -3.3645939e-06 1.0026667)
(-7.8577714e-07 -2.7677867e-06 1.0026666)
(-4.5244203e-07 -2.4139373e-06 1.0026665)
(1.868215e-07 -2.270462e-06 1.0026667)
(3.04247e-08 -2.2992934e-06 1.0026669)
(-2.5352398e-06 -2.5352398e-06 1.002667)
(-4.1988103e-06 -3.019823e-06 1.0026661)
(-1.2348702e-06 -3.6367599e-06 1.0026654)
(1.9518023e-07 -2.0105378e-06 1.002665)
(3.1345481e-06 -3.6372659e-06 1.002665)
(2.7849862e-06 -4.7207455e-06 1.0026657)
(-2.909357e-07 -4.1715433e-06 1.0026657)
(-2.0090267e-07 -3.8164083e-06 1.0026657)
(2.1771059e-07 -3.7032031e-06 1.0026658)
(-1.67233e-07 -3.7987236e-06 1.0026661)
(-3.019823e-06 -4.1988103e-06 1.0026661)
(-4.9002437e-06 -4.9002437e-06 1.002665)
(-1.4880819e-06 -3.7672763e-06 1.002664)
(-3.0897036e-07 -2.678147e-07 1.0026648)
(1.5247927e-06 -7.7196528e-07 1.0026646)
(2.1717774e-06 -1.3409849e-06 1.002665)
(1.1856007e-07 -1.1807712e-06 1.0026651)
(1.5898197e-08 -1.0679877e-06 1.0026652)
(2.0450625e-07 -1.0362372e-06 1.0026653)
(-4.651825e-07 -1.0767906e-06 1.0026655)
(-3.6367599e-06 -1.2348702e-06 1.0026654)
(-3.7672763e-06 -1.4880819e-06 1.002664)
(-4.7955868e-07 -4.7955868e-07 1.002664)
(-3.867414e-07 -3.8674139e-07 1.0058262)
(4.2998801e-06 1.8853897e-06 1.005826)
(3.9850513e-06 7.7767697e-07 1.0058269)
(-2.0743837e-06 6.1718808e-07 1.0058266)
(-1.960676e-06 6.4449239e-07 1.0058263)
(-1.386729e-06 7.2847669e-07 1.0058262)
(-1.5568572e-06 8.5660331e-07 1.0058262)
(-2.8355468e-06 8.7484323e-07 1.0058261)
(-2.3629926e-06 1.9083956e-07 1.0058256)
(-3.1920496e-07 -3.8579871e-07 1.0058255)
(1.8853897e-06 4.2998801e-06 1.005826)
(6.0465078e-06 6.0465078e-06 1.0058265)
(2.0827487e-06 3.9494232e-06 1.005827)
(-2.2741606e-06 3.6396707e-06 1.0058267)
(-1.7937431e-06 3.7362537e-06 1.0058264)
(-1.0685627e-06 4.0065631e-06 1.0058263)
(-1.3373074e-06 4.4505341e-06 1.0058264)
(-3.8341925e-06 4.7588461e-06 1.0058264)
(-4.2539555e-06 3.4682287e-06 1.0058256)
(-8.9584322e-07 1.6262704e-06 1.0058253)
(7.7767697e-07 3.9850513e-06 1.0058269)
(3.9494232e-06 2.0827487e-06 1.005827)
(1.5782141e-06 1.5782141e-06 1.0058275)
(-2.2875532e-06 1.5254441e-06 1.0058271)
(-1.5937835e-06 1.6573264e-06 1.0058269)
(-6.7244857e-07 1.9392219e-06 1.0058269)
(-8.0457423e-07 2.4165121e-06 1.0058271)
(-3.8178522e-06 3.0380756e-06 1.0058271)
(-5.4955684e-06 3.1308851e-06 1.0058262)
(-1.5471772e-06 2.4261621e-06 1.0058257)
(6.1718808e-07 -2.0743837e-06 1.0058266)
(3.6396707e-06 -2.2741606e-06 1.0058267)
(1.5254441e-06 -2.2875532e-06 1.0058271)
(-2.1950483e-06 -2.1950483e-06 1.0058268)
(-1.3799653e-06 -2.0215988e-06 1.0058266)
(-3.09377e-07 -1.7629157e-06 1.0058266)
(-2.3845375e-07 -1.3830804e-06 1.0058269)
(-3.1198194e-06 -8.4503563e-07 1.005827)
(-4.8658689e-06 -2.7204283e-07 1.0058263)
(-1.3656585e-06 1.9400749e-07 1.0058257)
(6.444924e-07 -1.960676e-06 1.0058263)
(3.7362537e-06 -1.7937431e-06 1.0058264)
(1.6573264e-06 -1.5937835e-06 1.0058269)
(-2.0215988e-06 -1.3799653e-06 1.0058266)
(-1.1616509e-06 -1.1616509e-06 1.0058264)
(-3.3930181e-08 -9.3222432e-07 1.0058265)
(1.1330582e-07 -6.7926247e-07 1.0058268)
(-2.7068146e-06 -3.9205631e-07 1.005827)
(-4.4565252e-06 -1.0258545e-07 1.0058263)
(-1.236477e-06 1.4408379e-07 1.0058258)
(7.2847669e-07 -1.386729e-06 1.0058262)
(4.0065631e-06 -1.0685627e-06 1.0058263)
(1.9392219e-06 -6.7244858e-07 1.0058269)
(-1.7629157e-06 -3.0937702e-07 1.0058266)
(-9.3222432e-07 -3.3930181e-08 1.0058265)
(1.7301143e-07 1.7301143e-07 1.0058266)
(3.0171426e-07 3.226957e-07 1.0058269)
(-2.5431424e-06 4.1439519e-07 1.0058272)
(-4.3297288e-06 4.3991037e-07 1.0058265)
(-1.2012124e-06 4.1301928e-07 1.005826)
(8.5660331e-07 -1.5568572e-06 1.0058262)
(4.4505341e-06 -1.3373074e-06 1.0058264)
(2.4165121e-06 -8.0457425e-07 1.0058271)
(-1.3830804e-06 -2.3845375e-07 1.0058269)
(-6.7926246e-07 1.1330582e-07 1.0058268)
(3.226957e-07 3.0171427e-07 1.0058269)
(3.5468958e-07 3.5468958e-07 1.0058273)
(-2.5895999e-06 2.6015846e-07 1.0058275)
(-4.4579012e-06 1.7931646e-10 1.0058268)
(-1.2544044e-06 -3.8852678e-07 1.0058263)
(8.7484322e-07 -2.8355468e-06 1.0058261)
(4.7588461e-06 -3.8341925e-06 1.0058264)
(3.0380756e-06 -3.8178523e-06 1.0058271)
(-8.4503562e-07 -3.1198194e-06 1.005827)
(-3.920563e-07 -2.7068146e-06 1.005827)
(4.1439519e-07 -2.5431424e-06 1.0058272)
(2.6015845e-07 -2.5895999e-06 1.0058275)
(-2.8976527e-06 -2.8976527e-06 1.0058277)
(-4.9784141e-06 -3.5324988e-06 1.0058269)
(-1.4603498e-06 -4.3561023e-06 1.0058263)
(1.9083956e-07 -2.3629926e-06 1.0058256)
(3.4682287e-06 -4.2539555e-06 1.0058256)
(3.1308851e-06 -5.4955683e-06 1.0058262)
(-2.7204282e-07 -4.8658689e-06 1.0058263)
(-1.0258543e-07 -4.4565253e-06 1.0058263)
(4.3991038e-07 -4.3297288e-06 1.0058265)
(1.7931506e-10 -4.4579011e-06 1.0058268)
(-3.5324988e-06 -4.9784141e-06 1.0058269)
(-5.9163507e-06 -5.9163507e-06 1.0058259)
(-1.8034733e-06 -4.4622739e-06 1.005825)
(-3.8579871e-07 -3.1920495e-07 1.0058255)
(1.6262704e-06 -8.9584322e-07 1.0058253)
(2.4261621e-06 -1.5471772e-06 1.0058257)
(1.9400747e-07 -1.3656585e-06 1.0058257)
(1.4408378e-07 -1.236477e-06 1.0058258)
(4.130193e-07 -1.2012124e-06 1.005826)
(-3.8852677e-07 -1.2544044e-06 1.0058263)
(-4.3561023e-06 -1.4603498e-06 1.0058263)
(-4.4622739e-06 -1.8034733e-06 1.005825)