/*--------------------------------*- C++ -*----------------------------------*\
| =========                 |                                                 |
| \\      /  F ield         | OpenFOAM: The Open Source CFD Toolbox           |
|  \\    /   O peration     | Version:  v2106                                 |
|   \\  /    A nd           | Website:  www.openfoam.com                      |
|    \\/     M anipulation  |                                                 |
\*---------------------------------------------------------------------------*/
FoamFile
{
    version     2.0;
    format      ascii;
    arch        "LSB;label=32;scalar=64";
    class       volScalarField;
    location    "37.5";
    object      gradTz;
}
// * * * * * * * * * * * * * * * * * * * * * * * * * * * * * * * * * * * * * //

dimensions      [0 -1 0 1 0 0 0];

internalField   nonuniform List<scalar> 
4000
(
524.57231
524.57178
524.57369
524.5735
524.57322
524.57302
524.57284
524.57264
524.57242
524.57229
524.57178
524.57291
524.57408
524.5738
524.57352
524.57333
524.57317
524.57296
524.57262
524.57236
524.57369
524.57408
524.57512
524.57481
524.57454
524.57437
524.57424
524.57406
524.57366
524.57316
524.5735
524.5738
524.57481
524.57451
524.57425
524.5741
524.57401
524.57388
524.57357
524.57315
524.57322
524.57352
524.57454
524.57425
524.574
524.57387
524.57381
524.57372
524.57345
524.57307
524.57302
524.57333
524.57437
524.5741
524.57387
524.57376
524.57372
524.57364
524.57339
524.57303
524.57284
524.57317
524.57424
524.57401
524.57381
524.57372
524.57368
524.57362
524.57336
524.573
524.57264
524.57296
524.57406
524.57388
524.57372
524.57364
524.57362
524.57355
524.57328
524.5729
524.57242
524.57262
524.57366
524.57357
524.57345
524.57339
524.57336
524.57328
524.573
524.57259
524.57229
524.57236
524.57316
524.57315
524.57307
524.57303
524.573
524.5729
524.57259
524.57216
775.87433
775.87421
775.87591
775.87573
775.87538
775.87511
775.87486
775.87456
775.87418
775.87413
775.87421
775.87518
775.87635
775.87607
775.87573
775.87548
775.87526
775.87494
775.8743
775.874
775.87591
775.87635
775.87735
775.87704
775.87671
775.87649
775.87633
775.87606
775.87535
775.87476
775.87573
775.87607
775.87704
775.87673
775.8764
775.87622
775.87612
775.87593
775.87532
775.87482
775.87538
775.87573
775.87671
775.8764
775.8761
775.87595
775.87589
775.87575
775.8752
775.87476
775.87511
775.87548
775.87649
775.87622
775.87595
775.87582
775.87579
775.87568
775.87515
775.87473
775.87486
775.87526
775.87633
775.87612
775.87589
775.87579
775.87576
775.87566
775.87514
775.8747
775.87456
775.87494
775.87606
775.87593
775.87575
775.87568
775.87566
775.87555
775.875
775.87452
775.87418
775.8743
775.87535
775.87532
775.8752
775.87515
775.87514
775.875
775.87439
775.87387
775.87413
775.874
775.87476
775.87482
775.87476
775.87473
775.8747
775.87452
775.87387
775.87349
772.01383
772.01386
772.01491
772.01471
772.01441
772.01419
772.01398
772.01368
772.01317
772.01313
772.01386
772.01456
772.01529
772.01503
772.01474
772.01455
772.01439
772.01408
772.01327
772.01294
772.01491
772.01529
772.01591
772.01563
772.01535
772.01519
772.0151
772.01486
772.014
772.01343
772.01471
772.01503
772.01563
772.01536
772.0151
772.01497
772.01492
772.01477
772.014
772.0135
772.01441
772.01474
772.01535
772.0151
772.01486
772.01476
772.01475
772.01465
772.01393
772.01348
772.01419
772.01455
772.01519
772.01497
772.01476
772.01468
772.0147
772.01462
772.01393
772.01349
772.01398
772.01439
772.0151
772.01492
772.01475
772.0147
772.01474
772.01466
772.01395
772.01351
772.01368
772.01408
772.01486
772.01477
772.01465
772.01462
772.01466
772.01456
772.01381
772.0133
772.01317
772.01327
772.014
772.014
772.01393
772.01393
772.01395
772.01381
772.01298
772.01238
772.01313
772.01294
772.01343
772.0135
772.01348
772.01349
772.01351
772.0133
772.01238
772.01224
768.65513
768.65507
768.65593
768.65572
768.65545
768.65527
768.65512
768.65486
768.65429
768.65414
768.65507
768.65558
768.65616
768.6559
768.65565
768.6555
768.65541
768.65516
768.65433
768.65397
768.65593
768.65616
768.65666
768.65639
768.65615
768.65604
768.65601
768.65584
768.65495
768.65437
768.65572
768.6559
768.65639
768.65613
768.65591
768.65583
768.65585
768.65577
768.65495
768.65443
768.65545
768.65565
768.65615
768.65591
768.65571
768.65566
768.65572
768.65568
768.65492
768.65444
768.65527
768.6555
768.65604
768.65583
768.65566
768.65564
768.65573
768.65571
768.65496
768.65449
768.65512
768.65541
768.65601
768.65585
768.65572
768.65573
768.65582
768.6558
768.65504
768.65455
768.65486
768.65516
768.65584
768.65577
768.65568
768.65571
768.6558
768.65576
768.65494
768.65436
768.65429
768.65433
768.65495
768.65495
768.65492
768.65496
768.65504
768.65494
768.654
768.65328
768.65414
768.65397
768.65437
768.65443
768.65444
768.65449
768.65455
768.65436
768.65328
768.65322
765.77275
765.77266
765.77343
765.77321
765.77296
765.77283
765.77274
765.77255
765.77204
765.77188
765.77266
765.77309
765.77359
765.77334
765.77311
765.773
765.77298
765.77281
765.77205
765.77171
765.77343
765.77359
765.77403
765.77376
765.77355
765.77349
765.77352
765.77344
765.77261
765.77208
765.77321
765.77334
765.77376
765.77351
765.77332
765.77329
765.77338
765.77337
765.77262
765.77213
765.77296
765.77311
765.77355
765.77332
765.77315
765.77315
765.77328
765.77332
765.77261
765.77216
765.77283
765.773
765.77349
765.77329
765.77315
765.77317
765.77332
765.77338
765.77269
765.77225
765.77274
765.77298
765.77352
765.77338
765.77328
765.77332
765.77348
765.77353
765.77283
765.77236
765.77255
765.77281
765.77344
765.77337
765.77332
765.77338
765.77353
765.77356
765.77278
765.77221
765.77204
765.77205
765.77261
765.77262
765.77261
765.77269
765.77283
765.77278
765.77187
765.77112
765.77188
765.77171
765.77208
765.77213
765.77216
765.77225
765.77236
765.77221
765.77112
765.77108
763.33992
763.33982
763.34051
763.34028
763.34006
763.33996
763.33993
763.33981
763.33937
763.33924
763.33982
763.3402
763.34063
763.34038
763.34017
763.3401
763.34013
763.34004
763.33937
763.33907
763.34051
763.34063
763.34101
763.34075
763.34056
763.34053
763.34062
763.34061
763.33988
763.3394
763.34028
763.34038
763.34075
763.3405
763.34033
763.34034
763.34048
763.34055
763.33989
763.33946
763.34006
763.34017
763.34056
763.34033
763.34019
763.34023
763.34041
763.34052
763.3399
763.33951
763.33996
763.3401
763.34053
763.34034
763.34023
763.34029
763.34049
763.34062
763.34002
763.33963
763.33993
763.34013
763.34062
763.34048
763.34041
763.34049
763.3407
763.34082
763.3402
763.33978
763.33981
763.34004
763.34061
763.34055
763.34052
763.34062
763.34082
763.34091
763.34022
763.33969
763.33937
763.33937
763.33988
763.33989
763.3399
763.34002
763.3402
763.34022
763.33938
763.33866
763.33924
763.33907
763.3394
763.33946
763.33951
763.33963
763.33978
763.33969
763.33866
763.33863
761.32807
761.32796
761.32856
761.32833
761.32813
761.32807
761.32808
761.32803
761.32766
761.32757
761.32796
761.32828
761.32865
761.32839
761.32821
761.32818
761.32825
761.32823
761.32764
761.3274
761.32856
761.32865
761.32897
761.32871
761.32854
761.32855
761.32868
761.32874
761.32811
761.32769
761.32833
761.32839
761.32871
761.32846
761.32832
761.32836
761.32855
761.32868
761.32812
761.32775
761.32813
761.32821
761.32854
761.32832
761.3282
761.32827
761.32849
761.32867
761.32815
761.32781
761.32807
761.32818
761.32855
761.32836
761.32827
761.32836
761.32861
761.3288
761.32829
761.32796
761.32808
761.32825
761.32868
761.32855
761.32849
761.32861
761.32886
761.32904
761.32852
761.32816
761.32803
761.32823
761.32874
761.32868
761.32867
761.3288
761.32904
761.3292
761.3286
761.32813
761.32766
761.32764
761.32811
761.32812
761.32815
761.32829
761.32852
761.3286
761.32785
761.32718
761.32757
761.3274
761.32769
761.32775
761.32781
761.32796
761.32816
761.32813
761.32718
761.32718
759.70724
759.70711
759.70763
759.7074
759.70722
759.70718
759.70724
759.70725
759.70695
759.7069
759.70711
759.70737
759.70768
759.70742
759.70725
759.70725
759.70737
759.70741
759.70692
759.70672
759.70763
759.70768
759.70793
759.70768
759.70753
759.70757
759.70775
759.70786
759.70733
759.70698
759.7074
759.70742
759.70768
759.70743
759.70731
759.70738
759.70761
759.7078
759.70734
759.70704
759.70722
759.70725
759.70753
759.70731
759.70721
759.70731
759.70758
759.70781
759.70739
759.70712
759.70718
759.70725
759.70757
759.70738
759.70731
759.70743
759.70772
759.70797
759.70756
759.70729
759.70724
759.70737
759.70775
759.70761
759.70758
759.70772
759.70801
759.70825
759.70782
759.70753
759.70725
759.70741
759.70786
759.7078
759.70781
759.70797
759.70825
759.70846
759.70796
759.70756
759.70695
759.70692
759.70733
759.70734
759.70739
759.70756
759.70782
759.70796
759.70731
759.70671
759.7069
759.70672
759.70698
759.70704
759.70712
759.70729
759.70753
759.70756
759.70671
759.70674
758.44633
758.44619
758.44662
758.44639
758.44623
758.44622
758.44632
758.44638
758.44616
758.44614
758.44619
758.44639
758.44663
758.44638
758.44623
758.44626
758.44641
758.44651
758.44611
758.44597
758.44662
758.44663
758.44683
758.44658
758.44645
758.44651
758.44673
758.4469
758.44647
758.44619
758.44639
758.44638
758.44658
758.44634
758.44624
758.44633
758.4466
758.44685
758.44648
758.44624
758.44623
758.44623
758.44645
758.44624
758.44616
758.44628
758.44658
758.44687
758.44654
758.44634
758.44622
758.44626
758.44651
758.44633
758.44628
758.44643
758.44675
758.44705
758.44673
758.44653
758.44632
758.44641
758.44673
758.4466
758.44658
758.44675
758.44707
758.44737
758.44703
758.44681
758.44638
758.44651
758.4469
758.44685
758.44687
758.44705
758.44737
758.44763
758.44723
758.4469
758.44616
758.44611
758.44647
758.44648
758.44654
758.44673
758.44703
758.44723
758.44668
758.44616
758.44614
758.44597
758.44619
758.44624
758.44634
758.44653
758.44681
758.4469
758.44616
758.44622
757.51335
757.5132
757.51354
757.51331
757.51317
757.51319
757.51333
757.51344
757.51329
757.5133
757.5132
757.51334
757.51352
757.51327
757.51314
757.5132
757.51339
757.51354
757.51323
757.51313
757.51354
757.51352
757.51365
757.51341
757.5133
757.51339
757.51364
757.51387
757.51353
757.51332
757.51331
757.51327
757.51341
757.51318
757.5131
757.51322
757.51351
757.51381
757.51354
757.51337
757.51317
757.51314
757.5133
757.5131
757.51304
757.51319
757.51351
757.51385
757.51361
757.51347
757.51319
757.5132
757.51339
757.51322
757.51319
757.51335
757.5137
757.51405
757.51383
757.51369
757.51333
757.51339
757.51364
757.51351
757.51351
757.5137
757.51405
757.5144
757.51416
757.514
757.51344
757.51354
757.51387
757.51381
757.51385
757.51405
757.5144
757.51471
757.5144
757.51415
757.51329
757.51323
757.51353
757.51354
757.51361
757.51383
757.51416
757.5144
757.51396
757.51352
757.5133
757.51313
757.51332
757.51337
757.51347
757.51369
757.514
757.51415
757.51352
757.51361
756.87559
756.87543
756.87569
756.87547
756.87534
756.87539
756.87556
756.87572
756.87563
756.87568
756.87543
756.87552
756.87563
756.87539
756.87528
756.87536
756.87558
756.87578
756.87556
756.87551
756.87569
756.87563
756.87571
756.87548
756.87539
756.8755
756.87578
756.87605
756.87581
756.87567
756.87547
756.87539
756.87548
756.87526
756.87519
756.87534
756.87566
756.87599
756.87582
756.87571
756.87534
756.87528
756.87539
756.87519
756.87515
756.87532
756.87567
756.87604
756.8759
756.87583
756.87539
756.87536
756.8755
756.87534
756.87532
756.87551
756.87588
756.87627
756.87614
756.87606
756.87556
756.87558
756.87578
756.87566
756.87567
756.87588
756.87625
756.87664
756.87649
756.8764
756.87572
756.87578
756.87605
756.87599
756.87604
756.87627
756.87664
756.87699
756.87678
756.8766
756.87563
756.87556
756.87581
756.87582
756.8759
756.87614
756.87649
756.87678
756.87644
756.87608
756.87568
756.87551
756.87567
756.87571
756.87583
756.87606
756.8764
756.8766
756.87608
756.8762
756.49985
756.49968
756.49986
756.49965
756.49954
756.49962
756.49981
756.50001
756.49999
756.50007
756.49968
756.49972
756.49977
756.49954
756.49945
756.49955
756.4998
756.50005
756.49991
756.49991
756.49986
756.49977
756.4998
756.49958
756.49951
756.49964
756.49994
756.50025
756.50011
756.50003
756.49965
756.49954
756.49958
756.49937
756.49933
756.49949
756.49983
756.5002
756.50011
756.50007
756.49954
756.49945
756.49951
756.49933
756.4993
756.49949
756.49986
756.50026
756.50021
756.50019
756.49962
756.49955
756.49964
756.49949
756.49949
756.49969
756.50008
756.5005
756.50046
756.50044
756.49981
756.4998
756.49994
756.49983
756.49986
756.50008
756.50047
756.50089
756.50083
756.5008
756.50001
756.50005
756.50025
756.5002
756.50026
756.5005
756.50089
756.50128
756.50116
756.50105
756.49999
756.49991
756.50011
756.50011
756.50021
756.50046
756.50083
756.50116
756.50093
756.50064
756.50007
756.49991
756.50003
756.50007
756.50019
756.50044
756.5008
756.50105
756.50064
756.50079
756.35265
756.35248
756.35258
756.35237
756.35229
756.35238
756.3526
756.35284
756.35288
756.35298
756.35248
756.35246
756.35245
756.35224
756.35217
756.35229
756.35256
756.35284
756.35279
756.35283
756.35258
756.35245
756.35243
756.35222
756.35218
756.35232
756.35264
756.35299
756.35293
756.35291
756.35237
756.35224
756.35222
756.35203
756.35201
756.35218
756.35254
756.35294
756.35294
756.35296
756.35229
756.35217
756.35218
756.35201
756.352
756.3522
756.35258
756.35302
756.35305
756.35309
756.35238
756.35229
756.35232
756.35218
756.3522
756.35242
756.35282
756.35327
756.3533
756.35335
756.3526
756.35256
756.35264
756.35254
756.35258
756.35282
756.35322
756.35367
756.35369
756.35372
756.35284
756.35284
756.35299
756.35294
756.35302
756.35327
756.35367
756.35409
756.35406
756.35401
756.35288
756.35279
756.35293
756.35294
756.35305
756.3533
756.35369
756.35406
756.35392
756.3537
756.35298
756.35283
756.35291
756.35296
756.35309
756.35335
756.35372
756.35401
756.3537
756.35388
756.40041
756.40024
756.40026
756.40006
756.40001
756.40012
756.40036
756.40063
756.40073
756.40086
756.40024
756.40017
756.40011
756.39991
756.39987
756.4
756.40029
756.40061
756.40063
756.40071
756.40026
756.40011
756.40004
756.39985
756.39983
756.39999
756.40032
756.4007
756.40072
756.40076
756.40006
756.39991
756.39985
756.39968
756.39967
756.39986
756.40023
756.40065
756.40073
756.4008
756.40001
756.39987
756.39983
756.39967
756.39969
756.3999
756.40029
756.40074
756.40085
756.40094
756.40012
756.4
756.39999
756.39986
756.3999
756.40012
756.40053
756.401
756.40111
756.40121
756.40036
756.40029
756.40032
756.40023
756.40029
756.40053
756.40094
756.40141
756.40151
756.40159
756.40063
756.40061
756.4007
756.40065
756.40074
756.401
756.40141
756.40185
756.4019
756.40191
756.40073
756.40063
756.40072
756.40073
756.40085
756.40111
756.40151
756.4019
756.40185
756.40171
756.40086
756.40071
756.40076
756.4008
756.40094
756.40121
756.40159
756.40191
756.40171
756.40191
756.6097
756.60953
756.60947
756.60929
756.60926
756.60939
756.60965
756.60995
756.61009
756.61024
756.60953
756.60941
756.6093
756.60912
756.6091
756.60925
756.60955
756.60989
756.60999
756.61011
756.60947
756.6093
756.60919
756.60902
756.60902
756.60919
756.60953
756.60993
756.61004
756.61013
756.60929
756.60912
756.60902
756.60887
756.60888
756.60908
756.60946
756.6099
756.61005
756.61017
756.60926
756.6091
756.60902
756.60888
756.60891
756.60913
756.60953
756.60999
756.61017
756.61031
756.60939
756.60925
756.60919
756.60908
756.60913
756.60937
756.60978
756.61025
756.61043
756.61058
756.60965
756.60955
756.60953
756.60946
756.60953
756.60978
756.61019
756.61066
756.61084
756.61097
756.60995
756.60989
756.60993
756.6099
756.60999
756.61025
756.61066
756.61112
756.61125
756.61132
756.61009
756.60999
756.61004
756.61005
756.61017
756.61043
756.61084
756.61125
756.61129
756.61122
756.61024
756.61011
756.61013
756.61017
756.61031
756.61058
756.61097
756.61132
756.61122
756.61144
756.94739
756.94723
756.9471
756.94694
756.94693
756.94708
756.94735
756.94767
756.94786
756.94803
756.94723
756.94707
756.94691
756.94676
756.94676
756.94692
756.94723
756.94759
756.94775
756.94791
756.9471
756.94691
756.94676
756.94662
756.94663
756.94682
756.94717
756.94758
756.94775
756.9479
756.94694
756.94676
756.94662
756.94649
756.94652
756.94673
756.9471
756.94755
756.94777
756.94794
756.94693
756.94676
756.94663
756.94652
756.94657
756.94679
756.94719
756.94766
756.94789
756.94808
756.94708
756.94692
756.94682
756.94673
756.94679
756.94703
756.94744
756.94792
756.94816
756.94835
756.94735
756.94723
756.94717
756.9471
756.94719
756.94744
756.94784
756.94832
756.94856
756.94874
756.94767
756.94759
756.94758
756.94755
756.94766
756.94792
756.94832
756.94879
756.94899
756.94911
756.94786
756.94775
756.94775
756.94777
756.94789
756.94816
756.94856
756.94899
756.94911
756.9491
756.94803
756.94791
756.9479
756.94794
756.94808
756.94835
756.94874
756.94911
756.9491
756.94934
757.38089
757.38073
757.38054
757.38041
757.38042
757.38058
757.38086
757.38119
757.38143
757.38161
757.38073
757.38053
757.38034
757.38021
757.38023
757.38041
757.38072
757.3811
757.38132
757.38151
757.38054
757.38034
757.38016
757.38004
757.38007
757.38027
757.38061
757.38103
757.38127
757.38146
757.38041
757.38021
757.38004
757.37994
757.37999
757.3802
757.38056
757.38101
757.38129
757.3815
757.38042
757.38023
757.38007
757.37999
757.38005
757.38028
757.38066
757.38113
757.38142
757.38164
757.38058
757.38041
757.38027
757.3802
757.38028
757.38052
757.38091
757.38139
757.38168
757.38191
757.38086
757.38072
757.38061
757.38056
757.38066
757.38091
757.38131
757.38178
757.38207
757.38229
757.38119
757.3811
757.38103
757.38101
757.38113
757.38139
757.38178
757.38225
757.38251
757.38268
757.38143
757.38132
757.38127
757.38129
757.38142
757.38168
757.38207
757.38251
757.3827
757.38276
757.38161
757.38151
757.38146
757.3815
757.38164
757.38191
757.38229
757.38268
757.38276
757.38301
757.87829
757.87814
757.87789
757.87778
757.87781
757.87798
757.87827
757.87861
757.87888
757.87908
757.87814
757.87791
757.87768
757.87758
757.87762
757.8778
757.87812
757.8785
757.87877
757.87899
757.87789
757.87768
757.87746
757.87738
757.87743
757.87763
757.87797
757.87839
757.87869
757.87892
757.87778
757.87758
757.87738
757.8773
757.87737
757.87758
757.87794
757.87838
757.87871
757.87895
757.87781
757.87762
757.87743
757.87737
757.87745
757.87767
757.87804
757.8785
757.87884
757.8791
757.87798
757.8778
757.87763
757.87758
757.87767
757.87791
757.87829
757.87875
757.8791
757.87935
757.87827
757.87812
757.87797
757.87794
757.87804
757.87829
757.87867
757.87913
757.87947
757.87972
757.87861
757.8785
757.87839
757.87838
757.8785
757.87875
757.87913
757.87959
757.87991
757.88012
757.87888
757.87877
757.87869
757.87871
757.87884
757.8791
757.87947
757.87991
757.88016
757.88028
757.87908
757.87899
757.87892
757.87895
757.8791
757.87935
757.87972
757.88012
757.88028
757.88053
758.40855
758.40841
758.40811
758.40802
758.40808
758.40826
758.40854
758.40889
758.40919
758.40939
758.40841
758.40815
758.40789
758.40782
758.40788
758.40807
758.40838
758.40876
758.40908
758.40932
758.40811
758.40789
758.40765
758.40759
758.40767
758.40787
758.40819
758.40861
758.40896
758.40923
758.40802
758.40782
758.40759
758.40755
758.40763
758.40784
758.40818
758.40861
758.40898
758.40926
758.40808
758.40788
758.40767
758.40763
758.40772
758.40795
758.4083
758.40874
758.40912
758.4094
758.40826
758.40807
758.40787
758.40784
758.40795
758.40818
758.40853
758.40898
758.40936
758.40965
758.40854
758.40838
758.40819
758.40818
758.4083
758.40853
758.40889
758.40934
758.40972
758.41
758.40889
758.40876
758.40861
758.40861
758.40874
758.40898
758.40934
758.40978
758.41014
758.41039
758.40919
758.40908
758.40896
758.40898
758.40912
758.40936
758.40972
758.41014
758.41046
758.41063
758.40939
758.40932
758.40923
758.40926
758.4094
758.40965
758.41
758.41039
758.41063
758.41089
758.94166
758.94154
758.94119
758.94113
758.94121
758.9414
758.94168
758.94202
758.94234
758.94255
758.94154
758.94125
758.94097
758.94093
758.94101
758.94121
758.9415
758.94188
758.94224
758.94249
758.94119
758.94097
758.94071
758.94068
758.94078
758.94098
758.94129
758.94169
758.94208
758.94238
758.94113
758.94093
758.94068
758.94067
758.94077
758.94098
758.94129
758.94171
758.94211
758.94241
758.94121
758.94101
758.94078
758.94077
758.94088
758.94109
758.94142
758.94183
758.94224
758.94255
758.9414
758.94121
758.94098
758.94098
758.94109
758.94131
758.94164
758.94206
758.94248
758.94278
758.94168
758.9415
758.94129
758.94129
758.94142
758.94164
758.94197
758.9424
758.94281
758.94311
758.94202
758.94188
758.94169
758.94171
758.94183
758.94206
758.9424
758.94281
758.94321
758.94349
758.94234
758.94224
758.94208
758.94211
758.94224
758.94248
758.94281
758.94321
758.94358
758.9438
758.94255
758.94249
758.94238
758.94241
758.94255
758.94278
758.94311
758.94349
758.9438
758.94405
759.4488
759.4487
759.44831
759.44828
759.44838
759.44857
759.44884
759.44918
759.44952
759.44972
759.4487
759.4484
759.44809
759.44809
759.44819
759.44839
759.44867
759.44903
759.44943
759.44969
759.44831
759.44809
759.44782
759.44783
759.44794
759.44814
759.44842
759.4488
759.44923
759.44955
759.44828
759.44809
759.44783
759.44784
759.44796
759.44816
759.44845
759.44884
759.44927
759.44959
759.44838
759.44819
759.44794
759.44796
759.44808
759.44829
759.44858
759.44897
759.4494
759.44972
759.44857
759.44839
759.44814
759.44816
759.44829
759.44849
759.44879
759.44918
759.44961
759.44993
759.44884
759.44867
759.44842
759.44845
759.44858
759.44879
759.44909
759.44948
759.44991
759.45023
759.44918
759.44903
759.4488
759.44884
759.44897
759.44918
759.44948
759.44987
759.45029
759.4506
759.44952
759.44943
759.44923
759.44927
759.4494
759.44961
759.44991
759.45029
759.4507
759.45097
759.44972
759.44969
759.44955
759.44959
759.44972
759.44993
759.45023
759.4506
759.45097
759.45121
759.90247
759.90239
759.90197
759.90197
759.9021
759.90228
759.90254
759.90287
759.90322
759.90341
759.90239
759.90208
759.90176
759.90179
759.90191
759.9021
759.90237
759.90271
759.90313
759.9034
759.90197
759.90176
759.90148
759.90152
759.90165
759.90184
759.9021
759.90245
759.90291
759.90325
759.90197
759.90179
759.90152
759.90156
759.9017
759.90189
759.90215
759.9025
759.90295
759.90328
759.9021
759.90191
759.90165
759.9017
759.90183
759.90202
759.90228
759.90263
759.90308
759.9034
759.90228
759.9021
759.90184
759.90189
759.90202
759.90221
759.90247
759.90282
759.90327
759.90359
759.90254
759.90237
759.9021
759.90215
759.90228
759.90247
759.90274
759.90308
759.90353
759.90386
759.90287
759.90271
759.90245
759.9025
759.90263
759.90282
759.90308
759.90343
759.90388
759.90421
759.90322
759.90313
759.90291
759.90295
759.90308
759.90327
759.90353
759.90388
759.90432
759.90462
759.90341
759.9034
759.90325
759.90328
759.9034
759.90359
759.90386
759.90421
759.90462
759.90486
760.27661
760.27656
760.2761
760.27614
760.27628
760.27647
760.27671
760.27702
760.27737
760.27756
760.27656
760.27623
760.2759
760.27597
760.27611
760.27629
760.27653
760.27686
760.2773
760.27756
760.2761
760.2759
760.27562
760.27569
760.27584
760.27602
760.27625
760.27657
760.27704
760.27739
760.27614
760.27597
760.27569
760.27577
760.27592
760.27609
760.27632
760.27663
760.27709
760.27743
760.27628
760.27611
760.27584
760.27592
760.27606
760.27624
760.27646
760.27676
760.27721
760.27754
760.27647
760.27629
760.27602
760.27609
760.27624
760.27641
760.27663
760.27693
760.27738
760.27771
760.27671
760.27653
760.27625
760.27632
760.27646
760.27663
760.27685
760.27715
760.2776
760.27793
760.27702
760.27686
760.27657
760.27663
760.27676
760.27693
760.27715
760.27745
760.27791
760.27825
760.27737
760.2773
760.27704
760.27709
760.27721
760.27738
760.2776
760.27791
760.27838
760.27871
760.27756
760.27756
760.27739
760.27743
760.27754
760.27771
760.27793
760.27825
760.27871
760.27893
760.54671
760.54668
760.5462
760.54627
760.54643
760.54662
760.54684
760.54712
760.54747
760.54764
760.54668
760.54635
760.54602
760.54612
760.54628
760.54645
760.54667
760.54696
760.54741
760.54767
760.5462
760.54602
760.54573
760.54584
760.546
760.54617
760.54637
760.54665
760.54713
760.54749
760.54627
760.54612
760.54584
760.54595
760.54611
760.54627
760.54646
760.54672
760.54718
760.54752
760.54643
760.54628
760.546
760.54611
760.54626
760.54642
760.5466
760.54685
760.5473
760.54762
760.54662
760.54645
760.54617
760.54627
760.54642
760.54657
760.54674
760.54699
760.54744
760.54776
760.54684
760.54667
760.54637
760.54646
760.5466
760.54674
760.54691
760.54716
760.54761
760.54794
760.54712
760.54696
760.54665
760.54672
760.54685
760.54699
760.54716
760.54742
760.54788
760.54822
760.54747
760.54741
760.54713
760.54718
760.5473
760.54744
760.54761
760.54788
760.54836
760.54872
760.54764
760.54767
760.54749
760.54752
760.54762
760.54776
760.54794
760.54822
760.54872
760.54892
760.6899
760.6899
760.6894
760.68951
760.68969
760.68987
760.69006
760.69031
760.69065
760.69081
760.6899
760.68957
760.68924
760.68938
760.68955
760.68972
760.6899
760.69016
760.69061
760.69086
760.6894
760.68924
760.68896
760.6891
760.68927
760.68943
760.68959
760.68983
760.69031
760.69067
760.68951
760.68938
760.6891
760.68925
760.68941
760.68956
760.6897
760.68991
760.69037
760.6907
760.68969
760.68955
760.68927
760.68941
760.68957
760.68971
760.68984
760.69003
760.69047
760.69079
760.68987
760.68972
760.68943
760.68956
760.68971
760.68984
760.68996
760.69015
760.69058
760.69089
760.69006
760.6899
760.68959
760.6897
760.68984
760.68996
760.69008
760.69027
760.6907
760.69102
760.69031
760.69016
760.68983
760.68991
760.69003
760.69015
760.69027
760.69047
760.69092
760.69127
760.69065
760.69061
760.69031
760.69037
760.69047
760.69058
760.6907
760.69092
760.69141
760.69178
760.69081
760.69086
760.69067
760.6907
760.69079
760.69089
760.69102
760.69127
760.69178
760.69196
760.68506
760.6851
760.68458
760.68473
760.68492
760.68508
760.68525
760.68546
760.68579
760.68593
760.6851
760.68477
760.68444
760.68461
760.6848
760.68495
760.6851
760.68532
760.68576
760.686
760.68458
760.68444
760.68417
760.68434
760.68453
760.68466
760.68478
760.68497
760.68545
760.6858
760.68473
760.68461
760.68434
760.68452
760.6847
760.68482
760.68491
760.68507
760.68551
760.68583
760.68492
760.6848
760.68453
760.6847
760.68486
760.68497
760.68505
760.68518
760.6856
760.6859
760.68508
760.68495
760.68466
760.68482
760.68497
760.68507
760.68514
760.68526
760.68568
760.68597
760.68525
760.6851
760.68478
760.68491
760.68505
760.68514
760.6852
760.68533
760.68575
760.68605
760.68546
760.68532
760.68497
760.68507
760.68518
760.68526
760.68533
760.68547
760.68591
760.68624
760.68579
760.68576
760.68545
760.68551
760.6856
760.68568
760.68575
760.68591
760.68639
760.68678
760.68593
760.686
760.6858
760.68583
760.6859
760.68597
760.68605
760.68624
760.68678
760.68693
760.51286
760.51292
760.5124
760.51258
760.51278
760.51294
760.51307
760.51324
760.51355
760.51366
760.51292
760.51261
760.51229
760.51249
760.51269
760.51283
760.51293
760.5131
760.51354
760.51376
760.5124
760.51229
760.51202
760.51223
760.51242
760.51254
760.51261
760.51275
760.51321
760.51355
760.51258
760.51249
760.51223
760.51244
760.51262
760.51272
760.51276
760.51285
760.51327
760.51357
760.51278
760.51269
760.51242
760.51262
760.51279
760.51287
760.5129
760.51296
760.51335
760.51363
760.51294
760.51283
760.51254
760.51272
760.51287
760.51294
760.51295
760.51301
760.51339
760.51366
760.51307
760.51293
760.51261
760.51276
760.5129
760.51295
760.51296
760.51301
760.5134
760.51369
760.51324
760.5131
760.51275
760.51285
760.51296
760.51301
760.51301
760.51308
760.5135
760.51383
760.51355
760.51354
760.51321
760.51327
760.51335
760.51339
760.5134
760.5135
760.51398
760.51437
760.51366
760.51376
760.51355
760.51357
760.51363
760.51366
760.51369
760.51383
760.51437
760.51449
760.15581
760.1559
760.15538
760.15559
760.1558
760.15594
760.15603
760.15616
760.15644
760.15652
760.1559
760.1556
760.15529
760.15553
760.15574
760.15585
760.15591
760.15604
760.15645
760.15665
760.15538
760.15529
760.15504
760.15528
760.15548
760.15557
760.15559
760.15567
760.15611
760.15643
760.15559
760.15553
760.15528
760.15552
760.1557
760.15577
760.15576
760.15579
760.15618
760.15645
760.1558
760.15574
760.15548
760.1557
760.15587
760.15592
760.15589
760.15588
760.15624
760.15649
760.15594
760.15585
760.15557
760.15577
760.15592
760.15596
760.15591
760.15589
760.15624
760.15648
760.15603
760.15591
760.15559
760.15576
760.15589
760.15591
760.15585
760.15583
760.15619
760.15645
760.15616
760.15604
760.15567
760.15579
760.15588
760.15589
760.15583
760.15583
760.15622
760.15653
760.15644
760.15645
760.15611
760.15618
760.15624
760.15624
760.15619
760.15622
760.15668
760.15707
760.15652
760.15665
760.15643
760.15645
760.15649
760.15648
760.15645
760.15653
760.15707
760.15715
759.59831
759.59844
759.59792
759.59815
759.59838
759.59849
759.59854
759.59863
759.59887
759.59892
759.59844
759.59815
759.59786
759.59813
759.59834
759.59843
759.59845
759.59851
759.5989
759.59907
759.59792
759.59786
759.59762
759.59789
759.59809
759.59816
759.59813
759.59814
759.59855
759.59885
759.59815
759.59813
759.59789
759.59816
759.59834
759.59838
759.59831
759.59826
759.59862
759.59887
759.59838
759.59834
759.59809
759.59834
759.5985
759.59852
759.59843
759.59835
759.59866
759.59888
759.59849
759.59843
759.59816
759.59838
759.59852
759.59852
759.59841
759.59831
759.59862
759.59883
759.59854
759.59845
759.59813
759.59831
759.59843
759.59841
759.59829
759.59819
759.59851
759.59873
759.59863
759.59851
759.59814
759.59826
759.59835
759.59831
759.59819
759.59812
759.59847
759.59875
759.59887
759.5989
759.59855
759.59862
759.59866
759.59862
759.59851
759.59847
759.5989
759.59928
759.59892
759.59907
759.59885
759.59887
759.59888
759.59883
759.59873
759.59875
759.59928
759.59933
758.82668
758.82685
758.82633
758.82659
758.82682
758.82691
758.82692
758.82695
758.82715
758.82717
758.82685
758.82658
758.8263
758.8266
758.82681
758.82688
758.82684
758.82685
758.8272
758.82734
758.82633
758.8263
758.82608
758.82638
758.82658
758.82661
758.82653
758.82647
758.82684
758.82711
758.82659
758.8266
758.82638
758.82667
758.82685
758.82685
758.82672
758.8266
758.82691
758.82713
758.82682