/*--------------------------------*- C++ -*----------------------------------*\
| =========                 |                                                 |
| \\      /  F ield         | OpenFOAM: The Open Source CFD Toolbox           |
|  \\    /   O peration     | Version:  v2106                                 |
|   \\  /    A nd           | Website:  www.openfoam.com                      |
|    \\/     M anipulation  |                                                 |
\*---------------------------------------------------------------------------*/
FoamFile
{
    version     2.0;
    format      ascii;
    arch        "LSB;label=32;scalar=64";
    class       volVectorField;
    location    "37.5";
    object      gradT;
}
// * * * * * * * * * * * * * * * * * * * * * * * * * * * * * * * * * * * * * //

dimensions      [0 -1 0 1 0 0 0];

internalField   nonuniform List<vector> 
4000
(
(-0.00010210118 -0.00010210118 524.57231)
(0.00028130305 0.00018839099 524.57178)
(0.00038862044 6.7630678e-05 524.57369)
(-0.00010470441 5.268501e-05 524.5735)
(-9.8755172e-05 5.3412421e-05 524.57322)
(-7.3759019e-05 5.5488148e-05 524.57302)
(-7.1206733e-05 5.7437247e-05 524.57284)
(-7.8850942e-05 5.5700235e-05 524.57264)
(-7.0024546e-05 4.2583744e-05 524.57242)
(-1.9004305e-05 2.1170243e-05 524.57229)
(0.000188391 0.00028130305 524.57178)
(0.00053590084 0.00053590083 524.57291)
(0.00018506147 0.00032524049 524.57408)
(-0.0001260318 0.0002998694 524.5738)
(-9.4550465e-05 0.0003025596 524.57352)
(-6.7721781e-05 0.00030965103 524.57333)
(-7.0888602e-05 0.00031897096 524.57317)
(-0.0001011312 0.00032203672 524.57296)
(-0.00012181953 0.00029297956 524.57262)
(-4.0417806e-05 0.00021380152 524.57236)
(6.7630673e-05 0.00038862044 524.57369)
(0.00032524048 0.00018506146 524.57408)
(0.00015258901 0.000152589 524.57512)
(-0.00012738529 0.0001499307 524.57481)
(-8.8973546e-05 0.00015359081 524.57454)
(-5.7347663e-05 0.00016166985 524.57437)
(-5.882104e-05 0.00017512386 524.57424)
(-0.00010484234 0.00019233191 524.57406)
(-0.00017825974 0.00019966633 524.57366)
(-7.1789664e-05 0.00017095341 524.57316)
(5.2685009e-05 -0.00010470441 524.5735)
(0.00029986939 -0.00012603179 524.5738)
(0.0001499307 -0.00012738529 524.57481)
(-0.00012502998 -0.00012502999 524.57451)
(-8.2811317e-05 -0.00012017789 524.57425)
(-4.6188728e-05 -0.0001123343 524.5741)
(-4.0226535e-05 -0.00010027662 524.57401)
(-7.6588723e-05 -8.202718e-05 524.57388)
(-0.00014319804 -5.6834449e-05 524.57357)
(-5.9559757e-05 -2.9986553e-05 524.57315)
(5.3412421e-05 -9.8755174e-05 524.57322)
(0.0003025596 -9.4550458e-05 524.57352)
(0.00015359081 -8.8973538e-05 524.57454)
(-0.00012017789 -8.2811314e-05 524.57425)
(-7.627786e-05 -7.627786e-05 524.574)
(-3.7446395e-05 -6.901023e-05 524.57387)
(-2.8513917e-05 -6.0579728e-05 524.57381)
(-6.1400174e-05 -5.049854e-05 524.57372)
(-0.00012621912 -3.8854989e-05 524.57345)
(-5.3891066e-05 -2.7987243e-05 524.57307)
(5.5488152e-05 -7.3759016e-05 524.57302)
(0.00030965103 -6.7721782e-05 524.57333)
(0.00016166985 -5.7347664e-05 524.57437)
(-0.00011233431 -4.6188732e-05 524.5741)
(-6.9010233e-05 -3.7446395e-05 524.57387)
(-3.0490596e-05 -3.04906e-05 524.57376)
(-2.1714845e-05 -2.4789546e-05 524.57372)
(-5.4863984e-05 -2.0212263e-05 524.57364)
(-0.00012068674 -1.6799255e-05 524.57339)
(-5.2314593e-05 -1.4846979e-05 524.57303)
(5.7437244e-05 -7.1206735e-05 524.57284)
(0.00031897096 -7.088861e-05 524.57317)
(0.00017512386 -5.8821041e-05 524.57424)
(-0.00010027662 -4.0226536e-05 524.57401)
(-6.0579728e-05 -2.8513919e-05 524.57381)
(-2.4789546e-05 -2.1714846e-05 524.57372)
(-1.8235581e-05 -1.8235574e-05 524.57368)
(-5.3409883e-05 -1.7661934e-05 524.57362)
(-0.00012085383 -1.9569174e-05 524.57336)
(-5.2589549e-05 -2.2693462e-05 524.573)
(5.5700236e-05 -7.8850944e-05 524.57264)
(0.00032203672 -0.0001011312 524.57296)
(0.00019233192 -0.00010484235 524.57406)
(-8.2027184e-05 -7.6588719e-05 524.57388)
(-5.0498544e-05 -6.1400175e-05 524.57372)
(-2.0212251e-05 -5.4863983e-05 524.57364)
(-1.7661933e-05 -5.3409884e-05 524.57362)
(-5.6197584e-05 -5.6197575e-05 524.57355)
(-0.00012571827 -6.2472058e-05 524.57328)
(-5.4397452e-05 -6.9846575e-05 524.5729)
(4.2583737e-05 -7.0024539e-05 524.57242)
(0.00029297955 -0.00012181953 524.57262)
(0.00019966635 -0.00017825975 524.57366)
(-5.6834448e-05 -0.00014319804 524.57357)
(-3.8854993e-05 -0.00012621911 524.57345)
(-1.6799255e-05 -0.00012068675 524.57339)
(-1.9569173e-05 -0.00012085384 524.57336)
(-6.2472057e-05 -0.00012571827 524.57328)
(-0.00013450283 -0.00013450283 524.573)
(-5.7505893e-05 -0.00014335793 524.57259)
(2.1170242e-05 -1.9004305e-05 524.57229)
(0.00021380152 -4.0417801e-05 524.57236)
(0.00017095341 -7.1789663e-05 524.57316)
(-2.9986546e-05 -5.9559758e-05 524.57315)
(-2.798725e-05 -5.3891062e-05 524.57307)
(-1.4846987e-05 -5.2314595e-05 524.57303)
(-2.2693459e-05 -5.258955e-05 524.573)
(-6.9846573e-05 -5.4397452e-05 524.5729)
(-0.00014335793 -5.7505894e-05 524.57259)
(-6.0300854e-05 -6.0300854e-05 524.57216)
(-0.00022117233 -0.00022117234 775.87433)
(0.0012198432 0.00055636523 775.87421)
(0.0014150666 0.00019371072 775.87591)
(-0.0003863673 0.000139475 775.87573)
(-0.00043713713 0.00014083048 775.87538)
(-0.00035086219 0.00015027129 775.87511)
(-0.00034814054 0.00015985184 775.87486)
(-0.00039204547 0.0001487313 775.87456)
(-0.00031401636 7.3233389e-05 775.87418)
(-7.1036076e-05 7.6517161e-07 775.87413)
(0.00055636524 0.0012198432 775.87421)
(0.0018421677 0.0018421677 775.87518)
(0.00078973128 0.0011676396 775.87635)
(-0.00046568765 0.0010629617 775.87607)
(-0.0004209427 0.0010700504 775.87573)
(-0.00032233015 0.0011035178 775.87548)
(-0.00035045053 0.001149545 775.87526)
(-0.00052197315 0.0011590973 775.87494)
(-0.00053596555 0.00098728698 775.8743)
(-0.00014350429 0.00066180131 775.874)
(0.00019371072 0.0014150666 775.87591)
(0.0011676396 0.00078973128 775.87635)
(0.00063586056 0.00063586055 775.87735)
(-0.0004839565 0.00060994106 775.87704)
(-0.00039658098 0.00062430175 775.87671)
(-0.00027136757 0.00066378433 775.87649)
(-0.00029256109 0.00073019166 775.87633)
(-0.00055430346 0.00081172604 775.87606)
(-0.00081131232 0.00082497852 775.87535)
(-0.00028802652 0.00067662792 775.87476)
(0.000139475 -0.0003863673 775.87573)
(0.0010629617 -0.00046568764 775.87607)
(0.00060994106 -0.0004839565 775.87704)
(-0.00047724645 -0.00047724646 775.87673)
(-0.00036709943 -0.00045432159 775.8764)
(-0.00021644024 -0.00041571938 775.87622)
(-0.00020250882 -0.00035629397 775.87612)
(-0.00042718629 -0.00026790144 775.87593)
(-0.00067106368 -0.000155465 775.87532)
(-0.0002424047 -4.6618646e-05 775.87482)
(0.00014083049 -0.00043713713 775.87538)
(0.0010700504 -0.00042094269 775.87573)
(0.00062430175 -0.00039658097 775.87671)
(-0.00045432158 -0.00036709943 775.8764)
(-0.0003350539 -0.0003350539 775.8761)
(-0.00017333995 -0.00029933623 775.87595)
(-0.00014474315 -0.0002578501 775.87589)
(-0.00035347449 -0.00020814091 775.87575)
(-0.00059002953 -0.00015181882 775.8752)
(-0.00021546229 -9.9040219e-05 775.87476)
(0.00015027129 -0.00035086219 775.87511)
(0.0011035178 -0.00032233015 775.87548)
(0.00066378433 -0.00027136757 775.87649)
(-0.00041571938 -0.00021644023 775.87622)
(-0.00029933624 -0.00017333995 775.87595)
(-0.00013923643 -0.00013923644 775.87582)
(-0.00011131349 -0.00011150638 775.87579)
(-0.00032115501 -8.9331996e-05 775.87568)
(-0.00056196299 -7.2983547e-05 775.87515)
(-0.00020721896 -6.3338333e-05 775.87473)
(0.00015985184 -0.00034814054 775.87486)
(0.001149545 -0.00035045053 775.87526)
(0.00073019166 -0.00029256109 775.87633)
(-0.00035629397 -0.00020250882 775.87612)
(-0.00025785011 -0.00014474315 775.87589)
(-0.00011150639 -0.0001113135 775.87579)
(-9.4838709e-05 -9.4838709e-05 775.87576)
(-0.00031495165 -9.3284749e-05 775.87566)
(-0.00056403587 -0.00010475713 775.87514)
(-0.00020903215 -0.00012347755 775.8747)
(0.0001487313 -0.00039204547 775.87456)
(0.0011590973 -0.00052197315 775.87494)
(0.00081172603 -0.00055430347 775.87606)
(-0.00026790144 -0.00042718629 775.87593)
(-0.00020814091 -0.0003534745 775.87575)
(-8.9331994e-05 -0.00032115501 775.87568)
(-9.3284748e-05 -0.00031495165 775.87566)
(-0.00033107343 -0.00033107343 775.87555)
(-0.00059215579 -0.0003658024 775.875)
(-0.00021969925 -0.0004072633 775.87452)
(7.3233391e-05 -0.00031401637 775.87418)
(0.00098728698 -0.00053596555 775.8743)
(0.00082497852 -0.00081131233 775.87535)
(-0.00015546499 -0.00067106368 775.87532)
(-0.00015181882 -0.00059002953 775.8752)
(-7.2983543e-05 -0.00056196299 775.87515)
(-0.00010475712 -0.00056403587 775.87514)
(-0.0003658024 -0.00059215579 775.875)
(-0.00064022574 -0.00064022573 775.87439)
(-0.00023667274 -0.00067182581 775.87387)
(7.6517305e-07 -7.1036075e-05 775.87413)
(0.00066180131 -0.00014350429 775.874)
(0.00067662791 -0.00028802652 775.87476)
(-4.6618642e-05 -0.0002424047 775.87482)
(-9.9040223e-05 -0.00021546229 775.87476)
(-6.3338332e-05 -0.00020721897 775.87473)
(-0.00012347755 -0.00020903215 775.8747)
(-0.0004072633 -0.00021969925 775.87452)
(-0.00067182581 -0.00023667274 775.87387)
(-0.00024076597 -0.00024076596 775.87349)
(-0.00018317232 -0.00018317232 772.01383)
(0.0018667203 0.00083779151 772.01386)
(0.0019084127 0.00035638212 772.01491)
(-0.00063997277 0.00028156896 772.01471)
(-0.00071893589 0.00028485815 772.01441)
(-0.00058989831 0.00030341342 772.01419)
(-0.00061617885 0.00032524008 772.01398)
(-0.00075759091 0.00030514571 772.01368)
(-0.00050361223 0.00012159217 772.01317)
(-5.6220708e-05 -6.3814182e-05 772.01313)
(0.00083779151 0.0018667203 772.01386)
(0.002676052 0.002676052 772.01456)
(0.0010740789 0.0017642818 772.01529)
(-0.00074725873 0.0016149644 772.01503)
(-0.0006861692 0.0016293469 772.01474)
(-0.00052932542 0.0016931628 772.01455)
(-0.00061358042 0.0017879971 772.01439)
(-0.0010630628 0.0018192368 772.01408)
(-0.0010570521 0.0014573869 772.01327)
(-0.00024162706 0.00084227343 772.01294)
(0.00035638213 0.0019084127 772.01491)
(0.0017642818 0.0010740789 772.01529)
(0.00084732517 0.00084732518 772.01591)
(-0.00077490772 0.00080617839 772.01563)
(-0.00064073757 0.00083256466 772.01535)
(-0.00043124809 0.00090485842 772.01519)
(-0.00049010484 0.0010292284 772.0151)
(-0.0010882011 0.0011885455 772.01486)
(-0.0014805756 0.0012211958 772.014)
(-0.00046629632 0.00098979784 772.01343)
(0.00028156896 -0.00063997277 772.01471)
(0.0016149645 -0.00074725873 772.01503)
(0.00080617839 -0.00077490772 772.01563)
(-0.00076201925 -0.00076201925 772.01536)
(-0.00058748917 -0.00072045302 772.0151)
(-0.00033266172 -0.00065112675 772.01497)
(-0.00032989336 -0.00054498387 772.01492)
(-0.00087109537 -0.00038877924 772.01477)
(-0.0012557997 -0.00020026266 772.014)
(-0.00039589234 -2.7375184e-05 772.0135)
(0.00028485815 -0.00071893588 772.01441)
(0.0016293469 -0.0006861692 772.01474)
(0.00083256466 -0.00064073757 772.01535)
(-0.00072045302 -0.00058748917 772.0151)
(-0.00052984507 -0.00052984507 772.01486)
(-0.00025577893 -0.0004660109 772.01476)
(-0.00022775733 -0.0003924822 772.01475)
(-0.00074347994 -0.00030527013 772.01465)
(-0.0011191715 -0.00020924801 772.01393)
(-0.000351038 -0.00012122255 772.01348)
(0.00030341342 -0.00058989832 772.01419)
(0.0016931628 -0.00052932543 772.01455)
(0.00090485842 -0.00043124809 772.01519)
(-0.00065112675 -0.00033266172 772.01497)
(-0.0004660109 -0.00025577893 772.01476)
(-0.00019529885 -0.00019529885 772.01468)
(-0.00016915259 -0.00014706937 772.0147)
(-0.00068786118 -0.00011003378 772.01462)
(-0.0010717521 -8.5254285e-05 772.01393)
(-0.0003372087 -7.3385972e-05 772.01349)
(0.00032524008 -0.00061617885 772.01398)
(0.0017879971 -0.00061358043 772.01439)
(0.0010292284 -0.00049010484 772.0151)
(-0.00054498386 -0.00032989337 772.01492)
(-0.0003924822 -0.00022775733 772.01475)
(-0.00014706937 -0.00016915259 772.0147)
(-0.00014249227 -0.00014249226 772.01474)
(-0.00068166485 -0.00014562096 772.01466)
(-0.0010825237 -0.00017661401 772.01395)
(-0.00034312579 -0.00022565734 772.01351)
(0.0003051457 -0.0007575909 772.01368)
(0.0018192368 -0.0010630628 772.01408)
(0.0011885455 -0.0010882011 772.01486)
(-0.00038877924 -0.00087109538 772.01477)
(-0.00030527012 -0.00074347993 772.01465)
(-0.00011003378 -0.00068786118 772.01462)
(-0.00014562096 -0.00068166485 772.01466)
(-0.00072198292 -0.00072198292 772.01456)
(-0.0011517885 -0.00080366519 772.01381)
(-0.00036990426 -0.00089787967 772.0133)
(0.00012159217 -0.00050361223 772.01317)
(0.0014573868 -0.0010570521 772.01327)
(0.0012211958 -0.0014805756 772.014)
(-0.00020026266 -0.0012557997 772.014)
(-0.000209248 -0.0011191715 772.01393)
(-8.5254285e-05 -0.0010717521 772.01393)
(-0.00017661401 -0.0010825237 772.01395)
(-0.00080366519 -0.0011517885 772.01381)
(-0.0012584205 -0.0012584205 772.01298)
(-0.00040593544 -0.0011773497 772.01238)
(-6.381418e-05 -5.6220711e-05 772.01313)
(0.00084227343 -0.00024162706 772.01294)
(0.00098979783 -0.00046629632 772.01343)
(-2.7375182e-05 -0.00039589234 772.0135)
(-0.00012122254 -0.000351038 772.01348)
(-7.3385974e-05 -0.0003372087 772.01349)
(-0.00022565734 -0.0003431258 772.01351)
(-0.00089787967 -0.00036990426 772.0133)
(-0.0011773497 -0.00040593545 772.01238)
(-0.00031585711 -0.00031585712 772.01224)
(-0.00019691709 -0.00019691709 768.65513)
(0.0023037703 0.0010232652 768.65507)
(0.0022598886 0.00044413427 768.65593)
(-0.00088569551 0.00035499394 768.65572)
(-0.00096007072 0.00036181474 768.65545)
(-0.00078192274 0.00039124894 768.65527)
(-0.00085773921 0.0004308599 768.65512)
(-0.0012016012 0.00041569851 768.65486)
(-0.00086295415 0.00014100323 768.65429)
(-0.00010053466 -0.00012248352 768.65414)
(0.0010232652 0.0023037703 768.65507)
(0.0032653474 0.0032653474 768.65558)
(0.0012574818 0.0021648167 768.65616)
(-0.0010091748 0.0019865276 768.6559)
(-0.00090568821 0.0020127022 768.65565)
(-0.000678355 0.0021105363 768.6555)
(-0.00082106487 0.0022639676 768.65541)
(-0.0016363862 0.002340172 768.65516)
(-0.0016702272 0.0018121959 768.65433)
(-0.00036402142 0.00096871319 768.65397)
(0.00044413427 0.0022598886 768.65593)
(0.0021648167 0.0012574818 768.65616)
(0.00098106889 0.00098106889 768.65666)
(-0.00103781 0.00093405386 768.65639)
(-0.000836062 0.00097585794 768.65615)
(-0.00053065735 0.0010824265 768.65604)
(-0.00062810359 0.0012661757 768.65601)
(-0.0016533729 0.0015044747 768.65584)
(-0.0022344129 0.0015492145 768.65495)
(-0.00066285643 0.0012351454 768.65437)
(0.00035499394 -0.00088569551 768.65572)
(0.0019865276 -0.0010091748 768.6559)
(0.00093405386 -0.00103781 768.65639)
(-0.0010143858 -0.0010143858 768.65613)
(-0.00075731561 -0.00095228337 768.65591)
(-0.00038803729 -0.00085171098 768.65583)
(-0.00039901659 -0.00069928889 768.65585)
(-0.0013533473 -0.00047757802 768.65577)
(-0.0019395565 -0.00022169702 768.65495)
(-0.00057340077 2.3885303e-06 768.65443)
(0.00036181474 -0.00096007072 768.65545)
(0.0020127022 -0.00090568821 768.65565)
(0.00097585795 -0.000836062 768.65615)
(-0.00095228336 -0.00075731561 768.65591)
(-0.00067338724 -0.00067338724 768.65571)
(-0.00027766288 -0.00058164522 768.65566)
(-0.00025397062 -0.0004771522 768.65572)
(-0.001175781 -0.00035475525 768.65568)
(-0.0017544464 -0.00022382335 768.65492)
(-0.00051346606 -0.00010683363 768.65444)
(0.00039124894 -0.00078192274 768.65527)
(0.0021105363 -0.000678355 768.6555)
(0.0010824265 -0.00053065735 768.65604)
(-0.00085171099 -0.00038803729 768.65583)
(-0.00058164522 -0.00027766288 768.65566)
(-0.00019180225 -0.00019180226 768.65564)
(-0.00017212662 -0.00012508037 768.65573)
(-0.0011000185 -7.6713587e-05 768.65571)
(-0.0016916349 -4.910225e-05 768.65496)
(-0.00049540763 -4.1390728e-05 768.65449)
(0.0004308599 -0.00085773922 768.65512)
(0.0022639676 -0.00082106487 768.65541)
(0.0012661757 -0.0006281036 768.65601)
(-0.0006992889 -0.00039901659 768.65585)
(-0.0004771522 -0.00025397062 768.65572)
(-0.00012508036 -0.00017212662 768.65573)
(-0.00013888196 -0.00013888196 768.65582)
(-0.0010998029 -0.00015394123 768.6558)
(-0.0017191235 -0.00021790087 768.65504)
(-0.00050832505 -0.00031643664 768.65455)
(0.00041569851 -0.0012016012 768.65486)
(0.002340172 -0.0016363862 768.65516)
(0.0015044747 -0.0016533729 768.65584)
(-0.00047757801 -0.0013533474 768.65577)
(-0.00035475525 -0.0011757811 768.65568)
(-7.6713588e-05 -0.0011000185 768.65571)
(-0.00015394122 -0.0010998029 768.6558)
(-0.0011790374 -0.0011790374 768.65576)
(-0.0018541303 -0.0013390554 768.65494)
(-0.00056109814 -0.0015277604 768.65436)
(0.00014100323 -0.00086295414 768.65429)
(0.0018121958 -0.0016702272 768.65433)
(0.0015492145 -0.0022344129 768.65495)
(-0.00022169703 -0.0019395565 768.65495)
(-0.00022382334 -0.0017544464 768.65492)
(-4.910224e-05 -0.0016916349 768.65496)
(-0.00021790087 -0.0017191235 768.65504)
(-0.0013390554 -0.0018541303 768.65494)
(-0.0020678465 -0.0020678465 768.654)
(-0.00063412841 -0.001732657 768.65328)
(-0.00012248353 -0.00010053466 768.65414)
(0.00096871319 -0.00036402141 768.65397)
(0.0012351454 -0.00066285643 768.65437)
(2.3885327e-06 -0.00057340077 768.65443)
(-0.00010683363 -0.00051346606 768.65444)
(-4.1390722e-05 -0.00049540763 768.65449)
(-0.00031643664 -0.00050832505 768.65455)
(-0.0015277604 -0.00056109815 768.65436)
(-0.001732657 -0.00063412841 768.65328)
(-0.00033763848 -0.00033763848 768.65322)
(-0.00022465677 -0.00022465678 765.77275)
(0.0026676647 0.0011766962 765.77266)
(0.0025549539 0.00050588366 765.77343)
(-0.001122463 0.00040465188 765.77321)
(-0.0011650465 0.00041575456 765.77296)
(-0.0009184592 0.00045651837 765.77283)
(-0.001028468 0.00051509102 765.77274)
(-0.0015886545 0.0005082335 765.77255)
(-0.001219424 0.00014777837 765.77204)
(-0.00015537181 -0.00017885776 765.77188)
(0.0011766962 0.0026676647 765.77266)
(0.0037634753 0.0037634753 765.77309)
(0.0013968874 0.002489419 765.77359)
(-0.0012576566 0.0022887927 765.77334)
(-0.0010872467 0.0023293567 765.77311)
(-0.00076945451 0.0024624991 765.773)
(-0.00095089527 0.0026766498 765.77298)
(-0.0021396235 0.0028030626 765.77281)
(-0.0022500609 0.0021159679 765.77205)
(-0.00048200794 0.0010734826 765.77171)
(0.00050588366 0.0025549539 765.77343)
(0.002489419 0.0013968874 765.77359)
(0.0010802713 0.0010802712 765.77403)
(-0.0012825253 0.0010328201 765.77376)
(-0.0009913401 0.0010926117 765.77355)
(-0.00057116607 0.0012344553 765.77349)
(-0.00068790438 0.0014777939 765.77352)
(-0.0021493364 0.0017942111 765.77344)
(-0.0029490041 0.0018465779 765.77261)
(-0.00085036206 0.0014532836 765.77208)
(0.00040465188 -0.001122463 765.77321)
(0.0022887927 -0.0012576566 765.77334)
(0.0010328201 -0.0012825253 765.77376)
(-0.0012453162 -0.0012453162 765.77351)
(-0.00088561148 -0.0011610284 765.77332)
(-0.00038427233 -0.0010287641 765.77329)
(-0.00039113953 -0.00083058837 765.77338)
(-0.0017708394 -0.00054538124 765.77337)
(-0.0025909884 -0.00022755187 765.77262)
(-0.00074420417 4.171978e-05 765.77213)
(0.00041575456 -0.0011650465 765.77296)
(0.0023293567 -0.0010872467 765.77311)
(0.0010926117 -0.0009913401 765.77355)
(-0.0011610284 -0.00088561148 765.77332)
(-0.00077478802 -0.00077478802 765.77315)
(-0.00024072608 -0.00065537789 765.77315)
(-0.00020452153 -0.00052096522 765.77328)
(-0.0015462999 -0.00036540184 765.77332)
(-0.0023619031 -0.0002030421 765.77261)
(-0.00067084763 -6.0952137e-05 765.77216)
(0.00045651838 -0.0009184592 765.77283)
(0.0024624991 -0.00076945451 765.773)
(0.0012344553 -0.00057116607 765.77349)
(-0.0010287641 -0.00038427233 765.77329)
(-0.00065537789 -0.00024072608 765.77315)
(-0.00013044953 -0.00013044953 765.77317)
(-0.00010116348 -4.6976393e-05 765.77332)
(-0.0014529163 1.0006958e-05 765.77338)
(-0.0022865387 3.6650253e-05 765.77269)
(-0.00064947753 3.6329503e-05 765.77225)
(0.00051509102 -0.001028468 765.77274)
(0.0026766498 -0.00095089528 765.77298)
(0.0014777939 -0.00068790439 765.77352)
(-0.00083058838 -0.00039113953 765.77338)
(-0.00052096522 -0.00020452153 765.77328)
(-4.697639e-05 -0.00010116348 765.77332)
(-6.4065038e-05 -6.4065046e-05 765.77348)
(-0.0014626732 -9.5843719e-05 765.77353)
(-0.0023355805 -0.00020116535 765.77283)
(-0.00067106146 -0.00036149486 765.77236)
(0.0005082335 -0.0015886545 765.77255)
(0.0028030626 -0.0021396235 765.77281)
(0.0017942111 -0.0021493364 765.77344)
(-0.00054538123 -0.0017708394 765.77337)
(-0.00036540183 -0.0015462999 765.77332)
(1.0006959e-05 -0.0014529163 765.77338)
(-9.5843721e-05 -0.0014626732 765.77353)
(-0.0015900166 -0.0015900166 765.77356)
(-0.0025521898 -0.001849882 765.77278)
(-0.00075636387 -0.0021708565 765.77221)
(0.00014777838 -0.001219424 765.77204)
(0.0021159679 -0.0022500609 765.77205)
(0.0018465779 -0.0029490041 765.77261)
(-0.00022755187 -0.0025909884 765.77262)
(-0.00020304208 -0.0023619031 765.77261)
(3.6650249e-05 -0.0022865387 765.77269)
(-0.00020116535 -0.0023355805 765.77283)
(-0.001849882 -0.0025521898 765.77278)
(-0.0029164204 -0.0029164204 765.77187)
(-0.00088504442 -0.002310506 765.77112)
(-0.00017885776 -0.00015537181 765.77188)
(0.0010734825 -0.00048200794 765.77171)
(0.0014532836 -0.00085036207 765.77208)
(4.1719786e-05 -0.00074420417 765.77213)
(-6.0952135e-05 -0.00067084763 765.77216)
(3.6329503e-05 -0.00064947754 765.77225)
(-0.00036149485 -0.00067106146 765.77236)
(-0.0021708565 -0.00075636387 765.77221)
(-0.002310506 -0.00088504442 765.77112)
(-0.00035242093 -0.00035242093 765.77108)
(-0.00025657493 -0.00025657493 763.33992)
(0.0029847107 0.0013112107 763.33982)
(0.0028069928 0.00055379127 763.34051)
(-0.0013504354 0.00044183167 763.34028)
(-0.0013385895 0.00045759899 763.34006)
(-0.001005689 0.0005097803 763.33996)
(-0.0011327601 0.00058754474 763.33993)
(-0.0019026138 0.00059040774 763.33981)
(-0.0015306436 0.00014859276 763.33937)
(-0.00020389015 -0.00023522238 763.33924)
(0.0013112107 0.0029847107 763.33982)
(0.00420026 0.00420026 763.3402)
(0.0015029242 0.0027638479 763.34063)
(-0.0014947238 0.0025447612 763.34038)
(-0.0012366666 0.0026011646 763.34017)
(-0.00081077037 0.0027700408 763.3401)
(-0.0010118189 0.0030452511 763.34013)
(-0.0025610418 0.0032241502 763.34004)
(-0.0027690887 0.0023863644 763.33937)
(-0.00058770529 0.0011608408 763.33907)
(0.00055379127 0.0028069928 763.34051)
(0.0027638479 0.0015029242 763.34063)
(0.0011514941 0.0011514941 763.34101)
(-0.0015131188 0.0011067444 763.34075)
(-0.00111331 0.0011861006 763.34056)
(-0.00056160248 0.0013636973 763.34053)
(-0.00067865066 0.0016663424 763.34062)
(-0.0025615005 0.0020601478 763.34061)
(-0.003593953 0.0021202392 763.33988)
(-0.0010209059 0.0016533969 763.3394)
(0.00044183167 -0.0013504354 763.34028)
(0.0025447612 -0.0014947238 763.34038)
(0.0011067444 -0.0015131188 763.34075)
(-0.0014601173 -0.0014601173 763.3405)
(-0.00097971372 -0.0013526006 763.34033)
(-0.00033052861 -0.001188495 763.34034)
(-0.0003153684 -0.00094523718 763.34048)
(-0.0021071449 -0.00059822035 763.34055)
(-0.0031758396 -0.00022149239 763.33989)
(-0.00089893347 9.026102e-05 763.33946)
(0.00045759899 -0.0013385895 763.34006)
(0.0026011646 -0.0012366666 763.34017)
(0.0011861006 -0.0011133099 763.34056)
(-0.0013526005 -0.00097971372 763.34033)
(-0.00084168767 -0.00084168767 763.34019)
(-0.00015423911 -0.00069494274 763.34023)
(-8.8376018e-05 -0.00053156777 763.34041)
(-0.0018377557 -0.00034444885 763.34052)
(-0.0029054717 -0.00015294931 763.3399)
(-0.00081307027 1.2103465e-05 763.33951)
(0.0005097803 -0.001005689 763.33996)
(0.0027700408 -0.00081077038 763.3401)
(0.0013636973 -0.00056160249 763.34053)
(-0.001188495 -0.00033052862 763.34034)
(-0.00069494274 -0.00015423911 763.34023)
(-2.0408701e-05 -2.0408701e-05 763.34029)
(3.512549e-05 7.846574e-05 763.34049)
(-0.0017285265 0.00014222916 763.34062)
(-0.0028192873 0.00016574535 763.34002)
(-0.00078889828 0.00015569275 763.33963)
(0.00058754474 -0.0011327601 763.33993)
(0.0030452511 -0.0010118189 763.34013)
(0.0016663424 -0.00067865067 763.34062)
(-0.00094523717 -0.0003153684 763.34048)
(-0.00053156776 -8.837602e-05 763.34041)
(7.8465741e-05 3.5125493e-05 763.34049)
(7.426184e-05 7.4261843e-05 763.3407)
(-0.0017504761 2.3162645e-05 763.34082)
(-0.0028920081 -0.00012731624 763.3402)
(-0.00081977201 -0.00035414832 763.33978)
(0.00059040774 -0.0019026138 763.33981)
(0.0032241502 -0.0025610418 763.34004)
(0.0020601478 -0.0025615005 763.34061)
(-0.00059822035 -0.0021071449 763.34055)
(-0.00034444885 -0.0018377557 763.34052)
(0.00014222916 -0.0017285265 763.34062)
(2.3162643e-05 -0.0017504761 763.34082)
(-0.0019301046 -0.0019301046 763.34091)
(-0.0031965983 -0.0022990229 763.34022)
(-0.00094011967 -0.0027687035 763.33969)
(0.00014859276 -0.0015306435 763.33937)
(0.0023863644 -0.0027690887 763.33937)
(0.0021202392 -0.003593953 763.33988)
(-0.00022149239 -0.0031758396 763.33989)
(-0.00015294931 -0.0029054717 763.3399)
(0.00016574535 -0.0028192873 763.34002)
(-0.00012731623 -0.0028920081 763.3402)
(-0.0022990229 -0.0031965983 763.34022)
(-0.003730607 -0.003730607 763.33938)
(-0.0011328924 -0.0028680671 763.33866)
(-0.00023522238 -0.00020389014 763.33924)
(0.0011608407 -0.00058770529 763.33907)
(0.0016533969 -0.0010209059 763.3394)
(9.0261024e-05 -0.00089893347 763.33946)
(1.2103465e-05 -0.00081307027 763.33951)
(0.00015569275 -0.00078889829 763.33963)
(-0.00035414832 -0.000819772 763.33978)
(-0.0027687035 -0.00094011967 763.33969)
(-0.0028680671 -0.0011328924 763.33866)
(-0.00036509307 -0.00036509308 763.33863)
(-0.00029273157 -0.00029273157 761.32807)
(0.0032546572 0.0014270857 761.32796)
(0.0030163574 0.00058863777 761.32856)
(-0.0015701386 0.00046716083 761.32833)
(-0.0014840711 0.00048782797 761.32813)
(-0.0010496403 0.0005513972 761.32807)
(-0.0011784134 0.00064837857 761.32808)
(-0.0021462768 0.0006621847 761.32803)
(-0.001788592 0.00014444993 761.32766)
(-0.00024161203 -0.00029201805 761.32757)
(0.0014270857 0.0032546572 761.32796)
(0.0045767113 0.0045767113 761.32828)
(0.0015764701 0.0029893898 761.32865)
(-0.0017213533 0.0027549326 761.32839)
(-0.0013577166 0.0028280381 761.32821)
(-0.00080881442 0.0030326402 761.32818)
(-0.0010122322 0.0033686899 761.32825)
(-0.0029021697 0.0036020568 761.32823)
(-0.0032198961 0.0026251653 761.32764)
(-0.00067808 0.0012309536 761.3274)
(0.00058863777 0.0030163574 761.32856)
(0.0029893898 0.0015764701 761.32865)
(0.0011945788 0.0011945788 761.32897)
(-0.0017314904 0.0011546362 761.32871)
(-0.0012063636 0.0012544603 761.32854)
(-0.00050898848 0.0014678321 761.32855)
(-0.00060899678 0.0018291017 761.32868)
(-0.0028898014 0.0022995743 761.32874)
(-0.0041596952 0.0023698237 761.32811)
(-0.0011710865 0.0018364061 761.32769)
(0.00046716083 -0.0015701386 761.32833)
(0.0027549326 -0.0017213533 761.32839)
(0.0011546362 -0.0017314904 761.32871)
(-0.0016614717 -0.0016614717 761.32846)
(-0.0010445207 -0.0015301847 761.32832)
(-0.00023417305 -0.0013343828 761.32836)
(-0.00018048996 -0.0010468786 761.32855)
(-0.0023614478 -0.00063962276 761.32868)
(-0.0036830643 -0.00020591415 761.32812)
(-0.0010336917 0.00014684779 761.32775)
(0.00048782797 -0.0014840712 761.32813)
(0.0028280381 -0.0013577166 761.32821)
(0.0012544603 -0.0012063636 761.32854)
(-0.0015301847 -0.0010445207 761.32832)
(-0.00087927458 -0.00087927459 761.3282)
(-2.5682368e-05 -0.00070561746 761.32827)
(8.5763223e-05 -0.00051414605 761.32849)
(-0.002048837 -0.00029675452 761.32867)
(-0.0033732247 -7.7648784e-05 761.32815)
(-0.00093591186 0.00010905963 761.32781)
(0.0005513972 -0.0010496403 761.32807)
(0.0030326402 -0.00080881443 761.32818)
(0.0014678321 -0.00050898849 761.32855)
(-0.0013343828 -0.00023417306 761.32836)
(-0.00070561746 -2.5682368e-05 761.32827)
(0.00013095548 0.00013095548 761.32836)
(0.00022837298 0.00024425422 761.32861)
(-0.0019249505 0.00031366322 761.3288)
(-0.0032772502 0.00033297613 761.32829)
(-0.00090921942 0.00031262178 761.32796)
(0.00064837857 -0.0011784134 761.32808)
(0.0033686899 -0.0010122322 761.32825)
(0.0018291017 -0.0006089968 761.32868)
(-0.0010468786 -0.00018048996 761.32855)
(-0.00051414605 8.5763223e-05 761.32849)
(0.00024425422 0.00022837299 761.32861)
(0.00026847096 0.00026847096 761.32886)
(-0.0019601151 0.00019691864 761.32904)
(-0.0033742661 1.3572787e-07 761.32852)
(-0.00094948143 -0.00029408296 761.32816)
(0.0006621847 -0.0021462768 761.32803)
(0.0036020568 -0.0029021698 761.32823)
(0.0022995743 -0.0028898014 761.32874)
(-0.00063962275 -0.0023614478 761.32868)
(-0.00029675451 -0.002048837 761.32867)
(0.00031366322 -0.0019249505 761.3288)
(0.00019691864 -0.001960115 761.32904)
(-0.0021932857 -0.0021932857 761.3292)
(-0.0037682518 -0.0026738124 761.3286)
(-0.0011053652 -0.0032972128 761.32813)
(0.00014444992 -0.001788592 761.32766)
(0.0026251653 -0.0032198961 761.32764)
(0.0023698237 -0.0041596952 761.32811)
(-0.00020591414 -0.0036830643 761.32812)
(-7.7648768e-05 -0.0033732247 761.32815)
(0.00033297613 -0.0032772502 761.32829)
(1.3572682e-07 -0.0033742661 761.32852)
(-0.0026738124 -0.0037682518 761.3286)
(-0.0044781932 -0.0044781932 761.32785)
(-0.0013650817 -0.0033775762 761.32718)
(-0.00029201805 -0.00024161202 761.32757)
(0.0012309536 -0.00067808 761.3274)
(0.0018364061 -0.0011710865 761.32769)
(0.00014684778 -0.0010336917 761.32775)
(0.00010905963 -0.00093591187 761.32781)
(0.0003126218 -0.00090921943 761.32796)
(-0.00029408295 -0.00094948143 761.32816)
(-0.0032972128 -0.0011053652 761.32813)
(-0.0033775762 -0.0013650817 761.32718)
(-0.00037162055 -0.00037162054 761.32718)
(-0.00033341477 -0.00033341477 759.70724)
(0.003475756 0.0015236655 759.70711)
(0.0031822486 0.00061029528 759.70763)
(-0.001781534 0.00048049363 759.7074)
(-0.0016035961 0.00050620413 759.70722)
(-0.0010545201 0.00058103018 759.70718)
(-0.0011707489 0.00069710377 759.70724)
(-0.0023226238 0.00072297549 759.70725)
(-0.0019915408 0.00013543691 759.70695)
(-0.00026722494 -0.00034907065 759.7069)
(0.0015236655 0.003475756 759.70711)
(0.004891321 0.004891321 759.70737)
(0.0016174908 0.0031653047 759.70768)
(-0.0019376707 0.0029183145 759.70742)
(-0.0014527913 0.0030086282 759.70725)
(-0.00076817067 0.0032485899 759.70725)
(-0.0009578309 0.0036447915 759.70737)
(-0.0031651241 0.0039342834 759.70741)
(-0.00359961 0.0028314947 759.70692)
(-0.0007517325 0.0012836236 759.70672)
(0.00061029528 0.0031822486 759.70763)
(0.0031653047 0.0016174908 759.70768)