/*--------------------------------*- C++ -*----------------------------------*\
| =========                 |                                                 |
| \\      /  F ield         | OpenFOAM: The Open Source CFD Toolbox           |
|  \\    /   O peration     | Version:  v2106                                 |
|   \\  /    A nd           | Website:  www.openfoam.com                      |
|    \\/     M anipulation  |                                                 |
\*---------------------------------------------------------------------------*/
FoamFile
{
    version     2.0;
    format      ascii;
    arch        "LSB;label=32;scalar=64";
    class       volScalarField;
    location    "37.5";
    object      laplacianT;
}
// * * * * * * * * * * * * * * * * * * * * * * * * * * * * * * * * * * * * * //

dimensions      [0 -2 0 1 0 0 0];

internalField   nonuniform List<scalar> 
4000
(
38004.07
38004.331
38004.131
38004.22
38004.212
38004.197
38004.183
38004.168
38004.151
38004.143
38004.331
38004.143
38004.164
38004.232
38004.219
38004.204
38004.19
38004.173
38004.152
38004.155
38004.131
38004.164
38004.127
38004.184
38004.171
38004.157
38004.145
38004.126
38004.098
38004.118
38004.22
38004.232
38004.184
38004.24
38004.228
38004.215
38004.206
38004.189
38004.158
38004.161
38004.212
38004.219
38004.171
38004.228
38004.217
38004.206
38004.198
38004.185
38004.156
38004.162
38004.197
38004.204
38004.157
38004.215
38004.206
38004.196
38004.19
38004.178
38004.151
38004.158
38004.183
38004.19
38004.145
38004.206
38004.198
38004.19
38004.185
38004.173
38004.146
38004.154
38004.168
38004.173
38004.126
38004.189
38004.185
38004.178
38004.173
38004.161
38004.134
38004.14
38004.151
38004.152
38004.098
38004.158
38004.156
38004.151
38004.146
38004.134
38004.105
38004.11
38004.143
38004.155
38004.118
38004.161
38004.162
38004.158
38004.154
38004.14
38004.11
38004.119
-411.90493
-411.18152
-412.11007
-411.81254
-411.77019
-411.77058
-411.77358
-411.77859
-411.78565
-411.78621
-411.18152
-411.68184
-411.94738
-411.69221
-411.66352
-411.66757
-411.67486
-411.68092
-411.64788
-411.64605
-412.11007
-411.94738
-412.32703
-412.09376
-412.06747
-412.07248
-412.08513
-412.10692
-412.06918
-411.90378
-411.81254
-411.69221
-412.09376
-411.86374
-411.83756
-411.84235
-411.85647
-411.88955
-411.88965
-411.8025
-411.77019
-411.66352
-412.06747
-411.83756
-411.81115
-411.81554
-411.82888
-411.86123
-411.86231
-411.78421
-411.77058
-411.66757
-412.07248
-411.84235
-411.81554
-411.81972
-411.83272
-411.86431
-411.86421
-411.78565
-411.77358
-411.67486
-412.08513
-411.85647
-411.82888
-411.83272
-411.8457
-411.87727
-411.87699
-411.79762
-411.77859
-411.68092
-412.10692
-411.88955
-411.86123
-411.86431
-411.87727
-411.90903
-411.90885
-411.82692
-411.78565
-411.64788
-412.06918
-411.88965
-411.86231
-411.86421
-411.87699
-411.90885
-411.90792
-411.81612
-411.78621
-411.64605
-411.90378
-411.8025
-411.78421
-411.78565
-411.79762
-411.82692
-411.81612
-411.70096
-360.43779
-359.60883
-360.73785
-360.32209
-360.26385
-360.2658
-360.27339
-360.28301
-360.2711
-360.39459
-359.60883
-360.30713
-360.60624
-360.24967
-360.20989
-360.21885
-360.23902
-360.25659
-360.0983
-360.1113
-360.73785
-360.60624
-361.05391
-360.72571
-360.68892
-360.69932
-360.73039
-360.78791
-360.64705
-360.44047
-360.32209
-360.24967
-360.72571
-360.40172
-360.36495
-360.37467
-360.40753
-360.48343
-360.4018
-360.31153
-360.26385
-360.20989
-360.68892
-360.36495
-360.32778
-360.33677
-360.36816
-360.44287
-360.36301
-360.28827
-360.2658
-360.21885
-360.69932
-360.37467
-360.33677
-360.34541
-360.37622
-360.44979
-360.36823
-360.29348
-360.27339
-360.23902
-360.73039
-360.40753
-360.36816
-360.37622
-360.40705
-360.48068
-360.39898
-360.32226
-360.28301
-360.25659
-360.78791
-360.48343
-360.44287
-360.44979
-360.48068
-360.55472
-360.47287
-360.38538
-360.2711
-360.0983
-360.64705
-360.4018
-360.36301
-360.36823
-360.39898
-360.47287
-360.38653
-360.25272
-360.39459
-360.1113
-360.44047
-360.31153
-360.28827
-360.29348
-360.32226
-360.38538
-360.25272
-360.21495
-311.52965
-310.52982
-311.88057
-311.36192
-311.28924
-311.29331
-311.30822
-311.32542
-311.24728
-311.41159
-310.52982
-311.34709
-311.70813
-311.26245
-311.21245
-311.22704
-311.26605
-311.31477
-311.01217
-311.02788
-311.88057
-311.70813
-312.24778
-311.83619
-311.78961
-311.80562
-311.85941
-311.96832
-311.69332
-311.42443
-311.36192
-311.26245
-311.83619
-311.4297
-311.38306
-311.39792
-311.45374
-311.588
-311.39165
-311.27035
-311.28924
-311.21245
-311.78961
-311.38306
-311.33589
-311.34971
-311.40344
-311.53632
-311.34281
-311.24263
-311.29331
-311.22704
-311.80562
-311.39792
-311.34971
-311.36303
-311.416
-311.54748
-311.352
-311.25251
-311.30822
-311.26605
-311.85941
-311.45374
-311.40344
-311.416
-311.46906
-311.60084
-311.40557
-311.30312
-311.32542
-311.31477
-311.96832
-311.588
-311.53632
-311.54748
-311.60084
-311.73355
-311.53778
-311.41092
-311.24728
-311.01217
-311.69332
-311.39165
-311.34281
-311.352
-311.40557
-311.53778
-311.32793
-311.06674
-311.41159
-311.02788
-311.42443
-311.27035
-311.24263
-311.25251
-311.30312
-311.41092
-311.06674
-311.19625
-265.1999
-264.04502
-265.61358
-264.99818
-264.91189
-264.9185
-264.94355
-264.97974
-264.85324
-265.05339
-264.04502
-264.97868
-265.40427
-264.87465
-264.81493
-264.83513
-264.89496
-264.98572
-264.55469
-264.57972
-265.61358
-265.40427
-266.03688
-265.54676
-265.49084
-265.51234
-265.59049
-265.76071
-265.36373
-265.04076
-264.99818
-264.87465
-265.54676
-265.06261
-265.00655
-265.02642
-265.10687
-265.30944
-265.00951
-264.86294
-264.91189
-264.81493
-265.49084
-265.00655
-264.94983
-264.96837
-265.04615
-265.24728
-264.95133
-264.831
-264.9185
-264.83513
-265.51234
-265.02642
-264.96837
-264.98628
-265.06312
-265.26267
-264.96467
-264.84594
-264.94355
-264.89496
-265.59049
-265.10687
-265.04615
-265.06312
-265.1402
-265.3405
-265.04356
-264.92163
-264.97974
-264.98572
-265.76071
-265.30944
-265.24728
-265.26267
-265.3405
-265.54287
-265.24643
-265.0857
-264.85324
-264.55469
-265.36373
-265.00951
-264.95133
-264.96467
-265.04356
-265.24643
-264.92701
-264.51444
-265.05339
-264.57972
-265.04076
-264.86294
-264.831
-264.84594
-264.92163
-265.0857
-264.51444
-264.81852
-221.65393
-220.357
-222.12969
-221.42229
-221.32304
-221.33209
-221.3674
-221.42473
-221.25666
-221.49119
-220.357
-221.40019
-221.88562
-221.27623
-221.20721
-221.2327
-221.31309
-221.44779
-220.89721
-220.93231
-222.12969
-221.88562
-222.60511
-222.04036
-221.9755
-222.00215
-222.10426
-222.33721
-221.82645
-221.45376
-221.42229
-221.27623
-222.04036
-221.48238
-221.41732
-221.44188
-221.54655
-221.8187
-221.42253
-221.2535
-221.32304
-221.20721
-221.9755
-221.41732
-221.35146
-221.3744
-221.47586
-221.74655
-221.35548
-221.21751
-221.33209
-221.2327
-222.00215
-221.44188
-221.3744
-221.39658
-221.49693
-221.7659
-221.37275
-221.23738
-221.3674
-221.31309
-222.10426
-221.54655
-221.47586
-221.49693
-221.59766
-221.86791
-221.47692
-221.33867
-221.42473
-221.44779
-222.33721
-221.8187
-221.74655
-221.7659
-221.86791
-222.14166
-221.75303
-221.56241
-221.25666
-220.89721
-221.82645
-221.42253
-221.35548
-221.37275
-221.47692
-221.75303
-221.33418
-220.76783
-221.49119
-220.93231
-221.45376
-221.2535
-221.21751
-221.23738
-221.33867
-221.56241
-220.76783
-221.24135
-181.04547
-179.6165
-181.57724
-180.78281
-180.67131
-180.68267
-180.72797
-180.80659
-180.60058
-180.86815
-179.6165
-180.7588
-181.298
-180.61322
-180.53543
-180.56597
-180.66636
-180.8449
-180.18263
-180.22828
-181.57724
-181.298
-182.09684
-181.46155
-181.38824
-181.41978
-181.54512
-181.84003
-181.2233
-180.80551
-180.78281
-180.61322
-181.46155
-180.83379
-180.7602
-180.78921
-180.91735
-181.25804
-180.77255
-180.58417
-180.67131
-180.53543
-181.38824
-180.7602
-180.68571
-180.7128
-180.83719
-181.17642
-180.6971
-180.54435
-180.68267
-180.56597
-181.41978
-180.78921
-180.7128
-180.739
-180.86211
-181.19949
-180.71809
-180.56897
-180.72797
-180.66636
-181.54512
-180.91735
-180.83719
-180.86211
-180.98574
-181.32494
-180.84687
-180.69547
-180.80659
-180.8449
-181.84003
-181.25804
-181.17642
-181.19949
-181.32494
-181.66919
-181.19568
-180.9791
-180.60058
-180.18263
-181.2233
-180.77255
-180.6971
-180.71809
-180.84687
-181.19568
-180.68568
-179.97034
-180.86815
-180.22828
-180.80551
-180.58417
-180.54435
-180.56897
-180.69547
-180.9791
-179.97034
-180.60662
-143.49744
-141.9464
-144.07809
-143.20211
-143.07919
-143.09281
-143.14781
-143.24751
-143.00679
-143.30626
-141.9464
-143.17644
-143.76313
-143.00779
-142.92183
-142.95724
-143.07699
-143.29874
-142.5329
-142.58999
-144.07809
-143.76313
-144.63337
-143.93203
-143.85084
-143.88706
-144.03479
-144.39017
-143.67564
-143.21803
-143.20211
-143.00779
-143.93203
-143.23894
-143.15739
-143.19064
-143.34137
-143.74876
-143.18114
-142.97711
-143.07919
-142.92183
-143.85084
-143.15739
-143.07483
-143.10589
-143.25234
-143.65827
-143.09782
-142.93371
-143.09281
-142.95724
-143.88706
-143.19064
-143.10589
-143.13592
-143.28093
-143.68488
-143.12235
-142.9629
-143.14781
-143.07699
-144.03479
-143.34137
-143.25234
-143.28093
-143.42661
-143.8329
-143.27489
-143.1139
-143.24751
-143.29874
-144.39017
-143.74876
-143.65827
-143.68488
-143.8329
-144.24581
-143.69472
-143.45641
-143.00679
-142.5329
-143.67564
-143.18114
-143.09782
-143.12235
-143.27489
-143.69472
-143.10149
-142.24476
-143.30626
-142.58999
-143.21803
-142.97711
-142.93371
-142.9629
-143.1139
-143.45641
-142.24476
-143.03665
-109.11141
-107.44877
-109.7336
-108.78208
-108.64861
-108.66444
-108.72885
-108.84924
-108.57706
-108.90724
-107.44877
-108.75479
-109.38262
-108.56198
-108.46852
-108.50858
-108.64698
-108.91094
-108.05005
-108.11957
-109.7336
-109.38262
-110.3161
-109.55362
-109.46517
-109.50584
-109.675
-110.08888
-109.28504
-108.79324
-108.78208
-108.56198
-109.55362
-108.80005
-108.71116
-108.74843
-108.92075
-109.39247
-108.75015
-108.53434
-108.64861
-108.46852
-109.46517
-108.71116
-108.62115
-108.65597
-108.82351
-109.29375
-108.65952
-108.48766
-108.66444
-108.50858
-109.50584
-108.74843
-108.65597
-108.68964
-108.85559
-109.32372
-108.68744
-108.52122
-108.72885
-108.64698
-109.675
-108.92075
-108.82351
-108.85559
-109.02234
-109.49334
-108.86274
-108.6958
-108.84924
-108.91094
-110.08888
-109.39247
-109.29375
-109.32372
-109.49334
-109.97251
-109.35122
-109.09554
-108.57706
-108.05005
-109.28504
-108.75015
-108.65952
-108.68744
-108.86274
-109.35122
-108.68274
-107.69354
-108.90724
-108.11957
-108.79324
-108.53434
-108.48766
-108.52122
-108.6958
-109.09554
-107.69354
-108.63334
-77.968228
-76.204921
-78.624476
-77.603898
-77.460848
-77.478828
-77.552264
-77.692817
-77.392515
-77.75202
-76.204921
-77.574881
-78.23753
-77.357254
-77.256982
-77.301488
-77.45768
-77.762511
-76.815458
-76.898366
-78.624476
-78.23753
-79.225934
-78.40761
-78.312548
-78.357427
-78.546924
-79.016875
-78.13253
-77.612319
-77.603898
-77.357254
-78.40761
-77.598782
-77.503214
-77.544273
-77.737048
-78.270226
-77.560841
-77.337156
-77.460848
-77.256982
-78.312548
-77.503214
-77.406418
-77.444779
-77.632304
-78.163979
-77.46354
-77.287505
-77.478828
-77.301488
-78.357427
-77.544273
-77.444779
-77.481879
-77.667663
-78.197131
-77.494649
-77.32522
-77.552264
-77.45768
-78.546924
-77.737048
-77.632304
-77.667663
-77.854375
-78.387215
-77.691568
-77.522296
-77.692817
-77.762511
-79.016875
-78.270226
-78.163979
-78.197131
-78.387215
-78.929747
-78.24584
-77.977116
-77.392515
-76.815458
-78.13253
-77.560841
-77.46354
-77.494649
-77.691568
-78.24584
-77.510205
-76.398282
-77.75202
-76.898366
-77.612319
-77.337157
-77.287505
-77.32522
-77.522296
-77.977116
-76.398282
-77.477628
-50.127671
-48.275035
-50.81049
-49.727756
-49.576135
-49.59618
-49.678218
-49.838229
-49.513197
-49.900489
-48.275035
-49.696765
-50.38795
-49.454069
-49.347722
-49.396406
-49.569427
-49.913489
-48.889444
-48.986608
-50.81049
-50.38795
-51.422909
-50.55435
-50.453375
-50.502178
-50.710782
-51.233981
-50.278157
-49.735361
-49.727756
-49.454069
-50.55435
-49.695821
-49.594266
-49.638853
-49.85081
-50.442155
-49.673497
-49.445755
-49.576135
-49.347722
-50.453375
-49.594266
-49.49139
-49.533048
-49.739308
-50.329127
-49.570182
-49.393469
-49.59618
-49.396406
-50.502178
-49.638853
-49.533048
-49.573339
-49.777724
-50.365242
-49.604285
-49.435095
-49.678218
-49.569427
-50.710782
-49.85081
-49.739308
-49.777724
-49.983164
-50.574543
-49.821538
-49.653425
-49.838229
-49.913489
-51.233981
-50.442155
-50.329127
-50.365242
-50.574543
-51.177093
-50.438235
-50.160765
-49.513197
-48.889444
-50.278157
-49.673497
-49.570182
-49.604285
-49.821538
-50.438235
-49.643672
-48.419455
-49.900489
-48.986608
-49.735361
-49.445755
-49.393469
-49.435095
-49.653425
-50.160765
-48.419455
-49.629313
-25.628406
-23.698117
-26.330349
-25.192732
-25.033596
-25.055609
-25.145756
-25.324376
-24.978044
-25.391393
-23.698117
-25.159403
-25.872954
-24.891802
-24.780145
-24.832714
-25.021478
-25.402827
-24.311196
-24.423368
-26.330349
-25.872954
-26.946077
-26.033189
-25.927022
-25.979441
-26.205791
-26.779029
-25.760913
-25.201351
-25.192732
-24.891802
-26.033189
-25.130796
-25.023979
-25.071808
-25.301545
-25.947352
-25.127306
-24.899209
-25.033596
-24.780145
-25.927022
-25.023979
-24.915757
-24.960444
-25.18407
-25.828325
-25.018672
-24.844635
-25.055609
-24.832714
-25.979441
-25.071808
-24.960444
-25.003666
-25.225295
-25.867169
-25.055545
-24.889904
-25.145756
-25.021478
-26.205791
-25.301545
-25.18407
-25.225295
-25.448101
-26.094306
-25.291714
-25.128099
-25.324376
-25.402827
-26.779029
-25.947352
-25.828325
-25.867169
-26.094306
-26.753108
-25.967035
-25.685007
-24.978044
-24.311196
-25.760913
-25.127306
-25.018672
-25.055545
-25.291714
-25.967035
-25.121836
-23.796299
-25.391393
-24.423368
-25.201351
-24.899209
-24.844635
-24.889904
-25.128099
-25.685007
-23.796299
-25.127019
-4.4881187
-2.4921304
-5.201862
-4.0169533
-3.8513973
-3.87526
-3.9729655
-4.1691998
-3.8050085
-4.2425048
-2.4921304
-3.9808271
-4.7107186
-3.6888944
-3.5727165
-3.6288485
-3.832158
-4.2485675
-3.0989072
-3.2267038
-5.201862
-4.7107186
-5.8136596
-4.8625932
-4.7519817
-4.8076821
-5.050297
-5.6700082
-4.5988757
-4.0282978
-4.0169533
-3.6888944
-4.8625932
-3.9224195
-3.8110889
-3.8618508
-4.1078491
-4.8040337
-3.9405096
-3.715599
-3.8513973
-3.5727165
-4.7519817
-3.8110889
-3.6982797
-3.7457055
-3.9852149
-4.6798202
-3.8272839
-3.6590991
-3.87526
-3.6288485
-4.8076821
-3.8618508
-3.7457055
-3.7915799
-4.0289824
-4.7211401
-3.8666849
-3.7077168
-3.9729655
-3.832158
-5.0502969
-4.1078491
-3.9852149
-4.0289824
-4.2676776
-4.964613
-4.1202233
-3.9642524
-4.1691998
-4.2485675
-5.6700082
-4.8040337
-4.6798202
-4.7211401
-4.964613
-5.6755077
-4.8499539
-4.5674104
-3.8050085
-3.0989072
-4.5988757
-3.9405096
-3.8272839
-3.8666849
-4.1202233
-4.8499539
-3.9624141
-2.5469773
-4.2425048
-3.2267038
-4.0282978
-3.7155989
-3.6590991
-3.7077168
-3.9642524
-4.5674104
-2.5469773
-3.9883514
13.296159
15.345674
12.577744
13.802094
13.972943
13.947363
13.842706
13.62999
14.008619
13.549058
15.345674
13.841544
13.101151
14.156834
14.276727
14.217381
14.000825
13.551848
14.749902
14.606024
12.577744
13.101151
11.976639
12.959532
13.073823
13.0152
12.757908
12.095621
13.210478
13.78645
13.802094
14.156834
12.959532
13.931206
14.046281
13.992917
13.732282
12.990154
13.889277
14.107665
13.972943
14.276727
13.073823
14.046281
14.162899
14.113043
13.859238
13.118716
14.006344
14.165721
13.947363
14.217381
13.0152
13.992917
14.113043
14.064816
13.813213
13.07519
13.964675
14.114072
13.842706
14.000825
12.757908
13.732282
13.859238
13.813213
13.560208
12.816987
13.695428
13.840844
13.62999
13.551848
12.095621
12.990154
13.118716
13.07519
12.816987
12.058519
12.915883
13.195092
14.008619
14.749902
13.210478
13.889277
14.006344
13.964675
13.695428
12.915883
13.837528
15.331107
13.549058
14.606024
13.78645
14.107665
14.165721
14.114072
13.840844
13.195092
15.331107
13.789778
27.747563
29.838275
27.031339
28.287075
28.46207
28.43492
28.323969
28.096033
28.485722
28.006349
29.838275
28.330421
27.585145
28.667707
28.790496
28.728309
28.499898
28.021095
29.257904
29.097664
27.031339
27.585145
26.447155
27.455368
27.57256
27.511393
27.24111
26.540443
27.689791
28.265715
28.287075
28.667707
27.455368
28.45211
28.570146
28.514528
28.240975
27.457652
28.384588
28.593362
28.46207
28.790496
27.57256
28.570146
28.68978
28.637821
28.371396
27.589705
28.504727
28.652596
28.43492
28.728309
27.511393
28.514528
28.637821
28.587555
28.323415
27.54426
28.461067
28.598253
28.323969
28.499898
27.24111
28.240975
28.371396
28.323415
28.057771
27.273028
28.177874
28.310092
28.096033
28.021095
26.540443
27.457652
27.589705
27.54426
27.273028
26.471833
27.353457
27.625716
28.485722
29.257904
27.689791
28.384588
28.504727
28.461067
28.177874
27.353457
28.301094
29.860821
28.006349
29.097664
28.265715
28.593362
28.652596
28.598253
28.310092
27.625716
29.860821
28.230662
38.908756
41.028237
38.201256
39.480174
39.658153
39.629596
39.513054
39.271278
39.668721
39.171949
41.028237
39.528008
38.783213
39.885557
40.010417
39.945786
39.70699
39.201329
40.467319
40.290635
38.201256
38.783213
37.639635
38.666552
38.785861
38.722547
38.44104
37.70646
38.881183
39.451855
39.480174
39.885557
38.666552
39.68182
39.802027
39.74452
39.459847
38.640359
39.587472
39.783818
39.658153
40.010417
38.785861
39.802027
39.923876
39.870155
39.592866
38.775031
39.709899
39.843847
39.629596
39.945786
38.722547
39.74452
39.870155
39.81818
39.543244
38.727966
39.664538
39.787166
39.513054
39.70699
38.44104
39.459847
39.592866
39.543244
39.266711
38.445488
39.369251
39.485932
39.271278
39.201329
37.70646
38.640359
38.775031
38.727966
38.445488
37.606703
38.505213
38.767183
39.668721
40.467318
38.881183
39.587472
39.709899
39.664538
39.369251
38.505213
39.470914
41.084664
39.171949
40.290635
39.451855
39.783818
39.843847
39.787166
39.485932
38.767183
41.084664
39.377156
46.841133
48.976919
46.148503
47.442308
47.622102
47.592314
47.470923
47.216799
47.618783
47.10718
48.976919
47.495216
46.755982
47.870945
47.997051
47.930388
47.682751
47.153407
48.439135
48.246137
46.148503
46.755982
45.614457
46.6534
46.774037
46.708989
46.418097
45.654306
46.845478
47.405974
47.442308
47.870945
46.6534
47.680591
47.802176
47.743156
47.449229
46.598848
47.558705
47.740121
47.622102
47.997051
46.774037
47.802176
47.925436
47.870305
47.583973
46.735262
47.682629
47.80056
47.592314
47.930388
46.708989
47.743156
47.870305
47.816963
47.533036
46.686887
47.635868
47.741913
47.470923
47.682751
46.418097
47.449229
47.583973
47.533036
47.247429
46.395014
47.330415
47.429549
47.216799
47.153407
45.654306
46.598848
46.735262
46.686887
46.395014
45.524031
46.43228
46.680931
47.618783
48.439135
46.845478
47.558705
47.682629
47.635868
47.330415
46.43228
47.408354
49.063971
47.10718
48.246137
47.405974
47.740121
47.80056
47.741913
47.429549
46.680931
49.063971
47.290882
51.623906
53.76355
50.951843
52.252207
52.432651
52.401819
52.276358
52.011475
52.414902
51.891179
53.76355
52.310744
51.581846
52.702243
52.828775
52.760511
52.505635
51.955963
53.252187
53.043226
50.951843
51.581846
50.449722
51.493995
51.615177
51.548818
51.250436
50.462341
51.661278
52.207002
52.252207
52.702243
51.493995
52.526488
52.648661
52.588515
52.287255
51.411458
52.376878
52.541201
52.432651
52.828775
51.615177
52.648661
52.772531
52.716351
52.42285
51.548733
52.501504
52.601665
52.401819
52.760511
51.548818
52.588515
52.716351
52.661993
52.370933
51.499368
52.453653
52.541436
52.276358
52.505635
51.250436
52.287255
52.42285
52.370933
52.078121
51.200007
52.140023
52.219958
52.011475
51.955963
50.462341
51.411458
51.548733
51.499368
51.200007
50.30243
51.213546
51.446193
52.414902
53.252187
51.661278
52.376878
52.501504
52.453653
52.140023
51.213546
52.192594
53.87799
51.891179
53.043226
52.207002
52.541201
52.601665
52.541436
52.219958
51.446193
53.87799
52.051307
53.353047
55.484181
52.706759
54.005375
54.185311
54.153634
54.024909
53.750943
54.152854
53.619857
55.484181
54.070042
53.355924
54.474602
54.600751
54.531328
54.270861
53.704376
55.002108
54.777775
52.706759
53.355924
52.240221
53.283154
53.404105
53.33687
53.032937
52.22561
53.423929
53.950654
54.005375
54.474602
53.283154
54.314354
54.436334
54.375456
54.068824
53.173253
54.137353
54.282782
54.185311
54.600751
53.404105
54.436334
54.560021
54.503162
54.204403
53.310515
54.261891
54.34289
54.153634
54.531328
53.33687
54.375456
54.503162
54.448143
54.151848
53.260486
54.213267
54.281473
54.024909
54.270861
53.032937
54.068824
54.204403
54.151848
53.853739
52.955585
53.893496
53.952954
53.750943
53.704376
52.22561
53.173253
53.310515
53.260486
52.955585
52.037192
52.944622
53.15895
54.152854
55.002108
53.423929
54.137353
54.261891
54.213267
53.893496
52.944622
53.919581
55.622832
53.619857
54.777775
53.950654
54.282782
54.34289
54.281473
53.952954
53.15895
55.622832
53.754689
52.140144
54.250533
51.524305
52.812938
52.99123
52.958913
52.827757
52.546459
52.944047
52.404741
54.250533
52.884162
52.188923
53.298803
53.423774
53.353645
53.089275
52.50962
53.800187
53.561312
51.524305
52.188923
51.096293
52.131289
52.251248
52.183575
51.876061
51.054705
52.244376
52.748274
52.812938
53.298803
52.131289
53.154671
53.275689
53.214478
52.904461
51.994886
52.95112
53.076238
52.99123
53.423774
52.251248
53.275689
53.398413
53.341249
53.03917
52.131268
53.074785
53.135613
52.958913
53.353645
52.183575
53.214478
53.341249
53.285931
52.986322
52.080906
53.02571
53.073408
52.827757
53.089275
51.876061
52.904461
53.03917
52.986322
52.68485
51.772442
52.701869
52.739963
52.546459
52.50962
51.054705
51.994886
52.131268
52.080906
51.772442
50.839146
51.736691
51.93078
52.944047
53.800187
52.244376
52.95112
53.074785
53.02571
52.701869
51.736691
52.700878
54.410312
52.404741
53.561312
52.748274
53.076238
53.135613
53.073408
52.739963
51.93078
54.410312
52.512926
48.111151
50.188747
47.529864
48.800412
48.975945
48.943203
48.810465
48.523647
48.914276
48.371736
50.188747
48.87852
48.205898
49.300023
49.423044
49.352669
49.086104
48.497031
49.772124
49.519787
47.529864
48.205898
47.142602
48.163174
48.281399
48.213731
47.904622
47.074533
48.247921
48.7256
48.800412
49.300023
48.163174
49.172326
49.291632
49.230489
48.919087
48.001361
48.943559
49.047343
48.975945
49.423044
48.281399
49.291632
49.412632
49.355536
49.052087
48.136016
49.065581
49.105617
48.943203
49.352669
48.213731
49.230489
49.355536
49.300283
48.999295
48.085652
49.016378
49.043031
48.810465
49.086104
47.904622
48.919087
49.052087
48.999295
48.696406
47.775617
48.690555
48.706803
48.523647
48.497031
47.074533
48.001361
48.136016
48.085652
47.775617
46.833421
47.715274
47.887615
48.914276
49.772124
48.247921
48.943559
49.065581
49.016378
48.690555
47.715274
48.662423
50.366706
48.371736
49.519787
48.7256
49.047343
49.105617
49.043031
48.706803
47.887615
50.366706
48.452305
41.405072
43.438067
40.861842
42.10638
42.278073
42.245127
42.111668
41.821192
42.202411
41.659805
43.438067
42.191585
41.544951
42.616527
42.736852
42.666691
42.399656
41.804994
43.056714
42.792244
40.861842
41.544951
40.516828
41.516644
41.632415
41.565194
41.256478
40.423012
41.57292
42.021441
42.10638
42.616527
41.516644
42.505304
42.622169
42.561494
42.250708
41.330729
42.253126
42.334961
42.278073
42.736852
41.632415
42.622169
42.740707
42.684054
42.381184
41.462829
42.372751
42.391775
42.245127
42.666691
41.565194
42.561494
42.684054
42.629228
42.328794
41.412795
42.323746
42.329215
42.111668
42.399656
41.256478
42.250708
42.381184
42.328794
42.026434
41.103181
41.998035
41.99236
41.821192
41.804994
40.423012
41.330729
41.462829
41.412795
41.103181
40.15814
41.018913
41.168423
42.202411
43.056714
41.57292
42.253126
42.372751
42.323746
41.998035
41.018913
41.943205
43.63142
41.659805
42.792244
42.021441
42.334961
42.391775
42.329215
41.99236
41.168423
43.63142
41.71218
32.172579
34.149458
31.670294
32.881127
33.047936
33.015012
32.881697
32.589461
32.959016
32.41959
34.149458
32.973508
32.355857
33.398297
33.515208
33.445725
33.179943
32.583574
33.804474
33.529447
31.670294
32.355857
31.368304
32.341225
32.45385
32.387515
32.08117
31.249702
32.369405
32.786308
32.881127
33.398297
32.341225
33.30332
33.417045
33.357234
33.049049
32.132723
33.029986
33.089667
33.047936
33.515208
32.45385
33.417045
33.53241
33.47657
33.176213
32.261465
33.146483
33.144675
33.015012
33.445725
32.387515
33.357234
33.47657
33.42253
33.12457
32.212091
33.097997
33.082547
32.881697
33.179943
32.08117
33.049049
33.176213
33.12457
32.824672
31.904879
32.774482
32.747221
32.589461
32.583574
31.249702
32.132723
32.261465
32.212091
31.904879
30.963054
31.797802
31.923832
32.959016
33.804474
32.369405
33.029986
33.146483
33.097997
32.774482
31.797802
32.693893
34.355613
32.41959
33.529447
32.786308
33.089667
33.144675
33.082547
32.747221
31.923832
34.355613
32.443592
20.574599
22.484188
20.115514
21.285221
21.446147
21.413473
21.28117
20.989092
21.344934
20.811995
22.484188
21.38471
20.798659
21.805623
21.918438
21.850092
21.587277
20.993106
22.176225
21.892463
20.115514
20.798659
19.856617
20.79673
20.905548
20.840534
20.538514
19.714404
20.797679
21.180993
21.285221
21.805623
20.79673
21.726414
21.836331
21.777773
21.474149
20.567344
21.434594
21.472329
21.446147
21.918438
20.905548
21.836331
21.947843
21.893181
21.597245
20.691959
21.547259
21.525199
21.413473
21.850092
20.840534
21.777773
21.893181
21.840281
21.546688
20.643569
21.499611
21.463906
21.28117
21.587277
20.538514
21.474149
21.597245
21.546688
21.251159
20.340713
21.180352
21.132247
20.989092
20.993106
19.714404
20.567344
20.691959
20.643569
20.340713
19.408138
20.212376
20.314712
21.344934
22.176225
20.797679
21.434594
21.547259
21.499611
21.180352
20.212376
21.075417
22.70077
20.811995
21.892463
21.180993
21.472329
21.525199
21.463906
21.132247
20.314712
22.70077
20.807846
6.7808652
8.6123791
6.3665977
7.4880771
7.6421717
7.6099769
7.4795478
7.1895563
7.5298484
7.0067483
8.6123791
7.5944446
7.042238
8.0076663
8.1157413
8.0489864
7.7908283
7.202759
8.341656
8.051213
6.3665977
7.0422381
6.1501739
7.0518311
7.1562176
7.0929486
6.7971732
5.9857275
7.026878
7.3751295
7.4880771
8.0076663
7.051831
7.9435201
8.0489943
7.9920711
7.694926
6.8034396
7.6362668
7.6526686
7.6421717
8.1157413
7.1562176
8.0489943
8.1560098
8.1028812
7.8132361
6.923191
7.7444266
7.7030865
7.6099769
8.0489864
7.0929486
7.9920711
8.1028812
8.0514671
7.7640957
6.8761033
7.6979281
7.6430238
7.4795478
7.7908283
6.7971732
7.694926
7.8132361
7.7640957
7.4748034
6.5795203
7.3849501
7.3171421
7.1895563
7.202759
5.9857275
6.8034396
6.923191
6.8761033
6.5795203
5.6621559
6.4318746
6.5107369
7.5298484
8.341656
7.026878
7.6362668
7.7444266
7.6979281
7.3849501
6.4318746
7.2575287
8.8372569
7.0067483
8.051213
7.3751295
7.6526686
7.7030865
7.6430238
7.3171421
6.5107369
8.8372569
6.9750653
-9.0315297
-7.2884393
-9.4000004
-8.3334905
-8.1871197
-8.218606
-8.3463121
-8.6322938
-8.3091698
-8.8190545
-7.2884393
-8.2206411
-8.7371318
-7.8189807
-7.7162487
-7.7809682
-8.0328105
-8.6109049
-7.5221293
-7.8169725
-9.4000004
-8.7371318
-9.5752302
-8.7173817
-8.6180135
-8.6791242
-8.9667852
-9.7603462
-8.7664717
-8.454256
-8.3334905
-7.8189807
-8.7173817
-7.8689823
-7.7685457
-7.823464
-8.1122621
-8.9827461
-8.1882692
-8.1921893
-8.1871197
-7.7162487
-8.6180135
-7.7685457
-7.6666321
-7.7178805
-7.9994173
-8.8685529
-8.0852532
-8.1445213
-8.218606
-7.7809682
-8.6791242
-7.823464
-7.7178805
-7.767473
-8.0468184
-8.9140295
-8.1302986
-8.2029666
-8.3463121
-8.0328105
-8.9667852
-8.1122621
-7.9994173
-8.0468184
-8.3280558
-9.2024729
-8.4350203
-8.521004
-8.6322938
-8.6109049
-9.7603462
-8.9827461
-8.8685529
-8.9140295
-9.2024729
-10.098777
-9.3671021
-9.3110666
-8.3091698
-7.5221293
-8.7664718
-8.1882692
-8.0852532
-8.1302986
-8.4350203
-9.3671021
-8.5826515
-7.0571408
-8.8190545
-7.8169725
-8.454256
-8.1921893
-8.1445213
-8.2029666
-8.521004
-9.3110666
-7.0571408
-8.8772639
-26.679581
-25.034783
-27.001905
-25.996709
-25.858894
-25.889444
-26.013594
-26.293661
-25.989103
-26.48239
-25.034783
-25.87795
-26.357216
-25.491735
-25.394904
-25.457155
-25.701067
-26.265369
-25.232052
-25.528804
-27.001905
-26.357216
-27.137846
-26.328835
-26.23503
-26.293582
-26.571319
-27.341896
-26.399891
-26.124187
-25.996709
-25.491735
-26.328835
-25.528698
-25.433852
-25.486409
-25.765056
-26.609001
-25.856313
-25.879162
-25.858894
-25.394904
-26.23503
-25.433852
-25.337603
-25.386638
-25.65831
-26.501017
-25.759041
-25.83452
-25.889444
-25.457155
-26.293582
-25.486409
-25.386638
-25.434085
-25.703662
-26.544585
-25.80234
-25.890973
-26.013594
-25.701067
-26.571319
-25.765056
-25.65831
-25.703662
-25.975087
-26.823083
-26.096891
-26.199155
-26.293661
-26.265369
-27.341896
-26.609001
-26.501017
-26.544585
-26.823083
-27.692626
-27.00203
-26.967761
-25.989103
-25.232052
-26.399891
-25.856313
-25.759041
-25.80234
-26.096891
-27.00203
-26.262073
-24.798665
-26.48239
-25.528804
-26.124187
-25.879162
-25.83452
-25.890973
-26.199155
-26.967761
-24.798665
-26.565739
-45.975795
-44.438633
-46.252235
-45.314265
-45.185774
-45.215163
-45.334948
-45.607225
-45.32241
-45.795731
-44.438633
-45.190347
-45.631233
-44.823439
-44.73302
-44.792384
-45.026805
-45.573579
-44.600478
-44.896457
-46.252235
-45.631233
-46.351378
-45.595881
-45.50814
-45.563752
-45.829825
-46.572474
-45.686364
-45.447161
-45.314265
-44.823439
-45.595881
-44.848633
-44.759888
-44.809741
-45.076506
-45.888559
-45.180609
-45.220628
-45.185774
-44.73302
-45.50814
-44.759888
-44.669821
-44.716323
-44.976448
-45.78739
-45.089638
-45.179269
-45.215163
-44.792384
-45.563752
-44.809741
-44.716323
-44.761315
-45.019451
-45.828762
-45.130909
-45.233367
-45.334948
-45.026805
-45.829825
-45.076506
-44.976448
-45.019451
-45.279381
-46.095583
-45.413451
-45.529752
-45.607225
-45.573579
-46.572474
-45.888559
-45.78739
-45.828762
-46.095583
-46.932847
-46.285879
-46.271918
-45.32241
-44.600478
-45.686364
-45.180609
-45.089638
-45.130909
-45.413451
-46.285879
-45.593179
-44.199015