/*--------------------------------*- C++ -*----------------------------------*\
| =========                 |                                                 |
| \\      /  F ield         | OpenFOAM: The Open Source CFD Toolbox           |
|  \\    /   O peration     | Version:  v2106                                 |
|   \\  /    A nd           | Website:  www.openfoam.com                      |
|    \\/     M anipulation  |                                                 |
\*---------------------------------------------------------------------------*/
FoamFile
{
    version     2.0;
    format      ascii;
    arch        "LSB;label=32;scalar=64";
    class       volVectorField;
    location    "0.5";
    object      flux;
}
// * * * * * * * * * * * * * * * * * * * * * * * * * * * * * * * * * * * * * //

dimensions      [0 1 -1 1 0 0 0];

internalField   nonuniform List<vector> 
5712
(
(-0.377117 0.603539 0.427486)
(-0.484739 0.347842 1.39164)
(-0.867879 0.952065 0.345483)
(-1.29491 0.63525 1.4206)
(-1.32782 1.043 0.251207)
(-2.28363 0.78306 1.43866)
(-0.992849 1.57551 0.376815)
(-2.50398 2.03686 2.11647)
(-0.790094 2.09856 0.458857)
(-1.73205 2.6553 2.88248)
(-1.18166 1.38621 0.467469)
(-1.81533 1.2281 2.16141)
(-1.04247 0.878861 0.462765)
(-1.40219 0.714137 1.82893)
(-0.46487 0.451532 0.482675)
(-0.541643 0.307634 1.6546)
(-0.895217 0.932604 0.288597)
(-1.0211 0.891844 0.185903)
(-1.12676 0.826609 0.780746)
(-1.12341 0.930775 0.468594)
(-0.853595 1.24214 0.272959)
(-1.01784 1.03548 0.144574)
(-1.24542 1.50649 0.811284)
(-1.10716 1.13453 0.395236)
(-0.324978 0.413865 0.339496)
(-0.261135 0.29441 0.265721)
(-0.403602 0.23736 1.07928)
(-0.288038 0.185716 0.812451)
(-0.764549 0.470874 0.256774)
(-0.643591 0.392932 0.204601)
(-1.28668 0.296731 1.0565)
(-0.975327 0.258215 0.819254)
(-0.987337 0.975899 0.605391)
(-1.03015 0.959586 0.261096)
(-1.15204 0.922225 0.524826)
(-1.13435 0.697362 0.239903)
(-0.44558 0.68536 0.259802)
(-0.334992 0.575377 0.58758)
(-2.24486 0.542989 1.92765)
(-3.00059 0.633013 0.508583)
(-1.4847 0.860138 0.694707)
(-1.81417 0.87136 0.213051)
(-2.89225 1.94323 2.37711)
(-3.76484 2.02735 0.625929)
(-1.51914 1.2798 0.614386)
(-1.74391 1.34175 0.185851)
(-1.72891 0.860583 1.43958)
(-2.43847 0.721868 0.438661)
(-1.55501 0.857075 0.7355)
(-2.03779 0.587016 0.244574)
(-0.93749 0.404702 1.30581)
(-1.48193 0.431192 0.408721)
(-0.193507 0.392727 0.488787)
(-0.0672533 0.644453 0.242219)
(-0.202404 0.207828 0.621553)
(-0.0749094 0.280135 0.251618)
(-0.579954 0.527874 0.52913)
(-0.241357 0.843267 0.283939)
(-0.7826 0.323958 0.600797)
(-0.297336 0.41427 0.240951)
(-0.588409 0.550302 0.635301)
(-0.227927 1.1135 0.371088)
(-0.595773 0.392316 0.511206)
(-0.198883 0.731682 0.234573)
(-0.992168 0.141679 0.718698)
(-0.327498 0.429367 0.269623)
(-1.27877 0.118265 0.242269)
(-0.446129 0.319598 0.088119)
(-1.31209 0.752728 0.751679)
(-0.685642 0.933389 0.522897)
(-1.22989 0.823295 0.445861)
(-0.733152 0.955428 0.317766)
(-1.15043 0.878484 0.720764)
(-0.739625 0.855389 0.574651)
(-1.04288 0.943122 0.385834)
(-0.744472 0.867547 0.310902)
(-1.04924 0.756948 0.471585)
(-0.653349 1.05169 0.328415)
(-1.04524 0.738695 0.70988)
(-0.577947 1.01493 0.492153)
(-1.28944 0.83069 0.278834)
(-0.801917 0.964041 0.196689)
(-1.30324 0.840237 0.121604)
(-0.806897 0.968461 0.0970846)
(-1.12189 0.980324 0.234827)
(-0.782659 0.869903 0.188678)
(-1.14282 0.989989 0.098552)
(-0.781141 0.866688 0.0946434)
(-1.13725 0.711537 0.299291)
(-0.735022 1.0697 0.198449)
(-1.18123 0.693644 0.137473)
(-0.75226 1.08014 0.086912)
(-1.11072 1.02935 0.457539)
(-0.522352 1.3607 0.264292)
(-0.585792 1.29757 0.365679)
(-0.764124 2.07776 0.456898)
(-1.10051 1.08813 0.655767)
(-0.573565 1.60377 0.487593)
(-0.521292 1.2783 0.551471)
(-0.777618 2.28983 0.789642)
(-1.18208 0.978888 0.288757)
(-0.515887 1.18324 0.146631)
(-0.651121 1.3076 0.206347)
(-0.767357 1.98564 0.256351)
(-1.24625 0.973223 0.131816)
(-0.52734 1.1014 0.0595439)
(-0.699731 1.32755 0.0798985)
(-0.796358 1.97175 0.0902702)
(-0.246096 0.401992 0.694417)
(-0.267121 0.545394 1.21145)
(-0.0866826 1.04781 0.460656)
(-0.181729 1.91344 1.35474)
(-0.701779 0.476918 0.789051)
(-0.734909 0.556428 1.16583)
(-0.293456 1.30254 0.55626)
(-0.551596 2.10043 1.3961)
(-0.886946 0.557339 0.860929)
(-0.947031 0.561907 1.02417)
(-0.489898 1.58587 0.694982)
(-0.843693 2.22608 1.32854)
(-0.485049 1.07913 0.767487)
(0.0251554 1.00157 0.767104)
(-0.686635 1.06179 0.698823)
(-0.976697 1.17411 0.713185)
(-0.61142 2.00943 0.786862)
(0.0524246 0.977605 0.74367)
(-0.226763 1.0493 0.836793)
(-0.625173 1.06229 0.961739)
(-1.10863 1.03118 1.08289)
(-0.962083 2.35274 1.59623)
(-0.490804 0.900953 0.617919)
(-0.663765 0.988277 0.581614)
(-0.674169 1.00942 0.585453)
(-0.667889 1.2081 0.703014)
(-1.10072 2.6361 1.11085)
(-0.212999 0.131557 1.38868)
(-0.155602 0.156441 1.20153)
(-0.128896 0.284723 1.60705)
(-0.118423 0.750803 1.49643)
(-0.581077 0.181351 1.25992)
(-0.430159 0.205433 1.1288)
(-0.39254 0.374014 1.57048)
(-0.346116 0.792703 1.45044)
(-0.696909 0.252018 1.06586)
(-0.502343 0.204835 1.0093)
(-0.52135 0.48242 1.44806)
(-0.428647 0.842779 1.37693)
(-0.183894 0.892607 0.538132)
(-0.238049 0.767982 0.41643)
(-0.428582 0.905515 0.633406)
(-0.439333 0.764126 0.553852)
(-0.679106 0.917824 0.778792)
(-0.573593 0.710245 0.717378)
(-0.820311 0.760418 0.923308)
(-0.640063 0.595515 0.891553)
(-0.699651 0.598377 1.29839)
(-0.5521 0.92455 1.304)
(-0.374845 0.839602 0.494545)
(-0.320916 0.717013 0.435851)
(-0.539266 0.94116 0.57602)
(-0.32902 0.824143 0.593364)
(-0.568322 0.931426 0.680226)
(-0.321972 0.782935 0.760629)
(-0.571595 0.883347 0.830729)
(-0.314466 0.730423 0.954381)
(-0.7679 0.621658 1.12107)
(-0.440302 0.895559 1.28615)
(-0.476002 0.962738 0.459836)
(-0.132211 1.03051 0.339122)
(-0.444077 0.963911 0.292307)
(-0.3709 1.06717 0.328647)
(-0.518913 0.848683 0.516063)
(-0.558157 0.824103 0.550569)
(-0.580406 0.836654 0.335663)
(-0.718489 0.848584 0.476001)
(-0.420738 0.979363 0.292702)
(-0.34578 0.961841 0.331854)
(-0.483532 0.977124 0.464401)
(-0.0696734 0.934081 0.361658)
(-0.407532 0.955693 0.0780308)
(-0.605643 1.07536 0.205286)
(-0.391457 0.955038 0.0198833)
(-0.656988 1.07945 0.0602266)
(-0.577702 0.815268 0.158448)
(-0.896921 0.867894 0.303644)
(-0.5849 0.811648 0.0403377)
(-0.962718 0.870142 0.0913739)
(-0.379338 0.975931 0.0627609)
(-0.589248 0.953815 0.200375)
(-0.359206 0.978086 0.0132794)
(-0.634738 0.954849 0.0582362)
(-0.558067 0.92194 0.322482)
(-0.329602 0.857317 0.290652)
(-0.820198 0.617973 0.397729)
(-0.285995 0.742882 0.237074)
(-0.529702 0.926774 0.531645)
(-0.0384959 0.845027 0.406272)
(-0.71414 0.612145 0.662461)
(-0.0158717 0.761445 0.442099)
(-0.548565 0.925241 0.10003)
(-0.492717 0.846539 0.152648)
(-0.85493 0.630486 0.197277)
(-0.355817 0.739173 0.106602)
(-0.482909 0.925648 0.0850775)
(-0.579232 0.83418 0.098627)
(-0.783711 0.649261 0.122509)
(-0.454685 0.735821 0.0857936)
(-0.103235 0.0870542 0.933441)
(-0.0758127 0.0436363 0.550252)
(-0.0511999 0.0230594 0.173746)
(-0.0787869 0.0444102 1.05428)
(-0.0600779 0.0199327 0.589006)
(-0.0428161 0.0157595 0.189267)
(-0.290352 0.124197 0.891125)
(-0.17785 0.0497661 0.53997)
(-0.114077 0.0280847 0.181619)
(-0.213731 0.0807765 1.02461)
(-0.126513 0.0480162 0.583647)
(-0.0814319 0.0298107 0.187434)
(-0.310246 0.122418 0.802282)
(-0.196825 0.0638655 0.487081)
(-0.148512 0.0479953 0.157737)
(-0.254104 0.134918 0.980069)
(-0.14646 0.0790565 0.573439)
(-0.109285 0.055227 0.186329)
(-0.168722 0.587467 0.289785)
(-0.102565 0.393098 0.172402)
(-0.0823282 0.284052 0.0531677)
(-0.332758 0.594579 0.446316)
(-0.170059 0.410189 0.287748)
(-0.108993 0.301942 0.0954688)
(-0.380771 0.470809 0.600107)
(-0.192354 0.319211 0.391253)
(-0.112358 0.239596 0.130664)
(-0.409166 0.37649 0.748352)
(-0.227551 0.227336 0.468759)
(-0.153428 0.161545 0.152245)
(-0.349538 0.208111 0.955772)
(-0.166056 0.102418 0.575885)
(-0.0957156 0.0645757 0.19218)
(-0.449894 0.562391 0.32721)
(-0.282543 0.381804 0.197959)
(-0.180312 0.270411 0.0687832)
(-0.347402 0.643532 0.457032)
(-0.212379 0.424795 0.320315)
(-0.121325 0.295991 0.119163)
(-0.375565 0.540798 0.600833)
(-0.210593 0.323574 0.421177)
(-0.110213 0.215719 0.152533)
(-0.374775 0.399139 0.767159)
(-0.19766 0.214114 0.515259)
(-0.0979951 0.139154 0.18076)
(-0.470372 0.218194 0.968516)
(-0.209771 0.0985359 0.5892)
(-0.0800501 0.0566135 0.203882)
(-0.481947 1.15404 0.0115123)
(-0.623007 1.06465 0.0795918)
(-0.403148 1.31452 0.114122)
(-0.498014 1.10872 0.163058)
(-0.591337 1.38003 0.111995)
(-0.815894 1.12083 0.115848)
(-0.55484 1.75643 0.271416)
(-0.754063 1.23568 0.244916)
(0.00203441 0.813703 0.0218877)
(-0.0236619 0.7486 0.0301136)
(0.0203959 0.819518 0.0233239)
(-0.0073734 0.695531 0.0312684)
(-0.118211 0.927107 0.0140307)
(-0.11811 0.79665 0.0421937)
(-0.0581459 0.93508 0.0276996)
(-0.0340362 0.731827 0.0563397)
(-0.0572311 0.917974 0.103088)
(-0.118829 0.875005 0.0521216)
(-0.401309 0.840319 0.139171)
(-0.550536 0.861285 0.0828761)
(-0.239379 1.01622 0.0662058)
(-0.153761 0.953032 0.110338)
(-0.480194 1.20727 0.132263)
(-0.485243 1.24809 -0.00315484)
(-0.8051 1.39089 0.29229)
(-0.893436 1.46501 0.0404902)
(0.00483716 0.951768 -0.121242)
(0.158535 1.01111 -0.0326048)
(-0.336618 0.855297 0.0406895)
(-0.315268 0.84412 0.00437015)
(-0.281156 0.975922 0.00439002)
(-0.213092 1.01558 -0.0176062)
(-0.0384815 0.534988 0.281593)
(-0.0196539 0.2589 0.103349)
(-0.0312979 0.511076 0.0742501)
(-0.0164194 0.289064 0.0376796)
(-0.0840438 0.552992 0.288345)
(-0.0119604 0.260656 0.106099)
(-0.0113001 0.517182 0.0940065)
(0.0109929 0.285805 0.0464459)
(-0.345299 0.558208 0.290166)
(-0.0763591 0.260749 0.112441)
(-0.254997 0.531974 0.129613)
(-0.0658796 0.30074 0.0695295)
(-0.347169 0.526789 0.0807992)
(-0.0966808 0.316174 0.0433142)
(-0.410895 0.538671 0.0062467)
(-0.113091 0.310016 0.0101399)
(-0.426971 0.790145 0.498452)
(-0.475786 0.618812 0.414432)
(-0.3923 0.818861 0.223822)
(-0.464504 0.63289 0.21452)
(-0.712538 0.920289 0.616987)
(-0.67301 0.780665 0.54607)
(-0.681866 0.972112 0.296439)
(-0.637579 0.792343 0.274659)
(-0.24517 0.757203 0.166853)
(-0.325732 0.481486 0.159534)
(-0.281356 0.760292 0.372902)
(-0.323122 0.464267 0.284636)
(-0.411697 0.861233 0.117419)
(-0.449606 0.637682 0.118606)
(-0.444575 0.882131 0.0423393)
(-0.448322 0.630692 0.0589194)
(-0.714675 1.02856 0.167973)
(-0.628442 0.797316 0.156445)
(-0.745338 1.04142 0.0685563)
(-0.625369 0.789421 0.0783225)
(-0.244369 0.768176 0.0802563)
(-0.315457 0.487493 0.0885475)
(-0.257613 0.772555 0.0226645)
(-0.315232 0.483068 0.0462672)
(-0.00113377 0.440777 0.123334)
(-0.0263167 0.253683 0.0622765)
(-0.20785 0.342632 0.11323)
(-0.0879291 0.200872 0.0565786)
(0.00921779 0.394544 0.20945)
(-0.016553 0.221401 0.0876169)
(-0.191257 0.322171 0.179739)
(-0.0766937 0.185417 0.0833216)
(-0.0128688 0.460379 0.0579356)
(-0.0330559 0.27198 0.0375808)
(-0.211055 0.350464 0.0640757)
(-0.0952791 0.207069 0.031741)
(-0.0210014 0.462868 0.0121197)
(-0.0364328 0.280511 0.012802)
(-0.207578 0.347677 0.0329048)
(-0.0955995 0.206612 0.0134429)
(0.0152217 0.0735656 0.312805)
(0.0172908 0.0339422 0.170528)
(-0.00607289 0.127087 0.124145)
(0.000230777 0.0664024 0.100937)
(0.0711648 0.0768282 0.316976)
(0.0661193 0.0400939 0.182799)
(0.00270336 0.133509 0.123863)
(0.0107095 0.0770289 0.101164)
(0.0052029 0.0925909 0.344873)
(0.0389066 0.0597568 0.209512)
(-0.0390531 0.146335 0.126229)
(-0.0168987 0.0985231 0.10227)
(0.322832 0.395209 0.54168)
(0.372581 0.682824 0.674413)
(0.151431 0.269014 0.425171)
(0.106108 0.246978 0.237456)
(0.0149993 0.165516 0.0950506)
(0.402597 0.637974 0.614588)
(0.346653 0.395462 0.486843)
(0.110076 0.205643 0.383941)
(0.149895 0.202794 0.263397)
(0.0262588 0.130129 0.117732)
(-0.437135 0.704983 0.576946)
(-0.314565 0.507694 0.447636)
(-0.234726 0.370936 0.304737)
(-0.177575 0.264105 0.192214)
(-0.0732227 0.157143 0.0830462)
(0.0134057 0.0150969 0.105584)
(0.00947934 0.00746365 0.0687452)
(0.00184531 0.0374227 0.0793552)
(0.00156029 0.0249808 0.0661062)
(0.0455865 0.0199168 0.120184)
(0.0336337 0.00929542 0.0760688)
(0.00685494 0.0481942 0.0844325)
(0.0051796 0.0331318 0.0696351)
(0.0466694 0.0344794 0.147383)
(0.0450091 0.0181938 0.0942833)
(-0.00489544 0.0671071 0.0930085)
(-0.00266075 0.0470975 0.0766383)
(0.159701 0.600562 0.443636)
(0.0433346 0.500904 0.300336)
(0.218316 0.355952 0.347616)
(0.10148 0.284687 0.221116)
(0.0730708 0.201699 0.227622)
(0.0386908 0.163435 0.159036)
(0.0779314 0.159766 0.171066)
(0.0517449 0.111754 0.120214)
(0.00247258 0.101173 0.0925325)
(-0.00640324 0.0706746 0.0828487)
(-0.164675 0.59053 0.371966)
(-0.0920667 0.46337 0.305374)
(-0.0663874 0.407923 0.279014)
(0.00505135 0.295665 0.220451)
(-0.0445006 0.284269 0.197637)
(0.00474396 0.198919 0.156278)
(-0.0382836 0.196234 0.135921)
(-0.00446852 0.134213 0.111744)
(-0.0204654 0.126776 0.0701275)
(-0.0158674 0.0974165 0.0777639)
(-0.191249 0.446818 0.250601)
(-0.144139 0.292935 0.160287)
(-0.338024 0.463075 0.157473)
(-0.185225 0.300989 0.0950571)
(-0.32221 0.598916 0.379065)
(-0.266179 0.433027 0.271162)
(-0.472155 0.613949 0.248392)
(-0.334617 0.449439 0.192316)
(-0.224425 0.343796 0.106581)
(-0.116696 0.21925 0.0622265)
(-0.118701 0.324121 0.163285)
(-0.0943085 0.209004 0.108683)
(-0.391459 0.47054 0.141957)
(-0.164961 0.303662 0.0656926)
(-0.422558 0.467711 0.0366955)
(-0.181334 0.303168 0.0183579)
(-0.520505 0.618639 0.174137)
(-0.344868 0.468657 0.122164)
(-0.548443 0.614154 0.0432829)
(-0.370549 0.468901 0.0353414)
(-0.269031 0.354923 0.103809)
(-0.0992459 0.220822 0.043555)
(-0.294638 0.353134 0.0287406)
(-0.111736 0.2223 0.0125379)
(-0.13511 0.238021 0.065511)
(-0.0827988 0.152611 0.0505606)
(-0.0579123 0.150716 0.0363029)
(-0.0719105 0.120721 0.0452075)
(-0.0846238 0.223811 0.0981255)
(-0.0724941 0.142897 0.0756446)
(-0.0478229 0.143119 0.0483111)
(-0.0657769 0.110839 0.0575976)
(-0.154999 0.250084 0.0654971)
(-0.0801485 0.157467 0.0343989)
(-0.0643003 0.154725 0.0257626)
(-0.0823094 0.127151 0.0303111)
(-0.187292 0.254281 0.0119798)
(-0.0856417 0.157044 0.00427469)
(-0.089234 0.16055 -0.0077269)
(-0.0833841 0.128211 0.000309634)
(0.00631101 0.0117214 0.0400088)
(0.00483716 0.00848179 0.0162672)
(0.004714 0.00601319 0.00458682)
(0.000674176 0.0531951 0.0386861)
(0.00165098 0.0223039 0.0108586)
(0.00161051 0.0153694 0.00285289)
(0.0237162 0.0114283 0.0458242)
(0.018683 0.00966439 0.0196104)
(0.0159377 0.00734091 0.00579605)
(0.00272732 0.060506 0.0415442)
(0.00492649 0.0275043 0.0122928)
(0.00434876 0.0196895 0.00335855)
(0.0348292 0.0183703 0.0546614)
(0.0278536 0.0168583 0.0246951)
(0.0232226 0.0145015 0.00679372)
(-0.00326758 0.072295 0.046132)
(0.00506065 0.0367268 0.0142954)
(0.00576089 0.0273601 0.00364255)
(0.00952145 0.368902 0.188338)
(0.00886609 0.255302 0.103504)
(0.0018624 0.192517 0.0296939)
(0.044196 0.207866 0.128976)
(0.0387963 0.147434 0.0654766)
(0.0303573 0.115422 0.0187673)
(0.0291028 0.123933 0.0942979)
(0.0278541 0.0891199 0.045745)
(0.0239965 0.0719877 0.0133915)
(0.0368243 0.0847436 0.0690476)
(0.0302173 0.0603485 0.0314325)
(0.0248814 0.0479146 0.00825722)
(-0.0103036 0.0901567 0.0507418)
(0.00168823 0.0487215 0.0157154)
(0.00258577 0.0361287 0.00340384)
(-0.114816 0.333926 0.219403)
(-0.0567575 0.221028 0.116061)
(-0.027872 0.158128 0.0363645)
(-0.00585034 0.201066 0.152313)
(0.0107313 0.131142 0.0746428)
(0.0166207 0.0958439 0.0222856)
(-0.00197033 0.133856 0.107123)
(0.0134253 0.0863093 0.051028)
(0.0175288 0.0639715 0.0150357)
(-0.00214716 0.101588 0.075399)
(0.011001 0.0643166 0.0329685)
(0.0132316 0.0466364 0.0090419)
(-0.0199737 0.11803 0.0555156)
(0.00185681 0.0568861 0.0155394)
(0.00406225 0.0401251 0.00398807)
(-0.000363142 0.109978 0.0308738)
(-6.74935e-05 0.0460616 0.00866527)
(1.44978e-05 0.0196134 0.00202625)
(9.08266e-05 0.00808523 8.15401e-05)
(0.00301849 0.125493 0.0127339)
(0.00102751 0.0510026 0.00366758)
(0.000568386 0.0210705 0.000938111)
(0.000327303 0.00848147 0.000131648)
(-0.00184629 0.110236 0.0318482)
(-0.000452791 0.0459869 0.00907457)
(0.000473297 0.0196278 0.00228668)
(0.000569812 0.00809841 0.00028901)
(0.00384508 0.127697 0.0150377)
(0.00139146 0.052149 0.00446569)
(0.00146646 0.02181 0.00159601)
(0.000947785 0.00883982 0.000555707)
(-0.00654649 0.10977 0.0329798)
(-0.00157291 0.0454043 0.00952171)
(0.000679674 0.0202377 0.00286465)
(0.00114927 0.00853796 0.000724255)
(-0.00251137 0.130434 0.0224925)
(-0.000196673 0.0527114 0.00701202)
(0.000631422 0.023092 0.00162035)
(0.000596759 0.00958214 0.000246846)
(-0.00365868 0.140602 0.0123016)
(-0.000489805 0.0557558 0.00441328)
(-7.37362e-05 0.0226156 0.000274689)
(3.77861e-05 0.00901769 -0.000391807)
(-0.00619534 0.142367 0.00598013)
(-0.00140506 0.0570648 0.00288755)
(0.000130288 0.0225575 0.000785778)
(0.00035417 0.00892449 0.000239967)
(-0.0188324 0.115078 0.0233299)
(-0.00476328 0.0483568 0.00728614)
(-0.00116607 0.0214803 0.00150831)
(2.60699e-05 0.0089545 -0.000319405)
(-0.0237229 0.0929556 0.0179353)
(-0.00579496 0.0414675 0.00545812)
(-0.00185752 0.019243 0.00175001)
(0.000397735 0.00823692 -8.31213e-05)
(-0.0132678 0.100297 0.0303773)
(-0.00312386 0.0433181 0.00890009)
(-0.000332248 0.0200964 0.00249324)
(0.000717142 0.00871119 0.000285228)
(-0.0194749 0.0860109 0.0249634)
(-0.00462047 0.0390502 0.00720757)
(-0.00182519 0.018481 0.00232658)
(0.000198308 0.00803855 -0.000156205)
(-0.0197639 0.124369 0.0151509)
(-0.00505981 0.0518192 0.00515182)
(-0.000782591 0.0221145 0.00117133)
(0.000409165 0.00898383 -9.85166e-05)
(-0.0262728 0.0966696 0.0114121)
(-0.00657114 0.0430316 0.00374104)
(-0.00197665 0.0195894 0.00134876)
(0.00057464 0.00832259 0.000159149)
(-0.0204866 0.128404 0.00683833)
(-0.00542668 0.0536868 0.00278185)
(-0.000656772 0.0225033 0.000916705)
(0.000649772 0.00913652 0.000331284)
(-0.0275642 0.0976886 0.00504526)
(-0.00705767 0.0439062 0.00197756)
(-0.00212763 0.0199178 0.000867243)
(0.000568119 0.00852026 0.000323543)
(-0.000276589 0.0796002 0.0374876)
(-8.80809e-05 0.038028 0.0104928)
(3.74034e-05 0.0175705 0.0025235)
(0.00014151 0.00761393 -8.49798e-05)
(0.000502013 0.0523694 0.0334981)
(0.000161187 0.0293481 0.00940603)
(-2.1407e-05 0.0151231 0.00309478)
(0.000116485 0.00691161 -7.31713e-05)
(0.000192974 0.0797312 0.0369864)
(2.7629e-05 0.037863 0.0103721)
(0.000335181 0.0176003 0.00252467)
(0.00048354 0.00764249 -9.28364e-05)
(0.00232435 0.0546608 0.0325502)
(0.000714866 0.0298948 0.00908457)
(7.70821e-05 0.0152753 0.00306045)
(0.000352698 0.00696912 -9.31559e-05)
(-0.00769042 0.0819998 0.0356843)
(-0.00206773 0.037989 0.0100129)
(-0.000168553 0.0180009 0.00292268)
(0.000644722 0.00787354 0.000230376)
(-0.00347869 0.0615356 0.0307934)
(-0.000785671 0.0316058 0.00849466)
(-0.000281148 0.015829 0.00321409)
(0.000559003 0.00715272 0.000106915)
(-0.00277693 0.0809644 0.0298244)
(-0.000253557 0.0370163 0.00855252)
(0.000431601 0.0178204 0.00305115)
(0.000830967 0.0080576 0.00082694)
(-0.000756837 0.0676932 0.0334197)
(0.000110907 0.0328988 0.00914868)
(-0.000296397 0.0166036 0.00397443)
(0.000537243 0.00739828 0.00021629)
(-0.0164878 0.0762406 0.0249663)
(-0.00382347 0.0359617 0.00710075)
(-0.00152 0.0175111 0.00270961)
(0.000625393 0.00786691 0.000329328)
(0.0010325 0.0318344 0.0234069)
(0.000350162 0.0231597 0.00629895)
(0.000108946 0.0117733 0.00243298)
(0.000129861 0.0032478 0.000157447)
(0.0019161 0.0157204 0.00865861)
(0.000616394 0.020093 0.00222538)
(0.000194293 0.0105269 0.000717949)
(8.80003e-05 0.00305948 0.000158646)
(0.00211081 0.0354646 0.0247394)
(0.00076937 0.0243134 0.00664568)
(0.000126811 0.012191 0.00251644)
(0.000286026 0.00343324 0.000173621)
(0.00503933 0.0190353 0.00926979)
(0.00163948 0.0212713 0.00238459)
(0.00045796 0.0108767 0.000793289)
(0.000212112 0.00315167 0.000200991)
(0.00104924 0.0429707 0.0260973)
(0.000637131 0.0264679 0.0069763)
(4.15661e-05 0.0127519 0.00271059)
(0.000423042 0.00347646 0.000241949)
(0.00672863 0.0254557 0.00987881)
(0.00227722 0.0233884 0.00254246)
(0.000653055 0.0113796 0.000861689)
(0.000310457 0.00323317 0.000241831)
(-0.00166426 0.0530668 0.0240963)
(0.000231827 0.0292127 0.0064455)
(-5.10228e-05 0.0137597 0.00280693)
(0.000581989 0.00381304 0.000317308)
(0.00579507 0.0337044 0.00996039)
(0.00234672 0.0259638 0.00256564)
(0.00068683 0.0121411 0.000996091)
(0.000349202 0.00342887 0.00030515)
(-0.00788722 0.0612736 0.0219115)
(-0.00105514 0.0319238 0.00600782)
(-0.000801461 0.0150201 0.00265909)
(0.000351677 0.00438355 0.000398963)
(0.00233163 0.0389927 0.00904872)
(0.00177966 0.0282601 0.00249192)
(0.000445973 0.0128714 0.00111393)
(0.000286762 0.00361007 0.00036471)
(-0.0177341 0.067865 0.0130318)
(-0.00327154 0.0350013 0.00367825)
(-0.00136107 0.0155671 0.00126324)
(0.000280208 0.00430636 0.000154184)
(-0.00547906 0.0414166 0.00703856)
(-0.000448006 0.0312261 0.00223851)
(-0.000114251 0.0141614 0.000842403)
(0.000104058 0.00392265 0.000306983)
(-0.0135486 0.0654228 0.0167519)
(-0.0021073 0.0337557 0.00453965)
(-0.00115888 0.0152501 0.00179852)
(0.000248099 0.0042771 0.000244164)
(-0.00269198 0.0390056 0.00809983)
(0.000515251 0.029971 0.00241021)
(0.000156757 0.0135396 0.00100767)
(0.000201178 0.00375721 0.000352547)
(-0.0208471 0.0689442 0.00870724)
(-0.00425017 0.0356929 0.00265102)
(-0.00158082 0.0155204 0.000894051)
(0.000294819 0.00407763 0.000148473)
(-0.00744863 0.0420812 0.00491389)
(-0.00114986 0.0320549 0.00171277)
(-0.000271378 0.0144153 0.000609505)
(5.02067e-05 0.00394544 0.000248711)
(-0.0226522 0.0702073 0.00399369)
(-0.00493461 0.0362248 0.00148206)
(-0.00176741 0.0157452 0.000633908)
(0.000230194 0.00412002 0.000237582)
(-0.00876938 0.0435649 0.00252737)
(-0.00165708 0.0326238 0.00107514)
(-0.0004075 0.0146694 0.000454621)
(2.43566e-06 0.0040082 0.00021989)
(4.92354e-05 0.00356515 4.09982e-05)
(1.60858e-05 0.00168834 1.50211e-05)
(5.31e-06 0.000760502 5.39467e-06)
(1.85079e-06 0.000314839 1.96099e-06)
(8.14791e-07 8.47743e-05 8.80869e-07)
(7.32874e-05 0.00360024 2.46279e-05)
(2.41279e-05 0.00169624 8.16796e-06)
(8.23566e-06 0.00076309 2.87696e-06)
(2.94281e-06 0.000315716 1.04299e-06)
(1.31829e-06 8.49836e-05 4.68272e-07)
(0.000117245 0.00361444 7.63487e-05)
(3.6194e-05 0.00171228 2.66861e-05)
(1.18851e-05 0.000768358 9.5916e-06)
(4.15432e-06 0.000317348 3.52704e-06)
(1.83607e-06 8.53554e-05 1.60493e-06)
(0.00014836 0.00369967 6.5711e-05)
(5.00471e-05 0.00172672 2.18285e-05)
(1.74107e-05 0.000772987 7.82408e-06)
(6.30204e-06 0.000318951 2.89058e-06)
(2.85184e-06 8.5744e-05 1.32324e-06)
(0.000150738 0.0037459 0.000102984)
(4.4118e-05 0.00174282 3.81926e-05)
(1.43821e-05 0.000777576 1.41956e-05)
(5.03823e-06 0.000320303 5.32632e-06)
(2.23569e-06 8.6046e-05 2.45997e-06)
(0.000182129 0.00384339 0.000153558)
(6.34279e-05 0.00175724 6.12839e-05)
(2.22967e-05 0.000783304 2.30167e-05)
(8.12937e-06 0.000322451 8.68983e-06)
(3.69993e-06 8.65815e-05 4.03819e-06)
(7.85503e-05 0.00383385 0.000138706)
(2.9112e-05 0.00178738 6.19008e-05)
(1.04812e-05 0.000796064 2.43132e-05)
(3.89541e-06 0.000327044 9.44048e-06)
(1.80291e-06 8.77048e-05 4.47575e-06)
(5.53376e-05 0.00389068 0.000172546)
(1.66865e-05 0.00182238 7.23632e-05)
(5.58986e-06 0.000811212 2.84458e-05)
(2.02959e-06 0.000332733 1.11917e-05)
(9.34686e-07 8.91302e-05 5.38305e-06)
(0.0001258 0.00387274 9.58304e-05)
(4.12205e-05 0.00177882 4.57504e-05)
(1.3925e-05 0.000790135 1.80764e-05)
(4.98565e-06 0.00032458 6.98365e-06)
(2.25255e-06 8.70708e-05 3.29013e-06)
(5.50236e-05 0.00397628 9.17938e-05)
(1.64952e-05 0.00180416 4.1297e-05)
(5.40434e-06 0.000797247 1.62159e-05)
(1.91857e-06 0.000326726 6.28587e-06)
(8.67342e-07 8.75609e-05 2.97786e-06)
(0.000158681 0.0038689 9.70061e-05)
(5.06179e-05 0.00176454 4.09164e-05)
(1.72162e-05 0.000783945 1.55684e-05)
(6.17963e-06 0.000322306 5.88879e-06)
(2.78782e-06 8.65106e-05 2.73279e-06)
(5.92348e-05 0.00396159 0.000118234)
(1.76804e-05 0.00178946 4.72611e-05)
(5.78745e-06 0.000791049 1.74973e-05)
(2.03946e-06 0.000324491 6.57343e-06)
(9.12514e-07 8.7013e-05 3.05622e-06)
(8.71535e-05 0.0038867 9.83866e-05)
(2.5224e-05 0.00180408 4.82629e-05)
(8.18835e-06 0.00080111 1.95856e-05)
(2.90436e-06 0.000328591 7.72555e-06)
(1.31567e-06 8.80593e-05 3.69711e-06)
(5.08918e-05 0.00404392 0.00010575)
(1.37657e-05 0.00182786 4.50041e-05)
(4.43719e-06 0.000806757 1.77531e-05)
(1.58246e-06 0.000330206 6.95912e-06)
(7.22029e-07 8.84226e-05 3.32816e-06)
(7.82473e-05 0.00397817 0.000137398)
(1.68968e-05 0.00183904 5.71766e-05)
(4.62455e-06 0.000815161 2.25732e-05)
(1.51005e-06 0.000333814 8.92414e-06)
(6.59117e-07 8.9367e-05 4.30943e-06)
(4.17478e-05 0.00413807 0.000115779)
(7.97639e-06 0.00185941 4.68623e-05)
(2.03579e-06 0.00081873 1.84475e-05)
(6.4487e-07 0.000334621 7.30663e-06)
(2.78478e-07 8.95295e-05 3.53559e-06)
(4.16733e-05 0.00355955 2.33252e-05)
(1.29374e-05 0.0016829 1.14265e-05)
(4.15741e-06 0.000758187 4.25799e-06)
(1.42202e-06 0.000314019 1.54934e-06)
(6.17459e-07 8.45773e-05 6.92621e-07)
(3.61284e-05 0.00358957 6.41656e-06)
(1.12417e-05 0.00168126 4.38995e-06)
(3.61562e-06 0.000756794 1.67484e-06)
(1.23338e-06 0.000313497 6.07267e-07)
(5.3401e-07 8.44516e-05 2.69056e-07)
(0.000109542 0.00361078 4.5761e-05)
(3.23243e-05 0.00170218 1.92594e-05)
(1.0355e-05 0.000764357 6.99067e-06)
(3.56268e-06 0.000315947 2.54233e-06)
(1.55778e-06 8.50182e-05 1.14171e-06)
(9.80434e-05 0.00363708 1.47932e-05)
(2.92166e-05 0.00169698 7.36939e-06)
(9.3507e-06 0.000761753 2.6948e-06)
(3.20297e-06 0.000315034 9.71151e-07)
(1.39448e-06 8.48008e-05 4.3107e-07)
(0.000139344 0.00372278 6.54889e-05)
(3.82846e-05 0.00173348 2.58188e-05)
(1.20633e-05 0.000773566 9.47252e-06)
(4.14659e-06 0.000318813 3.50252e-06)
(1.81921e-06 8.56778e-05 1.5968e-06)
(0.000132379 0.00374271 4.7495e-05)
(3.88374e-05 0.00172608 1.70814e-05)
(1.25565e-05 0.00077033 5.96214e-06)
(4.35432e-06 0.000317679 2.1452e-06)
(1.91356e-06 8.54054e-05 9.61169e-07)
(0.000139084 0.00384808 0.000119203)
(4.21573e-05 0.00176318 4.35065e-05)
(1.4093e-05 0.000782078 1.56247e-05)
(5.00635e-06 0.000321479 5.74265e-06)
(2.2398e-06 8.62959e-05 2.61859e-06)
(9.5222e-05 0.00386292 8.25625e-05)
(2.89071e-05 0.00175658 2.88091e-05)
(9.55819e-06 0.000779505 1.00623e-05)
(3.36143e-06 0.000320587 3.64773e-06)
(1.48998e-06 8.60811e-05 1.65049e-06)
(6.9549e-05 0.00395104 0.00015645)
(2.22712e-05 0.00177846 5.44993e-05)
(7.61437e-06 0.000786794 1.92093e-05)
(2.73242e-06 0.000323008 7.01641e-06)
(1.22938e-06 8.66545e-05 3.19762e-06)
(-0.00241352 0.799984 0.133086)
(-0.0138591 1.22696 0.316437)
(0.0025498 0.81659 0.138412)
(-0.0322214 1.22137 0.314115)
(0.0201314 0.835361 0.154059)
(-0.0382432 1.20505 0.309946)
(0.0559268 0.829839 0.175007)
(-0.0235829 1.17426 0.31216)
(0.0848619 0.768969 0.170994)
(0.0284731 1.09578 0.308178)
(-0.0218358 0.693 0.060485)
(-0.0667288 0.789939 0.102006)
(0.0542017 0.698952 0.105863)
(0.0393567 0.839695 0.178688)
(-0.0538536 0.695251 0.0289786)
(-0.110824 0.778188 0.0480932)
(-0.074255 0.708538 0.00603672)
(-0.12702 0.784506 0.0130046)
(-0.0562232 0.750741 0.829495)
(-0.0162557 0.132818 0.237533)
(-0.00581008 0.0309026 0.0838495)
(-0.00295901 0.00839623 0.0422077)
(-0.00209933 0.00193063 0.029706)
(-0.0147763 0.820769 0.231488)
(-0.00896775 0.246088 0.0753403)
(-0.00218809 0.0654177 0.0294946)
(-0.00120716 0.018114 0.0145805)
(-0.000864781 0.00421614 0.00975746)
(-0.17329 0.747141 0.813922)
(-0.0498668 0.130445 0.232279)
(-0.0179006 0.0302784 0.0822923)
(-0.00911986 0.00823131 0.0414539)
(-0.00648117 0.00189369 0.0292948)
(-0.035558 0.813952 0.235642)
(-0.0141084 0.242624 0.0820732)
(-0.00588083 0.064557 0.0302004)
(-0.00306518 0.0178826 0.0150007)
(-0.00219056 0.00415967 0.010282)
(-0.291337 0.735133 0.767582)
(-0.0842524 0.127701 0.219232)
(-0.0304466 0.0296559 0.0779757)
(-0.0155862 0.00809338 0.0394359)
(-0.0110835 0.00186915 0.0279144)
(-0.0616207 0.798024 0.227773)
(-0.0248891 0.237857 0.0789803)
(-0.0100951 0.0634626 0.0290456)
(-0.00533985 0.0176481 0.0144282)
(-0.00373711 0.00412242 0.00991046)
(-0.391787 0.7092 0.693736)
(-0.114196 0.121813 0.198519)
(-0.0417167 0.0283458 0.0711291)
(-0.0215148 0.00779709 0.0361959)
(-0.0153435 0.00181299 0.0256748)
(-0.0784595 0.767815 0.217923)
(-0.0329552 0.229491 0.0744312)
(-0.0135489 0.0616013 0.0271826)
(-0.00718919 0.0172672 0.0134501)
(-0.00503706 0.00405883 0.00919722)
(-0.492806 0.661657 0.576519)
(-0.145764 0.111627 0.166013)
(-0.0540195 0.0261893 0.0601969)
(-0.0281461 0.00729958 0.0309139)
(-0.0201878 0.00171218 0.0220064)
(-0.0956559 0.715579 0.201636)
(-0.0419861 0.216118 0.0677815)
(-0.0174926 0.0586721 0.024711)
(-0.00937145 0.0166323 0.012244)
(-0.00663209 0.0039378 0.00837324)
(-0.592369 0.584903 0.275288)
(-0.182523 0.103751 0.0840772)
(-0.0693869 0.0254859 0.0314616)
(-0.0366893 0.00730179 0.0164107)
(-0.0264778 0.00172802 0.0117253)
(-0.151452 0.586605 0.0968983)
(-0.0586596 0.188347 0.0332063)
(-0.0234523 0.0532466 0.0121418)
(-0.012407 0.0155925 0.00603849)
(-0.00878622 0.00376822 0.00415819)
(-0.548502 0.607337 0.408044)
(-0.167254 0.105425 0.121997)
(-0.0628716 0.0254316 0.0449917)
(-0.0329896 0.00720638 0.0232807)
(-0.0237413 0.00170009 0.0166062)
(-0.118332 0.624318 0.143488)
(-0.0497766 0.198398 0.0486552)
(-0.0203847 0.055167 0.0179097)
(-0.0108532 0.0158971 0.00896566)
(-0.00768849 0.00380089 0.0061836)
(-0.613185 0.576568 0.162048)
(-0.190107 0.103573 0.0501699)
(-0.0727318 0.0256611 0.0189648)
(-0.0386175 0.0073911 0.00996055)
(-0.0278997 0.00175081 0.00712964)
(-0.170294 0.57371 0.0539864)
(-0.0638144 0.184153 0.0191461)
(-0.0251693 0.0524072 0.00699381)
(-0.0132501 0.0154842 0.00349128)
(-0.00939332 0.00376809 0.00242443)
(-0.639814 0.575058 0.055214)
(-0.197345 0.102997 0.0171114)
(-0.0757346 0.0255499 0.0065158)
(-0.0402674 0.00737308 0.00344295)
(-0.0291022 0.00174571 0.00247074)
(-0.177336 0.573216 0.0196777)
(-0.0665095 0.183472 0.00643313)
(-0.0263144 0.0522576 0.0022437)
(-0.0135113 0.0155132 0.00120032)
(-0.00970601 0.00378144 0.000769915)
(-0.0438086 1.56779 -0.0551808)
(-0.391052 2.39609 -0.0177973)
(-0.354687 2.31845 0.224066)
(-0.124732 1.4974 -0.0617983)
(0.0727749 0.799151 0.0341522)