/*--------------------------------*- C++ -*----------------------------------*\
| =========                 |                                                 |
| \\      /  F ield         | OpenFOAM: The Open Source CFD Toolbox           |
|  \\    /   O peration     | Version:  v2106                                 |
|   \\  /    A nd           | Website:  www.openfoam.com                      |
|    \\/     M anipulation  |                                                 |
\*---------------------------------------------------------------------------*/
FoamFile
{
    version     2.0;
    format      ascii;
    arch        "LSB;label=32;scalar=64";
    class       volScalarField;
    location    "0.5";
    object      gradTz;
}
// * * * * * * * * * * * * * * * * * * * * * * * * * * * * * * * * * * * * * //

dimensions      [0 -1 0 1 0 0 0];

internalField   nonuniform List<scalar> 
5712
(
10687.2
34790.9
8637.07
35515.1
6280.17
35966.5
9420.37
52911.7
11471.4
72062.1
11686.7
54035.3
11569.1
45723.3
12066.9
41364.9
7214.93
4647.57
19518.7
11714.9
6823.99
3614.36
20282.1
9880.9
8487.39
6643.02
26982
20311.3
6419.34
5115.03
26412.6
20481.3
15134.8
6527.4
13120.7
5997.58
6495.04
14689.5
48191.2
12714.6
17367.7
5326.26
59427.9
15648.2
15359.6
4646.29
35989.5
10966.5
18387.5
6114.35
32645.2
10218
12219.7
6055.48
15538.8
6290.45
13228.2
7098.47
15019.9
6023.78
15882.5
9277.21
12780.1
5864.33
17967.5
6740.58
6056.72
2202.98
18792
13072.4
11146.5
7944.15
18019.1
14366.3
9645.85
7772.54
11789.6
8210.37
17747
12303.8
6970.85
4917.21
3040.1
2427.12
5870.67
4716.96
2463.8
2366.08
7482.29
4961.23
3436.82
2172.8
11438.5
6607.3
9141.96
11422.5
16394.2
12189.8
13786.8
19741
7218.93
3665.77
5158.67
6408.78
3295.4
1488.6
1997.46
2256.75
17360.4
30286.2
11516.4
33868.5
19726.3
29145.8
13906.5
34902.5
21523.2
25604.3
17374.5
33213.4
19187.2
19177.6
17470.6
17829.6
19671.5
18591.7
20919.8
24043.5
27072.4
39905.7
15448
14540.4
14636.3
17575.4
27771.3
34717
30038.3
40176.3
37410.7
31498.1
28220.1
39262.1
36261.1
26646.5
25232.6
36201.4
34423.2
13453.3
10410.7
15835.1
13846.3
19469.8
17934.5
23082.7
22288.8
32459.8
32600.1
12363.6
10896.3
14400.5
14834.1
17005.7
19015.7
20768.2
23859.5
28026.7
32153.6
11495.9
8478.05
7307.69
8216.17
12901.6
13764.2
8391.57
11900
7317.54
8296.35
11610
9041.45
1950.77
5132.15
497.083
1505.67
3961.19
7591.1
1008.44
2284.35
1569.02
5009.38
331.985
1455.9
8062.05
7266.31
9943.22
5926.85
13291.1
10156.8
16561.5
11052.5
2500.74
3816.2
4931.92
2665.05
2126.94
2465.67
3062.73
2144.84
23336
13756.3
4343.66
26356.9
14725.1
4731.68
22278.1
13499.2
4540.46
25615.2
14591.2
4685.85
20057.1
12177
3943.42
24501.7
14336
4658.23
7244.62
4310.04
1329.19
11157.9
7193.69
2386.72
15002.7
9781.33
3266.6
18708.8
11719
3806.14
23894.3
14397.1
4804.5
8180.26
4948.98
1719.58
11425.8
8007.88
2979.06
15020.8
10529.4
3813.32
19179
12881.5
4519
24212.9
14730
5097.04
287.808
1989.8
2853.05
4076.46
2799.87
2896.21
6785.39
6122.91
547.193
752.839
583.097
781.711
350.766
1054.84
692.491
1408.49
2577.19
1303.04
3479.28
2071.9
1655.14
2758.45
3306.58
-78.871
7307.25
1012.26
-3031.05
-815.12
1017.24
109.254
109.751
-440.156
7039.83
2583.73
1856.25
941.991
7208.62
2652.49
2350.16
1161.15
7254.15
2811.02
3240.34
1738.24
2019.98
1082.86
156.167
253.497
12461.3
10360.8
5595.56
5363
15424.7
13651.7
7410.96
6866.47
4171.34
3988.36
9322.54
7115.91
2935.47
2965.14
1058.48
1472.98
4199.32
3911.13
1713.91
1958.06
2006.41
2213.69
566.612
1156.68
3083.36
1556.91
2830.75
1414.47
5236.24
2190.42
4493.47
2083.04
1448.39
939.519
1601.89
793.525
302.993
320.049
822.621
336.073
7820.12
4263.2
3103.61
2523.42
7924.41
4569.97
3096.58
2529.1
8621.84
5237.8
3155.74
2556.76
13542
16860.3
10629.3
5936.41
2376.27
15364.7
12171.1
9598.52
6584.94
2943.29
14423.6
11190.9
7618.42
4805.35
2076.16
2639.6
1718.63
1983.88
1652.66
3004.59
1901.72
2110.81
1740.88
3684.57
2357.08
2325.21
1915.96
11090.9
7508.39
8690.39
5527.91
5690.55
3975.91
4276.66
3005.36
2313.31
2071.22
9299.14
7634.34
6975.36
5511.28
4940.92
3906.94
3398.02
2793.6
1753.19
1944.1
6265.03
4007.16
3936.83
2376.43
9476.61
6779.04
6209.8
4807.89
2664.51
1555.66
4082.13
2717.06
3548.92
1642.32
917.386
458.948
4353.44
3054.11
1082.07
883.536
2595.24
1088.87
718.515
313.447
1637.77
1264.01
907.571
1130.19
2453.14
1891.11
1207.78
1439.94
1637.43
859.973
644.066
757.777
299.494
106.867
-193.173
7.74086
1000.22
406.681
114.671
967.153
271.464
71.3221
1145.61
490.261
144.901
1038.61
307.32
83.9636
1366.53
617.378
169.843
1153.3
357.385
91.0637
4708.45
2587.6
742.347
3224.39
1636.92
469.183
2357.45
1143.62
334.788
1726.19
785.814
206.431
1268.55
392.884
85.0959
5485.07
2901.52
909.112
3807.83
1866.07
557.141
2678.07
1275.7
375.891
1884.98
824.211
226.048
1387.89
388.484
99.7018
771.845
216.632
50.6563
2.0385
318.348
91.6896
23.4528
3.2912
796.206
226.864
57.1671
7.22525
375.943
111.642
39.9001
13.8927
824.496
238.043
71.6162
18.1064
562.312
175.3
40.5087
6.17115
307.539
110.332
6.86724
-9.79516
149.503
72.1886
19.6445
5.99917
583.248
182.154
37.7078
-7.98511
448.382
136.453
43.7503
-2.07803
759.432
222.502
62.331
7.1307
624.084
180.189
58.1644
-3.90512
378.772
128.795
29.2833
-2.46292
285.303
93.526
33.7189
3.97874
170.958
69.5463
22.9176
8.28209
126.132
49.4391
21.6811
8.08858
937.189
262.32
63.0874
-2.1245
837.452
235.151
77.3694
-1.82928
924.661
259.304
63.1167
-2.32091
813.756
227.114
76.5113
-2.3289
892.107
250.322
73.0669
5.7594
769.835
212.366
80.3523
2.67288
745.61
213.813
76.2787
20.6735
835.492
228.717
99.3608
5.40726
624.157
177.519
67.7403
8.23321
585.173
157.474
60.8245
3.93617
216.465
55.6345
17.9487
3.96614
618.486
166.142
62.911
4.34053
231.745
59.6147
19.8322
5.02478
652.432
174.408
67.7649
6.04872
246.97
63.5615
21.5422
6.04577
602.407
161.137
70.1732
7.93269
249.01
64.141
24.9023
7.62875
547.787
150.196
66.4772
9.97407
226.218
62.2981
27.8483
9.11774
325.794
91.9562
31.5809
3.8546
175.964
55.9627
21.0601
7.67457
418.798
113.491
44.963
6.10409
202.496
60.2554
25.1916
8.81367
217.681
66.2755
22.3513
3.71183
122.847
42.8193
15.2376
6.21778
99.8423
37.0515
15.8477
5.93954
63.1842
26.8786
11.3655
5.49725
1.02495
0.375527
0.134867
0.0490248
0.0220217
0.615699
0.204199
0.0719239
0.0260747
0.0117068
1.90872
0.667152
0.23979
0.0881761
0.0401232
1.64277
0.545712
0.195602
0.0722645
0.0330809
2.5746
0.954815
0.354889
0.133158
0.0614992
3.83894
1.5321
0.575419
0.217246
0.100955
3.46765
1.54752
0.60783
0.236012
0.111894
4.31366
1.80908
0.711144
0.279794
0.134576
2.39576
1.14376
0.451909
0.174591
0.0822532
2.29484
1.03242
0.405396
0.157147
0.0744464
2.42515
1.02291
0.389209
0.14722
0.0683198
2.95585
1.18153
0.437434
0.164336
0.0764056
2.45967
1.20657
0.48964
0.193139
0.0924278
2.64376
1.1251
0.443827
0.173978
0.083204
3.43495
1.42941
0.564331
0.223103
0.107736
2.89448
1.17156
0.461188
0.182666
0.0883898
0.583129
0.285661
0.10645
0.0387335
0.0173155
0.160414
0.109749
0.041871
0.0151817
0.00672641
1.14403
0.481485
0.174767
0.0635582
0.0285428
0.369829
0.184235
0.0673701
0.0242788
0.0107768
1.63722
0.64547
0.236813
0.0875631
0.0399201
1.18737
0.427035
0.149054
0.0536299
0.0240292
2.98007
1.08766
0.390617
0.143566
0.0654648
2.06406
0.720227
0.251557
0.0911931
0.0412623
3.91124
1.36248
0.480233
0.17541
0.0799405
3327.16
7910.93
3460.29
7852.88
3851.47
7748.64
4375.16
7804
4274.85
7704.45
1512.13
2550.16
2646.58
4467.2
724.465
1202.33
150.918
325.114
20737.4
5938.32
2096.24
1055.19
742.65
5787.19
1883.51
737.365
364.512
243.937
20348
5806.97
2057.31
1036.35
732.371
5891.06
2051.83
755.011
375.018
257.051
19189.6
5480.79
1949.39
985.897
697.86
5694.32
1974.51
726.139
360.704
247.762
17343.4
4962.98
1778.23
904.897
641.871
5448.07
1860.78
679.565
336.252
229.931
14413
4150.33
1504.92
772.848
550.16
5040.9
1694.54
617.774
306.1
209.331
6882.21
2101.93
786.541
410.266
293.133
2422.46
830.156
303.546
150.962
103.955
10201.1
3049.93
1124.79
582.017
415.154
3587.2
1216.38
447.743
224.141
154.59
4051.2
1254.25
474.12
249.014
178.241
1349.66
478.654
174.845
87.282
60.6108
1380.35
427.784
162.895
86.0737
61.7685
491.942
160.828
56.0926
30.008
19.2479
-1379.52
-444.932
5601.66
-1544.96
853.805
913.665
2555.37
3324.98
2149.04
4117.41
3766.09
5822.52
4866.43
6011.72
2449.08
3263.58
2436.63
2897.74
1267.53
1317.35
1680.15
943.713
382.643
42.6089
-27.6492
-32.7675
143.357
12481.3
4291.74
4243.43
3337.95
724.89
590.576
2572.81
142.551
274.884
186.963
26.4907
6668.63
3399.07
1561.4
1006.47
2420.54
1429.24
513.402
839.866
-123.455
85.6209
729.99
616.613
7312.38
2879.94
4392.19
1937.65
2341.97
3917.97
1004.57
56.4993
902.837
970.418
636.589
444.151
315.601
183.775
643.302
441.836
292.147
175.78
66.7751
320.268
248.489
173.383
101.653
33.5247
36.5435
29.0171
20.613
12.2026
4.0265
-24.9525
-20.918
-15.5501
-9.46116
-3.156
-29.4897
-24.6544
-18.296
-11.1273
-3.7122
121.698
95.9949
68.0875
40.4309
13.4196
7758.89
5431.34
3631.91
2399.61
1507.84
3020.52
2054.79
1421.24
878.327
360.474
2942.4
2035.52
1367.53
822.997
326.538
2235.66
1447.5
956.05
566.605
200.838
512.715
325.602
224.306
135.254
48.1038
495.709
386.608
272.596
162.573
54.9491
1953.03
1403.85
927.917
537.534
188.082
182.805
176.195
135.617
85.9473
30.3773
228.613
178.357
126.835
76.5704
26.1391
183.747
160.59
123.02
77.5588
26.9714
12.8308
4.34834
0.722027
0.0215437
0.119959
4215.4
3057.24
2086.86
1403.9
887.292
2388.16
1661.84
1127.86
679.008
261.671
1264.53
958.556
662.243
391.009
133.075
811.818
612.416
420.823
246.916
83.2182
1871.55
1363.26
912.962
529.782
181.728
1166.9
887.985
613.518
360.437
120.241
417.89
317.607
219.317
128.732
43.0038
694.548
533.236
369.503
216.237
71.5413
-102.847
-78.573
-53.2637
-30.0531
-9.54543
69.4723
52.4705
36.1323
21.2752
7.12117
597.252
454.361
313.038
183.065
60.9377
509.705
391.6
271.861
159.527
52.9664
4194.11
2583.68
1767.56
1189.93
724.87
1971.53
1342.57
880.592
524.259
199.367
2875.89
2016.5
1340.35
820.008
323.479
1396.01
996.268
664.307
395.321
146.058
1836.84
1354.9
917.365
535.686
181.667
2757.78
1863.19
1247.06
742.71
264.459
823.489
627.425
432.524
252.657
83.7442
44.8202
32.9562
22.1394
12.8323
4.27144
733.818
556.276
383.242
224.809
75.1661
-44433.2
-70361.4
-37140.3
-56805
-38002.7
-75612.5
-45223.5
-96138.4
-28618.2
-19973.2
-31131.2
-20021
-25503
-16565.3
-30499
-16750.2
-38583.8
-30570.5
-54503.7
-41062.8
-33288.4
-27927.9
-45261.8
-35507.2
-26061.8
-27502.4
-21626.9
-21581.6
-26720.4
-24212
-57811.2
-15985.5
-23004.7
-8854.78
-67920.4
-19119.7
-20151.5
-8003.65
-44838.1
-14134.9
-23854.3
-9370.83
-41240.6
-12699.6
-21690.1
-8985.68
-26619.3
-9861.5
-20748.3
-9442.87
-23087.9
-8597.19
-21287.8
-10934.6
-18377.4
-7607.26
-22848.9
-8336.84
-7992.78
-2894.16
-16607.6
-11838.2
-14342.9
-9167.56
-13692
-11137.6
-11974.4
-8468.73
-15323.9
-9540.67
-18273.6
-12591.1
-9937.93
-6259.46
-5522.61
-3722.98
-8324.73
-5774.14
-4649.79
-3483.69
-10493.1
-6262.84
-5853.25
-3385.09
-14165.6
-7579.3
-10183
-11909.2
-18349.1
-13022.9
-14562.6
-20201.1
-9498.66
-4466.85
-6129.25
-6827.1
-5101.2
-2144.67
-2883.94
-2622.74
-22544.8
-28730.4
-13231.3
-33787.5
-23372.1
-27261
-15266.2
-34483.5
-23390.8
-24304.6
-18218.2
-32601.2
-14144.2
-10928.5
-16734.2
-19559.8
-20520.2
-14418.7
-18092.7
-22704.1
-26447.5
-39352.7
-10380.3
-11996.8
-14066.7
-17768.1
-27872.7
-27845.1
-19319.2
-36290.7
-27797.9
-25664.9
-18829.3
-35732.3
-27696.3
-22357.7
-17604.2
-33282.7
-27415.9
-11601.9
-9104.78
-13840.4
-11245
-16604.9
-13876.9
-19693.8
-17078.3
-30189.5
-27439.5
-10268.5
-9150.51
-12240.1
-11831.6
-14952.5
-15264.3
-19025.6
-19804.6
-26909.8
-27995.4
-10204.6
-7713.19
-7325.07
-8087.72
-10651.8
-12327.6
-7906.02
-11183
-7651.92
-8447.27
-11137.3
-8640.42
-2473.37
-5367.88
-1166.38
-1894.76
-4225.66
-7518.24
-1514.71
-2480.34
-2173.03
-5369.26
-1027.79
-1893.59
-8460.48
-7471.12
-10257.3
-6053.87
-13256.8
-9908.93
-16670.7
-10740.3
-3016.94
-4152.04
-5277.39
-2893.12
-2700.87
-2853.02
-3427.56
-2414.02
-11780.5
-4028.32
-16255.9
-5474.15
-11979.4
-4214.16
-16588.2
-5861.09
-11773.1
-4088.54
-17241.1
-6433.41
-5634.81
-1797.92
-7787.22
-2840.66
-9756.34
-3648.42
-12474.7
-4555.47
-18175.6
-6988.89
-6435.12
-2223.23
-8158.84
-3537.43
-10699.7
-4529.82
-14287.2
-5797.26
-19146.9
-7109.46
-9428.71
-8513.77
-7692.87
-7250.61
-16047.4
-12136.8
-13469.6
-10987.9
-5799.04
-4154.33
-2470.96
-1557.18
-5674.88
-4572.86
-2520.28
-2170.71
-4837.17
-6441.16
-5377.25
-6749.86
-4971.26
-3900.43
-5767.77
-2281.62
-10787.2
-3940.6
979.727
-1430.13
-2725.5
-1967.87
-1302.73
-1168.57
-2411.61
-1157.58
-977.781
-426.351
-2692.11
-1273.72
-1517.28
-597.98
-3219.76
-1540.38
-2597.87
-1101.1
-2251.24
-816.847
-886.92
-189.942
-7030.03
-6783.09
-5850.9
-4885.68
-10096.5
-9495.17
-8672.19
-6874.76
-3742.29
-3330.35
-4831.93
-4646.17
-4042.62
-3188.68
-2344.5
-1932.54
-5973.69
-4531.46
-3473.69
-2756.28
-2536.34
-2157.64
-1385.29
-1329.19
-2213.26
-1031.62
-2235.46
-1067.17
-2800.83
-1334.85
-3080.28
-1504.09
-1423.01
-693.88
-1422.12
-606.944
-613.074
-219.025
-817.634
-228.387
-3028.67
-3112.43
-1643.45
-1851.11
-3152.31
-3310.57
-1681.69
-1855.86
-3561.88
-3431.78
-1793.56
-1817.57
-4881.98
-7701.31
-3652.75
-2399.54
-1260.71
-10633.5
-7184.23
-5461.72
-3950.37
-2114.45
-8392.28
-6223.77
-4355.32
-3008.75
-1402.06
-2907.09
-2317.14
-2108.35
-2627.46
-3039.68
-2359.84
-2098.87
-2588.35
-3272.86
-2662.35
-2054
-2527.1
-9396.36
-7031.38
-7326.68
-5337.8
-5226.84
-3862.53
-3759.2
-2928.63
-1993.32
-2373.04
-7357.86
-6597.87
-5339.05
-4807.38
-3751.21
-3377.5
-2641.27
-2480.58
-1307.66
-1942.01
-4382
-3051.78
-3211.3
-1749.82
-7056.95
-5602.96
-5442.52
-4072.86
-2080.23
-1060.72
-2833.58
-2012.72
-3398.15
-1427.69
-1041.09
-428.186
-4350.74
-2869.52
-1385.02
-930.82
-2392.48
-890.662
-717.381
-247.339
-1248.9
-947.281
-708.146
-987.994
-1744.24
-1454.1
-904.863
-1279.3
-1449.21
-710.867
-514.389
-669.939
-226.451
-32.3577
279.043
53.2167
-1493.61
-468.951
-1659.8
-182.608
-1575.76
-547.164
-1673.29
-202.393
-1633.43
-518.578
-1586.17
-162.871
-4121.14
-1222.65
-3153.11
-952.808
-2499.87
-827.416
-1747.55
-483.491
-1509
-218.089
-4635.48
-1297.16
-3325.95
-820.921
-2400.75
-592.645
-1736.88
-358.06
-1537.25
-235.747
-422.254
-124.138
-23.0023
8.51077
-167.192
-49.3798
-11.2063
0.813096
-446.009
-128.737
-26.6048
4.48195
-187.57
-52.1044
-21.8019
-7.97192
-488.5
-136.325
-37.9948
-5.11258
-290.321
-71.1922
-0.0686123
10.6505
-106.768
-13.4696
35.8894
28.2629
31.9788
32.9451
28.6152
14.6297
-363.937
-95.7963
-1.68761
24.5732
-280.942
-64.3377
-12.5348
17.6604
-494.378
-133.112
-29.1744
7.59894
-396.441
-94.7071
-23.897
21.9981
-215.302
-49.7459
5.89244
18.2449
-164.638
-32.9309
-5.06538
10.3364
-39.0416
5.59742
13.1027
8.21757
-29.6227
5.0084
5.77393
5.89675
-564.914
-160.652
-30.5002
16.6142
-592.655
-156.061
-54.3768
16.7178
-558.779
-156.204
-29.1145
17.6265
-577.921
-150.303
-53.6752
17.2014
-545.142
-148.082
-40.1489
8.54301
-544.687
-139.374
-58.9685
11.8113
-418.298
-109.508
-40.6998
-5.06867
-586.23
-145.373
-72.9922
12.6212
-380.806
-90.5075
-33.9281
10.7618
-474.946
-108.384
-46.316
6.93025
-191.039
-39.2501
-11.0346
-0.206303
-465.576
-105.644
-45.0522
7.40394
-189.466
-38.7005
-11.5319
-0.725369
-437.6
-97.967
-46.4746
6.34212
-176.312
-35.3591
-10.7564
-0.632963
-389.581
-87.0902
-49.8055
3.78478
-159.847
-31.716
-12.8431
-1.43366
-334.414
-73.4693
-42.9982
2.04926
-118.474
-22.6384
-13.4531
-1.76433
-215.413
-42.2921
-9.5361
8.65222
-69.4024
-8.63739
-1.22768
2.61849
-281.349
-59.2799
-23.885
5.8658
-83.9699
-13.4454
-7.06558
0.426565
-127.823
-20.0281
-0.0729294
8.83455
-40.8345
-0.696358
4.20885
4.18847
-23.7006
6.38112
5.95155
6.32817
2.58174
11.1565
7.18893
4.62544
1.41039
0.29889
0.0796888
0.0276851
0.0134082
0.497452
0.132471
0.039771
0.0146001
0.00722925
1.41237
0.402487
0.133415
0.0514919
0.0257317
0.632502
0.275845
0.106115
0.0431554
0.0218563
1.87176
0.598581
0.212102
0.0837254
0.0418282
2.50983
0.901793
0.349663
0.142705
0.0718084
3.41143
1.19231
0.455509
0.18241
0.0901629
4.05501
1.60016
0.629034
0.25129
0.122869
3.03007
0.889515
0.317689
0.124979
0.0617105
2.63595
0.805793
0.290295
0.11393
0.0559517
2.38494
0.6836
0.241915
0.0958886
0.0479087
2.16515
0.672371
0.255298
0.103582
0.0518561
3.40446
1.09241
0.398437
0.156083
0.0762834
2.61108
0.935941
0.35388
0.140259
0.0688082
3.29305
1.31056
0.513838
0.204818
0.100004
2.64831
1.07709
0.42402
0.169146
0.0826344
1.83036
0.290238
0.0660331
0.0214485
0.0102031
0.91307
0.121862
0.0252926
0.00801433
0.00384387
1.79387
0.33569
0.0946557
0.0349776
0.0174639
0.892946
0.135171
0.0348086
0.0126943
0.00641196
1.71982
0.405257
0.131952
0.0512934
0.025774
0.754542
0.186306
0.0677097
0.0281402
0.0146529
1.79703
0.5365
0.201072
0.0826858
0.0421882
0.94186
0.290963
0.115505
0.0487864
0.0252236
1.46612
0.564387
0.234856
0.0999308
0.0514544
-3209.29
-6780.74
-3394.26
-6844.96
-3841.31
-6954.15
-4288.72
-7144.87
-4121.06
-7112.53
-1646.28
-2618.19
-2661.39
-4329.16
-916.395
-1345.93
-367.954
-497.326
-20886.9
-5987.8
-2109.65
-1058.4
-743.457
-5779.04
-1897.51
-742.162
-365.704
-244.208
-20478.9
-5851.67
-2069.68
-1039.33
-733.146
-5888.87
-2066.64
-759.868
-376.257
-257.37
-19281.1
-5516.88
-1959.84
-988.481
-698.552
-5693.7
-1987.74
-730.542
-361.852
-248.073
-17401.5
-4990.51
-1786.52
-906.983
-642.445
-5439.76
-1870.96
-683.245
-337.234
-230.2
-14465.3
-4171.85
-1511.12
-774.374
-550.576
-5024.12
-1701.93
-620.743
-306.915
-209.561
-6945.97
-2115.69
-789.589
-410.935
-293.306
-2451.57
-838.788
-305.749
-151.477
-104.095
-10270.1
-3067.73
-1129.18
-583.028
-415.424
-3588.72
-1223.06
-450.021
-224.735
-154.759
-4100.24
-1264.05
-476.177
-249.457
-178.358
-1396.27
-489.429
-177.206
-87.7874
-60.7367
-1418.81
-435.009
-164.351
-86.3683
-61.8359
-546.548
-172.821
-58.579
-30.5239
-19.3698
-1784.75
-3291.34
-9573.6
-1318.84
-9895.14
-4422.17
-9598.09
-4652.06
-17875.6
-9575.17
-19898.8
-10454.1
-10.2224
-31.6969
-51.0515
-61.708
-43.8206
55.3464
-19.7746
-61.7644
-101.877
-128.182
-111.655
-0.795899
-7.1277
-6.60346
-21.3973
-20.4625
-30.9227
-32.0797
-25.0118
-32.0299
-8.47161
-30.3077
36.8668
-7.73718
347.036
828.089
1502.57
1077.96
928.765
337.246
266.082
727.327
1301.65
1627.84
1378.71
544.558
-9.04837
-7.47074
-5.51935
-3.36708
-1.12955
-28.0627
-23.1777
-17.1314
-10.4558
-3.50861
-45.1343
-37.2144
-27.4591
-16.7365
-5.61226
-54.494
-44.8714
-33.0643
-20.1317
-6.74709
-38.9714
-32.3556
-24.0327
-14.7204
-4.94878
46.3836
35.8495
24.7782
14.3539
4.68702
-17.4414
-14.3371
-10.5439
-6.40862
-2.14556
-54.4533
-44.743
-32.8954
-19.9917
-6.69302
-89.5621
-73.3413
-53.7385
-32.5731
-10.89
-112.231
-91.4689
-66.7077
-40.2901
-13.445
-97.3903
-79.0324
-57.4042
-34.5685
-11.519
-1.52285
-2.01942
-2.01671
-1.4613
-0.528782
-6.32768
-5.24365
-3.88899
-2.37999
-0.799805
-5.87216
-4.87631
-3.62449
-2.22213
-0.747523
-18.9983
-15.7467
-11.6818
-7.15105
-2.4036
-18.1852
-15.0898
-11.2075
-6.86712
-2.30941
-27.437
-22.7218
-16.8413
-10.302
-3.46143
-28.4476
-23.5415
-17.4348
-10.6579
-3.57968
-22.3093
-18.5901
-13.8631
-8.51983
-2.8697
-28.365
-23.4326
-17.3215
-10.5717
-3.54747
-8.05511
-7.18789
-5.69672
-3.65324
-1.25646
-26.8175
-22.1249
-16.326
-9.94672
-3.33394
30.7027
23.5436
16.1389
9.28856
3.02317
-7.29978
-6.43484
-5.02417
-3.17791
-1.08361
294.152
231.087
162.817
95.9386
31.6498
692.369
536.966
374.704
219.777
72.527
1225.93
931.255
640.992
374.354
124.241
864.37
649.173
445.703
261.061
86.8593
770.47
581.828
397.246
229.56
72.0447
294.901
227.722
157.679
91.4555
27.6592
225.485
177.093
124.745
73.4926
24.2406
610.599
475.258
332.511
195.241
64.389
1077.95
828.504
574.395
335.905
110.869
1330.07
1010.39
695.221
405.515
134.086
1124.89
851.38
583.728
339.623
111.758
447.07
340.01
234.289
136.878
45.0183
11.5936
33.4308
53.5705
65.6366
50.2642
-43.4296
22.001
64.4653
105.375
132.446
116.369
6.27905
8.08642
7.37322
22.6588
21.5853
32.7844
33.8926
27.7916
34.5134
14.0359
30.1389
-20.5172
14.0271
-326.155
-795.342
-1449.58
-1032.87
-909.393
-336.594
-258.026
-714.556
-1280.51
-1604.24
-1361.62
-534.15
10.2991
8.54283
6.34347
3.88656
1.30705
29.6443
24.5334
18.1735
11.1126
3.73309
47.4303
39.1804
28.9686
17.687
5.93687
58.0657
47.9196
35.3965
21.596
7.24632
44.7993
37.2967
27.787
17.064
5.7451
-35.7287
-26.9399
-18.1058
-10.2376
-3.29766
19.4772
16.0877
11.8936
7.26145
2.43734
56.9275
46.8748
34.5424
21.0339
7.04995
92.7738
76.1159
55.8874
33.9354
11.357
116.155
94.8655
69.3433
41.9629
14.0188
101.718
82.7667
60.292
36.3962
12.1448
6.46333
6.18705
5.16668
3.41913
1.19244
7.2006
5.99023
4.46162
2.74031
0.922801
6.57232
5.47445
4.08273
2.5102
0.845809
20.1461
16.7278
12.4338
7.62391
2.56498
19.2061
15.9615
11.8749
7.28651
2.45248
29.1276
24.163
17.9428
10.9931
3.69701
30.0934
24.9442
18.5068
11.3304
3.80888
24.8184
20.7136
15.474
9.52437
3.21091
30.6129
25.3416
18.7748
11.4806
3.85663
13.0522
11.3914
8.86516
5.6185
1.92173
26.7798
22.2101
16.4802
10.0866
3.3893
-16.1502
-11.4383
-7.12133
-3.74836
-1.15709
12.9617
11.2085
8.62955
5.41756
1.8427
-275.738
-215.943
-151.67
-89.1605
-29.3812
-663.706
-513.575
-357.62
-209.458
-69.0909
-1178.98
-892.326
-612.092
-356.686
-118.328
-818.935
-606.837
-411.005
-238.215
-78.8032
-743.766
-551.883
-369.489
-209.703
-64.6357
-283.281
-208.707
-136.859
-75.2496
-21.3928
-218.438
-171.354
-120.564
-70.9723
-23.4016
-599.546
-466.371
-326.122
-191.435
-63.1314
-1059.16
-812.889
-562.774
-328.78
-108.475
-1307.4
-989.961
-678.849
-394.891
-130.392
-1105.48
-831.398
-566.032
-327.335
-107.315
-431.894
-321.959
-216.861
-124.168
-40.3189
-1738.09
-959.173
-331.406
-4.81138
76.9842
99.154
-68.8806
-11097.6
-3012.93
-3460.79
-1674.7
-291.395
-2497.55
-10.8413
693.72
187.067
-6086.46
-2901.56
-1095.85
-788.889
-2252.02
-1201.71
-433.418
-726.072
367.85
71.772
-555.079
-453.08
-7150.32
-2825.95
-4125.34
-1817.58
-2203.06
-3517.26
-884.79
67.5694
-719.833
-966.823
-599.605
-395.367
-273.921
-165.568
-634.479
-417.195
-261.813
-150.798
-56.5721
-274.966
-211.108
-145.772
-84.8145
-27.8797
-2.62752
-0.562032
0.752137
1.00142
0.435653
68.6943
57.1161
42.3699
25.8693
8.67089
88.0885
72.9117
53.8901
32.8323
10.9954
-55.2249
-40.6073
-26.815
-15.0894
-4.88918
-6897.73
-4873.47
-3298.27
-2263.62
-1555.61
-1969.01
-1229.09
-845.164
-547.484
-251.119
-2334.19
-1569.76
-1046.14
-639.233
-270.209
-1074.33
-658.117
-442.9
-273.601
-99.7848
-228.409
-167.153
-112.525
-66.0305
-22.7835
-1902.07
-1378.95
-917.515
-534.701
-188.305
4.93886
12.5623
12.4429
7.74014
2.11177
564.911
427.048
291.301
167.843
54.7039
165.687
134.887
97.2411
57.7869
18.9748
-3708.89
-2670.42
-1824.19
-1265.21
-866.692
-1958.6
-1312.96
-875.757
-529.761
-214.083
-860.135
-632.67
-427.47
-250.866
-86.8457
-622.972
-459.854
-310.516
-180.857
-61.3801
-1741.52
-1270.11
-853.01
-497.427
-172.073
-961.228
-715.32
-484.618
-281.425
-93.6794
-346.093
-257.322
-174.062
-100.811
-33.596
-595.067
-452.303
-310.625
-180.794
-59.7572
315.992
251.53
179.011
105.937
34.8832
68.2965
59.8557
45.9037
28.3756
9.47516
-446.106
-333.356
-226.43
-131.54
-43.9126
-366.888
-275.596
-187.578
-108.802
-36.0938
-4040.8
-2447.5
-1659.1
-1123.13
-708.528
-1913.92
-1286.09
-832.491
-491.817
-187.796
-2601.42
-1774.84
-1151.98
-701.628
-279.333
-1279.35
-890.913
-580.69
-341.768
-127.753
-1713.79
-1253.1
-842.33
-490.218
-166.565
-2409.9
-1575.19
-1036.42
-616.522
-223.404
-718.552
-541.717
-369.879
-214.806
-71.1409
64.414
56.6956
43.7417
27.2149
9.14093
-571.933
-422.889
-285.065
-165.201
-55.264
-15.3676
-42.6009
-76.7289
-129.718
-214.295
-339.083
-32538.4
-28886.4
-26329.4
-29940.1
-24036.3
-19035.2
-20683
-15590.9
-29859.4
-27391.7
-27582.7
-26955.3
-24364
-20835.1
-26091.1
-27414.4
-24635.4
-21609.8
-24302.8
-20778.5
-17441
-17657.7
-13975.8
-27378.7
-25672.6
-25299.5
-24183.4
-22003.6
-20209.3
-22067.3
-22092.5
-20303.6
-17354.4
-19003
-17622.8
-15086.9
-14852.6
-12439.3
-23375.2
-22801.5
-21762.6
-21301.9
-18966.2
-17300
-19186.9
-15892.3
-14943.9
-12401
-13221.4
-13358.8
-11876.1
-11091.3
-9767.24
-17558.1
-18318.6
-16535.2
-17288
-14761.9
-13303.4
-15371.8
-10315
-9832.08
-8001.77
-8412.43
-8982.59
-8053.11
-7323.15
-6547.73
-11719.2
-12130.1
-11135.4
-11439.5
-10119.7
-9109.61
-10322.7
-3732.11
-3583.37
-2892.16
-3019.83
-3316.52
-3037.01
-2680.04
-2427.22
-4337.44
-4543.62
-4096.28
-4147.35
-3774.49
-3429.43
-3840.83
-11145
-10823
-17344.3
-18788.9
-10157.1
-8839.71
-15044.6
-11980.2
-7551.7
-4893.68
-7533.51
-5058.35
-7437.71
-7207.45
-5367.65
-10952.5
-10307.1
-15526.5
-16985.7
-9431.05
-8335.65
-13363.6
-11135.3
-7497.51
-4081.93
-7371.76
-4383.77
-6681.93
-6505.5
-4904.17
-9748.17
-9182.39
-13091.4
-14132.8
-8440.87
-7590.15
-11517.2
-9824.57
-6076.89
-3782.73
-6009.65
-4117.79
-5467.26
-5480.9
-4472.38
-7526.39
-7134.28
-9667.09
-10262.7
-6604.06
-5959.69
-8742.47
-7667.59
-5156.2
-3015.11
-5043.12
-3286.63
-4603.25
-4565.09
-3558.7
-4977.75
-4745.3
-6281.73
-6600.38
-4348.09
-3877.31
-5776.49
-5106.67
-3395.28
-2041.63
-3321.22
-2230.12
-3046.36
-2988.65
-2357.06
-1808.57
-1728.48
-2271.07
-2374.27
-1584.07
-1410.33
-2105.73
-1877.01
-1150.29
-732.041
-1172.84
-807.899
-1105.32
-1076.43
-841.421
10642.8
34096.3
8592.71
35515.8
6257.7
35970.5
9414.09
52921.5
11464
72075
11663.4
54029.8
11521.5
45699.8
12039.5
40511.9
7204.86
4645.22
19520.3
11715.1
6821.47
3613.95
20285.9
9882.16
8436.17
6598.8
26453.8
19938.6
6389.45
5101.94
26437.9
20511.6
15145.2
6518.16
13121.9
5994.31
6488.57
14703.2
48204.4
12716.1
17370.6
5325.97
59440.6
15650.5
15362.2
4646.55
36009.4
10970.1
18393.1
6115.13
32672.3
10222.9
12118.9
6004.79
15280.2
6190.65
13229.1
7099.83
15044.5
6033.28
15881.2
9277.73
12788.4
5868.32
17982.7
6746.49
6060.4
2204.45
18790.5
13071.6
11146.3
7943.92
18017
14364.7
9645.85
7772.23
11790.1
8210.48
17746
12303.6
6971.3
4917.18
3039.29
2426.67
5871.22
4716.95
2463.41
2365.8
7483.63
4961.39
3436.37
2172.44
11440.1
6608.33
9142.4
11423
16394.1
12190.5
13787.1
19741.8
7221.29
3666.81
5159.03
6409.12
3295.65
1488.79
1997.3
2256.77
17284.3
30302.1
11457.7
33876.1
19729.4
29138.8
13913.6
34897.6
21523.4
25602.6
17376.3
33212.6
19185.9
19174.9
17470.1
17830.5
19673.1
18589.3
20918.3
24042.3
27071.9
39906.1
15446
14539.3
14636
17575.6
27772.2
34790.9
30132.9
40221.1
37403
31484.7
28211.5
39246.8
36253.1
26641.8
25226.5
36199.7
34421
13451.6
10409.5
15833.7
13844.9
19468.1
17932.4
23080.1
22285.9
32459
32599
12362.2
10895
14399.4
14832.9
17004.7
19014.4
20767.5
23858.4
28027
32153.3
11495.3
8477.75
7307.42
8216.11
12900.3
13763.2
8390.98
11899.4
7317.54
8296.55
11609.7
9041.42
1950.6
5132.12
496.865
1505.56
3960.93
7590.76
1008.29
2284.2
1568.96
5009.5
331.79
1455.84
8062.28
7266.59
9943.65
5927.1
13291.2
10157
16562.1
11052.7
2500.82
3816.36
4932.14
2665.18
2126.92
2465.72
3062.8
2144.88
23402.9
13793.9
4364.44
26388.8
14753.7
4741.18
22272.4
13498.7
4540.77
25610.8
14589.4
4686.07
20053.1
12175.5
3943.18
24499.4
14334.4
4657.94
7243.73
4309.5
1329.02
11156.7
7192.9
2386.47
15000.9
9780.24
3266.28
18706.3
11717.6
3805.77
23892.9
14396
4804.12
8179.3
4948.38
1719.37
11424.6
8007.02
2978.75
15019.5
10528.4
3812.94
19177.7
12880.4
4518.6
24212
14729
5096.65
293.898
1992.09
2869.57
4081.45
2802.34
2897.34
6794.52
6125.73
531.227
743.842
565.151
769.672
354.924
1053.99
696.902
1407.33
2590.82
1308.51
3484.33
2073.2
1658.43
2767.01
3311.81
-74.7429
7310.31
1014.09
-3017.36
-805.802
1023.63
114.906
120.709
-431.512
7050.6
2585.54
1850.47
940.007
7199.51
2651.56
2347.8
1160.59
7248.45
2809.59
3241.81
1737.74
2024.49
1083.43
161.609
255.327
12456.9
10358.3
5596.51
5362.94
15421.4
13649.5
7411.42
6866.29
4172.36
3988.26
9318.3
7113.85
2937.75
2965.64
1060.19
1473.43
4200.6
3911.37
1714.48
1958.14
2009.04
2214.21
568.985
1157.28
3083.68
1556.81
2830.57
1414.33
5233.52
2189.55
4492.06
2082.4
1450.29
940.039
1602.29
793.728
305.224
321.028
823.187
336.461
7840.56
4262.41
3107.13
2523.59
7915.83
4568.5
3094.86
2528.34
8613.47
5234.11
3153.71
2555.39
13536.1
16856
10623.4
5932.57
2375.02
15361.3
12166.5
9593.69
6581.07
2941.77
14420.7
11187.6
7615.6
4803.37
2075.34
2634.48
1713.98
1982.92
1650.79
3003.57
1901.83
2109.45
1740.3
3682.65
2356.23
2324.19
1915.34
11088.7
7507.07
8687.6
5526.43
5687.95
3974.49
4274.46
3004.14
2312.24
2070.42
9297.28
7632.99
6973.15
5509.8
4938.89
3905.58
3396.46
2792.5
1752.41
1943.34
6263.16
4006.07
3936.18
2375.92
9474.87
6777.92
6209.12
4807.31
2663.99
1555.27
4080.62
2716.16
3548.78
1642.12
917.546
458.993
4353.23
3053.86
1082.08
883.501
2595.14
1088.75
718.75
313.53
1637.42
1263.67
907.372
1129.89
2452.14
1890.42
1207.31
1439.43
1637.38
859.862
644.082
757.67
299.756
106.973
-192.922
7.83754
997.673
405.82
114.616
967.023
272.211
71.4669
1145.57
490.43
144.956
1038.16
307.08
83.965
1366.17
617.286
169.833
1152.94
357.237
91.0326
4707.68
2587.19
742.227
3223.65
1636.58
469.088
2356.75
1143.34
334.712
1725.62
785.61
206.381
1268.1
392.743
85.0622
5484.17
2901.06
908.966
3806.96
1865.68
557.028
2677.29
1275.37
375.802
1884.34
823.964
225.983
1387.4
388.354
99.6703
769.986
215.886
50.4046
1.96864
315.921
90.8609
23.2406
3.23382
796.202
226.864
57.1668
7.21957
375.857
111.617
39.8752
13.8766
824.277
237.996
71.6031
18.0977
562.078
175.228
40.4819
6.15623
307.557
110.316
6.86413
-9.79644
149.923
72.2963
19.6756
6.00792
583.178
182.136
37.7077
-7.98255
448.369
136.459
43.755
-2.07093
759.197
222.448
62.3189
7.12692
623.928
180.155
58.1557
-3.90212
378.891
128.83
29.2988
-2.45553
285.4
93.5679
33.7358
3.98711
171.268
69.6444
22.9511
8.29292
126.315
49.5122
21.7101
8.10036
937.449
262.322
62.951
-2.22483
838.426
235.483
77.4217
-1.91197
924.318
259.205
63.1
-2.32523
813.504
227.041
76.5066
-2.3302
891.726
250.229
73.046
5.75609
769.504
212.284
80.3311
2.67043
745.282
213.722
76.2474
20.6602
835.13
228.63
99.3303
5.40446
623.944
177.465
67.718
8.22321
587.088
158.129
61.0814
3.90515
217.523
55.9679
18.0527
3.97644
617.608
165.878
62.8304
4.32933
231.398
59.5109
19.7935
5.01968
652.075
174.293
67.7319
6.04203
246.812
63.5089
21.5229
6.03944
602.123
161.057
70.1453
7.928
248.881
64.1013
24.8866
7.62209
547.57
150.138
66.4546
9.97024
226.124
62.2697
27.835
9.11159
325.767
91.9612