/*--------------------------------*- C++ -*----------------------------------*\
| =========                 |                                                 |
| \\      /  F ield         | OpenFOAM: The Open Source CFD Toolbox           |
|  \\    /   O peration     | Version:  v2106                                 |
|   \\  /    A nd           | Website:  www.openfoam.com                      |
|    \\/     M anipulation  |                                                 |
\*---------------------------------------------------------------------------*/
FoamFile
{
    version     2.0;
    format      ascii;
    arch        "LSB;label=32;scalar=64";
    class       volScalarField;
    location    "0.5";
    object      gradTx;
}
// * * * * * * * * * * * * * * * * * * * * * * * * * * * * * * * * * * * * * //

dimensions      [0 -1 0 1 0 0 0];

internalField   nonuniform List<scalar> 
5712
(
-9427.93
-12118.5
-21697
-32372.8
-33195.5
-57090.7
-24821.2
-62599.6
-19752.4
-43301.3
-29541.5
-45383.2
-26061.7
-35054.8
-11621.8
-13541.1
-22380.4
-25527.6
-28169
-28085.4
-21339.9
-25446
-31135.5
-27679
-8124.44
-6528.37
-10090.1
-7200.94
-19113.7
-16089.8
-32167
-24383.2
-24683.4
-25753.8
-28801.1
-28358.7
-11139.5
-8374.8
-56121.5
-75014.8
-37117.4
-45354.3
-72306.4
-94121
-37978.5
-43597.6
-43222.6
-60961.9
-38875.3
-50944.8
-23437.2
-37048.3
-4837.68
-1681.33
-5060.1
-1872.73
-14498.9
-6033.93
-19565
-7433.41
-14710.2
-5698.18
-14894.3
-4972.09
-24804.2
-8187.44
-31969.4
-11153.2
-32802.1
-17141.1
-30747.3
-18328.8
-28760.8
-18490.6
-26072
-18611.8
-26231
-16333.7
-26131.1
-14448.7
-32236.1
-20047.9
-32581.1
-20172.4
-28047.2
-19566.5
-28570.5
-19528.5
-28431.4
-18375.5
-29530.7
-18806.5
-27767.9
-13058.8
-14644.8
-19103.1
-27512.7
-14339.1
-13032.3
-19440.5
-29552
-12897.2
-16278
-19183.9
-31156.3
-13183.5
-17493.3
-19909
-6152.41
-6678.03
-2167.06
-4543.21
-17544.5
-18372.7
-7336.41
-13789.9
-22173.6
-23675.8
-12247.5
-21092.3
-12126.2
628.884
-17165.9
-24417.4
-15285.5
1310.61
-5669.08
-15629.3
-27715.8
-24052.1
-12270.1
-16594.1
-16854.2
-16697.2
-27518
-5324.98
-3890.05
-3222.39
-2960.57
-14526.9
-10754
-9813.5
-8652.91
-17422.7
-12558.6
-13033.8
-10716.2
-4597.35
-5951.23
-10714.6
-10983.3
-16977.7
-14339.8
-20507.8
-16001.6
-17491.3
-13802.5
-9371.13
-8022.89
-13481.6
-8225.5
-14208
-8049.29
-14289.9
-7861.66
-19197.5
-11007.5
-11900.1
-3305.27
-11101.9
-9272.49
-12972.8
-13953.9
-14510.1
-17962.2
-10518.5
-8644.5
-12088.3
-1741.84
-10188.3
-15141.1
-9786.43
-16424.7
-14442.5
-22423
-14622.5
-24067.9
-9483.45
-14731.2
-8980.15
-15868.5
-13951.7
-8240.04
-20504.9
-7149.87
-13242.5
-962.396
-17853.5
-396.793
-13714.1
-12317.9
-21373.2
-8895.42
-12072.7
-14480.8
-19592.8
-11367.1
-2580.88
-1895.32
-1280
-1969.67
-1501.95
-1070.4
-7258.81
-4446.24
-2851.92
-5343.27
-3162.82
-2035.8
-7756.16
-4920.62
-3712.8
-6352.59
-3661.49
-2732.12
-4218.04
-2564.12
-2058.2
-8318.96
-4251.48
-2724.82
-9519.27
-4808.84
-2808.94
-10229.2
-5688.78
-3835.71
-8738.45
-4151.41
-2392.89
-11247.3
-7063.58
-4507.81
-8685.05
-5309.47
-3033.13
-9389.12
-5264.82
-2755.33
-9369.38
-4941.49
-2449.88
-11759.3
-5244.27
-2001.25
-12048.7
-15575.2
-10078.7
-12450.4
-14783.4
-20397.4
-13871
-18851.6
50.8601
-591.546
509.897
-184.335
-2955.27
-2952.74
-1453.65
-850.905
-1430.78
-2970.71
-10032.7
-13763.4
-5984.47
-3844.03
-12004.8
-12131.1
-20127.5
-22335.9
120.929
3963.37
-8415.45
-7881.71
-7028.89
-5327.31
-962.039
-491.349
-782.447
-410.485
-2101.1
-299.009
-282.502
274.823
-8632.48
-1908.98
-6374.93
-1646.99
-8679.24
-2417.02
-10272.4
-2827.27
-10674.3
-11894.6
-9807.5
-11612.6
-17813.4
-16825.3
-17046.7
-15939.5
-6129.24
-8143.31
-7033.89
-8078.05
-10292.4
-11240.2
-11114.4
-11208.1
-17866.9
-15711
-18633.5
-15634.2
-6109.24
-7886.43
-6440.33
-7880.79
-28.3443
-657.918
-5196.25
-2198.23
230.445
-413.826
-4781.42
-1917.34
-321.72
-826.397
-5276.38
-2381.98
-525.034
-910.82
-5189.44
-2389.99
380.542
432.27
-151.822
5.76943
1779.12
1652.98
67.5841
267.736
130.072
972.665
-976.328
-422.469
8070.8
9314.53
3785.76
2652.69
374.982
10064.9
8666.32
2751.91
3747.37
656.469
-10928.4
-7864.13
-5868.16
-4439.37
-1830.57
335.142
236.983
46.1328
39.0072
1139.66
840.841
171.374
129.49
1166.73
1125.23
-122.386
-66.5187
3992.52
1083.37
5457.91
2536.99
1826.77
967.269
1948.28
1293.62
61.8146
-160.081
-4116.88
-2301.67
-1659.68
126.284
-1112.52
118.599
-957.091
-111.713
-511.635
-396.685
-4781.23
-3603.47
-8450.59
-4630.63
-8055.25
-6654.48
-11803.9
-8365.42
-5610.63
-2917.39
-2967.53
-2357.71
-9786.48
-4124.03
-10563.9
-4533.35
-13012.6
-8621.69
-13711.1
-9263.73
-6725.78
-2481.15
-7365.95
-2793.41
-3377.75
-2069.97
-1447.81
-1797.76
-2115.6
-1812.35
-1195.57
-1644.42
-3874.97
-2003.71
-1607.51
-2057.73
-4682.31
-2141.04
-2230.85
-2084.6
157.775
120.929
117.85
16.8544
41.2745
40.2629
592.906
467.076
398.443
68.1831
123.162
108.719
870.73
696.34
580.566
-81.6896
126.516
144.022
238.036
221.652
46.5599
1104.9
969.908
758.933
727.571
696.353
599.912
920.608
755.432
622.036
-257.59
42.2057
64.6442
-2870.4
-1418.94
-696.799
-146.259
268.282
415.518
-49.2583
335.633
438.22
-53.6789
275.024
330.79
-499.342
46.4202
101.556
-9.07856
-1.68734
0.362444
2.27067
75.4622
25.6878
14.2097
8.18257
-46.1572
-11.3198
11.8324
14.2453
96.1271
34.7864
36.6614
23.6946
-163.662
-39.3228
16.9918
28.7318
-62.7843
-4.91684
15.7856
14.919
-91.467
-12.2451
-1.84341
0.944653
-154.884
-35.1265
3.25719
8.85424
-470.811
-119.082
-29.1518
0.651748
-593.071
-144.874
-46.4381
9.94338
-331.695
-78.0965
-8.3062
17.9286
-486.873
-115.512
-45.6297
4.95769
-494.098
-126.495
-19.5648
10.2291
-656.82
-164.278
-49.4162
14.366
-512.164
-135.667
-16.4193
16.2443
-689.105
-176.442
-53.1909
14.203
-6.91473
-2.20202
0.935085
3.53774
12.5503
4.02968
-0.535174
2.91212
4.82434
0.690725
8.37954
12.0885
58.1086
17.8716
1.92705
8.81746
-192.26
-51.6933
-4.21382
16.1181
-86.9673
-19.6418
-7.0287
13.9751
-69.4232
-6.33892
10.79
20.7742
-18.9209
2.77269
-7.40992
13.4311
-412.196
-95.5867
-37.9999
15.6348
25.8126
8.75404
2.72365
3.24653
47.9025
15.4099
4.85733
2.20001
52.7702
19.2343
3.17028
7.15064
125.983
40.9871
11.449
5.3028
26.2311
15.9283
1.03915
10.576
168.216
56.9304
16.3264
7.76142
-41.6064
5.79568
-1.27557
14.5497
144.877
58.668
17.1707
8.73006
-197.181
-26.3785
-20.0365
8.79192
58.2907
44.4915
11.1493
7.16905
-443.352
-81.7885
-34.0266
7.00519
-136.976
-11.2001
-2.85627
2.60145
-338.714
-52.6824
-28.972
6.20248
-67.2994
12.8813
3.91894
5.02946
-521.177
-106.254
-39.5206
7.37048
-186.216
-28.7464
-6.78445
1.25517
-566.305
-123.365
-44.1852
5.75485
-219.234
-41.4269
-10.1875
0.0608915
1.23088
0.402146
0.13275
0.0462696
0.0203698
1.83218
0.603197
0.205892
0.0735703
0.0329572
2.93113
0.904851
0.297128
0.103858
0.0459018
3.70899
1.25118
0.435268
0.157551
0.0712961
3.76846
1.10295
0.359553
0.125956
0.0558923
4.55323
1.5857
0.557419
0.203234
0.0924982
1.96376
0.7278
0.26203
0.0973854
0.0450727
1.38344
0.417162
0.139746
0.0507398
0.0233671
3.145
1.03051
0.348125
0.124641
0.0563138
1.37559
0.412379
0.135109
0.0479642
0.0216836
3.96701
1.26545
0.430405
0.154491
0.0696955
1.48087
0.44201
0.144686
0.0509864
0.0228129
2.17884
0.6306
0.204709
0.072609
0.0328918
1.27229
0.344142
0.11093
0.0395614
0.0180507
1.95618
0.422419
0.115614
0.0377514
0.0164779
1.04369
0.19941
0.0508948
0.0161217
0.00696195
1.04183
0.323436
0.103935
0.0355506
0.0154365
0.903209
0.281043
0.0903905
0.0308344
0.0133502
2.73856
0.808106
0.258875
0.0890669
0.0389445
2.45108
0.730414
0.233767
0.0800743
0.034862
3.48361
0.957116
0.301583
0.103665
0.0454804
3.30949
0.970935
0.313913
0.108858
0.0478391
3.47711
1.05393
0.352324
0.125159
0.055995
2.38055
0.722679
0.238955
0.0840357
0.0372495
1.73873
0.55678
0.190359
0.0683104
0.0307345
-60.3379
-346.477
63.7451
-805.535
503.285
-956.079
1398.17
-589.571
2121.55
711.829
-545.894
-1668.22
1355.04
983.919
-1346.34
-2770.59
-1856.38
-3175.5
-1405.58
-406.393
-145.252
-73.9752
-52.4834
-369.408
-224.194
-54.7023
-30.1789
-21.6195
-4332.26
-1246.67
-447.514
-227.996
-162.029
-888.951
-352.711
-147.021
-76.6294
-54.7639
-7283.42
-2106.31
-761.166
-389.656
-277.086
-1540.52
-622.226
-252.378
-133.496
-93.4277
-9794.68
-2854.9
-1042.92
-537.869
-383.587
-1961.49
-823.88
-338.722
-179.73
-125.927
-12320.1
-3644.11
-1350.49
-703.652
-504.696
-2391.4
-1049.65
-437.315
-234.286
-165.802
-14809.2
-4563.07
-1734.67
-917.231
-661.946
-3786.31
-1466.49
-586.308
-310.176
-219.656
-13712.5
-4181.36
-1571.79
-824.74
-593.533
-2958.3
-1244.42
-509.616
-271.329
-192.212
-15329.6
-4752.66
-1818.3
-965.437
-697.491
-4257.36
-1595.36
-629.234
-331.253
-234.833
-15995.3
-4933.61
-1893.36
-1006.69
-727.555
-4433.39
-1662.74
-657.859
-337.782
-242.65
-1095.21
-9776.3
-8867.19
-3118.29
1819.37
3083.12
8251.12
12427.2
1133.07
8875.73
-3838.33
1176.08
1889.27
5062.44
10654.5
15738.7
16173.5
20810.2
6622.66
8721.37
-16771
-11016.2
-1401.66
-731.927
-488.161
-601.24
-791.171
-9543.59
-6867.69
-6138.02
-5142.29
-3192.71
-2388.01
-3797.12
-1764.09
-1468.17
-1553.11
-1042.55
-15649.6
-6214.96
-1297.5
-2441.79
-4351.12
-2586.43
-2440.6
-1589.38
-711.727
-948.96
-1331.59
-1483.71
-16189.9
-9336.18
-8631.84
-5499.79
-4531.17
-5668.49
-1441.4
-1440.03
-2625.98
-10312.3
-7516.9
-5063.56
-3475.88
-2146.65
-6523.32
-4038.47
-2633.3
-1599.21
-649.682
-1166.83
-900.654
-625.687
-365.837
-120.652
-624.478
-494.222
-350.547
-207.487
-68.5843
-415.159
-326.997
-230.588
-135.739
-44.7067
-517.388
-413.054
-295.065
-175.366
-58.0262
-669.345
-524.497
-368.419
-216.473
-71.2955
-5360.92
-3451.49
-2178.76
-1481.52
-1122.3
-3236.98
-1981.53
-1122.21
-714.044
-400.624
-3600.41
-2068.52
-1267.54
-732.282
-294.146
-2398.55
-1403.09
-785.911
-448.274
-205.336
-1377.35
-767.38
-411.757
-222.841
-87.3215
-1761.27
-1211.42
-764.106
-420.081
-136.748
-2458.53
-1519.62
-921.723
-503.048
-170.631
-1093.68
-635.943
-362.509
-185.469
-58.9859
-1137.29
-815.016
-529.644
-295.361
-95.5033
-1163.51
-807.176
-508.874
-276.85
-88.2118
-820.062
-595.627
-390.657
-218.514
-70.3698
-9148.99
-5958.58
-3915.16
-2594.01
-1747.47
-4158.67
-2727.71
-1750.06
-1015
-390.323
-1009.32
-728.692
-478.364
-269.969
-88.6214
-1924.96
-1411.63
-941.659
-539.016
-179.121
-3287.74
-2341.64
-1538.09
-882.502
-304.649
-2045.03
-1506.56
-1010.91
-582.191
-194.297
-1965.21
-1471.69
-999.62
-578.753
-192.131
-1298.99
-983.662
-672.098
-388.893
-127.998
-581.723
-438.895
-297.56
-170.355
-55.4311
-794.487
-615.381
-427.572
-249.247
-81.8061
-1066.1
-789.256
-527.678
-300.214
-97.9548
-1208.92
-912.01
-620.543
-357.697
-117.459
-9834.84
-6886.8
-4641.99
-3077.35
-1897.35
-5873.73
-3779.41
-2471.89
-1486.99
-612.097
-5704.38
-3989.02
-2557.2
-1521.22
-608.173
-3949.69
-2694.78
-1767.69
-1031.96
-372.218
-3474.7
-2511.25
-1669.38
-965.478
-332.068
-4038.48
-2743.87
-1791.27
-1041.32
-370.828
-1149.34
-850.659
-571.314
-328.134
-108.599
-1202.47
-929.405
-645.196
-376.344
-123.698
-2111.31
-1575.72
-1065.77
-614.541
-203.199
-8370.62
-17186.9
-17484
-48759.3
-16447.2
-62130.5
-9167.24
-22254.6
-16823.2
-13173.1
-28689.6
-23983.1
-15833.2
-14185.4
-30742.7
-23745.4
-6365.88
-4914.55
-12575.6
-9026.9
-14291.7
-11003.9
-38886.5
-29769.5
-22927.2
-16844.5
-24610.9
-14849.3
-1967.14
-6244.76
-59384
-76447
-36079
-45276.9
-75073.4
-95358.3
-36747.6
-43328.3
-45869.7
-62350.6
-37989.3
-51065.1
-26362.5
-38516
-3365.85
-958.826
-5915.01
-2066.7
-11381.2
-5338.11
-22949
-8518.63
-5623.01
-3267.14
-12464.8
-4127.12
-25131.7
-8186.05
-32415.4
-11284
-21779.1
-12264.2
-26540.6
-15888.4
-18025.5
-13223.9
-21820.7
-16099.2
-23258.6
-14367.7
-18092.6
-10646.7
-30686.1
-18969.8
-32216.1
-19882.1
-26367.7
-18453.5
-28123.3
-19227.1
-27452.9
-17496.3
-29331.2
-18568
-26661.2
-12817
-13390.8
-18818.2
-23640.2
-13331.8
-10651.7
-18820.7
-29475.6
-12924
-15722.3
-19071.1
-31238.7
-13226.1
-17350.4
-19883.1
-1987.53
-1947.33
-625.837
-2688.14
-7967.63
-8569.96
-5414.98
-11413.1
-5921.57
-7060
-9081.5
-17288.7
-13565.8
-8826.19
-13243.9
-17796.4
-13712.8
-6222.83
-8089.74
-10516.1
-20069.3
-22043.8
-14398.2
-14364.1
-12374.9
-12339.3
-25955.3
-2154.12
-1541.65
-1414.26
-1511.63
-7438.97
-5509.57
-6921.99
-5954.84
-2872.27
-997.98
-8779.06
-6774.73
-8774.18
-8774.63
-8889.38
-7953.29
-9465.89
-6659.46
-12853.4
-9579.23
-14956.3
-11208.9
-11493.2
-9682.24
-11419.7
-6772.43
-10220.9
-5226.88
-10735.9
-5398.39
-17937.9
-9648.23
-10218.2
-3273.92
-9791.56
-8811.06
-12519.1
-14293.1
-13512.5
-17533
-9259.08
-8216.91
-10148.1
-1600.89
-9474.42
-14787.1
-9566.64
-16304.4
-13777.2
-22037.4
-14404.1
-23913.3
-8833.36
-14465.5
-8785.21
-15781.5
-13176.5
-8024.44
-20363.8
-7156.37
-11897.8
-1110.57
-17676.3
-1065.11
-13332.3
-12173.4
-21312.6
-8860.81
-11948.3
-14434.2
-19572.2
-11362.3
-1351.36
-1209.91
-1183.91
-1299.75
-4057.8
-3031.2
-4161.43
-3748.8
-164.022
-841.763
-4890.15
-4864.14
-7943.19
-6479.04
-7078.16
-5069.29
-5108.07
-3655.09
-7360.82
-5607.98
-9010.78
-6164.38
-13436.3
-9638
-7240.87
-4542.05
-6949.25
-3686.83
-6952.44
-3071.16
-8785.06
-2520.15
-5940.25
-9227.23
-5124.82
-10108.8
-10227.9
-11928.7
-11962.6
-15888.6
-857.496
-455.252
-403.874
-220.278
-3299.23
-1843.67
-2350.31
-725.415
-789.356
-1422.53
-7877.87
-8003.79
-3342
-2761.79
-10543.6
-11632.4
-18490.1
-21808.5
643.093
4135.03
-7103.45
-7377.94
-6215.46
-5046.84
-715.256
-543.917
-691.913
-494.261
-1232.66
-479.857
-138.79
56.737
-6232.61
-2067.4
-5393.49
-1690.39
-7817.98
-2352.35
-9893.14
-2777.6
-5518.61
-9433.75
-7638.36
-10171.3
-9847.55
-12469.6
-13746.6
-13806.6
-4866.43
-7357.1
-4085.68
-7078.63
-9176.85
-10521.8
-10758.3
-10998.4
-16365.9
-14731.1
-18187.5
-15361.4
-5407.24
-7443.93
-6195.73
-7743.22
153.898
-716.043
-4962.25
-2241.76
193.404
-676.89
-4758.71
-2084.46
-132.82
-837.495
-5090.76
-2383.73
-432.113
-907.853
-5124.67
-2387.23
-685.654
-674.421
-522.723
-472
-1360.43
-1256.5
-580.493
-505.4
-5947.93
-5016.74
-1872.54
-1639.83
-2740.95
-3871.06
-2969.51
470.478
-367.642
-160.836
-768.917
-3223.03
1948.44
76.603
-14572
-10797.4
-8014.55
-5493.06
-2306.03
-599.542
-451.811
-448.496
-444.635
-1142.62
-820.927
-587.826
-674.934
-4509.09
-3737.59
-1574.48
-1677.32
-3845.25
-5017.62
-2044.45
-3389.87
-3365.77
-3231.54
-318.496
-593.74
-725.894
-1049.64
-8590.49
-5943.94
-5901.27
-3594.6
-4150.57
-2527.91
-2737.32
-1645.48
-1155.03
-1042.91
-6042.33
-5147.06
-8432.29
-4951.01
-8912.08
-8144.04
-11386.6
-8541.33
-5820.37
-3225.86
-4083.36
-3522.1
-9545.07
-4199.23
-10456.1
-4520.58
-12543.4
-8569.24
-13537.2
-9204.3
-6665.68
-2592.03
-7319.3
-2802.42
-3631.41
-2302.85
-1665.09
-1999.37
-2921.7
-2576.22
-1630
-2090.86
-3923.14
-2107.34
-1694.94
-2153.52
-4678.55
-2160.18
-2250
-2105.75
-304.589
-263.457
-312.387
-259.869
-699.574
-767.461
-458.507
-402.508
-3178.12
-2657.38
-1037.32
-496.636
-5338.56
-4318.37
-3807.7
-2861.87
-2745.24
-2102.63
-808.126
-772.976
-962.89
-484.414
-5810.37
-4035.19
-2941.64
-2009.11
-2003.01
-1293.7
-1170.34
-664.279
-952.025
-65.6482
-54.3748
-18.9641
-6.20338
-0.0900941
-6.95006
-6.76399
2.46546
3.98126
-157.663
-53.6562
-1.70547
10.0564
-55.7603
-28.7031
14.4019
15.7561
-303.521
-92.9398
1.21487
25.3203
-214.836
-74.9543
-12.619
3.12933
-172.029
-53.2451
-19.5827
-6.12964
-183.159
-51.6454
-4.1156
5.80866
-537.029
-152.787
-44.6016
-6.51375
-634.083
-163.783
-54.4645
8.18127
-473.746
-131.914
-28.1589
10.3306
-558.926
-141.969
-55.8621
3.46088
-532.896
-149.452
-29.6663
6.40221
-678.397
-176.207
-55.1076
12.6493
-525.916
-144.606
-20.4342
14.6905
-695.907
-180.626
-55.2533
13.5796
-57.2878
-18.2869
-4.05573
2.2887
-46.3784
-12.957
-6.34843
1.5308
-141.434
-45.1032
-5.11045
8.46751
-109.204
-30.8477
-14.2472
4.81303
-342.187
-98.5184
-17.5768
13.4628
-292.202
-78.8668
-26.6388
9.72004
-333.547
-89.9089
-14.9876
13.6426
-251.737
-64.5163
-27.9978
10.9234
-546.81
-135.737
-51.3783
15.9252
-32.0131
-8.42158
-2.40089
1.7413
-10.8073
-3.13973
-0.652113
0.16681
-99.5848
-25.7124
-11.3569
2.60973
-36.8792
-9.98642
-4.12201
-0.394338
-189.264
-46.618
-19.2077
4.31862
-81.135
-19.7297
-6.55297
-0.491783
-294.567
-68.9997
-24.8544
7.97038
-151.113
-32.4246
-9.44765
-0.713677
-399.156
-89.9633
-42.6059
1.19648
-204.62
-40.9879
-15.284
-2.69267
-542.102
-122.944
-50.525
0.942932
-227.931
-48.623
-16.662
-3.13524
-505.061
-112.842
-51.3346
-1.70801
-236.214
-48.3645
-16.6682
-3.20159
-567.99
-128.421
-49.0713
3.83349
-226.046
-47.5245
-14.1798
-1.81995
-579.052
-130.011
-47.1847
4.62098
-229.049
-46.5883
-12.3471
-0.860007
0.222184
-0.0263392
-0.0347883
-0.019084
-0.0108653
0.0189971
-0.127273
-0.0752528
-0.0357561
-0.0193189
0.613315
-0.0788628
-0.0871293
-0.0461603
-0.0258863
-0.225204
-0.34865
-0.184363
-0.0844707
-0.0447768
0.966646
-0.101214
-0.111354
-0.0580836
-0.0322671
-0.678145
-0.519233
-0.256388
-0.114858
-0.0602314
-0.645596
-0.318625
-0.144653
-0.0623772
-0.0319006
0.0911214
-0.10867
-0.0663824
-0.030691
-0.0159964
-0.015022
-0.229688
-0.138176
-0.0652249
-0.0347442
0.194418
-0.0646578
-0.0496187
-0.0242317
-0.0129345
-0.130083
-0.332143
-0.178103
-0.0817242
-0.043323
0.179606
-0.0699853
-0.051139
-0.0250831
-0.0135532
0.406119
-0.0897607
-0.0759685
-0.0375585
-0.0200856
0.279263
-0.0577425
-0.0452697
-0.0217563
-0.0114617
1.17565
0.0996004
-0.0113661
-0.0123779
-0.00770949
0.721025
0.0651156
-0.00198515
-0.00476495
-0.00312123
0.302404
0.00193887
-0.0210271
-0.0128976
-0.00762537
0.134642
-0.0128508
-0.0188248
-0.0107652
-0.00630459
0.686939
-0.0420435
-0.0665091
-0.0365852
-0.0208448
0.329698
-0.064513
-0.0602096
-0.0319153
-0.0181183
1.21589
-0.0224515
-0.0774397
-0.0433953
-0.0246686
0.311213
-0.139772
-0.0968351
-0.0480445
-0.0265967
0.020664
-0.249551
-0.135922
-0.0629091
-0.0336431
-0.0858138
-0.161291
-0.085767
-0.0399828
-0.0216574
-0.270176
-0.175522
-0.0823121
-0.0366973
-0.0193311
139.007
-191.745
509.706
-449.36
987.458
-558.995
1699.78
-331.321
2160.8
663.629
-498.394
-1686.08
1289.45
702.535
-1296.95
-2748.15
-1838.33
-3164.13
-1396.72
-407.369
-145.736
-74.0948
-52.5049
-348.849
-221.773
-54.2941
-30.136
-21.6305
-4317.63
-1250.98
-449.243
-228.453
-162.156
-845.334
-347.113
-146.268
-76.5565
-54.7939
-7275.06
-2114.62
-764.129
-390.448
-277.328
-1500.74
-617.667
-251.825
-133.465
-93.4575
-9809.89
-2867.38
-1046.72
-538.814
-383.849
-1956.88
-823.984
-338.805
-179.766
-125.945
-12383.1
-3662.74
-1355.21
-704.76
-505.004
-2437.04
-1055.8
-438.158
-234.422
-165.837
-14899.4
-4582.92
-1738.89
-918.116
-662.16
-3805.01
-1470.76
-587.061
-310.308
-219.673
-13814.5
-4203.63
-1576.7
-825.805
-593.809
-3011.68
-1251.97
-510.674
-271.484
-192.243
-15389.4
-4765.98
-1821.08
-966.009
-697.624
-4261.33
-1597.06
-629.574
-331.321
-234.846
-16017
-4938.41
-1894.38
-1006.9
-727.616
-4433.83
-1663.2
-657.976
-337.802
-242.66
-834.219
-9499.38
-8058.76
-2415.68
-1808.16
-827.518
-4139.12
-2588.44
-8282.87
-7645.49
-4091.08
-2944.85
-22.1795
-41.1863
-85.9625
-171.162
-320.865
-567.351
-18.0298
-47.2334
-116.562
-246.24
-460.657
-777.44
-15.2316
-6.63629
-31.0893
-19.281
-68.8272
-51.3384
-141.509
-119.889
-256.092
-222.241
-445.696
-353.557
-915.581
-1352.84
-1932.21
-3830.12
-5301.06
-6472.05
-1183.92
-1618.4
-1979.99
-2227.47
-2366.83
-2421.78
-19.6718
-16.2827
-12.0617
-7.37486
-2.47733
-36.4091
-30.0138
-22.1395
-13.4903
-4.52295
-75.6969
-62.1063
-45.5902
-27.6721
-9.25814
-149.988
-122.34
-89.2775
-53.9394
-18.0017
-279.325
-226.084
-163.74
-98.3607
-32.7294
-489.342
-391.928
-281.05
-167.623
-55.585
-15.9591
-13.1768
-9.73585
-5.94032
-1.9931
-41.6485
-34.2271
-25.1677
-15.2969
-5.12158
-102.367
-83.7203
-61.2604
-37.0914
-12.393
-215.148
-174.892
-127.204
-76.662
-25.5521
-399.848
-322.557
-232.876
-139.573
-46.3906
-669.199
-534.782
-382.713
-227.939
-75.5377
-13.5332
-11.2259
-8.3347
-5.10544
-1.71677
-5.90207
-4.9018
-3.64403
-2.23449
-0.751804
-27.5448
-22.7693
-16.8436
-10.287
-3.45332
-17.1103
-14.1721
-10.5058
-6.42708
-2.15957
-60.7697
-50.0212
-36.8409
-22.4204
-7.51178
-45.4124
-37.4649
-27.6574
-16.8628
-5.65546
-124.366
-101.795
-74.5429
-45.1581
-15.0924
-105.551
-86.5769
-63.5315
-38.5491
-12.8944
-223.654
-181.695
-132.057
-79.5343
-26.4991
-194.527
-158.436
-115.427
-69.6377
-23.221
-385.459
-309.61
-222.562
-132.943
-44.1104
-306.738
-247.202
-178.204
-106.634
-35.4036
-779.37
-615.431
-435.797
-257.745
-85.189
-1129.64
-874.968
-609.858
-357.422
-117.949
-1567.99
-1183.26
-809.049
-470.231
-155.838
-2971.29
-2166.1
-1450.71
-841.237
-285.614
-3842.45
-2686.44
-1767.19
-1034.32
-373.225
-4491.17
-3065.4
-1996.64
-1177.79
-442.797
-1008.38
-796.682
-564.383
-333.875
-110.344
-1359.76
-1059.4
-741.838
-435.836
-143.789
-1632.98
-1250.03
-863.66
-504.091
-166.427
-1786.73
-1335.46
-907.919
-527.196
-175.352
-1813.33
-1309.53
-873.402
-506.967
-172.932
-1784.37
-1253.07
-823.449
-478.909
-167.621
-22.4918
-42.3109
-88.5238
-176.415
-330.974
-583.983
-18.4275
-48.6903
-119.853
-252.511
-470.767
-790.745
-15.4884
-6.81435
-32.0816
-20.0724
-71.3483
-53.771
-147.416
-126.6
-269.677
-243.215
-470.68
-399.379
-937.876
-1379.3
-1960.19
-3832.89
-5275.27
-6454.89
-1197.72
-1629.09
-1985.09
-2224.05
-2356.57
-2416.12
-19.9579
-16.5292
-12.2523
-7.49546
-2.51863
-37.4403
-30.9037
-22.8279
-13.9264
-4.6724
-78.05
-64.1406
-47.167
-28.6723
-9.60111
-154.827
-126.536
-92.5377
-56.0111
-18.7127
-288.675
-234.222
-170.084
-102.401
-34.1171
-504.898
-405.624
-291.833
-174.538
-57.9689
-16.3235
-13.491
-9.97875
-6.09411
-2.04578
-42.9865
-35.3834
-26.0636
-15.8651
-5.31642
-105.401
-86.3523
-63.3076
-38.3934
-12.8402
-220.96
-179.966
-131.173
-79.1968
-26.4243
-409.31
-330.903
-239.465
-143.809
-47.853
-681.893
-546.197
-391.878
-233.902
-77.6093
-13.7679
-11.4275
-8.49002
-5.2035
-1.75031
-6.06435
-5.04074
-3.75071
-2.30167
-0.774749
-28.4518
-23.5486
-17.4441
-10.6661
-3.58303
-17.8313
-14.7891
-10.9792
-6.72504
-2.26131
-63.0746
-52.0023
-38.3676
-23.3844
-7.84158
-47.626
-39.3569
-29.1073
-17.7744
-5.96653
-129.77
-106.444
-78.1279
-47.4225
-15.8669
-111.661
-91.8022
-67.537
-41.0675
-13.7535
-236.061
-192.338
-140.237
-84.6868
-28.2585
-213.449
-174.434
-127.549
-77.1892
-25.7843
-408.432
-329.45
-237.898
-142.641
-47.4287
-348
-281.995
-204.483
-122.959
-40.937
-800.727
-634.669
-451.234
-267.776
-88.6731
-1156.03
-899.59
-630.147
-370.841
-122.658
-1598.15
-1213.04
-834.559
-487.528
-162.007
-2985.87
-2188.07
-1473.84
-858.843
-292.407
-3833.99
-2689.87
-1776.84
-1044.08
-377.694
-4482.68
-3063.1
-1998.14
-1180.48
-444.264
-1022.06
-809.441
-574.932
-340.878
-112.804
-1371.32
-1070.96
-751.905
-442.74
-146.255
-1640.23
-1258.54
-871.797
-509.973
-168.59
-1787.14
-1338.76
-912.439
-531.002
-176.869
-1807.66
-1307.5
-873.721
-508.118
-173.574
-1780.82
-1251.24
-822.834
-478.932
-167.741
-16693.7
-10976.9
-1446.05
-775.078
-584.874
-688.006
-867.023
-9808.72
-9074
-6890.65
-7376.45
-3052
-5360.68
-2060.01
-2229.76
-1436.43
-15670.2
-6538.49
-1571.55
-2693.25
-4549.06
-2696.1
-2539.83
-1711.77
-887.12
-1112.12
-1663.79
-1670.53
-15963.8
-9263.93
-8688.85
-5515
-4600.23
-5746.98
-1577.84
-1559.08
-2765.71
-10268.5
-7495.83
-5060.81
-3484.9
-2158.45
-6506.97
-4035.44
-2637.01
-1604.95
-652.584
-1210.72
-941.198
-658.776
-387.558
-128.244
-664.54
-529.14
-377.739
-224.77
-74.5151
-502.099
-400.107
-285.626
-169.84
-56.2514
-595.551
-478.987
-344.878
-206.322
-68.5215
-739.482
-585.268
-415.413
-246.156
-81.4444
-6080.04
-4210.27
-2813.95
-1925.86
-1366.21
-5750.94
-4162.05
-2803.64
-1820.7
-865.958
-4480.69
-2866.89
-1885.38
-1118.34
-421.746
-4739.75
-3341.98
-2241.49
-1381.15
-556.614
-2386.55
-1750.6
-1174.72
-675.003
-222.878
-3859.19
-2643.88
-1740.31
-997.242
-335.95
-1670.2
-1259.29
-859.696
-497.562
-163.616
-1799.01
-1350.49
-918.809
-530.729
-174.443
-1181.26
-901.359
-620.436
-360.434
-118.389
-9499.23
-6405.47
-4333.41
-2906.45
-1915.05
-4553.03
-3114.13
-2066.87
-1222.42
-465.337
-1264.66
-948.8
-646.513
-374.928
-124.318
-2168.82
-1629.95
-1113.79
-648.987
-217.11
-3512.44
-2563.14
-1723.5
-1005.61
-348.695
-2159.49
-1615.22
-1100.45
-641.172
-215.078
-2065.26
-1565.05
-1076.11
-629.06
-209.791
-1416.02
-1087.97
-754.474
-441.661
-146.204
-742.182
-575.746
-401.594
-235.212
-77.473
-942.542
-741.069
-522.977
-308.718
-102.014
-1368.91
-1045.99
-721.568
-420.435
-138.694
-1383.52
-1064.13
-738.32
-432.067
-142.913
-9732.49
-6857.4
-4659.94
-3118.57
-1942.54
-5856.97
-3792.24
-2497.47
-1511.87
-623.334
-5894.19
-4208.14
-2763.14
-1670.71
-669.058
-4003.83
-2768.3
-1839.77
-1084.9
-392.223
-3566.19
-2610.39
-1757.98
-1027.04
-354.799
-4162.48
-2880.69
-1914.6
-1127.57
-403.319
-1280.52
-967.916
-663.998
-387.533
-129.125
-1313.64
-1026.6
-720.901
-424.409
-140.185
-2250.28
-1703.49
-1168.95
-681.629
-226.578
-131.739
-398.125
-692.629
-1033.31
-1411.21
-1808.05
-3814.66
-10021.5
-8930.91
-3497.43
-12445
-11016.9
-11480.9
-12427.5
-3614.3
-2357.03
-8579.42
-4619.84
-14706.4
-12117.3
302.417
-3021.05
-8105.59
-7035.54
-2713.99
-10177.1
-8549.56
-9167.05
-9846.74
-2990.86
-1287.96
-7503.18
-2171.29
-11262.4
-7476.55
2699.08
-2075.94
-5734.22
-4839.28
-1818.98
-7413.77
-4479.52
-6666.17
-6759.19
-2157.22
-1218.49
-5091.95
-2387.59
-8028.24
-2413.56
2863.22
-1348.74
-3922.95
-3232.22
-1181.97
-4897.52
-1973.26
-4685.33
-4828.79
-1484.18
-1263.83
-3496.84
-2402.67
-6078.34
-152.792
2105.36
-935.733
-2872.12
-2321.18
-831.685
-3220.21
-1152.86
-3518.08
-3979.56
-1034.59
-1399.57
-2194.07
-2300.94
-4696.12
230.841
298.641
-714.403
-2179.53
-1824.03
-641.344
-2556.37
-1430.11
-2782.7
-3411.24
-692.614
-1101.5
-1470.95
-2099.17
-4538.1
-1074.08
-927.607
-1469.33
-3547.8
-5975.29
-2357.35
-5482.27
-9236.89
-8362.1
-11452.3
-856.616
-426.039
-3387.82
-1481.69
-989.693
-7831.11
-3160.36
-1310.64
-3165.41
-5011.12
-1961.22
-4817.19
-7901.72
-7136.36
-9136.33
-830.846
-284.94
-3354.69
-1172.59
-135.938
-7105.4
-1756.75
-1047.67
-2530.33
-3702.13
-1427.85
-3968.86
-6122.96
-5453.53
-6991.99
-653.506
-299.296
-2524.45
-1091.88
-259.775
-4772.97
-1354.97
-763.59
-1947.42
-2579.28
-977.05
-3127.37
-4551.99
-4102.71
-5274.31
-494.022
-277.242
-1962.84
-998.424
-144.906
-3641.1
-1141.28
-575.044
-1488.7
-1904.45
-710.173
-2330.17
-3464.84
-3149.21
-4280.39
-378.415
-316.937
-1460.84
-1021.06
-233.873
-2942.81
-1169.73
-455.899
-1118.11
-1511.83
-556.359
-1848.68
-3154.51
-2505.61
-3702.85
-340.418
-359.653
-1115.35
-932.853
-435.139
-2917.57
-1424.5
8573.94
10885.5
21747.8
32485.1
33236.1
57067.6
24832.9
62602.1
19769.7
43307.6
29602
45385.1
26092
35179.9
9978.58
11534
22397.3
25531.2
28161.5
28081.4
21342.7
25443.6
31131.9
27675.2
7494.73
6069.33
9181.95
6570.23
19117
16054.2
32244.9
24426
24647.3
25757.9
28788.1
28358.3
11135.5
8340.94
56128.9
75024.2
37118.1
45356.9
72314.7
94131.1
37978.2
43598.8
43228.5
60970.5
38874.1
50948.5
23446.5
37056.6
4557.49
1612.2
4646.15
1739.04
14455.4
6010.3
19577.9
7436.49
14700.4
5692.53
14873.5
4963.72
24805.5
8187.4
31973.8
11154.7
32801
17139.5
30744.6
18326.8
28757.3
18487.7
26068.6
18609.1
26226.7
16331.6
26129.2
14446.7
32235
20046.4
32580.7
20171
28045.1
19564.4
28569.2
19526.7
28430.3
18374.2
29531
18805.5
27761.4
13056.6
14642.5
19102.7
27507.5
14336.9
13029.7
19439.7
29551.3
12897
16276.9
19183.9
31157.9
13184.2
17492.7
19909.2
5786.69
6208.68
2084.23
4270.48
17459.4
18303.7
7292.7
13724.4
22159.6
23660.7
12240.5
21080.1
12125.6
-628.121
17163.9
24411.3
15282.6
-1309.72
5668.91
15627.8
27708.9
24047.6
12268.3
16592.6
16852
16693.6
27516.7
4831.49
3485.73
2879.56
2688.95
14591.7
10808.9
9927.73
8723.15
17410.9
12555.3
13028.3
10714.7
4597.28
5950.9
10713.8
10982.5
16975.4
14338.1
20501.5
15998.5
17489
13802.1
9370.09
8022.23
13480.4
8224.78
14206.1
8048.27
14287.2
7860.45
19196.9
11007.6
11898.8
3304.83
11100.5
9271.86
12971.2
13952.7
14508.2
17960.8
10517.2
8644.1
12086.9
1741.42
10187
15140.5
9785.22
16424.2
14440.8
22421.6
14620.9
24066.5
9482.5
14731
8979.27
15868.3
13951
8239.91
20505.3
7150.02
13241.3
962.098
17853.5
396.925
13713.8
12318
21373.7
8895.64
12072.4
14481
19593.2
11367.4
2255.25
1678.68
1157.31
1779.47
1371.56
992.786
7321.03
4471.94
2857.37
5401.76
3187.62
2040.08
7757.99
4923.15
3714.43
6353.62
3664.35
2734.41
4217.87
2564.14
2058.28
8318.54
4251.55
2725.01
9518.68
4809.07
2809.33
10229
5689.96
3836.88
8738.78
4152.61
2394.13
11246.7
7063.39
4507.88
8684.63
5309.36
3033.23
9388.75
5264.84
2755.55
9369.16
4941.71
2450.27
11759.4
5244.54
2001.65
12019
15556.4
10045.8
12433.8
14769.7
20386.8
13854
18842
3.46337
517.03
-416
145.846
2950
3016.83
1447.75
919.288
1402.04
2942.6
10014
13740.7
5966.82
3829.38
11996.4
12127.2
20122.4
22333.5
-127.587
-3965.42
8404.61
7876.57
7022.66
5324.87
850.711
448.696
684.393
369.464
2144.55
307.652
330.075
-263.253
8620.51
1907.58
6366.62
1646.55
8671.47
2415.13
10268.2
2825.95
10662.9
11888.7
9798.45
11607.7
17805.5
16820.4
17040.3
15935.5
6121.12
8138.88
7024.07
8072.83
10286.8
11236.7
11111.2
11205.6
17862.8
15708.1
18630.8
15631.9
6104.1
7883.2
6437.52
7878.55
24.0249
657.226
5193.13
2197.08
-235.161
413.14
4778.07
1916.23
318.417
825.516
5273.91
2380.92
523.258
910.195
5187.7
2389.16
-363.06
-408.432
138.946
-8.95514
-1760.34
-1636.73
-64.0487
-261.984
-129.376
-971.627
976.149
422.632
-8070.61
-9313.47
-3786.08
-2653.07
-374.954
-10063.5
-8664.8
-2751.81
-3746.25
-656.111
10925.9
7860.55
5864.66
4436.59
1829.56
-320.9
-225.175
-50.7485
-42.1489
-1126.89
-832.818
-163.107
-123.489
-1165.61
-1124.05
122.609
66.6719
-3992.24
-1083.38
-5457.54
-2536.93
-1827.12
-967.415
-1947.93
-1293.22
-61.8285
160.014
4115.68
2301.15
1658.09
-126.765
1111.1
-118.997
956.139
111.463
511.221
396.426
4778.69
3602.23
8447.88
4629.25
8053.09
6653.26
11801.4
8364
5608.25
2916.24
2965.35
2356.64
9784.25
4122.81
10562.1
4532.3
13010.5
8620.37
13709.2
9262.52
6723.78
2480.16
7364.32
2792.58
3376.08
2069.07
1446.96
1797.04
2114.03
1811.5
1194.78
1643.72
3873.56
2002.89
1606.73
2057.01
4681.08
2140.35
2230.14
2083.98
-150.96
-113.393
-109.842
-20.3768
-40.819
-39.0429
-587.069
-464.432
-396.973
-63.5861
-121.147
-107.61
-869.888
-695.798
-580.242
81.5615
-126.41
-143.95
-238.043
-221.612
-46.5296
-1104.93
-969.851
-758.884
-727.559
-696.267
-599.837
-920.272