/*--------------------------------*- C++ -*----------------------------------*\
| =========                 |                                                 |
| \\      /  F ield         | OpenFOAM: The Open Source CFD Toolbox           |
|  \\    /   O peration     | Version:  v2106                                 |
|   \\  /    A nd           | Website:  www.openfoam.com                      |
|    \\/     M anipulation  |                                                 |
\*---------------------------------------------------------------------------*/
FoamFile
{
    version     2.0;
    format      ascii;
    arch        "LSB;label=32;scalar=64";
    class       volScalarField;
    location    "0.5";
    object      T;
}
// * * * * * * * * * * * * * * * * * * * * * * * * * * * * * * * * * * * * * //

dimensions      [0 0 0 1 0 0 0];

internalField   nonuniform List<scalar> 
5712
(
523.235
546.988
508.6
537.168
488.606
524.232
456.893
497.594
457.425
489.505
486.211
518.348
504.363
532.705
516.611
542.118
475.024
445.909
503.804
461.818
441.742
412.828
469.232
425.838
533.319
542.751
552.826
558.183
518.202
529.748
543.639
551.282
519.327
496.032
486.329
470.691
511.036
533.409
531.349
530.905
476.431
482.167
501.393
499.826
439.041
443.228
539.812
543.053
502.618
511.493
552.45
556.721
548.91
562.976
562.644
568.937
537.842
558.343
557.223
566.673
516.185
548.402
536.13
558.648
550.081
564.348
555.39
566.319
424.081
407.16
435.246
411.019
390.155
376.358
400.163
379.645
469.133
444.062
457.293
439.154
442.839
412.678
444.463
412.043
406.807
381.06
407.979
380.375
477.078
446.286
479.081
445.984
501.89
544.569
481.162
529.156
489.868
537.093
474.659
522.945
509.933
548.705
484.246
532.333
512.382
550.178
484.438
533.643
534.5
507.171
555.202
535.243
518.084
491.363
548.187
526.001
494.779
471.286
536.299
513.354
400.837
363.846
437.38
471.757
521.984
356.782
392.358
426.679
457.402
502.626
363.668
396.758
430.239
464.746
510.708
459.159
418.558
466.92
427.76
451.933
414.371
465.401
426.415
441.829
407.642
463.53
425.675
344.111
328.793
378.245
357.983
408.787
383.336
435.704
405.248
465.444
430.461
349.615
332.983
382.028
364.194
413.888
392.242
444.804
418.174
474.393
444
389.337
379.583
389.047
381.412
356.405
336.15
357.322
337.679
421.275
415.87
421.685
413.002
386.821
381.477
386.398
381.569
356.63
338.414
356.267
338.383
418.59
415.914
418.265
416.222
454.723
448.305
484.709
476.935
453.958
443.654
483.228
471.155
453.283
448.973
484.857
478.686
451.516
448.029
483.087
477.269
377.036
346.903
331.925
381.065
348.493
332.903
375.805
345.396
329.967
380.686
347.36
331.115
370.707
340.874
325.643
380.616
345.439
328.298
312.395
300.102
293.769
334.66
315.027
304.639
353.838
327.653
313.817
369.015
337.745
321.646
383.597
344.964
325.806
315.343
300.767
293.218
341.827
319.076
306.436
362.491
332.084
315.207
379.411
341.606
321.389
391.38
347.43
324.881
366.004
355.524
372.438
361.536
400.968
381.183
414.75
390.41
341.756
320.828
342.844
322.225
343.141
323.292
344.759
324.638
343.871
340.35
342.58
337.649
326.273
328.926
365.629
367.791
396.974
399.707
346.442
349.698
345.8
347.465
331
332.823
302.503
288.792
306.224
290.707
304.348
289.072
307.882
291.135
307.343
289.5
312.384
292.217
314.79
293.747
315.134
294.213
336.884
326.807
343.979
329.602
360.869
348.81
369.194
351.907
325.082
312.135
319.176
309.791
347.691
330.82
348.612
330.635
374.026
353.234
375.025
352.772
328.012
313.22
328.797
313.207
307.991
290.259
299.298
287.082
303.355
288.239
297.461
286.075
310.46
291.616
300.186
287.613
311.288
292.304
300.273
287.744
290.557
284.013
284.948
281.427
291.932
285.452
285.129
281.826
294.702
288.765
285.693
282.934
318.111
336.635
305.34
296.322
285.633
331.112
313.662
300.161
292.395
283.886
336.377
317.751
304.052
294.258
284.72
279.948
277.283
278.816
276.807
281.192
278.154
279.36
277.271
283.889
280.108
280.495
278.199
320.194
308.327
304.758
295.53
294.285
287.819
287.74
282.973
281.882
279.352
324.082
310.038
307.926
297.045
297.034
289.268
289.437
283.872
282.784
279.932
311.86
297.887
314.452
299.77
329.714
311.401
332.354
313.203
301.557
291.267
299.501
289.758
316.279
300.727
316.347
300.833
333.749
313.926
333.641
313.963
303.169
292.144
303.272
292.247
291.572
284.78
283.669
280.194
290.619
283.843
283.302
279.859
292.275
285.353
283.851
280.334
292.921
285.584
284.195
280.623
275.204
274.243
273.872
274.418
273.703
273.467
275.851
274.658
274.188
274.727
273.905
273.613
277.193
275.556
274.88
275.27
274.197
273.811
296.997
289.274
285.493
287.717
282.89
280.639
282.456
279.201
277.774
278.946
276.599
275.611
275.786
274.406
273.91
297.416
288.414
284.241
288.123
282.239
279.682
282.918
278.88
277.195
279.174
276.457
275.393
275.775
274.337
273.835
279.906
275.836
274.172
273.486
280.563
276.024
274.216
273.491
279.906
275.837
274.177
273.491
280.721
276.077
274.245
273.507
279.831
275.818
274.206
273.514
280.793
276.105
274.294
273.536
281.232
276.25
274.293
273.52
281.442
276.342
274.309
273.523
280.241
275.967
274.26
273.533
279.354
275.742
274.208
273.541
279.56
275.756
274.219
273.54
279.02
275.628
274.179
273.541
280.72
276.126
274.285
273.529
279.579
275.826
274.23
273.547
280.989
276.229
274.313
273.541
279.709
275.881
274.253
273.561
278.837
275.54
274.112
273.488
277.683
275.213
274.035
273.49
278.822
275.535
274.118
273.494
277.762
275.236
274.043
273.495
278.847
275.542
274.137
273.51
278
275.305
274.067
273.507
278.728
275.515
274.144
273.526
278.184
275.361
274.094
273.522
278.6
275.496
274.148
273.542
276.856
274.984
273.934
273.491
276.428
274.875
273.891
273.479
277.014
275.03
273.95
273.499
276.591
274.924
273.907
273.485
277.314
275.119
273.976
273.51
276.885
275.014
273.932
273.495
277.691
275.232
274.019
273.527
277.243
275.125
273.967
273.51
278.063
275.358
274.07
273.546
277.569
275.239
274.006
273.525
278.517
275.545
274.124
273.564
278.014
275.435
274.081
273.556
278.331
275.465
274.099
273.555
277.824
275.349
274.046
273.541
278.635
275.602
274.135
273.569
278.147
275.501
274.104
273.567
278.722
275.644
274.152
273.578
278.239
275.547
274.123
273.577
273.211
273.095
273.042
273.019
273.01
273.212
273.095
273.042
273.019
273.01
273.213
273.096
273.042
273.019
273.01
273.215
273.096
273.042
273.019
273.01
273.217
273.097
273.042
273.019
273.01
273.218
273.097
273.043
273.019
273.01
273.222
273.099
273.043
273.019
273.011
273.226
273.101
273.044
273.02
273.011
273.221
273.098
273.043
273.019
273.01
273.224
273.099
273.043
273.019
273.011
273.219
273.097
273.043
273.019
273.01
273.222
273.098
273.043
273.019
273.01
273.224
273.099
273.043
273.019
273.011
273.226
273.1
273.044
273.019
273.011
273.228
273.101
273.044
273.02
273.011
273.23
273.102
273.044
273.02
273.011
273.21
273.095
273.042
273.019
273.01
273.21
273.094
273.042
273.019
273.01
273.212
273.095
273.042
273.019
273.01
273.212
273.095
273.042
273.019
273.01
273.216
273.096
273.042
273.019
273.01
273.215
273.096
273.042
273.019
273.01
273.219
273.097
273.043
273.019
273.01
273.218
273.097
273.042
273.019
273.01
273.221
273.098
273.043
273.019
273.01
478.849
472.666
479.357
473.398
480.865
475.31
484.131
478.781
490.096
484.781
499.361
499.646
496.735
495.224
500.308
501.272
500.467
501.294
552.669
567.759
571.161
572.061
572.33
535.277
562.116
569.236
571.153
571.728
553.031
567.86
571.193
572.075
572.339
535.804
562.266
569.268
571.168
571.734
553.437
567.954
571.216
572.083
572.343
536.503
562.429
569.306
571.178
571.739
554.311
568.158
571.271
572.104
572.357
537.695
562.698
569.367
571.196
571.75
555.824
568.497
571.366
572.144
572.382
539.634
563.134
569.473
571.232
571.769
556.883
568.556
571.329
572.105
572.345
543.675
563.927
569.625
571.26
571.772
556.69
568.594
571.368
572.134
572.371
542.237
563.665
569.596
571.27
571.788
556.877
568.51
571.297
572.082
572.326
544.285
564.036
569.626
571.244
571.756
556.957
568.523
571.297
572.08
572.323
544.331
564.045
569.61
571.23
571.745
380.841
424.665
422.608
377.03
359.465
361.173
363.216
366.465
375.842
380.746
411.16
423.695
421.499
434.963
392.634
398.695
378.356
382.614
370.493
373.043
315.845
301.499
276.417
274.935
275.073
274.68
275.616
310.443
301.797
292.272
291.44
286.676
281.252
285.135
281.615
278.925
279.596
278.128
310.317
290.391
280.912
280.017
283.741
282.175
279.276
278.066
276.621
276.015
278.252
277.743
313.382
296.78
302.04
289.18
284.868
291.785
279.169
276.534
280.059
302.506
293.151
286.554
281.092
276.084
294.541
288.648
283.56
279.21
275.18
275.943
275.355
274.688
274.007
273.334
274.687
274.367
273.992
273.597
273.199
274.809
274.469
274.067
273.642
273.214
274.47
274.197
273.872
273.526
273.175
275.27
274.831
274.322
273.792
273.263
299.044
290.483
284.532
279.773
275.647
292.747
285.936
281.356
277.775
274.652
287.827
283.75
280.15
277.105
274.385
285.854
281.476
278.419
276.026
273.997
282.644
279.389
277.066
275.245
273.725
279.777
278.168
276.554
275.062
273.677
282.584
280.067
277.738
275.71
273.889
279.914
278.164
276.488
274.996
273.649
277.969
276.865
275.7
274.581
273.52
278.462
277.195
275.899
274.684
273.551
277.333
276.394
275.384
274.401
273.461
299.514
291.085
285.075
280.13
275.77
286.742
283.191
279.899
277.005
274.354
279.571
278.066
276.517
275.055
273.677
278.879
277.572
276.199
274.879
273.621
281.788
279.694
277.613
275.691
273.893
280.626
278.889
277.1
275.404
273.795
278.308
277.168
275.941
274.738
273.575
277.316
276.412
275.42
274.433
273.474
276.115
275.487
274.778
274.058
273.35
275.608
275.095
274.506
273.9
273.299
277.449
276.496
275.465
274.453
273.479
277.042
276.196
275.267
274.342
273.444
301.306
292.432
286.082
280.801
276.028
291.358
286.495
282.156
278.375
274.861
295.132
288.756
283.62
279.222
275.192
286.049
282.849
279.763
276.957
274.327
282.758
280.469
278.17
276.027
274.005
287.896
284.09
280.535
277.39
274.487
278.216
277.095
275.888
274.705
273.564
276.041
275.429
274.739
274.036
273.344
278.927
277.62
276.239
274.905
273.63
466.971
526.268
457.401
519.068
428.844
495.019
437.592
501.901
440.887
421.156
489.401
448.644
411.357
391.734
455.754
414.146
488.828
509.049
537.458
546.78
479.442
498.757
531.651
541.765
505.823
464.679
473.437
445.63
483.906
522.254
526.62
529.681
470.416
480.52
496.43
498.399
433.419
441.575
535.087
541.921
496.994
510.034
548.904
555.939
531.14
557.226
556.252
566.815
520.601
552.737
551.512
564.677
499.348
542.932
527.64
555.801
546.929
563.239
554.724
566.07
411.623
400.742
426.867
406.82
380.239
371.351
393.083
376.143
460.837
440.102
444.474
432.949
438.486
410.369
443.192
411.323
402.985
379.059
406.846
379.743
472.838
444.133
477.849
445.316
495.742
542.429
478.271
527.994
480.345
533.742
470.096
521.103
506.789
547.581
482.679
531.699
511.467
549.839
483.951
533.444
506.846
477.255
546.519
525.475
493.177
465.331
540.155
517.199
473.958
450.321
529.403
506.102
396.063
366.694
426.862
460.861
517.845
361.804
388.873
415.66
444.934
497.775
364.317
392.354
423.33
458.719
508.19
435.258
406.243
458.421
429.024
430.495
402.849
458.199
427.968
423.601
397.281
458.06
427.42
351.144
337.503
376.462
358.877
400.261
378.764
426.139
400.544
462.448
432.508
352.66
337.457
379.925
364.886
409.065
391.29
440.378
417.801
472.599
445.582
386.2
378.038
386.664
379.828
355.344
337.127
355.759
337.284
418.709
413.928
417.863
410.603
385.424
380.413
385.941
381.211
355.576
337.871
355.907
338.173
417.137
414.723
417.799
415.833
452.678
446.655
483.495
475.871
450.839
441.677
481.508
470.081
452.109
447.95
484.139
478
451.117
447.682
482.849
477.041
388.427
380.66
405.25
394.686
385.298
376.344
403.721
391.293
379.276
369.397
401.852
386.449
326.164
318.528
344.718
334.956
362.162
350.432
380.587
367.022
403.104
382.408
323.648
314.808
349.91
337.303
371.348
354.585
390.637
369.029
406.281
379.596
351.765
344.464
365.111
354.823
379.354
365.289
404.691
381.23
333.773
316.218
338.962
319.288
333.632
318.21
339.713
321.521
338.792
331.452
337.779
330.297
320.982
325.554
361.726
366.511
392.104
398.179
343.027
348.427
342.743
346.384
328.534
331.86
303.95
290.987
305.846
291.841
305.325
291.043
307.153
291.96
307.852
291.18
311.21
292.758
313.639
293.87
314.668
294.217
333.824
326.205
340.586
328.483
354.383
346.107
363.942
349.6
323.337
311.93
318.716
310.494
345.487
329.986
347.901
330.349
370.973
351.796
374.089
352.304
326.635
312.899
328.318
313.082
307.852
290.864
299.592
287.548
304.916
289.663
298.658
287.069
309.977
291.812
300.189
287.803
311.077
292.339
300.254
287.794
300.592
296.716
289.277
287.066
301.683
297.873
289.206
287.115
303.558
300.286
289.203
287.463
326.471
343.982
313.271
301.665
288.227
341.037
325.184
311.928
300.366
287.331
340.745
322.889
308.478
297.465
286.509
292.84
289.293
284.809
282.18
294.141
290.437
285.051
282.452
296.483
292.502
285.514
282.898
332.242
321.454
318.013
309.684
306.4
300.657
296.269
292.085
285.456
282.867
330.803
317.487
314.981
304.549
302.72
295.171
293.355
287.861
284.763
281.905
313.774
300.809
314.589
300.598
330.763
314.15
331.794
313.713
302.053
292.115
301.467
292.19
316.038
300.845
316.231
300.824
333.127
313.823
333.406
313.88
303.189
292.355
303.245
292.277
292.15
285.459
284.123
280.632
292.224
285.548
284.282
280.823
292.442
285.571
284.039
280.506
292.95
285.631
284.243
280.664
286.938
286.034
278.558
278.145
288.112
286.949
278.799
278.302
289.686
287.737
279.075
278.071
312.567
306.587
302.913
298.525
295.907
292.804
288.447
285.835
278.805
277.266
306.495
300.639
296.365
292.352
289.268
286.532
283.317
281.375
277.352
276.111
281.069
276.326
274.362
273.559
281.419
276.43
274.383
273.557
280.969
276.29
274.351
273.556
281.418
276.421
274.389
273.564
280.746
276.215
274.363
273.574
281.328
276.379
274.414
273.586
281.525
276.417
274.369
273.552
281.534
276.399
274.335
273.534
280.683
276.188
274.36
273.576
279.68
275.91
274.288
273.579
280.299
276.085
274.357
273.596
279.586
275.893
274.294
273.592
280.948
276.254
274.345
273.556
279.745
275.919
274.277
273.571
281.058
276.27
274.333
273.55
279.76
275.911
274.269
273.569
280.475
276.152
274.336
273.572
279.725
275.944
274.295
273.588
280.358
276.115
274.33
273.573
279.673
275.928
274.289
273.588
280.18
276.058
274.329
273.581
279.63
275.912
274.286
273.589
279.812
275.954
274.314
273.591
279.518
275.88
274.286
273.594
279.458
275.863
274.296
273.602
279.082
275.785
274.21
273.607
278.693
275.705
274.183
273.606
279.093
275.785
274.213
273.609
278.705
275.705
274.184
273.607
279.099
275.782
274.209
273.608
278.71
275.702
274.18
273.606
279.067
275.77
274.215
273.612
278.68
275.692
274.179
273.606
278.98
275.749
274.225
273.617
278.584
275.672
274.176
273.606
278.828
275.706
274.2
273.604
278.363
275.617
274.164
273.599
278.883
275.725
274.212
273.61
278.451
275.644
274.171
273.604
278.789
275.689
274.179
273.593
278.314
275.596
274.15
273.592
278.768
275.671
274.166
273.586
278.287
275.576
274.137
273.585
273.238
273.106
273.046
273.02
273.011
273.238
273.106
273.046
273.02
273.011
273.238
273.106
273.046
273.02
273.011
273.237
273.105
273.046
273.02
273.011
273.239
273.105
273.046
273.02
273.011
273.237
273.105
273.046
273.02
273.011
273.235
273.104
273.045
273.02
273.011
273.231
273.103
273.045
273.02
273.011
273.237
273.105
273.046
273.02
273.011
273.238
273.105
273.045
273.02
273.011
273.239
273.105
273.046
273.02
273.011
273.239
273.105
273.046
273.02
273.011
273.235
273.104
273.045
273.02
273.011
273.236
273.104
273.045
273.02
273.011
273.232
273.103
273.045
273.02
273.011
273.233
273.103
273.045
273.02
273.011
273.24
273.106
273.046
273.02
273.011
273.241
273.106
273.046
273.02
273.011
273.24
273.106
273.046
273.02
273.011
273.241
273.106
273.046
273.02
273.011
273.24
273.106
273.046
273.02
273.011
273.241
273.106
273.046
273.02
273.011
273.24
273.106
273.046
273.02
273.011
273.241
273.106
273.046
273.02
273.011
273.24
273.105
273.046
273.02
273.011
476.695
472.961
477.603
473.848
479.715
475.935
483.488
479.428
489.507
485.089
498.673
498.974
495.902
494.595
499.872
500.824
500.319
501.142
552.414
567.71
571.149
572.058
572.329
535.06
562.029
569.212
571.147
571.727
552.819
567.817
571.182
572.073
572.338
535.637
562.189
569.246
571.162
571.733
553.286
567.919
571.207
572.081
572.343
536.401
562.365
569.287
571.173
571.738
554.206
568.13
571.263
572.102
572.356
537.627
562.645
569.351
571.192
571.749
555.72
568.472
571.359
572.142
572.382
539.532
563.084
569.459
571.228
571.768
556.771
568.535
571.324
572.104
572.345
543.468
563.88
569.615
571.258
571.772
556.559
568.569
571.362
572.133
572.371
542.031
563.613
569.584
571.267
571.787
556.803
568.496
571.294
572.082
572.326
544.144
564.005
569.62
571.243
571.756
556.932
568.518
571.296
572.08
572.323
544.282
564.035
569.608
571.229
571.744
379.193
422.823
416.913
372.262
358.382
367.919
355.963
367.636
388.879
414.184
393.655
416.122
273.097
273.134
273.222
273.391
273.702
274.26
273.127
273.173
273.281
273.485
273.843
274.447
273.077
273.068
273.11
273.101
273.192
273.185
273.353
273.358
273.648
273.674
274.148
274.145
275.243
276.904
279.594
283.698
288.424
291.697
275.428
276.932
279.078
281.795
284.517
286.272
273.086
273.072
273.054
273.033
273.011
273.119
273.099
273.074
273.046
273.015
273.197
273.163
273.121
273.074
273.025
273.346
273.286
273.211
273.129
273.043
273.619
273.508
273.374
273.227
273.076
274.103
273.899
273.656
273.397
273.132
273.113
273.094
273.07
273.043
273.015
273.154
273.128
273.095
273.058
273.02
273.249
273.206
273.153
273.093
273.031
273.428
273.352
273.259
273.158
273.053
273.74
273.606
273.443
273.269
273.09
274.264
274.027
273.747
273.45
273.15
273.069
273.057
273.043
273.027
273.009
273.06
273.051
273.038
273.024
273.008
273.098
273.082
273.061
273.038
273.013
273.09
273.076
273.057
273.035
273.012
273.171
273.142
273.106
273.065
273.022
273.165
273.137
273.102
273.063
273.021
273.313
273.259
273.192
273.117
273.039
273.318
273.263
273.195
273.12
273.04
273.573
273.472
273.348
273.212
273.071
273.596
273.491
273.362
273.221
273.074
274.008
273.825
273.604
273.366
273.122
274.007
273.825
273.605
273.367
273.123
274.948
274.573
274.138
273.683
273.227
276.353
275.676
274.914
274.14
273.378
278.582
277.389
276.1
274.833
273.607
281.878
279.856
277.779
275.809
273.931
285.494
282.47
279.527
276.826
274.28
287.926
284.194
280.67
277.493
274.512
275.105
274.697
274.224
273.734
273.244
276.38
275.698
274.931
274.15
273.382
278.171
277.085
275.897
274.716
273.568
280.396
278.777
277.06
275.394
273.792
282.573
280.402
278.165
276.036
274.006
283.956
281.422
278.854
276.437
274.14
273.098
273.137
273.228
273.404
273.727
274.305
273.128
273.176
273.288
273.498
273.866
274.484
273.077
273.068
273.113
273.104
273.198
273.192
273.366
273.374
273.677
273.71
274.21
274.234
275.318
277.003
279.701
283.77
288.437
291.692
275.48
276.995
279.14
281.839
284.536
286.275
273.087
273.073
273.055
273.034
273.011
273.122
273.102
273.076
273.047
273.016
273.203
273.169
273.125
273.077
273.026
273.358
273.296
273.219
273.134
273.045
273.641
273.528
273.389
273.237
273.079
274.145
273.936
273.684
273.414
273.139
273.114
273.095
273.071
273.044
273.015
273.157
273.131
273.097
273.06
273.02
273.256
273.212
273.157
273.096
273.032
273.44
273.363
273.268
273.163
273.055
273.761
273.624
273.458
273.278
273.093
274.297
274.056
273.77
273.465
273.155
273.069
273.058
273.044
273.027
273.009
273.061
273.051
273.039
273.024
273.008
273.101
273.084
273.063
273.039
273.013
273.093
273.078
273.058
273.036
273.012
273.176
273.147
273.109
273.067
273.023
273.171
273.143
273.106
273.065
273.022
273.325
273.27
273.2
273.123
273.041
273.332
273.276
273.205
273.126
273.042
273.599
273.494
273.365
273.223
273.075
273.629
273.519
273.384
273.234
273.079
274.065
273.873
273.641
273.389
273.13
274.088
273.894
273.657
273.399
273.134
275.017
274.634
274.185
273.713
273.238
276.447
275.76
274.981
274.183
273.393
278.688
277.487
276.181
274.887
273.626
281.96
279.939
277.853
275.86
273.95
285.525
282.512
279.571
276.859
274.292
287.929
284.204
280.683
277.504
274.516
275.154
274.739
274.258
273.756
273.251
276.44
275.752
274.974
274.179
273.391
278.233
277.143
275.944
274.748
273.579
280.444
278.825
277.102
275.423
273.802
282.599
280.43
278.192
276.056
274.013
283.963
281.431
278.863
276.444
274.143
315.754
301.466
276.586
275.047
275.355
274.847
275.843
312.518
306.72
294.609
298.155
282.991
287.955
280.319
281.646
279.4
310.944
291.464
282.013
280.696
284.573
282.639
279.494
278.454
277.36
276.499
279.13
278.305
313.228
296.76
302.292
289.312
285.155
292.347
279.508
276.864
280.553
302.477
293.161
286.582
281.121
276.098
294.533
288.659
283.58
279.229
275.188
276.1
275.491
274.795
274.075
273.357
274.789
274.455
274.06
273.64
273.213
275.062
274.681
274.226
273.741
273.247
274.62
274.324
273.968
273.586
273.196
275.476
275.007
274.456
273.877
273.292
301.659
292.95
286.524
281.069
276.115
297.818
290.332
284.714
279.856
275.342
290.147
285.832
281.779
278.138
274.741
292.222
286.653
282.256
278.367
274.781
281.368
279.523
277.581
275.7
273.893
285.202
282.309
279.44
276.767
274.247
279.229
277.927
276.499
275.075
273.687
280.315
278.75
277.063
275.402
273.794
278.481
277.361
276.112
274.851
273.613
300.518
292.177
286.03
280.786
276.024
287.835
284.201
280.714
277.534
274.539
280.587
278.941
277.188
275.476
273.821
279.511
278.123
276.625
275.149
273.713
282.588
280.409
278.177
276.052
274.018
281.073
279.291
277.42
275.611
273.867
278.516
277.356
276.091
274.835
273.609
277.675
276.724
275.661
274.585
273.526
276.776
276.04
275.192
274.313
273.437
276.041
275.459
274.78
274.069
273.356
278.247
277.174
275.979
274.773
273.588
277.556
276.637
275.603
274.553
273.516
301.33
292.55
286.232
280.928
276.083
291.393
286.565
282.237
278.439
274.886
295.538
289.222
284.049
279.526
275.306
286.213
283.026
279.923
277.069
274.368
283.054
280.751
278.404
276.183
274.06
288.505
284.683
281.033
277.723
274.606
278.536
277.377
276.109
274.847
273.613
276.342
275.688
274.937
274.161
273.386
279.391
278.028
276.558
275.109
273.7
273.97
275.937
277.992
280.124
282.161
283.96
436.421
427.977
401.097
408.832
414.837
402.941
388.765
375.903
460.815
481.415
451.467
469.093
437.783
426.117
452.094
420.327
413.647
388.396
394.39
402.884
392.891
378.586
368.117
443.251
455.462
435.261
445.104
422.669
412.432
430.956
397.536
392.951
370.455
374.468
385.211
377.798
363.602
355.704
416.778
426.048
410.742
418.565
401.633
393.777
408.114
373.185
370.207
351.383
353.991
364.75
358.996
346.736
340.951
390.328
399.334
385.952
393.714
379.169
372.24
385.426
355.211
353.145
337.431
339.267
349.059
344.676
334.059
329.603
369.997
380.027
366.682
375.846
361.918
356.411
369.369
342.953
341.376
327.932
329.348
338.292
335.168
325.256
321.725
356.748
369.303
354.049
365.383
350.675
346.419
359.241
348.857
345.609
371.512
376.719
341.189
335.999
363.292
353.788
328.036
310.862
327.264
312.304
323.941
323.427
314.596
342.739
339.843
362.611
366.941
335.898
331.336
355.682
347.413
322.553
306.639
321.927
308.105
318.863
318.762
310.091
333.127
330.812
349.355
352.506
327.659
323.891
344.19
337.803
316.324
302.035
315.7
303.219
313.21
313.111
304.867
321.729
320.041
334.559
336.716
317.521
314.205
330.924
325.864
308.59
297.301
308.141
298.138
306.187
305.917
299.46
313.076
311.804
323.608
325.177
309.867
307.162
320.901
316.969
302.584
294.15
302.26
294.653
300.906
300.584
295.69
307.137
306.128
316.15
317.379
304.724
302.747
313.985
310.877
298.877
292.249
298.644
292.615
297.626
297.463
293.513
524.099
547.724
508.639
537.103
488.621
524.204
456.88
497.57
457.412
489.477
486.237
518.326
504.435
532.673
517.594
543.018
475.019
445.897
503.782
461.802
441.724
412.811
469.21
425.82
534.011
543.257
553.377
558.563
518.194
529.72
543.552
551.211
519.293
496.018
486.308
470.678
511.016
533.372
531.34
530.899
476.418
482.156
501.381
499.817
439.026
443.215
539.8
543.047
502.606
511.484
552.439
556.717
549.274
563.12
562.894
569.031
537.806
558.327
557.176
566.655
516.163
548.392
536.102
558.637
550.071
564.343
555.386
566.317
424.069
407.15
435.234
411.01
390.142
376.347
400.149
379.634
469.12
444.053
457.281
439.145
442.827
412.668
444.452
412.034
406.794
381.05
407.967
380.365
477.067
446.278
479.071
445.976
501.877
544.564
481.154
529.153
489.855
537.087
474.651
522.941
509.923
548.701
484.24
532.33
512.375
550.176
484.432
533.64
534.976
507.698
555.403
535.517
518.044
491.32
548.167
525.969
494.756
471.264
536.287
513.34
400.827
363.837
437.368
471.743
521.977
356.773
392.348
426.668
457.387
502.617
363.658
396.749
430.228
464.737
510.703
459.635
418.878
467.262
427.996
451.901
414.362
465.385
426.41
441.809
407.631
463.52
425.671
344.104
328.788
378.237
357.977
408.776
383.328
435.691
405.239
465.437
430.456
349.608
332.977
382.019
364.188
413.879
392.235
444.796
418.168
474.388
443.996
389.328
379.576
389.039
381.406
356.397
336.145
357.314
337.673
421.268
415.864
421.677
412.995
386.814
381.471
386.391
381.563
356.623
338.408
356.26
338.378
418.584
415.909
418.258
416.216
454.717
448.3
484.705
476.931
453.952
443.649
483.224
471.151
453.278
448.968
484.853
478.683
451.511
448.025
483.083
477.266
377.253
347.039
332.027
381.241
348.609
332.986
375.809
345.404
329.973
380.688
347.369
331.123
370.705
340.876
325.647
380.615
345.443
328.302
312.392
300.101
293.768
334.656
315.026
304.639
353.834
327.652
313.817
369.011
337.745
321.648
383.595
344.964
325.808
315.34
300.765
293.217
341.823
319.074
306.436
362.486
332.083
315.207
379.407
341.605
321.39
391.377
347.43
324.882
365.949
355.492
372.383
361.505
400.93
381.159
414.712
390.386
341.642
320.834
342.692
322.21
343.054
323.239
344.675
324.591
343.823
340.299
342.546
337.614
326.23
328.885
365.605
367.773
396.955
399.691
346.409
349.677
345.775
347.447
330.971
332.805
302.526
288.793
306.239
290.706
304.326
289.066
307.863
291.13
307.319
289.493
312.359
292.209
314.77
293.739
315.12
294.207
336.864
326.794
343.96
329.59
360.853
348.797
369.177
351.895
325.062
312.125
319.157
309.779
347.675
330.809
348.599
330.626
374.011
353.223
375.012
352.762
327.996
313.211
328.785
313.199
307.976
290.252
299.29
287.078
303.341
288.233
297.452
286.07
310.447
291.61
300.179
287.608
311.277
292.299
300.267
287.74
290.534
283.982
284.943
281.418
291.926
285.451
285.125
281.823
294.692
288.759
285.688
282.931
318.099
336.625
305.329
296.312
285.628
331.103
313.653
300.152
292.388
283.882
336.367
317.74
304.042
294.251
284.716
279.923
277.264
278.811
276.802
281.192
278.155
279.359
277.27
283.887
280.107
280.492
278.197
320.188
308.323
304.751
295.526
294.28
287.816
287.735
282.97
281.879
279.35
324.074
310.033
307.919
297.04
297.028
289.264
289.432
283.869
282.781
279.93
311.852
297.882
314.445
299.765
329.705
311.396
332.346
313.198
301.55
291.264
299.494
289.754
316.273
300.723
316.341
300.829
333.742
313.921
333.634
313.958
303.163
292.141
303.267
292.244
291.567
284.777
283.666
280.192
290.614
283.84
283.298
279.857
292.27
285.351
283.848
280.332
292.917
285.582
284.193
280.621
275.192
274.232
273.863
274.418
273.701
273.464
275.852
274.659
274.189
274.727
273.905
273.613
277.193
275.556
274.881
275.27
274.197
273.811
296.994
289.273
285.493
287.715
282.889
280.638
282.454
279.2
277.773
278.945
276.599
275.61
275.785
274.406
273.91
297.413
288.413
284.24
288.12
282.237
279.681
282.916
278.879
277.194
279.173
276.457
275.393
275.775
274.337
273.835
279.905
275.835
274.171
273.486
280.559
276.023
274.215
273.491
279.904
275.837
274.177
273.491
280.72
276.076
274.245
273.507
279.829
275.817
274.206
273.514
280.79
276.104
274.294
273.536
281.23
276.249
274.293
273.52
281.44
276.342
274.309
273.523
280.239
275.966
274.26
273.533
279.351
275.741
274.208
273.541
279.557
275.755
274.219
273.539
279.018
275.627
274.178
273.541
280.717
276.125
274.285
273.529
279.577
275.825
274.23
273.547
280.987
276.228
274.313
273.541
279.707
275.88
274.253
273.56
278.837
275.54
274.112
273.487
277.681
275.212
274.035
273.49
278.821
275.535
274.118
273.494
277.761
275.236
274.043
273.495
278.845
275.541
274.137
273.51
277.999
275.304
274.066
273.506
278.726
275.514
274.144
273.526
278.182
275.36
274.093
273.522
278.598
275.495
274.148
273.542
276.854
274.983
273.933
273.491
276.425
274.873
273.891
273.479
277.013
275.03
273.95
273.499
276.591
274.924
273.907
273.485
277.312
275.118
273.976
273.51
276.884
275.014
273.932
273.495
277.69
275.231
274.019
273.527
277.241
275.124
273.967
273.51
278.062
275.357
274.069
273.546
277.567
275.239
274.006
273.525
278.516
275.544
274.123
273.563
278.012
275.434
274.08
273.556
278.329
275.464
274.098
273.554
277.822
275.349
274.045
273.541
278.633
275.601
274.135
273.569
278.145
275.5
274.103
273.567
278.72
275.643
274.152
273.578
278.238
275.546
274.122
273.576
273.21
273.095
273.042
273.019
273.01
273.211
273.095
273.042
273.019
273.01
273.213
273.096
273.042
273.019
273.01
273.215
273.096
273.042
273.019
273.01
273.217
273.097
273.042
273.019
273.01
273.218
273.097
273.043
273.019
273.01
273.222
273.099
273.043
273.019
273.011
273.226
273.101
273.044
273.02
273.011
273.221
273.098
273.043
273.019
273.01
273.224
273.099
273.043
273.019
273.011
273.219
273.097
273.043
273.019
273.01
273.222
273.098
273.043
273.019
273.01
273.224
273.099
273.043
273.019
273.011
273.226
273.1
273.044
273.019
273.011
273.228
273.101
273.044
273.02
273.011
273.23
273.102
273.044
273.02
273.011
273.21
273.095
273.042
273.019
273.01
273.21
273.094
273.042
273.019
273.01
273.212
273.095
273.042
273.019
273.01
273.211
273.095
273.042
273.019
273.01
273.216
273.096
273.042
273.019
273.01
273.215
273.096
273.042
273.019
273.01
273.219
273.097
273.043
273.019
273.01
273.218
273.097
273.042
273.019
273.01
273.221
273.098
273.043
273.019
273.01
478.926
472.763
479.378
473.414
480.87
475.314
484.13
478.78
490.094
484.779
499.358
499.643
496.733
495.222
500.305
501.27
500.464
501.292
552.798
567.8
571.176
572.069
572.335
535.347
562.143
569.247
571.158
571.732
553.022
567.858
571.193
572.075
572.339
535.811
562.27
569.27
571.169
571.735
553.436
567.954
571.216
572.083
572.343
536.505
562.43
569.306
571.178
571.74
554.311
568.158
571.271