/*--------------------------------*- C++ -*----------------------------------*\
| =========                 |                                                 |
| \\      /  F ield         | OpenFOAM: The Open Source CFD Toolbox           |
|  \\    /   O peration     | Version:  v2106                                 |
|   \\  /    A nd           | Website:  www.openfoam.com                      |
|    \\/     M anipulation  |                                                 |
\*---------------------------------------------------------------------------*/
FoamFile
{
    version     2.0;
    format      ascii;
    arch        "LSB;label=32;scalar=64";
    class       volScalarField;
    location    "60";
    object      gradTy;
}
// * * * * * * * * * * * * * * * * * * * * * * * * * * * * * * * * * * * * * //

dimensions      [0 -1 0 1 0 0 0];

internalField   nonuniform List<scalar> 
20000
(
6.7968472e-05
4.362126e-06
-6.2860882e-05
-9.9299105e-05
-6.6100824e-05
-7.9863033e-05
-3.427823e-05
3.8404153e-05
2.3301633e-06
-1.9007416e-05
-0.00015558598
-0.00035182993
-0.00045573248
-0.00040328962
-0.00032980878
-0.00025094019
-6.1134841e-05
3.8974918e-05
2.8475199e-05
7.7178782e-05
-0.00067338863
-0.00082888053
-0.00072484823
-0.00060827801
-0.00044660666
-0.00020885145
-6.592137e-05
1.7981449e-05
0.00013809563
0.00020667247
-0.00084582595
-0.00085068612
-0.00071990215
-0.00057244478
-0.00027458952
-9.6492585e-05
4.8573327e-05
0.00013704658
0.00019394864
0.00017206389
-0.00058322951
-0.00055407565
-0.00043087999
-0.00015464903
4.5071516e-05
0.00022386888
0.00037825112
0.00034948886
0.00028776975
0.00025090941
-0.00024682464
-0.00019909103
2.1848763e-05
0.00018159474
0.00034501198
0.00051477386
0.00054068147
0.00049939882
0.00042639559
0.00046548388
-4.6518608e-05
0.0001308822
0.00024339585
0.00035771495
0.00047693541
0.00048333501
0.00046156021
0.00046083883
0.00053371198
0.0005832606
0.0002619181
0.00031683123
0.00035152846
0.00052084781
0.00049690325
0.00043036655
0.00038261757
0.00050251811
0.00054796914
0.00043716952
0.00022243344
0.00013631626
0.00026063788
0.00032500722
0.00029565462
0.00022642755
0.00026173979
0.00034884937
0.00019639111
0.00013835071
5.0452514e-06
-1.6292461e-05
3.7514383e-05
2.9425545e-05
2.2924477e-05
4.85187e-06
4.8983244e-05
3.7884206e-05
-2.4883226e-05
-8.0933649e-07
0.00011215254
-0.00010027425
-0.00021527969
-0.00031264257
-0.00021902491
-0.00013990636
-7.4541447e-05
4.9022143e-05
5.4381757e-05
1.4661377e-05
-0.00074967062
-0.0012408187
-0.001407226
-0.0012629133
-0.0009533442
-0.00063435186
-0.00029690651
-2.7492092e-05
0.00011246135
0.00014020983
-0.0021265309
-0.0024450835
-0.0021486259
-0.0016488548
-0.0012098843
-0.00068255881
-0.00031265222
-4.6879619e-06
0.0002491669
0.00029034678
-0.0023228144
-0.0023284323
-0.0018689328
-0.0013896914
-0.0006994353
-0.00020721609
0.00019818609
0.00042189268
0.00043301054
0.00043354743
-0.0016341304
-0.001375026
-0.0010055683
-0.00040873005
0.00017690613
0.00064630908
0.00093599735
0.00083179498
0.00077010134
0.00084952413
-0.00055404104
-0.00033731618
0.00010239665
0.00055991649
0.0010000181
0.0013190071
0.001260307
0.0012621535
0.0013124355
0.0013522678
0.00015394099
0.00043733394
0.00076079993
0.0011152044
0.0013899092
0.0013006901
0.001333055
0.001485071
0.0015067297
0.0014334053
0.00055458258
0.00074796779
0.00096395016
0.0013097862
0.0011987741
0.0011438906
0.0012509031
0.0013175646
0.0012084316
0.00097490326
0.00051593818
0.00046439695
0.00068364074
0.0007594322
0.00069529489
0.00077716112
0.00078540964
0.00072549534
0.00044274816
0.00024258145
9.9593384e-05
5.9872908e-05
0.00011809264
8.7326536e-05
0.00011845052
0.00014027482
0.00014500531
9.1391901e-05
-1.0680177e-05
-4.2052401e-05
-2.1317609e-05
-0.00037614681
-0.00049965687
-0.00054373476
-0.00037771711
-0.00024077732
-0.00020739236
-3.896857e-05
6.9133231e-05
8.3531591e-06
-0.0015387678
-0.0022562762
-0.0023930816
-0.0020468127
-0.0015474519
-0.0011620624
-0.00070637157
-0.00024400816
2.3818558e-05
3.3991739e-05
-0.0033943815
-0.0036457631
-0.0031849173
-0.002465888
-0.0019503336
-0.0012381552
-0.00063488076
-0.00022596103
4.7289291e-05
0.00018316376
-0.0034129415
-0.0032300323
-0.002567312
-0.0019954477
-0.0011147809
-0.00035838045
6.7293684e-05
0.00030219013
0.00044530111
0.00058977798
-0.0021849603
-0.0017305246
-0.0013002104
-0.00050279124
0.00033685751
0.00080263482
0.0010896725
0.0010632643
0.0011583555
0.0012789987
-0.00062186331
-0.00036637601
0.00021921741
0.0009490764
0.0014012917
0.0017018918
0.0017368305
0.0018496825
0.0019529384
0.0018809152
0.00033690961
0.00063962321
0.0012549642
0.0016518163
0.0019155339
0.0019124461
0.0020633249
0.0022692437
0.0021220408
0.0019220711
0.00074890042
0.0011636891
0.0014790902
0.0018458586
0.0018570973
0.0019145412
0.0020732056
0.0019732572
0.0016166536
0.0013226714
0.00068643831
0.00075742031
0.00096443776
0.0011665456
0.0012520258
0.0013822798
0.0012832589
0.0010351071
0.00063267271
0.00035735076
0.00015780123
9.7020726e-05
0.00016458315
0.00018760395
0.00026090114
0.00026803292
0.00021288578
0.0001347197
1.6897596e-05
-4.8828156e-05
-0.0002386973
-0.00062643831
-0.00068469673
-0.00063716914
-0.00050953391
-0.00036717017
-0.00031931211
-0.00012146933
1.3268846e-05
-6.1025105e-05
-0.0023447626
-0.0030137617
-0.002987235
-0.0025694766
-0.0021287743
-0.0017412306
-0.0011875674
-0.00063314385
-0.00030543765
-0.00022358665
-0.0042140211
-0.0042301172
-0.0037697352
-0.0031443078
-0.00261445
-0.0019194074
-0.0012480853
-0.00075910029
-0.00036510946
-7.5980437e-05
-0.0038458943
-0.0035831503
-0.0029874336
-0.0024278644
-0.0015715811
-0.00086579806
-0.00047664511
-0.00010772766
0.00024148903
0.00045813763
-0.0022984279
-0.0018934298
-0.0014701832
-0.00066852962
9.1883862e-05
0.00046324399
0.00080170895
0.0009918746
0.0011688904
0.0012600457
-0.00067465228
-0.00038931932
0.00026655459
0.00097704498
0.0013614904
0.0016868702
0.0019446256
0.0021047555
0.0020909907
0.0019784622
0.00038009964
0.00074865099
0.001488187
0.0019089584
0.0022462569
0.0024375889
0.0026641423
0.002652946
0.0024083179
0.0022184263
0.00096646181
0.0014653332
0.0018485911
0.0023483085
0.0025667252
0.0027154894
0.0027130903
0.0024596658
0.0020430539
0.0017466623
0.00088917446
0.00097984076
0.0012987314
0.0016629598
0.001864596
0.0019311301
0.0017383028
0.0014966111
0.0010252995
0.00069533374
0.00019841768
0.00012412357
0.00025298522
0.00031687637
0.00039741712
0.00037764626
0.00032239812
0.0002510518
0.00012480372
3.1074744e-05
-0.00041079272
-0.00069282997
-0.00073824145
-0.0006828862
-0.00060773673
-0.00051383957
-0.00044036968
-0.00021376157
-6.7580478e-05
-0.0001539492
-0.0027878956
-0.0032790687
-0.0032656485
-0.0029347303
-0.0026395143
-0.0023528944
-0.0017647202
-0.0011484383
-0.00073378175
-0.00058098894
-0.0044391822
-0.004424267
-0.0040948437
-0.0037027019
-0.0033307465
-0.0027532528
-0.0021300344
-0.0015026752
-0.00092450841
-0.00053605382
-0.0038803224
-0.0036845655
-0.003254188
-0.0029204681
-0.0023158016
-0.0017737121
-0.0013216647
-0.00072437004
-0.00025735042
-9.6360964e-06
-0.0023479138
-0.0020943436
-0.0017660782
-0.0011448955
-0.00061932263
-0.00020201278
0.00031258267
0.00058324878
0.00071928588
0.00082127889
-0.00079761182
-0.00054656155
7.718171e-05
0.00065415009
0.0010713185
0.0015860555
0.0018685367
0.0018984151
0.0018481429
0.0018238164
0.00033301996
0.00078313653
0.0015374759
0.0020337145
0.0025868179
0.0028189762
0.0028991773
0.0028087248
0.0026164253
0.0023805117
0.0011203824
0.0016795667
0.0021513207
0.0028850921
0.003215635
0.0032917953
0.0031952404
0.0030090423
0.0025346031
0.0019422561
0.0010933183
0.0011830365
0.0016607667
0.0021496571
0.0023755006
0.0023876868
0.0023009024
0.0019594743
0.001234115
0.00062608797
0.00024566701
0.00015929773
0.0003475284
0.00041826739
0.00051267106
0.00048626255
0.00049645413
0.00032898746
0.00010155541
-7.6364377e-05
-0.00038311741
-0.00064371001
-0.00070702104
-0.00072212259
-0.00068828918
-0.00062645628
-0.000581162
-0.0003137935
-0.00014550777
-0.00024926339
-0.0027403035
-0.0032261586
-0.0033445723
-0.0031820737
-0.003088261
-0.0029454685
-0.0023739097
-0.0016476415
-0.0011420025
-0.00097066689
-0.0043851631
-0.0045027819
-0.0043410781
-0.0042121905
-0.0041128459
-0.0036463792
-0.0029611039
-0.0022077746
-0.0015490838
-0.0010788183
-0.0038752914
-0.003847194
-0.0036189802
-0.0036189618
-0.0031890166
-0.0026634242
-0.0020975911
-0.0014337284
-0.00095968664
-0.00063011635
-0.0025274935
-0.0023839941
-0.0022908885
-0.001818183
-0.0013353515
-0.00083511523
-0.00027177936
-0.00010112177
2.0910221e-05
0.00023737269
-0.0010095354
-0.00084884499
-0.00029518475
0.00030289675
0.00079624059
0.0013664684
0.001512853
0.0014512578
0.0014376313
0.0014100916
0.00026965856
0.00073865274
0.0015674854
0.0021772568
0.0027971808
0.0029112502
0.0028819703
0.0028489517
0.0025271106
0.0020405957
0.0012256203
0.0018791024
0.0024575278
0.0032911218
0.0035954318
0.0035838115
0.00352021
0.0032289515
0.0024757151
0.0015882825
0.0012374705
0.0013342652
0.0019144441
0.002463221
0.0027180564
0.0028017155
0.00267689
0.0019933599
0.0010362209
0.00027235095
0.00027953761
0.00017578136
0.00039376048
0.00048929157
0.0006134742
0.00063359977
0.00059511456
0.00030925696
3.4927064e-06
-0.00019998991
-0.00026599025
-0.0005743068
-0.00063544597
-0.00071260685
-0.00075032532
-0.00069457515
-0.00064371528
-0.00035404129
-0.00017149637
-0.0002957421
-0.0025376437
-0.0030918265
-0.0033411352
-0.0033248637
-0.0033828588
-0.0032998756
-0.0026800694
-0.0018928141
-0.0013906698
-0.0012279806
-0.0043228858
-0.004530335
-0.0045559225
-0.0045834906
-0.004599322
-0.0041236515
-0.0033803366
-0.0026691329
-0.0020600659
-0.0014955478
-0.0039158721
-0.0040881911
-0.0039575957
-0.0041315914
-0.0037196419
-0.003092101
-0.0025759579
-0.0020783055
-0.0015810287
-0.0011501298
-0.0027743944
-0.0027473475
-0.0027494064
-0.0022875083
-0.0017099164
-0.0012318483
-0.00086698299
-0.00079646301
-0.000633507
-0.00036227476
-0.0012435605
-0.0010836461
-0.00054077145
0.00013533966
0.00060291276
0.00097827305
0.00099927431
0.0009563565
0.00079616063
0.00063511448
0.00025850923
0.00076930937
0.0016655701
0.0022238275
0.0026793648
0.0026592124
0.0026574487
0.0024928722
0.0018700512
0.0012635803
0.0013446217
0.0020529498
0.0026340201
0.0033732194
0.003628949
0.0036066953
0.0034258356
0.002819298
0.0017760821
0.0010854174
0.0013281942
0.0014156432
0.0019930272
0.0025892276
0.0029212034
0.0030234162
0.0025999609
0.0017941237
0.00086607989
0.00044943388
0.0002952616
0.00017101593
0.00040372114
0.00054736129
0.00069098722
0.00072818286
0.00058362302
0.00032386881
0.00012317963
4.6104617e-05
-0.00014806975
-0.00053756461
-0.00057749897
-0.0006555522
-0.00071533941
-0.00064002088
-0.00057970527
-0.00027329188
-9.3809604e-05
-0.00027318354
-0.0023367889
-0.0029809326
-0.0031848265
-0.0031907094
-0.0032852949
-0.0031415999
-0.0024793613
-0.001750323
-0.0013374334
-0.0012633496
-0.0042449836
-0.0044219651
-0.0044547606
-0.0045017151
-0.0044428482
-0.0038876342
-0.0032248614
-0.0027381008
-0.0022577918
-0.0017200667
-0.0038700721
-0.0040768329
-0.0039705405
-0.0040649202
-0.0035086022
-0.00290449
-0.0026274576
-0.0023573918
-0.0019117486
-0.0015596426
-0.0028462257
-0.0028229291
-0.0027971169
-0.0022088478
-0.0016366857
-0.0013348832
-0.0011898302
-0.0012461618
-0.0012223899
-0.0010648184
-0.0012645431
-0.0010610915
-0.00045860978
0.00015689469
0.00042253515
0.00060375012
0.00050772195
0.00027939422
-0.00012210233
-0.00027871275
0.00038365403
0.00093374788
0.0017749317
0.0020832805
0.0023220291
0.0021720017
0.0019976727
0.001491557
0.00089909966
0.00038599086
0.0014805578
0.0022094003
0.0026224853
0.0031764696
0.0033381937
0.0031439102
0.0027083694
0.0020453373
0.001186893
0.00067717659
0.0014149654
0.0014151275
0.0019019388
0.0024331615
0.0026996876
0.0026145055
0.0021415807
0.0015089389
0.00077341986
0.00060583477
0.00031743457
0.00013806065
0.00036682402
0.00049654407
0.00060156126
0.00060159201
0.00049715436
0.00025951914
0.00015734321
0.00014779573
-0.00014684317
-0.00048984521
-0.00046968423
-0.00053183146
-0.00056532722
-0.00044088167
-0.00038914328
-0.00010597366
4.7612635e-05
-0.00022163046
-0.0022174013
-0.0027016628
-0.0027529877
-0.0026846658
-0.0026531136
-0.0024522994
-0.0018639445
-0.001288817
-0.0010256475
-0.0011924246
-0.003883781
-0.0039467603
-0.0038667841
-0.0037629611
-0.0035638674
-0.0030401369
-0.002570766
-0.0023475723
-0.0021381687
-0.001815017
-0.0034646489
-0.0036081137
-0.0033647749
-0.0033051971
-0.0026779435
-0.0021581679
-0.0021198443
-0.0021513716
-0.001993581
-0.0018551183
-0.0025565049
-0.0024200806
-0.0023241387
-0.0016972564
-0.0011771099
-0.0010094341
-0.0011288699
-0.0014559622
-0.0016106072
-0.0016169809
-0.00097867505
-0.00071439894
-0.00018950627
0.00027870163
0.00036859251
0.00032694172
-3.9648285e-06
-0.00049944936
-0.00087002769
-0.00083317715
0.00063106341
0.0011334254
0.0017945457
0.0018259895
0.0018013416
0.0013794617
0.00097495104
0.00043966475
8.6737742e-05
3.8992867e-06
0.0015886042
0.0022437377
0.0024269011
0.002676336
0.0025531646
0.0021945983
0.0016871017
0.001306385
0.00086075656
0.00060180679
0.0014205671
0.0012470819
0.0015169596
0.0017796373
0.0018132128
0.0016186184
0.0014794847
0.0011828532
0.00077490702
0.00030482812
0.00030880062
3.9557543e-05
0.00019761596
0.00025499154
0.00028992412
0.00025074259
0.00031449118
0.00019551718
0.00014185828
-0.00011786862
-0.00016003348
-0.00041050239
-0.00030661937
-0.0003275678
-0.00032244263
-0.00017138386
-0.00018603023
3.0258093e-05
0.00015306254
-0.00021669816
-0.0019509004
-0.0021707795
-0.0020583865
-0.0018330976
-0.001688316
-0.0015354165
-0.0011668369
-0.00079579064
-0.00068980805
-0.0011063717
-0.0031749574
-0.0030505555
-0.0028372758
-0.002569576
-0.0023119797
-0.0019424394
-0.0016935019
-0.0016877153
-0.0018110607
-0.0016738537
-0.0026685293
-0.0026922633
-0.0022984582
-0.0021669673
-0.0015661406
-0.0011436767
-0.0012735937
-0.0015900993
-0.0017779843
-0.0017101709
-0.0019101758
-0.0016758995
-0.0016124942
-0.0010487631
-0.00058920352
-0.00048919881
-0.00080705209
-0.0013424248
-0.0015182592
-0.0013933931
-0.00052786226
-0.00032324394
-6.3835159e-06
0.00029523295
0.00028616299
7.7384868e-05
-0.00046868485
-0.00089539418
-0.00094021581
-0.00075448892
0.00079681174
0.0010992742
0.0015364369
0.0013539976
0.0010900142
0.00050077196
0.00011723512
-2.1888865e-05
-0.00011394584
-0.00011036565
0.0014555179
0.0019641572
0.0019325466
0.0018465986
0.0014281564
0.0011353916
0.00095662537
0.00090420994
0.00053801088
0.00042452814
0.0011897027
0.00081926899
0.00087912221
0.00083313114
0.00075905078
0.00078216255
0.00089995626
0.00069368522
0.00042027378
0.00025544498
0.00023540343
-0.00013435726
-4.23056e-05
-4.2885821e-05
2.9033164e-06
4.0358165e-05
0.00012672143
4.2745001e-05
5.1066063e-05
-6.7140888e-05
-0.00011448786
-0.00028273142
-0.00012165159
-9.3908796e-05
-7.6302381e-05
3.4599376e-05
-5.9557391e-05
6.0840875e-05
0.00015316436
-0.0002524899
-0.0014832875
-0.0014940333
-0.0012547452
-0.0009008435
-0.00075682141
-0.00076310513
-0.00064947977
-0.00049623205
-0.00051443988
-0.00092339508
-0.0022581454
-0.0019749122
-0.001664956
-0.0013438965
-0.0011320799
-0.00093333713
-0.00087581045
-0.0010727701
-0.0014150249
-0.0011985828
-0.0016828547
-0.0016148311
-0.0011849312
-0.001081955
-0.00054690105
-0.0002066835
-0.00048103087
-0.00097038673
-0.0012265159
-0.0011110068
-0.0011774725
-0.00098470991
-0.0010397342
-0.00057415096
-0.00016446296
-0.00014414533
-0.00055885661
-0.00098166842
-0.00094448277
-0.00074945106
-0.00025559277
-0.00023047525
-0.00014825093
2.5794407e-05
-8.2380949e-05
-0.00036859993
-0.00083101722
-0.00084396589
-0.00064473713
-0.00050250022
0.00059852653
0.00063788841
0.00086539956
0.00049845519
0.00010169652
-0.0003390673
-0.00037367016
-0.00025161006
-0.00011229591
-0.00026857381
0.00094600992
0.0012650928
0.0010810498
0.00072587775
0.00033556478
0.00034025243
0.00052184475
0.0006016264
0.00032995891
6.3287756e-05
0.00070647036
0.00023647465
0.00027930775
0.00011066243
0.00013868794
0.00034287925
0.00048015354
0.00032591592
-5.8184809e-05
-9.9905634e-05
0.00011558151
-0.00029007289
-0.0001570552
-0.00014577779
-8.004893e-05
-1.5756882e-05
1.4775555e-05
-0.00011994204
-0.00016300519
-0.0001477559
-2.0215869e-05
-0.00014388744
6.2126978e-05
0.00011606344
8.6930186e-05
0.00014212196
1.1289577e-05
4.2814594e-05
8.2262184e-05
-0.00025579305
-0.00095954473
-0.00083603015
-0.00051428495
-0.00015308709
-0.0001353163
-0.00022087866
-0.00028252359
-0.0003794743
-0.0004208863
-0.00062572636
-0.0013836808
-0.00099375441
-0.00070073719
-0.00046305203
-0.0002413924
-0.00013518295
-0.00027067116
-0.0006042201
-0.00088700977
-0.00047092436
-0.00078745586
-0.00075025179
-0.00040848789
-0.0002909066
0.00021779573
0.00046549803
0.00011999464
-0.00025889403
-0.00031211798
-0.00015713707
-0.00070013758
-0.00066105014
-0.00076792992
-0.00033318099
-1.15252e-05
-5.2968145e-05
-0.00024476628
-0.0002577242
-1.4021626e-05
4.3278874e-06
-0.00038452632
-0.00049798675
-0.00053173295
-0.00052726489
-0.00062953376
-0.00076050651
-0.00077543621
-0.00043687129
-0.00037940572
-0.00024569735
3.3994212e-05
-0.00011496667
-0.00012460097
-0.00058400377
-0.0008489925
-0.00078875908
-0.00052535785
-0.0004276153
-0.00033330658
-0.00025153318
0.00018600571
0.00029246453
4.7642883e-05
-0.00032387467
-0.00038447001
-9.312882e-05
1.1561013e-05
9.8921788e-05
3.6458459e-05
7.5985922e-05
0.00014828336
-0.00029962806
-9.7968465e-05
-0.00016633229
3.7883012e-06
9.5719943e-05
0.00019496284
0.00027180232
0.0001720264
-0.00032140949
9.1043822e-06
-0.00032895086
-0.00012745545
-5.156045e-05
-2.4134786e-05
-3.9327553e-05
6.5004032e-05
1.5188296e-05
9.1355483e-05
-0.00031376925
9.1182907e-05
-2.6512547e-05
0.00020357074
0.00025071235
0.0001736813
0.00019937433
7.7802364e-05
6.189464e-05
3.9786016e-05
-0.00019165753
-0.00051530398
-0.00034672223
-2.9372498e-05
0.0002728149
0.00018700669
0.00014397807
-1.4711476e-05
-0.00026254358
-0.00016305191
-0.00020375489
-0.00076460009
-0.00034876322
-0.00014506341
-8.7331697e-06
0.00032949009
0.00035238719
0.00011562932
-0.00013277617
-0.00016854389
0.00025396804
-0.00022678668
-0.00027162073
-1.040772e-05
0.00020293243
0.00066377356
0.00081236561
0.00066215435
0.00059342636
0.00056231852
0.00060835671
-0.00055501931
-0.00063202569
-0.00068385589
-0.00027090578
-7.4422675e-05
7.1395957e-05
0.00026147262
0.00051497398
0.0007253125
0.00053966798
-0.00073496187
-0.00087878004
-0.00093667975
-0.0010926405
-0.00093829885
-0.00075674481
-0.00049626718
-8.6418821e-05
3.4817221e-05
2.4031439e-05
-0.00062523407
-0.00083145346
-0.0010317556
-0.0013166163
-0.0012506949
-0.000873038
-0.00058036813
-0.00048439895
-0.00031944444
-0.00023483062
-0.00054186023
-0.00059888481
-0.00069020061
-0.00088305726
-0.00079003624
-0.00041921817
-0.00025895133
-0.00015829386
-0.00018409952
-1.4755415e-06
-0.00029143578
-0.00067176444
-0.00023264664
-0.00028501969
-0.00021771638
-0.00026032564
-0.00010726586
-1.075631e-05
4.9552965e-05
-0.00030526425
-5.3734746e-05
-0.00028517855
-8.0869884e-05
-3.503961e-06
-5.0178019e-05
-0.00012726647
-5.7368578e-05
-7.0857065e-05
6.4381233e-05
-0.00030740192
0.00017288208
6.5303178e-05
0.00024933968
0.00027905878
0.00022946864
0.00021865367
8.1047478e-05
0.00010778166
4.9712998e-05
-0.00012615832
-0.00024535964
-0.00013067367
7.7025217e-05
0.00040495485
0.00027643386
0.00023945989
2.8432224e-05
-0.00016060673
5.4157395e-05
6.9614484e-05
-0.00049443008
-0.00017379736
4.1197838e-05
9.5665769e-05
0.0005364841
0.00047463635
0.00027890186
0.00010273146
0.00022587267
0.00050356314
-4.8733996e-05
-7.8540238e-05
0.00015067479
0.00041674645
0.00087107051
0.00092080552
0.00099742187
0.0010641893
0.00087465566
0.00066559093
-0.00054868718
-0.00063929406
-0.00071418179
-0.00026032365
-0.00021012201
0.0002035423
0.00057267576
0.00081583161
0.00084486749
0.00063560717
-0.00098815658
-0.0012107882
-0.0012361582
-0.0014683707
-0.0011098066
-0.00068557219
-0.0004066373
-0.00016842943
4.2530272e-05
0.00010806431
-0.0011325148
-0.0012988229
-0.0015325816
-0.001670727
-0.0013891975
-0.0010584372
-0.00087205393
-0.00081693642
-0.00045459638
-0.00064779121
-0.0010279122
-0.0010749134
-0.0010021868
-0.0011279421
-0.0011249527
-0.00085575078
-0.00067578424
-0.00043829258
-0.00033490167
-0.00073389401
-0.00052416749
-0.00087507723
-0.00029394576
-0.00047424566
-0.0006925442
-0.00065447017
-0.00041605043
-0.00048532436
-0.00071165115
-0.0011166335
-8.6876015e-05
-0.00026274756
-7.6571209e-05
-7.7620596e-05
-0.0002159478
-0.00021712712
-0.00017225871
-0.00034592382
-0.00043825302
-0.00061591171
0.00022976678
8.032985e-05
0.00019794345
0.00023144793
0.00026455319
0.00023920522
2.4174862e-05
0.00014404801
7.6802639e-05
-0.00010482173
-0.00019293359
-0.00024066841
-0.00012072167
0.00040933296
0.00029720519
0.00017167383
-0.00010545426
-0.0001401545
4.3715431e-06
-8.4983895e-05
-0.00057739854
-0.00035072128
7.2603372e-05
0.00013000317
0.00044819771
0.00039257512
0.00034042836
3.1852494e-06
-7.5009008e-05
0.00010938752
-9.1511765e-05
8.4034184e-06
0.0003264154
0.00038399767
0.00092614016
0.0011243945
0.0011681611
0.00087697973
0.0004451235
0.00034279046
-0.00051314032
-0.00050150362
-0.00075079916
-0.00023893211
-1.0402118e-05
0.00040590379
0.0005054936
0.00059931111
0.00056125304
0.0003234382
-0.0010230041
-0.001383572
-0.0014256636
-0.0014913409
-0.0011836422
-0.00097544506
-0.00086044611
-0.00053011601
-0.00044972245
-0.00055523569
-0.0013891221
-0.0015318585
-0.0017009505
-0.001921247
-0.0019483648
-0.0017278398
-0.0015030356
-0.0015226032
-0.0014670553
-0.0015836059
-0.0012241084
-0.0011451663
-0.001114282
-0.001560603
-0.0018373191
-0.0015048439
-0.0014265948
-0.001468863
-0.0016658157
-0.0016640514
-0.00057413337
-0.00094743794
-0.00051896299
-0.0008412365
-0.0010531525
-0.0011171089
-0.0010782717
-0.001178111
-0.0012734593
-0.0019294671
-0.0001183909
-0.00030001547
-0.00017796149
-0.00017708483
-0.00024618396
-0.00033562757
-0.00031652597
-0.00041332803
-0.00031534899
-0.00085066627
0.00022867107
6.0069168e-05
0.00018645399
0.00023154826
0.00030463947
0.00026731985
4.3013774e-05
0.00013231788
7.3303387e-06
-0.00019548338
-0.00032718117
-0.00039050695
-0.00022684375
0.00039131166
0.00030695168
0.00016951432
-0.00027581436
-0.00049604762
-0.00048419665
-0.00061474782
-0.00075858537
-0.00050136711
2.3232845e-05
0.00016965615
0.00033927566
0.00022693323
-5.5558672e-05
-0.00062999527
-0.00078020048
-0.00054541616
-7.053538e-05
0.0001067433
0.00046326005
0.00042278492
0.00083615475
0.00091101168
0.00072420587
0.00019863731
-0.00021989243
-0.0002556016
-0.0003777067
-0.00032404844
-0.00059950301
-0.00026677117
-0.00011127708
6.2268582e-05
-2.3748275e-05
-0.00010717824
-0.00020880842
-0.0005192038
-0.0009361475
-0.0013285862
-0.0015189134
-0.001723419
-0.0016308609
-0.0016358905
-0.0015511268
-0.0013116769
-0.0013546366
-0.0016789196
-0.0014152886
-0.0016177913
-0.0020808504
-0.0024747198
-0.0027932238
-0.0026441658
-0.0024690107
-0.0027146363
-0.0027659192
-0.0029081417
-0.0012287907
-0.0012823158
-0.0014371726
-0.0020069574
-0.0023812709
-0.0021920172
-0.0021847804
-0.0024889256
-0.0030781241
-0.0026846233
-0.00065017215
-0.0011418755
-0.00076887352
-0.0010572959
-0.0012231121
-0.0014693212
-0.0015903539
-0.0016628261
-0.0017860511
-0.0017489254
-0.0001973943
-0.00040020867
-0.00028442893
-0.00024368563
-0.00030823512
-0.00045061585
-0.00052442344
-0.00054543085
-0.00026208924
-0.00052067986
0.00023181588
6.2661663e-05
0.00024998284
0.00029838975
0.00039305686
0.00033800798
0.00013652554
0.00014287283
-5.000364e-05
-0.00025589775
-0.00042195151
-0.00039470123
8.1323063e-06
0.00051809986
0.00047869986
0.00030022886
-0.00034291222
-0.00089631837
-0.0010149635
-0.001087862
-0.00083373721
-0.00048014556
7.9063085e-05
0.00023891951
0.00030532894
-4.9161514e-05
-0.00074310645
-0.0015481303
-0.0016414949
-0.0011108926
2.8010016e-05
0.00024262084
0.00049857715
0.0004688863
0.00050486179
0.00014452095
-0.00025711546
-0.00082395755
-0.0010351425
-0.00089785482
-0.00014365997
-8.4232764e-05
-0.00036153082
-0.00037231294
-0.00068589569
-0.00086338267
-0.00092498544
-0.0010646376
-0.0011605916
-0.0015913113
-0.00075654094
-0.0011413373
-0.0015781529
-0.002189773
-0.0023401291
-0.0024288624
-0.0024593167
-0.0024337939
-0.0026912149
-0.0029903517
-0.001365532
-0.0016582334
-0.0025620775
-0.0031572024
-0.0035305559
-0.0033584566
-0.0035354881
-0.0040034323
-0.0040961633
-0.0039790854
-0.001269664
-0.0015494577
-0.0019417144
-0.0024478454
-0.0027197413
-0.0026834507
-0.0029516397
-0.0032441263
-0.003258365
-0.002536699
-0.00087905459
-0.0014772114
-0.0010705997
-0.0010399736
-0.0011444965
-0.0015666468
-0.001701053
-0.0015422993
-0.00099362574
-0.00094086667
-0.00030274236
-0.00050863677
-0.0003513419
-0.00015490178
-0.00025981677
-0.00044204823
-0.00045924041
-0.00036399615
2.1869901e-05
-0.00032882334
0.00020528299
9.7883668e-05
0.00024283655
0.00034644806
0.00047489683
0.0003652064
9.9932132e-05
0.00012451811
-7.2226976e-05
-0.00032989097
-0.00041586702
-0.00035953729
0.00027367111
0.00086280932
0.00081108957
0.00040205757
-0.00053613437
-0.0012453127
-0.0013676233
-0.0014416717
-0.00071546924
-0.00034262257
0.00050687661
0.00077720412
0.00055281911
-0.00023229157
-0.0012331811
-0.0021435403
-0.0021896559
-0.0015512358
8.6241727e-05
0.00043433238
0.00062366021
0.00048027431
8.3679311e-05
-0.00069268322
-0.0011852022
-0.0014772948
-0.0014493323
-0.001335394
5.4576816e-05
8.2713396e-05
-0.00040617479
-0.00092678041
-0.0015791322
-0.0018437367
-0.0020137516
-0.0019623652
-0.0020223393
-0.0022079227
-0.00054760875
-0.0011100552
-0.0018948316
-0.0028960544
-0.003163713
-0.0033306748
-0.0034368821
-0.0033239194
-0.0040515013
-0.0040283375
-0.0014048579
-0.0017658903
-0.0030522272
-0.0036771387
-0.0038368383
-0.0037957659
-0.0038300828
-0.0041309167
-0.0043308354
-0.0042867829
-0.0014392427
-0.0016974824
-0.0022707321
-0.0026539566
-0.0025348608
-0.002662542
-0.0031494811
-0.0031632946
-0.0027462015
-0.0018427037
-0.0011204931
-0.0018021055
-0.0013168517
-0.0012098016
-0.0011749511
-0.0014553584
-0.0018793701
-0.0016112249
-0.00055877604
-0.00049013852
-0.00037456147
-0.00063222463
-0.00042392658
-0.00020661147
-0.00034796816
-0.00033033369
-0.00033252512
-0.00030096563
0.00026980761
-0.00025520635
-8.1757531e-05
0.00017430832
0.0001188107
-1.0742101e-05
0.00019036723
-2.9180643e-05
-0.00035424053
-0.00012238782
-0.00028091455
-0.00046616488
-0.00036984457
-6.899387e-05
3.2964635e-05
0.00032580919
0.00037133589
-0.00018136418
-0.001187003
-0.0015529208
-0.0014909925
-0.0020105809
-7.2976204e-05
-0.00035055087
0.00032182606
0.0010731429
0.00074206292
-0.00013549709
-0.0009972683
-0.0019676573
-0.0018270098
-0.0020777956
4.2126684e-05
0.00014946355
0.00038049919
0.00056969802
3.8325791e-05
-0.00093857355
-0.0013131364
-0.001919715
-0.001885336
-0.0014953732
-0.00020118359
-0.00022884493
-0.00070835901
-0.0014374821
-0.0022166295
-0.0025596194
-0.0026712322
-0.0029280887
-0.0029512489
-0.0026391576
-0.00064303901
-0.0014599517
-0.0022013781
-0.0031992787
-0.0035528377
-0.0036538833
-0.0036666942
-0.0035071007
-0.0036134577
-0.003701466
-0.0017251952
-0.0018650053
-0.0030967491
-0.0036971646
-0.0040778932
-0.0040656352
-0.0039311078
-0.0040968595
-0.0034607805
-0.0032631791
-0.0016732481
-0.0015632631
-0.0019772401
-0.0023930035
-0.0025494398
-0.0026730177
-0.0024962018
-0.0022026885
-0.0015121995
-0.00093858608
-0.00089412566
-0.0014097923
-0.0013517875
-0.0015199312
-0.00092744534
-0.0012309951
-0.0011218119
-0.00039731906
0.0001422948
5.8652975e-05
-0.00024807461
-0.00043332384
-0.00059446612
-0.00060051538
-0.00033449228
-0.00039245265
-0.0003931637
-0.00026072087
-1.0753748e-05
-0.00031648032
-0.0011006628
-0.00077917286
-0.00039604259
-0.00038097007
-0.00024831669
-0.00074080905
-0.0011209597
-0.00047928686
-0.00055689589
-0.00052792792
-0.0015520453
-0.00049511996
-0.00022661947
-0.00072504093
-0.0014732691
-0.0022229075
-0.0029529506
-0.0017587112
-0.0014014949
-0.0018661275
0.0013191774
0.0019164811
0.0010892534
3.0053203e-05
-0.0010894749
-0.0016357826
-0.0020708704
-0.0016666683
-0.0013491607
-0.0026409624
0.001492247
0.0017138433
0.00024560529
-0.00046488975
-0.00026724279
-0.0010533521
-0.0015734038
-0.0021630345
-0.0024688102
-0.0029364396
8.5576263e-05
-0.00045418645
-0.0014122941
-0.0021200237
-0.0020007579
-0.0016991005
-0.0017066172
-0.0027321918
-0.0037496111
-0.0030514317
-0.00085653514
-0.0021655059
-0.0023362276
-0.0031468977
-0.0036423767
-0.0028527577
-0.0028247811
-0.0031818172
-0.0038204336
-0.00270691
-0.0026002674
-0.0022079836
-0.0021360709
-0.0022388661
-0.0032457507
-0.0032719653
-0.0035748101
-0.0039971012
-0.0029357581
-0.001357311
-0.002592251
-0.0017461628
-0.0010408036
-0.0010244549
-0.0019362148
-0.003067452
-0.0029318646
-0.0024283938
-8.1574877e-05
0.0010333042
-0.00042726399
-0.00050022703
-0.00053468335
-0.0014745268
-0.0013080985
-0.0017937605
-0.00083318861
0.00084601916
0.0026285116
0.0018680121
0.00015654173
0.00018551333
-0.00015320897
-0.00067569022
-0.00046496903
-0.00021023555
0.00027738291
0.0008420561
0.0010206343
0.0003350587
0.00036468153
-0.00031746661
-0.00015751126
0.00038722912
0.00034316188
0.00029788049
8.18982e-05
-0.00066306806
-0.00071982322
-0.00031161958
-0.0012658551
-0.0020491391
0.00014629077
0.0022171687
0.0022757208
0.0012520888
0.0002420731
-0.0017877208
-0.00244856
-0.0013253394
-0.0029905069
-0.0019334636
0.0012758033
0.0023208821
0.0019117763
0.00085769017
-6.5518094e-05
-0.0012989493
-0.0021538895
-0.0010748739
-0.0010202546
-0.00026925238
0.0011091681
0.00036672645
-0.0010804914
-0.0014247309
-0.0011792677
-0.00081976196
-0.0012185214
-0.0013251322
0.00055802454
0.00042400669
-0.00040704933
-0.001039182
-0.0021985045
-0.0028995987
-0.0025138984
-0.0016664463
-0.0012577115
-0.0028843845
0.00046763043
7.5741553e-05
-0.0015660044
-0.001901555
-0.0016647913
-0.0022169461
-0.0022101069
-0.0020846842
-0.0020791859
-0.0033441163
0.00082958044
-0.00061184207
-0.0022102284