/*--------------------------------*- C++ -*----------------------------------*\
| =========                 |                                                 |
| \\      /  F ield         | OpenFOAM: The Open Source CFD Toolbox           |
|  \\    /   O peration     | Version:  v2106                                 |
|   \\  /    A nd           | Website:  www.openfoam.com                      |
|    \\/     M anipulation  |                                                 |
\*---------------------------------------------------------------------------*/
FoamFile
{
    version     2.0;
    format      ascii;
    arch        "LSB;label=32;scalar=64";
    class       volVectorField;
    location    "32.5";
    object      flux;
}
// * * * * * * * * * * * * * * * * * * * * * * * * * * * * * * * * * * * * * //

dimensions      [0 1 -1 1 0 0 0];

internalField   nonuniform List<vector> 
4000
(
(1.6009638e-06 1.6009638e-06 1.8495167)
(-7.8661056e-07 -4.5577634e-07 1.8495249)
(-3.9955639e-06 2.2303411e-08 1.8495133)
(-1.2441332e-06 1.8393706e-08 1.84951)
(-4.428309e-07 3.4835114e-08 1.8495083)
(3.3950126e-07 5.3988139e-08 1.8495083)
(9.3344971e-07 9.091949e-08 1.8495097)
(1.2083088e-06 1.7377983e-07 1.8495121)
(9.4844748e-07 3.3006828e-07 1.8495146)
(2.1858786e-07 4.3574069e-07 1.8495156)
(-4.5577634e-07 -7.8661056e-07 1.8495249)
(-3.1546012e-06 -3.1546012e-06 1.8495226)
(-3.2843089e-06 -2.3826009e-06 1.8495133)
(-1.2253356e-06 -2.3558365e-06 1.84951)
(-3.8943925e-07 -2.2991795e-06 1.8495084)
(4.2362782e-07 -2.2355239e-06 1.8495086)
(1.1131372e-06 -2.1352335e-06 1.8495102)
(1.5670319e-06 -1.9363925e-06 1.8495131)
(1.3413888e-06 -1.5309971e-06 1.8495166)
(3.2426027e-07 -1.0127677e-06 1.8495182)
(2.2303404e-08 -3.9955639e-06 1.8495133)
(-2.3826009e-06 -3.2843089e-06 1.8495133)
(-3.1967993e-06 -3.1967993e-06 1.8495043)
(-1.1607117e-06 -3.1280709e-06 1.8495012)
(-3.2251831e-07 -3.0585115e-06 1.8494997)
(5.0344725e-07 -2.981711e-06 1.8494999)
(1.2325811e-06 -2.8880872e-06 1.8495018)
(1.8125451e-06 -2.7618643e-06 1.849505)
(1.8720723e-06 -2.5511144e-06 1.8495092)
(5.6407411e-07 -2.1806426e-06 1.8495122)
(1.8393698e-08 -1.2441332e-06 1.84951)
(-2.3558365e-06 -1.2253356e-06 1.84951)
(-3.1280709e-06 -1.1607117e-06 1.8495012)
(-1.0870479e-06 -1.0870479e-06 1.8494982)
(-2.4307933e-07 -1.0106924e-06 1.8494969)
(5.9405217e-07 -9.2801336e-07 1.8494973)
(1.3329839e-06 -8.3415395e-07 1.8494993)
(1.9040047e-06 -7.3208267e-07 1.8495027)
(1.9226105e-06 -6.4286854e-07 1.8495071)
(5.7124149e-07 -6.0192145e-07 1.8495101)
(3.4835107e-08 -4.4283091e-07 1.8495083)
(-2.2991795e-06 -3.8943926e-07 1.8495084)
(-3.0585115e-06 -3.2251829e-07 1.8494997)
(-1.0106924e-06 -2.4307932e-07 1.8494969)
(-1.6348376e-07 -1.6348377e-07 1.8494957)
(6.7998573e-07 -8.4360245e-08 1.8494963)
(1.4285118e-06 -2.536062e-09 1.8494985)
(2.0038306e-06 8.2243656e-08 1.8495021)
(2.0022335e-06 1.6132055e-07 1.8495066)
(5.9137217e-07 2.1018421e-07 1.8495098)
(5.3988131e-08 3.3950125e-07 1.8495083)
(-2.2355239e-06 4.2362783e-07 1.8495086)
(-2.9817109e-06 5.0344726e-07 1.8494999)
(-9.2801337e-07 5.9405218e-07 1.8494973)
(-8.4360248e-08 6.7998573e-07 1.8494963)
(7.5499988e-07 7.5499987e-07 1.849497)
(1.4995878e-06 8.2317597e-07 1.8494993)
(2.0678613e-06 8.832431e-07 1.8495031)
(2.0505511e-06 9.3147909e-07 1.8495078)
(6.0381727e-07 9.6015964e-07 1.849511)
(9.0919496e-08 9.3344971e-07 1.8495097)
(-2.1352335e-06 1.1131372e-06 1.8495102)
(-2.8880872e-06 1.2325811e-06 1.8495018)
(-8.3415396e-07 1.3329839e-06 1.8494993)
(-2.5360691e-09 1.4285118e-06 1.8494985)
(8.2317597e-07 1.4995878e-06 1.8494993)
(1.556755e-06 1.556755e-06 1.8495018)
(2.1121337e-06 1.6001191e-06 1.8495057)
(2.0791501e-06 1.6274999e-06 1.8495104)
(6.1049253e-07 1.6386809e-06 1.8495137)
(1.7377983e-07 1.2083088e-06 1.8495121)
(-1.9363925e-06 1.5670319e-06 1.8495131)
(-2.7618643e-06 1.8125451e-06 1.849505)
(-7.3208268e-07 1.9040047e-06 1.8495027)
(8.2243654e-08 2.0038306e-06 1.8495021)
(8.8324309e-07 2.0678613e-06 1.8495031)
(1.6001191e-06 2.1121337e-06 1.8495057)
(2.1386062e-06 2.1386062e-06 1.8495096)
(2.0891128e-06 2.1427785e-06 1.8495144)
(6.1127128e-07 2.1258875e-06 1.8495177)
(3.3006829e-07 9.4844748e-07 1.8495146)
(-1.5309971e-06 1.3413888e-06 1.8495166)
(-2.5511144e-06 1.8720723e-06 1.8495092)
(-6.4286853e-07 1.9226105e-06 1.8495071)
(1.6132054e-07 2.0022335e-06 1.8495066)
(9.3147909e-07 2.050551e-06 1.8495078)
(1.6274999e-06 2.0791501e-06 1.8495104)
(2.1427785e-06 2.0891128e-06 1.8495144)
(2.0664314e-06 2.0664314e-06 1.8495192)
(5.9923188e-07 1.9931862e-06 1.8495224)
(4.3574069e-07 2.1858786e-07 1.8495156)
(-1.0127677e-06 3.2426027e-07 1.8495182)
(-2.1806426e-06 5.6407411e-07 1.8495122)
(-6.0192146e-07 5.7124149e-07 1.8495101)
(2.1018419e-07 5.9137216e-07 1.8495098)
(9.6015964e-07 6.0381726e-07 1.849511)
(1.6386809e-06 6.1049252e-07 1.8495137)
(2.1258875e-06 6.1127127e-07 1.8495177)
(1.9931862e-06 5.9923188e-07 1.8495224)
(5.6244112e-07 5.6244112e-07 1.8495251)
(3.389845e-06 3.389845e-06 1.8496858)
(-2.7779474e-06 -9.1057896e-07 1.8496895)
(-1.035484e-05 -1.516554e-09 1.8496813)
(-3.7316809e-06 1.8239793e-08 1.8496781)
(-1.2130653e-06 6.3885111e-08 1.8496767)
(1.1165127e-06 1.1976341e-07 1.8496769)
(2.9287966e-06 2.2932606e-07 1.8496785)
(3.7340367e-06 4.9039096e-07 1.8496812)
(2.4399208e-06 1.0227445e-06 1.8496841)
(3.6310556e-07 1.2517766e-06 1.849684)
(-9.1057897e-07 -2.7779474e-06 1.8496895)
(-7.8649897e-06 -7.8649897e-06 1.8496878)
(-8.961612e-06 -6.2820345e-06 1.8496806)
(-3.6335784e-06 -6.1463137e-06 1.8496775)
(-1.0607799e-06 -5.9817477e-06 1.8496761)
(1.3646742e-06 -5.7927044e-06 1.8496764)
(3.4847379e-06 -5.4931355e-06 1.8496782)
(4.9241643e-06 -4.8766671e-06 1.8496814)
(3.5819993e-06 -3.5402619e-06 1.8496856)
(5.9213763e-07 -2.1383893e-06 1.8496862)
(-1.5165574e-09 -1.035484e-05 1.8496813)
(-6.2820346e-06 -8.961612e-06 1.8496806)
(-8.6361641e-06 -8.6361641e-06 1.8496737)
(-3.431394e-06 -8.4217989e-06 1.8496707)
(-8.5945601e-07 -8.2139332e-06 1.8496694)
(1.6051249e-06 -7.9837851e-06 1.8496698)
(3.844834e-06 -7.7027373e-06 1.8496719)
(5.6869103e-06 -7.3221957e-06 1.8496754)
(5.1781986e-06 -6.6495402e-06 1.8496803)
(1.2976873e-06 -5.5138173e-06 1.8496822)
(1.82398e-08 -3.7316809e-06 1.8496781)
(-6.1463137e-06 -3.6335784e-06 1.8496775)
(-8.4217989e-06 -3.431394e-06 1.8496707)
(-3.2113474e-06 -3.2113474e-06 1.8496678)
(-6.2276608e-07 -2.9838273e-06 1.8496667)
(1.87587e-06 -2.7369711e-06 1.8496673)
(4.1463273e-06 -2.4566786e-06 1.8496695)
(5.9773614e-06 -2.1531462e-06 1.8496733)
(5.3903777e-06 -1.8776601e-06 1.8496783)
(1.3492862e-06 -1.7206014e-06 1.8496804)
(6.3885111e-08 -1.2130653e-06 1.8496767)
(-5.9817477e-06 -1.0607799e-06 1.8496761)
(-8.2139331e-06 -8.59456e-07 1.8496694)
(-2.9838273e-06 -6.2276607e-07 1.8496667)
(-3.8507977e-07 -3.8507976e-07 1.8496658)
(2.1322735e-06 -1.4821149e-07 1.8496665)
(4.4286589e-06 9.6579598e-08 1.8496689)
(6.2659289e-06 3.4829957e-07 1.8496728)
(5.6107434e-06 5.7817505e-07 1.8496781)
(1.4023931e-06 7.1094071e-07 1.8496803)
(1.1976341e-07 1.1165127e-06 1.8496769)
(-5.7927044e-06 1.3646742e-06 1.8496764)
(-7.9837851e-06 1.6051248e-06 1.8496698)
(-2.7369712e-06 1.87587e-06 1.8496673)
(-1.482115e-07 2.1322735e-06 1.8496665)
(2.3575294e-06 2.3575294e-06 1.8496674)
(4.6428384e-06 2.5622077e-06 1.8496699)
(6.4589568e-06 2.7433975e-06 1.849674)
(5.7530188e-06 2.8887837e-06 1.8496794)
(1.4377967e-06 2.9714833e-06 1.8496816)
(2.2932607e-07 2.9287966e-06 1.8496785)
(-5.4931355e-06 3.4847379e-06 1.8496782)
(-7.7027373e-06 3.8448339e-06 1.8496719)
(-2.4566786e-06 4.1463273e-06 1.8496695)
(9.6579598e-08 4.4286589e-06 1.8496689)
(2.5622077e-06 4.6428384e-06 1.8496699)
(4.814527e-06 4.814527e-06 1.8496726)
(6.5925049e-06 4.9450678e-06 1.8496768)
(5.8388292e-06 5.0262512e-06 1.8496822)
(1.4575262e-06 5.0539774e-06 1.8496845)
(4.9039096e-07 3.7340367e-06 1.8496812)
(-4.8766671e-06 4.9241644e-06 1.8496814)
(-7.3221957e-06 5.6869103e-06 1.8496754)
(-2.1531462e-06 5.9773614e-06 1.8496733)
(3.4829956e-07 6.2659289e-06 1.8496728)
(2.7433975e-06 6.4589568e-06 1.849674)
(4.9450678e-06 6.5925049e-06 1.8496768)
(6.670681e-06 6.670681e-06 1.849681)
(5.8619283e-06 6.6688043e-06 1.8496865)
(1.4562808e-06 6.565472e-06 1.8496888)
(1.0227445e-06 2.4399208e-06 1.8496841)
(-3.5402619e-06 3.5819993e-06 1.8496856)
(-6.6495402e-06 5.1781986e-06 1.8496803)
(-1.8776601e-06 5.3903776e-06 1.8496783)
(5.7817502e-07 5.6107434e-06 1.8496781)
(2.8887837e-06 5.7530188e-06 1.8496794)
(5.0262512e-06 5.8388292e-06 1.8496822)
(6.6688043e-06 5.8619283e-06 1.8496865)
(5.7336203e-06 5.7336203e-06 1.849692)
(1.388638e-06 5.2045198e-06 1.849694)
(1.2517766e-06 3.6310555e-07 1.849684)
(-2.1383893e-06 5.9213763e-07 1.8496862)
(-5.5138173e-06 1.2976873e-06 1.8496822)
(-1.7206014e-06 1.3492862e-06 1.8496804)
(7.109407e-07 1.4023931e-06 1.8496803)
(2.9714833e-06 1.4377967e-06 1.8496816)
(5.0539774e-06 1.4575261e-06 1.8496845)
(6.5654721e-06 1.4562808e-06 1.8496888)
(5.2045198e-06 1.388638e-06 1.849694)
(1.1035472e-06 1.1035472e-06 1.8496944)
(4.1061894e-06 4.1061894e-06 1.849997)
(-5.2379859e-06 -1.6343073e-06 1.8499991)
(-1.5397312e-05 -4.8324038e-07 1.8499924)
(-5.9009234e-06 -4.3862212e-07 1.8499896)
(-1.7318621e-06 -3.6778386e-07 1.8499885)
(2.13608e-06 -2.7966508e-07 1.8499889)
(5.2822488e-06 -1.0747879e-07 1.8499907)
(6.798625e-06 3.310339e-07 1.8499939)
(3.7550611e-06 1.3570078e-06 1.8499975)
(1.8108244e-07 1.8882662e-06 1.8499973)
(-1.6343073e-06 -5.2379859e-06 1.8499991)
(-1.2122131e-05 -1.2122131e-05 1.8499972)
(-1.3603785e-05 -1.0052595e-05 1.8499912)
(-5.7277386e-06 -9.8123547e-06 1.8499885)
(-1.4934265e-06 -9.5479804e-06 1.8499874)
(2.5265376e-06 -9.2397929e-06 1.8499879)
(6.1982972e-06 -8.7569605e-06 1.8499899)
(8.9953549e-06 -7.7412785e-06 1.8499936)
(6.0909095e-06 -5.3277572e-06 1.8499986)
(7.1234088e-07 -2.8569097e-06 1.8499991)
(-4.8324038e-07 -1.5397312e-05 1.8499924)
(-1.0052595e-05 -1.3603785e-05 1.8499912)
(-1.3087537e-05 -1.3087537e-05 1.8499855)
(-5.3963089e-06 -1.2737439e-05 1.8499829)
(-1.1593004e-06 -1.2395673e-05 1.8499819)
(2.9270998e-06 -1.201278e-05 1.8499825)
(6.7807632e-06 -1.1544063e-05 1.8499848)
(1.0227828e-05 -1.0922965e-05 1.8499887)
(8.6394298e-06 -9.8054133e-06 1.8499943)
(1.8283141e-06 -7.9616895e-06 1.8499961)
(-4.3862211e-07 -5.9009234e-06 1.8499896)
(-9.8123547e-06 -5.7277386e-06 1.8499885)
(-1.2737439e-05 -5.3963089e-06 1.8499829)
(-5.0358753e-06 -5.0358753e-06 1.8499804)
(-7.6876788e-07 -4.6612574e-06 1.8499796)
(3.3781477e-06 -4.2527829e-06 1.8499804)
(7.2881123e-06 -3.7865336e-06 1.8499828)
(1.0734005e-05 -3.2810867e-06 1.8499869)
(9.052185e-06 -2.8098713e-06 1.8499928)
(1.9414901e-06 -2.5121655e-06 1.8499947)
(-3.6778386e-07 -1.7318621e-06 1.8499885)
(-9.5479804e-06 -1.4934265e-06 1.8499874)
(-1.2395673e-05 -1.1593004e-06 1.8499819)
(-4.6612574e-06 -7.6876787e-07 1.8499796)
(-3.76208e-07 -3.7620798e-07 1.8499789)
(3.8018236e-06 1.6275685e-08 1.8499798)
(7.7524594e-06 4.2194923e-07 1.8499825)
(1.1204491e-05 8.3739603e-07 1.8499868)
(9.408351e-06 1.2138884e-06 1.8499928)
(2.0267846e-06 1.4280431e-06 1.8499948)
(-2.7966507e-07 2.13608e-06 1.8499889)
(-9.2397929e-06 2.5265376e-06 1.8499879)
(-1.201278e-05 2.9270998e-06 1.8499825)
(-4.2527829e-06 3.3781477e-06 1.8499804)
(1.6275673e-08 3.8018236e-06 1.8499798)
(4.1763049e-06 4.1763049e-06 1.849981)
(8.1092327e-06 4.5171137e-06 1.8499837)
(1.1525944e-05 4.8201453e-06 1.8499882)
(9.642832e-06 5.0639848e-06 1.8499943)
(2.0842599e-06 5.2008609e-06 1.8499964)
(-1.0747879e-07 5.2822488e-06 1.8499907)
(-8.7569605e-06 6.1982972e-06 1.8499899)
(-1.1544063e-05 6.7807632e-06 1.8499848)
(-3.7865336e-06 7.2881123e-06 1.8499828)
(4.2194924e-07 7.7524594e-06 1.8499825)
(4.5171137e-06 8.1092327e-06 1.8499837)
(8.3962999e-06 8.3962999e-06 1.8499866)
(1.1751362e-05 8.6174524e-06 1.8499911)
(9.7890666e-06 8.7574028e-06 1.8499974)
(2.1180354e-06 8.8030297e-06 1.8499995)
(3.3103391e-07 6.798625e-06 1.8499939)
(-7.7412784e-06 8.9953549e-06 1.8499936)
(-1.0922965e-05 1.0227828e-05 1.8499887)
(-3.2810867e-06 1.0734005e-05 1.8499869)
(8.3739603e-07 1.1204491e-05 1.8499868)
(4.8201453e-06 1.1525944e-05 1.8499882)
(8.6174524e-06 1.1751362e-05 1.8499911)
(1.1887047e-05 1.1887047e-05 1.8499958)
(9.8284094e-06 1.1872552e-05 1.8500021)
(2.1146778e-06 1.1601764e-05 1.8500042)
(1.3570078e-06 3.7550611e-06 1.8499975)
(-5.3277572e-06 6.0909095e-06 1.8499986)
(-9.8054133e-06 8.6394298e-06 1.8499943)
(-2.8098713e-06 9.052185e-06 1.8499928)
(1.2138884e-06 9.408351e-06 1.8499928)
(5.0639848e-06 9.642832e-06 1.8499943)
(8.7574028e-06 9.7890666e-06 1.8499974)
(1.1872552e-05 9.8284094e-06 1.8500021)
(9.5037842e-06 9.5037842e-06 1.8500083)
(1.9375101e-06 7.5738262e-06 1.8500102)
(1.8882662e-06 1.8108245e-07 1.8499973)
(-2.8569097e-06 7.1234089e-07 1.8499991)
(-7.9616896e-06 1.8283141e-06 1.8499961)
(-2.5121655e-06 1.9414901e-06 1.8499947)
(1.4280431e-06 2.0267846e-06 1.8499948)
(5.2008609e-06 2.0842599e-06 1.8499964)
(8.8030297e-06 2.1180354e-06 1.8499995)
(1.1601764e-05 2.1146778e-06 1.8500042)
(7.5738262e-06 1.93751e-06 1.8500102)
(8.2803917e-07 8.2803916e-07 1.850009)
(4.7990757e-06 4.7990757e-06 1.8504612)
(-7.3255938e-06 -2.1787091e-06 1.8504633)
(-1.9819016e-05 -8.1038974e-07 1.8504573)
(-7.7022157e-06 -7.4287066e-07 1.8504548)
(-1.9711031e-06 -6.4821497e-07 1.850454)
(3.4082634e-06 -5.2911322e-07 1.8504546)
(7.9573107e-06 -3.0129589e-07 1.8504567)
(1.0450932e-05 2.8664833e-07 1.8504602)
(5.8208237e-06 1.7612707e-06 1.8504642)
(2.3682833e-07 2.4733537e-06 1.8504646)
(-2.1787091e-06 -7.3255938e-06 1.8504633)
(-1.5739792e-05 -1.5739792e-05 1.8504618)
(-1.7665258e-05 -1.32387e-05 1.8504564)
(-7.4589535e-06 -1.2902988e-05 1.850454)
(-1.6504669e-06 -1.2543779e-05 1.8504532)
(3.928642e-06 -1.2119071e-05 1.850454)
(9.180953e-06 -1.1461485e-05 1.8504563)
(1.3544782e-05 -1.0088006e-05 1.8504601)
(9.1008819e-06 -6.6624577e-06 1.8504655)
(9.4891142e-07 -3.345612e-06 1.8504663)
(-8.1038975e-07 -1.9819016e-05 1.8504573)
(-1.32387e-05 -1.7665258e-05 1.8504564)
(-1.6982212e-05 -1.6982212e-05 1.8504512)
(-7.0072946e-06 -1.6506455e-05 1.850449)
(-1.1871864e-06 -1.6036461e-05 1.8504483)
(4.4905575e-06 -1.5503856e-05 1.8504492)
(9.9883755e-06 -1.4847257e-05 1.8504516)
(1.5249959e-05 -1.3987355e-05 1.8504558)
(1.2563218e-05 -1.2420767e-05 1.8504619)
(2.4480588e-06 -9.9051911e-06 1.8504638)
(-7.4287065e-07 -7.7022157e-06 1.8504548)
(-1.2902988e-05 -7.4589535e-06 1.850454)
(-1.6506455e-05 -7.0072946e-06 1.850449)
(-6.5132025e-06 -6.5132025e-06 1.8504469)
(-6.4786816e-07 -5.996328e-06 1.8504463)
(5.1178451e-06 -5.4303231e-06 1.8504474)
(1.0697454e-05 -4.7814727e-06 1.85045)
(1.5971272e-05 -4.0787168e-06 1.8504544)
(1.3183045e-05 -3.4122363e-06 1.8504607)
(2.6259623e-06 -2.9689293e-06 1.8504628)
(-6.4821496e-07 -1.9711031e-06 1.850454)
(-1.2543779e-05 -1.6504669e-06 1.8504532)
(-1.6036461e-05 -1.1871864e-06 1.8504483)
(-5.996328e-06 -6.4786815e-07 1.8504463)
(-1.0430711e-07 -1.0430707e-07 1.8504459)
(5.7054128e-06 4.4051222e-07 1.8504471)
(1.1339982e-05 1.0043156e-06 1.8504499)
(1.6619196e-05 1.5802629e-06 1.8504545)
(1.3673005e-05 2.1002567e-06 1.8504609)
(2.7435968e-06 2.3955597e-06 1.8504631)
(-5.2911322e-07 3.4082634e-06 1.8504546)
(-1.2119071e-05 3.928642e-06 1.850454)
(-1.5503856e-05 4.4905575e-06 1.8504492)
(-5.4303232e-06 5.1178451e-06 1.8504474)
(4.4051221e-07 5.7054128e-06 1.8504471)
(6.2264678e-06 6.2264678e-06 1.8504485)
(1.1837205e-05 6.7014852e-06 1.8504514)
(1.7067213e-05 7.1254544e-06 1.8504561)
(1.3998342e-05 7.4683682e-06 1.8504627)
(2.8228309e-06 7.6613742e-06 1.8504649)
(-3.0129588e-07 7.9573107e-06 1.8504567)
(-1.1461485e-05 9.180953e-06 1.8504563)
(-1.4847257e-05 9.9883755e-06 1.8504516)
(-4.7814727e-06 1.0697454e-05 1.85045)
(1.0043156e-06 1.1339982e-05 1.8504499)
(6.7014852e-06 1.1837205e-05 1.8504514)
(1.2238968e-05 1.2238968e-05 1.8504545)
(1.7386079e-05 1.2553687e-05 1.8504593)
(1.4208925e-05 1.2763388e-05 1.8504659)
(2.8722674e-06 1.2845929e-05 1.8504682)
(2.8664834e-07 1.0450932e-05 1.8504602)
(-1.0088006e-05 1.3544782e-05 1.8504601)
(-1.3987355e-05 1.5249959e-05 1.8504558)
(-4.0787168e-06 1.5971272e-05 1.8504544)
(1.5802629e-06 1.6619196e-05 1.8504545)
(7.1254544e-06 1.7067213e-05 1.8504561)
(1.2553687e-05 1.7386079e-05 1.8504593)
(1.7591633e-05 1.7591633e-05 1.8504641)
(1.4290584e-05 1.7603659e-05 1.8504708)
(2.8778585e-06 1.7218374e-05 1.8504732)
(1.7612707e-06 5.8208237e-06 1.8504642)
(-6.6624577e-06 9.1008819e-06 1.8504655)
(-1.2420767e-05 1.2563218e-05 1.8504619)
(-3.4122363e-06 1.3183045e-05 1.8504607)
(2.1002567e-06 1.3673005e-05 1.8504609)
(7.4683682e-06 1.3998342e-05 1.8504627)
(1.2763388e-05 1.4208925e-05 1.8504659)
(1.7603659e-05 1.4290584e-05 1.8504708)
(1.3835666e-05 1.3835666e-05 1.8504776)
(2.6154106e-06 9.9702242e-06 1.8504797)
(2.4733538e-06 2.3682833e-07 1.8504646)
(-3.345612e-06 9.4891143e-07 1.8504663)
(-9.9051912e-06 2.4480588e-06 1.8504638)
(-2.9689293e-06 2.6259623e-06 1.8504628)
(2.3955597e-06 2.7435968e-06 1.8504631)
(7.6613742e-06 2.8228309e-06 1.8504649)
(1.2845929e-05 2.8722674e-06 1.8504682)
(1.7218374e-05 2.8778585e-06 1.8504732)
(9.9702243e-06 2.6154106e-06 1.8504797)
(3.0089719e-07 3.0089718e-07 1.8504781)
(5.4909473e-06 5.4909473e-06 1.8510779)
(-9.177161e-06 -2.6447153e-06 1.8510799)
(-2.3830429e-05 -1.0647858e-06 1.8510743)
(-9.1896952e-06 -9.7459187e-07 1.8510722)
(-1.9532166e-06 -8.568086e-07 1.8510716)
(4.8965362e-06 -7.0662768e-07 1.8510725)
(1.0824081e-05 -4.2222642e-07 1.8510748)
(1.4319052e-05 3.1154973e-07 1.8510784)
(8.1667618e-06 2.221361e-06 1.8510826)
(3.9659107e-07 3.060732e-06 1.8510832)
(-2.6447153e-06 -9.1771609e-06 1.8510799)
(-1.901076e-05 -1.901076e-05 1.8510786)
(-2.1325244e-05 -1.6090993e-05 1.8510736)
(-8.8777295e-06 -1.566313e-05 1.8510716)
(-1.5512703e-06 -1.5212659e-05 1.8510711)
(5.5484095e-06 -1.4673634e-05 1.851072)
(1.2351347e-05 -1.3841555e-05 1.8510745)
(1.8284433e-05 -1.2117932e-05 1.8510785)
(1.2290535e-05 -7.7020792e-06 1.851084)
(1.235962e-06 -3.6512377e-06 1.8510849)
(-1.0647857e-06 -2.3830429e-05 1.8510743)
(-1.6090993e-05 -2.1325243e-05 1.8510736)
(-2.0482798e-05 -2.0482798e-05 1.8510689)
(-8.3113611e-06 -1.9887186e-05 1.851067)
(-9.6372073e-07 -1.9294032e-05 1.8510665)
(6.2676401e-06 -1.86166e-05 1.8510676)
(1.3379783e-05 -1.7776433e-05 1.8510703)
(2.0458528e-05 -1.6683295e-05 1.8510745)
(1.6633456e-05 -1.4670001e-05 1.8510807)
(3.0971521e-06 -1.1516416e-05 1.8510827)
(-9.7459188e-07 -9.1896952e-06 1.8510722)
(-1.566313e-05 -8.8777295e-06 1.8510716)
(-1.9887186e-05 -8.3113611e-06 1.851067)
(-7.6889638e-06 -7.6889638e-06 1.8510652)
(-2.8068415e-07 -7.0346841e-06 1.8510649)
(7.0660087e-06 -6.3159115e-06 1.8510661)
(1.4284653e-05 -5.4892814e-06 1.8510689)
(2.1390866e-05 -4.5952254e-06 1.8510734)
(1.7457413e-05 -3.7365876e-06 1.8510798)
(3.3383515e-06 -3.1506386e-06 1.851082)
(-8.5680861e-07 -1.9532166e-06 1.8510716)
(-1.5212659e-05 -1.5512703e-06 1.8510711)
(-1.9294032e-05 -9.6372071e-07 1.8510665)
(-7.0346842e-06 -2.8068412e-07 1.8510649)
(4.0933163e-07 4.0933163e-07 1.8510647)
(7.8130428e-06 1.1022658e-06 1.8510661)
(1.5100469e-05 1.8202059e-06 1.8510691)
(2.2211222e-05 2.5521657e-06 1.8510737)
(1.8078043e-05 3.2115928e-06 1.8510803)
(3.4877847e-06 3.58612e-06 1.8510826)
(-7.0662767e-07 4.8965362e-06 1.8510725)
(-1.4673634e-05 5.5484095e-06 1.851072)
(-1.86166e-05 6.2676401e-06 1.8510676)
(-6.3159115e-06 7.0660087e-06 1.8510661)
(1.1022658e-06 7.8130428e-06 1.8510661)
(8.476883e-06 8.476883e-06 1.8510676)
(1.5734553e-05 9.0827213e-06 1.8510707)
(2.2782252e-05 9.6242328e-06 1.8510755)
(1.8491368e-05 1.0062783e-05 1.8510822)
(3.5880363e-06 1.0309126e-05 1.8510845)
(-4.2222641e-07 1.0824081e-05 1.8510748)
(-1.3841555e-05 1.2351347e-05 1.8510745)
(-1.7776433e-05 1.3379783e-05 1.8510703)
(-5.4892815e-06 1.4284653e-05 1.8510689)
(1.8202059e-06 1.5100469e-05 1.8510691)
(9.0827213e-06 1.5734553e-05 1.8510707)
(1.6247819e-05 1.6247819e-05 1.851074)
(2.3191284e-05 1.665279e-05 1.8510789)
(1.8762936e-05 1.6930081e-05 1.8510856)
(3.6520133e-06 1.705079e-05 1.851088)
(3.1154974e-07 1.4319052e-05 1.8510784)
(-1.2117932e-05 1.8284433e-05 1.8510785)
(-1.6683295e-05 2.0458528e-05 1.8510745)
(-4.5952254e-06 2.1390865e-05 1.8510734)
(2.5521657e-06 2.2211222e-05 1.8510737)
(9.6242328e-06 2.2782252e-05 1.8510755)
(1.665279e-05 2.3191284e-05 1.8510789)
(2.3464515e-05 2.3464515e-05 1.8510838)
(1.8889368e-05 2.3515665e-05 1.8510906)
(3.6685088e-06 2.3069102e-05 1.851093)
(2.2213611e-06 8.1667618e-06 1.8510826)
(-7.7020792e-06 1.2290535e-05 1.851084)
(-1.4670001e-05 1.6633456e-05 1.8510807)
(-3.7365876e-06 1.7457413e-05 1.8510798)
(3.2115928e-06 1.8078043e-05 1.8510803)
(1.0062783e-05 1.8491368e-05 1.8510822)
(1.6930081e-05 1.8762936e-05 1.8510856)
(2.3515665e-05 1.8889368e-05 1.8510906)
(1.8367524e-05 1.8367524e-05 1.8510975)
(3.354305e-06 1.2459621e-05 1.8510997)
(3.060732e-06 3.9659108e-07 1.8510832)
(-3.6512377e-06 1.235962e-06 1.8510849)
(-1.1516416e-05 3.0971521e-06 1.8510827)
(-3.1506387e-06 3.3383515e-06 1.851082)
(3.58612e-06 3.4877847e-06 1.8510826)
(1.0309126e-05 3.5880363e-06 1.8510845)
(1.705079e-05 3.6520133e-06 1.851088)
(2.3069102e-05 3.6685088e-06 1.851093)
(1.2459621e-05 3.354305e-06 1.8510997)
(-2.7009301e-07 -2.7009303e-07 1.851098)
(6.1780942e-06 6.1780942e-06 1.8518425)
(-1.0839975e-05 -3.0585077e-06 1.8518446)
(-2.7505304e-05 -1.2750572e-06 1.8518394)
(-1.0417212e-05 -1.1625056e-06 1.8518375)
(-1.7193336e-06 -1.0225335e-06 1.8518371)
(6.5589346e-06 -8.4247609e-07 1.8518382)
(1.3825483e-05 -5.0304068e-07 1.8518406)
(1.8289276e-05 3.7232073e-07 1.8518442)
(1.0629243e-05 2.7060476e-06 1.8518485)
(6.0413777e-07 3.6540819e-06 1.8518492)
(-3.0585077e-06 -1.0839975e-05 1.8518446)
(-2.2019702e-05 -2.2019702e-05 1.8518434)
(-2.4661301e-05 -1.8696306e-05 1.8518388)
(-1.0038427e-05 -1.8178826e-05 1.851837)
(-1.2392893e-06 -1.764064e-05 1.8518367)
(7.3381738e-06 -1.6991593e-05 1.8518378)
(1.5647679e-05 -1.599033e-05 1.8518404)
(2.3102908e-05 -1.3927411e-05 1.8518445)
(1.5551885e-05 -8.5454617e-06 1.85185)
(1.5521721e-06 -3.8131857e-06 1.851851)
(-1.2750572e-06 -2.7505304e-05 1.8518394)
(-1.8696306e-05 -2.4661301e-05 1.8518388)
(-2.3664428e-05 -2.3664428e-05 1.8518344)
(-9.3615457e-06 -2.2953394e-05 1.8518327)
(-5.3210059e-07 -2.2241686e-05 1.8518325)
(8.2092447e-06 -2.1424634e-05 1.8518337)
(1.6889665e-05 -2.0407e-05 1.8518365)
(2.5734144e-05 -1.9088892e-05 1.8518408)
(2.0743468e-05 -1.6638615e-05 1.851847)
(3.7589884e-06 -1.2875077e-05 1.851849)
(-1.1625056e-06 -1.0417212e-05 1.8518375)
(-1.8178826e-05 -1.0038427e-05 1.851837)
(-2.2953394e-05 -9.3615457e-06 1.8518327)
(-8.6156839e-06 -8.6156839e-06 1.8518312)
(2.8947046e-07 -7.8289872e-06 1.8518311)
(9.1728592e-06 -6.9627376e-06 1.8518325)
(1.798342e-05 -5.9641491e-06 1.8518354)
(2.6871294e-05 -4.8856851e-06 1.8518399)
(2.17657e-05 -3.8399812e-06 1.8518463)
(4.0611974e-06 -3.1163135e-06 1.8518485)
(-1.0225335e-06 -1.7193336e-06 1.8518371)
(-1.764064e-05 -1.2392893e-06 1.8518367)
(-2.2241686e-05 -5.3210058e-07 1.8518325)
(-7.8289872e-06 2.8947047e-07 1.8518311)
(1.1208458e-06 1.1208458e-06 1.8518311)
(1.0074083e-05 1.9569322e-06 1.8518326)
(1.8966718e-05 2.8241051e-06 1.8518357)
(2.7858312e-05 3.7068605e-06 1.8518404)
(2.251284e-05 4.5011969e-06 1.851847)
(4.2414336e-06 4.9523814e-06 1.8518492)
(-8.4247608e-07 6.5589346e-06 1.8518382)
(-1.6991593e-05 7.3381738e-06 1.8518378)
(-2.1424634e-05 8.2092447e-06 1.8518337)
(-6.9627376e-06 9.1728592e-06 1.8518325)
(1.9569321e-06 1.0074083e-05 1.8518326)
(1.0876119e-05 1.0876119e-05 1.8518343)
(1.9733349e-05 1.1608731e-05 1.8518375)
(2.8548385e-05 1.2264017e-05 1.8518423)
(2.3011221e-05 1.2794616e-05 1.851849)
(4.3619871e-06 1.3091344e-05 1.8518513)
(-5.0304068e-07 1.3825483e-05 1.8518406)
(-1.599033e-05 1.5647679e-05 1.8518404)
(-2.0407e-05 1.6889665e-05 1.8518365)
(-5.9641491e-06 1.798342e-05 1.8518354)
(2.8241051e-06 1.8966718e-05 1.8518357)
(1.1608731e-05 1.9733349e-05 1.8518375)
(2.0354616e-05 2.0354616e-05 1.8518409)
(2.9044197e-05 2.0846248e-05 1.8518458)
(2.3340167e-05 2.1186393e-05 1.8518525)
(4.4392518e-06 2.1338764e-05 1.8518549)
(3.7232076e-07 1.8289276e-05 1.8518442)
(-1.3927411e-05 2.3102908e-05 1.8518445)
(-1.9088892e-05 2.5734144e-05 1.8518408)
(-4.8856851e-06 2.6871294e-05 1.8518399)
(3.7068605e-06 2.7858312e-05 1.8518404)
(1.2264017e-05 2.8548385e-05 1.8518423)
(2.0846248e-05 2.9044197e-05 1.8518458)
(2.9380162e-05 2.9380162e-05 1.8518507)
(2.3503737e-05 2.9466617e-05 1.8518575)
(4.4635674e-06 2.8975934e-05 1.8518599)
(2.7060476e-06 1.0629243e-05 1.8518485)
(-8.5454616e-06 1.5551885e-05 1.85185)
(-1.6638615e-05 2.0743468e-05 1.851847)
(-3.8399812e-06 2.17657e-05 1.8518463)
(4.5011969e-06 2.251284e-05 1.851847)
(1.2794616e-05 2.3011221e-05 1.851849)
(2.1186393e-05 2.3340167e-05 1.8518525)
(2.9466617e-05 2.3503737e-05 1.8518575)
(2.2935939e-05 2.2935939e-05 1.8518644)
(4.1121302e-06 1.499399e-05 1.8518666)
(3.6540819e-06 6.0413777e-07 1.8518492)
(-3.8131857e-06 1.5521721e-06 1.851851)
(-1.2875077e-05 3.7589884e-06 1.851849)
(-3.1163135e-06 4.0611974e-06 1.8518485)
(4.9523814e-06 4.2414336e-06 1.8518492)
(1.3091344e-05 4.3619871e-06 1.8518513)
(2.1338764e-05 4.4392518e-06 1.8518549)
(2.8975934e-05 4.4635674e-06 1.8518599)
(1.499399e-05 4.1121302e-06 1.8518666)
(-8.3106467e-07 -8.3106468e-07 1.851865)
(6.8487445e-06 6.8487445e-06 1.8527504)
(-1.2344297e-05 -3.4306661e-06 1.8527523)
(-3.0877949e-05 -1.4541834e-06 1.8527475)
(-1.142818e-05 -1.3198458e-06 1.8527459)
(-1.3155394e-06 -1.1585943e-06 1.8527457)
(8.3408036e-06 -9.499182e-07 1.8527468)
(1.6895155e-05 -5.5765725e-07 1.8527493)
(2.2281323e-05 4.537924e-07 1.852753)
(1.3127985e-05 3.1972943e-06 1.8527572)
(8.3541329e-07 4.2449231e-06 1.852758)
(-3.4306661e-06 -1.2344297e-05 1.8527523)
(-2.4798689e-05 -2.4798689e-05 1.8527513)
(-2.7711719e-05 -2.1091085e-05 1.852747)
(-1.0984797e-05 -2.048703e-05 1.8527454)
(-7.60648e-07 -1.9864696e-05 1.8527453)
(9.2422092e-06 -1.9110124e-05 1.8527465)
(1.9000721e-05 -1.7946366e-05 1.8527492)
(2.7913751e-05 -1.5557633e-05 1.8527532)
(1.8814681e-05 -9.2418397e-06 1.8527587)
(1.8830421e-06 -3.8646296e-06 1.8527597)
(-1.4541834e-06 -3.0877949e-05 1.8527475)
(-2.1091085e-05 -2.7711719e-05 1.852747)
(-2.656629e-05 -2.656629e-05 1.8527429)
(-1.0201791e-05 -2.5744464e-05 1.8527415)
(6.1367348e-08 -2.4919044e-05 1.8527414)
(1.0259134e-05 -2.3967977e-05 1.8527428)
(2.0447646e-05 -2.2779799e-05 1.8527456)
(3.098585e-05 -2.1246045e-05 1.8527499)
(2.4820989e-05 -1.8373342e-05 1.852756)
(4.42022e-06 -1.4026252e-05 1.8527579)
(-1.3198458e-06 -1.142818e-05 1.8527459)
(-2.048703e-05 -1.0984797e-05 1.8527454)
(-2.5744464e-05 -1.0201791e-05 1.8527415)
(-9.3375505e-06 -9.3375505e-06 1.8527401)
(1.015839e-06 -8.4238594e-06 1.8527402)
(1.1381455e-05 -7.4160602e-06 1.8527417)
(2.1722654e-05 -6.2522282e-06 1.8527447)
(3.2320207e-05 -4.9969667e-06 1.8527491)
(2.6034474e-05 -3.7708595e-06 1.8527554)
(4.781102e-06 -2.9148281e-06 1.8527576)
(-1.1585943e-06 -1.3155393e-06 1.8527457)
(-1.9864696e-05 -7.6064799e-07 1.8527453)
(-2.4919044e-05 6.1367338e-08 1.8527414)
(-8.4238594e-06 1.015839e-06 1.8527402)
(1.9828576e-06 1.9828576e-06 1.8527404)
(1.2430765e-05 2.956379e-06 1.852742)
(2.2866739e-05 3.9669639e-06 1.8527451)
(3.3467218e-05 4.9944783e-06 1.8527498)
(2.6903127e-05 5.9184715e-06 1.8527562)
(4.9909076e-06 6.4433442e-06 1.8527585)
(-9.499182e-07 8.3408036e-06 1.8527468)
(-1.9110124e-05 9.2422092e-06 1.8527465)
(-2.3967977e-05 1.0259134e-05 1.8527428)
(-7.4160602e-06 1.1381455e-05 1.8527417)
(2.956379e-06 1.2430765e-05 1.852742)
(1.3365561e-05 1.3365561e-05 1.8527438)
(2.3760753e-05 1.4220053e-05 1.852747)
(3.4271715e-05 1.4984755e-05 1.8527518)
(2.748334e-05 1.5603882e-05 1.8527584)
(5.1310172e-06 1.5949006e-05 1.8527606)
(-5.5765725e-07 1.6895155e-05 1.8527493)
(-1.7946366e-05 1.9000721e-05 1.8527492)
(-2.2779799e-05 2.0447646e-05 1.8527456)
(-6.2522282e-06 2.1722654e-05 1.8527447)
(3.9669639e-06 2.2866739e-05 1.8527451)
(1.4220053e-05 2.3760753e-05 1.852747)
(2.4485934e-05 2.4485934e-05 1.8527504)
(3.4851047e-05 2.5060936e-05 1.8527553)
(2.7867378e-05 2.5460893e-05 1.8527619)
(5.2209906e-06 2.5640892e-05 1.8527642)
(4.537924e-07 2.2281323e-05 1.852753)
(-1.5557633e-05 2.7913751e-05 1.8527532)
(-2.1246044e-05 3.098585e-05 1.8527499)
(-4.9969667e-06 3.2320207e-05 1.8527491)
(4.9944783e-06 3.3467218e-05 1.8527498)
(1.4984755e-05 3.4271715e-05 1.8527518)
(2.5060936e-05 3.4851047e-05 1.8527553)
(3.5246674e-05 3.5246674e-05 1.8527602)
(2.8063296e-05 3.5365139e-05 1.8527669)
(5.2510166e-06 3.4835831e-05 1.8527692)
(3.1972943e-06 1.3127985e-05 1.8527572)
(-9.2418397e-06 1.8814681e-05 1.8527587)
(-1.8373342e-05 2.4820989e-05 1.852756)
(-3.7708595e-06 2.6034474e-05 1.8527554)
(5.9184715e-06 2.6903127e-05 1.8527562)
(1.5603882e-05 2.748334e-05 1.8527584)
(2.5460893e-05 2.7867378e-05 1.8527619)
(3.5365139e-05 2.8063296e-05 1.8527669)
(2.7456535e-05 2.7456535e-05 1.8527736)
(4.8681186e-06 1.7523468e-05 1.8527758)
(4.2449231e-06 8.3541328e-07 1.852758)
(-3.8646296e-06 1.883042e-06 1.8527597)
(-1.4026252e-05 4.42022e-06 1.8527579)
(-2.9148281e-06 4.781102e-06 1.8527576)
(6.4433442e-06 4.9909076e-06 1.8527585)
(1.5949006e-05 5.1310171e-06 1.8527606)
(2.5640892e-05 5.2209906e-06 1.8527642)
(3.4835831e-05 5.2510166e-06 1.8527692)
(1.7523468e-05 4.8681186e-06 1.8527758)
(-1.3710276e-06 -1.3710276e-06 1.8527742)
(7.4923009e-06 7.4923009e-06 1.8537956)
(-1.3708415e-05 -3.7663439e-06 1.8537975)
(-3.3965237e-05 -1.6088853e-06 1.853793)
(-1.2255246e-05 -1.453559e-06 1.8537916)
(-7.8200135e-07 -1.2720467e-06 1.8537915)
(1.0193162e-05 -1.0361055e-06 1.8537928)
(1.9974972e-05 -5.9352544e-07 1.8537953)
(2.6232184e-05 5.4767072e-07 1.8537989)
(1.5612903e-05 3.6840511e-06 1.8538031)
(1.0782686e-06 4.82409e-06 1.8538038)
(-3.7663439e-06 -1.3708415e-05 1.8537975)
(-2.7360194e-05 -2.7360194e-05 1.8537966)
(-3.049606e-05 -2.3290941e-05 1.8537926)
(-1.1749988e-05 -2.2604014e-05 1.8537912)
(-1.5582111e-07 -2.1901506e-05 1.8537912)
(1.1210944e-05 -2.1046312e-05 1.8537925)
(2.2350636e-05 -1.9727564e-05 1.8537952)
(3.2648548e-05 -1.7028254e-05 1.8537992)