/*--------------------------------*- C++ -*----------------------------------*\
| =========                 |                                                 |
| \\      /  F ield         | OpenFOAM: The Open Source CFD Toolbox           |
|  \\    /   O peration     | Version:  v2106                                 |
|   \\  /    A nd           | Website:  www.openfoam.com                      |
|    \\/     M anipulation  |                                                 |
\*---------------------------------------------------------------------------*/
FoamFile
{
    version     2.0;
    format      ascii;
    arch        "LSB;label=32;scalar=64";
    class       volScalarField;
    location    "32.5";
    object      gradTy;
}
// * * * * * * * * * * * * * * * * * * * * * * * * * * * * * * * * * * * * * //

dimensions      [0 -1 0 1 0 0 0];

internalField   nonuniform List<scalar> 
4000
(
0.00064038552
-0.00018231054
8.9213643e-06
7.3574824e-06
1.3934046e-05
2.1595256e-05
3.6367796e-05
6.9511932e-05
0.00013202731
0.00017429628
-0.00031464422
-0.0012618405
-0.00095304038
-0.00094233459
-0.00091967179
-0.00089420955
-0.00085409339
-0.00077455701
-0.00061239884
-0.00040510708
-0.0015982256
-0.0013137236
-0.0012787197
-0.0012512284
-0.0012234046
-0.0011926844
-0.0011552349
-0.0011047457
-0.0010204458
-0.00087225704
-0.00049765328
-0.00049013425
-0.00046428469
-0.00043481916
-0.00040427697
-0.00037120534
-0.00033366158
-0.00029283307
-0.00025714741
-0.00024076858
-0.00017713236
-0.0001557757
-0.00012900731
-9.723173e-05
-6.5393509e-05
-3.3744098e-05
-1.0144248e-06
3.2897463e-05
6.452822e-05
8.4073686e-05
0.0001358005
0.00016945113
0.0002013789
0.00023762087
0.00027199429
0.00030199995
0.00032927039
0.00035329724
0.00037259164
0.00038406385
0.00037337988
0.0004452549
0.00049303243
0.00053319355
0.0005714047
0.00059983511
0.00062270199
0.00064004766
0.00065099995
0.00065547235
0.0004833235
0.00062681277
0.00072501805
0.00076160188
0.00080153223
0.00082714453
0.00084485347
0.00085544248
0.0008571114
0.00085035501
0.00037937899
0.00053655551
0.00074882892
0.0007690442
0.00080089341
0.00082022042
0.00083166002
0.00083564512
0.00082657256
0.00079727446
8.7435144e-05
0.00012970411
0.00022562964
0.0002284966
0.00023654886
0.0002415269
0.00024419701
0.00024450851
0.00023969275
0.00022497645
0.001355938
-0.00036423158
-6.066216e-07
7.2959172e-06
2.5554044e-05
4.7905365e-05
9.1730424e-05
0.00019615638
0.0004090978
0.00050071063
-0.001111179
-0.0031459959
-0.0025128138
-0.0024585255
-0.0023926991
-0.0023170818
-0.0021972542
-0.0019506668
-0.0014161048
-0.00085535572
-0.0041419361
-0.0035846448
-0.0034544657
-0.0033687196
-0.0032855733
-0.003193514
-0.0030810949
-0.0029288783
-0.0026598161
-0.0022055269
-0.0014926724
-0.0014534314
-0.0013725576
-0.001284539
-0.0011935309
-0.0010947885
-0.00098267145
-0.00086125849
-0.00075106403
-0.00068824055
-0.00048522613
-0.00042431197
-0.0003437824
-0.00024910643
-0.0001540319
-5.9284595e-05
3.8631839e-05
0.00013931983
0.00023127002
0.00028437628
0.00044660509
0.00054586966
0.00064204994
0.00075034801
0.00085290941
0.00094301176
0.0010248831
0.001097359
0.0011555135
0.0011885933
0.0011715186
0.0013938952
0.0015379336
0.0016585309
0.0017714636
0.0018571353
0.0019258108
0.0019780271
0.0020105005
0.0020215909
0.0014936147
0.0019696657
0.0022747641
0.0023909446
0.0025063716
0.0025835827
0.002637002
0.0026682724
0.0026675217
0.0026261888
0.00097596833
0.0014327997
0.0020712794
0.0021561511
0.0022442974
0.0023012075
0.0023355317
0.0023447713
0.0022934481
0.0020818079
0.00014524222
0.00023685505
0.00051907491
0.00053971449
0.00056095723
0.00057511867
0.00058301046
0.00058251232
0.0005554552
0.00044141887
0.0016424758
-0.00065372291
-0.00019329615
-0.00017544885
-0.00014711354
-0.00011186603
-4.2991516e-05
0.00013241356
0.00054280311
0.00075530648
-0.0020951943
-0.0048488522
-0.0040210379
-0.0039249419
-0.0038191921
-0.0036959172
-0.0035027842
-0.0030965114
-0.0021311029
-0.0011427639
-0.006158925
-0.0054415139
-0.0052350146
-0.0050949755
-0.0049582693
-0.004805112
-0.0046176252
-0.004369186
-0.0039221653
-0.0031846758
-0.0023603693
-0.0022910954
-0.0021585236
-0.0020143501
-0.001864503
-0.0017011132
-0.0015146134
-0.0013124347
-0.0011239485
-0.0010048662
-0.00069274484
-0.00059737062
-0.00046372014
-0.00030750715
-0.00015048319
6.5102739e-06
0.00016877969
0.00033495841
0.00048555537
0.00057121725
0.00085443199
0.001010615
0.0011708399
0.0013512591
0.0015207295
0.001670522
0.0018068455
0.0019280581
0.0020255939
0.0020803444
0.0021128995
0.0024793189
0.0027123053
0.0029152449
0.0031009838
0.0032436931
0.00335852
0.003446981
0.0035029611
0.0035212119
0.00271945
0.003598142
0.0040911313
0.0042936019
0.0044817963
0.0046103775
0.0047005447
0.0047548187
0.0047490209
0.0046407057
0.0015020244
0.0024363638
0.0034557719
0.003620874
0.0037633404
0.0038571328
0.0039156266
0.0039313637
0.0038015137
0.0030295305
7.2432978e-05
0.00028493635
0.00073132565
0.00077659603
0.00081071385
0.00083370395
0.00084721416
0.00084587114
0.00077500402
0.00033121566
0.0019196303
-0.00087148364
-0.0003241559
-0.00029714826
-0.00025928599
-0.00021164529
-0.00012051836
0.00011465933
0.00070450826
0.0009893415
-0.0029302375
-0.0062959168
-0.0052954799
-0.0051611951
-0.0050175115
-0.0048476284
-0.0045845938
-0.0040352025
-0.0026649831
-0.0013382448
-0.0079276064
-0.0070661033
-0.0067928847
-0.006602582
-0.0064145842
-0.0062015425
-0.005938903
-0.0055949419
-0.004968307
-0.0039620765
-0.0030808863
-0.0029835814
-0.0028029179
-0.002605281
-0.0023985312
-0.0021721293
-0.0019125891
-0.0016314867
-0.0013648945
-0.0011875717
-0.00078844124
-0.00066018677
-0.00047487456
-0.00025914726
-4.172283e-05
0.00017620489
0.00040172624
0.00063210515
0.0008401027
0.00095822389
0.0013633053
0.0015714568
0.001796223
0.002047138
0.0022821651
0.0024905871
0.0026805941
0.0028501817
0.0029873473
0.0030645497
0.0031829243
0.0036723812
0.0039953502
0.0042789818
0.0045359927
0.0047348821
0.0048955874
0.0050214748
0.005105355
0.0051383716
0.004180373
0.0054179129
0.0060999838
0.0063885089
0.0066476783
0.0068268854
0.0069544315
0.007036653
0.0070414635
0.0068873495
0.0023283295
0.0036403528
0.0050252872
0.0052732181
0.0054692021
0.0055993369
0.0056835701
0.0057162336
0.0055342665
0.0039880897
9.4731334e-05
0.00037956457
0.00097922352
0.0010503849
0.0010974387
0.0011291324
0.001148907
0.0011511434
0.0010461643
0.00012035887
0.0021963789
-0.0010578861
-0.0004259143
-0.00038983675
-0.00034272344
-0.00028265107
-0.00016889057
0.00012461989
0.00088854441
0.0012242928
-0.0036708644
-0.0076043042
-0.0064363974
-0.0062652519
-0.0060850637
-0.0058694536
-0.0055366222
-0.0048471729
-0.0030808317
-0.0014604951
-0.0095321715
-0.0085300974
-0.0081931192
-0.0079548746
-0.0077176129
-0.0074466401
-0.0071105732
-0.0066733178
-0.0058680003
-0.0046065666
-0.0036758781
-0.0035510918
-0.0033245444
-0.0030755855
-0.0028138737
-0.0025263646
-0.0021957126
-0.0018380902
-0.0014946351
-0.0012602555
-0.00078128664
-0.00062050811
-0.00038548828
-0.00011227365
0.00016373265
0.00044090632
0.00072808236
0.0010208663
0.0012846371
0.001434448
0.0019586145
0.0022193638
0.002507056
0.0028264035
0.0031252171
0.0033907532
0.0036330885
0.0038496931
0.0040251133
0.0041236504
0.0043296325
0.0049405389
0.0053519131
0.0057138612
0.0060401876
0.0062938212
0.0064991275
0.0066611159
0.0067720326
0.006820316
0.0057276208
0.0073137733
0.0081834113
0.0085563462
0.0088844888
0.0091129009
0.0092765136
0.0093858061
0.0094062659
0.009227641
0.0032667047
0.0049162141
0.0066533826
0.0069829653
0.0072312173
0.007396547
0.0075051746
0.0075557472
0.0073470095
0.0049838484
0.00015863643
0.0004943848
0.0012388608
0.0013353406
0.0013951139
0.0014352145
0.0014608053
0.0014674035
0.001341722
-0.00010803721
0.0024712377
-0.0012234031
-0.00051002289
-0.00046500225
-0.00040901341
-0.00033699044
-0.00020121627
0.00014892829
0.001082419
0.0014616328
-0.0043359899
-0.0088078808
-0.0074785226
-0.0072715304
-0.007056256
-0.0067966372
-0.0063961319
-0.0055709644
-0.0034181847
-0.0015252743
-0.011002122
-0.0098645204
-0.0094657713
-0.0091813574
-0.0088966743
-0.0085698535
-0.0081628001
-0.0076355568
-0.0066554459
-0.0051500307
-0.0041668848
-0.0040153706
-0.0037446183
-0.0034462736
-0.0031315949
-0.002785095
-0.0023856596
-0.0019542741
-0.0015359925
-0.0012465254
-0.00068773343
-0.0004957157
-0.00021284023
0.00011578819
0.00044833831
0.00078277286
0.001129642
0.0014827442
0.0018004788
0.0019809526
0.0026235738
0.0029352695
0.0032836979
0.0036691437
0.0040296331
0.0043504474
0.0046434926
0.0049056069
0.0051178465
0.0052365375
0.0055301933
0.0062590714
0.0067558662
0.0071933682
0.0075866871
0.0078933395
0.0081418466
0.0083384991
0.0084745573
0.0085355055
0.0073157102
0.0092411632
0.010293658
0.010748517
0.011143325
0.011419354
0.011617679
0.011752065
0.011786647
0.011590374
0.0042516972
0.0062207539
0.0082973873
0.00870628
0.009005136
0.0092044883
0.0093360666
0.0094014947
0.0091743754
0.0059975962
0.00024165511
0.00062086884
0.0015035954
0.001624479
0.0016965734
0.0017447948
0.0017757007
0.001785427
0.0016448521
-0.00033242587
0.0027394978
-0.0013722665
-0.00058167335
-0.00052793831
-0.00046343773
-0.00037996728
-0.0002230629
0.00018151696
0.0012789177
0.0016979692
-0.0049377189
-0.0099194757
-0.0084364341
-0.0081948121
-0.0079458785
-0.0076440494
-0.0071785465
-0.0062230533
-0.0036967359
-0.0015458519
-0.01235118
-0.011084687
-0.010626516
-0.010297786
-0.0099676176
-0.0095871909
-0.0091119194
-0.0084984178
-0.0073493367
-0.0056105008
-0.0045712722
-0.0043939187
-0.0040807165
-0.0037350202
-0.0033695437
-0.0029664241
-0.0025008913
-0.0019987867
-0.0015083438
-0.0011659313
-0.00052621574
-0.00030425919
2.4546935e-05
0.00040633559
0.00079314303
0.0011825516
0.0015867856
0.0019977913
0.0023673886
0.0025773377
0.0033363214
0.0036968837
0.0041036535
0.0045525818
0.0049723059
0.0053462244
0.0056880213
0.0059939022
0.0062415526
0.0063796024
0.0067580622
0.0076002885
0.0081790583
0.0086890616
0.0091466958
0.0095043013
0.0097943736
0.010024375
0.010184357
0.010256357
0.0089125293
0.0111655
0.01239434
0.012928083
0.013386887
0.013708686
0.013940419
0.01409867
0.014146055
0.013934332
0.0052511941
0.0075258725
0.0099283955
0.01041379
0.010761251
0.010993336
0.011146951
0.011225318
0.010982614
0.0070093874
0.00033416531
0.00075321682
0.001768088
0.0019124408
0.001996363
0.0020524069
0.0020883962
0.0021004066
0.0019472475
-0.00054841103
0.0029969204
-0.0015065376
-0.0006435541
-0.00058142361
-0.00050881868
-0.00041444221
-0.00023741018
0.00021906829
0.0014736204
0.001929636
-0.0054833659
-0.010944078
-0.0093163766
-0.0090416055
-0.0087606024
-0.0084185249
-0.0078910254
-0.0068113015
-0.0039269987
-0.0015321376
-0.013586095
-0.012198424
-0.011683623
-0.011312658
-0.010939147
-0.010507598
-0.0099671981
-0.0092714958
-0.0079605653
-0.0059994592
-0.0049020983
-0.0046999951
-0.0043463241
-0.0039555198
-0.0035416441
-0.0030845511
-0.0025559518
-0.001986463
-0.0014270046
-0.0010339496
-0.00031280053
-6.2328445e-05
0.00031028006
0.00074273155
0.0011812488
0.0016230617
0.0020820081
0.0025481936
0.002967233
0.003205273
0.0040772648
0.0044843775
0.0049468418
0.0054563268
0.0059325341
0.0063570861
0.0067453696
0.007092977
0.0073744026
0.0075309682
0.0079899886
0.0089402544
0.009597212
0.010176357
0.0106953
0.011101489
0.011431191
0.011693007
0.011875802
0.011957979
0.010492873
0.013059419
0.0144569
0.015066052
0.015585847
0.015951277
0.016214881
0.016395888
0.016455345
0.016229533
0.0062451613
0.0088110128
0.011524325
0.012083049
0.012476839
0.012740129
0.01291483
0.013005101
0.012748475
0.0080027966
0.00043130742
0.00088732296
0.0020278815
0.002194727
0.0022899181
0.0023534203
0.0023942952
0.0024082052
0.0022437541
-0.00075558048
0.0032401267
-0.0016272469
-0.00069718146
-0.00062703814
-0.00054678447
-0.00044209875
-0.00024605115
0.00025948646
0.001663443
0.0021535452
-0.005977002
-0.011882964
-0.010120611
-0.0098143958
-0.0095030948
-0.0091229384
-0.0085367722
-0.0073395836
-0.0041151239
-0.0014912402
-0.01470974
-0.013209427
-0.012641172
-0.012230301
-0.011815821
-0.0113359
-0.010733804
-0.0099603364
-0.0084957111
-0.0063245719
-0.0051690828
-0.0049434874
-0.0045515664
-0.0041181364
-0.0036585093
-0.0031503714
-0.0025620766
-0.001928856
-0.001303928
-0.00086274811
-6.0880313e-05
0.00021652879
0.00063057713
0.0011109303
0.0015983422
0.0020897159
0.0026004277
0.0031187901
0.0035845815
0.0038491729
0.0048297047
0.0052808047
0.0057960274
0.0063628217
0.0068924601
0.0073649072
0.0077971625
0.0081842298
0.0084975943
0.0086716918
0.0092064691
0.010258847
0.010989824
0.01163441
0.012211339
0.012663484
0.013030662
0.013322565
0.01352696
0.013618667
0.012036306
0.014900547
0.016457954
0.01713864
0.017716103
0.018122794
0.018416534
0.018619092
0.01869008
0.018451518
0.0072192348
0.010060323
0.013067578
0.013696087
0.014133686
0.01442647
0.014621148
0.014722572
0.014453574
0.0089646063
0.00053023192
0.0010203341
0.0022794877
0.0024677602
0.0025736077
0.0026441544
0.0026896726
0.0027052922
0.0025306313
-0.00095401957
0.0034663999
-0.0017348795
-0.00074346396
-0.00066574267
-0.00057834116
-0.00046400078
-0.00025015829
0.00030130803
0.0018460026
0.0023671526
-0.0064206896
-0.012735485
-0.010849344
-0.010513586
-0.010173935
-0.0097580818
-0.0091169097
-0.0078096952
-0.0042649989
-0.0014283261
-0.01572265
-0.014118945
-0.013500751
-0.013052539
-0.012599692
-0.012074418
-0.011414404
-0.01056802
-0.0089587859
-0.0065910556
-0.0053793717
-0.0051316875
-0.0047039623
-0.0042306285
-0.0037281488
-0.0031721741
-0.0025278885
-0.0018349255
-0.0011484466
-0.00066190909
0.00021865182
0.00052126465
0.00097415619
0.0014993857
0.0020326106
0.002570432
0.0031296772
0.0036969363
0.0042065374
0.0044960029
0.0055796357
0.00607191
0.0066366606
0.0072571981
0.0078369209
0.0083542647
0.0088277415
0.0092517979
0.0095950965
0.0097856254
0.010391118
0.011539081
0.012339505
0.013045479
0.013676753
0.014171983
0.014574286
0.014894394
0.015119066
0.015219681
0.01352572
0.016669961
0.018377631
0.019125579
0.019757073
0.020202439
0.020524428
0.020747219
0.020829219
0.020579335
0.0081620563
0.011260823
0.014543425
0.015237787
0.015716442
0.016036854
0.016250269
0.016362142
0.016082385
0.0098839539
0.00062898759
0.0011501376
0.0025201028
0.0027286245
0.0028444611
0.0029216015
0.0029714804
0.0029886783
0.0028048911
-0.0011436091
0.0036734994
-0.0018296189
-0.00078296616
-0.00069814861
-0.00060414254
-0.00048085835
-0.00025054648
0.00034344099
0.0020193435
0.0025683226
-0.006815287
-0.013499985
-0.011501688
-0.011138471
-0.010772582
-0.010323622
-0.0096314264
-0.0082222772
-0.0043792246
-0.0013472732
-0.016623968
-0.014926763
-0.014262453
-0.013779686
-0.013291298
-0.012723949
-0.012010129
-0.011096093
-0.0093522081
-0.0068025106
-0.0055382036
-0.0052699682
-0.0048090975
-0.0042988126
-0.0037566224
-0.0031562895
-0.0024600379
-0.0017116578
-0.00096790335
-0.00043903372
0.00051699635
0.00084293175
0.0013318446
0.0018986693
0.0024743677
0.0030552637
0.0036595368
0.0042721396
0.0048223627
0.0051348903
0.0063153436
0.0068457377
0.0074564993
0.0081269064
0.0087530839
0.0093120755
0.0098237955
0.010282171
0.010653239
0.010859002
0.011530045
0.012766494
0.01363139
0.01439435
0.015076022
0.015611226
0.016046117
0.0163924
0.016635919
0.016744796
0.014946473
0.018351308
0.020198675
0.021009229
0.021690809
0.022172055
0.022520253
0.022761857
0.022854319
0.022594629
0.0090641295
0.012401452
0.015939134
0.016695034
0.017211758
0.017557785
0.017788589
0.017910181
0.017621361
0.01075168
0.00072608394
0.001275063
0.0027473849
0.0029748614
0.0030999646
0.0031832131
0.0032371402
0.0032557974
0.0030640131
-0.0013239896
0.0038595474
-0.0019114818
-0.00081604574
-0.00072465692
-0.00062462896
-0.00049316484
-0.00024780789
0.00038503421
0.0021818082
0.0027552292
-0.0071609392
-0.014174329
-0.012076201
-0.011687773
-0.011297917
-0.010818635
-0.010079701
-0.0085773234
-0.004459624
-0.0012510972
-0.017412064
-0.015631827
-0.014925508
-0.014411179
-0.013890283
-0.013284383
-0.012521186
-0.011545161
-0.0096774003
-0.0069614692
-0.0056494436
-0.0053623184
-0.0048711591
-0.0043270929
-0.0037485649
-0.0031076091
-0.0023637189
-0.0015645695
-0.00076815229
-0.0002002266
0.00082701286
0.001174251
0.001696151
0.0023010473
0.0029156348
0.0035359852
0.0041815218
0.0048356551
0.0054230782
0.0057567243
0.0070269834
0.007592215
0.0082451994
0.0089613112
0.0096300454
0.010227198
0.010773967
0.011263797
0.011660317
0.011880031
0.012611357
0.013928656
0.014852669
0.015667878
0.016395708
0.016967548
0.017432307
0.017802596
0.018063432
0.018179883
0.01628584
0.019930264
0.021905917
0.02277405
0.023501483
0.024015607
0.024387834
0.024646731
0.024749059
0.024481148
0.0099172778
0.01347257
0.017243504
0.018056262
0.018607847
0.018977331
0.01922408
0.019354618
0.019058497
0.011559923
0.00082030954
0.0013937305
0.0029593274
0.0032043512
0.0033379445
0.003426782
0.0034844203
0.0035044156
0.0033058129
-0.001494634
0.0040229631
-0.0019803969
-0.00084293211
-0.00074553696
-0.00064010588
-0.00050127485
-0.00024238823
0.00042540417
0.0023319696
0.0029262958
-0.0074573873
-0.01475623
-0.012571212
-0.012159974
-0.011748564
-0.011241925
-0.010460821
-0.0088744891
-0.0045075394
-0.0011422247
-0.01808496
-0.01623267
-0.015488704
-0.014945996
-0.014395818
-0.013755121
-0.012947271
-0.011915291
-0.0099351839
-0.0070697722
-0.0057159917
-0.0054117523
-0.0048933435
-0.0043188664
-0.0037075877
-0.0030299832
-0.0022430637
-0.0013980936
-0.00055394119
4.9529569e-05
0.0011428429
0.0015092361
0.002060892
0.0027001113
0.0033497753
0.0040057299
0.0046885241
0.0053801313
0.0060011136
0.0063538106
0.0077062161
0.0083027926
0.0089939589
0.0097513396
0.010458483
0.011090088
0.011668508
0.01218675
0.012606257
0.012838556
0.01362479
0.015014808
0.015992226
0.016854638
0.017624115
0.018229039
0.018720777
0.019112764
0.019389291
0.019512588
0.017532665
0.021394201
0.023485946
0.024406288
0.025175069
0.025718878
0.026112817
0.026387392
0.026498939
0.02622445
0.010714352
0.014465689
0.018446616
0.019311208
0.01989424
0.020284888
0.020546045
0.020684711
0.020383103
0.012301868
0.00091064511
0.0015049713
0.0031541883
0.0034152458
0.0035565021
0.0036503772
0.0037113681
0.0037325751
0.0035283757
-0.0016549152
0.0041624225
-0.0020362555
-0.00086377544
-0.00076097547
-0.00065079267
-0.00050545228
-0.00023463382
0.00046399009
0.002468591
0.0030801574
-0.0077041742
-0.015243471
-0.012985037
-0.01255353
-0.012123108
-0.011592244
-0.010773792
-0.0091132936
-0.0045240233
-0.0010226723
-0.018640626
-0.016727706
-0.015950685
-0.015382952
-0.014806895
-0.014135362
-0.013287851
-0.012206291
-0.010126054
-0.0071288329
-0.0057400915
-0.0054206173
-0.0048781628
-0.0042768276
-0.0036365802
-0.0029265196
-0.0021014376
-0.0012158699
-0.00032919789
0.00030609129
0.0014596085
0.0018428933
0.0024208951
0.0030904835
0.0037712031
0.0044587006
0.005174526
0.0058993276
0.0065500283
0.0069195952
0.0083459209
0.0089701592
0.0096952365
0.010489203
0.011230379
0.011892526
0.012499012
0.013042455
0.01348235
0.013725795
0.014561433
0.016015597
0.017040383
0.017944668
0.018751033
0.019385295
0.019900962
0.020312217
0.020602717
0.020732094
0.018677131
0.022731968
0.0249269
0.025893765
0.026699139
0.027269268
0.027682477
0.027971023
0.02809109
0.027811711
0.011449059
0.01537331
0.019539681
0.020450768
0.021061642
0.021471036
0.021744982
0.021890913
0.02158567
0.012971598
0.00099621529
0.0016077817
0.0033304493
0.003605929
0.0037539754
0.003852307
0.0039162724
0.0039385583
0.0037300194
-0.0018041563
0.0042768334
-0.0020789453
-0.00087867933
-0.00077110905
-0.00065685474
-0.0005059021
-0.00022482257
0.0005003246
0.002590601
0.0032156366
-0.0079007875
-0.015634057
-0.013316132
-0.012867021
-0.012420245
-0.011868432
-0.011017685
-0.0092932611
-0.0045099683
-0.00089417018
-0.019077203
-0.017115448
-0.016310167
-0.015720915
-0.015122537
-0.014424316
-0.013542377
-0.012417911
-0.010250376
-0.0071398275
-0.0057235608
-0.0053908239
-0.0048276731
-0.0042031946
-0.0035379348
-0.0027998056
-0.0019416577
-0.0010209612
-9.7243125e-05
0.00056594381
0.0017731816
0.002170992
0.00277177
0.0034675908
0.0041751589
0.0048899497
0.0056343818
0.0063878994
0.0070642989
0.0074484529
0.0089399775
0.0095880257
0.010342537
0.011168185
0.011938814
0.012627408
0.013258212
0.013823495
0.014281057
0.014534144
0.015413543
0.016922883
0.017988714
0.018929288
0.019767559
0.020427238
0.020963645
0.021391623
0.021694298
0.021828953
0.019710612
0.023933747
0.026218328
0.027225749
0.028062743
0.028655666
0.029085588
0.029386319
0.02951416
0.029231608
0.012115857
0.016188825
0.020514948
0.021466909
0.022101853
0.022527462
0.022812502
0.022964793
0.022657792
0.013563993
0.0010762591
0.0017012947
0.0034867912
0.0037749935
0.0039289158
0.0040310962
0.0040976404
0.0041208665
0.0039092726
-0.0019416663
0.0043653184
-0.0021083752
-0.00088772366
-0.00077604673
-0.00065842593
-0.00050279236
-0.00021318538
0.00053401361
0.0026970777
0.0033317286
-0.0080467627
-0.015926326
-0.013563204
-0.013099258
-0.012638886
-0.012069531
-0.011191735
-0.0094140212
-0.0044661989
-0.00075824767
-0.01939316
-0.017394668
-0.016566093
-0.015958959
-0.015341955
-0.014621355
-0.013710431
-0.012549996
-0.010308529
-0.0071038335
-0.0056679632
-0.0053240167
-0.0047436451
-0.0040998782
-0.0034137135
-0.0026520729
-0.0017661561
-0.0008160127
0.00013905196
0.00082604541
0.0020800101
0.0024898916
0.0031097378
0.0038274955
0.004557543
0.005295213
0.0060636552
0.0068412368
0.00753916
0.0079355299
0.0094831039
0.010150965
0.010930255
0.011782488
0.012577812
0.013288601
0.013939824
0.014523456
0.01499586
0.015257025
0.016174403
0.017729612
0.018829913
0.019800971
0.020665973
0.021346995
0.021900828
0.022342884
0.022655863
0.022794965
0.020625571
0.024990966
0.027351108
0.028392868
0.029256316
0.029868372
0.030312351
0.030623408
0.030758231
0.030474247
0.012709885
0.016906457
0.021365658
0.02235262
0.023007717
0.023446913
0.023741286
0.023898994
0.023592125
0.014074665
0.0011501106
0.0017847615
0.0036220781
0.0039212254
0.0040800737
0.004185472
0.0042541837
0.0042782061
0.0040648611
-0.0020667673
0.0044272035
-0.0021244921
-0.00089098097
-0.00077588622
-0.00065562447
-0.00049626993
-0.00019992144
0.00056472224
0.0027872377
0.0034275909
-0.0081417586
-0.016119035
-0.013725287
-0.013249369
-0.01277824
-0.012194855
-0.011295425
-0.0094753825
-0.0043935372
-0.00061629456
-0.019587421
-0.017564513
-0.016717755
-0.016096485
-0.01546466
-0.014726129
-0.013791838
-0.012602592
-0.010301015
-0.0070219312
-0.0055747363
-0.0052217016
-0.0046276898
-0.0039686067
-0.0032657713
-0.0024853191
-0.0015770994
-0.00060337062
0.00037714964
0.0010837125
0.0023769896
0.002796414
0.0034315042
0.00416677
0.0049147917
0.0056707883
0.0064584984
0.007255346
0.007970487
0.0083766273
0.0099707387
0.010654293
0.011453554
0.012327115
0.013142226
0.013870822
0.014538447
0.015136825
0.015621155
0.015888786
0.016838227
0.018429715
0.019557699
0.020553251
0.021439647
0.022137809
0.02270565
0.023159055
0.023480406
0.023623093
0.021415498
0.025896237
0.028317386
0.02938706
0.030271635
0.030899048
0.031354343
0.031673804
0.031814775
0.031531108
0.01322692
0.017521223
0.022086008
0.023101884
0.023773092
0.024223166
0.024525053
0.024687204
0.024382357
0.014499914
0.0012171858
0.001857539
0.0037353476
0.004043595
0.0042063895
0.0043143552
0.0043848103
0.0044094803
0.0041956991
-0.002178815
0.0044620099
-0.002127294
-0.00088852848
-0.00077072571
-0.00064856471
-0.00048647193
-0.00018520928
0.00059216457
0.0028604285
0.0035025359
-0.0081856138
-0.016211421
-0.013801805
-0.013316851
-0.012837871
-0.012244053
-0.011328536
-0.0094773871
-0.004292851
-0.00046960548
-0.019659448
-0.017624595
-0.016764877
-0.016133302
-0.015490555
-0.014738647
-0.013786752
-0.012576029
-0.010228533
-0.0068952782
-0.0054452864
-0.0050853408
-0.0044813525
-0.0038110187
-0.0030958482
-0.0023013988
-0.0013764781
-0.0003851694
0.00061475961
0.0013365346
0.0026613676
0.0030877483
0.0037341652
0.0044824038
0.0052437852
0.0060134445
0.0068155634
0.0076267617
0.0083547095
0.0087681151
0.010398954
0.011093987
0.011908289
0.01279779
0.01362766
0.014369568
0.015049475
0.015658907
0.016152177
0.016424623
0.017400089
0.019018044
0.020166755
0.021180662
0.022082984
0.022793979
0.023372323
0.02383428
0.02416202
0.024307413
0.022074861
0.026643318
0.029110546
0.030201537
0.031101784
0.031740683
0.032204485
0.032530379
0.032676628
0.032395026
0.013663352
0.018028909
0.022671133
0.023709659
0.024392837
0.024851012
0.025158553
0.025324146
0.025023199
0.014836702
0.0012769736
0.001919081
0.003825804
0.0041412508
0.0043069873
0.0044168545
0.0044886181
0.0045137834
0.0043008837
-0.002277215
0.0044694471
-0.0021168395
-0.00088045718
-0.0007606728
-0.00063736585
-0.00047353434
-0.00016921506
0.00061609603
0.0029161237
0.0035560263
-0.0081783882
-0.016203245
-0.013792618
-0.013301616
-0.012817741
-0.012217151
-0.011291192
-0.0094203506
-0.0041650886
-0.00031941224
-0.019609311
-0.017575061
-0.016707683
-0.016069698
-0.015419992
-0.014659344
-0.013695715
-0.01247098
-0.010092039
-0.0067251651
-0.00528106
-0.004916423
-0.004306183
-0.0036287326
-0.0029056377
-0.0021020905
-0.0011661728
-0.00016339727
0.00084977465
0.0015823113
0.0029306722
0.0033613799
0.0040151373
0.004771734
0.0055417794
0.0063203546
0.0071319351
0.0079524816
0.0086887471
0.0091068686
0.010764391
0.011466617
0.012290939
0.013190894
0.014030404
0.01478105
0.015469045
0.016085773
0.016584939
0.01686052
0.017855879
0.019490324
0.020652679
0.021678688
0.022591373
0.023310815
0.023896096
0.024363754
0.024695861
0.024843063
0.022599081
0.027227089
0.029725184
0.030830765
0.031741132
0.032387577
0.032857025
0.033187342
0.033337966
0.033060165
0.014016157
0.018426053
0.023117096
0.024171867
0.024862804
0.025326254
0.02563755
0.025805564
0.025510373
0.015082624
0.0013290294
0.001968932
0.0038928137
0.0042135149
0.0043811715
0.0044922625
0.0045648921
0.0045903971
0.0043796914
-0.0023614357
0.0044494075
-0.002093255
-0.00086687862
-0.00074585121
-0.00062215862
-0.00045759854
-0.00015209897
0.00063630759
0.0029539185
0.0035876711
-0.0081203957
-0.016094825
-0.01369805
-0.01320403
-0.012718241
-0.012114584
-0.011183891
-0.0093048921
-0.0040113052
-0.00016690805
-0.019437739
-0.017416633
-0.016546944
-0.015906483
-0.015253825
-0.014489127
-0.013519706
-0.01228851
-0.0098927922
-0.0065130567
-0.0050835983
-0.0047165183
-0.0041037893
-0.0034233996
-0.0026968392
-0.0018891493
-0.00094800554
6.0053728e-05
0.0010802216
0.0018190032
0.0031826574
0.0036150364
0.004272103
0.0050323925
0.0058063534
0.0065890434
0.0074050811
0.008229916
0.0089699594
0.0093902185
0.011064211
0.0117693
0.01259856
0.01350342
0.014347394
0.015102147
0.015793989
0.016414209
0.016916193
0.017193209
0.018202256
0.019843115
0.021011948
0.022043732
0.022961151
0.023684605
0.024273213
0.024743689
0.025078116
0.025226218
0.022984506
0.027643532
0.030157092
0.031270446
0.032185319
0.032835324
0.033307524
0.033640227
0.033794296
0.033522008
0.014282893
0.018709938
0.023420877
0.024485391
0.025179826
0.025645694
0.025958826
0.026128223
0.025840608
0.015235897
0.0013729705
0.0020067231
0.0039359019
0.0042598801
0.004428423
0.0045400529
0.0046131004
0.004638788
0.0044315752
-0.0024310191
0.004401961
-0.0020567399
-0.00084793039
-0.00072640617
-0.00060309058
-0.00043881654
-0.00013402022
0.00065262095
0.0029735261
0.0035972214
-0.0080122288
-0.015887066
-0.013518919
-0.013024926
-0.012540219
-0.011937217
-0.011007529
-0.0091319572
-0.0038326823
-1.3266461e-05
-0.019146156
-0.017150656
-0.016284017
-0.015645029
-0.014993443
-0.01422941
-0.013260173
-0.012030108
-0.0096323833
-0.0062606239
-0.0048545794
-0.0044873197
-0.0038758796
-0.0031967458
-0.0024711995
-0.0016643468
-0.00072377983
0.00028334792
0.0013042218
0.0020446934
0.0034152588
0.0038466432
0.0045029679
0.0052622624
0.0060353668
0.0068173457
0.0076328092
0.0084568468
0.0091961053
0.0096159109
0.011296054
0.01199966
0.012828744
0.01373293
0.014576164
0.015330372
0.016021794
0.016641683
0.017143389
0.017420133
0.018436626
0.020073782
0.021241885
0.022273084
0.02318958
0.023912585
0.024500891
0.024971285
0.025305968
0.025454058
0.023228395
0.027889714
0.030403242
0.031517504
0.032431243
0.0330808
0.033552839
0.033885877
0.034042443
0.033777347
0.014461679
0.01887858
0.02358037
0.024648064
0.025341716
0.025807128
0.026120165
0.026289902
0.026011635
0.015295345
0.001408472
0.0020321673
0.0039547492
0.0042800069
0.0044483969
0.0045598773
0.0046328925
0.0046586041
0.0044561618
-0.0024855896
0.0043273488
-0.0020075705
-0.00082378067
-0.00070250889
-0.00058033059
-0.0004173554
-0.0001151415
0.00066488437
0.0029747746
0.0035845673
-0.0078547781
-0.015581472
-0.013256554
-0.012765634
-0.012284997
-0.011686367
-0.010763417
-0.0089028348
-0.0036305437
0.0001403427
-0.01873671
-0.016779117
-0.015920871
-0.015287296
-0.014640799
-0.013882141
-0.012919064
-0.011697714
-0.009312765
-0.0059697697
-0.0045958547
-0.0042306796
-0.003624298
-0.0029506069
-0.002230548
-0.0014295069
-0.00049531537
0.00050467169
0.0015199577
0.002257554
0.0036265556
0.0040542858
0.0047058222
0.0054594407
0.0062269222
0.0070033691
0.0078132308
0.0086313908
0.0093653068
0.0097820707
0.011458006
0.01215579
0.012979587
0.013877524
0.01471482
0.015463832
0.016150571
0.016766308
0.017264644
0.017539409
0.018557104
0.020180463
0.021340636
0.022364891
0.023274815
0.023992913
0.02457729
0.025044701
0.025377578
0.025524743
0.023328895
0.027963769
0.030461768
0.031570068
0.032477041
0.033122145
0.033591114
0.033922432
0.034080529
0.033824259
0.014551191
0.018930715
0.023594369
0.024658659
0.025347251
0.025809339
0.026120352
0.026289381
0.026022179
0.015260378
0.0014352637
0.0020450565
0.003949188
0.00427372
0.0044409189
0.0045515626
0.0046240951
0.0046496724
0.0044532487
-0.0025248615
0.0042259768
-0.0019461041
-0.00079463235
-0.00067436067
-0.0005540729
-0.00039340132
-9.5633059e-05
0.00067296842
0.0029576024
0.003549733
-0.0076492496
-0.015180163
-0.012912808
-0.012427987
-0.011954384
-0.011363816
-0.010453292
-0.0086191719
-0.0034063701
0.00029273826
-0.018212289
-0.016304674