/*--------------------------------*- C++ -*----------------------------------*\
| =========                 |                                                 |
| \\      /  F ield         | OpenFOAM: The Open Source CFD Toolbox           |
|  \\    /   O peration     | Version:  v2106                                 |
|   \\  /    A nd           | Website:  www.openfoam.com                      |
|    \\/     M anipulation  |                                                 |
\*---------------------------------------------------------------------------*/
FoamFile
{
    version     2.0;
    format      ascii;
    arch        "LSB;label=32;scalar=64";
    class       volScalarField;
    location    "32.5";
    object      T;
}
// * * * * * * * * * * * * * * * * * * * * * * * * * * * * * * * * * * * * * //

dimensions      [0 0 0 1 0 0 0];

internalField   nonuniform List<scalar> 
4000
(
276.69898
276.699
276.69898
276.69897
276.69897
276.69897
276.69897
276.69897
276.69898
276.69898
276.699
276.699
276.69898
276.69897
276.69897
276.69897
276.69897
276.69898
276.69898
276.69899
276.69898
276.69898
276.69896
276.69895
276.69895
276.69895
276.69895
276.69896
276.69897
276.69897
276.69897
276.69897
276.69895
276.69894
276.69894
276.69894
276.69895
276.69895
276.69896
276.69897
276.69897
276.69897
276.69895
276.69894
276.69894
276.69894
276.69894
276.69895
276.69896
276.69897
276.69897
276.69897
276.69895
276.69894
276.69894
276.69894
276.69895
276.69895
276.69896
276.69897
276.69897
276.69897
276.69895
276.69895
276.69894
276.69895
276.69895
276.69896
276.69897
276.69898
276.69897
276.69898
276.69896
276.69895
276.69895
276.69895
276.69896
276.69897
276.69898
276.69898
276.69898
276.69898
276.69897
276.69896
276.69896
276.69896
276.69897
276.69898
276.69899
276.69899
276.69898
276.69899
276.69897
276.69897
276.69897
276.69897
276.69898
276.69898
276.69899
276.699
284.09725
284.09729
284.09723
284.09721
284.0972
284.0972
284.09721
284.09723
284.09724
284.09725
284.09729
284.09728
284.09723
284.09721
284.0972
284.0972
284.09721
284.09723
284.09725
284.09726
284.09723
284.09723
284.09718
284.09716
284.09715
284.09716
284.09717
284.09719
284.09721
284.09723
284.09721
284.09721
284.09716
284.09714
284.09714
284.09714
284.09715
284.09717
284.0972
284.09722
284.0972
284.0972
284.09715
284.09714
284.09713
284.09713
284.09715
284.09717
284.0972
284.09721
284.0972
284.0972
284.09716
284.09714
284.09713
284.09714
284.09715
284.09718
284.0972
284.09722
284.09721
284.09721
284.09717
284.09715
284.09715
284.09715
284.09717
284.09719
284.09722
284.09724
284.09723
284.09723
284.09719
284.09717
284.09717
284.09718
284.09719
284.09722
284.09724
284.09726
284.09724
284.09725
284.09721
284.0972
284.0972
284.0972
284.09722
284.09724
284.09727
284.09729
284.09725
284.09726
284.09723
284.09722
284.09721
284.09722
284.09724
284.09726
284.09729
284.0973
291.49647
291.49652
291.49643
291.49639
291.49638
291.49638
291.4964
291.49642
291.49645
291.49645
291.49652
291.4965
291.49642
291.49639
291.49637
291.49638
291.49639
291.49643
291.49647
291.49648
291.49643
291.49642
291.49635
291.49632
291.4963
291.49631
291.49633
291.49636
291.49641
291.49643
291.49639
291.49639
291.49632
291.49629
291.49628
291.49628
291.4963
291.49634
291.49639
291.49641
291.49638
291.49637
291.4963
291.49628
291.49627
291.49627
291.4963
291.49633
291.49639
291.49641
291.49638
291.49638
291.49631
291.49628
291.49627
291.49628
291.49631
291.49635
291.4964
291.49642
291.4964
291.49639
291.49633
291.4963
291.4963
291.49631
291.49633
291.49637
291.49643
291.49645
291.49642
291.49643
291.49636
291.49634
291.49633
291.49635
291.49637
291.49641
291.49647
291.49649
291.49645
291.49647
291.49641
291.49639
291.49639
291.4964
291.49643
291.49647
291.49652
291.49654
291.49645
291.49648
291.49643
291.49641
291.49641
291.49642
291.49645
291.49649
291.49654
291.49655
298.89723
298.89729
298.89717
298.89713
298.89711
298.89711
298.89714
298.89718
298.89722
298.89722
298.89729
298.89726
298.89716
298.89712
298.8971
298.89711
298.89713
298.89718
298.89724
298.89725
298.89717
298.89716
298.89707
298.89703
298.89701
298.89702
298.89705
298.8971
298.89717
298.8972
298.89713
298.89712
298.89703
298.89699
298.89697
298.89698
298.89701
298.89707
298.89714
298.89717
298.89711
298.8971
298.89701
298.89697
298.89696
298.89697
298.89701
298.89706
298.89714
298.89717
298.89711
298.89711
298.89702
298.89698
298.89697
298.89699
298.89702
298.89708
298.89716
298.89719
298.89714
298.89713
298.89705
298.89701
298.89701
298.89702
298.89706
298.89712
298.8972
298.89723
298.89718
298.89718
298.8971
298.89707
298.89706
298.89708
298.89712
298.89718
298.89726
298.8973
298.89722
298.89724
298.89717
298.89714
298.89714
298.89716
298.8972
298.89726
298.89734
298.89737
298.89722
298.89725
298.8972
298.89717
298.89717
298.89719
298.89723
298.8973
298.89737
298.89738
306.30016
306.30022
306.30008
306.30003
306.30001
306.30002
306.30005
306.3001
306.30016
306.30017
306.30022
306.30019
306.30007
306.30002
306.3
306.30001
306.30004
306.30011
306.30019
306.30021
306.30008
306.30007
306.29996
306.29991
306.29989
306.2999
306.29994
306.30001
306.3001
306.30014
306.30003
306.30002
306.29991
306.29986
306.29985
306.29986
306.2999
306.29997
306.30007
306.30011
306.30001
306.3
306.29989
306.29985
306.29983
306.29985
306.2999
306.29997
306.30007
306.30011
306.30002
306.30001
306.2999
306.29986
306.29985
306.29987
306.29992
306.29999
306.3001
306.30014
306.30005
306.30004
306.29994
306.2999
306.2999
306.29992
306.29997
306.30005
306.30015
306.3002
306.3001
306.30011
306.30001
306.29997
306.29997
306.29999
306.30005
306.30013
306.30024
306.30028
306.30016
306.30019
306.3001
306.30007
306.30007
306.3001
306.30015
306.30024
306.30034
306.30038
306.30017
306.30021
306.30014
306.30011
306.30011
306.30014
306.3002
306.30028
306.30038
306.30038
313.70585
313.70593
313.70577
313.70571
313.70568
313.70569
313.70574
313.7058
313.70588
313.70589
313.70593
313.70589
313.70575
313.70569
313.70567
313.70568
313.70573
313.70581
313.70591
313.70593
313.70577
313.70575
313.70562
313.70556
313.70554
313.70556
313.70561
313.70569
313.70581
313.70586
313.70571
313.70569
313.70556
313.70551
313.70549
313.70551
313.70557
313.70566
313.70578
313.70583
313.70568
313.70567
313.70554
313.70549
313.70548
313.7055
313.70556
313.70565
313.70578
313.70583
313.70569
313.70568
313.70556
313.70551
313.7055
313.70553
313.70559
313.70569
313.70582
313.70587
313.70574
313.70573
313.70561
313.70557
313.70556
313.70559
313.70565
313.70575
313.70588
313.70594
313.7058
313.70581
313.70569
313.70566
313.70565
313.70569
313.70575
313.70585
313.70599
313.70604
313.70588
313.70591
313.70581
313.70578
313.70578
313.70582
313.70588
313.70599
313.70612
313.70617
313.70589
313.70593
313.70586
313.70583
313.70583
313.70587
313.70594
313.70604
313.70617
313.70616
321.1149
321.11498
321.1148
321.11473
321.11471
321.11472
321.11477
321.11486
321.11495
321.11496
321.11498
321.11494
321.11478
321.11472
321.11469
321.11471
321.11477
321.11486
321.11499
321.11501
321.1148
321.11478
321.11463
321.11457
321.11455
321.11457
321.11463
321.11473
321.11488
321.11493
321.11473
321.11472
321.11457
321.11451
321.11449
321.11452
321.11459
321.11469
321.11484
321.1149
321.11471
321.11469
321.11455
321.11449
321.11448
321.11451
321.11458
321.11469
321.11485
321.11491
321.11472
321.11471
321.11457
321.11452
321.11451
321.11454
321.11462
321.11473
321.11489
321.11495
321.11477
321.11477
321.11463
321.11459
321.11458
321.11462
321.11469
321.11481
321.11497
321.11504
321.11486
321.11486
321.11473
321.11469
321.11469
321.11473
321.11481
321.11493
321.1151
321.11516
321.11495
321.11499
321.11488
321.11484
321.11485
321.11489
321.11497
321.1151
321.11526
321.11532
321.11496
321.11501
321.11493
321.1149
321.11491
321.11495
321.11504
321.11516
321.11532
321.1153
328.52786
328.52795
328.52775
328.52767
328.52765
328.52767
328.52773
328.52783
328.52794
328.52795
328.52795
328.5279
328.52773
328.52766
328.52763
328.52766
328.52772
328.52783
328.52798
328.52801
328.52775
328.52773
328.52756
328.52749
328.52747
328.5275
328.52757
328.52769
328.52786
328.52792
328.52767
328.52766
328.52749
328.52743
328.52741
328.52745
328.52752
328.52765
328.52782
328.52789
328.52765
328.52763
328.52747
328.52741
328.5274
328.52744
328.52752
328.52765
328.52783
328.5279
328.52767
328.52766
328.5275
328.52745
328.52744
328.52748
328.52756
328.5277
328.52788
328.52795
328.52773
328.52772
328.52757
328.52752
328.52752
328.52756
328.52766
328.52779
328.52798
328.52805
328.52783
328.52783
328.52769
328.52765
328.52765
328.5277
328.52779
328.52793
328.52812
328.52819
328.52794
328.52798
328.52786
328.52782
328.52783
328.52788
328.52798
328.52812
328.52831
328.52838
328.52795
328.52801
328.52792
328.52789
328.5279
328.52795
328.52805
328.52819
328.52838
328.52835
335.94526
335.94536
335.94514
335.94507
335.94504
335.94507
335.94514
335.94525
335.94538
335.94539
335.94536
335.94531
335.94512
335.94505
335.94502
335.94505
335.94513
335.94526
335.94543
335.94546
335.94514
335.94512
335.94494
335.94487
335.94485
335.94488
335.94497
335.9451
335.9453
335.94536
335.94507
335.94505
335.94487
335.9448
335.94479
335.94483
335.94491
335.94506
335.94526
335.94533
335.94504
335.94502
335.94485
335.94479
335.94478
335.94482
335.94491
335.94506
335.94527
335.94535
335.94507
335.94505
335.94488
335.94483
335.94482
335.94487
335.94497
335.94512
335.94533
335.94541
335.94514
335.94513
335.94497
335.94491
335.94491
335.94497
335.94507
335.94523
335.94544
335.94552
335.94525
335.94526
335.9451
335.94506
335.94506
335.94512
335.94523
335.94539
335.9456
335.94568
335.94538
335.94543
335.9453
335.94526
335.94527
335.94533
335.94544
335.9456
335.94581
335.94589
335.94539
335.94546
335.94536
335.94533
335.94535
335.94541
335.94552
335.94568
335.94589
335.94586
343.36763
343.36773
343.3675
343.36742
343.36739
343.36742
343.36751
343.36763
343.36778
343.3678
343.36773
343.36768
343.36748
343.3674
343.36738
343.36741
343.3675
343.36764
343.36783
343.36787
343.3675
343.36748
343.36729
343.36721
343.36719
343.36723
343.36732
343.36748
343.36769
343.36777
343.36742
343.3674
343.36721
343.36714
343.36713
343.36717
343.36727
343.36743
343.36765
343.36773
343.36739
343.36738
343.36719
343.36713
343.36712
343.36717
343.36727
343.36744
343.36767
343.36775
343.36742
343.36741
343.36723
343.36717
343.36717
343.36722
343.36733
343.3675
343.36774
343.36782
343.36751
343.3675
343.36732
343.36727
343.36727
343.36733
343.36745
343.36762
343.36786
343.36795
343.36763
343.36764
343.36748
343.36743
343.36744
343.3675
343.36762
343.3678
343.36804
343.36813
343.36778
343.36783
343.36769
343.36765
343.36767
343.36774
343.36786
343.36804
343.36828
343.36836
343.3678
343.36787
343.36777
343.36773
343.36775
343.36782
343.36795
343.36813
343.36836
343.36833
350.79544
350.79555
350.7953
350.79521
350.79519
350.79522
350.79532
350.79546
350.79561
350.79564
350.79555
350.79549
350.79528
350.79519
350.79517
350.79521
350.79531
350.79547
350.79568
350.79571
350.7953
350.79528
350.79507
350.79499
350.79497
350.79502
350.79512
350.79529
350.79553
350.79561
350.79521
350.79519
350.79499
350.79492
350.79491
350.79496
350.79507
350.79524
350.79549
350.79558
350.79519
350.79517
350.79497
350.79491
350.7949
350.79495
350.79507
350.79526
350.79551
350.7956
350.79522
350.79521
350.79502
350.79496
350.79495
350.79502
350.79514
350.79533
350.79558
350.79568
350.79532
350.79531
350.79512
350.79507
350.79507
350.79514
350.79527
350.79546
350.79572
350.79582
350.79546
350.79547
350.79529
350.79524
350.79526
350.79533
350.79546
350.79566
350.79592
350.79601
350.79561
350.79568
350.79553
350.79549
350.79551
350.79558
350.79572
350.79592
350.79618
350.79627
350.79564
350.79571
350.79561
350.79558
350.7956
350.79568
350.79582
350.79601
350.79627
350.79623
358.22913
358.22924
358.22898
358.22889
358.22887
358.22891
358.22901
358.22916
358.22934
358.22936
358.22924
358.22919
358.22896
358.22887
358.22885
358.2289
358.229
358.22917
358.2294
358.22944
358.22898
358.22896
358.22874
358.22866
358.22864
358.22869
358.22881
358.22899
358.22925
358.22934
358.22889
358.22887
358.22866
358.22858
358.22857
358.22863
358.22875
358.22894
358.22921
358.2293
358.22887
358.22885
358.22864
358.22857
358.22857
358.22863
358.22876
358.22896
358.22923
358.22933
358.22891
358.2289
358.22869
358.22863
358.22863
358.2287
358.22884
358.22904
358.22932
358.22942
358.22901
358.229
358.22881
358.22875
358.22876
358.22884
358.22898
358.22919
358.22947
358.22957
358.22916
358.22917
358.22899
358.22894
358.22896
358.22904
358.22919
358.2294
358.22968
358.22978
358.22934
358.2294
358.22925
358.22921
358.22923
358.22932
358.22947
358.22968
358.22996
358.23006
358.22936
358.22944
358.22934
358.2293
358.22933
358.22942
358.22957
358.22978
358.23006
358.23001
365.66911
365.66923
365.66896
365.66887
365.66885
365.66889
365.669
365.66916
365.66935
365.66938
365.66923
365.66917
365.66894
365.66885
365.66883
365.66888
365.66899
365.66918
365.66942
365.66947
365.66896
365.66894
365.66871
365.66863
365.66861
365.66867
365.66879
365.66899
365.66926
365.66936
365.66887
365.66885
365.66863
365.66855
365.66854
365.6686
365.66873
365.66894
365.66922
365.66933
365.66885
365.66883
365.66861
365.66854
365.66854
365.66861
365.66875
365.66896
365.66925
365.66936
365.66889
365.66888
365.66867
365.6686
365.66861
365.66868
365.66883
365.66905
365.66934
365.66945
365.669
365.66899
365.66879
365.66873
365.66875
365.66883
365.66898
365.6692
365.6695
365.66961
365.66916
365.66918
365.66899
365.66894
365.66896
365.66905
365.6692
365.66943
365.66973
365.66984
365.66935
365.66942
365.66926
365.66922
365.66925
365.66934
365.6695
365.66973
365.67003
365.67014
365.66938
365.66947
365.66936
365.66933
365.66936
365.66945
365.66961
365.66984
365.67014
365.67009
373.11576
373.11588
373.1156
373.11551
373.11549
373.11554
373.11566
373.11583
373.11603
373.11606
373.11588
373.11582
373.11558
373.11549
373.11547
373.11552
373.11565
373.11584
373.1161
373.11615
373.1156
373.11558
373.11534
373.11526
373.11525
373.11531
373.11544
373.11565
373.11594
373.11604
373.11551
373.11549
373.11526
373.11518
373.11517
373.11524
373.11538
373.1156
373.1159
373.11601
373.11549
373.11547
373.11525
373.11517
373.11517
373.11525
373.1154
373.11562
373.11593
373.11604
373.11554
373.11552
373.11531
373.11524
373.11525
373.11533
373.11549
373.11572
373.11603
373.11615
373.11566
373.11565
373.11544
373.11538
373.1154
373.11549
373.11565
373.11588
373.1162
373.11632
373.11583
373.11584
373.11565
373.1156
373.11562
373.11572
373.11588
373.11612
373.11644
373.11656
373.11603
373.1161
373.11594
373.1159
373.11593
373.11603
373.1162
373.11644
373.11676
373.11688
373.11606
373.11615
373.11604
373.11601
373.11604
373.11615
373.11632
373.11656
373.11688
373.11682
380.5694
380.56953
380.56924
380.56914
380.56912
380.56918
380.5693
380.56949
380.5697
380.56973
380.56953
380.56946
380.56921
380.56912
380.5691
380.56916
380.5693
380.5695
380.56978
380.56983
380.56924
380.56921
380.56897
380.56889
380.56888
380.56894
380.56908
380.5693
380.56961
380.56971
380.56914
380.56912
380.56889
380.56881
380.5688
380.56888
380.56903
380.56925
380.56957
380.56968
380.56912
380.5691
380.56888
380.5688
380.56881
380.56889
380.56904
380.56928
380.56961
380.56972
380.56918
380.56916
380.56894
380.56888
380.56889
380.56897
380.56914
380.56938
380.56971
380.56983
380.5693
380.5693
380.56908
380.56903
380.56904
380.56914
380.56931
380.56956
380.56989
380.57001
380.56949
380.5695
380.5693
380.56925
380.56928
380.56938
380.56956
380.56981
380.57015
380.57027
380.5697
380.56978
380.56961
380.56957
380.56961
380.56971
380.56989
380.57015
380.57048
380.5706
380.56973
380.56983
380.56971
380.56968
380.56972
380.56983
380.57001
380.57027
380.5706
380.57054
388.03032
388.03045
388.03015
388.03006
388.03004
388.0301
388.03023
388.03042
388.03064
388.03068
388.03045
388.03038
388.03013
388.03004
388.03002
388.03008
388.03022
388.03044
388.03072
388.03078
388.03015
388.03013
388.02988
388.0298
388.02979
388.02986
388.03001
388.03024
388.03055
388.03066
388.03006
388.03004
388.0298
388.02972
388.02971
388.02979
388.02995
388.03019
388.03052
388.03064
388.03004
388.03002
388.02979
388.02971
388.02972
388.02981
388.02997
388.03022
388.03056
388.03068
388.0301
388.03008
388.02986
388.02979
388.02981
388.0299
388.03007
388.03033
388.03067
388.03079
388.03023
388.03022
388.03001
388.02995
388.02997
388.03007
388.03025
388.03051
388.03086
388.03098
388.03042
388.03044
388.03024
388.03019
388.03022
388.03033
388.03051
388.03077
388.03112
388.03125
388.03064
388.03072
388.03055
388.03052
388.03056
388.03067
388.03086
388.03112
388.03147
388.03159
388.03068
388.03078
388.03066
388.03064
388.03068
388.03079
388.03098
388.03125
388.03159
388.03153
395.49875
395.49889
395.49859
395.49849
395.49848
395.49854
395.49868
395.49888
395.49911
395.49914
395.49889
395.49882
395.49856
395.49847
395.49846
395.49853
395.49867
395.4989
395.49919
395.49925
395.49859
395.49856
395.49832
395.49823
395.49822
395.4983
395.49845
395.49869
395.49902
395.49913
395.49849
395.49847
395.49823
395.49815
395.49815
395.49823
395.4984
395.49864
395.49898
395.49911
395.49848
395.49846
395.49822
395.49815
395.49816
395.49825
395.49842
395.49868
395.49903
395.49915
395.49854
395.49853
395.4983
395.49823
395.49825
395.49835
395.49853
395.49879
395.49914
395.49927
395.49868
395.49867
395.49845
395.4984
395.49842
395.49853
395.49871
395.49898
395.49934
395.49947
395.49888
395.4989
395.49869
395.49864
395.49868
395.49879
395.49898
395.49925
395.49961
395.49975
395.49911
395.49919
395.49902
395.49898
395.49903
395.49914
395.49934
395.49961
395.49997
395.5001
395.49914
395.49925
395.49913
395.49911
395.49915
395.49927
395.49947
395.49975
395.5001
395.50004
402.97491
402.97504
402.97474
402.97465
402.97463
402.9747
402.97484
402.97505
402.97528
402.97532
402.97504
402.97498
402.97471
402.97462
402.97461
402.97468
402.97483
402.97506
402.97537
402.97543
402.97474
402.97471
402.97447
402.97438
402.97438
402.97445
402.97461
402.97486
402.9752
402.97531
402.97465
402.97462
402.97438
402.9743
402.9743
402.97439
402.97456
402.97481
402.97516
402.97529
402.97463
402.97461
402.97438
402.9743
402.97431
402.97441
402.97459
402.97485
402.97521
402.97534
402.9747
402.97468
402.97445
402.97439
402.97441
402.97451
402.9747
402.97497
402.97533
402.97546
402.97484
402.97483
402.97461
402.97456
402.97459
402.9747
402.97489
402.97516
402.97553
402.97567
402.97505
402.97506
402.97486
402.97481
402.97485
402.97497
402.97516
402.97544
402.97581
402.97595
402.97528
402.97537
402.9752
402.97516
402.97521
402.97533
402.97553
402.97581
402.97619
402.97631
402.97532
402.97543
402.97531
402.97529
402.97534
402.97546
402.97567
402.97595
402.97631
402.97625
410.45892
410.45905
410.45875
410.45866
410.45865
410.45872
410.45886
410.45908
410.45932
410.45936
410.45905
410.45899
410.45873
410.45864
410.45863
410.4587
410.45886
410.45909
410.4594
410.45946
410.45875
410.45873
410.45848
410.45839
410.45839
410.45847
410.45864
410.45889
410.45923
410.45935
410.45866
410.45864
410.45839
410.45832
410.45832
410.45841
410.45859
410.45885
410.4592
410.45933
410.45865
410.45863
410.45839
410.45832
410.45833
410.45843
410.45862
410.45888
410.45925
410.45938
410.45872
410.4587
410.45847
410.45841
410.45843
410.45854
410.45873
410.459
410.45938
410.45951
410.45886
410.45886
410.45864
410.45859
410.45862
410.45873
410.45892
410.45921
410.45958
410.45972
410.45908
410.45909
410.45889
410.45885
410.45888
410.459
410.45921
410.45949
410.45987
410.46001
410.45932
410.4594
410.45923
410.4592
410.45925
410.45938
410.45958
410.45987
410.46025
410.46038
410.45936
410.45946
410.45935
410.45933
410.45938
410.45951
410.45972
410.46001
410.46038
410.46031
417.95089
417.95103
417.95073
417.95064
417.95063
417.9507
417.95085
417.95106
417.95131
417.95135
417.95103
417.95096
417.9507
417.95061
417.95061
417.95069
417.95084
417.95108
417.9514
417.95146
417.95073
417.9507
417.95046
417.95037
417.95037
417.95046
417.95063
417.95088
417.95123
417.95135
417.95064
417.95061
417.95037
417.9503
417.9503
417.9504
417.95057
417.95084
417.9512
417.95133
417.95063
417.95061
417.95037
417.9503
417.95032
417.95042
417.95061
417.95088
417.95125
417.95138
417.9507
417.95069
417.95046
417.9504
417.95042
417.95053
417.95072
417.951
417.95138
417.95151
417.95085
417.95084
417.95063
417.95057
417.95061
417.95072
417.95092
417.95121
417.95159
417.95173
417.95106
417.95108
417.95088
417.95084
417.95088
417.951
417.95121
417.9515
417.95188
417.95202
417.95131
417.9514
417.95123
417.9512
417.95125
417.95138
417.95159
417.95188
417.95226
417.9524
417.95135
417.95146
417.95135
417.95133
417.95138
417.95151
417.95173
417.95202
417.9524
417.95232
425.45087
425.45101
425.45071
425.45062
425.45062
425.45069
425.45084
425.45106
425.45131
425.45135
425.45101
425.45094
425.45069
425.4506
425.4506
425.45068
425.45084
425.45108
425.4514
425.45146
425.45071
425.45069
425.45044
425.45036
425.45037
425.45045
425.45062
425.45088
425.45123
425.45135
425.45062
425.4506
425.45036
425.45029
425.4503
425.45039
425.45057
425.45084
425.4512
425.45133
425.45062
425.4506
425.45037
425.4503
425.45032
425.45042
425.45061
425.45088
425.45126
425.45139
425.45069
425.45068
425.45045
425.45039
425.45042
425.45053
425.45073
425.45101
425.45139
425.45152
425.45084
425.45084
425.45062
425.45057
425.45061
425.45073
425.45093
425.45122
425.4516
425.45174
425.45106
425.45108
425.45088
425.45084
425.45088
425.45101
425.45122
425.45151
425.45189
425.45203
425.45131
425.4514
425.45123
425.4512
425.45126
425.45139
425.4516
425.45189
425.45228
425.45241
425.45135
425.45146
425.45135
425.45133
425.45139
425.45152
425.45174
425.45203
425.45241
425.45234
432.95887
432.959
432.95871
432.95862
432.95862
432.95869
432.95885
432.95907
432.95931
432.95936
432.959
432.95894
432.95868
432.9586
432.9586
432.95868
432.95884
432.95909
432.9594
432.95946
432.95871
432.95868
432.95844
432.95837
432.95837
432.95846
432.95863
432.95889
432.95924
432.95936
432.95862
432.9586
432.95837
432.95829
432.95831
432.9584
432.95858
432.95885
432.95922
432.95934
432.95862
432.9586
432.95837
432.95831
432.95833
432.95843
432.95862
432.9589
432.95927
432.9594
432.95869
432.95868
432.95846
432.9584
432.95843
432.95854
432.95874
432.95902
432.9594
432.95954
432.95885
432.95884
432.95863
432.95858
432.95862
432.95874
432.95894
432.95923
432.95962
432.95976
432.95907
432.95909
432.95889
432.95885
432.9589
432.95902
432.95923
432.95952
432.95991
432.96005
432.95931
432.9594
432.95924
432.95922
432.95927
432.9594
432.95962
432.95991
432.9603
432.96043
432.95936
432.95946
432.95936
432.95934
432.9594
432.95954
432.95976
432.96005
432.96043
432.96036
440.47482
440.47495
440.47467
440.47458
440.47458
440.47466
440.47481
440.47503
440.47528
440.47532
440.47495
440.47489
440.47464
440.47456
440.47456
440.47465
440.47481
440.47505
440.47537
440.47543
440.47467
440.47464
440.47441
440.47433
440.47434
440.47443
440.4746
440.47486
440.47521
440.47533
440.47458
440.47456
440.47433
440.47426
440.47428
440.47438
440.47456
440.47482
440.47519
440.47531
440.47458
440.47456
440.47434
440.47428
440.4743
440.47441
440.4746
440.47487
440.47524
440.47538
440.47466
440.47465
440.47443
440.47438
440.47441
440.47452
440.47472
440.475
440.47538
440.47551
440.47481
440.47481
440.4746
440.47456
440.4746
440.47472
440.47492
440.47521
440.47559
440.47573
440.47503
440.47505
440.47486
440.47482
440.47487
440.475
440.47521
440.4755
440.47588
440.47602
440.47528
440.47537
440.47521
440.47519
440.47524
440.47538
440.47559
440.47588
440.47627
440.4764
440.47532
440.47543
440.47533
440.47531
440.47538
440.47551
440.47573
440.47602
440.4764
440.47632
447.99863
447.99876
447.99849
447.9984
447.99841
447.99848
447.99864
447.99885
447.9991
447.99914
447.99876
447.9987
447.99846
447.99839
447.99839
447.99847
447.99863
447.99887
447.99919
447.99925
447.99849
447.99846
447.99824
447.99816
447.99817
447.99826
447.99844
447.99869
447.99904
447.99915
447.9984
447.99839
447.99816
447.9981
447.99812
447.99821
447.99839
447.99866
447.99902
447.99914
447.99841
447.99839
447.99817
447.99812
447.99814
447.99825
447.99843
447.99871
447.99907
447.9992
447.99848
447.99847
447.99826
447.99821
447.99825
447.99836
447.99856
447.99883
447.99921
447.99934
447.99864
447.99863
447.99844
447.99839
447.99843
447.99856
447.99876
447.99904
447.99942
447.99955
447.99885
447.99887
447.99869
447.99866
447.99871
447.99883
447.99904
447.99933
447.99971
447.99984
447.9991
447.99919
447.99904
447.99902
447.99907
447.99921
447.99942
447.99971
448.00009
448.00022
447.99914
447.99925
447.99915
447.99914
447.9992
447.99934
447.99955
447.99984
448.00022
448.00014
455.53016
455.53028
455.53002
455.52994
455.52995
455.53003
455.53018
455.53039
455.53063
455.53068
455.53028
455.53023
455.53
455.52993
455.52993
455.53002
455.53018
455.53041
455.53072
455.53078
455.53002
455.53
455.52978
455.52971
455.52973
455.52982
455.52999
455.53023
455.53058
455.53069
455.52994
455.52993
455.52971
455.52965
455.52967
455.52977
455.52995
455.53021
455.53056
455.53068
455.52995
455.52993
455.52973
455.52967
455.5297
455.5298
455.52999
455.53026
455.53062
455.53074
455.53003
455.53002
455.52982
455.52977
455.5298
455.52992
455.53011
455.53038
455.53075
455.53088
455.53018
455.53018
455.52999
455.52995
455.52999
455.53011
455.53031
455.53059
455.53096
455.53109
455.53039
455.53041
455.53023
455.53021
455.53026
455.53038
455.53059
455.53087
455.53124
455.53138
455.53063
455.53072
455.53058
455.53056
455.53062
455.53075
455.53096
455.53124
455.53162
455.53174
455.53068
455.53078
455.53069
455.53068
455.53074
455.53088
455.53109
455.53138
455.53174
455.53167
463.06921
463.06933
463.06908
463.06901
463.06901
463.06909
463.06924
463.06945
463.06969
463.06973
463.06933
463.06928
463.06906
463.06899
463.069
463.06908
463.06924
463.06947
463.06977
463.06983
463.06908
463.06906
463.06885
463.06879
463.0688
463.06889
463.06906
463.0693
463.06963
463.06974
463.06901
463.06899
463.06879
463.06873
463.06875
463.06885
463.06902
463.06928
463.06962
463.06974
463.06901
463.069
463.0688
463.06875
463.06878
463.06888
463.06907
463.06933
463.06968
463.0698
463.06909
463.06908
463.06889
463.06885
463.06888
463.06899
463.06918
463.06945
463.06981
463.06994
463.06924
463.06924
463.06906
463.06902
463.06907
463.06918
463.06938
463.06965
463.07001
463.07014
463.06945
463.06947
463.0693
463.06928
463.06933
463.06945
463.06965
463.06993
463.07029
463.07042
463.06969
463.06977
463.06963
463.06962
463.06968
463.06981
463.07001
463.07029
463.07065
463.07078
463.06973
463.06983
463.06974
463.06974
463.0698
463.06994
463.07014
463.07042
463.07078
463.0707
470.61554
470.61565
470.61542
470.61535
470.61536
470.61544
470.61558
470.61578
470.61601
470.61606
470.61565
470.6156
470.6154
470.61533
470.61535
470.61543
470.61558
470.6158
470.6161
470.61615
470.61542
470.6154
470.6152
470.61514
470.61516
470.61525
470.61541
470.61565
470.61597
470.61608
470.61535
470.61533
470.61514
470.61509
470.61511
470.61521
470.61538
470.61562
470.61596
470.61607
470.61536
470.61535
470.61516
470.61511
470.61514
470.61524
470.61542
470.61568
470.61602
470.61614
470.61544
470.61543
470.61525
470.61521
470.61524
470.61535
470.61554
470.6158
470.61614
470.61627
470.61558
470.61558
470.61541
470.61538
470.61542
470.61554
470.61573
470.61599
470.61634
470.61647
470.61578
470.6158
470.61565
470.61562
470.61568
470.6158
470.61599
470.61626
470.61661
470.61674
470.61601
470.6161
470.61597
470.61596
470.61602
470.61614
470.61634
470.61661
470.61696
470.61709
470.61606
470.61615
470.61608
470.61607
470.61614
470.61627
470.61647
470.61674
470.61709
470.61701
478.16887
478.16897
478.16875
478.16869
478.1687
478.16878
478.16892
478.16911
478.16934
478.16938
478.16897
478.16893
478.16873
478.16867
478.16869
478.16877
478.16892
478.16913
478.16941
478.16947
478.16875
478.16873
478.16855
478.1685
478.16851
478.1686
478.16876
478.16898
478.16929
478.1694
478.16869
478.16867
478.1685
478.16845
478.16847
478.16857
478.16873
478.16897
478.16929
478.1694
478.1687
478.16869
478.16851
478.16847
478.1685
478.1686
478.16877
478.16902
478.16935
478.16946
478.16878
478.16877
478.1686
478.16857
478.1686
478.16871
478.16889
478.16914
478.16947
478.16959
478.16892
478.16892
478.16876
478.16873
478.16877
478.16889
478.16907
478.16932
478.16966
478.16978
478.16911
478.16913
478.16898
478.16897
478.16902
478.16914
478.16932
478.16958
478.16992
478.17004
478.16934
478.16941
478.16929
478.16929
478.16935
478.16947
478.16966
478.16992
478.17026
478.17038
478.16938
478.16947
478.1694
478.1694
478.16946
478.16959
478.16978
478.17004
478.17038
478.1703
485.72886
485.72895
485.72875
485.7287
485.72871
485.72878
485.72892
485.72911
485.72932
485.72936
485.72895
485.72891
485.72873
485.72868
485.7287
485.72878
485.72892
485.72912
485.72939
485.72945
485.72875
485.72873
485.72856
485.72852
485.72854
485.72862
485.72877
485.72899
485.72928
485.72938
485.7287
485.72868
485.72852
485.72847
485.7285
485.72859
485.72875
485.72897
485.72928
485.72938
485.72871
485.7287
485.72854
485.7285
485.72853
485.72863
485.72879
485.72902
485.72934
485.72945
485.72878
485.72878
485.72862
485.72859
485.72863
485.72873
485.7289
485.72914
485.72946
485.72957
485.72892
485.72892
485.72877
485.72875
485.72879
485.7289
485.72908
485.72932
485.72964
485.72975
485.72911
485.72912
485.72899
485.72897
485.72902
485.72914
485.72932
485.72956
485.72989
485.73
485.72932
485.72939
485.72928
485.72928
485.72934
485.72946
485.72964
485.72989
485.73021
485.73032
485.72936
485.72945
485.72938
485.72938
485.72945
485.72957
485.72975
485.73
485.73032
485.73025
493.29515
493.29523
493.29505
493.295
493.29501
493.29509
493.29521
493.29539
493.29559
493.29563
493.29523
493.2952
493.29503
493.29499
493.295
493.29508
493.29522
493.29541
493.29566
493.29572
493.29505
493.29503
493.29488
493.29484
493.29486
493.29494
493.29508
493.29529
493.29557
493.29566
493.295
493.29499
493.29484
493.2948
493.29482
493.29491
493.29506
493.29528
493.29556
493.29566
493.29501
493.295
493.29486