/*--------------------------------*- C++ -*----------------------------------*\
| =========                 |                                                 |
| \\      /  F ield         | OpenFOAM: The Open Source CFD Toolbox           |
|  \\    /   O peration     | Version:  v2106                                 |
|   \\  /    A nd           | Website:  www.openfoam.com                      |
|    \\/     M anipulation  |                                                 |
\*---------------------------------------------------------------------------*/
FoamFile
{
    version     2.0;
    format      ascii;
    arch        "LSB;label=32;scalar=64";
    class       volVectorField;
    location    "40";
    object      gradT;
}
// * * * * * * * * * * * * * * * * * * * * * * * * * * * * * * * * * * * * * //

dimensions      [0 -1 0 1 0 0 0];

internalField   nonuniform List<vector> 
500
(
(-0.00079511027 -0.00079511027 746.76306)
(-0.0015984362 -0.00070068056 746.75863)
(-0.00045750117 -0.00066508989 746.7571)
(8.5983739e-05 -0.00062416863 746.75696)
(9.1809376e-05 -0.00053448251 746.75763)
(-0.00070068056 -0.0015984362 746.75863)
(-0.0014034057 -0.0014034057 746.75473)
(-0.00034273328 -0.0012984931 746.75341)
(0.00028189481 -0.0011859137 746.75352)
(0.0001814955 -0.0010016857 746.75477)
(-0.00066508989 -0.00045750117 746.7571)
(-0.0012984931 -0.00034273328 746.75341)
(-0.00024000918 -0.00024000918 746.75229)
(0.00038279117 -0.00014792832 746.75261)
(0.00021462805 -6.8922136e-05 746.75405)
(-0.00062416863 8.5983739e-05 746.75696)
(-0.0011859137 0.00028189481 746.75352)
(-0.00014792832 0.00038279117 746.75261)
(0.00045298185 0.00045298185 746.75309)
(0.00023416629 0.00050326548 746.75465)
(-0.00053448251 9.1809376e-05 746.75763)
(-0.0010016857 0.0001814955 746.75477)
(-6.8922133e-05 0.00021462805 746.75405)
(0.00050326548 0.0002341663 746.75465)
(0.00024815047 0.00024815047 746.75632)
(-0.0020525098 -0.0020525098 746.84749)
(-0.0041560856 -0.0017960005 746.84414)
(-0.0011302176 -0.0016931791 746.84299)
(0.00054996709 -0.0015666286 746.84316)
(0.00040190919 -0.0012637326 746.84437)
(-0.0017960005 -0.0041560856 746.84414)
(-0.0036170896 -0.0036170896 746.84122)
(-0.0007861597 -0.003311085 746.84026)
(0.0011941368 -0.0029677523 746.84068)
(0.00070480516 -0.0023658497 746.84251)
(-0.0016931791 -0.0011302176 746.84299)
(-0.003311085 -0.0007861597 746.84026)
(-0.00048088034 -0.00048088034 746.83951)
(0.0014952024 -0.00020332789 746.84013)
(0.00080317758 3.6614937e-05 746.84215)
(-0.0015666286 0.0005499671 746.84316)
(-0.0029677523 0.0011941368 746.84068)
(-0.00020332789 0.0014952024 746.84013)
(0.0017116321 0.0017116321 746.84092)
(0.00086476704 0.0018917517 746.84307)
(-0.0012637326 0.00040190919 746.84437)
(-0.0023658497 0.00070480516 746.84251)
(3.6614937e-05 0.00080317758 746.84215)
(0.0018917517 0.00086476704 746.84307)
(0.0009232573 0.0009232573 746.84541)
(-0.0030325267 -0.0030325267 747.00307)
(-0.0060981158 -0.0026473476 747.00036)
(-0.0014319028 -0.0024841288 746.99958)
(0.0014596928 -0.0022751642 747.00003)
(0.00089484657 -0.0017685873 747.00157)
(-0.0026473476 -0.0060981158 747.00036)
(-0.0052755189 -0.0052755189 746.99802)
(-0.00087362779 -0.0047845855 746.99741)
(0.002533005 -0.0042184231 746.9981)
(0.0014014235 -0.0032161524 747.00024)
(-0.0024841288 -0.0014319028 746.99958)
(-0.0047845855 -0.0008736278 746.99741)
(-0.00037480699 -0.000374807 746.99697)
(0.0030281259 8.6277679e-05 746.99786)
(0.001563027 0.0004916717 747.00018)
(-0.0022751642 0.0014596928 747.00003)
(-0.0042184231 0.002533005 746.9981)
(8.6277683e-05 0.0030281259 746.99786)
(0.0033994837 0.0033994837 746.99891)
(0.0016716861 0.003761349 747.00137)
(-0.0017685873 0.00089484657 747.00157)
(-0.0032161524 0.0014014235 747.00024)
(0.00049167171 0.001563027 747.00018)
(0.003761349 0.0016716861 747.00137)
(0.0018042705 0.0018042705 747.00406)
(-0.0038560769 -0.0038560769 747.23331)
(-0.0076482926 -0.0033574089 747.23103)
(-0.0014641194 -0.003139491 747.23052)
(0.0025488314 -0.0028533946 747.23115)
(0.0014325157 -0.002154907 747.23276)
(-0.0033574089 -0.0076482926 747.23103)
(-0.0065734138 -0.0065734138 747.22908)
(-0.00070809805 -0.0059133049 747.22872)
(0.0040257075 -0.0051381289 747.22957)
(0.0021310034 -0.0037583769 747.23173)
(-0.003139491 -0.0014641194 747.23052)
(-0.0059133049 -0.00070809805 747.22872)
(-2.8834499e-05 -2.8834505e-05 747.22853)
(0.0047037594 0.00060656864 747.22955)
(0.0023523503 0.0011708503 747.23189)
(-0.0028533946 0.0025488314 747.23115)
(-0.0051381289 0.0040257075 747.22957)
(0.00060656864 0.0047037594 747.22955)
(0.0052253923 0.0052253923 747.23073)
(0.0025071912 0.0057660237 747.2332)
(-0.002154907 0.0014325157 747.23276)
(-0.0037583769 0.0021310034 747.23173)
(0.0011708503 0.0023523503 747.23189)
(0.0057660237 0.0025071912 747.2332)
(0.0027127713 0.0027127713 747.23587)
(-0.0045485681 -0.0045485681 747.53201)
(-0.0088852537 -0.0039497196 747.53013)
(-0.0013206145 -0.0036829832 747.52982)
(0.0036929274 -0.0033268673 747.53053)
(0.0019674269 -0.002453501 747.53209)
(-0.0039497196 -0.0088852537 747.53013)
(-0.0075868763 -0.0075868763 747.52852)
(-0.00038633597 -0.0067750573 747.52836)
(0.0055371508 -0.0058099478 747.52926)
(0.0028407932 -0.0040861667 747.53131)
(-0.0036829832 -0.0013206145 747.52982)
(-0.0067750573 -0.00038633597 747.52836)
(0.00045631405 0.00045631405 747.52833)
(0.006381818 0.0012510715 747.52939)
(0.0031166143 0.001961237 747.5316)
(-0.0033268673 0.0036929274 747.53053)
(-0.0058099478 0.0055371508 747.52926)
(0.0012510715 0.006381818 747.52939)
(0.0070420737 0.0070420737 747.53059)
(0.0033142369 0.0077489462 747.53292)
(-0.002453501 0.0019674269 747.53209)
(-0.0040861667 0.0028407932 747.53131)
(0.001961237 0.0031166143 747.5316)
(0.0077489462 0.0033142369 747.53292)
(0.0035878626 0.0035878626 747.53544)
(-0.0051109382 -0.0051109382 747.89165)
(-0.0098361217 -0.0044268634 747.89017)
(-0.001064996 -0.0041180208 747.89003)
(0.0048112834 -0.0037006813 747.89075)
(0.0024710434 -0.0026739149 747.89219)
(-0.0044268634 -0.0098361217 747.89017)
(-0.0083467455 -0.0083467455 747.88892)
(2.4277068e-05 -0.0074035706 747.88889)
(0.0069774422 -0.0062723096 747.88978)
(0.0034978098 -0.0042468358 747.89164)
(-0.0041180208 -0.001064996 747.89003)
(-0.0074035706 2.4277062e-05 747.88889)
(0.0010094399 0.0010094399 747.88899)
(0.0079680182 0.0019441597 747.89002)
(0.0038213592 0.0027829267 747.89201)
(-0.0037006813 0.0048112834 747.89075)
(-0.0062723096 0.0069774422 747.88978)
(0.0019441597 0.0079680182 747.89002)
(0.0087509291 0.0087509291 747.89116)
(0.0040569879 0.0096067956 747.89326)
(-0.0026739149 0.0024710434 747.89219)
(-0.0042468358 0.0034978098 747.89164)
(0.0027829267 0.0038213592 747.89201)
(0.0096067956 0.0040569879 747.89326)
(0.0043919369 0.0043919369 747.89552)
(-0.0055378819 -0.0055378819 748.3033)
(-0.010508068 -0.004785467 748.30223)
(-0.00073866477 -0.0044421609 748.30224)
(0.0058472558 -0.0039738841 748.30293)
(0.002923117 -0.002818998 748.30418)
(-0.004785467 -0.010508068 748.30223)
(-0.0088644863 -0.0088644863 748.30134)
(0.00047870958 -0.0078132845 748.30144)
(0.0082820001 -0.0065437433 748.30226)
(0.0040780031 -0.0042664397 748.30386)
(-0.0044421609 -0.00073866477 748.30224)
(-0.0078132845 0.00047870957 748.30144)
(0.0015820783 0.0015820783 748.30163)
(0.0093941006 0.002633776 748.30257)
(0.0044413195 0.0035805199 748.30427)
(-0.0039738841 0.0058472558 748.30293)
(-0.0065437433 0.008282 748.30226)
(0.002633776 0.0093941006 748.30257)
(0.010280442 0.010280442 748.3036)
(0.0047091657 0.01126424 748.30539)
(-0.002818998 0.002923117 748.30418)
(-0.0042664397 0.0040780031 748.30386)
(0.0035805199 0.0044413194 748.30427)
(0.01126424 0.0047091657 748.30539)
(0.0050971852 0.0050971852 748.30733)
(-0.0058233185 -0.0058233185 748.75678)
(-0.010901262 -0.0050210969 748.75614)
(-0.00036963803 -0.00465179 748.75627)
(0.0067590704 -0.0041441099 748.7569)
(0.0033082831 -0.002889543 748.75794)
(-0.0050210969 -0.010901262 748.75614)
(-0.0091439688 -0.0091439688 748.75562)
(0.00094584251 -0.0080106542 748.75582)
(0.0094024408 -0.0066341037 748.75655)
(0.00456285 -0.0041610527 748.75784)
(-0.00465179 -0.00036963803 748.75627)
(-0.0080106542 0.00094584251 748.75582)
(0.002140227 0.002140227 748.75609)
(0.010608672 0.0032830023 748.7569)
(0.0049569838 0.0043144014 748.75826)
(-0.0041441099 0.0067590704 748.7569)
(-0.0066341037 0.0094024408 748.75655)
(0.0032830023 0.010608672 748.7569)
(0.011576615 0.011576615 748.75778)
(0.0052504494 0.012664104 748.75921)
(-0.002889543 0.0033082831 748.75794)
(-0.0041610527 0.00456285 748.75784)
(0.0043144014 0.0049569838 748.75826)
(0.012664104 0.0052504494 748.75921)
(0.0056819763 0.0056819763 748.76076)
(-0.0059626436 -0.0059626436 749.2409)
(-0.011015379 -0.0051303685 749.2407)
(2.1603631e-05 -0.0047441564 749.24094)
(0.0075150549 -0.0042095754 749.24149)
(0.0036146915 -0.0028862207 749.24228)
(-0.0051303685 -0.011015379 749.2407)
(-0.0091876485 -0.0091876485 749.24056)
(0.0014027934 -0.0080001365 749.24084)
(0.010301958 -0.0065504791 749.24145)
(0.0049380462 -0.0039425833 749.2424)
(-0.0047441564 2.1603634e-05 749.24094)
(-0.0080001365 0.0014027934 749.24084)
(0.002658773 0.002658773 749.24117)
(0.011572608 0.0038644777 749.24182)
(0.0053532887 0.0049551225 749.24282)
(-0.0042095754 0.0075150549 749.24149)
(-0.0065504791 0.010301958 749.24145)
(0.0038644777 0.011572608 749.24182)
(0.012598308 0.012598308 749.24252)
(0.0056651427 0.013762692 749.24356)
(-0.0028862207 0.0036146915 749.24228)
(-0.0039425833 0.0049380462 749.2424)
(0.0049551225 0.0053532887 749.24282)
(0.013762692 0.0056651427 749.24356)
(0.0061295446 0.0061295446 749.24468)
(-0.0059538343 -0.0059538343 749.74372)
(-0.010853103 -0.0051119985 749.74397)
(0.00041868297 -0.0047183919 749.74432)
(0.008091145 -0.004170074 749.74476)
(0.0038334071 -0.0028105177 749.74527)
(-0.0051119985 -0.010853103 749.74397)
(-0.0089999391 -0.0089999392 749.74421)
(0.0018315697 -0.0077874747 749.74457)
(0.010952956 -0.0063004109 749.74503)
(0.0051929634 -0.0036218907 749.7456)
(-0.0047183919 0.00041868298 749.74432)
(-0.0077874747 0.0018315697 749.74457)
(0.0031182112 0.0031182112 749.74494)
(0.012256729 0.0043571489 749.74541)
(0.0056190873 0.0054801744 749.746)
(-0.004170074 0.008091145 749.74476)
(-0.0063004109 0.010952956 749.74503)
(0.0043571489 0.012256729 749.74541)
(0.01331492 0.01331492 749.74591)
(0.0059416472 0.014527516 749.74652)
(-0.0028105177 0.0038334071 749.74527)
(-0.0036218907 0.0051929634 749.7456)
(0.0054801744 0.0056190873 749.746)
(0.014527516 0.0059416472 749.74652)
(0.0064274846 0.0064274846 749.74718)
(-0.0057980334 -0.0057980334 750.25287)
(-0.010422056 -0.0049673659 750.25355)
(0.00080734871 -0.004576058 750.25399)
(0.0084695406 -0.0040275059 750.25431)
(0.0039581236 -0.0026652252 750.25454)
(-0.0049673659 -0.010422056 750.25355)
(-0.0085890934 -0.0085890934 750.25417)
(0.0022171387 -0.0073815364 750.25459)
(0.01133579 -0.0058936875 750.25488)
(0.0053204044 -0.0032105003 750.25507)
(-0.004576058 0.00080734872 750.25399)
(-0.0073815364 0.0022171387 750.25459)
(0.0035027547 0.0035027547 750.25498)
(0.012640577 0.0047444119 750.25527)
(0.0057469151 0.0058721595 750.25544)
(-0.0040275059 0.0084695406 750.25431)
(-0.0058936875 0.01133579 750.25488)
(0.0047444119 0.012640577 750.25527)
(0.013705195 0.013705195 750.25554)
(0.0060722362 0.014936138 750.25571)
(-0.0026652252 0.0039581236 750.25454)
(-0.0032105002 0.0053204044 750.25507)
(0.0058721595 0.0057469151 750.25544)
(0.014936138 0.0060722362 750.25571)
(0.0065675441 0.0065675441 750.25588)
(-0.0054998604 -0.0054998604 750.75581)
(-0.0097359294 -0.0047008174 750.7569)
(0.0011742342 -0.0043214461 750.75742)
(0.0086378574 -0.0037861692 750.7576)
(0.0039849897 -0.0024547084 750.75753)
(-0.0047008174 -0.0097359294 750.7569)
(-0.0079683079 -0.0079683079 750.75788)
(0.0025462065 -0.0067954003 750.75834)
(0.011437964 -0.0053434092 750.75846)
(0.0053164505 -0.0027216271 750.75825)
(-0.0043214461 0.0011742342 750.75742)
(-0.0067954003 0.0025462065 750.75834)
(0.0037991328 0.0037991328 750.75875)
(0.012711631 0.0050129283 750.75883)
(0.0057328444 0.0061176244 750.75857)
(-0.0037861692 0.0086378574 750.7576)
(-0.0053434092 0.011437964 750.75846)
(0.0050129283 0.012711631 750.75883)
(0.013756456 0.013756456 750.75887)
(0.0060529145 0.014975433 750.75859)
(-0.0024547084 0.0039849897 750.75753)
(-0.0027216271 0.0053164505 750.75825)
(0.0061176244 0.0057328444 750.75857)
(0.014975433 0.0060529145 750.75859)
(0.006545496 0.006545496 750.75828)
(-0.0050675838 -0.0050675838 751.24015)
(-0.0088152474 -0.0043198454 751.24163)
(0.0015058325 -0.0039617569 751.2422)
(0.0085883423 -0.0034529396 751.24225)
(0.0039124254 -0.0021850852 751.24188)
(-0.0043198454 -0.0088152474 751.24163)
(-0.007156507 -0.007156507 751.24293)
(0.0028061912 -0.006047144 751.24342)
(0.01125335 -0.0046667766 751.24337)
(0.0051802798 -0.0021709624 751.24276)
(-0.0039617569 0.0015058325 751.2422)
(-0.006047144 0.0028061912 751.24342)
(0.0039955629 0.0039955629 751.24384)
(0.012464524 0.0051515959 751.2437)
(0.0055763016 0.0062060324 751.24302)
(-0.0034529396 0.0085883423 751.24225)
(-0.0046667766 0.01125335 751.24337)
(0.0051515959 0.012464524 751.2437)
(0.013463819 0.013463819 751.24351)
(0.0058832375 0.014640812 751.24278)
(-0.0021850852 0.0039124254 751.24188)
(-0.0021709624 0.0051802798 751.24276)
(0.0062060324 0.0055763016 751.24302)
(0.014640812 0.0058832375 751.24278)
(0.0063609631 0.0063609631 751.24198)
(-0.0045132611 -0.0045132611 751.69399)
(-0.0076881871 -0.0038352474 751.69581)
(0.0017872391 -0.0035072668 751.69641)
(0.0083167895 -0.0030374461 751.69631)
(0.0037408366 -0.0018644211 751.69565)
(-0.0038352474 -0.0076881871 751.69581)
(-0.0061791957 -0.0061791957 751.6974)
(0.0029839411 -0.0051607173 751.6979)
(0.010781058 -0.0038859888 751.69766)
(0.0049138615 -0.0015776126 751.69667)
(-0.0035072668 0.0017872391 751.69641)
(-0.0051607173 0.0029839411 751.6979)
(0.004080446 0.004080446 751.69829)
(0.011899894 0.0051502228 751.69794)
(0.0052797541 0.0061284194 751.69685)
(-0.0030374461 0.0083167895 751.69631)
(-0.0038859888 0.010781058 751.69766)
(0.0051502228 0.011899894 751.69794)
(0.012829031 0.012829031 751.6975)
(0.0055659926 0.013935046 751.69634)
(-0.0018644211 0.0037408366 751.69565)
(-0.0015776126 0.0049138615 751.69667)
(0.0061284194 0.0052797541 751.69685)
(0.013935046 0.0055659926 751.69634)
(0.0060170971 0.0060170971 751.69508)
(-0.0038529914 -0.0038529914 752.10617)
(-0.0063919188 -0.0032614066 752.10828)
(0.0020001446 -0.002971619 752.10888)
(0.0078207489 -0.002552379 752.10861)
(0.0034721151 -0.0015030795 752.10766)
(-0.0032614066 -0.0063919188 752.10828)
(-0.0050698601 -0.0050698601 752.11011)
(0.0030636861 -0.0041673758 752.11058)
(0.010023558 -0.003029727 752.11015)
(0.0045214145 -0.00096567039 752.10879)
(-0.002971619 0.0020001446 752.10888)
(-0.0041673758 0.0030636861 752.11058)
(0.0040402778 0.0040402778 752.11093)
(0.011022454 0.0049973907 752.11036)
(0.0048481528 0.0058752122 752.10887)
(-0.002552379 0.0078207489 752.10861)
(-0.003029727 0.010023558 752.11015)
(0.0049973907 0.011022454 752.11036)
(0.011858493 0.011858493 752.10967)
(0.0051066289 0.012866255 752.10809)
(-0.0015030795 0.0034721151 752.10766)
(-0.0009656704 0.0045214145 752.10879)
(0.0058752122 0.0048481528 752.10887)
(0.012866255 0.0051066289 752.10809)
(0.0055199946 0.0055199946 752.10638)
(-0.0031075648 -0.0031075648 752.46658)
(-0.0049752916 -0.0026169632 752.46891)
(0.0021193708 -0.0023725 752.46947)
(0.007096441 -0.002014194 752.46901)
(0.0031087506 -0.0011144955 752.46778)
(-0.0026169632 -0.0049752916 752.46891)
(-0.0038726944 -0.0038726944 752.47091)
(0.0030235246 -0.0031084317 752.47133)
(0.0089834478 -0.0021359844 752.47068)
(0.004008449 -0.00036719565 752.46896)
(-0.0023725 0.0021193708 752.46947)
(-0.0031084317 0.0030235246 752.47133)
(0.0038560808 0.0038560808 752.4716)
(0.009837677 0.004676802 752.47079)
(0.0042879431 0.0054324869 752.46892)
(-0.002014194 0.007096441 752.46901)
(-0.0021359844 0.0089834478 752.47068)
(0.004676802 0.009837677 752.47079)
(0.010559854 0.010559854 752.46984)
(0.004512239 0.01144441 752.46786)
(-0.0011144955 0.0031087506 752.46778)
(-0.00036719565 0.004008449 752.46896)
(0.0054324869 0.0042879431 752.46892)
(0.01144441 0.004512239 752.46786)
(0.0048776469 0.0048776469 752.46573)
(-0.0023042322 -0.0023042322 752.76644)
(-0.0035044894 -0.001926542 752.76888)
(0.002107031 -0.0017333381 752.76934)
(0.0061334433 -0.0014448523 752.76866)
(0.0026521809 -0.00071704719 752.76715)
(-0.001926542 -0.0035044894 752.76888)
(-0.0026481482 -0.0026481482 752.77096)
(0.0028295654 -0.0020407457 752.77127)
(0.0076578797 -0.0012576771 752.77037)
(0.003379986 0.00017188905 752.76831)
(-0.0017333381 0.002107031 752.76934)
(-0.0020407457 0.0028295654 752.77127)
(0.0034975021 0.0034975021 752.7714)
(0.008346078 0.0041612336 752.77032)
(0.003605225 0.004775733 752.76809)
(-0.0014448523 0.0061334433 752.76866)
(-0.0012576771 0.0076578797 752.77037)
(0.0041612336 0.008346078 752.77032)
(0.0089361106 0.0089361106 752.7691)
(0.0037896523 0.0096751938 752.76674)
(-0.00071704719 0.0026521809 752.76715)
(0.00017188906 0.003379986 752.76831)
(0.004775733 0.003605225 752.76809)
(0.0096751938 0.0037896523 752.76674)
(0.0040979471 0.0040979471 752.7642)
(-0.0014818962 -0.0014818962 752.99851)
(-0.0020754467 -0.0012255411 753.00091)
(0.0019039091 -0.0010879319 753.00117)
(0.0049055425 -0.00087653304 753.00022)
(0.002099354 -0.00033913108 752.9984)
(-0.0012255411 -0.0020754467 753.00091)
(-0.0014845004 -0.0014845004 753.00293)
(0.0024274212 -0.0010479523 753.00303)
(0.0060287438 -0.00047406253 753.00184)
(0.002636756 0.00057966991 752.99942)
(-0.0010879319 0.0019039091 753.00117)
(-0.0010479523 0.0024274212 753.00303)
(0.0029143469 0.0029143469 753.00295)
(0.0065331647 0.0034038296 753.00157)
(0.0028018423 0.0038607261 752.99896)
(-0.00087653305 0.0049055425 753.00022)
(-0.00047406252 0.0060287438 753.00184)
(0.0034038296 0.0065331647 753.00157)
(0.006975123 0.006975123 753.00001)
(0.0029413536 0.0075488374 752.99726)
(-0.00033913109 0.002099354 752.9984)
(0.00057966991 0.002636756 752.99942)
(0.0038607261 0.0028018423 752.99896)
(0.0075488374 0.0029413536 752.99726)
(0.0031843186 0.0031843186 752.9943)
(-0.00070819569 -0.00070819569 753.15745)
(-0.00084316422 -0.00057494631 753.15945)
(0.001422651 -0.00049474798 753.15942)
(0.0033545284 -0.00036613231 753.15812)
(0.0014340045 -3.5207435e-05 753.15587)
(-0.00057494631 -0.00084316422 753.15945)
(-0.00052299265 -0.00052299265 753.16112)
(0.001735872 -0.00026453035 753.16092)
(0.0040438393 8.4885946e-05 753.15937)
(0.0017649294 0.00073147517 753.15647)
(-0.00049474797 0.001422651 753.15942)
(-0.00026453034 0.001735872 753.16092)
(0.0020305296 0.0020305296 753.16054)
(0.004350534 0.0023317637 753.15878)
(0.001865064 0.002616456 753.15568)
(-0.00036613231 0.0033545284 753.15812)
(8.4885949e-05 0.0040438393 753.15937)
(0.0023317637 0.004350534 753.15878)
(0.0046297657 0.0046297656 753.15684)
(0.0019547243 0.0050177372 753.15358)
(-3.5207434e-05 0.0014340045 753.15587)
(0.00073147518 0.0017649294 753.15647)
(0.002616456 0.001865064 753.15568)
(0.0050177372 0.0019547243 753.15358)
(0.0021237117 0.0021237117 753.15007)
(-0.00014314552 -0.00014314552 753.24761)
(-9.8945622e-05 -0.00011248571 753.24874)
(0.00057463932 -8.7456462e-05 753.24837)
(0.0013578697 -4.5896064e-05 753.24665)
(0.00059933534 5.5302775e-05 753.24341)
(-0.00011248571 -9.8945628e-05 753.24874)
(-1.5412033e-05 -1.5412033e-05 753.24966)
(0.00067452378 6.7609672e-05 753.24912)
(0.0015720085 0.00018219018 753.24715)
(0.00070053417 0.00038384143 753.24328)
(-8.745646e-05 0.00057463931 753.24837)
(6.7609678e-05 0.00067452378 753.24912)
(0.00077224152 0.00077224152 753.24841)
(0.0016741014 0.00087461978 753.24622)
(0.00073376951 0.000974686 753.24216)
(-4.5896059e-05 0.0013578697 753.24665)
(0.00018219018 0.0015720085 753.24715)
(0.00087461978 0.0016741014 753.24622)
(0.001774453 0.001774453 753.24385)
(0.00076724499 0.0019422257 753.23959)
(5.5302777e-05 0.00059933534 753.24341)
(0.00038384144 0.00070053417 753.24328)
(0.000974686 0.00073376951 753.24216)
(0.0019422257 0.00076724499 753.23959)
(0.00084561798 0.00084561798 753.23493)
)
;

boundaryField
{
    wall_minX
    {
        type            extrapolatedCalculated;
        value           nonuniform List<vector> 
100
(
(0 -0.00079511027 746.76306)
(0 -0.0015984362 746.75863)
(0 -0.00045750117 746.7571)
(0 8.5983739e-05 746.75696)
(0 9.1809376e-05 746.75763)
(0 -0.0020525098 746.84749)
(0 -0.0041560856 746.84414)
(0 -0.0011302176 746.84299)
(0 0.0005499671 746.84316)
(0 0.00040190919 746.84437)
(0 -0.0030325267 747.00307)
(0 -0.0060981158 747.00036)
(0 -0.0014319028 746.99958)
(0 0.0014596928 747.00003)
(0 0.00089484657 747.00157)
(0 -0.0038560769 747.23331)
(0 -0.0076482926 747.23103)
(0 -0.0014641194 747.23052)
(0 0.0025488314 747.23115)
(0 0.0014325157 747.23276)
(0 -0.0045485681 747.53201)
(0 -0.0088852537 747.53013)
(0 -0.0013206145 747.52982)
(0 0.0036929274 747.53053)
(0 0.0019674269 747.53209)
(0 -0.0051109382 747.89165)
(0 -0.0098361217 747.89017)
(0 -0.001064996 747.89003)
(0 0.0048112834 747.89075)
(0 0.0024710434 747.89219)
(0 -0.0055378819 748.3033)
(0 -0.010508068 748.30223)
(0 -0.00073866477 748.30224)
(0 0.0058472558 748.30293)
(0 0.002923117 748.30418)
(0 -0.0058233185 748.75678)
(0 -0.010901262 748.75614)
(0 -0.00036963803 748.75627)
(0 0.0067590704 748.7569)
(0 0.0033082831 748.75794)
(0 -0.0059626436 749.2409)
(0 -0.011015379 749.2407)
(0 2.1603634e-05 749.24094)
(0 0.0075150549 749.24149)
(0 0.0036146915 749.24228)
(0 -0.0059538343 749.74372)
(0 -0.010853103 749.74397)
(0 0.00041868298 749.74432)
(0 0.008091145 749.74476)
(0 0.0038334071 749.74527)
(0 -0.0057980334 750.25287)
(0 -0.010422056 750.25355)
(0 0.00080734872 750.25399)
(0 0.0084695406 750.25431)
(0 0.0039581236 750.25454)
(0 -0.0054998604 750.75581)
(0 -0.0097359294 750.7569)
(0 0.0011742342 750.75742)
(0 0.0086378574 750.7576)
(0 0.0039849897 750.75753)
(0 -0.0050675838 751.24015)
(0 -0.0088152474 751.24163)
(0 0.0015058325 751.2422)
(0 0.0085883423 751.24225)
(0 0.0039124254 751.24188)
(0 -0.0045132611 751.69399)
(0 -0.0076881871 751.69581)
(0 0.0017872391 751.69641)
(0 0.0083167895 751.69631)
(0 0.0037408366 751.69565)
(0 -0.0038529914 752.10617)
(0 -0.0063919188 752.10828)
(0 0.0020001446 752.10888)
(0 0.0078207489 752.10861)
(0 0.0034721151 752.10766)
(0 -0.0031075648 752.46658)
(0 -0.0049752916 752.46891)
(0 0.0021193708 752.46947)
(0 0.007096441 752.46901)
(0 0.0031087506 752.46778)
(0 -0.0023042322 752.76644)
(0 -0.0035044894 752.76888)
(0 0.002107031 752.76934)
(0 0.0061334433 752.76866)
(0 0.0026521809 752.76715)
(0 -0.0014818962 752.99851)
(0 -0.0020754467 753.00091)
(0 0.0019039091 753.00117)
(0 0.0049055425 753.00022)
(0 0.002099354 752.9984)
(0 -0.00070819569 753.15745)
(0 -0.00084316422 753.15945)
(0 0.001422651 753.15942)
(0 0.0033545284 753.15812)
(0 0.0014340045 753.15587)
(0 -0.00014314552 753.24761)
(0 -9.8945628e-05 753.24874)
(0 0.00057463931 753.24837)
(0 0.0013578697 753.24665)
(0 0.00059933534 753.24341)
)
;
    }
    wall_maxX
    {
        type            extrapolatedCalculated;
        value           nonuniform List<vector> 
100
(
(0 -0.00053448251 746.75763)
(0 -0.0010016857 746.75477)
(0 -6.8922136e-05 746.75405)
(0 0.00050326548 746.75465)
(0 0.00024815047 746.75632)
(0 -0.0012637326 746.84437)
(0 -0.0023658497 746.84251)
(0 3.6614937e-05 746.84215)
(0 0.0018917517 746.84307)
(0 0.0009232573 746.84541)
(0 -0.0017685873 747.00157)
(0 -0.0032161524 747.00024)
(0 0.0004916717 747.00018)
(0 0.003761349 747.00137)
(0 0.0018042705 747.00406)
(0 -0.002154907 747.23276)
(0 -0.0037583769 747.23173)
(0 0.0011708503 747.23189)
(0 0.0057660237 747.2332)
(0 0.0027127713 747.23587)
(0 -0.002453501 747.53209)
(0 -0.0040861667 747.53131)
(0 0.001961237 747.5316)
(0 0.0077489462 747.53292)
(0 0.0035878626 747.53544)
(0 -0.0026739149 747.89219)
(0 -0.0042468358 747.89164)
(0 0.0027829267 747.89201)
(0 0.0096067956 747.89326)
(0 0.0043919369 747.89552)
(0 -0.002818998 748.30418)
(0 -0.0042664397 748.30386)
(0 0.0035805199 748.30427)
(0 0.01126424 748.30539)
(0 0.0050971852 748.30733)
(0 -0.002889543 748.75794)
(0 -0.0041610527 748.75784)
(0 0.0043144014 748.75826)
(0 0.012664104 748.75921)
(0 0.0056819763 748.76076)
(0 -0.0028862207 749.24228)
(0 -0.0039425833 749.2424)
(0 0.0049551225 749.24282)
(0 0.013762692 749.24356)
(0 0.0061295446 749.24468)
(0 -0.0028105177 749.74527)
(0 -0.0036218907 749.7456)
(0 0.0054801744 749.746)
(0 0.014527516 749.74652)
(0 0.0064274846 749.74718)
(0 -0.0026652252 750.25454)
(0 -0.0032105003 750.25507)
(0 0.0058721595 750.25544)
(0 0.014936138 750.25571)
(0 0.0065675441 750.25588)
(0 -0.0024547084 750.75753)
(0 -0.0027216271 750.75825)
(0 0.0061176244 750.75857)
(0 0.014975433 750.75859)
(0 0.006545496 750.75828)
(0 -0.0021850852 751.24188)
(0 -0.0021709624 751.24276)
(0 0.0062060324 751.24302)
(0 0.014640812 751.24278)
(0 0.0063609631 751.24198)
(0 -0.0018644211 751.69565)
(0 -0.0015776126 751.69667)
(0 0.0061284194 751.69685)
(0 0.013935046 751.69634)
(0 0.0060170971 751.69508)
(0 -0.0015030795 752.10766)
(0 -0.00096567039 752.10879)
(0 0.0058752122 752.10887)
(0 0.012866255 752.10809)
(0 0.0055199946 752.10638)
(0 -0.0011144955 752.46778)
(0 -0.00036719565 752.46896)
(0 0.0054324869 752.46892)
(0 0.01144441 752.46786)
(0 0.0048776469 752.46573)
(0 -0.00071704719 752.76715)
(0 0.00017188905 752.76831)
(0 0.004775733 752.76809)
(0 0.0096751938 752.76674)
(0 0.0040979471 752.7642)
(0 -0.00033913108 752.9984)
(0 0.00057966991 752.99942)
(0 0.0038607261 752.99896)
(0 0.0075488374 752.99726)
(0 0.0031843186 752.9943)
(0 -3.5207435e-05 753.15587)
(0 0.00073147517 753.15647)
(0 0.002616456 753.15568)
(0 0.0050177372 753.15358)
(0 0.0021237117 753.15007)
(0 5.5302775e-05 753.24341)
(0 0.00038384143 753.24328)
(0 0.000974686 753.24216)
(0 0.0019422257 753.23959)
(0 0.00084561798 753.23493)
)
;
    }
    wall_minY
    {
        type            extrapolatedCalculated;
        value           nonuniform List<vector> 
100
(
(-0.00079511027 0 746.76306)
(-0.0020525098 0 746.84749)
(-0.0030325267 0 747.00307)
(-0.0038560769 0 747.23331)
(-0.0045485681 0 747.53201)
(-0.0051109382 0 747.89165)
(-0.0055378819 0 748.3033)
(-0.0058233185 0 748.75678)
(-0.0059626436 0 749.2409)
(-0.0059538343 0 749.74372)
(-0.0057980334 0 750.25287)
(-0.0054998604 0 750.75581)
(-0.0050675838 0 751.24015)
(-0.0045132611 0 751.69399)
(-0.0038529914 0 752.10617)
(-0.0031075648 0 752.46658)
(-0.0023042322 0 752.76644)
(-0.0014818962 0 752.99851)
(-0.00070819569 0 753.15745)
(-0.00014314552 0 753.24761)
(-0.0015984362 0 746.75863)
(-0.0041560856 0 746.84414)
(-0.0060981158 0 747.00036)
(-0.0076482926 0 747.23103)
(-0.0088852537 0 747.53013)
(-0.0098361217 0 747.89017)
(-0.010508068 0 748.30223)
(-0.010901262 0 748.75614)
(-0.011015379 0 749.2407)
(-0.010853103 0 749.74397)
(-0.010422056 0 750.25355)
(-0.0097359294 0 750.7569)
(-0.0088152474 0 751.24163)
(-0.0076881871 0 751.69581)
(-0.0063919188 0 752.10828)
(-0.0049752916 0 752.46891)
(-0.0035044894 0 752.76888)
(-0.0020754467 0 753.00091)
(-0.00084316422 0 753.15945)
(-9.8945622e-05 0 753.24874)
(-0.00045750117 0 746.7571)
(-0.0011302176 0 746.84299)
(-0.0014319028 0 746.99958)
(-0.0014641194 0 747.23052)
(-0.0013206145 0 747.52982)
(-0.001064996 0 747.89003)
(-0.00073866477 0 748.30224)
(-0.00036963803 0 748.75627)
(2.1603631e-05 0 749.24094)
(0.00041868297 0 749.74432)
(0.00080734871 0 750.25399)
(0.0011742342 0 750.75742)
(0.0015058325 0 751.2422)
(0.0017872391 0 751.69641)
(0.0020001446 0 752.10888)
(0.0021193708 0 752.46947)
(0.002107031 0 752.76934)
(0.0019039091 0 753.00117)
(0.001422651 0 753.15942)
(0.00057463932 0 753.24837)
(8.5983739e-05 0 746.75696)
(0.00054996709 0 746.84316)
(0.0014596928 0 747.00003)
(0.0025488314 0 747.23115)
(0.0036929274 0 747.53053)
(0.0048112834 0 747.89075)
(0.0058472558 0 748.30293)
(0.0067590704 0 748.7569)
(0.0075150549 0 749.24149)
(0.008091145 0 749.74476)
(0.0084695406 0 750.25431)
(0.0086378574 0 750.7576)
(0.0085883423 0 751.24225)
(0.0083167895 0 751.69631)
(0.0078207489 0 752.10861)
(0.007096441 0 752.46901)
(0.0061334433 0 752.76866)
(0.0049055425 0 753.00022)
(0.0033545284 0 753.15812)
(0.0013578697 0 753.24665)
(9.1809376e-05 0 746.75763)
(0.00040190919 0 746.84437)
(0.00089484657 0 747.00157)
(0.0014325157 0 747.23276)
(0.0019674269 0 747.53209)
(0.0024710434 0 747.89219)
(0.002923117 0 748.30418)
(0.0033082831 0 748.75794)
(0.0036146915 0 749.24228)
(0.0038334071 0 749.74527)
(0.0039581236 0 750.25454)
(0.0039849897 0 750.75753)
(0.0039124254 0 751.24188)
(0.0037408366 0 751.69565)
(0.0034721151 0 752.10766)
(0.0031087506 0 752.46778)
(0.0026521809 0 752.76715)
(0.002099354 0 752.9984)
(0.0014340045 0 753.15587)
(0.00059933534 0 753.24341)
)
;
    }
    wall_maxY
    {
        type            extrapolatedCalculated;
        value           nonuniform List<vector> 
100
(
(-0.00053448251 0 746.75763)
(-0.0012637326 0 746.84437)
(-0.0017685873 0 747.00157)
(-0.002154907 0 747.23276)
(-0.002453501 0 747.53209)
(-0.0026739149 0 747.89219)
(-0.002818998 0 748.30418)
(-0.002889543 0 748.75794)
(-0.0028862207 0 749.24228)
(-0.0028105177 0 749.74527)
(-0.0026652252 0 750.25454)
(-0.0024547084 0 750.75753)
(-0.0021850852 0 751.24188)
(-0.0018644211 0 751.69565)
(-0.0015030795 0 752.10766)
(-0.0011144955 0 752.46778)
(-0.00071704719 0 752.76715)
(-0.00033913109 0 752.9984)
(-3.5207434e-05 0 753.15587)
(5.5302777e-05 0 753.24341)
(-0.0010016857 0 746.75477)
(-0.0023658497 0 746.84251)
(-0.0032161524 0 747.00024)
(-0.0037583769 0 747.23173)
(-0.0040861667 0 747.53131)
(-0.0042468358 0 747.89164)
(-0.0042664397 0 748.30386)
(-0.0041610527 0 748.75784)
(-0.0039425833 0 749.2424)
(-0.0036218907 0 749.7456)
(-0.0032105002 0 750.25507)
(-0.0027216271 0 750.75825)
(-0.0021709624 0 751.24276)
(-0.0015776126 0 751.69667)
(-0.0009656704 0 752.10879)
(-0.00036719565 0 752.46896)