/*--------------------------------*- C++ -*----------------------------------*\
| =========                 |                                                 |
| \\      /  F ield         | OpenFOAM: The Open Source CFD Toolbox           |
|  \\    /   O peration     | Version:  v2106                                 |
|   \\  /    A nd           | Website:  www.openfoam.com                      |
|    \\/     M anipulation  |                                                 |
\*---------------------------------------------------------------------------*/
FoamFile
{
    version     2.0;
    format      ascii;
    arch        "LSB;label=32;scalar=64";
    class       volScalarField;
    location    "40";
    object      gradTy;
}
// * * * * * * * * * * * * * * * * * * * * * * * * * * * * * * * * * * * * * //

dimensions      [0 -1 0 1 0 0 0];

internalField   nonuniform List<scalar> 
500
(
-0.00079511027
-0.00070068056
-0.00066508989
-0.00062416863
-0.00053448251
-0.0015984362
-0.0014034057
-0.0012984931
-0.0011859137
-0.0010016857
-0.00045750117
-0.00034273328
-0.00024000918
-0.00014792832
-6.8922136e-05
8.5983739e-05
0.00028189481
0.00038279117
0.00045298185
0.00050326548
9.1809376e-05
0.0001814955
0.00021462805
0.0002341663
0.00024815047
-0.0020525098
-0.0017960005
-0.0016931791
-0.0015666286
-0.0012637326
-0.0041560856
-0.0036170896
-0.003311085
-0.0029677523
-0.0023658497
-0.0011302176
-0.0007861597
-0.00048088034
-0.00020332789
3.6614937e-05
0.0005499671
0.0011941368
0.0014952024
0.0017116321
0.0018917517
0.00040190919
0.00070480516
0.00080317758
0.00086476704
0.0009232573
-0.0030325267
-0.0026473476
-0.0024841288
-0.0022751642
-0.0017685873
-0.0060981158
-0.0052755189
-0.0047845855
-0.0042184231
-0.0032161524
-0.0014319028
-0.0008736278
-0.000374807
8.6277679e-05
0.0004916717
0.0014596928
0.002533005
0.0030281259
0.0033994837
0.003761349
0.00089484657
0.0014014235
0.001563027
0.0016716861
0.0018042705
-0.0038560769
-0.0033574089
-0.003139491
-0.0028533946
-0.002154907
-0.0076482926
-0.0065734138
-0.0059133049
-0.0051381289
-0.0037583769
-0.0014641194
-0.00070809805
-2.8834505e-05
0.00060656864
0.0011708503
0.0025488314
0.0040257075
0.0047037594
0.0052253923
0.0057660237
0.0014325157
0.0021310034
0.0023523503
0.0025071912
0.0027127713
-0.0045485681
-0.0039497196
-0.0036829832
-0.0033268673
-0.002453501
-0.0088852537
-0.0075868763
-0.0067750573
-0.0058099478
-0.0040861667
-0.0013206145
-0.00038633597
0.00045631405
0.0012510715
0.001961237
0.0036929274
0.0055371508
0.006381818
0.0070420737
0.0077489462
0.0019674269
0.0028407932
0.0031166143
0.0033142369
0.0035878626
-0.0051109382
-0.0044268634
-0.0041180208
-0.0037006813
-0.0026739149
-0.0098361217
-0.0083467455
-0.0074035706
-0.0062723096
-0.0042468358
-0.001064996
2.4277062e-05
0.0010094399
0.0019441597
0.0027829267
0.0048112834
0.0069774422
0.0079680182
0.0087509291
0.0096067956
0.0024710434
0.0034978098
0.0038213592
0.0040569879
0.0043919369
-0.0055378819
-0.004785467
-0.0044421609
-0.0039738841
-0.002818998
-0.010508068
-0.0088644863
-0.0078132845
-0.0065437433
-0.0042664397
-0.00073866477
0.00047870957
0.0015820783
0.002633776
0.0035805199
0.0058472558
0.008282
0.0093941006
0.010280442
0.01126424
0.002923117
0.0040780031
0.0044413194
0.0047091657
0.0050971852
-0.0058233185
-0.0050210969
-0.00465179
-0.0041441099
-0.002889543
-0.010901262
-0.0091439688
-0.0080106542
-0.0066341037
-0.0041610527
-0.00036963803
0.00094584251
0.002140227
0.0032830023
0.0043144014
0.0067590704
0.0094024408
0.010608672
0.011576615
0.012664104
0.0033082831
0.00456285
0.0049569838
0.0052504494
0.0056819763
-0.0059626436
-0.0051303685
-0.0047441564
-0.0042095754
-0.0028862207
-0.011015379
-0.0091876485
-0.0080001365
-0.0065504791
-0.0039425833
2.1603634e-05
0.0014027934
0.002658773
0.0038644777
0.0049551225
0.0075150549
0.010301958
0.011572608
0.012598308
0.013762692
0.0036146915
0.0049380462
0.0053532887
0.0056651427
0.0061295446
-0.0059538343
-0.0051119985
-0.0047183919
-0.004170074
-0.0028105177
-0.010853103
-0.0089999392
-0.0077874747
-0.0063004109
-0.0036218907
0.00041868298
0.0018315697
0.0031182112
0.0043571489
0.0054801744
0.008091145
0.010952956
0.012256729
0.01331492
0.014527516
0.0038334071
0.0051929634
0.0056190873
0.0059416472
0.0064274846
-0.0057980334
-0.0049673659
-0.004576058
-0.0040275059
-0.0026652252
-0.010422056
-0.0085890934
-0.0073815364
-0.0058936875
-0.0032105003
0.00080734872
0.0022171387
0.0035027547
0.0047444119
0.0058721595
0.0084695406
0.01133579
0.012640577
0.013705195
0.014936138
0.0039581236
0.0053204044
0.0057469151
0.0060722362
0.0065675441
-0.0054998604
-0.0047008174
-0.0043214461
-0.0037861692
-0.0024547084
-0.0097359294
-0.0079683079
-0.0067954003
-0.0053434092
-0.0027216271
0.0011742342
0.0025462065
0.0037991328
0.0050129283
0.0061176244
0.0086378574
0.011437964
0.012711631
0.013756456
0.014975433
0.0039849897
0.0053164505
0.0057328444
0.0060529145
0.006545496
-0.0050675838
-0.0043198454
-0.0039617569
-0.0034529396
-0.0021850852
-0.0088152474
-0.007156507
-0.006047144
-0.0046667766
-0.0021709624
0.0015058325
0.0028061912
0.0039955629
0.0051515959
0.0062060324
0.0085883423
0.01125335
0.012464524
0.013463819
0.014640812
0.0039124254
0.0051802798
0.0055763016
0.0058832375
0.0063609631
-0.0045132611
-0.0038352474
-0.0035072668
-0.0030374461
-0.0018644211
-0.0076881871
-0.0061791957
-0.0051607173
-0.0038859888
-0.0015776126
0.0017872391
0.0029839411
0.004080446
0.0051502228
0.0061284194
0.0083167895
0.010781058
0.011899894
0.012829031
0.013935046
0.0037408366
0.0049138615
0.0052797541
0.0055659926
0.0060170971
-0.0038529914
-0.0032614066
-0.002971619
-0.002552379
-0.0015030795
-0.0063919188
-0.0050698601
-0.0041673758
-0.003029727
-0.00096567039
0.0020001446
0.0030636861
0.0040402778
0.0049973907
0.0058752122
0.0078207489
0.010023558
0.011022454
0.011858493
0.012866255
0.0034721151
0.0045214145
0.0048481528
0.0051066289
0.0055199946
-0.0031075648
-0.0026169632
-0.0023725
-0.002014194
-0.0011144955
-0.0049752916
-0.0038726944
-0.0031084317
-0.0021359844
-0.00036719565
0.0021193708
0.0030235246
0.0038560808
0.004676802
0.0054324869
0.007096441
0.0089834478
0.009837677
0.010559854
0.01144441
0.0031087506
0.004008449
0.0042879431
0.004512239
0.0048776469
-0.0023042322
-0.001926542
-0.0017333381
-0.0014448523
-0.00071704719
-0.0035044894
-0.0026481482
-0.0020407457
-0.0012576771
0.00017188905
0.002107031
0.0028295654
0.0034975021
0.0041612336
0.004775733
0.0061334433
0.0076578797
0.008346078
0.0089361106
0.0096751938
0.0026521809
0.003379986
0.003605225
0.0037896523
0.0040979471
-0.0014818962
-0.0012255411
-0.0010879319
-0.00087653304
-0.00033913108
-0.0020754467
-0.0014845004
-0.0010479523
-0.00047406253
0.00057966991
0.0019039091
0.0024274212
0.0029143469
0.0034038296
0.0038607261
0.0049055425
0.0060287438
0.0065331647
0.006975123
0.0075488374
0.002099354
0.002636756
0.0028018423
0.0029413536
0.0031843186
-0.00070819569
-0.00057494631
-0.00049474798
-0.00036613231
-3.5207435e-05
-0.00084316422
-0.00052299265
-0.00026453035
8.4885946e-05
0.00073147517
0.001422651
0.001735872
0.0020305296
0.0023317637
0.002616456
0.0033545284
0.0040438393
0.004350534
0.0046297656
0.0050177372
0.0014340045
0.0017649294
0.001865064
0.0019547243
0.0021237117
-0.00014314552
-0.00011248571
-8.7456462e-05
-4.5896064e-05
5.5302775e-05
-9.8945628e-05
-1.5412033e-05
6.7609672e-05
0.00018219018
0.00038384143
0.00057463931
0.00067452378
0.00077224152
0.00087461978
0.000974686
0.0013578697
0.0015720085
0.0016741014
0.001774453
0.0019422257
0.00059933534
0.00070053417
0.00073376951
0.00076724499
0.00084561798
)
;

boundaryField
{
    wall_minX
    {
        type            calculated;
        value           nonuniform List<scalar> 
100
(
-0.00079511027
-0.0015984362
-0.00045750117
8.5983739e-05
9.1809376e-05
-0.0020525098
-0.0041560856
-0.0011302176
0.0005499671
0.00040190919
-0.0030325267
-0.0060981158
-0.0014319028
0.0014596928
0.00089484657
-0.0038560769
-0.0076482926
-0.0014641194
0.0025488314
0.0014325157
-0.0045485681
-0.0088852537
-0.0013206145
0.0036929274
0.0019674269
-0.0051109382
-0.0098361217
-0.001064996
0.0048112834
0.0024710434
-0.0055378819
-0.010508068
-0.00073866477
0.0058472558
0.002923117
-0.0058233185
-0.010901262
-0.00036963803
0.0067590704
0.0033082831
-0.0059626436
-0.011015379
2.1603634e-05
0.0075150549
0.0036146915
-0.0059538343
-0.010853103
0.00041868298
0.008091145
0.0038334071
-0.0057980334
-0.010422056
0.00080734872
0.0084695406
0.0039581236
-0.0054998604
-0.0097359294
0.0011742342
0.0086378574
0.0039849897
-0.0050675838
-0.0088152474
0.0015058325
0.0085883423
0.0039124254
-0.0045132611
-0.0076881871
0.0017872391
0.0083167895
0.0037408366
-0.0038529914
-0.0063919188
0.0020001446
0.0078207489
0.0034721151
-0.0031075648
-0.0049752916
0.0021193708
0.007096441
0.0031087506
-0.0023042322
-0.0035044894
0.002107031
0.0061334433
0.0026521809
-0.0014818962
-0.0020754467
0.0019039091
0.0049055425
0.002099354
-0.00070819569
-0.00084316422
0.001422651
0.0033545284
0.0014340045
-0.00014314552
-9.8945628e-05
0.00057463931
0.0013578697
0.00059933534
)
;
    }
    wall_maxX
    {
        type            calculated;
        value           nonuniform List<scalar> 
100
(
-0.00053448251
-0.0010016857
-6.8922136e-05
0.00050326548
0.00024815047
-0.0012637326
-0.0023658497
3.6614937e-05
0.0018917517
0.0009232573
-0.0017685873
-0.0032161524
0.0004916717
0.003761349
0.0018042705
-0.002154907
-0.0037583769
0.0011708503
0.0057660237
0.0027127713
-0.002453501
-0.0040861667
0.001961237
0.0077489462
0.0035878626
-0.0026739149
-0.0042468358
0.0027829267
0.0096067956
0.0043919369
-0.002818998
-0.0042664397
0.0035805199
0.01126424
0.0050971852
-0.002889543
-0.0041610527
0.0043144014
0.012664104
0.0056819763
-0.0028862207
-0.0039425833
0.0049551225
0.013762692
0.0061295446
-0.0028105177
-0.0036218907
0.0054801744
0.014527516
0.0064274846
-0.0026652252
-0.0032105003
0.0058721595
0.014936138
0.0065675441
-0.0024547084
-0.0027216271
0.0061176244
0.014975433
0.006545496
-0.0021850852
-0.0021709624
0.0062060324
0.014640812
0.0063609631
-0.0018644211
-0.0015776126
0.0061284194
0.013935046
0.0060170971
-0.0015030795
-0.00096567039
0.0058752122
0.012866255
0.0055199946
-0.0011144955
-0.00036719565
0.0054324869
0.01144441
0.0048776469
-0.00071704719
0.00017188905
0.004775733
0.0096751938
0.0040979471
-0.00033913108
0.00057966991
0.0038607261
0.0075488374
0.0031843186
-3.5207435e-05
0.00073147517
0.002616456
0.0050177372
0.0021237117
5.5302775e-05
0.00038384143
0.000974686
0.0019422257
0.00084561798
)
;
    }
    wall_minY
    {
        type            calculated;
        value           uniform 0;
    }
    wall_maxY
    {
        type            calculated;
        value           uniform 0;
    }
    inlet_minZ
    {
        type            calculated;
        value           nonuniform List<scalar> 
25
(
-0.00079511027
-0.0015984362
-0.00045750117
8.5983739e-05
9.1809376e-05
-0.00070068056
-0.0014034057
-0.00034273328
0.00028189481
0.0001814955
-0.00066508989
-0.0012984931
-0.00024000918
0.00038279117
0.00021462805
-0.00062416863
-0.0011859137
-0.00014792832
0.00045298185
0.0002341663
-0.00053448251
-0.0010016857
-6.8922136e-05
0.00050326548
0.00024815047
)
;
    }
    outlet_maxZ
    {
        type            calculated;
        value           nonuniform List<scalar> 
25
(
-0.00014314552
-9.8945628e-05
0.00057463931
0.0013578697
0.00059933534
-0.00011248571
-1.5412033e-05
0.00067452378
0.0015720085
0.00070053417
-8.7456462e-05
6.7609672e-05
0.00077224152
0.0016741014
0.00073376951
-4.5896064e-05
0.00018219018
0.00087461978
0.001774453
0.00076724499
5.5302775e-05
0.00038384143
0.000974686
0.0019422257
0.00084561798
)
;
    }
}


// ************************************************************************* //
