/*--------------------------------*- C++ -*----------------------------------*\
| =========                 |                                                 |
| \\      /  F ield         | OpenFOAM: The Open Source CFD Toolbox           |
|  \\    /   O peration     | Version:  v2106                                 |
|   \\  /    A nd           | Website:  www.openfoam.com                      |
|    \\/     M anipulation  |                                                 |
\*---------------------------------------------------------------------------*/
FoamFile
{
    version     2.0;
    format      ascii;
    arch        "LSB;label=32;scalar=64";
    class       volScalarField;
    location    "40";
    object      laplacianT;
}
// * * * * * * * * * * * * * * * * * * * * * * * * * * * * * * * * * * * * * //

dimensions      [0 -2 0 1 0 0 0];

internalField   nonuniform List<scalar> 
500
(
1.7121671
1.9742107
1.950263
1.950171
1.9498802
1.9742107
2.1862567
2.1658173
2.1656519
2.1277331
1.950263
2.1658173
2.1454033
2.1450994
2.1086507
1.950171
2.1656519
2.1450994
2.1446826
2.1081131
1.9498802
2.1277331
2.1086507
2.108113
2.0714951
5.2260851
5.8141898
5.7518655
5.7511303
5.698128
5.8141898
6.2742238
6.2218179
6.2208784
6.0184476
5.7518655
6.2218179
6.1696596
6.1683275
5.9765954
5.7511303
6.2208784
6.1683275
6.1666716
5.9746725
5.698128
6.0184476
5.9765954
5.9746725
5.7704943
8.8060129
9.6420852
9.5490118
9.5473979
9.3733825
9.6420852
10.293739
10.215611
10.213567
9.7894253
9.5490118
10.215611
10.13783
10.135143
9.7310728
9.5473979
10.213567
10.135143
10.131917
9.7274834
9.3733825
9.7894253
9.7310728
9.7274834
9.275932
12.151554
13.216418
13.095199
13.09247
12.807081
13.216418
14.045461
13.943646
13.940258
13.309337
13.095199
13.943646
13.842256
13.83799
13.236074
13.09247
13.940258
13.83799
13.832979
13.230624
12.807081
13.309337
13.236074
13.230624
12.550631
15.197291
16.464966
16.318442
16.314496
15.924757
16.464966
17.451111
17.327953
17.323128
16.500938
16.318442
17.327953
17.20529
17.199375
16.414423
16.314496
17.323128
17.199375
17.192525
16.407082
15.924757
16.500938
16.414423
16.407082
15.515742
17.869102
19.308337
19.140016
19.134851
18.650294
19.308337
20.427248
20.285677
20.279433
19.286156
19.140016
20.285677
20.144659
20.137141
19.188425
19.134851
20.279433
20.137141
20.12852
19.179281
18.650294
19.286156
19.188425
19.179281
18.098522
20.101098
21.676426
21.490396
21.484085
20.916604
21.676426
22.900517
22.743962
22.736396
21.596457
21.490396
22.743962
22.588005
22.579012
21.489863
21.484085
22.736396
22.579012
22.568776
21.479088
20.916604
21.596457
21.489863
21.479088
20.235507
21.838242
23.510859
23.31167
23.304337
22.667888
23.510859
24.809973
24.642255
24.633524
23.374973
23.31167
24.642255
24.475167
24.46489
23.262111
23.304337
24.633524
24.46489
24.453262
23.249941
22.667888
23.374973
23.262111
23.249941
21.87415
23.03772
24.766433
24.558972
24.550783
23.861026
24.766433
26.108571
25.933804
25.924105
24.577921
24.558972
25.933804
25.759682
25.748358
24.461555
24.550783
25.924105
25.748358
25.735606
24.448276
23.861026
24.577921
24.461555
24.448276
22.974146
23.669973
25.412212
25.20158
25.192727
24.466642
25.412212
26.764323
26.586801
26.576365
25.175691
25.20158
26.586801
26.409925
26.397824
25.058678
25.192727
26.576365
26.397824
26.384254
25.044609
24.466642
25.175691
25.058678
25.044609
23.508435
23.719418
25.432283
25.223663
25.214362
24.469825
25.432283
26.761072
26.585164
26.574246
25.153568
25.223663
26.585164
26.409886
26.397305
25.038787
25.214362
26.574246
26.397305
26.383249
25.024273
24.469825
25.153568
25.038787
25.024273
23.46388
23.184825
24.826141
24.624673
24.615156
23.870501
24.826141
26.098891
25.928931
25.917802
24.512103
24.624673
25.928931
25.759569
25.746819
24.402383
24.615156
25.917802
25.746819
25.732626
24.387784
23.870501
24.512103
24.402383
24.387784
22.841594
22.079344
23.608699
23.419351
23.409859
22.683426
23.608699
24.794075
24.634256
24.623199
23.267096
23.419351
24.634256
24.47499
24.462393
23.165146
23.409859
24.623199
24.462393
24.448421
23.150829
22.683426
23.267096
23.165146
23.150829
21.656918
20.430171
21.809914
21.637363
21.628146
20.937833
21.809914
22.878737
22.733011
22.722315
21.449209
21.637363
22.733011
22.587778
22.575662
21.357556
21.628146
22.722315
22.575662
22.562271
21.343889
20.937833
21.449209
21.357556
21.343889
19.939049
18.277874
19.47404
19.322566
19.31388
18.676702
19.47404
20.400008
20.271995
20.261955
19.103212
19.322566
20.271995
20.144402
20.133097
19.024143
19.31388
20.261955
20.133097
20.120648
19.011494
18.676702
19.103212
19.024143
19.011494
17.73033
15.675376
16.658528
16.531914
16.524027
15.955707
16.658528
17.418867
17.311779
17.302698
16.286886
16.531914
17.311779
17.205026
17.194866
16.222403
16.524027
17.302698
17.194866
17.183723
16.211138
15.955707
16.286886
16.222403
16.211138
15.085224
12.686624
13.432584
13.334048
13.327248
12.841843
13.432584
14.008627
13.925205
13.917409
13.069603
13.334048
13.925205
13.842024
13.83336
13.021395
13.327248
13.917409
13.83336
13.823898
13.011889
12.841843
13.069603
13.021395
13.011889
12.068999
9.3849588
9.8754253
9.8075732
9.8021906
9.4117675
9.8754253
10.253096
10.195582
10.189437
9.5306343
9.8075732
10.195582
10.138206
10.131424
9.5000657
9.8021906
10.189437
10.131424
10.124052
9.4927238
9.4117675
9.5306343
9.5000657
9.4927238
8.7561728
5.8511919
6.0742534
6.0390713
6.0355064
5.749898
6.0742534
6.2445022
6.2146336
6.2105763
5.7572381
6.0390713
6.2146336
6.1847853
6.1803386
5.7453646
6.0355064
6.2105763
6.1803386
6.1755267
5.7406489
5.749898
5.7572381
5.7453646
5.7406489
5.2287812
2.1713206
2.1886267
2.1808225
2.179453
2.0061186
2.1886267
2.2012361
2.1945618
2.1930044
1.9742693
2.1808225
2.1945618
2.1878262
2.1861311
1.9729443
2.179453
2.1930044
2.1861311
2.1843039
1.971172
2.0061186
1.9742693
1.9729443
1.971172
1.7111392
)
;

boundaryField
{
    wall_minX
    {
        type            extrapolatedCalculated;
        value           nonuniform List<scalar> 
100
(
1.7121671
1.9742107
1.950263
1.950171
1.9498802
5.2260851
5.8141898
5.7518655
5.7511303
5.698128
8.8060129
9.6420852
9.5490118
9.5473979
9.3733825
12.151554
13.216418
13.095199
13.09247
12.807081
15.197291
16.464966
16.318442
16.314496
15.924757
17.869102
19.308337
19.140016
19.134851
18.650294
20.101098
21.676426
21.490396
21.484085
20.916604
21.838242
23.510859
23.31167
23.304337
22.667888
23.03772
24.766433
24.558972
24.550783
23.861026
23.669973
25.412212
25.20158
25.192727
24.466642
23.719418
25.432283
25.223663
25.214362
24.469825
23.184825
24.826141
24.624673
24.615156
23.870501
22.079344
23.608699
23.419351
23.409859
22.683426
20.430171
21.809914
21.637363
21.628146
20.937833
18.277874
19.47404
19.322566
19.31388
18.676702
15.675376
16.658528
16.531914
16.524027
15.955707
12.686624
13.432584
13.334048
13.327248
12.841843
9.3849588
9.8754253
9.8075732
9.8021906
9.4117675
5.8511919
6.0742534
6.0390713
6.0355064
5.749898
2.1713206
2.1886267
2.1808225
2.179453
2.0061186
)
;
    }
    wall_maxX
    {
        type            extrapolatedCalculated;
        value           nonuniform List<scalar> 
100
(
1.9498802
2.1277331
2.1086507
2.1081131
2.0714951
5.698128
6.0184476
5.9765954
5.9746725
5.7704943
9.3733825
9.7894253
9.7310728
9.7274834
9.275932
12.807081
13.309337
13.236074
13.230624
12.550631
15.924757
16.500938
16.414423
16.407082
15.515742
18.650294
19.286156
19.188425
19.179281
18.098522
20.916604
21.596457
21.489863
21.479088
20.235507
22.667888
23.374973
23.262111
23.249941
21.87415
23.861026
24.577921
24.461555
24.448276
22.974146
24.466642
25.175691
25.058678
25.044609
23.508435
24.469825
25.153568
25.038787
25.024273
23.46388
23.870501
24.512103
24.402383
24.387784
22.841594
22.683426
23.267096
23.165146
23.150829
21.656918
20.937833
21.449209
21.357556
21.343889
19.939049
18.676702
19.103212
19.024143
19.011494
17.73033
15.955707
16.286886
16.222403
16.211138
15.085224
12.841843
13.069603
13.021395
13.011889
12.068999
9.4117675
9.5306343
9.5000657
9.4927238
8.7561728
5.749898
5.7572381
5.7453646
5.7406489
5.2287812
2.0061186
1.9742693
1.9729443
1.971172
1.7111392
)
;
    }
    wall_minY
    {
        type            extrapolatedCalculated;
        value           nonuniform List<scalar> 
100
(
1.7121671
5.2260851
8.8060129
12.151554
15.197291
17.869102
20.101098
21.838242
23.03772
23.669973
23.719418
23.184825
22.079344
20.430171
18.277874
15.675376
12.686624
9.3849588
5.8511919
2.1713206
1.9742107
5.8141898
9.6420852
13.216418
16.464966
19.308337
21.676426
23.510859
24.766433
25.412212
25.432283
24.826141
23.608699
21.809914
19.47404
16.658528
13.432584
9.8754253
6.0742534
2.1886267
1.950263
5.7518655
9.5490118
13.095199
16.318442
19.140016
21.490396
23.31167
24.558972
25.20158
25.223663
24.624673
23.419351
21.637363
19.322566
16.531914
13.334048
9.8075732
6.0390713
2.1808225
1.950171
5.7511303
9.5473979
13.09247
16.314496
19.134851
21.484085
23.304337
24.550783
25.192727
25.214362
24.615156
23.409859
21.628146
19.31388
16.524027
13.327248
9.8021906
6.0355064
2.179453
1.9498802
5.698128
9.3733825
12.807081
15.924757
18.650294
20.916604
22.667888
23.861026
24.466642
24.469825
23.870501
22.683426
20.937833
18.676702
15.955707
12.841843
9.4117675
5.749898
2.0061186
)
;
    }
    wall_maxY
    {
        type            extrapolatedCalculated;
        value           nonuniform List<scalar> 
100
(
1.9498802
5.698128
9.3733825
12.807081
15.924757
18.650294
20.916604
22.667888
23.861026
24.466642
24.469825
23.870501
22.683426
20.937833
18.676702
15.955707
12.841843
9.4117675
5.749898
2.0061186
2.1277331
6.0184476
9.7894253
13.309337
16.500938
19.286156
21.596457
23.374973
24.577921
25.175691
25.153568
24.512103
23.267096
21.449209
19.103212
16.286886
13.069603
9.5306343
5.7572381
1.9742693
2.1086507
5.9765954
9.7310728
13.236074
16.414423
19.188425
21.489863
23.262111
24.461555
25.058678
25.038787
24.402383
23.165146
21.357556
19.024143
16.222403
13.021395
9.5000657
5.7453646
1.9729443
2.108113
5.9746725
9.7274834
13.230624
16.407082
19.179281
21.479088
23.249941
24.448276
25.044609
25.024273
24.387784
23.150829
21.343889
19.011494
16.211138
13.011889
9.4927238
5.7406489
1.971172
2.0714951
5.7704943
9.275932
12.550631
15.515742
18.098522
20.235507
21.87415
22.974146
23.508435
23.46388
22.841594
21.656918
19.939049
17.73033
15.085224
12.068999
8.7561728
5.2287812
1.7111392
)
;
    }
    inlet_minZ
    {
        type            extrapolatedCalculated;
        value           nonuniform List<scalar> 
25
(
1.7121671
1.9742107
1.950263
1.950171
1.9498802
1.9742107
2.1862567
2.1658173
2.1656519
2.1277331
1.950263
2.1658173
2.1454033
2.1450994
2.1086507
1.950171
2.1656519
2.1450994
2.1446826
2.108113
1.9498802
2.1277331
2.1086507
2.1081131
2.0714951
)
;
    }
    outlet_maxZ
    {
        type            extrapolatedCalculated;
        value           nonuniform List<scalar> 
25
(
2.1713206
2.1886267
2.1808225
2.179453
2.0061186
2.1886267
2.2012361
2.1945618
2.1930044
1.9742693
2.1808225
2.1945618
2.1878262
2.1861311
1.9729443
2.179453
2.1930044
2.1861311
2.1843039
1.971172
2.0061186
1.9742693
1.9729443
1.971172
1.7111392
)
;
    }
}


// ************************************************************************* //
