/*--------------------------------*- C++ -*----------------------------------*\
| =========                 |                                                 |
| \\      /  F ield         | OpenFOAM: The Open Source CFD Toolbox           |
|  \\    /   O peration     | Version:  v2106                                 |
|   \\  /    A nd           | Website:  www.openfoam.com                      |
|    \\/     M anipulation  |                                                 |
\*---------------------------------------------------------------------------*/
FoamFile
{
    version     2.0;
    format      ascii;
    arch        "LSB;label=32;scalar=64";
    class       volVectorField;
    location    "72.5";
    object      flux;
}
// * * * * * * * * * * * * * * * * * * * * * * * * * * * * * * * * * * * * * //

dimensions      [0 1 -1 1 0 0 0];

internalField   nonuniform List<vector> 
4000
(
(2.3496558e-07 2.3496557e-07 0.72730716)
(5.1626587e-07 2.0832423e-07 0.72730889)
(2.5996901e-07 2.021481e-07 0.72730973)
(1.4085711e-07 1.9974954e-07 0.72731023)
(4.5017939e-08 1.9834252e-07 0.72731046)
(-3.8349023e-08 1.9705467e-07 0.72731046)
(-1.0948701e-07 1.9530094e-07 0.72731025)
(-1.6143299e-07 1.9207708e-07 0.72730987)
(-1.7242988e-07 1.8481668e-07 0.72730939)
(-5.4548362e-08 1.671551e-07 0.72730892)
(2.0832423e-07 5.1626588e-07 0.72730889)
(4.6703966e-07 4.6703965e-07 0.72731042)
(2.4710697e-07 4.5158104e-07 0.72731121)
(1.3514874e-07 4.4395112e-07 0.72731169)
(4.0975643e-08 4.387531e-07 0.72731191)
(-4.2911387e-08 4.3383916e-07 0.7273119)
(-1.169534e-07 4.275947e-07 0.72731168)
(-1.7715938e-07 4.1760152e-07 0.72731127)
(-2.0981285e-07 3.9896823e-07 0.72731072)
(-7.220994e-08 3.6285899e-07 0.7273101)
(2.0214809e-07 2.5996902e-07 0.72730973)
(4.5158104e-07 2.4710696e-07 0.72731121)
(2.3688048e-07 2.3688047e-07 0.72731196)
(1.2802917e-07 2.2920845e-07 0.72731242)
(3.4905975e-08 2.2279361e-07 0.72731263)
(-4.9507429e-08 2.1648968e-07 0.7273126)
(-1.2572465e-07 2.0920562e-07 0.72731236)
(-1.9005946e-07 1.9972839e-07 0.72731193)
(-2.2717241e-07 1.8707865e-07 0.72731134)
(-7.8621188e-08 1.7325028e-07 0.72731066)
(1.9974953e-07 1.4085711e-07 0.72731023)
(4.4395111e-07 1.3514874e-07 0.72731169)
(2.2920846e-07 1.2802918e-07 0.72731242)
(1.2106188e-07 1.2106187e-07 0.72731286)
(2.8256864e-08 1.1441513e-07 0.72731305)
(-5.6499373e-08 1.0776906e-07 0.727313)
(-1.3371468e-07 1.0067965e-07 0.72731275)
(-1.9928636e-07 9.2842589e-08 0.72731229)
(-2.3629096e-07 8.4618299e-08 0.72731168)
(-8.1428854e-08 7.8130292e-08 0.72731098)
(1.9834252e-07 4.5017933e-08 0.72731046)
(4.3875311e-07 4.0975647e-08 0.72731191)
(2.2279361e-07 3.4905982e-08 0.72731263)
(1.1441513e-07 2.8256865e-08 0.72731305)
(2.1613165e-08 2.1613169e-08 0.72731322)
(-6.3242912e-08 1.5046545e-08 0.72731316)
(-1.4065112e-07 8.4706415e-09 0.72731288)
(-2.0612081e-07 1.9583752e-09 0.72731241)
(-2.418847e-07 -3.910044e-09 0.72731177)
(-8.2946525e-08 -7.7522377e-09 0.72731107)
(1.9705468e-07 -3.8349029e-08 0.72731046)
(4.3383916e-07 -4.2911389e-08 0.7273119)
(2.1648967e-07 -4.9507431e-08 0.7273126)
(1.0776906e-07 -5.6499385e-08 0.727313)
(1.5046544e-08 -6.3242922e-08 0.72731316)
(-6.96419e-08 -6.9641898e-08 0.72731308)
(-1.4680285e-07 -7.5747839e-08 0.72731279)
(-2.1166704e-07 -8.1462802e-08 0.7273123)
(-2.4600158e-07 -8.6296287e-08 0.72731165)
(-8.3990316e-08 -8.9258724e-08 0.72731093)
(1.9530095e-07 -1.0948702e-07 0.72731025)
(4.275947e-07 -1.169534e-07 0.72731168)
(2.0920561e-07 -1.2572465e-07 0.72731236)
(1.0067964e-07 -1.3371468e-07 0.72731275)
(8.4706524e-09 -1.4065113e-07 0.72731288)
(-7.5747828e-08 -1.4680286e-07 0.72731279)
(-1.5247203e-07 -1.5247202e-07 0.72731248)
(-2.1666926e-07 -1.5776473e-07 0.72731197)
(-2.4968062e-07 -1.6238428e-07 0.72731132)
(-8.4921484e-08 -1.6539704e-07 0.72731059)
(1.9207709e-07 -1.6143299e-07 0.72730987)
(4.1760153e-07 -1.7715939e-07 0.72731127)
(1.997284e-07 -1.9005946e-07 0.72731193)
(9.284258e-08 -1.9928634e-07 0.72731229)
(1.958367e-09 -2.0612079e-07 0.72731241)
(-8.146279e-08 -2.1166704e-07 0.7273123)
(-1.5776472e-07 -2.1666926e-07 0.72731197)
(-2.215793e-07 -2.2157929e-07 0.72731146)
(-2.5363389e-07 -2.2644636e-07 0.72731079)
(-8.5998821e-08 -2.303205e-07 0.72731005)
(1.8481668e-07 -1.7242986e-07 0.72730939)
(3.9896824e-07 -2.0981284e-07 0.72731072)
(1.8707865e-07 -2.2717241e-07 0.72731134)
(8.4618304e-08 -2.3629096e-07 0.72731168)
(-3.9100486e-09 -2.4188469e-07 0.72731177)
(-8.6296299e-08 -2.4600157e-07 0.72731165)
(-1.6238428e-07 -2.4968063e-07 0.72731132)
(-2.2644636e-07 -2.5363389e-07 0.72731079)
(-2.5842184e-07 -2.5842184e-07 0.7273101)
(-8.7504243e-08 -2.6366393e-07 0.72730935)
(1.671551e-07 -5.4548353e-08 0.72730892)
(3.6285899e-07 -7.2209935e-08 0.7273101)
(1.7325027e-07 -7.8621187e-08 0.72731066)
(7.8130294e-08 -8.1428854e-08 0.72731098)
(-7.7522423e-09 -8.2946527e-08 0.72731107)
(-8.9258731e-08 -8.3990316e-08 0.72731093)
(-1.6539704e-07 -8.4921482e-08 0.72731059)
(-2.3032051e-07 -8.5998823e-08 0.72731005)
(-2.6366393e-07 -8.7504249e-08 0.72730935)
(-8.949355e-08 -8.9493556e-08 0.72730859)
(1.0321399e-06 1.0321399e-06 1.081868)
(2.3133916e-06 9.02311e-07 1.0818702)
(1.2258221e-06 8.7353172e-07 1.0818713)
(6.7533139e-07 8.6218867e-07 1.081872)
(2.1265982e-07 8.5535527e-07 1.0818723)
(-1.9628601e-07 8.4903658e-07 1.0818723)
(-5.4994125e-07 8.4037709e-07 1.081872)
(-8.1869748e-07 8.241744e-07 1.0818714)
(-9.1166032e-07 7.85594e-07 1.0818706)
(-2.9909946e-07 6.7447999e-07 1.0818697)
(9.0231099e-07 2.3133916e-06 1.0818702)
(2.0754793e-06 2.0754793e-06 1.0818721)
(1.1656387e-06 2.0032756e-06 1.0818731)
(6.4806671e-07 1.9668484e-06 1.0818738)
(1.9293168e-07 1.9415366e-06 1.0818741)
(-2.1875328e-07 1.9174303e-06 1.0818741)
(-5.8723451e-07 1.8866615e-06 1.0818737)
(-9.0087212e-07 1.8368878e-06 1.0818731)
(-1.1362019e-06 1.7405688e-06 1.0818722)
(-4.1021347e-07 1.5276811e-06 1.081871)
(8.7353172e-07 1.2258221e-06 1.0818713)
(2.0032756e-06 1.1656387e-06 1.0818731)
(1.1171912e-06 1.1171912e-06 1.0818741)
(6.1359236e-07 1.0800548e-06 1.0818748)
(1.632418e-07 1.0487042e-06 1.0818751)
(-2.511611e-07 1.0177724e-06 1.081875)
(-6.3048376e-07 9.8195411e-07 1.0818746)
(-9.6479012e-07 9.3523387e-07 1.081874)
(-1.220867e-06 8.7264342e-07 1.081873)
(-4.4102458e-07 8.0585545e-07 1.0818717)
(8.6218867e-07 6.7533138e-07 1.081872)
(1.9668484e-06 6.480667e-07 1.0818738)
(1.0800548e-06 6.1359235e-07 1.0818748)
(5.7957968e-07 5.7957969e-07 1.0818754)
(1.3064936e-07 5.4700814e-07 1.0818756)
(-2.8550336e-07 5.1437715e-07 1.0818756)
(-6.6977309e-07 4.7953126e-07 1.0818752)
(-1.0101828e-06 4.4098366e-07 1.0818744)
(-1.2655804e-06 4.0052927e-07 1.0818734)
(-4.5473879e-07 3.6877625e-07 1.0818722)
(8.5535527e-07 2.1265982e-07 1.0818723)
(1.9415365e-06 1.9293168e-07 1.0818741)
(1.0487042e-06 1.6324179e-07 1.0818751)
(5.4700815e-07 1.3064937e-07 1.0818756)
(9.8039258e-08 9.8039253e-08 1.0818759)
(-3.1863798e-07 6.577499e-08 1.0818758)
(-7.0387725e-07 3.3438203e-08 1.0818753)
(-1.0437921e-06 1.3919351e-09 1.0818746)
(-1.2930744e-06 -2.7497615e-08 1.0818736)
(-4.6219326e-07 -4.6405572e-08 1.0818723)
(8.4903658e-07 -1.9628601e-07 1.0818723)
(1.9174303e-06 -2.1875327e-07 1.0818741)
(1.0177724e-06 -2.5116109e-07 1.081875)
(5.1437715e-07 -2.8550336e-07 1.0818756)
(6.5774988e-08 -3.1863799e-07 1.0818758)
(-3.5010441e-07 -3.5010442e-07 1.0818756)
(-7.3415614e-07 -3.8016728e-07 1.0818752)
(-1.0711186e-06 -4.0835957e-07 1.0818744)
(-1.3133779e-06 -4.3227333e-07 1.0818734)
(-4.6734409e-07 -4.4698676e-07 1.0818721)
(8.403771e-07 -5.4994125e-07 1.081872)
(1.8866615e-06 -5.8723451e-07 1.0818737)
(9.819541e-07 -6.3048375e-07 1.0818746)
(4.7953125e-07 -6.6977308e-07 1.0818752)
(3.3438202e-08 -7.0387725e-07 1.0818753)
(-3.8016728e-07 -7.3415615e-07 1.0818752)
(-7.621324e-07 -7.621324e-07 1.0818747)
(-1.0958982e-06 -7.8839239e-07 1.0818739)
(-1.3317016e-06 -8.1156031e-07 1.0818728)
(-4.7200222e-07 -8.2696676e-07 1.0818715)
(8.241744e-07 -8.1869748e-07 1.0818714)
(1.8368878e-06 -9.0087212e-07 1.0818731)
(9.3523387e-07 -9.6479013e-07 1.081874)
(4.4098365e-07 -1.0101828e-06 1.0818744)
(1.3919254e-09 -1.0437921e-06 1.0818746)
(-4.0835955e-07 -1.0711186e-06 1.0818744)
(-7.8839238e-07 -1.0958982e-06 1.0818739)
(-1.1205465e-06 -1.1205465e-06 1.0818731)
(-1.3519522e-06 -1.1457364e-06 1.081872)
(-4.7761506e-07 -1.1671667e-06 1.0818707)
(7.85594e-07 -9.1166031e-07 1.0818706)
(1.7405688e-06 -1.1362019e-06 1.0818722)
(8.7264341e-07 -1.220867e-06 1.081873)
(4.0052927e-07 -1.2655804e-06 1.0818734)
(-2.7497606e-08 -1.2930744e-06 1.0818736)
(-4.3227332e-07 -1.3133779e-06 1.0818734)
(-8.1156031e-07 -1.3317016e-06 1.0818728)
(-1.1457364e-06 -1.3519522e-06 1.081872)
(-1.3783218e-06 -1.3783218e-06 1.0818709)
(-4.8628911e-07 -1.4134481e-06 1.0818695)
(6.7447999e-07 -2.9909945e-07 1.0818697)
(1.5276811e-06 -4.1021347e-07 1.081871)
(8.0585545e-07 -4.4102458e-07 1.0818717)
(3.6877624e-07 -4.5473878e-07 1.0818722)
(-4.640557e-08 -4.6219326e-07 1.0818723)
(-4.4698677e-07 -4.6734409e-07 1.0818721)
(-8.2696676e-07 -4.7200222e-07 1.0818715)
(-1.1671667e-06 -4.7761506e-07 1.0818707)
(-1.4134481e-06 -4.8628911e-07 1.0818695)
(-5.0103256e-07 -5.0103256e-07 1.0818681)
(1.6760442e-06 1.6760442e-06 1.0818336)
(3.8062998e-06 1.4654246e-06 1.0818354)
(2.0820756e-06 1.4179774e-06 1.0818364)
(1.1542273e-06 1.3986383e-06 1.081837)
(3.4475758e-07 1.3866559e-06 1.0818373)
(-3.8635045e-07 1.3753989e-06 1.0818373)
(-1.0351475e-06 1.3598374e-06 1.0818369)
(-1.5650218e-06 1.3304741e-06 1.0818362)
(-1.8731107e-06 1.2597702e-06 1.0818353)
(-6.5100904e-07 1.0534485e-06 1.0818342)
(1.4654246e-06 3.8062998e-06 1.0818354)
(3.4191996e-06 3.4191996e-06 1.081837)
(1.981896e-06 3.2988574e-06 1.081838)
(1.107245e-06 3.2361534e-06 1.0818386)
(3.0989854e-07 3.1915904e-06 1.0818388)
(-4.2657811e-07 3.1486268e-06 1.0818388)
(-1.1025347e-06 3.0934251e-06 1.0818384)
(-1.7151226e-06 3.0036187e-06 1.0818377)
(-2.2886491e-06 2.8285528e-06 1.0818367)
(-8.5733076e-07 2.4381924e-06 1.0818353)
(1.4179774e-06 2.0820756e-06 1.0818364)
(3.2988574e-06 1.981896e-06 1.081838)
(1.8990294e-06 1.8990294e-06 1.0818389)
(1.0469604e-06 1.8341455e-06 1.0818394)
(2.5723099e-07 1.7786333e-06 1.0818397)
(-4.8451574e-07 1.7234499e-06 1.0818396)
(-1.1801557e-06 1.6592938e-06 1.0818392)
(-1.8298941e-06 1.5754464e-06 1.0818384)
(-2.438537e-06 1.463252e-06 1.0818374)
(-9.1124936e-07 1.3460365e-06 1.0818359)
(1.3986383e-06 1.1542273e-06 1.081837)
(3.2361534e-06 1.107245e-06 1.0818386)
(1.8341455e-06 1.0469604e-06 1.0818394)
(9.8684897e-07 9.8684897e-07 1.08184)
(1.9920298e-07 9.2889394e-07 1.0818402)
(-5.459176e-07 8.7059169e-07 1.0818401)
(-1.2505382e-06 8.081814e-07 1.0818396)
(-1.9111645e-06 7.3907381e-07 1.0818389)
(-2.5180591e-06 6.6664969e-07 1.0818378)
(-9.3547447e-07 6.1034784e-07 1.0818363)
(1.3866559e-06 3.4475759e-07 1.0818373)
(3.1915904e-06 3.0989854e-07 1.0818388)
(1.7786333e-06 2.5723099e-07 1.0818397)
(9.2889394e-07 1.9920297e-07 1.0818402)
(1.4097371e-07 1.409737e-07 1.0818404)
(-6.0522828e-07 8.3222936e-08 1.0818402)
(-1.3116735e-06 2.5223695e-08 1.0818398)
(-1.9714258e-06 -3.2347675e-08 1.081839)
(-2.567263e-06 -8.4284629e-08 1.0818379)
(-9.4878392e-07 -1.1821626e-07 1.0818364)
(1.3753989e-06 -3.8635044e-07 1.0818373)
(3.1486268e-06 -4.2657809e-07 1.0818388)
(1.7234499e-06 -4.8451574e-07 1.0818396)
(8.7059168e-07 -5.459176e-07 1.0818401)
(8.3222941e-08 -6.0522829e-07 1.0818402)
(-6.6166761e-07 -6.6166762e-07 1.0818401)
(-1.3661088e-06 -7.1575682e-07 1.0818396)
(-2.0206728e-06 -7.6671449e-07 1.0818388)
(-2.6039277e-06 -8.1023047e-07 1.0818376)
(-9.5809556e-07 -8.372408e-07 1.0818361)
(1.3598374e-06 -1.0351475e-06 1.0818369)
(3.0934251e-06 -1.1025347e-06 1.0818384)
(1.6592938e-06 -1.1801557e-06 1.0818392)
(8.0818139e-07 -1.2505382e-06 1.0818396)
(2.5223699e-08 -1.3116735e-06 1.0818398)
(-7.1575681e-07 -1.3661088e-06 1.0818396)
(-1.4167204e-06 -1.4167204e-06 1.0818391)
(-2.0658995e-06 -1.4648209e-06 1.0818382)
(-2.6377893e-06 -1.508279e-06 1.0818371)
(-9.6679081e-07 -1.5384471e-06 1.0818355)
(1.3304741e-06 -1.5650218e-06 1.0818362)
(3.0036187e-06 -1.7151226e-06 1.0818377)
(1.5754464e-06 -1.8298941e-06 1.0818384)
(7.390738e-07 -1.9111645e-06 1.0818389)
(-3.2347659e-08 -1.9714258e-06 1.081839)
(-7.6671447e-07 -2.0206728e-06 1.0818388)
(-1.4648209e-06 -2.0658995e-06 1.0818382)
(-2.1122314e-06 -2.1122314e-06 1.0818374)
(-2.6775539e-06 -2.1627206e-06 1.0818362)
(-9.7820765e-07 -2.2118505e-06 1.0818346)
(1.2597702e-06 -1.8731107e-06 1.0818353)
(2.8285528e-06 -2.2886491e-06 1.0818367)
(1.463252e-06 -2.438537e-06 1.0818374)
(6.6664968e-07 -2.5180591e-06 1.0818378)
(-8.4284623e-08 -2.567263e-06 1.0818379)
(-8.1023046e-07 -2.6039277e-06 1.0818376)
(-1.508279e-06 -2.6377893e-06 1.0818371)
(-2.1627206e-06 -2.6775539e-06 1.0818362)
(-2.7374084e-06 -2.7374084e-06 1.081835)
(-9.9954407e-07 -2.8500206e-06 1.0818334)
(1.0534485e-06 -6.5100904e-07 1.0818342)
(2.4381923e-06 -8.5733076e-07 1.0818353)
(1.3460364e-06 -9.1124936e-07 1.0818359)
(6.1034784e-07 -9.3547447e-07 1.0818363)
(-1.1821625e-07 -9.4878392e-07 1.0818364)
(-8.372408e-07 -9.5809555e-07 1.0818361)
(-1.5384471e-06 -9.6679081e-07 1.0818355)
(-2.2118505e-06 -9.7820764e-07 1.0818346)
(-2.8500206e-06 -9.9954408e-07 1.0818334)
(-1.0532824e-06 -1.0532824e-06 1.0818317)
(2.2590667e-06 2.2590667e-06 1.0817792)
(5.1511067e-06 1.9755745e-06 1.0817809)
(2.8443236e-06 1.9114789e-06 1.0817818)
(1.570264e-06 1.8848367e-06 1.0817823)
(4.3099892e-07 1.8679791e-06 1.0817825)
(-6.1673917e-07 1.8519088e-06 1.0817824)
(-1.5661077e-06 1.8295094e-06 1.081782)
(-2.3739293e-06 1.7869983e-06 1.0817813)
(-2.9141788e-06 1.6840724e-06 1.0817804)
(-1.0313774e-06 1.3821227e-06 1.0817792)
(1.9755745e-06 5.1511067e-06 1.0817809)
(4.6297249e-06 4.629725e-06 1.0817823)
(2.7082169e-06 4.4661641e-06 1.0817832)
(1.5050144e-06 4.3792131e-06 1.0817837)
(3.8160716e-07 4.3163137e-06 1.0817839)
(-6.7444375e-07 4.2549599e-06 1.0817838)
(-1.6634736e-06 4.1756096e-06 1.0817834)
(-2.5920849e-06 4.045963e-06 1.0817827)
(-3.5214923e-06 3.7922732e-06 1.0817816)
(-1.3333271e-06 3.2244904e-06 1.0817802)
(1.9114789e-06 2.8443235e-06 1.0817818)
(4.4661641e-06 2.7082169e-06 1.0817832)
(2.5938117e-06 2.5938117e-06 1.081784)
(1.4204136e-06 2.5028454e-06 1.0817845)
(3.0674575e-07 2.4240982e-06 1.0817847)
(-7.5744319e-07 2.3452169e-06 1.0817846)
(-1.7751047e-06 2.2531138e-06 1.0817841)
(-2.7572657e-06 2.1325038e-06 1.0817833)
(-3.7356514e-06 1.9712251e-06 1.0817822)
(-1.4098993e-06 1.8046334e-06 1.0817807)
(1.8848367e-06 1.570264e-06 1.0817823)
(4.3792131e-06 1.5050144e-06 1.0817837)
(2.5028454e-06 1.4204136e-06 1.0817845)
(1.3353009e-06 1.3353009e-06 1.081785)
(2.2397862e-07 1.2526959e-06 1.0817852)
(-8.4542818e-07 1.1692161e-06 1.081785)
(-1.8761866e-06 1.0796012e-06 1.0817845)
(-2.8739735e-06 9.8024762e-07 1.0817837)
(-3.8493627e-06 8.762207e-07 1.0817826)
(-1.4443883e-06 7.958646e-07 1.081781)
(1.8679791e-06 4.3099893e-07 1.0817825)
(4.3163137e-06 3.8160714e-07 1.0817839)
(2.4240982e-06 3.0674574e-07 1.0817847)
(1.2526959e-06 2.2397862e-07 1.0817852)
(1.4066097e-07 1.4066097e-07 1.0817853)
(-9.3053786e-07 5.7792635e-08 1.0817851)
(-1.9640732e-06 -2.5638236e-08 1.0817846)
(-2.9606462e-06 -1.0861191e-07 1.0817838)
(-3.9200344e-06 -1.8353143e-07 1.0817826)
(-1.46347e-06 -2.3241413e-07 1.081781)
(1.8519088e-06 -6.1673916e-07 1.0817824)
(4.2549599e-06 -6.7444375e-07 1.0817838)
(2.3452169e-06 -7.5744319e-07 1.0817846)
(1.1692161e-06 -8.4542818e-07 1.081785)
(5.7792637e-08 -9.3053787e-07 1.0817851)
(-1.0117274e-06 -1.0117274e-06 1.0817849)
(-2.0425912e-06 -1.0898143e-06 1.0817844)
(-3.0318667e-06 -1.1637351e-06 1.0817835)
(-3.9731649e-06 -1.22725e-06 1.0817823)
(-1.4769767e-06 -1.2669442e-06 1.0817808)
(1.8295094e-06 -1.5661077e-06 1.081782)
(4.1756096e-06 -1.6634735e-06 1.0817834)
(2.2531138e-06 -1.7751047e-06 1.0817841)
(1.0796012e-06 -1.8761866e-06 1.0817845)
(-2.5638243e-08 -1.9640732e-06 1.0817846)
(-1.0898143e-06 -2.0425912e-06 1.0817844)
(-2.1160809e-06 -2.1160809e-06 1.0817838)
(-3.0980819e-06 -2.1867337e-06 1.0817829)
(-4.0232434e-06 -2.251745e-06 1.0817817)
(-1.4899328e-06 -2.2980487e-06 1.0817802)
(1.7869983e-06 -2.3739293e-06 1.0817813)
(4.045963e-06 -2.5920849e-06 1.0817827)
(2.1325038e-06 -2.7572657e-06 1.0817833)
(9.8024763e-07 -2.8739735e-06 1.0817837)
(-1.0861192e-07 -2.9606462e-06 1.0817838)
(-1.1637352e-06 -3.0318667e-06 1.0817835)
(-2.1867337e-06 -3.0980819e-06 1.0817829)
(-3.1675308e-06 -3.1675308e-06 1.081782)
(-4.0844798e-06 -3.2461729e-06 1.0817808)
(-1.5078458e-06 -3.3267832e-06 1.0817792)
(1.6840724e-06 -2.9141788e-06 1.0817804)
(3.7922733e-06 -3.5214923e-06 1.0817816)
(1.9712251e-06 -3.7356514e-06 1.0817822)
(8.7622069e-07 -3.8493627e-06 1.0817826)
(-1.8353143e-07 -3.9200344e-06 1.0817826)
(-1.22725e-06 -3.9731649e-06 1.0817823)
(-2.251745e-06 -4.0232434e-06 1.0817817)
(-3.2461729e-06 -4.0844798e-06 1.0817808)
(-4.1824958e-06 -4.1824958e-06 1.0817795)
(-1.5436729e-06 -4.3800899e-06 1.0817779)
(1.3821227e-06 -1.0313774e-06 1.0817792)
(3.2244904e-06 -1.3333271e-06 1.0817802)
(1.8046334e-06 -1.4098993e-06 1.0817807)
(7.958646e-07 -1.4443883e-06 1.081781)
(-2.3241413e-07 -1.46347e-06 1.081781)
(-1.2669442e-06 -1.4769767e-06 1.0817808)
(-2.2980487e-06 -1.4899328e-06 1.0817802)
(-3.3267832e-06 -1.5078459e-06 1.0817792)
(-4.3800899e-06 -1.5436729e-06 1.0817779)
(-1.6395753e-06 -1.6395753e-06 1.0817761)
(2.809885e-06 2.809885e-06 1.0817056)
(6.4066674e-06 2.456249e-06 1.0817072)
(3.5330358e-06 2.3764737e-06 1.081708)
(1.9286634e-06 2.3429743e-06 1.0817085)
(4.7222523e-07 2.3214685e-06 1.0817087)
(-8.8473994e-07 2.3007251e-06 1.0817085)
(-2.132297e-06 2.2716137e-06 1.0817081)
(-3.2182328e-06 2.2161424e-06 1.0817074)
(-3.9851303e-06 2.0814396e-06 1.0817064)
(-1.4197978e-06 1.6853165e-06 1.0817052)
(2.456249e-06 6.4066674e-06 1.0817072)
(5.7565504e-06 5.7565505e-06 1.0817086)
(3.3631237e-06 5.5523985e-06 1.0817094)
(1.8461556e-06 5.4426212e-06 1.0817098)
(4.0885148e-07 5.3621929e-06 1.08171)
(-9.5952221e-07 5.2829835e-06 1.0817099)
(-2.259171e-06 5.17996e-06 1.0817094)
(-3.5034938e-06 5.0110996e-06 1.0817086)
(-4.7813693e-06 4.6799703e-06 1.0817076)
(-1.815921e-06 3.9376484e-06 1.0817061)
(2.3764737e-06 3.5330358e-06 1.081708)
(5.5523985e-06 3.3631237e-06 1.0817094)
(3.2191065e-06 3.2191065e-06 1.0817101)
(1.7384577e-06 3.1034102e-06 1.0817106)
(3.1258761e-07 3.002335e-06 1.0817107)
(-1.0669728e-06 2.900415e-06 1.0817105)
(-2.4041809e-06 2.7809423e-06 1.0817101)
(-3.7182225e-06 2.6242157e-06 1.0817093)
(-5.0585816e-06 2.4147155e-06 1.0817081)
(-1.9146791e-06 2.1997888e-06 1.0817066)
(2.3429743e-06 1.9286633e-06 1.0817085)
(5.4426212e-06 1.8461556e-06 1.0817098)
(3.1034102e-06 1.7384577e-06 1.0817106)
(1.6293841e-06 1.6293841e-06 1.081711)
(2.0585628e-07 1.5229324e-06 1.0817111)
(-1.1809148e-06 1.4149014e-06 1.0817109)
(-2.5353702e-06 1.2986135e-06 1.0817104)
(-3.8697207e-06 1.1695273e-06 1.0817096)
(-5.2057962e-06 1.0344392e-06 1.0817084)
(-1.9592055e-06 9.3052071e-07 1.0817069)
(2.3214685e-06 4.7222523e-07 1.0817087)
(5.3621929e-06 4.0885148e-07 1.08171)
(3.002335e-06 3.1258761e-07 1.0817107)
(1.5229324e-06 2.0585628e-07 1.0817111)
(9.8104937e-08 9.8104946e-08 1.0817112)
(-1.2912917e-06 -9.3620451e-09 1.081711)
(-2.649555e-06 -1.1782277e-07 1.0817105)
(-3.9823968e-06 -2.2588666e-07 1.0817096)
(-5.2975882e-06 -3.2354198e-07 1.0817084)
(-1.9839581e-06 -3.8719867e-07 1.0817068)
(2.3007251e-06 -8.8473993e-07 1.0817085)
(5.2829835e-06 -9.595222e-07 1.0817099)
(2.900415e-06 -1.0669728e-06 1.0817105)
(1.4149014e-06 -1.1809148e-06 1.0817109)
(-9.3620466e-09 -1.2912917e-06 1.081711)
(-1.3968425e-06 -1.3968425e-06 1.0817107)
(-2.7518948e-06 -1.4987022e-06 1.0817102)
(-4.0754399e-06 -1.5955289e-06 1.0817093)
(-5.3671082e-06 -1.6791172e-06 1.0817081)
(-2.0016432e-06 -1.7315901e-06 1.0817065)
(2.2716137e-06 -2.132297e-06 1.0817081)
(5.17996e-06 -2.259171e-06 1.0817094)
(2.7809424e-06 -2.4041809e-06 1.0817101)
(1.2986135e-06 -2.5353702e-06 1.0817104)
(-1.1782277e-07 -2.649555e-06 1.0817105)
(-1.4987022e-06 -2.7518949e-06 1.0817102)
(-2.8482413e-06 -2.8482413e-06 1.0817096)
(-4.1628118e-06 -2.9417044e-06 1.0817087)
(-5.4336494e-06 -3.0287617e-06 1.0817075)
(-2.01894e-06 -3.0916505e-06 1.0817059)
(2.2161424e-06 -3.2182328e-06 1.0817074)
(5.0110996e-06 -3.5034938e-06 1.0817086)
(2.6242157e-06 -3.7182225e-06 1.0817093)
(1.1695273e-06 -3.8697207e-06 1.0817096)
(-2.2588666e-07 -3.9823968e-06 1.0817096)
(-1.5955289e-06 -4.0754399e-06 1.0817093)
(-2.9417044e-06 -4.1628118e-06 1.0817087)
(-4.2559602e-06 -4.2559602e-06 1.0817078)
(-5.5170543e-06 -4.3637257e-06 1.0817065)
(-2.0435691e-06 -4.4766223e-06 1.0817049)
(2.0814396e-06 -3.9851303e-06 1.0817064)
(4.6799703e-06 -4.7813693e-06 1.0817076)
(2.4147155e-06 -5.0585816e-06 1.0817081)
(1.0344392e-06 -5.2057962e-06 1.0817084)
(-3.2354197e-07 -5.2975882e-06 1.0817084)
(-1.6791172e-06 -5.3671082e-06 1.0817081)
(-3.0287617e-06 -5.4336494e-06 1.0817075)
(-4.3637257e-06 -5.5170543e-06 1.0817065)
(-5.6543114e-06 -5.6543114e-06 1.0817052)
(-2.0942044e-06 -5.9367324e-06 1.0817036)
(1.6853165e-06 -1.4197978e-06 1.0817052)
(3.9376484e-06 -1.815921e-06 1.0817061)
(2.1997888e-06 -1.9146791e-06 1.0817066)
(9.3052069e-07 -1.9592055e-06 1.0817069)
(-3.8719867e-07 -1.9839581e-06 1.0817068)
(-1.7315901e-06 -2.0016433e-06 1.0817065)
(-3.0916505e-06 -2.01894e-06 1.0817059)
(-4.4766223e-06 -2.0435691e-06 1.0817049)
(-5.9367324e-06 -2.0942044e-06 1.0817036)
(-2.2318497e-06 -2.2318497e-06 1.0817018)
(3.3346184e-06 3.3346184e-06 1.0816136)
(7.5905532e-06 2.9130427e-06 1.0816151)
(4.1614413e-06 2.8182624e-06 1.0816159)
(2.2371621e-06 2.7782379e-06 1.0816163)
(4.7423507e-07 2.7522825e-06 1.0816164)
(-1.1827894e-06 2.7270203e-06 1.0816163)
(-2.720906e-06 2.6913753e-06 1.0816158)
(-4.0771723e-06 2.623261e-06 1.0816151)
(-5.0594903e-06 2.4575622e-06 1.0816141)
(-1.8070304e-06 1.9696502e-06 1.0816129)
(2.9130427e-06 7.5905532e-06 1.0816151)
(6.8160192e-06 6.8160192e-06 1.0816164)
(3.959234e-06 6.5731394e-06 1.0816172)
(2.1381923e-06 6.441641e-06 1.0816176)
(3.9740874e-07 6.3444192e-06 1.0816177)
(-1.2741504e-06 6.2479464e-06 1.0816175)
(-2.8765449e-06 6.1218946e-06 1.081617)
(-4.4278918e-06 5.9148008e-06 1.0816163)
(-6.0399066e-06 5.5081646e-06 1.0816152)
(-2.2949424e-06 4.5957991e-06 1.0816138)
(2.8182624e-06 4.1614413e-06 1.0816159)
(6.5731394e-06 3.959234e-06 1.0816172)
(3.7870631e-06 3.7870631e-06 1.0816178)
(2.0084419e-06 3.6477835e-06 1.0816182)
(2.8054048e-07 3.5252643e-06 1.0816183)
(-1.405314e-06 3.4010537e-06 1.0816181)
(-3.0540515e-06 3.2549666e-06 1.0816176)
(-4.6909023e-06 3.063045e-06 1.0816168)
(-6.378492e-06 2.8065566e-06 1.0816157)
(-2.415274e-06 2.5446252e-06 1.0816142)
(2.7782379e-06 2.2371621e-06 1.0816163)
(6.441641e-06 2.1381923e-06 1.0816176)
(3.6477835e-06 2.0084419e-06 1.0816182)
(1.8763935e-06 1.8763935e-06 1.0816186)
(1.5067898e-07 1.7469463e-06 1.0816187)
(-1.5444481e-06 1.6151096e-06 1.0816185)
(-3.2145536e-06 1.4728542e-06 1.0816179)
(-4.8763019e-06 1.3147654e-06 1.0816171)
(-6.5583265e-06 1.1493785e-06 1.0816159)
(-2.4695634e-06 1.0225165e-06 1.0816144)
(2.7522825e-06 4.7423508e-07 1.0816164)
(6.3444192e-06 3.9740874e-07 1.0816177)
(3.5252644e-06 2.8054047e-07 1.0816183)
(1.7469463e-06 1.5067898e-07 1.0816187)
(1.9256541e-08 1.9256537e-08 1.0816187)
(-1.6794061e-06 -1.1214114e-07 1.0816185)
(-3.3543957e-06 -2.4504366e-07 1.081618)
(-5.014378e-06 -3.7767084e-07 1.0816171)
(-6.6707408e-06 -4.9760547e-07 1.0816159)
(-2.4998486e-06 -5.7572624e-07 1.0816144)
(2.7270203e-06 -1.1827894e-06 1.0816163)
(6.2479464e-06 -1.2741503e-06 1.0816175)
(3.4010537e-06 -1.405314e-06 1.0816181)
(1.6151096e-06 -1.5444481e-06 1.0816185)
(-1.1214114e-07 -1.6794061e-06 1.0816185)
(-1.8087483e-06 -1.8087483e-06 1.0816182)
(-3.4800832e-06 -1.9339316e-06 1.0816177)
(-5.1288637e-06 -2.0533288e-06 1.0816168)
(-6.7563819e-06 -2.1567576e-06 1.0816156)
(-2.5216439e-06 -2.2218721e-06 1.081614)
(2.6913753e-06 -2.720906e-06 1.0816158)
(6.1218946e-06 -2.8765449e-06 1.081617)
(3.2549666e-06 -3.0540515e-06 1.0816176)
(1.4728542e-06 -3.2145536e-06 1.0816179)
(-2.4504366e-07 -3.3543957e-06 1.081618)
(-1.9339316e-06 -3.4800833e-06 1.0816177)
(-3.5989762e-06 -3.5989762e-06 1.0816171)
(-5.2372041e-06 -3.7150883e-06 1.0816162)
(-6.8392842e-06 -3.8241301e-06 1.0816149)
(-2.5432583e-06 -3.9035588e-06 1.0816134)
(2.623261e-06 -4.0771723e-06 1.0816151)
(5.9148008e-06 -4.4278918e-06 1.0816163)
(3.063045e-06 -4.6909023e-06 1.0816168)
(1.3147653e-06 -4.8763019e-06 1.0816171)
(-3.7767085e-07 -5.014378e-06 1.0816171)
(-2.0533288e-06 -5.1288637e-06 1.0816168)
(-3.7150883e-06 -5.2372041e-06 1.0816162)
(-5.3540175e-06 -5.3540175e-06 1.0816152)
(-6.9448524e-06 -5.4909073e-06 1.081614)
(-2.5745964e-06 -5.6359111e-06 1.0816124)
(2.4575622e-06 -5.0594903e-06 1.0816141)
(5.5081646e-06 -6.0399066e-06 1.0816152)
(2.8065566e-06 -6.378492e-06 1.0816157)
(1.1493785e-06 -6.5583265e-06 1.0816159)
(-4.9760547e-07 -6.6707408e-06 1.0816159)
(-2.1567576e-06 -6.7563819e-06 1.0816156)
(-3.82413e-06 -6.8392842e-06 1.0816149)
(-5.4909073e-06 -6.9448524e-06 1.081614)
(-7.1211777e-06 -7.1211777e-06 1.0816127)
(-2.6399275e-06 -7.487245e-06 1.0816111)
(1.9696502e-06 -1.8070304e-06 1.0816129)
(4.5957991e-06 -2.2949424e-06 1.0816138)
(2.5446252e-06 -2.415274e-06 1.0816142)
(1.0225165e-06 -2.4695634e-06 1.0816144)
(-5.7572626e-07 -2.4998486e-06 1.0816144)
(-2.2218721e-06 -2.5216439e-06 1.081614)
(-3.9035588e-06 -2.5432583e-06 1.0816134)
(-5.635911e-06 -2.5745964e-06 1.0816124)
(-7.487245e-06 -2.6399275e-06 1.0816111)
(-2.8186412e-06 -2.8186412e-06 1.0816093)
(3.8336161e-06 3.8336161e-06 1.0815039)
(8.7070963e-06 3.3465753e-06 1.0815053)
(4.7369321e-06 3.2374303e-06 1.081506)
(2.5026408e-06 3.1911824e-06 1.0815064)
(4.4406701e-07 3.1609714e-06 1.0815065)
(-1.5020994e-06 3.1313622e-06 1.0815064)
(-3.319897e-06 3.0894072e-06 1.0815059)
(-4.935012e-06 3.0090672e-06 1.0815052)
(-6.120143e-06 2.8133948e-06 1.0815042)
(-2.1874947e-06 2.2367354e-06 1.0815031)
(3.3465753e-06 8.7070963e-06 1.0815053)
(7.8128175e-06 7.8128175e-06 1.0815066)
(4.5038429e-06 7.5329338e-06 1.0815073)
(2.3879524e-06 7.3807273e-06 1.0815076)
(3.543367e-07 7.267441e-06 1.0815077)
(-1.6094458e-06 7.1543652e-06 1.0815075)
(-3.5033395e-06 7.0060826e-06 1.0815071)
(-5.3490306e-06 6.7620281e-06 1.0815063)
(-7.2786409e-06 6.2823959e-06 1.0815052)
(-2.7641541e-06 5.2056911e-06 1.0815038)
(3.2374303e-06 4.7369321e-06 1.081506)
(7.5329338e-06 4.5038429e-06 1.0815073)
(4.304842e-06 4.304842e-06 1.0815079)
(2.2371479e-06 4.1430637e-06 1.0815083)
(2.177049e-07 4.0000075e-06 1.0815083)
(-1.7634578e-06 3.8543508e-06 1.0815081)
(-3.7122341e-06 3.6825736e-06 1.0815076)
(-5.6586986e-06 3.456634e-06 1.0815068)
(-7.67648e-06 3.1547348e-06 1.0815057)
(-2.9052978e-06 2.8474483e-06 1.0815042)
(3.1911825e-06 2.5026408e-06 1.0815064)
(7.3807274e-06 2.3879524e-06 1.0815076)
(4.1430637e-06 2.2371479e-06 1.0815083)
(2.0831179e-06 2.0831179e-06 1.0815086)
(6.5623765e-08 1.9315937e-06 1.0815086)
(-1.9268796e-06 1.7768186e-06 1.0815084)
(-3.9010563e-06 1.6094728e-06 1.0815079)
(-5.8768694e-06 1.4233241e-06 1.081507)
(-7.8878267e-06 1.2286256e-06 1.0815059)
(-2.9690118e-06 1.0795969e-06 1.0815044)
(3.1609714e-06 4.4406702e-07 1.0815065)
(7.2674409e-06 3.5433669e-07 1.0815077)
(4.0000075e-06 2.1770489e-07 1.0815083)
(1.9315937e-06 6.5623762e-08 1.0815086)
(-8.859443e-08 -8.8594424e-08 1.0815087)
(-2.0855788e-06 -2.431058e-07 1.0815084)
(-4.0657286e-06 -3.9967836e-07 1.0815078)
(-6.0395458e-06 -5.5613395e-07 1.081507)
(-8.0202072e-06 -6.9769219e-07 1.0815058)
(-3.0046503e-06 -7.8983936e-07 1.0815043)
(3.1313622e-06 -1.5020994e-06 1.0815064)
(7.1543652e-06 -1.6094458e-06 1.0815075)
(3.8543508e-06 -1.7634578e-06 1.0815081)
(1.7768186e-06 -1.9268796e-06 1.0815084)
(-2.431058e-07 -2.0855788e-06 1.0815084)
(-2.2379636e-06 -2.2379636e-06 1.0815081)
(-4.2140844e-06 -2.3858082e-06 1.0815075)
(-6.1748832e-06 -2.5271949e-06 1.0815067)
(-8.1215321e-06 -2.6499854e-06 1.0815055)
(-3.0304433e-06 -2.7274375e-06 1.081504)
(3.0894072e-06 -3.319897e-06 1.0815059)
(7.0060826e-06 -3.5033395e-06 1.0815071)
(3.6825736e-06 -3.7122341e-06 1.0815076)
(1.6094728e-06 -3.9010563e-06 1.0815079)
(-3.9967835e-07 -4.0657286e-06 1.0815078)
(-2.3858082e-06 -4.2140844e-06 1.0815075)
(-4.35496e-06 -4.3549599e-06 1.0815069)
(-6.3037229e-06 -4.4932388e-06 1.081506)
(-8.2204498e-06 -4.6238427e-06 1.0815048)
(-3.056285e-06 -4.7194912e-06 1.0815033)
(3.0090672e-06 -4.935012e-06 1.0815052)
(6.7620281e-06 -5.3490306e-06 1.0815063)
(3.456634e-06 -5.6586986e-06 1.0815068)
(1.4233241e-06 -5.8768694e-06 1.081507)
(-5.5613395e-07 -6.0395458e-06 1.081507)
(-2.5271949e-06 -6.1748832e-06 1.0815067)
(-4.4932388e-06 -6.3037229e-06 1.081506)
(-6.443766e-06 -6.443766e-06 1.0815051)
(-8.3477845e-06 -6.6092655e-06 1.0815039)
(-3.0942089e-06 -6.7857427e-06 1.0815023)
(2.8133948e-06 -6.120143e-06 1.0815042)
(6.2823959e-06 -7.2786409e-06 1.0815052)
(3.1547348e-06 -7.67648e-06 1.0815057)
(1.2286256e-06 -7.8878267e-06 1.0815059)
(-6.9769219e-07 -8.0202072e-06 1.0815058)
(-2.6499854e-06 -8.1215321e-06 1.0815055)
(-4.6238427e-06 -8.2204498e-06 1.0815048)
(-6.6092655e-06 -8.3477845e-06 1.0815039)
(-8.5624265e-06 -8.5624265e-06 1.0815026)
(-3.1739365e-06 -9.0102996e-06 1.081501)
(2.2367353e-06 -2.1874946e-06 1.0815031)
(5.2056911e-06 -2.7641541e-06 1.0815038)
(2.8474483e-06 -2.9052978e-06 1.0815042)
(1.0795969e-06 -2.9690118e-06 1.0815044)
(-7.8983937e-07 -3.0046503e-06 1.0815043)
(-2.7274375e-06 -3.0304433e-06 1.081504)
(-4.7194912e-06 -3.056285e-06 1.0815033)
(-6.7857427e-06 -3.0942089e-06 1.0815023)
(-9.0102996e-06 -3.1739365e-06 1.081501)
(-3.392791e-06 -3.392791e-06 1.0814993)
(4.3054132e-06 4.3054132e-06 1.0813774)
(9.7555126e-06 3.7557799e-06 1.0813788)
(5.2632986e-06 3.6329596e-06 1.0813794)
(2.7304247e-06 3.5807991e-06 1.0813798)
(3.8834204e-07 3.5465365e-06 1.0813799)
(-1.8343072e-06 3.5127734e-06 1.0813797)
(-3.9187477e-06 3.4647732e-06 1.0813792)
(-5.7793354e-06 3.3727108e-06 1.0813785)
(-7.1544208e-06 3.1482947e-06 1.0813775)
(-2.5571349e-06 2.4865223e-06 1.0813764)
(3.7557799e-06 9.7555126e-06 1.0813788)