/*--------------------------------*- C++ -*----------------------------------*\
| =========                 |                                                 |
| \\      /  F ield         | OpenFOAM: The Open Source CFD Toolbox           |
|  \\    /   O peration     | Version:  v2106                                 |
|   \\  /    A nd           | Website:  www.openfoam.com                      |
|    \\/     M anipulation  |                                                 |
\*---------------------------------------------------------------------------*/
FoamFile
{
    version     2.0;
    format      ascii;
    arch        "LSB;label=32;scalar=64";
    class       volScalarField;
    location    "72.5";
    object      gradTz;
}
// * * * * * * * * * * * * * * * * * * * * * * * * * * * * * * * * * * * * * //

dimensions      [0 -1 0 1 0 0 0];

internalField   nonuniform List<scalar> 
4000
(
570.36375
570.3651
570.36576
570.36615
570.36633
570.36633
570.36617
570.36587
570.36549
570.36513
570.3651
570.3663
570.36691
570.36729
570.36746
570.36745
570.36728
570.36697
570.36654
570.36605
570.36576
570.36691
570.36751
570.36787
570.36803
570.36801
570.36782
570.36748
570.36702
570.36649
570.36615
570.36729
570.36787
570.36821
570.36836
570.36832
570.36812
570.36777
570.36728
570.36674
570.36633
570.36746
570.36803
570.36836
570.36849
570.36844
570.36823
570.36786
570.36736
570.36681
570.36633
570.36745
570.36801
570.36832
570.36844
570.36838
570.36815
570.36777
570.36726
570.3667
570.36617
570.36728
570.36782
570.36812
570.36823
570.36815
570.36791
570.36752
570.367
570.36643
570.36587
570.36697
570.36748
570.36777
570.36786
570.36777
570.36752
570.36711
570.36659
570.36601
570.36549
570.36654
570.36702
570.36728
570.36736
570.36726
570.367
570.36659
570.36605
570.36547
570.36513
570.36605
570.36649
570.36674
570.36681
570.3667
570.36643
570.36601
570.36547
570.36486
842.82593
842.8276
842.82847
842.829
842.82925
842.82924
842.82898
842.82852
842.8279
842.82721
842.8276
842.82905
842.82988
842.83039
842.83063
842.8306
842.83033
842.82984
842.82914
842.82823
842.82847
842.82988
842.83067
842.83116
842.83138
842.83133
842.83104
842.83052
842.82977
842.82881
842.829
842.83039
842.83116
842.83163
842.83183
842.83177
842.83145
842.8309
842.83013
842.82914
842.82925
842.83063
842.83138
842.83183
842.83201
842.83192
842.83159
842.83102
842.83022
842.82922
842.82924
842.8306
842.83133
842.83177
842.83192
842.83182
842.83147
842.83088
842.83007
842.82905
842.82898
842.83033
842.83104
842.83145
842.83159
842.83147
842.83109
842.83049
842.82966
842.82864
842.82852
842.82984
842.83052
842.8309
842.83102
842.83088
842.83049
842.82987
842.82903
842.82799
842.8279
842.82914
842.82977
842.83013
842.83022
842.83007
842.82966
842.82903
842.82817
842.82711
842.82721
842.82823
842.82881
842.82914
842.82922
842.82905
842.82864
842.82799
842.82711
842.82599
837.31937
837.32077
837.32153
837.322
837.32221
837.32217
837.32189
837.32139
837.3207
837.31986
837.32077
837.32199
837.32271
837.32317
837.32337
837.32331
837.32302
837.32249
837.32173
837.32067
837.32153
837.32271
837.3234
837.32384
837.32402
837.32395
837.32363
837.32307
837.32226
837.32115
837.322
837.32317
837.32384
837.32425
837.32441
837.32432
837.32398
837.3234
837.32256
837.32143
837.32221
837.32337
837.32402
837.32441
837.32455
837.32444
837.32409
837.32348
837.32262
837.32147
837.32217
837.32331
837.32395
837.32432
837.32444
837.32432
837.32394
837.32332
837.32244
837.32128
837.32189
837.32302
837.32363
837.32398
837.32409
837.32394
837.32354
837.32291
837.32202
837.32085
837.32139
837.32249
837.32307
837.3234
837.32348
837.32332
837.32291
837.32225
837.32134
837.32016
837.3207
837.32173
837.32226
837.32256
837.32262
837.32244
837.32202
837.32134
837.32041
837.3192
837.31986
837.32067
837.32115
837.32143
837.32147
837.32128
837.32085
837.32016
837.3192
837.31789
831.90351
831.90479
831.90546
831.90588
831.90604
831.90597
831.90567
831.90514
831.90442
831.90355
831.90479
831.9059
831.90654
831.90694
831.90709
831.90701
831.90669
831.90614
831.90534
831.90426
831.90546
831.90654
831.90715
831.90753
831.90767
831.90757
831.90723
831.90665
831.90581
831.90467
831.90588
831.90694
831.90753
831.90789
831.90801
831.90789
831.90753
831.90692
831.90605
831.9049
831.90604
831.90709
831.90767
831.90801
831.90812
831.90798
831.9076
831.90697
831.90608
831.90491
831.90597
831.90701
831.90757
831.90789
831.90798
831.90782
831.90742
831.90678
831.90587
831.90469
831.90567
831.90669
831.90723
831.90753
831.9076
831.90742
831.90701
831.90634
831.90542
831.90423
831.90514
831.90614
831.90665
831.90692
831.90697
831.90678
831.90634
831.90566
831.90473
831.90352
831.90442
831.90534
831.90581
831.90605
831.90608
831.90587
831.90542
831.90473
831.90376
831.90252
831.90355
831.90426
831.90467
831.9049
831.90491
831.90469
831.90423
831.90352
831.90252
831.90119
826.57602
826.57721
826.57782
826.57818
826.57831
826.57821
826.57789
826.57735
826.57662
826.57575
826.57721
826.57825
826.57883
826.57917
826.57929
826.57918
826.57884
826.57828
826.57747
826.5764
826.57782
826.57883
826.57938
826.57971
826.57981
826.57968
826.57932
826.57873
826.57788
826.57676
826.57818
826.57917
826.57971
826.58002
826.5801
826.57996
826.57958
826.57896
826.57809
826.57694
826.57831
826.57929
826.57981
826.5801
826.58017
826.58001
826.57961
826.57897
826.57808
826.57692
826.57821
826.57918
826.57968
826.57996
826.58001
826.57983
826.57942
826.57876
826.57785
826.57668
826.57789
826.57884
826.57932
826.57958
826.57961
826.57942
826.57898
826.57831
826.57739
826.57621
826.57735
826.57828
826.57873
826.57896
826.57897
826.57876
826.57831
826.57762
826.57668
826.57549
826.57662
826.57747
826.57788
826.57809
826.57808
826.57785
826.57739
826.57668
826.57572
826.57449
826.57575
826.5764
826.57676
826.57694
826.57692
826.57668
826.57621
826.57549
826.57449
826.57317
821.33456
821.33568
821.33624
821.33656
821.33666
821.33653
821.3362
821.33566
821.33493
821.33408
821.33568
821.33666
821.33718
821.33749
821.33757
821.33744
821.33709
821.33652
821.33573
821.33468
821.33624
821.33718
821.33768
821.33797
821.33804
821.3379
821.33753
821.33693
821.3361
821.335
821.33656
821.33749
821.33797
821.33824
821.3383
821.33813
821.33775
821.33713
821.33627
821.33515
821.33666
821.33757
821.33804
821.3383
821.33834
821.33816
821.33775
821.33711
821.33623
821.33511
821.33653
821.33744
821.3379
821.33813
821.33816
821.33796
821.33753
821.33688
821.33599
821.33485
821.3362
821.33709
821.33753
821.33775
821.33775
821.33753
821.33709
821.33642
821.33552
821.33437
821.33566
821.33652
821.33693
821.33713
821.33711
821.33688
821.33642
821.33574
821.33481
821.33365
821.33493
821.33573
821.3361
821.33627
821.33623
821.33599
821.33552
821.33481
821.33386
821.33267
821.33408
821.33468
821.335
821.33515
821.33511
821.33485
821.33437
821.33365
821.33267
821.33139
816.17699
816.17803
816.17854
816.17882
816.17889
816.17875
816.17841
816.17788
816.17717
816.17635
816.17803
816.17894
816.17942
816.17968
816.17974
816.1796
816.17924
816.17868
816.17791
816.17691
816.17854
816.17942
816.17987
816.18012
816.18017
816.18001
816.17964
816.17905
816.17824
816.17719
816.17882
816.17968
816.18012
816.18036
816.18039
816.18021
816.17982
816.17921
816.17838
816.17731
816.17889
816.17974
816.18017
816.18039
816.1804
816.18021
816.1798
816.17918
816.17833
816.17724
816.17875
816.1796
816.18001
816.18021
816.18021
816.18
816.17958
816.17894
816.17807
816.17698
816.17841
816.17924
816.17964
816.17982
816.1798
816.17958
816.17914
816.17848
816.1776
816.1765
816.17788
816.17868
816.17905
816.17921
816.17918
816.17894
816.17848
816.17781
816.17691
816.1758
816.17717
816.17791
816.17824
816.17838
816.17833
816.17807
816.1776
816.17691
816.17599
816.17485
816.17635
816.17691
816.17719
816.17731
816.17724
816.17698
816.1765
816.1758
816.17485
816.17362
811.10127
811.10224
811.1027
811.10295
811.10299
811.10285
811.10251
811.10199
811.10131
811.10053
811.10224
811.10308
811.10351
811.10375
811.10379
811.10363
811.10328
811.10274
811.102
811.10104
811.1027
811.10351
811.10393
811.10415
811.10417
811.104
811.10363
811.10307
811.10229
811.10129
811.10295
811.10375
811.10415
811.10435
811.10436
811.10417
811.10379
811.1032
811.1024
811.10138
811.10299
811.10379
811.10417
811.10436
811.10436
811.10416
811.10375
811.10315
811.10234
811.10131
811.10285
811.10363
811.104
811.10417
811.10416
811.10394
811.10352
811.1029
811.10208
811.10104
811.10251
811.10328
811.10363
811.10379
811.10375
811.10352
811.10309
811.10246
811.10162
811.10057
811.10199
811.10274
811.10307
811.1032
811.10315
811.1029
811.10246
811.10181
811.10095
811.09989
811.10131
811.102
811.10229
811.1024
811.10234
811.10208
811.10162
811.10095
811.10007
811.09898
811.10053
811.10104
811.10129
811.10138
811.10131
811.10104
811.10057
811.09989
811.09898
811.09781
806.10558
806.10647
806.10688
806.1071
806.10712
806.10697
806.10664
806.10614
806.1055
806.10476
806.10647
806.10724
806.10763
806.10783
806.10785
806.10769
806.10735
806.10683
806.10613
806.10522
806.10688
806.10763
806.108
806.10819
806.10819
806.10802
806.10766
806.10712
806.10639
806.10544
806.1071
806.10783
806.10819
806.10836
806.10836
806.10817
806.10779
806.10723
806.10648
806.10552
806.10712
806.10785
806.10819
806.10836
806.10834
806.10813
806.10775
806.10717
806.1064
806.10543
806.10697
806.10769
806.10802
806.10817
806.10813
806.10792
806.10751
806.10692
806.10614
806.10516
806.10664
806.10735
806.10766
806.10779
806.10775
806.10751
806.1071
806.10649
806.1057
806.10471
806.10614
806.10683
806.10712
806.10723
806.10717
806.10692
806.10649
806.10587
806.10506
806.10406
806.1055
806.10613
806.10639
806.10648
806.1064
806.10614
806.1057
806.10506
806.10423
806.1032
806.10476
806.10522
806.10544
806.10552
806.10543
806.10516
806.10471
806.10406
806.1032
806.1021
801.18821
801.18902
801.18939
801.18957
801.18958
801.18942
801.18911
801.18864
801.18803
801.18735
801.18902
801.18972
801.19006
801.19023
801.19024
801.19007
801.18975
801.18925
801.1886
801.18776
801.18939
801.19006
801.19039
801.19055
801.19054
801.19037
801.19002
801.18951
801.18882
801.18795
801.18957
801.19023
801.19055
801.1907
801.19068
801.19049
801.19013
801.1896
801.18889
801.188
801.18958
801.19024
801.19054
801.19068
801.19064
801.19044
801.19007
801.18953
801.18881
801.18791
801.18942
801.19007
801.19037
801.19049
801.19044
801.19023
801.18984
801.18929
801.18856
801.18765
801.18911
801.18975
801.19002
801.19013
801.19007
801.18984
801.18945
801.18888
801.18813
801.18722
801.18864
801.18925
801.18951
801.1896
801.18953
801.18929
801.18888
801.18829
801.18754
801.18661
801.18803
801.1886
801.18882
801.18889
801.18881
801.18856
801.18813
801.18754
801.18676
801.1858
801.18735
801.18776
801.18795
801.188
801.18791
801.18765
801.18722
801.18661
801.1858
801.18478
796.3476
796.34833
796.34865
796.3488
796.3488
796.34864
796.34834
796.34791
796.34735
796.34671
796.34833
796.34895
796.34925
796.34939
796.34938
796.34922
796.34891
796.34845
796.34785
796.34708
796.34865
796.34925
796.34954
796.34967
796.34965
796.34948
796.34915
796.34868
796.34804
796.34724
796.3488
796.34939
796.34967
796.34979
796.34976
796.34958
796.34924
796.34875
796.34809
796.34727
796.3488
796.34938
796.34965
796.34976
796.34972
796.34952
796.34917
796.34867
796.348
796.34717
796.34864
796.34922
796.34948
796.34958
796.34952
796.34931
796.34895
796.34843
796.34776
796.34692
796.34834
796.34891
796.34915
796.34924
796.34917
796.34895
796.34858
796.34805
796.34736
796.34652
796.34791
796.34845
796.34868
796.34875
796.34867
796.34843
796.34805
796.34751
796.34681
796.34595
796.34735
796.34785
796.34804
796.34809
796.348
796.34776
796.34736
796.34681
796.34609
796.34521
796.34671
796.34708
796.34724
796.34727
796.34717
796.34692
796.34652
796.34595
796.34521
796.34427
791.58233
791.58297
791.58324
791.58337
791.58335
791.5832
791.58292
791.58252
791.582
791.58143
791.58297
791.58351
791.58377
791.58388
791.58386
791.58371
791.58342
791.583
791.58244
791.58174
791.58324
791.58377
791.58401
791.58412
791.58409
791.58392
791.58362
791.58318
791.5826
791.58187
791.58337
791.58388
791.58412
791.58421
791.58417
791.584
791.58368
791.58323
791.58264
791.58189
791.58335
791.58386
791.58409
791.58417
791.58412
791.58394
791.58361
791.58315
791.58254
791.58179
791.5832
791.58371
791.58392
791.584
791.58394
791.58374
791.5834
791.58293
791.58231
791.58156
791.58292
791.58342
791.58362
791.58368
791.58361
791.5834
791.58306
791.58257
791.58195
791.58118
791.58252
791.583
791.58318
791.58323
791.58315
791.58293
791.58257
791.58207
791.58144
791.58066
791.582
791.58244
791.5826
791.58264
791.58254
791.58231
791.58195
791.58144
791.58078
791.57999
791.58143
791.58174
791.58187
791.58189
791.58179
791.58156
791.58118
791.58066
791.57999
791.57913
786.89108
786.89162
786.89185
786.89194
786.89192
786.89177
786.89152
786.89115
786.89069
786.89017
786.89162
786.89208
786.8923
786.89239
786.89235
786.8922
786.89194
786.89156
786.89106
786.89044
786.89185
786.8923
786.8925
786.89258
786.89254
786.89238
786.89211
786.89171
786.89119
786.89054
786.89194
786.89239
786.89258
786.89265
786.8926
786.89244
786.89215
786.89174
786.89121
786.89054
786.89192
786.89235
786.89254
786.8926
786.89255
786.89237
786.89207
786.89165
786.89111
786.89044
786.89177
786.8922
786.89238
786.89244
786.89237
786.89218
786.89188
786.89145
786.8909
786.89022
786.89152
786.89194
786.89211
786.89215
786.89207
786.89188
786.89156
786.89112
786.89056
786.88988
786.89115
786.89156
786.89171
786.89174
786.89165
786.89145
786.89112
786.89068
786.89011
786.88942
786.89069
786.89106
786.89119
786.89121
786.89111
786.8909
786.89056
786.89011
786.88952
786.88881
786.89017
786.89044
786.89054
786.89054
786.89044
786.89022
786.88988
786.88942
786.88881
786.88805
782.27263
782.27308
782.27326
782.27333
782.27329
782.27315
782.27292
782.27259
782.27219
782.27174
782.27308
782.27346
782.27363
782.27369
782.27365
782.27351
782.27327
782.27293
782.27249
782.27195
782.27326
782.27363
782.27379
782.27384
782.2738
782.27365
782.2734
782.27305
782.27259
782.27202
782.27333
782.27369
782.27384
782.27389
782.27384
782.27368
782.27342
782.27306
782.27259
782.27201
782.27329
782.27365
782.2738
782.27384
782.27377
782.27361
782.27334
782.27297
782.2725
782.27191
782.27315
782.27351
782.27365
782.27368
782.27361
782.27344
782.27316
782.27278
782.2723
782.27171
782.27292
782.27327
782.2734
782.27342
782.27334
782.27316
782.27288
782.27249
782.272
782.27141
782.27259
782.27293
782.27305
782.27306
782.27297
782.27278
782.27249
782.2721
782.2716
782.271
782.27219
782.27249
782.27259
782.27259
782.2725
782.2723
782.272
782.2716
782.27108
782.27047
782.27174
782.27195
782.27202
782.27201
782.27191
782.27171
782.27141
782.271
782.27047
782.2698
777.72586
777.72622
777.72635
777.7264
777.72635
777.72622
777.72602
777.72573
777.72538
777.725
777.72622
777.72652
777.72664
777.72668
777.72663
777.7265
777.72629
777.72599
777.72562
777.72516
777.72635
777.72664
777.72676
777.72679
777.72674
777.7266
777.72638
777.72608
777.72569
777.7252
777.7264
777.72668
777.72679
777.72681
777.72676
777.72661
777.72638
777.72607
777.72567
777.72518
777.72635
777.72663
777.72674
777.72676
777.72669
777.72654
777.7263
777.72598
777.72558
777.72508
777.72622
777.7265
777.7266
777.72661
777.72654
777.72638
777.72614
777.72581
777.7254
777.7249
777.72602
777.72629
777.72638
777.72638
777.7263
777.72614
777.72589
777.72556
777.72514
777.72464
777.72573
777.72599
777.72608
777.72607
777.72598
777.72581
777.72556
777.72522
777.72479
777.72428
777.72538
777.72562
777.72569
777.72567
777.72558
777.7254
777.72514
777.72479
777.72435
777.72383
777.725
777.72516
777.7252
777.72518
777.72508
777.7249
777.72464
777.72428
777.72383
777.72326
773.24976
773.25001
773.2501
773.25012
773.25006
773.24995
773.24977
773.24953
773.24924
773.24892
773.25001
773.25023
773.25031
773.25032
773.25027
773.25015
773.24996
773.24972
773.24941
773.24902
773.2501
773.25031
773.25038
773.25039
773.25033
773.25021
773.25002
773.24976
773.24944
773.24904
773.25012
773.25032
773.25039
773.25039
773.25033
773.2502
773.25
773.24974
773.24941
773.24901
773.25006
773.25027
773.25033
773.25033
773.25026
773.25013
773.24992
773.24966
773.24932
773.24892
773.24995
773.25015
773.25021
773.2502
773.25013
773.24999
773.24978
773.24951
773.24916
773.24876
773.24977
773.24996
773.25002
773.25
773.24992
773.24978
773.24957
773.24929
773.24894
773.24853
773.24953
773.24972
773.24976
773.24974
773.24966
773.24951
773.24929
773.249
773.24865
773.24823
773.24924
773.24941
773.24944
773.24941
773.24932
773.24916
773.24894
773.24865
773.24829
773.24786
773.24892
773.24902
773.24904
773.24901
773.24892
773.24876
773.24853
773.24823
773.24786
773.24739
768.84334
768.8435
768.84354
768.84353
768.84347
768.84336
768.84321
768.84302
768.84279
768.84254
768.8435
768.84363
768.84367
768.84366
768.84359
768.84349
768.84333
768.84313
768.84289
768.84259
768.84354
768.84367
768.8437
768.84368
768.84362
768.84351
768.84335
768.84315
768.84289
768.84259
768.84353
768.84366
768.84368
768.84366
768.8436
768.84348
768.84332
768.84311
768.84285
768.84254
768.84347
768.84359
768.84362
768.8436
768.84353
768.84341
768.84324
768.84303
768.84276
768.84245
768.84336
768.84349
768.84351
768.84348
768.84341
768.84329
768.84311
768.8429
768.84263
768.84231
768.84321
768.84333
768.84335
768.84332
768.84324
768.84311
768.84294
768.84272
768.84245
768.84213
768.84302
768.84313
768.84315
768.84311
768.84303
768.8429
768.84272
768.84249
768.84221
768.84189
768.84279
768.84289
768.84289
768.84285
768.84276
768.84263
768.84245
768.84221
768.84193
768.8416
768.84254
768.84259
768.84259
768.84254
768.84245
768.84231
768.84213
768.84189
768.8416
768.84124
764.50571
764.50578
764.50577
764.50574
764.50567
764.50558
764.50546
764.50531
764.50514
764.50496
764.50578
764.50583
764.50582
764.50578
764.50572
764.50562
764.5055
764.50535
764.50517
764.50496
764.50577
764.50582
764.50581
764.50577
764.5057
764.50561
764.50548
764.50533
764.50514
764.50493
764.50574
764.50578
764.50577
764.50573
764.50566
764.50556
764.50544
764.50528
764.50509
764.50487
764.50567
764.50572
764.5057
764.50566
764.50559
764.50549
764.50536
764.5052
764.50501
764.50479
764.50558
764.50562
764.50561
764.50556
764.50549
764.50538
764.50525
764.50509
764.5049
764.50468
764.50546
764.5055
764.50548
764.50544
764.50536
764.50525
764.50512
764.50495
764.50476
764.50453
764.50531
764.50535
764.50533
764.50528
764.5052
764.50509
764.50495
764.50478
764.50458
764.50436
764.50514
764.50517
764.50514
764.50509
764.50501
764.5049
764.50476
764.50458
764.50438
764.50415
764.50496
764.50496
764.50493
764.50487
764.50479
764.50468
764.50453
764.50436
764.50415
764.50389
760.23604
760.23601
760.23596
760.2359
760.23583
760.23575
760.23566
760.23556
760.23545
760.23534
760.23601
760.23598
760.23593
760.23587
760.2358
760.23571
760.23562
760.23552
760.23541
760.23529
760.23596
760.23593
760.23588
760.23582
760.23574
760.23566
760.23557
760.23547
760.23535
760.23523
760.2359
760.23587
760.23582
760.23575
760.23568
760.2356
760.23551
760.2354
760.23529
760.23516
760.23583
760.2358
760.23574
760.23568
760.23561
760.23553
760.23543
760.23533
760.23521
760.23508
760.23575
760.23571
760.23566
760.2356
760.23553
760.23544
760.23535
760.23524
760.23512
760.235
760.23566
760.23562
760.23557
760.23551
760.23543
760.23535
760.23525
760.23514
760.23502
760.2349
760.23556
760.23552
760.23547
760.2354
760.23533
760.23524
760.23514
760.23503
760.23491
760.23478
760.23545
760.23541
760.23535
760.23529
760.23521
760.23512
760.23502
760.23491
760.23479
760.23465
760.23534
760.23529
760.23523
760.23516
760.23508
760.235
760.2349
760.23478
760.23465
760.2345
756.03351
756.03339
756.0333
756.03321
756.03314
756.03307
756.03301
756.03296
756.03291
756.03287
756.03339
756.03328
756.03319
756.0331
756.03303
756.03296
756.0329
756.03285
756.03281
756.03277
756.0333
756.03319
756.0331
756.03302
756.03294
756.03288
756.03282
756.03277
756.03272
756.03269
756.03321
756.0331
756.03302
756.03293
756.03286
756.0328
756.03274
756.03269
756.03265
756.03261
756.03314
756.03303
756.03294
756.03286
756.03279
756.03272
756.03267
756.03262
756.03258
756.03254
756.03307
756.03296
756.03288
756.0328
756.03272
756.03266
756.0326
756.03255
756.03251
756.03248
756.03301
756.0329
756.03282
756.03274
756.03267
756.0326
756.03255
756.0325
756.03245
756.03242
756.03296
756.03285
756.03277
756.03269
756.03262
756.03255
756.0325
756.03245
756.0324
756.03237
756.03291
756.03281
756.03272
756.03265
756.03258
756.03251
756.03245
756.0324
756.03236
756.03232
756.03287
756.03277
756.03269
756.03261
756.03254
756.03248
756.03242
756.03237
756.03232
756.03228
751.89738
751.89717
751.89703
751.89692
751.89684
751.89679
751.89676
751.89676
751.89677
751.8968
751.89717
751.89698
751.89684
751.89674
751.89666
751.89661
751.89658
751.89658
751.8966
751.89665
751.89703
751.89684
751.89672
751.89661
751.89654
751.89649
751.89646
751.89646
751.89649
751.89654
751.89692
751.89674
751.89661
751.89651
751.89644
751.89639
751.89637
751.89637
751.8964
751.89646
751.89684
751.89666
751.89654
751.89644
751.89637
751.89632
751.8963
751.89631
751.89634
751.8964
751.89679
751.89661
751.89649
751.89639
751.89632
751.89628
751.89626
751.89627
751.8963
751.89636
751.89676
751.89658
751.89646
751.89637
751.8963
751.89626
751.89624
751.89625
751.89628
751.89634
751.89676
751.89658
751.89646
751.89637
751.89631
751.89627
751.89625
751.89626
751.89629
751.89635
751.89677
751.8966
751.89649
751.8964
751.89634
751.8963
751.89628
751.89629
751.89633
751.89639
751.8968
751.89665
751.89654
751.89646
751.8964
751.89636
751.89634
751.89635
751.89639
751.89645
747.82691
747.8266
747.82643
747.8263
747.82622
747.82618
747.82618
747.82622
747.8263
747.82639
747.8266
747.82634
747.82617
747.82604
747.82596
747.82592
747.82593
747.82598
747.82606
747.8262
747.82643
747.82617
747.826
747.82588
747.8258
747.82577
747.82578
747.82583
747.82593
747.82607
747.8263
747.82604
747.82588
747.82576
747.82569
747.82566
747.82567
747.82573
747.82583
747.82597
747.82622
747.82596
747.8258
747.82569
747.82562
747.82559
747.82561
747.82567
747.82577
747.82592
747.82618
747.82592
747.82577
747.82566
747.82559
747.82557
747.82559
747.82565
747.82576
747.82591
747.82618
747.82593
747.82578
747.82567
747.82561
747.82559
747.82561
747.82568
747.82578
747.82593
747.82622
747.82598
747.82583
747.82573
747.82567
747.82565
747.82568
747.82574
747.82585
747.82601
747.8263
747.82606
747.82593
747.82583
747.82577
747.82576
747.82578
747.82585
747.82597
747.82612
747.82639
747.8262
747.82607
747.82597
747.82592
747.82591
747.82593
747.82601
747.82612
747.82628
743.82138
743.82099
743.82077
743.82063
743.82054
743.82052
743.82055
743.82064
743.82077
743.82094
743.82099
743.82065
743.82044
743.8203
743.82022
743.8202
743.82023
743.82033
743.82048
743.82069
743.82077
743.82044
743.82024
743.8201
743.82002
743.82001
743.82005
743.82015
743.82032
743.82054
743.82063
743.8203
743.8201
743.81997
743.8199
743.81988
743.81993
743.82004
743.82021
743.82044
743.82054
743.82022
743.82002
743.8199
743.81983
743.81982
743.81987
743.81999
743.82016
743.8204
743.82052
743.8202
743.82001
743.81988
743.81982
743.81982
743.81987
743.81999
743.82017
743.82041
743.82055
743.82023
743.82005
743.81993
743.81987
743.81987
743.81994
743.82006
743.82024
743.82048
743.82064
743.82033
743.82015
743.82004
743.81999
743.81999
743.82006
743.82018
743.82037
743.82061
743.82077
743.82048
743.82032
743.82021
743.82016
743.82017
743.82024
743.82037
743.82056
743.82081
743.82094
743.82069
743.82054
743.82044
743.8204
743.82041
743.82048
743.82061
743.82081
743.82107
739.88011
739.87964
739.87938
739.87921
739.87913
739.87912
739.87918
739.87932
739.87951
739.87974
739.87964
739.87922
739.87898
739.87882
739.87873
739.87873
739.8788
739.87894
739.87916
739.87945
739.87938
739.87898
739.87874
739.87859
739.87851
739.87851
739.87859
739.87874
739.87897
739.87928
739.87921
739.87882
739.87859
739.87844
739.87837
739.87837
739.87846
739.87862
739.87886
739.87917
739.87913
739.87873
739.87851
739.87837
739.8783
739.87832
739.8784
739.87857
739.87881
739.87914
739.87912
739.87873
739.87851
739.87837
739.87832
739.87833
739.87843
739.8786
739.87885
739.87917
739.87918
739.8788
739.87859
739.87846
739.8784
739.87843
739.87853
739.87871
739.87896
739.87929
739.87932
739.87894
739.87874
739.87862
739.87857
739.8786
739.87871
739.87889
739.87915
739.87948
739.87951
739.87916
739.87897
739.87886
739.87881
739.87885
739.87896
739.87915
739.87941
739.87975
739.87974
739.87945
739.87928
739.87917
739.87914
739.87917
739.87929
739.87948
739.87975
739.88011
736.0024
736.00185
736.00156
736.00137
736.00129
736.00129
736.00139
736.00156
736.00181
736.00211
736.00185
736.00137
736.00109
736.00091
736.00083
736.00084
736.00094
736.00113
736.0014
736.00178
736.00156
736.00109
736.00082
736.00065
736.00058
736.00059
736.0007
736.0009
736.0012
736.00159
736.00137
736.00091
736.00065
736.00049
736.00042
736.00045
736.00056
736.00077
736.00108
736.00148
736.00129
736.00083
736.00058
736.00042
736.00036
736.00039
736.00052
736.00073
736.00104
736.00145
736.00129
736.00084
736.00059
736.00045
736.00039
736.00043
736.00056
736.00079
736.0011
736.00151
736.00139
736.00094
736.0007
736.00056
736.00052
736.00056
736.0007
736.00093
736.00125
736.00166
736.00156
736.00113
736.0009
736.00077
736.00073
736.00079
736.00093
736.00117
736.00149
736.00191
736.00181
736.0014
736.0012
736.00108
736.00104
736.0011
736.00125
736.00149
736.00183
736.00226
736.00211
736.00178
736.00159
736.00148
736.00145
736.00151
736.00166
736.00191
736.00226
736.00272
732.18757
732.18694
732.18662
732.18642
732.18633
732.18635
732.18648
732.1867
732.187
732.18735
732.18694
732.1864
732.18609
732.1859
732.18581
732.18584
732.18597
732.18621
732.18654
732.18699
732.18662
732.18609
732.18579
732.18561
732.18554
732.18557
732.18571
732.18596
732.18631
732.18678
732.18642
732.1859
732.18561
732.18543
732.18537
732.18541
732.18556
732.18582
732.18619
732.18667
732.18633
732.18581
732.18554
732.18537
732.18531
732.18536
732.18552
732.18579
732.18616
732.18665
732.18635
732.18584
732.18557
732.18541
732.18536
732.18542
732.18559
732.18586
732.18625
732.18674
732.18648
732.18597
732.18571
732.18556
732.18552
732.18559
732.18576
732.18605
732.18643
732.18693
732.1867
732.18621
732.18596
732.18582
732.18579
732.18586
732.18605
732.18634
732.18673
732.18723
732.187
732.18654
732.18631
732.18619
732.18616
732.18625
732.18643
732.18673
732.18714
732.18765
732.18735
732.18699
732.18678
732.18667
732.18665
732.18674
732.18693
732.18723
732.18765
732.1882
728.43493
728.43423
728.43388
728.43366
728.43358
728.43361
728.43377
728.43403
728.43438
728.4348
728.43423
728.43362
728.43329
728.43308
728.433
728.43305
728.43321
728.43348
728.43388
728.43439
728.43388
728.43329
728.43297
728.43277
728.4327
728.43275
728.43292
728.43321
728.43363
728.43417
728.43366
728.43308
728.43277
728.43258
728.43252
728.43258
728.43277
728.43307
728.4335
728.43405
728.43358
728.433
728.4327
728.43252
728.43247
728.43254
728.43273
728.43305
728.43349
728.43405
728.43361
728.43305
728.43275
728.43258
728.43254
728.43262
728.43282
728.43315
728.43359
728.43416
728.43377
728.43321
728.43292
728.43277
728.43273
728.43282
728.43303
728.43336
728.43382
728.43439
728.43403
728.43348
728.43321
728.43307
728.43305
728.43315
728.43336
728.43371
728.43417
728.43475
728.43438
728.43388
728.43363
728.4335
728.43349
728.43359
728.43382
728.43417
728.43464
728.43524
728.4348
728.43439
728.43417
728.43405
728.43405
728.43416
728.43439
728.43475
728.43524
728.43587
724.74378
724.74301
724.74263
724.74241
724.74232
724.74238
724.74256
724.74286
724.74326
724.74373
724.74301
724.74235
724.74199
724.74177
724.7417
724.74176
724.74195
724.74227
724.74271
724.7433
724.74263
724.74199
724.74164
724.74144
724.74137
724.74144
724.74164
724.74198
724.74245
724.74306
724.74241
724.74177
724.74144
724.74124
724.74119
724.74127
724.74148
724.74183
724.74231
724.74294
724.74232
724.7417
724.74137
724.74119
724.74114
724.74123
724.74145
724.74181
724.74231
724.74295
724.74238
724.74176
724.74144
724.74127
724.74123
724.74133
724.74156
724.74193
724.74244
724.74308
724.74256
724.74195
724.74164
724.74148
724.74145
724.74156
724.74181
724.74219
724.7427
724.74335
724.74286
724.74227
724.74198
724.74183
724.74181
724.74193
724.74219
724.74258
724.7431
724.74376
724.74326
724.74271
724.74245
724.74231
724.74231
724.74244
724.7427
724.7431
724.74364
724.74431
724.74373
724.7433
724.74306
724.74294
724.74295
724.74308
724.74335
724.74376
724.74431
724.74503
721.1134
721.11258
721.11217
721.11194
721.11186
721.11193
721.11214
721.11248
721.11293
721.11345
721.11258
721.11187
721.11148
721.11126
721.11119
721.11126
721.11148
721.11184
721.11233
721.11298
721.11217
721.11148
721.11112
721.1109
721.11084
721.11093
721.11116
721.11153
721.11206
721.11274
721.11194
721.11126
721.1109
721.1107
721.11065
721.11075
721.11099
721.11138
721.11192
721.11262
721.11186
721.11119
721.11084
721.11065
721.11061
721.11072
721.11097
721.11138
721.11193
721.11263
721.11193
721.11126
721.11093
721.11075
721.11072
721.11084
721.11111
721.11152
721.11208
721.11279
721.11214
721.11148
721.11116
721.11099
721.11097
721.11111
721.11139
721.11181
721.11238
721.1131
721.11248
721.11184
721.11153
721.11138
721.11138
721.11152
721.11181
721.11225
721.11283
721.11355
721.11293
721.11233
721.11206
721.11192
721.11193
721.11208
721.11238
721.11283
721.11343
721.11417
721.11345
721.11298
721.11274
721.11262
721.11263
721.11279
721.1131
721.11355
721.11417
721.11497
717.54308
717.5422
717.54177
717.54153
717.54146
717.54154
717.54178
717.54215
717.54265
717.54322
717.5422
717.54144
717.54104
717.54081
717.54074
717.54083
717.54108
717.54148
717.54202
717.54273
717.54177
717.54104
717.54065
717.54044
717.54038
717.54048
717.54074
717.54116
717.54173
717.54247
717.54153
717.54081
717.54044
717.54023
717.54018
717.5403
717.54057
717.54101
717.5416
717.54236
717.54146
717.54074