/*--------------------------------*- C++ -*----------------------------------*\
| =========                 |                                                 |
| \\      /  F ield         | OpenFOAM: The Open Source CFD Toolbox           |
|  \\    /   O peration     | Version:  v2106                                 |
|   \\  /    A nd           | Website:  www.openfoam.com                      |
|    \\/     M anipulation  |                                                 |
\*---------------------------------------------------------------------------*/
FoamFile
{
    version     2.0;
    format      ascii;
    arch        "LSB;label=32;scalar=64";
    class       volScalarField;
    location    "0";
    object      gradz_Tmode3;
}
// * * * * * * * * * * * * * * * * * * * * * * * * * * * * * * * * * * * * * //

dimensions      [0 -1 0 1 0 0 0];

internalField   nonuniform List<scalar> 
2000
(
-14.813017
-15.05811
-15.018089
-14.745495
-14.609938
-14.367247
-14.040235
-14.119454
-13.97712
-13.818419
-15.05811
-14.738142
-14.782337
-14.834726
-14.793832
-14.696215
-14.624112
-14.586499
-14.531674
-14.408224
-15.018089
-14.782337
-14.81034
-14.900048
-14.694543
-14.466374
-14.749362
-14.783554
-14.71564
-14.67575
-14.745495
-14.834726
-14.900048
-14.997684
-14.679631
-14.474753
-14.593955
-14.674333
-14.675991
-14.681003
-14.609937
-14.793831
-14.694543
-14.679631
-14.430467
-14.409664
-14.606464
-14.805564
-14.457336
-14.172886
-14.367246
-14.696215
-14.466374
-14.474753
-14.409664
-14.472284
-14.424504
-14.505644
-14.236209
-14.036738
-14.040236
-14.624112
-14.749362
-14.593955
-14.606464
-14.424504
-14.122036
-14.203643
-14.122526
-14.17897
-14.119454
-14.586499
-14.783554
-14.674333
-14.805563
-14.505644
-14.203643
-14.16781
-13.989694
-13.913904
-13.97712
-14.531674
-14.715641
-14.675991
-14.457335
-14.236209
-14.122526
-13.989694
-14.00791
-13.855462
-13.818419
-14.408225
-14.67575
-14.681003
-14.172886
-14.036738
-14.17897
-13.913904
-13.855462
-14.056534
-12.53553
-12.568986
-13.023353
-13.129362
-12.799998
-12.82699
-13.038266
-13.022701
-12.831387
-12.575771
-12.568986
-13.071372
-13.106577
-13.01727
-12.841317
-12.657188
-12.961581
-13.035061
-12.595996
-12.477965
-13.023353
-13.106577
-13.400147
-13.225541
-13.011466
-13.177084
-13.309977
-13.205706
-12.798141
-12.584102
-13.129362
-13.01727
-13.225541
-13.080908
-13.012293
-13.095722
-13.377792
-13.385502
-12.879937
-12.48178
-12.799999
-12.841317
-13.011465
-13.012292
-12.802345
-12.687601
-12.979164
-12.933931
-12.55554
-12.378916
-12.82699
-12.657188
-13.177084
-13.095723
-12.687601
-12.482758
-12.765132
-12.772763
-12.523579
-12.302099
-13.038267
-12.961581
-13.309977
-13.377793
-12.979165
-12.765132
-13.043432
-12.975448
-12.560858
-12.29198
-13.022701
-13.035061
-13.205706
-13.385502
-12.933931
-12.772763
-12.975448
-12.825896
-12.368048
-12.188044
-12.831387
-12.595995
-12.798141
-12.879936
-12.555541
-12.523579
-12.560857
-12.368048
-11.9557
-11.727827
-12.575772
-12.477964
-12.584103
-12.48178
-12.378916
-12.302099
-12.29198
-12.188044
-11.727827
-11.44725
-11.792637
-11.658731
-11.687171
-11.730912
-11.394132
-11.459035
-11.553928
-11.238695
-11.152277
-11.133378
-11.658731
-11.834134
-11.86273
-11.666667
-11.625709
-11.596578
-11.604673
-11.464988
-11.15518
-11.120917
-11.687171
-11.86273
-11.905925
-11.797913
-11.651724
-11.756521
-11.772022
-11.52493
-11.299741
-11.178693
-11.730912
-11.666668
-11.797913
-11.670481
-11.431152
-11.645808
-11.837438
-11.59862
-11.264648
-11.068345
-11.394132
-11.625709
-11.651724
-11.431152
-11.41022
-11.512324
-11.602522
-11.419896
-11.156961
-11.008258
-11.459035
-11.596579
-11.756521
-11.645808
-11.512324
-11.481764
-11.598222
-11.415022
-11.152535
-11.016028
-11.553928
-11.604673
-11.772022
-11.837438
-11.602522
-11.598222
-11.611328
-11.423581
-11.21988
-10.956132
-11.238695
-11.464988
-11.52493
-11.59862
-11.419896
-11.415022
-11.423581
-11.367466
-10.971421
-10.768398
-11.152277
-11.15518
-11.299741
-11.264648
-11.156961
-11.152535
-11.21988
-10.97142
-10.600546
-10.442826
-11.133378
-11.120918
-11.178693
-11.068345
-11.008258
-11.016028
-10.956132
-10.768398
-10.442826
-10.347977
-10.302826
-10.396993
-10.255189
-10.074723
-10.256487
-10.099068
-9.9443335
-9.8470988
-9.5814364
-9.3820243
-10.396994
-10.188935
-10.335574
-10.277474
-10.108385
-10.281389
-10.039372
-9.6930763
-9.5467746
-9.4497295
-10.255189
-10.335574
-10.237256
-10.186353
-10.202361
-10.194437
-10.079746
-9.8629901
-9.6547832
-9.4972613
-10.074723
-10.277474
-10.186353
-9.9831657
-10.070078
-10.157235
-10.08182
-9.853362
-9.639958
-9.5290491
-10.256487
-10.108385
-10.202361
-10.070078
-10.015887
-10.153545
-10.08822
-9.881765
-9.7097207
-9.5547429
-10.099069
-10.281389
-10.194437
-10.157235
-10.153545
-10.243738
-10.153067
-9.9662477
-9.7239916
-9.615317
-9.9443336
-10.039372
-10.079746
-10.08182
-10.08822
-10.153067
-10.0943
-9.9613895
-9.7477684
-9.6148477
-9.8470989
-9.6930764
-9.8629902
-9.8533621
-9.881765
-9.9662476
-9.9613895
-9.8140237
-9.5715939
-9.47195
-9.5814364
-9.5467747
-9.6547832
-9.6399586
-9.7097212
-9.7239917
-9.7477685
-9.5715939
-9.3894821
-9.3369193
-9.3820243
-9.44973
-9.4972614
-9.5290492
-9.5547429
-9.615317
-9.6148477
-9.4719501
-9.3369194
-9.4459856
-8.6572468
-8.5279758
-8.4895867
-8.5179331
-8.420076
-8.3741308
-8.2188917
-8.0751446
-7.7907401
-7.6809755
-8.5279763
-8.6025518
-8.4320561
-8.459231
-8.4866578
-8.3346766
-8.2532798
-8.0021975
-7.8094188
-7.7811889
-8.4895866
-8.4320561
-8.4319103
-8.376933
-8.3975711
-8.3604942
-8.2911076
-8.0665979
-7.8958965
-7.8879246
-8.5179331
-8.459231
-8.376933
-8.393045
-8.4456243
-8.3989954
-8.2941829
-8.1173373
-8.0231085
-8.00335
-8.4200764
-8.4866578
-8.3975716
-8.4456243
-8.4403132
-8.4642285
-8.3730296
-8.2413258
-8.1325051
-8.0728939
-8.3741308
-8.3346767
-8.3604942
-8.3989954
-8.4642285
-8.4982077
-8.4059951
-8.2644197
-8.1632312
-8.1357936
-8.2188918
-8.2532799
-8.2911077
-8.294183
-8.3730297
-8.4059952
-8.3206508
-8.2424508
-8.1342034
-8.1774953
-8.0751447
-8.0021976
-8.066598
-8.1173374
-8.2413259
-8.2644197
-8.2424509
-8.1058512
-8.1688052
-8.1670948
-7.7907402
-7.8094191
-7.8958967
-8.0231087
-8.1325053
-8.1632313
-8.1342035
-8.1688053
-8.2313731
-8.1980758
-7.6809757
-7.7811891
-7.8879248
-8.0033502
-8.072894
-8.1357937
-8.1774953
-8.1670948
-8.1980757
-8.253535
-6.8481931
-6.703226
-6.7133468
-6.7461863
-6.5813352
-6.6121766
-6.6017575
-6.3978217
-6.2356912
-6.2754552
-6.7032255
-6.7011386
-6.7189173
-6.6402485
-6.6507842
-6.5772553
-6.593527
-6.4301227
-6.3289609
-6.357609
-6.7133468
-6.7189173
-6.6979241
-6.6824735
-6.6780035
-6.6449647
-6.6233149
-6.4998029
-6.4242943
-6.4532237
-6.7461862
-6.6402489
-6.6824734
-6.8251503
-6.7135008
-6.6957775
-6.6773453
-6.576666
-6.560889
-6.5673574
-6.5813351
-6.6507847
-6.6780035
-6.7135007
-6.7568284
-6.7580648
-6.7074305
-6.6732835
-6.6476088
-6.6836231
-6.6121765
-6.5772553
-6.6449646
-6.6957775
-6.7580652
-6.7350901
-6.6948316
-6.6530828
-6.6752389
-6.7258805
-6.6017574
-6.5935269
-6.6233149
-6.6773452
-6.7074305
-6.6948316
-6.6287061
-6.6400505
-6.6705065
-6.7241378
-6.3978216
-6.4301226
-6.4998028
-6.5766664
-6.6732835
-6.6530834
-6.6400505
-6.6569723
-6.8120301
-6.77561
-6.2356911
-6.3289613
-6.4242943
-6.560889
-6.6476088
-6.6752393
-6.6705065
-6.8120301
-6.8077578
-6.9006017
-6.2754557
-6.357609
-6.4532241
-6.5673578
-6.6836236
-6.7258809
-6.7241378
-6.7756099
-6.9006016
-6.6877709
-4.979988
-5.100716
-5.0164675
-4.861566
-5.1078205
-5.0608695
-5.1305346
-5.0882617
-4.9903667
-4.9940223
-5.1007155
-4.9947415
-4.9992315
-5.044351
-5.0130685
-5.1210714
-5.1896131
-5.1111712
-5.0183289
-5.0391751
-5.0164675
-4.9992315
-4.973476
-5.0597555
-5.120846
-5.1449735
-5.1942448
-5.1145897
-5.0706815
-5.1354519
-4.861566
-5.044351
-5.0597555
-5.151906
-5.149277
-5.1957045
-5.1980588
-5.1674433
-5.2167714
-5.2955138
-5.1078205
-5.0130685
-5.1208455
-5.149277
-5.2108085
-5.1986175
-5.2084526
-5.2513855
-5.3106398
-5.4099131
-5.0608695
-5.1210713
-5.1449735
-5.1957045
-5.1986175
-5.1841225
-5.1886309
-5.2264107
-5.2968392
-5.3685386
-5.1305345
-5.1896129
-5.1942447
-5.1980587
-5.2084525
-5.1886309
-5.1710105
-5.2370334
-5.3073873
-5.3692161
-5.0882616
-5.111171
-5.1145901
-5.1674432
-5.2513859
-5.2264107
-5.2370334
-5.3376529
-5.3909108
-5.4265497
-4.9903666
-5.0183293
-5.0706813
-5.2167712
-5.3106402
-5.2968392
-5.3073872
-5.3909107
-5.3774167
-5.3732939
-4.9940222
-5.0391754
-5.1354522
-5.2955135
-5.4099135
-5.3685384
-5.369216
-5.4265501
-5.3732939
-5.3453838
-3.425549
-3.278782
-3.197546
-3.379078
-3.5449685
-3.66501
-3.8234165
-3.761281
-3.6764915
-3.7046325
-3.2787825
-3.2652925
-3.1198265
-3.3376555
-3.53878
-3.7248735
-3.7859945
-3.733218
-3.694855
-3.752971
-3.197546
-3.1198265
-3.113123
-3.409557
-3.5508995
-3.681552
-3.755109
-3.7029185
-3.76124
-3.8719
-3.379078
-3.337655
-3.409557
-3.5179115
-3.626854
-3.718841
-3.739768
-3.797726
-3.9103815
-4.027694
-3.544969
-3.5387795
-3.5508995
-3.626854
-3.6886125
-3.718825
-3.7684515
-3.8306135
-3.950259
-4.0546205
-3.66501
-3.724874
-3.681552
-3.7188415
-3.7188245
-3.7137605
-3.7177665
-3.789318
-3.9116
-3.955911
-3.8234165
-3.7859945
-3.755109
-3.739768
-3.7684515
-3.7177665
-3.7574115
-3.837648
-3.898306
-3.9377405
-3.7612815
-3.733218
-3.7029185
-3.7977255
-3.830614
-3.789318
-3.837648
-3.874213
-3.846665
-3.9534275
-3.6764915
-3.6948545
-3.76124
-3.910382
-3.950259
-3.9115995
-3.898306
-3.846665
-3.944903
-3.815083
-3.7046325
-3.752971
-3.8718995
-4.0276935
-4.0546205
-3.9559105
-3.9377405
-3.9534275
-3.815083
-3.99938
-1.5962905
-1.416696
-1.3930765
-1.8043935
-1.9406945
-2.222552
-2.3082705
-2.265122
-2.2874185
-2.349745
-1.416696
-1.180339
-1.358544
-1.6114605
-1.9581575
-2.154397
-2.223578
-2.232041
-2.3000065
-2.396313
-1.3930765
-1.358544
-1.399905
-1.7298045
-1.919053
-2.102493
-2.1793235
-2.2239675
-2.3953675
-2.5120165
-1.8043935
-1.6114605
-1.7298045
-1.864092
-2.019312
-2.132384
-2.206532
-2.343927
-2.50298
-2.6009745
-1.940694
-1.9581575
-1.919053
-2.019312
-2.087405
-2.1495785
-2.245644
-2.3335325
-2.49471
-2.546162
-2.222552
-2.154397
-2.102493
-2.132384
-2.1495785
-2.183627
-2.23713
-2.33022
-2.4505975
-2.469306
-2.3082705
-2.223578
-2.1793235
-2.206532
-2.245644
-2.23713
-2.3154
-2.3556795
-2.3959925
-2.4633155
-2.2651225
-2.232041
-2.2239675
-2.343927
-2.333532
-2.33022
-2.3556795
-2.3150685
-2.3918955
-2.4127175
-2.2874185
-2.300006
-2.3953675
-2.5029805
-2.4947095
-2.4505975
-2.3959925
-2.3918955
-2.386361
-2.488682
-2.3497455
-2.3963125
-2.5120165
-2.6009745
-2.5461615
-2.469306
-2.4633155
-2.412717
-2.488682
-2.4386065
0.140596
0.1118215
-0.0338495
-0.2166125
-0.47535
-0.640989
-0.670291
-0.705329
-0.8118695
-0.8948485
0.1118215
0.197741
0.039919
-0.213412
-0.422042
-0.5422175
-0.614189
-0.6813365
-0.843555
-0.947792
-0.0338495
0.0399185
-0.0901215
-0.272812
-0.41219
-0.5541885
-0.6276105
-0.757243
-0.97452
-1.0526125
-0.216613
-0.213412
-0.272812
-0.3952555
-0.5127735
-0.6182175
-0.7292625
-0.8947885
-1.052306
-1.094487
-0.4753495
-0.4220425
-0.41219
-0.5127735
-0.578179
-0.69408
-0.8181665
-0.9323295
-1.071214
-1.0523485
-0.640989
-0.542217
-0.5541885
-0.618217
-0.6940805
-0.8120795
-0.904687
-1.013996
-1.078031
-1.0715935
-0.6702915
-0.614189
-0.6276105
-0.7292625
-0.8181665
-0.904687
-1.004078
-1.058714
-1.09667
-1.1558505
-0.7053285
-0.6813365
-0.7572435
-0.8947885
-0.932329
-1.0139955
-1.0587145
-1.0698365
-1.191018
-1.1197735
-0.81187
-0.843555
-0.97452
-1.052306
-1.0712145
-1.078031
-1.09667
-1.191018
-1.154324
-1.2795785
-0.894848
-0.947792
-1.0526125
-1.094487
-1.052348
-1.0715935
-1.155851
-1.1197735
-1.2795785
-1.2101395
1.1964185
1.222619
1.005406
0.993827
0.8892925
0.8783065
0.9016375
0.831071
0.6916525
0.609925
1.222619
0.987867
1.0806155
0.9184335
0.9160445
0.9043965
0.880975
0.8034645
0.6154215
0.5635265
1.005406
1.0806155
0.898328
0.882087
0.8298505
0.774091
0.7827045
0.6407875
0.4904985
0.493309
0.993827
0.918433
0.882087
0.793662
0.7375755
0.700369
0.636181
0.508866
0.443534
0.4889435
0.889292
0.9160445
0.8298505
0.7375755
0.6878785
0.5796155
0.504419
0.4185425
0.3917255
0.4833225
0.8783065
0.9043965
0.774091
0.700369
0.5796155
0.4537505
0.362942
0.280852
0.293991
0.336056
0.9016375
0.880975
0.782704
0.636181
0.5044185
0.362942
0.245613
0.1770545
0.1355355
0.2578365
0.8310715
0.8034645
0.640788
0.508866
0.4185425
0.280852
0.1770545
0.0613795
0.0363455
0.1184295
0.6916525
0.6154215
0.4904985
0.4435345
0.3917255
0.293991
0.1355355
0.0363455
-0.105416
0.1418745
0.609925
0.5635265
0.493309
0.4889435
0.483322
0.336056
0.2578365
0.1184295
0.1418745
0.126464
2.2912395
2.257469
2.2333475
2.218318
2.284592
2.355255
2.4272945
2.3328325
2.181626
2.1405275
2.257469
2.235123
2.150665
2.186885
2.2334465
2.3103475
2.345988
2.242408
2.111114
2.129521
2.233347
2.1506655
2.067295
2.0949865
2.089575
2.1453275
2.207934
2.082115
2.0735585
2.1286425
2.2183185
2.186885
2.0949865
2.054789
2.0366005
2.083709
2.076353
2.0536455
2.1016555
2.1863035
2.284592
2.233447
2.0895745
2.0366005
2.0094095
1.992906
2.0133635
2.003202
2.0601265
2.12778
2.355255
2.3103475
2.145327
2.083709
1.9929065
1.956303
1.903368
1.862557
1.917321
1.969293
2.427295
2.3459875
2.207934
2.0763525
2.0133635
1.903368
1.8069985
1.7619225
1.771756
1.9675715
2.3328325
2.242408
2.0821155
2.0536455
2.0032015
1.862557
1.761923
1.625196
1.663791
1.7581795
2.1816265
2.1111135
2.0735585
2.1016555
2.060127
1.917321
1.771756
1.663791
1.687807
1.838253
2.1405275
2.129521
2.1286425
2.1863035
2.12778
1.969293
1.967572
1.7581795
1.8382525
1.9611425
3.7542265
3.583622
3.688714
3.685313
3.7117475
3.8697245
3.885801
3.7429475
3.6200385
3.6459115
3.583622
3.7091645
3.5461345
3.6153895
3.674561
3.7709615
3.767006
3.621983
3.600632
3.651853
3.688714
3.5461345
3.584035
3.555717
3.575928
3.6579125
3.65558
3.5826585
3.673874
3.742368
3.685313
3.61539
3.555717
3.5429325
3.546602
3.6138325
3.640018
3.697203
3.7658515
3.8157805
3.711748
3.6745605
3.575928
3.546602
3.5525325
3.617932
3.686636
3.6949145
3.742485
3.709952
3.8697245
3.7709615
3.6579125
3.6138325
3.617932
3.646556
3.647305
3.64338
3.6585855
3.714446
3.885801
3.7670055
3.6555805
3.640018
3.6866365
3.647305
3.6533215
3.6492585
3.6571295
3.6149705
3.7429475
3.621983
3.5826585
3.697203
3.6949145
3.64338
3.6492585
3.5667535
3.549507
3.566272
3.6200385
3.600632
3.6738735
3.7658515
3.7424845
3.6585855
3.6571295
3.549507
3.6935715
3.5123355
3.6459115
3.6518525
3.742368
3.81578
3.7099525
3.714446
3.6149705
3.566272
3.5123355
3.485224
5.060842
5.112185
5.0724355
5.066244
5.1239002
5.2674595
5.1844291
5.0570507
5.0272186
5.089376
5.112185
5.002786
5.0578655
4.9964965
5.1202242
5.1669839
5.0957782
4.9934075
5.0598954
5.1180916
5.072436
5.0578655
5.0216305
5.024927
5.1010885
5.1354554
5.0824484
5.0959104
5.1806282
5.2359558
5.066244
4.996496
5.024927
5.0628085
5.1082395
5.1437125
5.211958
5.2523532
5.2739983
5.2796802
5.1239
5.1202241
5.1010885
5.108239
5.136816
5.2478365
5.3199515
5.2955935
5.292944
5.2943887
5.2674592
5.1669837
5.1354557
5.143712
5.247836
5.333138
5.369287
5.36371
5.3094815
5.3375565
5.1844288
5.0957785
5.0824482
5.2119585
5.3199515
5.369287
5.4540965
5.409268
5.3247785
5.126077
5.0570505
4.9934073
5.0959103
5.2523531
5.295594
5.36371
5.409268
5.3270565
5.246374
5.0869485
5.0272185
5.0598958
5.1806281
5.2739987
5.292944
5.3094815
5.3247785
5.246374
4.991657
4.959271
5.089376
5.1180915
5.2359558
5.27968
5.2943885
5.3375565
5.1260765
5.0869485
4.9592715
4.665897
6.4275211
6.5387098
6.4248696
6.4128346
6.5642935
6.5949748
6.510575
6.4689832
6.5021671
6.5233353
6.5387098
6.4188659
6.4449964
6.4236088
6.5655481
6.5541268
6.5141264
6.4805168
6.5055732
6.5344453
6.4248696
6.4449964
6.3606573
6.5140975
6.5740166
6.6194038
6.5998298
6.5943362
6.6411197
6.6978268
6.4128345
6.4236087
6.5140974
6.5665769
6.6695082
6.7496004
6.788662
6.7634373
6.8273866
6.851153
6.5642933
6.5655485
6.5740164
6.6695081
6.8022956
6.9215649
6.9197553
6.9023792
6.900351
6.9023622
6.5949746
6.5541266
6.6194037
6.7496003
6.9215649
7.0009062
7.0109822
6.9861294
6.9452027
6.8184476
6.5105748
6.5141266
6.5998297
6.7886618
6.9197553
7.0109822
7.0672978
6.9185562
6.7952373
6.7916714
6.4689829
6.4805167
6.5943361
6.7634372
6.9023792
6.9861294
6.9185563
6.7704126
6.6474415
6.4848176
6.502167
6.5055731
6.6411201
6.8273865
6.9003514
6.9452026
6.7952372
6.6474415
6.3835989
6.304485
6.5233357
6.5344457
6.6978272
6.8511535
6.9023622
6.8184476
6.7916714
6.4848176
6.304485
6.475164
7.9908998
7.8538747
7.9120125
7.9999498
8.0616178
8.0244152
8.0398739
8.0210117
8.0184635
8.0062016
7.8538746
7.930268
7.91041
7.993067
8.0605041
8.0865814
8.0701639
8.0303613
8.0585531
8.0777123
7.9120124
7.9104099
7.9232042
8.1327632
8.1880824
8.2460463
8.2256159
8.2332672
8.3062176
8.3383896
7.9999497
7.9930674
8.1327631
8.2590643
8.3980352
8.4777589
8.4661059
8.4997881
8.5313306
8.5330998
8.0616178
8.0605041
8.1880828
8.3980356
8.5899073
8.6258259
8.6089091
8.6159605
8.6088641
8.5842881
8.0244153
8.0865815
8.2460464
8.4777593
8.6258264
8.6654046
8.6532998
8.6200075
8.6624052
8.4972229
8.0398741
8.070164
8.2256159
8.4661058
8.608909
8.6532997
8.5352555
8.4481744
8.426526
8.3460549
8.0210117
8.0303614
8.2332674
8.4997882
8.6159605
8.6200075
8.4481744
8.3462276
8.128139
8.1842934
8.0184636
8.0585531
8.3062178
8.5313307
8.6088641
8.6624052
8.4265259
8.128139
8.245073
8.1740507
8.0062016
8.0777124
8.3383898
8.5331
8.5842882
8.4972229
8.3460554
8.1842934
8.1740507
8.3501185
9.3189669
9.2561737
9.4611149
9.6479694
9.64125
9.6044227
9.684423
9.7121313
9.7044179
9.6491552
9.2561737
9.3412167
9.5480911
9.7262957
9.6715724
9.7730947
9.8290922
9.8420667
9.8290513
9.8204622
9.4611149
9.5480906
9.7741692
9.8834335
9.9465134
10.015489
10.045398
10.051726
9.9556603
10.061799
9.6479695
9.7262958
9.8834336
10.059098
10.192422
10.232564
10.224921
10.266147
10.238547
10.124898
9.6412497
9.671572
9.9465136
10.192422
10.315548
10.280555
10.293652
10.361012
10.410757
10.179191
9.604423
9.7730949
10.015489
10.232564
10.280555
10.200023
10.208042
10.285303
10.16688
10.205736
9.6844232
9.8290924
10.045397
10.224921
10.293652
10.208042
10.047718
10.155695
10.125339
9.9227076
9.7121316
9.8420668
10.051726
10.266147
10.361012
10.285303
10.155695
10.101178
10.120967
10.079001
9.7044175
9.8290514
9.9556604
10.238547
10.410757
10.16688
10.125339
10.120967
9.9875361
10.223408
9.6491553
9.8204628
10.061799
10.124898
10.179191
10.205736
9.9227076
10.079001
10.223408
10.085986
10.675235
10.756289
11.072255
11.239483
11.253138
11.312544
11.433408
11.508579
11.425664
11.307713
10.756289
10.902516
11.176194
11.384238
11.39007
11.527736
11.653775
11.676309
11.498937
11.462665
11.072254
11.176194
11.445978
11.535237
11.614632
11.697336
11.8412
11.81162
11.636971
11.402004
11.239483
11.384238
11.535237
11.720386
11.774886
11.780652
11.9823
11.926991
11.786181
11.588718
11.253138
11.39007
11.614632
11.774886
11.673861
11.702514
11.810427
11.882581
11.701959
11.50873
11.312544
11.527736
11.697336
11.780652
11.702514
11.565645
11.545763
11.744556
11.619761
11.384188
11.433408
11.653775
11.8412
11.9823
11.810427
11.545763
11.722995
11.82281
11.685825
11.77693
11.508579
11.676309
11.81162
11.926991
11.882581
11.744556
11.82281
11.905173
11.979033
11.785298
11.425664
11.498937
11.636971
11.786181
11.701959
11.619761
11.685826
11.979033
11.909217
11.743663
11.307713
11.462665
11.402004
11.588718
11.50873
11.384188
11.77693
11.785298
11.743663
11.927656
12.338175
12.467888
12.735133
12.877035
12.858813
12.889434
12.974469
13.008053
12.718606
12.571664
12.467888
12.501679
12.728506
12.979673
13.074848
13.136485
13.375059
13.219345
12.886923
12.90986
12.735133
12.728507
13.046664
13.2582
13.19185
13.337508
13.693726
13.498956
13.245498
13.04251
12.877035
12.979673
13.258199
13.358592
13.0895
13.185461
13.546852
13.468103
13.092184
13.054347
12.858814
13.074849
13.19185
13.089501
12.73792
12.86319
13.244789
13.272991
12.793635
12.86587
12.889434
13.136485
13.337508
13.185461
12.86319
12.955516
13.129402
13.155474
13.043458
12.932026
12.97447
13.375059
13.693726
13.546853
13.244789
13.129403
13.236281
13.398864
13.309841
13.408221
13.008052
13.219346
13.498956
13.468103
13.272991
13.155474
13.398864
13.611554
13.392875
13.320004
12.718606
12.886923
13.245498
13.092184
12.793635
13.043458
13.309841
13.392876
13.358734
12.899208
12.571665
12.90986
13.04251
13.054347
12.86587
12.932026
13.408222
13.320004
12.899208
12.908677
14.689256
14.606742
14.693086
14.939786
14.919966
15.132937
15.558196
15.442035
15.126789
14.838024
14.606742
14.83577
14.843877
14.881308
14.84731
15.024572
15.230066
15.138015
14.840451
14.589903
14.693086
14.843877
15.073658
15.035614
15.167535
15.384046
15.261377
15.181458
14.866358
14.63018
14.939786
14.881308
15.035614
14.898242
15.065203
15.194955
15.164143
15.108966
14.857698
14.565999
14.919965
14.847311
15.167536
15.065202
14.986418
14.904262
14.886633
14.754773
14.899818
14.893792
15.132939
15.024572
15.384046
15.194955
14.904262
14.831469
15.06881
15.042638
15.079813
15.115598
15.558195
15.230067
15.261377
15.164142
14.886633
15.06881
15.508069
15.477756
15.313106
15.149461
15.442035
15.138014
15.181458
15.108966
14.754773
15.042638
15.477756
15.45842
15.327543
15.413421
15.126789
14.840451
14.866357
14.857698
14.899818
15.079813
15.313106
15.327543
15.147141
15.33044
14.838023
14.589903
14.630181
14.566001
14.893792
15.115598
15.149461
15.413421
15.33044
14.877829
)
;

boundaryField
{
    block1_in
    {
        type            calculated;
        value           nonuniform List<scalar> 
100
(
-15.865518
-16.080326
-15.64132
-15.245722
-15.01613
-14.744942
-14.1222
-14.073274
-14.077214
-14.126978
-16.080326
-15.411406
-15.273562
-15.369798
-15.568326
-15.351352
-15.12738
-15.074158
-15.128398
-15.07001
-15.64132
-15.273562
-15.171308
-15.359484
-15.13823
-14.729632
-15.112594
-15.102298
-15.25793
-15.426176
-15.245722
-15.369798
-15.359484
-15.64767
-15.045038
-14.762342
-14.838994
-14.834948
-15.15171
-15.460682
-15.016132
-15.568328
-15.13823
-15.045038
-14.900786
-14.948044
-15.062626
-15.353106
-15.04294
-14.734472
-14.744944
-15.351352
-14.729632
-14.762342
-14.948044
-15.170752
-14.988114
-15.010934
-14.72191
-14.578706
-14.122198
-15.12738
-15.112594
-14.838994
-15.062626
-14.988114
-14.286372
-14.336478
-14.53327
-14.786262
-14.073274
-15.074158
-15.102298
-14.834948
-15.353108
-15.010934
-14.336478
-14.414586
-14.44363
-14.420408
-14.077214
-15.128398
-15.257928
-15.15171
-15.042942
-14.72191
-14.53327
-14.44363
-14.71674
-14.553548
-14.126978
-15.070008
-15.426176
-15.460682
-14.734472
-14.578706
-14.786262
-14.420408
-14.553548
-15.050492
)
;
    }
    block1_out
    {
        type            calculated;
        value           nonuniform List<scalar> 
100
(
15.42546
15.19571
15.263272
15.558058
15.541158
15.9005
16.537106
16.35824
16.078668
15.7269
15.19571
15.64413
15.524136
15.397188
15.317344
15.606214
15.729816
15.725304
15.49348
15.086554
15.263272
15.524136
15.621588
15.426058
15.764382
15.978014
15.524416
15.601094
15.354498
14.854886
15.558058
15.397188
15.426058
15.249538
15.76423
15.833322
15.628456
15.588306
15.438522
14.930318
15.54116
15.317342
15.76438
15.764232
15.845254
15.641704
15.348634
15.129112
15.578202
15.55301
15.900498
15.606214
15.978014
15.833322
15.641704
15.408912
15.559396
15.591846
15.803736
15.650212
16.537108
15.729814
15.524416
15.628458
15.348634
15.559396
16.318362
16.113862
15.889336
15.669212
16.35824
15.725306
15.601094
15.588306
15.129112
15.591846
16.113862
16.002232
15.936104
16.08273
16.078668
15.49348
15.3545
15.438522
15.578202
15.803736
15.889336
15.936104
15.875098
16.3021
15.726902
15.086554
14.854884
14.930316
15.55301
15.650212
15.669212
16.08273
16.3021
15.769328
)
;
    }
    block1_wall1
    {
        type            calculated;
        value           nonuniform List<scalar> 
200
(
-14.813017
-15.05811
-15.018089
-14.745495
-14.609937
-14.367246
-14.040236
-14.119454
-13.97712
-13.818419
-12.53553
-12.568986
-13.023353
-13.129362
-12.799999
-12.82699
-13.038267
-13.022701
-12.831387
-12.575772
-11.792637
-11.658731
-11.687171
-11.730912
-11.394132
-11.459035
-11.553928
-11.238695
-11.152277
-11.133378
-10.302826
-10.396994
-10.255189
-10.074723
-10.256487
-10.099069
-9.9443336
-9.8470989
-9.5814364
-9.3820243
-8.6572468
-8.5279763
-8.4895866
-8.5179331
-8.4200764
-8.3741308
-8.2188918
-8.0751447
-7.7907402
-7.6809757
-6.8481931
-6.7032255
-6.7133468
-6.7461862
-6.5813351
-6.6121765
-6.6017574
-6.3978216
-6.2356911
-6.2754557
-4.979988
-5.1007155
-5.0164675
-4.861566
-5.1078205
-5.0608695
-5.1305345
-5.0882616
-4.9903666
-4.9940222
-3.425549
-3.2787825
-3.197546
-3.379078
-3.544969
-3.66501
-3.8234165
-3.7612815
-3.6764915
-3.7046325
-1.5962905
-1.416696
-1.3930765
-1.8043935
-1.940694
-2.222552
-2.3082705
-2.2651225
-2.2874185
-2.3497455
0.140596
0.1118215
-0.0338495
-0.216613
-0.4753495
-0.640989
-0.6702915
-0.7053285
-0.81187
-0.894848
1.1964185
1.222619
1.005406
0.993827
0.889292
0.8783065
0.9016375
0.8310715
0.6916525
0.609925
2.2912395
2.257469
2.233347
2.2183185
2.284592
2.355255
2.427295
2.3328325
2.1816265
2.1405275
3.7542265
3.583622
3.688714
3.685313
3.711748
3.8697245
3.885801
3.7429475
3.6200385
3.6459115
5.060842
5.112185
5.072436
5.066244
5.1239
5.2674592
5.1844288
5.0570505
5.0272185
5.089376
6.4275211
6.5387098
6.4248696
6.4128345
6.5642933
6.5949746
6.5105748
6.4689829
6.502167
6.5233357
7.9908998
7.8538746
7.9120124
7.9999497
8.0616178
8.0244153
8.0398741
8.0210117
8.0184636
8.0062016
9.3189669
9.2561737
9.4611149
9.6479695
9.6412497
9.604423
9.6844232
9.7121316
9.7044175
9.6491553
10.675235
10.756289
11.072254
11.239483
11.253138
11.312544
11.433408
11.508579
11.425664
11.307713
12.338175
12.467888
12.735133
12.877035
12.858814
12.889434
12.97447
13.008052
12.718606
12.571665
14.689256
14.606742
14.693086
14.939786
14.919965
15.132939
15.558195
15.442035
15.126789
14.838023
)
;
    }
    block1_wall2
    {
        type            calculated;
        value           nonuniform List<scalar> 
200
(
-13.818419
-12.575772
-11.133378
-9.3820243
-7.6809757
-6.2754557
-4.9940222
-3.7046325
-2.3497455
-0.894848
0.609925
2.1405275
3.6459115
5.089376
6.5233357
8.0062016
9.6491553
11.307713
12.571665
14.838023
-14.408225
-12.477964
-11.120918
-9.44973
-7.7811891
-6.357609
-5.0391754
-3.752971
-2.3963125
-0.947792
0.5635265
2.129521
3.6518525
5.1180915
6.5344457
8.0777124
9.8204628
11.462665
12.90986
14.589903
-14.67575
-12.584103
-11.178693
-9.4972614
-7.8879248
-6.4532241
-5.1354522
-3.8718995
-2.5120165
-1.0526125
0.493309
2.1286425
3.742368
5.2359558
6.6978272
8.3383898
10.061799
11.402004
13.04251
14.630181
-14.681003
-12.48178
-11.068345
-9.5290492
-8.0033502
-6.5673578
-5.2955135
-4.0276935
-2.6009745
-1.094487
0.4889435
2.1863035
3.81578
5.27968
6.8511535
8.5331
10.124898
11.588718
13.054347
14.566001
-14.172886
-12.378916
-11.008258
-9.5547429
-8.072894
-6.6836236
-5.4099135
-4.0546205
-2.5461615
-1.052348
0.483322
2.12778
3.7099525
5.2943885
6.9023622
8.5842882
10.179191
11.50873
12.86587
14.893792
-14.036738
-12.302099
-11.016028
-9.615317
-8.1357937
-6.7258809
-5.3685384
-3.9559105
-2.469306
-1.0715935
0.336056
1.969293
3.714446
5.3375565
6.8184476
8.4972229
10.205736
11.384188
12.932026
15.115598
-14.17897
-12.29198
-10.956132
-9.6148477
-8.1774953
-6.7241378
-5.369216
-3.9377405
-2.4633155
-1.155851
0.2578365
1.967572
3.6149705
5.1260765
6.7916714
8.3460554
9.9227076
11.77693
13.408222
15.149461
-13.913904
-12.188044
-10.768398
-9.4719501
-8.1670948
-6.7756099
-5.4265501
-3.9534275
-2.412717
-1.1197735
0.1184295
1.7581795
3.566272
5.0869485
6.4848176
8.1842934
10.079001
11.785298
13.320004
15.413421
-13.855462
-11.727827
-10.442826
-9.3369194
-8.1980757
-6.9006016
-5.3732939
-3.815083
-2.488682
-1.2795785
0.1418745
1.8382525
3.5123355
4.9592715
6.304485
8.1740507
10.223408
11.743663
12.899208
15.33044
-14.056534
-11.44725
-10.347977
-9.4459856
-8.253535
-6.6877709
-5.3453838
-3.99938
-2.4386065
-1.2101395
0.126464
1.9611425
3.485224
4.665897
6.475164
8.3501185
10.085986
11.927656
12.908677
14.877829
)
;
    }
    block1_wall3
    {
        type            calculated;
        value           nonuniform List<scalar> 
200
(
-13.818419
-14.408224
-14.67575
-14.681003
-14.172886
-14.036738
-14.17897
-13.913904
-13.855462
-14.056534
-12.575771
-12.477965
-12.584102
-12.48178
-12.378916
-12.302099
-12.29198
-12.188044
-11.727827
-11.44725
-11.133378
-11.120917
-11.178693
-11.068345
-11.008258
-11.016028
-10.956132
-10.768398
-10.442826
-10.347977
-9.3820243
-9.4497295
-9.4972613
-9.5290491
-9.5547429
-9.615317
-9.6148477
-9.47195
-9.3369193
-9.4459856
-7.6809755
-7.7811889
-7.8879246
-8.00335
-8.0728939
-8.1357936
-8.1774953
-8.1670948
-8.1980758
-8.253535
-6.2754552
-6.357609
-6.4532237
-6.5673574
-6.6836231
-6.7258805
-6.7241378
-6.77561
-6.9006017
-6.6877709
-4.9940223
-5.0391751
-5.1354519
-5.2955138
-5.4099131
-5.3685386
-5.3692161
-5.4265497
-5.3732939
-5.3453838
-3.7046325
-3.752971
-3.8719
-4.027694
-4.0546205
-3.955911
-3.9377405
-3.9534275
-3.815083
-3.99938
-2.349745
-2.396313
-2.5120165
-2.6009745
-2.546162
-2.469306
-2.4633155
-2.4127175
-2.488682
-2.4386065
-0.8948485
-0.947792
-1.0526125
-1.094487
-1.0523485
-1.0715935
-1.1558505
-1.1197735
-1.2795785
-1.2101395
0.609925
0.5635265
0.493309
0.4889435
0.4833225
0.336056
0.2578365
0.1184295
0.1418745
0.126464
2.1405275
2.129521
2.1286425
2.1863035
2.12778
1.969293
1.9675715
1.7581795
1.838253
1.9611425
3.6459115
3.651853
3.742368
3.8157805
3.709952
3.714446
3.6149705
3.566272
3.5123355
3.485224
5.089376
5.1180916
5.2359558
5.2796802
5.2943887
5.3375565
5.126077
5.0869485
4.959271
4.665897
6.5233353
6.5344453
6.6978268
6.851153
6.9023622
6.8184476
6.7916714
6.4848176
6.304485
6.475164
8.0062016
8.0777123
8.3383896
8.5330998
8.5842881
8.4972229
8.3460549
8.1842934
8.1740507
8.3501185
9.6491552
9.8204622
10.061799
10.124898
10.179191
10.205736
9.9227076
10.079001
10.223408
10.085986
11.307713
11.462665
11.402004
11.588718
11.50873
11.384188
11.77693
11.785298
11.743663
11.927656
12.571664