/*--------------------------------*- C++ -*----------------------------------*\
| =========                 |                                                 |
| \\      /  F ield         | OpenFOAM: The Open Source CFD Toolbox           |
|  \\    /   O peration     | Version:  v2106                                 |
|   \\  /    A nd           | Website:  www.openfoam.com                      |
|    \\/     M anipulation  |                                                 |
\*---------------------------------------------------------------------------*/
FoamFile
{
    version     2.0;
    format      ascii;
    arch        "LSB;label=32;scalar=64";
    class       volScalarField;
    location    "0";
    object      gradz_Tmode2;
}
// * * * * * * * * * * * * * * * * * * * * * * * * * * * * * * * * * * * * * //

dimensions      [0 -1 0 1 0 0 0];

internalField   nonuniform List<scalar> 
2000
(
3.8747207
3.874722
3.874732
3.8747357
3.8747457
3.8747573
3.8747637
3.874769
3.8747777
3.874781
3.874722
3.8747237
3.8747313
3.8747393
3.874749
3.87476
3.8747663
3.8747733
3.874778
3.874779
3.874732
3.8747313
3.8747357
3.874746
3.8747533
3.8747613
3.874771
3.8747753
3.8747753
3.8747777
3.8747357
3.8747393
3.874746
3.8747537
3.8747587
3.8747673
3.874775
3.874775
3.8747757
3.8747797
3.8747457
3.874749
3.8747533
3.8747587
3.8747647
3.874771
3.8747743
3.874778
3.874776
3.874777
3.8747573
3.87476
3.8747613
3.8747673
3.874771
3.8747737
3.874775
3.874778
3.8747763
3.8747777
3.8747637
3.8747663
3.874771
3.874775
3.8747743
3.874775
3.8747757
3.8747767
3.8747787
3.8747803
3.874769
3.8747733
3.8747753
3.874775
3.874778
3.874778
3.8747767
3.874781
3.8747817
3.8747793
3.8747777
3.874778
3.8747753
3.8747757
3.874776
3.8747763
3.8747787
3.8747817
3.8747787
3.8747757
3.874781
3.874779
3.8747777
3.8747797
3.874777
3.8747777
3.8747803
3.8747793
3.8747757
3.8747797
3.8747155
3.874717
3.874722
3.8747295
3.874736
3.8747455
3.8747545
3.87476
3.8747595
3.8747555
3.874717
3.8747195
3.874724
3.874731
3.8747395
3.874748
3.874755
3.874759
3.874757
3.874754
3.874722
3.874724
3.8747315
3.8747375
3.8747445
3.8747515
3.8747565
3.8747595
3.8747575
3.874755
3.8747295
3.874731
3.8747375
3.874743
3.874748
3.8747525
3.874756
3.874759
3.874759
3.8747575
3.874736
3.8747395
3.8747445
3.874748
3.87475
3.874752
3.8747545
3.874758
3.8747605
3.8747615
3.8747455
3.874748
3.8747515
3.8747525
3.874752
3.874753
3.874757
3.874762
3.874764
3.8747645
3.8747545
3.874755
3.8747565
3.874756
3.8747545
3.874757
3.8747635
3.874767
3.874767
3.8747685
3.87476
3.874759
3.8747595
3.874759
3.874758
3.874762
3.874767
3.874768
3.8747685
3.8747715
3.8747595
3.874757
3.8747575
3.874759
3.8747605
3.874764
3.874767
3.8747685
3.874771
3.874773
3.8747555
3.874754
3.874755
3.8747575
3.8747615
3.8747645
3.8747685
3.8747715
3.874773
3.874774
3.8747255
3.8747255
3.8747285
3.874735
3.8747385
3.874744
3.8747485
3.8747505
3.8747515
3.8747515
3.8747255
3.8747275
3.8747315
3.874736
3.8747405
3.874744
3.8747485
3.874751
3.874752
3.8747525
3.8747285
3.8747315
3.874736
3.8747395
3.874742
3.8747455
3.874749
3.874752
3.874754
3.8747555
3.874735
3.874736
3.8747395
3.874741
3.874743
3.8747455
3.8747495
3.874753
3.8747565
3.8747585
3.8747385
3.8747405
3.874742
3.874743
3.8747445
3.8747465
3.8747505
3.8747555
3.87476
3.874763
3.874744
3.874744
3.8747455
3.8747455
3.8747465
3.874749
3.874755
3.87476
3.8747645
3.8747675
3.8747485
3.8747485
3.874749
3.8747495
3.8747505
3.874755
3.8747605
3.874765
3.874769
3.8747705
3.8747505
3.874751
3.874752
3.874753
3.8747555
3.87476
3.874765
3.874769
3.8747725
3.874774
3.8747515
3.874752
3.874754
3.8747565
3.87476
3.8747645
3.874769
3.8747725
3.874776
3.8747745
3.8747515
3.8747525
3.8747555
3.8747585
3.874763
3.8747675
3.8747705
3.874774
3.8747745
3.8747745
3.8747375
3.874739
3.874741
3.8747435
3.8747465
3.874747
3.874749
3.874751
3.874753
3.8747555
3.874739
3.87474
3.8747435
3.8747455
3.8747455
3.874747
3.874749
3.874752
3.874756
3.8747585
3.874741
3.8747435
3.8747455
3.8747455
3.874746
3.874747
3.87475
3.8747555
3.8747595
3.874762
3.8747435
3.8747455
3.8747455
3.874745
3.8747455
3.874748
3.8747525
3.874758
3.8747625
3.8747655
3.8747465
3.8747455
3.874746
3.8747455
3.874747
3.8747505
3.874756
3.874762
3.874767
3.874769
3.874747
3.874747
3.874747
3.874748
3.8747505
3.8747545
3.874761
3.874766
3.8747695
3.8747725
3.874749
3.874749
3.87475
3.8747525
3.874756
3.874761
3.8747655
3.874769
3.8747735
3.8747735
3.874751
3.874752
3.8747555
3.874758
3.874762
3.874766
3.874769
3.8747745
3.8747765
3.874773
3.874753
3.874756
3.8747595
3.8747625
3.874767
3.8747695
3.8747735
3.8747765
3.8747735
3.874771
3.8747555
3.8747585
3.874762
3.8747655
3.874769
3.8747725
3.8747735
3.874773
3.874771
3.874765
3.874753
3.8747545
3.8747565
3.874757
3.874756
3.874755
3.8747565
3.87476
3.874763
3.8747665
3.8747545
3.874757
3.8747575
3.874757
3.874756
3.874756
3.8747585
3.874763
3.874767
3.8747695
3.8747565
3.8747575
3.874757
3.874756
3.874756
3.8747575
3.8747615
3.8747665
3.8747705
3.8747715
3.874757
3.874757
3.874756
3.8747565
3.874757
3.8747595
3.8747645
3.8747695
3.8747725
3.874774
3.874756
3.874756
3.874756
3.874757
3.874759
3.874763
3.8747675
3.874772
3.874774
3.874775
3.874755
3.874756
3.8747575
3.8747595
3.874763
3.874767
3.87477
3.874773
3.8747755
3.8747745
3.8747565
3.8747585
3.8747615
3.8747645
3.8747675
3.87477
3.874773
3.874775
3.8747755
3.874773
3.87476
3.874763
3.8747665
3.8747695
3.874772
3.874773
3.874775
3.874776
3.8747725
3.874769
3.874763
3.874767
3.8747705
3.8747725
3.874774
3.8747755
3.8747755
3.8747725
3.874766
3.8747645
3.8747665
3.8747695
3.8747715
3.874774
3.874775
3.8747745
3.874773
3.874769
3.8747645
3.8747605
3.8747685
3.8747705
3.8747705
3.87477
3.8747685
3.8747685
3.87477
3.874773
3.8747755
3.874778
3.8747705
3.874771
3.874771
3.87477
3.87477
3.8747705
3.8747735
3.8747765
3.874779
3.8747795
3.8747705
3.874771
3.87477
3.87477
3.8747715
3.8747735
3.874776
3.874779
3.874781
3.87478
3.87477
3.87477
3.87477
3.874772
3.8747735
3.8747755
3.8747785
3.8747805
3.8747805
3.874779
3.8747685
3.87477
3.8747715
3.8747735
3.874776
3.874778
3.8747795
3.87478
3.8747785
3.8747775
3.8747685
3.8747705
3.8747735
3.8747755
3.874778
3.874779
3.8747795
3.874778
3.8747775
3.874774
3.87477
3.8747735
3.874776
3.8747785
3.8747795
3.8747795
3.8747785
3.8747775
3.874774
3.874771
3.874773
3.8747765
3.874779
3.8747805
3.87478
3.874778
3.8747775
3.8747725
3.874767
3.8747665
3.8747755
3.874779
3.874781
3.8747805
3.8747785
3.8747775
3.874774
3.874767
3.874765
3.874762
3.874778
3.8747795
3.87478
3.874779
3.8747775
3.874774
3.874771
3.8747665
3.874762
3.8747675
3.8747825
3.874783
3.874782
3.874781
3.874783
3.8747835
3.874785
3.8747855
3.874786
3.874786
3.874783
3.874782
3.8747825
3.8747835
3.874785
3.8747865
3.874787
3.874787
3.874787
3.8747855
3.874782
3.8747825
3.8747835
3.8747845
3.874787
3.874788
3.874788
3.874788
3.874786
3.874784
3.874781
3.8747835
3.8747845
3.8747865
3.8747885
3.874789
3.874788
3.874786
3.874783
3.87478
3.874783
3.874785
3.874787
3.8747885
3.8747895
3.8747885
3.874787
3.874783
3.87478
3.874776
3.8747835
3.8747865
3.874788
3.874789
3.8747885
3.874787
3.874785
3.8747805
3.8747765
3.8747735
3.874785
3.874787
3.874788
3.874788
3.874787
3.874785
3.874781
3.874776
3.874772
3.8747705
3.8747855
3.874787
3.874788
3.874786
3.874783
3.8747805
3.874776
3.8747695
3.8747685
3.874768
3.874786
3.874787
3.874786
3.874783
3.87478
3.8747765
3.874772
3.8747685
3.874769
3.8747695
3.874786
3.8747855
3.874784
3.87478
3.874776
3.8747735
3.8747705
3.874768
3.8747695
3.8747705
3.8747944
3.8747923
3.8747926
3.8747949
3.8747961
3.8747965
3.8747959
3.8747935
3.8747919
3.8747908
3.8747923
3.8747925
3.8747939
3.8747962
3.8747974
3.8747976
3.8747953
3.8747932
3.8747913
3.874789
3.8747926
3.8747939
3.8747954
3.8747975
3.8747979
3.8747965
3.8747945
3.8747917
3.8747882
3.8747856
3.8747949
3.8747962
3.8747975
3.8747979
3.8747978
3.8747959
3.8747922
3.8747883
3.8747842
3.874781
3.8747961
3.8747974
3.8747979
3.8747978
3.8747961
3.8747936
3.8747903
3.8747854
3.8747812
3.8747777
3.8747965
3.8747976
3.8747966
3.8747959
3.8747935
3.8747918
3.8747877
3.8747831
3.8747789
3.8747776
3.8747959
3.8747953
3.8747945
3.8747922
3.8747903
3.8747877
3.8747829
3.8747789
3.8747768
3.8747765
3.8747935
3.8747932
3.8747917
3.8747883
3.8747854
3.8747831
3.8747789
3.8747768
3.8747781
3.8747761
3.8747919
3.8747913
3.8747882
3.8747842
3.8747812
3.8747789
3.8747768
3.8747781
3.874776
3.8747803
3.8747908
3.8747889
3.8747857
3.874781
3.8747776
3.8747776
3.8747765
3.8747761
3.8747803
3.8747754
3.8748063
3.8748059
3.8748068
3.8748095
3.8748084
3.8748067
3.8748032
3.8747994
3.8747974
3.8747961
3.8748059
3.8748058
3.8748081
3.8748088
3.8748079
3.8748048
3.8748012
3.8747981
3.8747952
3.8747932
3.8748068
3.8748081
3.874808
3.874808
3.8748054
3.8748016
3.874798
3.8747943
3.8747913
3.8747894
3.8748095
3.8748089
3.874808
3.8748061
3.8748027
3.8747991
3.8747948
3.8747909
3.8747874
3.8747853
3.8748084
3.8748079
3.8748054
3.8748027
3.8747996
3.8747965
3.8747926
3.8747888
3.8747846
3.8747843
3.8748066
3.8748048
3.8748016
3.8747991
3.8747965
3.874794
3.8747896
3.8747865
3.8747844
3.874785
3.8748032
3.8748012
3.874798
3.8747948
3.8747926
3.8747897
3.8747863
3.8747856
3.8747854
3.8747846
3.8747994
3.8747982
3.8747943
3.8747909
3.8747888
3.8747865
3.8747856
3.8747872
3.8747857
3.8747855
3.8747974
3.8747952
3.8747913
3.8747874
3.8747846
3.8747844
3.8747854
3.8747857
3.8747861
3.8747833
3.874796
3.8747931
3.8747895
3.8747853
3.8747842
3.874785
3.8747847
3.8747856
3.8747833
3.8747839
3.8748245
3.8748267
3.8748271
3.8748253
3.8748223
3.8748175
3.8748126
3.8748095
3.8748073
3.8748054
3.8748267
3.8748272
3.8748269
3.8748243
3.8748195
3.874814
3.8748097
3.8748068
3.8748032
3.8748023
3.8748271
3.8748269
3.8748246
3.8748203
3.8748146
3.8748093
3.8748049
3.8748009
3.8747982
3.8747981
3.8748253
3.8748243
3.8748203
3.8748151
3.8748095
3.8748048
3.8748001
3.8747961
3.8747939
3.8747944
3.8748223
3.8748196
3.8748145
3.8748095
3.874805
3.8748008
3.8747963
3.8747928
3.8747912
3.8747934
3.8748175
3.8748141
3.8748092
3.8748048
3.8748008
3.8747962
3.8747921
3.87479
3.8747902
3.8747915
3.8748126
3.8748098
3.874805
3.8748001
3.8747963
3.8747921
3.8747898
3.8747891
3.8747889
3.8747874
3.8748095
3.8748068
3.874801
3.8747961
3.8747928
3.87479
3.8747891
3.8747886
3.874785
3.8747863
3.8748073
3.8748032
3.8747982
3.874794
3.8747912
3.8747902
3.8747889
3.874785
3.8747851
3.8747806
3.8748055
3.8748024
3.8747981
3.8747944
3.8747935
3.8747916
3.8747873
3.8747863
3.8747806
3.8747802
3.874851
3.8748526
3.8748508
3.8748454
3.8748394
3.8748333
3.8748289
3.8748261
3.8748228
3.874821
3.8748526
3.8748537
3.8748489
3.8748432
3.8748358
3.8748301
3.8748262
3.8748228
3.8748186
3.8748184
3.8748508
3.8748489
3.8748445
3.874837
3.8748301
3.8748251
3.874821
3.874816
3.8748138
3.8748143
3.8748454
3.8748432
3.874837
3.8748304
3.8748245
3.8748202
3.8748149
3.8748107
3.8748096
3.8748114
3.8748394
3.8748358
3.8748302
3.8748245
3.8748202
3.8748145
3.8748095
3.8748061
3.8748057
3.8748087
3.8748333
3.8748301
3.8748251
3.8748202
3.8748145
3.8748085
3.874804
3.8748005
3.8748004
3.8748011
3.8748289
3.8748262
3.874821
3.8748149
3.8748095
3.8748039
3.8747992
3.8747951
3.8747923
3.8747945
3.8748261
3.8748228
3.874816
3.8748107
3.8748061
3.8748006
3.8747951
3.8747887
3.8747858
3.8747866
3.8748228
3.8748186
3.8748137
3.8748097
3.8748057
3.8748004
3.8747923
3.8747858
3.8747792
3.8747848
3.874821
3.8748185
3.8748143
3.8748114
3.8748086
3.8748011
3.8747945
3.8747866
3.8747848
3.8747837
3.8748768
3.8748771
3.8748723
3.8748661
3.8748595
3.8748552
3.8748519
3.8748487
3.8748446
3.8748434
3.8748771
3.8748752
3.8748703
3.8748633
3.8748577
3.874854
3.8748507
3.8748461
3.8748422
3.8748416
3.8748724
3.8748703
3.874865
3.8748585
3.8748542
3.8748505
3.8748462
3.8748406
3.8748388
3.8748388
3.8748662
3.8748633
3.8748586
3.8748539
3.8748501
3.8748466
3.874841
3.8748371
3.874836
3.8748372
3.8748595
3.8748577
3.8748542
3.8748501
3.8748467
3.8748409
3.8748362
3.8748321
3.8748309
3.8748312
3.8748552
3.874854
3.8748505
3.8748466
3.8748409
3.8748353
3.8748294
3.8748234
3.8748213
3.8748208
3.8748519
3.8748507
3.8748462
3.874841
3.8748361
3.8748294
3.8748214
3.8748142
3.8748107
3.8748144
3.8748487
3.8748461
3.8748406
3.8748371
3.8748321
3.8748234
3.8748142
3.8748047
3.8748023
3.8748043
3.8748445
3.8748422
3.8748389
3.8748361
3.8748309
3.8748213
3.8748108
3.8748022
3.8748003
3.8748052
3.8748434
3.8748415
3.8748388
3.8748372
3.8748311
3.8748207
3.8748144
3.8748043
3.8748051
3.8748108
3.8748962
3.874896
3.874891
3.8748861
3.8748827
3.8748806
3.8748775
3.8748735
3.8748698
3.8748689
3.874896
3.8748926
3.8748895
3.8748854
3.8748833
3.8748807
3.8748765
3.8748715
3.8748687
3.8748674
3.8748909
3.8748895
3.8748856
3.8748835
3.8748815
3.8748778
3.8748736
3.8748692
3.8748674
3.8748663
3.8748861
3.8748854
3.8748835
3.8748815
3.8748792
3.8748756
3.8748712
3.8748679
3.874865
3.8748643
3.8748827
3.8748833
3.8748815
3.8748792
3.8748762
3.874872
3.8748679
3.8748621
3.8748591
3.8748556
3.8748806
3.8748807
3.8748778
3.8748756
3.874872
3.874867
3.8748604
3.8748539
3.8748497
3.8748489
3.8748775
3.8748765
3.8748736
3.8748712
3.8748679
3.8748604
3.874853
3.8748458
3.8748428
3.8748409
3.8748735
3.8748715
3.8748692
3.8748679
3.8748621
3.8748539
3.8748458
3.8748381
3.8748355
3.8748373
3.8748698
3.8748687
3.8748675
3.874865
3.8748591
3.8748496
3.8748428
3.8748355
3.8748391
3.8748374
3.8748689
3.8748674
3.8748663
3.8748643
3.8748556
3.8748489
3.8748409
3.8748374
3.8748374
3.8748394
3.8749128
3.8749119
3.8749094
3.8749081
3.8749075
3.8749053
3.8749016
3.8748973
3.8748943
3.8748933
3.874912
3.8749116
3.8749094
3.8749088
3.8749088
3.8749048
3.8749007
3.8748964
3.8748943
3.8748921
3.8749094
3.8749094
3.8749081
3.8749093
3.8749068
3.8749037
3.8748998
3.8748963
3.8748933
3.8748914
3.8749081
3.8749087
3.8749092
3.8749076
3.8749061
3.8749027
3.8748992
3.8748945
3.8748904
3.8748875
3.8749075
3.8749088
3.8749068
3.8749061
3.8749032
3.8749003
3.8748958
3.8748893
3.8748853
3.8748823
3.8749053
3.8749048
3.8749037
3.8749027
3.8749003
3.8748958
3.8748899
3.8748845
3.8748797
3.8748796
3.8749016
3.8749007
3.8748998
3.8748992
3.8748958
3.8748899
3.8748854
3.8748798
3.8748766
3.8748727
3.8748973
3.8748964
3.8748963
3.8748946
3.8748892
3.8748845
3.8748798
3.8748748
3.8748741
3.8748723
3.8748943
3.8748943
3.8748933
3.8748904
3.8748852
3.8748796
3.8748766
3.8748741
3.8748691
3.8748705
3.8748933
3.8748921
3.8748915
3.8748874
3.8748823
3.8748796
3.8748727
3.8748722
3.8748705
3.8748641
3.8749285
3.8749285
3.874929
3.87493
3.87493
3.8749275
3.8749235
3.87492
3.874918
3.874916
3.8749285
3.87493
3.874931
3.8749315
3.874931
3.874927
3.8749235
3.87492
3.874917
3.8749135
3.874929
3.874931
3.874932
3.8749325
3.874929
3.8749275
3.874923
3.874919
3.874916
3.8749145
3.87493
3.8749315
3.8749325
3.87493
3.874929
3.8749265
3.874922
3.8749175
3.874916
3.8749135
3.87493
3.874931
3.874929
3.874929
3.8749275
3.874924
3.874919
3.874916
3.874913
3.874912
3.8749275
3.874927
3.8749275
3.8749265
3.874924
3.8749205
3.874917
3.874914
3.8749125
3.8749105
3.8749235
3.8749235
3.874923
3.874922
3.874919
3.874917
3.874916
3.874912
3.87491
3.8749115
3.87492
3.87492
3.874919
3.8749175
3.874916
3.874914
3.874912
3.8749095
3.8749085
3.8749055
3.874918
3.874917
3.874916
3.874916
3.874913
3.8749125
3.87491
3.8749085
3.874903
3.8749005
3.874916
3.8749135
3.8749145
3.8749135
3.874912
3.8749105
3.8749115
3.8749055
3.8749005
3.8749035
3.874942
3.8749445
3.8749475
3.8749485
3.8749475
3.874946
3.874944
3.8749415
3.87494
3.8749375
3.8749445
3.8749465
3.87495
3.8749485
3.8749475
3.8749465
3.8749435
3.874941
3.8749395
3.8749365
3.8749475
3.87495
3.8749495
3.8749495
3.8749485
3.874947
3.8749435
3.874942
3.874942
3.8749405
3.8749485
3.8749485
3.8749495
3.8749495
3.8749495
3.874947
3.8749445
3.8749445
3.874945
3.8749445
3.8749475
3.8749475
3.8749485
3.8749495
3.8749485
3.8749455
3.8749445
3.874945
3.8749455
3.8749455
3.874946
3.8749465
3.874947
3.874947
3.8749455
3.8749455
3.8749455
3.8749465
3.874949
3.8749465
3.874944
3.8749435
3.8749435
3.8749445
3.8749445
3.8749455
3.874945
3.8749455
3.874947
3.874945
3.8749415
3.874941
3.874942
3.8749445
3.874945
3.8749465
3.8749455
3.8749465
3.8749415
3.8749405
3.87494
3.8749395
3.874942
3.874945
3.8749455
3.874949
3.874947
3.8749415
3.8749435
3.87494
3.8749375
3.8749365
3.8749405
3.8749445
3.8749455
3.8749465
3.874945
3.8749405
3.87494
3.874943
3.8749545
3.8749565
3.8749605
3.874963
3.8749635
3.874963
3.874964
3.8749645
3.874964
3.8749615
3.8749565
3.8749585
3.874963
3.874964
3.874963
3.874965
3.8749655
3.8749665
3.8749665
3.874965
3.8749605
3.874963
3.874965
3.8749655
3.8749665
3.874967
3.874968
3.87497
3.874969
3.8749705
3.874963
3.874964
3.8749655
3.874968
3.874969
3.874969
3.874971
3.8749745
3.8749765
3.8749745
3.8749635
3.874963
3.8749665
3.874969
3.874969
3.87497
3.8749735
3.874978
3.8749825
3.874978
3.874963
3.874965
3.874967
3.874969
3.87497
3.8749715
3.874975
3.874981
3.874981
3.874981
3.874964
3.8749655
3.874968
3.874971
3.8749735
3.874975
3.874976
3.874982
3.8749825
3.8749755
3.8749645
3.8749665
3.87497
3.8749745
3.874978
3.874981
3.874982
3.874983
3.8749825
3.8749785
3.874964
3.8749665
3.874969
3.8749765
3.8749825
3.874981
3.8749825
3.8749825
3.874978
3.874982
3.8749615
3.874965
3.8749705
3.8749745
3.874978
3.874981
3.8749755
3.8749785
3.874982
3.874977
3.874966
3.8749635
3.874971
3.874977
3.8749805
3.874984
3.874988
3.874992
3.874992
3.8749895
3.8749635
3.8749655
3.8749715
3.87498
3.874983
3.874987
3.874993
3.8749975
3.8749965
3.8749965
3.874971
3.8749715
3.8749795
3.8749835
3.874986
3.87499
3.8749985
3.8750035
3.8750025
3.8749985
3.874977
3.87498
3.8749835
3.874988
3.8749895
3.874994
3.875004
3.875009
3.875009
3.875004
3.8749805
3.874983
3.874986
3.8749895
3.87499
3.874997
3.875005
3.8750125
3.8750095
3.8750045
3.874984
3.874987
3.87499
3.874994
3.874997
3.874999
3.8750045
3.875013
3.8750105
3.875003
3.874988
3.874993
3.8749985
3.875004
3.875005
3.8750045
3.875013
3.8750175
3.8750135
3.8750135
3.874992
3.8749975
3.8750035
3.875009
3.8750125
3.875013
3.8750175
3.8750205
3.87502
3.875014
3.874992
3.8749965
3.8750025
3.875009
3.8750095
3.8750105
3.8750135
3.87502
3.875018
3.8750125
3.8749895
3.8749965
3.8749985
3.875004
3.8750045
3.875003
3.8750135
3.875014
3.8750125
3.8750145
3.874978
3.874979
3.8749895
3.8749985
3.875002
3.8750085
3.8750145
3.8750195
3.875015
3.8750135
3.874979
3.874979
3.8749885
3.875001
3.875009
3.875016
3.8750285
3.875031
3.8750265
3.875028
3.8749895
3.8749885
3.875001
3.8750105
3.875014
3.875023
3.8750405
3.8750435
3.8750405
3.875036
3.8749985
3.875001
3.8750105
3.8750175
3.875015
3.875024
3.875041
3.8750455
3.875039
3.8750375
3.875002
3.875009
3.875014
3.875015
3.8750125
3.875023
3.8750395
3.8750455
3.875035
3.8750325
3.8750085
3.875016
3.875023
3.875024
3.875023
3.8750325
3.875043
3.8750465
3.8750405
3.875034
3.8750145
3.8750285
3.8750405
3.875041
3.8750395
3.875043
3.875049
3.8750525
3.875047
3.875048
3.8750195
3.875031
3.8750435
3.8750455
3.8750455
3.8750465
3.8750525
3.875057
3.8750485
3.875046
3.875015
3.8750265
3.8750405
3.875039
3.875035
3.8750405
3.875047
3.8750485
3.8750475
3.8750355
3.8750135
3.875028
3.875036
3.8750375
3.8750325
3.875034
3.875048
3.875046
3.8750355
3.875034
3.8750217
3.87502
3.8750367
3.8750507
3.8750597
3.8750737
3.875093
3.8750947
3.8750973
3.875097
3.87502
3.875035
3.8750447
3.8750493
3.8750547
3.8750683
3.875079
3.8750843
3.8750843
3.8750837
3.8750367
3.8750447
3.875054
3.875059
3.875069
3.875084
3.8750873
3.8750897
3.875083
3.8750817
3.8750507
3.8750493
3.875059
3.87506
3.875071
3.8750843
3.875093
3.8750927
3.8750843
3.87508
3.8750597
3.8750547
3.875069
3.875071
3.8750763
3.8750827
3.875087
3.8750833
3.875087
3.8750907
3.8750737
3.8750683
3.875084
3.8750843
3.8750827
3.8750823
3.8750927
3.8750923
3.8750927
3.8750963
3.875093
3.875079
3.8750873
3.875093
3.875087
3.8750927
3.875107
3.8751063
3.8751003
3.8750953
3.8750947
3.8750843
3.8750897
3.8750927
3.8750833
3.8750923
3.8751063
3.875107
3.8751037
3.8751033
3.8750973
3.8750843
3.875083
3.8750843
3.875087
3.8750927
3.8751003
3.8751037
3.875095
3.875095
3.875097
3.8750837
3.8750817
3.87508
3.8750907
3.8750963
3.8750953
3.8751033
3.875095
3.875084
)
;

boundaryField
{
    block1_in
    {
        type            calculated;
        value           nonuniform List<scalar> 
100
(
3.874726
3.874726
3.874738
3.87474
3.87475
3.874762
3.874766
3.87477
3.874784
3.874792
3.874726
3.874728
3.874736
3.874744
3.874754
3.874764
3.87477
3.874778
3.874786
3.87479
3.874738
3.874736
3.874738
3.87475
3.874756
3.874764
3.874776
3.87478
3.874782
3.874788
3.87474
3.874744
3.87475
3.874758
3.874762
3.874772
3.874782
3.87478
3.874782
3.87479
3.87475
3.874754
3.874756
3.874762
3.87477
3.874778
3.874782
3.874786
3.874782
3.874784
3.874762
3.874764
3.874764
3.874772
3.874778
3.874782
3.874782
3.874784
3.874782
3.874784
3.874766
3.87477
3.874776
3.874782
3.874782
3.874782
3.87478
3.87478
3.874784
3.874786
3.87477
3.874778
3.87478
3.87478
3.874786
3.874784
3.87478
3.874786
3.874788
3.874784
3.874784
3.874786
3.874782
3.874782
3.874782
3.874782
3.874784
3.874788
3.874784
3.874778
3.874792
3.87479
3.874788
3.87479
3.874784
3.874784
3.874786
3.874784
3.874778
3.874784
)
;
    }
    block1_out
    {
        type            calculated;
        value           nonuniform List<scalar> 
100
(
3.87504
3.875034
3.875054
3.87507
3.875082
3.8751
3.875126
3.875126
3.875134
3.875134
3.875034
3.875058
3.875066
3.875066
3.87507
3.875086
3.875094
3.875102
3.875106
3.875104
3.875054
3.875066
3.875072
3.875074
3.875088
3.875104
3.875098
3.875102
3.875096
3.875092
3.87507
3.875066
3.875074
3.875072
3.875092
3.875106
3.87511
3.875108
3.8751
3.875092
3.875082
3.87507
3.875088
3.875092
3.875102
3.875106
3.875102
3.875094
3.875104
3.875112
3.8751
3.875086
3.875104
3.875106
3.875106
3.875098
3.875106
3.875106
3.875112
3.875116
3.875126
3.875094
3.875098
3.87511
3.875102
3.875106
3.875128
3.875124
3.875118
3.875112
3.875126
3.875102
3.875102
3.875108
3.875094
3.875106
3.875124
3.875124
3.875124
3.875124
3.875134
3.875106
3.875096
3.8751
3.875104
3.875112
3.875118
3.875124
3.875116
3.87512
3.875134
3.875104
3.875092
3.875092
3.875112
3.875116
3.875112
3.875124
3.87512
3.875108
)
;
    }
    block1_wall1
    {
        type            calculated;
        value           nonuniform List<scalar> 
200
(
3.8747207
3.874722
3.874732
3.8747357
3.8747457
3.8747573
3.8747637
3.874769
3.8747777
3.874781
3.8747155
3.874717
3.874722
3.8747295
3.874736
3.8747455
3.8747545
3.87476
3.8747595
3.8747555
3.8747255
3.8747255
3.8747285
3.874735
3.8747385
3.874744
3.8747485
3.8747505
3.8747515
3.8747515
3.8747375
3.874739
3.874741
3.8747435
3.8747465
3.874747
3.874749
3.874751
3.874753
3.8747555
3.874753
3.8747545
3.8747565
3.874757
3.874756
3.874755
3.8747565
3.87476
3.874763
3.8747665
3.8747685
3.8747705
3.8747705
3.87477
3.8747685
3.8747685
3.87477
3.874773
3.8747755
3.874778
3.8747825
3.874783
3.874782
3.874781
3.874783
3.8747835
3.874785
3.8747855
3.874786
3.874786
3.8747944
3.8747923
3.8747926
3.8747949
3.8747961
3.8747965
3.8747959
3.8747935
3.8747919
3.8747908
3.8748063
3.8748059
3.8748068
3.8748095
3.8748084
3.8748066
3.8748032
3.8747994
3.8747974
3.874796
3.8748245
3.8748267
3.8748271
3.8748253
3.8748223
3.8748175
3.8748126
3.8748095
3.8748073
3.8748055
3.874851
3.8748526
3.8748508
3.8748454
3.8748394
3.8748333
3.8748289
3.8748261
3.8748228
3.874821
3.8748768
3.8748771
3.8748724
3.8748662
3.8748595
3.8748552
3.8748519
3.8748487
3.8748445
3.8748434
3.8748962
3.874896
3.8748909
3.8748861
3.8748827
3.8748806
3.8748775
3.8748735
3.8748698
3.8748689
3.8749128
3.874912
3.8749094
3.8749081
3.8749075
3.8749053
3.8749016
3.8748973
3.8748943
3.8748933
3.8749285
3.8749285
3.874929
3.87493
3.87493
3.8749275
3.8749235
3.87492
3.874918
3.874916
3.874942
3.8749445
3.8749475
3.8749485
3.8749475
3.874946
3.874944
3.8749415
3.87494
3.8749375
3.8749545
3.8749565
3.8749605
3.874963
3.8749635
3.874963
3.874964
3.8749645
3.874964
3.8749615
3.874966
3.8749635
3.874971
3.874977
3.8749805
3.874984
3.874988
3.874992
3.874992
3.8749895
3.874978
3.874979
3.8749895
3.8749985
3.875002
3.8750085
3.8750145
3.8750195
3.875015
3.8750135
3.8750217
3.87502
3.8750367
3.8750507
3.8750597
3.8750737
3.875093
3.8750947
3.8750973
3.875097
)
;
    }
    block1_wall2
    {
        type            calculated;
        value           nonuniform List<scalar> 
200
(
3.874781
3.8747555
3.8747515
3.8747555
3.8747665
3.874778
3.874786
3.8747908
3.874796
3.8748055
3.874821
3.8748434
3.8748689
3.8748933
3.874916
3.8749375
3.8749615
3.8749895
3.8750135
3.875097
3.874779
3.874754
3.8747525
3.8747585
3.8747695
3.8747795
3.8747855
3.8747889
3.8747931
3.8748024
3.8748185
3.8748415
3.8748674
3.8748921
3.8749135
3.8749365
3.874965
3.8749965
3.875028
3.8750837
3.8747777
3.874755
3.8747555
3.874762
3.8747715
3.87478
3.874784
3.8747857
3.8747895
3.8747981
3.8748143
3.8748388
3.8748663
3.8748915
3.8749145
3.8749405
3.8749705
3.8749985
3.875036
3.8750817
3.8747797
3.8747575
3.8747585
3.8747655
3.874774
3.874779
3.87478
3.874781
3.8747853
3.8747944
3.8748114
3.8748372
3.8748643
3.8748874
3.8749135
3.8749445
3.8749745
3.875004
3.8750375
3.87508
3.874777
3.8747615
3.874763
3.874769
3.874775
3.8747775
3.874776
3.8747776
3.8747842
3.8747935
3.8748086
3.8748311
3.8748556
3.8748823
3.874912
3.8749455
3.874978
3.8750045
3.8750325
3.8750907
3.8747777
3.8747645
3.8747675
3.8747725
3.8747745
3.874774
3.8747735
3.8747776
3.874785
3.8747916
3.8748011
3.8748207
3.8748489
3.8748796
3.8749105
3.8749465
3.874981
3.875003
3.875034
3.8750963
3.8747803
3.8747685
3.8747705
3.8747735
3.874773
3.874771
3.8747705
3.8747765
3.8747847
3.8747873
3.8747945
3.8748144
3.8748409
3.8748727
3.8749115
3.874945
3.8749755
3.8750135
3.875048
3.8750953
3.8747793
3.8747715
3.874774
3.874773
3.874769
3.8747665
3.874768
3.8747761
3.8747856
3.8747863
3.8747866
3.8748043
3.8748374
3.8748722
3.8749055
3.8749405
3.8749785
3.875014
3.875046
3.8751033
3.8747757
3.874773
3.8747745
3.874771
3.8747645
3.874762
3.8747695
3.8747803
3.8747833
3.8747806
3.8747848
3.8748051
3.8748374
3.8748705
3.8749005
3.87494
3.874982
3.8750125
3.8750355
3.875095
3.8747797
3.874774
3.8747745
3.874765
3.8747605
3.8747675
3.8747705
3.8747754
3.8747839
3.8747802
3.8747837
3.8748108
3.8748394
3.8748641
3.8749035
3.874943
3.874977
3.8750145
3.875034
3.875084
)
;
    }
    block1_wall3
    {
        type            calculated;
        value           nonuniform List<scalar> 
200
(
3.874781
3.874779
3.8747777
3.8747797
3.874777
3.8747777
3.8747803
3.8747793
3.8747757
3.8747797
3.8747555
3.874754
3.874755
3.8747575
3.8747615
3.8747645
3.8747685
3.8747715
3.874773
3.874774
3.8747515
3.8747525
3.8747555
3.8747585
3.874763
3.8747675
3.8747705
3.874774
3.8747745
3.8747745
3.8747555
3.8747585
3.874762
3.8747655
3.874769
3.8747725
3.8747735
3.874773
3.874771
3.874765
3.8747665
3.8747695
3.8747715
3.874774
3.874775
3.8747745
3.874773
3.874769
3.8747645
3.8747605
3.874778
3.8747795
3.87478
3.874779
3.8747775
3.874774
3.874771
3.8747665
3.874762
3.8747675
3.874786
3.8747855
3.874784
3.87478
3.874776
3.8747735
3.8747705
3.874768
3.8747695
3.8747705
3.8747908
3.874789
3.8747856
3.874781
3.8747777
3.8747776
3.8747765
3.8747761
3.8747803
3.8747754
3.8747961
3.8747932
3.8747894
3.8747853
3.8747843
3.874785
3.8747846
3.8747855
3.8747833
3.8747839
3.8748054
3.8748023
3.8747981
3.8747944
3.8747934
3.8747915
3.8747874
3.8747863
3.8747806
3.8747802
3.874821
3.8748184
3.8748143
3.8748114
3.8748087
3.8748011
3.8747945
3.8747866
3.8747848
3.8747837
3.8748434
3.8748416
3.8748388
3.8748372
3.8748312
3.8748208
3.8748144
3.8748043
3.8748052
3.8748108
3.8748689
3.8748674
3.8748663
3.8748643
3.8748556
3.8748489
3.8748409
3.8748373
3.8748374
3.8748394
3.8748933
3.8748921
3.8748914
3.8748875
3.8748823
3.8748796
3.8748727
3.8748723
3.8748705
3.8748641
3.874916
3.8749135
3.8749145
3.8749135
3.874912
3.8749105
3.8749115
3.8749055
3.8749005
3.8749035
3.8749375
3.8749365
3.8749405
3.8749445
3.8749455
3.8749465
3.874945
3.8749405
3.87494
3.874943
3.8749615
3.874965
3.8749705
3.8749745
3.874978
3.874981
3.8749755
3.8749785
3.874982
3.874977
3.8749895
3.8749965
3.8749985
3.875004
3.8750045
3.875003
3.8750135
3.875014
3.8750125
3.8750145
3.8750135
3.875028
3.875036
3.8750375
3.8750325
3.875034
3.875048
3.875046
3.8750355
3.875034
3.875097
3.8750837
3.8750817
3.87508
3.8750907
3.8750963
3.8750953
3.8751033
3.875095
3.875084
)
;
    }
    block1_wall4
    {
        type            calculated;
        value           nonuniform List<scalar> 
200
(
3.8747207
3.8747155
3.8747255
3.8747375
3.874753
3.8747685
3.8747825
3.8747944
3.8748063
3.8748245
3.874851
3.8748768
3.8748962
3.8749128
3.8749285
3.874942
3.8749545
3.874966
3.874978
3.8750217
3.874722
3.874717
3.8747255
3.874739
3.8747545
3.8747705
3.874783
3.8747923
3.8748059
3.8748267
3.8748526
3.8748771
3.874896
3.8749119
3.8749285
3.8749445
3.8749565
3.8749635
3.874979
3.87502
3.874732
3.874722
3.8747285
3.874741
3.8747565
3.8747705
3.874782
3.8747926
3.8748068
3.8748271
3.8748508
3.8748723
3.874891
3.8749094
3.874929
3.8749475
3.8749605
3.874971
3.8749895
3.8750367
3.8747357
3.8747295
3.874735
3.8747435
3.874757
3.87477
3.874781
3.8747949
3.8748095
3.8748253
3.8748454
3.8748661
3.8748861
3.8749081
3.87493
3.8749485
3.874963
3.874977
3.8749985
3.8750507
3.8747457
3.874736
3.8747385
3.8747465
3.874756
3.8747685
3.874783
3.8747961
3.8748084
3.8748223
3.8748394
3.8748595
3.8748827
3.8749075
3.87493
3.8749475
3.8749635
3.8749805
3.875002
3.8750597
3.8747573
3.8747455
3.874744
3.874747
3.874755
3.8747685
3.8747835
3.8747965
3.8748067
3.8748175
3.8748333
3.8748552
3.8748806
3.8749053
3.8749275
3.874946
3.874963
3.874984
3.8750085
3.8750737
3.8747637
3.8747545
3.8747485
3.874749
3.8747565
3.87477
3.874785
3.8747959
3.8748032
3.8748126
3.8748289
3.8748519
3.8748775
3.8749016
3.8749235
3.874944
3.874964
3.874988
3.8750145
3.875093
3.874769
3.87476
3.8747505
3.874751
3.87476
3.874773
3.8747855
3.8747935
3.8747994
3.8748095
3.8748261
3.8748487
3.8748735
3.8748973
3.87492
3.8749415
3.8749645
3.874992
3.8750195