/*--------------------------------*- C++ -*----------------------------------*\
| =========                 |                                                 |
| \\      /  F ield         | OpenFOAM: The Open Source CFD Toolbox           |
|  \\    /   O peration     | Version:  v2106                                 |
|   \\  /    A nd           | Website:  www.openfoam.com                      |
|    \\/     M anipulation  |                                                 |
\*---------------------------------------------------------------------------*/
FoamFile
{
    version     2.0;
    format      ascii;
    arch        "LSB;label=32;scalar=64";
    class       volVectorField;
    location    "0";
    object      gradTmode8;
}
// * * * * * * * * * * * * * * * * * * * * * * * * * * * * * * * * * * * * * //

dimensions      [0 -1 0 0 0 0 0];

internalField   nonuniform List<vector> 
2000
(
(-1.6976874e+09 -1.6976874e+09 -1.6976845e+09)
(2.6392075 -2.2446507e+09 -2.1924074e+09)
(13.343163 -2.2446507e+09 -2.1924074e+09)
(12.682476 -2.2446507e+09 -2.1924074e+09)
(13.404773 -2.2446507e+09 -2.1924074e+09)
(14.511754 -2.2446507e+09 -2.1924075e+09)
(9.1050539 -2.2446508e+09 -2.1924075e+09)
(6.0441983 -2.2446508e+09 -2.1924075e+09)
(4.6178372 -2.2446508e+09 -2.1924076e+09)
(1.6976875e+09 -2.2446508e+09 -2.1924076e+09)
(-2.1924111e+09 2.6392294 -2.1924073e+09)
(7.0748178 7.0748284 -2.1924073e+09)
(12.693563 5.7837218 -2.1924073e+09)
(13.985648 2.2192086 -2.1924073e+09)
(15.339277 3.7962734 -2.1924074e+09)
(14.138749 6.2459618 -2.1924074e+09)
(12.074009 6.6607612 -2.1924075e+09)
(9.4746155 11.547975 -2.1924075e+09)
(3.0378732 12.15559 -2.1924075e+09)
(2.1924114e+09 9.6417594 -2.1924076e+09)
(-2.1924111e+09 13.343183 -2.1924073e+09)
(5.7836999 12.693574 -2.1924073e+09)
(8.4875433 8.4875765 -2.1924073e+09)
(10.69503 8.3814617 -2.1924073e+09)
(17.431525 9.3931812 -2.1924074e+09)
(17.376241 10.860201 -2.1924074e+09)
(14.407066 11.863165 -2.1924075e+09)
(11.539028 12.749095 -2.1924075e+09)
(2.7116217 11.31568 -2.1924076e+09)
(2.1924114e+09 8.8389556 -2.1924076e+09)
(-2.1924111e+09 12.682478 -2.1924073e+09)
(2.2192113 13.985657 -2.1924073e+09)
(8.381451 10.69504 -2.1924073e+09)
(14.891253 14.891286 -2.1924074e+09)
(17.818015 18.433066 -2.1924074e+09)
(16.608732 14.46626 -2.1924075e+09)
(13.962904 12.779745 -2.1924075e+09)
(8.9271312 8.7392096 -2.1924075e+09)
(-0.87226693 5.7796085 -2.1924076e+09)
(2.1924114e+09 7.4525388 -2.1924076e+09)
(-2.1924111e+09 13.404758 -2.1924074e+09)
(3.796261 15.339309 -2.1924074e+09)
(9.3931721 17.431532 -2.1924074e+09)
(18.433057 17.818034 -2.1924074e+09)
(17.006499 17.006535 -2.1924074e+09)
(11.722919 13.103264 -2.1924075e+09)
(8.6800149 11.584674 -2.1924076e+09)
(4.5388918 8.6338717 -2.1924076e+09)
(1.4249492 5.6033219 -2.1924076e+09)
(2.1924115e+09 9.7823734 -2.1924076e+09)
(-2.1924112e+09 14.511739 -2.1924074e+09)
(6.2459859 14.138763 -2.1924074e+09)
(10.860176 17.376271 -2.1924074e+09)
(14.466256 16.608737 -2.1924075e+09)
(13.103245 11.722914 -2.1924075e+09)
(11.186871 11.186908 -2.1924076e+09)
(9.4935117 10.684932 -2.1924076e+09)
(2.9457792 10.509999 -2.1924076e+09)
(0.27623598 9.8108076 -2.1924076e+09)
(2.1924115e+09 6.7320172 -2.1924076e+09)
(-2.1924112e+09 9.1050377 -2.1924075e+09)
(6.6607936 12.073985 -2.1924075e+09)
(11.863146 14.407046 -2.1924075e+09)
(12.7797 13.96291 -2.1924075e+09)
(11.584669 8.6800112 -2.1924076e+09)
(10.684938 9.4935555 -2.1924076e+09)
(8.0031058 8.0031264 -2.1924076e+09)
(3.6647669 4.5891615 -2.1924077e+09)
(-2.3530343 7.3002942 -2.1924077e+09)
(2.1924115e+09 4.7824274 -2.1924077e+09)
(-2.1924113e+09 6.0441045 -2.1924075e+09)
(11.547996 9.4745763 -2.1924075e+09)
(12.749101 11.53901 -2.1924075e+09)
(8.739221 8.9271389 -2.1924075e+09)
(8.6338906 4.5389298 -2.1924076e+09)
(10.509986 2.9457985 -2.1924076e+09)
(4.5891175 3.6647755 -2.1924077e+09)
(2.242947 2.2429488 -2.1924077e+09)
(0.46950094 0.31426087 -2.1924077e+09)
(2.1924115e+09 0.27144985 -2.1924077e+09)
(-2.1924113e+09 4.6177178 -2.1924075e+09)
(12.155698 3.0377639 -2.1924075e+09)
(11.31571 2.7115881 -2.1924075e+09)
(5.7796195 -0.87230774 -2.1924076e+09)
(5.6033284 1.424951 -2.1924076e+09)
(9.810783 0.27619575 -2.1924076e+09)
(7.3002564 -2.3530367 -2.1924077e+09)
(0.31425186 0.46953288 -2.1924077e+09)
(-4.324529 -4.3245334 -2.1924077e+09)
(2.1924115e+09 -5.4218725 -2.1924077e+09)
(-2.1924113e+09 1.6976875e+09 -2.1924076e+09)
(9.641863 2.2446509e+09 -2.1924076e+09)
(8.8390312 2.2446509e+09 -2.1924076e+09)
(7.4525846 2.2446509e+09 -2.1924076e+09)
(9.7823936 2.244651e+09 -2.1924076e+09)
(6.7319994 2.244651e+09 -2.1924076e+09)
(4.7824554 2.244651e+09 -2.1924077e+09)
(0.27145172 2.244651e+09 -2.1924077e+09)
(-5.4219069 2.244651e+09 -2.1924077e+09)
(2.1924116e+09 2.244651e+09 -2.1924078e+09)
(-2.1896694e+09 -2.1896693e+09 36.126528)
(2.2760185 -2.1896693e+09 41.655774)
(9.3999087 -2.1896693e+09 38.369211)
(10.438284 -2.1896694e+09 33.928902)
(8.3857639 -2.1896694e+09 29.718731)
(8.867382 -2.1896695e+09 22.047575)
(7.5672786 -2.1896695e+09 15.739662)
(3.243721 -2.1896696e+09 13.019494)
(0.8088185 -2.1896696e+09 8.6392511)
(2.1896696e+09 -2.1896696e+09 7.0218779)
(-2.1924188e+09 2.2760271 41.655776)
(5.7406282 5.7406342 43.163345)
(10.274936 7.2821146 39.391531)
(10.862758 5.8127497 35.543566)
(9.3493862 5.8778999 29.150271)
(7.597532 6.8060168 21.426461)
(5.7887094 4.6064144 14.997387)
(3.376608 4.6762858 8.1885382)
(0.7857787 5.1923894 3.359005)
(2.1924191e+09 4.9402475 3.8023229)
(-2.1924188e+09 9.3999209 38.369194)
(7.2821041 10.274941 39.391521)
(9.4720243 9.4720404 36.964472)
(9.03407 8.2690055 35.162517)
(9.37903 7.4325577 29.113571)
(7.5958954 7.9879114 19.128377)
(5.4375485 7.9165973 11.614644)
(3.8296969 8.8575608 3.6079618)
(1.0727811 8.9737962 -1.2220094)
(2.1924191e+09 7.7233322 0.56170304)
(-2.1924188e+09 10.438289 33.928891)
(5.8127491 10.862758 35.543555)
(8.2690008 9.0340699 35.162501)
(8.8232753 8.8232869 30.722618)
(9.0682921 9.8358201 22.975442)
(8.0815716 9.8459817 14.275155)
(6.6583588 10.298265 7.3574068)
(4.4338068 10.39282 1.1894031)
(-0.34844992 9.5237752 -1.0084141)
(2.1924191e+09 8.9286827 2.2108187)
(-2.1924189e+09 8.3857552 29.718715)
(5.877886 9.3493963 29.15025)
(7.4325531 9.3790267 29.113559)
(9.8358203 9.0682933 22.975432)
(10.401725 10.401747 13.579975)
(8.05834 10.280964 9.2066302)
(5.9843871 10.578217 5.6309116)
(3.0552074 10.372566 3.6638429)
(-0.39135866 8.8981393 2.962624)
(2.1924191e+09 10.440435 2.6772336)
(-2.1924189e+09 8.8673677 22.047567)
(6.8060207 7.5975363 21.426418)
(7.9878978 7.5959132 19.128349)
(9.845996 8.0815783 14.275131)
(10.280963 8.0583457 9.2066116)
(8.2580417 8.2580607 6.9685604)
(6.7499609 8.9188798 4.2363193)
(2.7537286 9.5833098 2.9844536)
(-0.28058124 9.4938745 3.8706746)
(2.1924191e+09 8.7557107 2.9170523)
(-2.192419e+09 7.567297 15.73964)
(4.6064316 5.7887121 14.997338)
(7.9165952 5.4375512 11.614599)
(10.298253 6.6583673 7.357388)
(10.578207 5.9843715 5.6309226)
(8.9188741 6.7499708 4.2363079)
(7.3096362 7.3096459 3.2528136)
(3.630202 6.2080914 2.7338185)
(-1.2189568 6.939662 2.8232056)
(2.1924191e+09 5.9164175 4.7783252)
(-2.192419e+09 3.2437236 13.019494)
(4.676274 3.3766034 8.1885124)
(8.857553 3.8296899 3.6079466)
(10.392816 4.4338064 1.1893738)
(10.372566 3.0552126 3.663822)
(9.5833162 2.7537485 2.9844053)
(6.2080815 3.630213 2.733818)
(2.3837447 2.3837504 5.0292714)
(-0.57225413 1.8771601 3.2126989)
(2.1924191e+09 1.481551 3.597581)
(-2.192419e+09 0.80878347 8.6393264)
(5.1923974 0.78574235 3.3589995)
(8.9737982 1.072772 -1.222036)
(9.5237755 -0.34846096 -1.0084456)
(8.8981493 -0.39135008 2.9625891)
(9.4938745 -0.28058147 3.8706377)
(6.9396381 -1.218963 2.8232012)
(1.8771491 -0.57224607 3.2127048)
(-2.1211552 -2.1211553 4.390042)
(2.1924191e+09 -3.501604 5.321364)
(-2.1924191e+09 2.1896696e+09 7.021992)
(4.9402624 2.1896696e+09 3.8023936)
(7.7233506 2.1896696e+09 0.56171391)
(8.928694 2.1896697e+09 2.2108244)
(10.440445 2.1896697e+09 2.6772089)
(8.7557033 2.1896697e+09 2.9170451)
(5.9164169 2.1896697e+09 4.7783242)
(1.4815524 2.1896697e+09 3.5975484)
(-3.501612 2.1896697e+09 5.3213634)
(2.1924191e+09 2.1896697e+09 6.2055613)
(-2.1896771e+09 -2.189677e+09 32.346807)
(4.8818913 -2.189677e+09 35.7412)
(5.6162899 -2.1896771e+09 33.790215)
(4.0319974 -2.1896771e+09 27.39899)
(1.5234453 -2.1896772e+09 20.834248)
(0.53268492 -2.1896773e+09 13.699339)
(0.076972503 -2.1896773e+09 5.2032885)
(-1.0562115 -2.1896773e+09 0.23484109)
(-1.3797808 -2.1896773e+09 -2.2464934)
(2.1896774e+09 -2.1896774e+09 -2.5582941)
(-2.1924265e+09 4.8818972 35.7412)
(4.8105719 4.8105748 36.782922)
(5.0737844 4.3789836 32.82877)
(3.7443882 3.4528248 25.91638)
(1.2221711 3.1911142 17.876814)
(-0.01413531 3.3267636 10.039687)
(-1.1639127 2.5357425 3.185434)
(-2.1637664 2.1364424 -1.7624673)
(-1.3483428 2.2943303 -4.2924469)
(2.1924268e+09 3.1815841 -3.4898248)
(-2.1924265e+09 5.6162981 33.7902)
(4.3789782 5.0737842 32.828766)
(4.2585394 4.2585466 27.714843)
(2.8441282 3.5605134 21.322548)
(1.397385 3.2183522 13.753619)
(-0.12268562 3.7088949 5.8710457)
(-1.1133499 4.2231845 -0.0082838094)
(-1.2976256 5.7499597 -4.2449047)
(-0.3346391 6.9482612 -6.2149852)
(2.1924268e+09 7.2474508 -5.0109033)
(-2.1924266e+09 4.0319992 27.398976)
(3.4528218 3.7443863 25.916375)
(3.5605136 2.8441262 21.322541)
(2.7041938 2.704201 15.026073)
(1.3705526 2.8994707 8.2754007)
(0.99069697 4.5445132 1.1448716)
(0.87715212 6.7960126 -3.326733)
(0.56131035 8.7950906 -6.8295621)
(0.14914877 9.964242 -7.9424216)
(2.1924268e+09 9.5680679 -5.5034766)
(-2.1924267e+09 1.5234348 20.834226)
(3.1911051 1.2221723 17.876798)
(3.2183542 1.39738 13.753612)
(2.8994726 1.3705478 8.2753945)
(3.2376971 3.2377047 1.2535519)
(3.7738563 5.7966696 -3.7261384)
(3.1372275 8.4635864 -6.250785)
(1.8706037 10.428922 -8.0043671)
(0.43833815 10.482411 -7.8836345)
(2.1924268e+09 10.488607 -6.4030088)
(-2.1924267e+09 0.53266429 13.699328)
(3.3267669 -0.014148851 10.039658)
(3.7088891 -0.12268842 5.8710276)
(4.5445186 0.99069375 1.1448604)
(5.7966744 3.7738616 -3.7261576)
(6.2165786 6.2165856 -6.4373005)
(5.5094046 8.3068342 -7.9542655)
(2.5801345 9.5799743 -9.0447715)
(0.20883319 9.6713892 -8.2753248)
(2.1924268e+09 8.8331098 -7.832372)
(-2.1924267e+09 0.076964119 5.2032675)
(2.5357534 -1.163921 3.1853976)
(4.2231968 -1.1133556 -0.0083215713)
(6.7960226 0.8771526 -3.3267549)
(8.463589 3.1372219 -6.250791)
(8.3068288 5.5094003 -7.9542624)
(6.5006163 6.500625 -8.8810076)
(3.2351587 6.6339795 -9.9768251)
(-0.30852649 6.6423185 -9.6386903)
(2.1924268e+09 5.4629557 -8.475531)
(-2.1924268e+09 -1.056209 0.23479122)
(2.1364474 -2.1637625 -1.7625073)
(5.7499627 -1.2976258 -4.2449326)
(8.7950961 0.56130506 -6.8295879)
(10.428922 1.8705963 -8.0043761)
(9.5799817 2.5801277 -9.0447847)
(6.6339838 3.2351624 -9.9768362)
(2.7218281 2.7218348 -9.5708088)
(-0.96219058 1.8810969 -10.149299)
(2.1924268e+09 0.81448941 -10.149479)
(-2.1924268e+09 -1.3797821 -2.2465282)
(2.2943371 -1.3483551 -4.2924816)
(6.9482644 -0.33464656 -6.2150162)
(9.9642447 0.14914237 -7.9424518)
(10.482412 0.43833647 -7.8836579)
(9.6713949 0.20883552 -8.2753501)
(6.6423234 -0.30852951 -9.638709)
(1.8810933 -0.96219096 -10.1493)
(-2.2158714 -2.2158691 -10.512724)
(2.1924268e+09 -2.8138901 -9.8488294)
(-2.1924268e+09 2.1896774e+09 -2.5583041)
(3.1815839 2.1896774e+09 -3.4898333)
(7.2474616 2.1896774e+09 -5.010925)
(9.5680791 2.1896774e+09 -5.5034948)
(10.488614 2.1896774e+09 -6.4030319)
(8.8331148 2.1896773e+09 -7.8323903)
(5.4629583 2.1896773e+09 -8.4755393)
(0.81448894 2.1896773e+09 -10.14949)
(-2.8138916 2.1896773e+09 -9.8488368)
(2.1924268e+09 2.1896773e+09 -7.9865213)
(-2.1896848e+09 -2.1896848e+09 25.806914)
(3.7194261 -2.1896848e+09 24.573636)
(1.0576989 -2.1896849e+09 21.047004)
(-2.517683 -2.1896849e+09 15.275114)
(-5.3138863 -2.189685e+09 9.2684334)
(-6.7635763 -2.1896851e+09 3.5594163)
(-5.8972205 -2.1896851e+09 -0.9407778)
(-4.2060609 -2.1896851e+09 -3.1938314)
(-1.9843162 -2.1896851e+09 -3.3640874)
(2.1896851e+09 -2.1896851e+09 -2.1013475)
(-2.1924343e+09 3.7194235 24.573636)
(2.8281999 2.8282006 23.414986)
(-0.59160682 1.2067431 19.076918)
(-4.0891975 -0.26369139 12.412397)
(-6.5273068 -1.2027275 5.6550067)
(-7.0938482 -1.0222782 -0.17582888)
(-6.0134446 -0.60515933 -3.9482838)
(-4.1012729 0.19654046 -4.840222)
(-0.9415788 1.2238975 -4.0932439)
(2.1924345e+09 2.4876392 -1.890675)
(-2.1924343e+09 1.057696 21.046996)
(1.2067472 -0.59160673 19.07691)
(-2.034194 -2.0341887 14.341755)
(-4.9271543 -2.6213008 7.6850328)
(-6.072472 -2.1688559 1.3293725)
(-6.1660072 -0.90690368 -3.7487814)
(-4.6784019 1.4044303 -6.2518974)
(-2.3770045 3.790466 -6.3296246)
(0.30678205 5.3238215 -5.1188341)
(2.1924345e+09 5.7096809 -3.5509966)
(-2.1924344e+09 -2.5176855 15.275103)
(-0.26368522 -4.08921 12.412389)
(-2.6213009 -4.9271609 7.68502)
(-4.2238647 -4.2238664 1.5903737)
(-4.8129096 -2.6642468 -3.3819947)
(-3.520562 0.24879768 -7.3643388)
(-1.316075 4.0557635 -8.6808592)
(-0.18188172 6.633358 -8.6228382)
(0.97763467 7.8551259 -8.0128822)
(2.1924345e+09 7.5365768 -6.3473325)
(-2.1924345e+09 -5.3138925 9.2684111)
(-1.2027275 -6.5273206 5.6549848)
(-2.1688504 -6.0724864 1.3293606)
(-2.6642402 -4.8129198 -3.3820072)
(-1.599808 -1.5998109 -7.2601148)
(0.55400312 2.6987919 -10.301946)
(1.7061584 5.950685 -11.191983)
(1.4223579 8.1573567 -11.480785)
(1.2100006 8.565236 -11.143419)
(2.1924345e+09 8.1115394 -9.6986345)
(-2.1924345e+09 -6.7635911 3.5593961)
(-1.02228 -7.093864 -0.1758617)
(-0.90690009 -6.1660207 -3.7488008)
(0.24881082 -3.520571 -7.3643496)
(2.698802 0.55400288 -10.301957)
(4.0299338 4.0299366 -12.404265)
(4.1424899 6.2886572 -13.874314)
(2.4326693 7.6108518 -14.652841)
(0.93181823 7.7388187 -14.052438)
(2.1924345e+09 6.6831886 -13.018387)
(-2.1924345e+09 -5.8972403 -0.94079934)
(-0.60515794 -6.0134534 -3.9483094)
(1.4044426 -4.678409 -6.2519203)
(4.0557834 -1.316081 -8.6808834)
(5.9506997 1.7061529 -11.191999)
(6.2886574 4.1424866 -13.874317)
(5.2870735 5.2870752 -15.777945)
(2.8725194 5.6820541 -16.761409)
(0.2823374 5.0656881 -16.629178)
(2.1924345e+09 3.5993103 -15.488308)
(-2.1924345e+09 -4.2060716 -3.1938633)
(0.19655246 -4.1012758 -4.8402566)
(3.7904724 -2.3770047 -6.3296514)
(6.6333727 -0.18189044 -8.6228602)
(8.1573696 1.4223457 -11.480801)
(7.6108562 2.4326608 -14.652842)
(5.6820574 2.8725117 -16.76142)
(2.2112821 2.211276 -17.681203)
(-1.1509258 1.0031268 -18.045636)
(2.1924345e+09 0.10825258 -16.812745)
(-2.1924345e+09 -1.9843104 -3.3641165)
(1.2239108 -0.94158317 -4.0932721)
(5.323828 0.30677959 -5.1188634)
(7.8551338 0.9776326 -8.0129077)
(8.5652509 1.2099937 -11.143441)
(7.7388234 0.93181297 -14.052446)
(5.0656887 0.28233394 -16.629195)
(1.0031345 -1.150928 -18.045642)
(-1.8206855 -1.8206924 -17.949579)
(2.1924345e+09 -1.3386491 -15.509468)
(-2.1924345e+09 2.1896851e+09 -2.1013771)
(2.4876415 2.1896851e+09 -1.8906946)
(5.7096891 2.1896851e+09 -3.5510209)
(7.5365871 2.1896851e+09 -6.3473503)
(8.1115501 2.1896851e+09 -9.6986515)
(6.6831964 2.1896851e+09 -13.018401)
(3.5993161 2.189685e+09 -15.488328)
(0.10825625 2.189685e+09 -16.812753)
(-1.3386459 2.189685e+09 -15.509472)
(2.1924345e+09 2.189685e+09 -12.766535)
(-2.1896926e+09 -2.1896926e+09 11.837007)
(0.12198347 -2.1896927e+09 9.2254847)
(-3.6822335 -2.1896927e+09 5.353887)
(-7.7465741 -2.1896928e+09 1.2203108)
(-10.192251 -2.1896928e+09 -2.730445)
(-9.6765247 -2.1896929e+09 -4.1708668)
(-6.6762765 -2.1896929e+09 -3.3460081)
(-3.4795225 -2.1896929e+09 -0.95720862)
(-0.28729688 -2.1896929e+09 1.9784883)
(2.1896929e+09 -2.1896929e+09 4.2676914)
(-2.1924421e+09 0.12197876 9.2254867)
(-0.68614511 -0.68615131 6.4120541)
(-5.928805 -2.3262658 2.3886362)
(-9.6775226 -4.1372568 -1.9302718)
(-11.366054 -4.7479462 -5.2081054)
(-9.6174258 -3.9814342 -6.0670532)
(-5.8283059 -2.7753771 -4.4676895)
(-2.3087265 -0.99934982 -1.2688102)
(1.6012042 0.53958364 2.1251411)
(2.1924423e+09 1.7319354 4.6503842)
(-2.1924422e+09 -3.6822349 5.3538802)
(-2.3262625 -5.9288127 2.3886222)
(-7.1333376 -7.133351 -1.3506509)
(-10.168255 -7.2615095 -5.035181)
(-10.036429 -5.8186492 -7.476712)
(-7.7039555 -3.4796151 -7.6928834)
(-3.694193 -0.50939099 -5.6359693)
(-0.16456229 1.9673436 -2.367498)
(2.4439898 3.0286229 0.57767313)
(2.1924423e+09 2.7907914 2.1184606)
(-2.1924423e+09 -7.7465856 1.2202998)
(-4.1372612 -9.6775387 -1.9302812)
(-7.2615018 -10.168269 -5.0351909)
(-8.3628208 -8.362839 -7.8115364)
(-7.5841599 -5.6900167 -9.3539117)
(-4.3081676 -2.0086516 -9.0258456)
(-0.38134724 1.8559273 -7.2284635)
(1.2292874 3.6439298 -5.0599261)
(2.424654 3.9396571 -3.4059989)
(2.1924423e+09 3.4204314 -2.1804807)
(-2.1924423e+09 -10.192272 -2.7304653)
(-4.7479445 -11.366078 -5.2081259)
(-5.8186378 -10.036441 -7.4767257)
(-5.6900029 -7.5841755 -9.3539235)
(-3.6822418 -3.6822576 -10.271775)
(-0.1580116 0.7567439 -10.248125)
(1.9583883 3.2701316 -9.7564111)
(1.9191675 4.398919 -8.9254691)
(2.2204914 4.4428547 -8.1098092)
(2.1924423e+09 3.8175523 -7.0603038)
(-2.1924423e+09 -9.6765454 -4.1708901)
(-3.981431 -9.617443 -6.0670778)
(-3.4795988 -7.7039693 -7.6929006)
(-2.0086377 -4.3081824 -9.0258537)
(0.75675943 -0.15802211 -10.248135)
(2.6442217 2.6442152 -11.727659)
(3.2608278 3.7208716 -12.63888)
(2.4020105 4.2993502 -12.839321)
(1.8432883 4.1856298 -12.357376)
(2.1924423e+09 3.0434349 -11.252171)
(-2.1924423e+09 -6.6762967 -3.3460373)
(-2.7753694 -5.8283159 -4.4677128)
(-0.50937719 -3.6942061 -5.6359862)
(1.8559444 -0.38135799 -7.2284828)
(3.2701558 1.9583784 -9.7564299)
(3.7208821 3.2608226 -12.638892)
(3.6135234 3.6135192 -14.63402)
(2.3839257 3.6056183 -15.736282)
(0.96457418 2.6491207 -15.486372)
(2.1924422e+09 1.6686003 -13.86786)
(-2.1924423e+09 -3.4795276 -0.95723442)
(-0.99933967 -2.3087252 -1.2688415)
(1.9673591 -0.16456885 -2.3675225)
(3.6439468 1.2292807 -5.0599422)
(4.39894 1.9191534 -8.9254857)
(4.2993624 2.4019984 -12.839327)
(3.6056235 2.3839127 -15.736284)
(1.437612 1.4376021 -17.134506)
(-0.09373067 0.56069624 -16.417561)
(2.1924422e+09 0.79333213 -13.864853)
(-2.1924423e+09 -0.28729396 1.9784635)
(0.53958888 1.6012045 2.1251136)
(3.0286288 2.4439839 0.5776452)
(3.9396667 2.4246527 -3.4060167)
(4.4428734 2.2204861 -8.1098279)
(4.1856413 1.8432767 -12.357392)
(2.6491271 0.96456231 -15.486376)
(0.56070933 -0.093741145 -16.417565)
(0.3203033 0.32029541 -14.961696)
(2.1924422e+09 1.2323173 -11.753743)
(-2.1924423e+09 2.1896929e+09 4.2676634)
(1.7319377 2.1896929e+09 4.65036)
(2.7908063 2.1896929e+09 2.1184392)
(3.4204485 2.1896929e+09 -2.1804962)
(3.817564 2.1896928e+09 -7.0603177)
(3.0434387 2.1896928e+09 -11.252187)
(1.6686064 2.1896928e+09 -13.867875)
(0.79334417 2.1896928e+09 -13.864862)
(1.2323259 2.1896928e+09 -11.753743)
(2.1924422e+09 2.1896928e+09 -8.9996925)
(-2.1897005e+09 -2.1897005e+09 -3.5969546)
(-2.7636911 -2.1897005e+09 -6.0718781)
(-6.9474764 -2.1897006e+09 -8.498359)
(-10.602015 -2.1897006e+09 -10.233123)
(-10.705065 -2.1897007e+09 -9.5270993)
(-7.3791401 -2.1897007e+09 -5.9935785)
(-2.6835619 -2.1897007e+09 -0.70883514)
(1.1184369 -2.1897007e+09 5.1414415)
(3.2405838 -2.1897006e+09 9.8443493)
(2.1897006e+09 -2.1897006e+09 12.051352)
(-2.19245e+09 -2.763701 -6.0718771)
(-4.0086506 -4.0086619 -9.6170736)
(-8.9339327 -5.4977929 -11.450543)
(-11.685939 -6.5191832 -12.210831)
(-10.664088 -5.9489944 -10.401775)
(-6.3534323 -4.5442938 -5.8257509)
(-1.2152017 -2.8951177 0.23665283)
(2.4915577 -1.213747 6.0333493)
(4.9776127 -0.17691482 10.378671)
(2.1924501e+09 0.33841027 11.897459)
(-2.1924501e+09 -6.9474881 -8.4983663)
(-5.4977859 -8.933942 -11.450544)
(-9.4579973 -9.4580157 -12.727612)
(-11.053215 -8.5025654 -12.365543)
(-8.7301744 -6.3146621 -9.8104607)
(-4.3252646 -3.8656961 -5.1512943)
(0.64698347 -1.3563438 0.27049221)
(3.8366379 -0.00064989126 5.0607723)
(4.7927406 -0.20731854 8.027886)
(2.1924501e+09 -1.121184 8.7062227)
(-2.1924501e+09 -10.602033 -10.233146)
(-6.5191778 -11.685958 -12.210835)
(-8.5025561 -11.053236 -12.365542)
(-8.5425855 -8.5426088 -11.226533)
(-6.0272189 -5.4593101 -8.633072)
(-1.3951139 -2.3064436 -4.8495978)
(2.6498446 -0.064678223 -0.92145732)
(3.6405829 0.075386905 1.9414001)
(3.8570801 -0.83235641 3.6127783)
(2.1924501e+09 -1.6421878 4.0486497)
(-2.1924501e+09 -10.705082 -9.5271208)
(-5.9489879 -10.664117 -10.401787)
(-6.314648 -8.7301961 -9.8104652)
(-5.4592898 -6.0272371 -8.6330797)
(-2.4940091 -2.4940347 -6.9087483)
(1.0693674 -0.00302122 -4.747774)
(3.0288139 0.54026901 -3.3128257)
(3.0689598 0.37796215 -2.0101591)
(3.0751659 -0.38614098 -1.1749047)
(2.1924501e+09 -0.96015018 -0.65447619)
(-2.1924502e+09 -7.3791605 -5.9936013)
(-4.5442924 -6.3534509 -5.8257629)
(-3.865676 -4.3252812 -5.1513118)
(-2.3064241 -1.3951304 -4.8496089)
(-0.0030030091 1.0693483 -4.7477809)
(1.6391898 1.6391694 -5.4604395)
(3.030828 1.4110486 -5.8187886)
(2.7141729 0.8000388 -5.5721243)
(2.5189677 0.3622556 -5.0259543)
(2.1924501e+09 -0.12436929 -4.300826)
(-2.1924501e+09 -2.6835849 -0.70885183)
(-2.8951096 -1.2152171 0.2366375)
(-1.3563274 0.64696907 0.27047471)
(-0.064660345 2.6498306 -0.92147208)
(0.54029063 3.0288027 -3.31284)
(1.4110677 3.0308187 -5.818804)
(2.1896834 2.1896705 -7.3967873)
(2.0201667 1.3868683 -8.0396641)
(2.1507578 1.0055029 -7.3180523)
(2.19245e+09 0.98662864 -5.6030923)
(-2.1924501e+09 1.1184259 5.1414225)
(-1.2137375 2.4915505 6.0333263)
(-0.00062829394 3.8366266 5.0607529)
(0.075409498 3.6405757 1.9413846)
(0.3779851 3.0689477 -2.0101757)
(0.80005768 2.7141605 -5.5721394)
(1.3868776 2.0201551 -8.0396703)
(1.5300052 1.5299934 -8.6947825)
(2.1187273 1.5278029 -7.0842698)
(2.19245e+09 2.22237 -5.0341542)
(-2.1924501e+09 3.2405846 9.8443216)
(-0.17690841 4.9776145 10.378642)
(-0.2073022 4.7927384 8.0278618)
(-0.83233928 3.8570757 3.612764)
(-0.38612462 3.0751598 -1.1749165)
(0.36227509 2.5189537 -5.0259711)
(1.0055163 2.1507415 -7.3180591)
(1.5278146 2.1187135 -7.0842739)
(2.8431329 2.8431227 -4.9815501)
(2.19245e+09 3.5265131 -3.545081)
(-2.1924501e+09 2.1897006e+09 12.051325)
(0.33841539 2.1897006e+09 11.897432)
(-1.1211665 2.1897006e+09 8.7062065)
(-1.6421705 2.1897006e+09 4.048632)
(-0.96013867 2.1897006e+09 -0.65449282)
(-0.12435969 2.1897006e+09 -4.3008429)
(0.98663999 2.1897006e+09 -5.6030989)
(2.2223859 2.1897006e+09 -5.0341554)
(3.5265255 2.1897006e+09 -3.545081)
(2.19245e+09 2.1897006e+09 -2.5886045)
(-2.1897084e+09 -2.1897084e+09 -15.001838)
(-4.7794247 -2.1897084e+09 -17.417818)
(-7.8434788 -2.1897084e+09 -17.721504)
(-8.7753155 -2.1897085e+09 -15.760437)
(-5.952705 -2.1897085e+09 -10.362501)
(-0.85826055 -2.1897085e+09 -3.238976)
(4.4587443 -2.1897085e+09 4.5006647)
(7.0736614 -2.1897085e+09 11.101293)
(6.6226155 -2.1897084e+09 15.367941)
(2.1897084e+09 -2.1897084e+09 16.369835)
(-2.1924579e+09 -4.7794343 -17.417818)
(-6.0648121 -6.0648158 -19.678089)
(-8.5225628 -6.5555189 -19.28316)
(-8.6287545 -6.2696721 -15.670157)
(-4.9809739 -5.0313067 -9.4641905)
(1.0210021 -3.1391491 -1.71682)
(6.0307943 -1.7960478 6.1755999)
(7.8332917 -1.08002 12.122675)
(7.4653121 -1.2768758 15.300766)
(2.1924579e+09 -1.6131972 15.500366)
(-2.1924579e+09 -7.8435042 -17.721506)
(-6.5555103 -8.5225744 -19.283158)
(-8.0483366 -8.04835 -17.365352)
(-7.2511033 -6.2772106 -13.297966)
(-2.822181 -4.0499462 -7.0939243)
(2.3769974 -2.503462 0.076673308)
(6.5178736 -1.6675011 6.5720618)
(7.5928315 -2.1246057 10.888766)
(6.0894383 -3.7372698 12.770448)
(2.1924579e+09 -5.0580161 12.503909)
(-2.192458e+09 -8.7753432 -15.760445)
(-6.2696569 -8.6287825 -15.67016)
(-6.2771991 -7.2511215 -13.297971)
(-4.6303508 -4.6303761 -9.2042354)
(-1.2072252 -2.7883042 -4.0478055)
(3.4034471 -1.6051312 1.1855257)
(6.4096506 -1.7273907 5.4467567)
(5.7635231 -3.4270015 7.9809742)
(4.5319027 -5.2631336 9.1094581)
(2.1924579e+09 -5.9402673 8.9121684)
(-2.192458e+09 -5.9527259 -10.362509)
(-5.0312879 -4.9810061 -9.4641947)
(-4.0499301 -2.8222105 -7.0939247)
(-2.788286 -1.2072519 -4.0478085)
(0.20306384 0.20303349 -1.0237025)
(3.437911 0.14590224 1.6353304)
(4.6960033 -1.6271997 3.5021297)
(4.0570886 -3.1146054 4.8887429)
(3.5761724 -4.1958779 5.5383564)
(2.1924579e+09 -4.5319234 5.7893408)
(-2.192458e+09 -0.8582744 -3.2389944)
(-3.1391415 1.0209818 -1.7168355)
(-2.5034449 2.3769706 0.076659835)
(-1.6051068 3.4034252 1.1855154)
(0.14592891 3.4378862 1.6353244)
(1.573214 1.5731852 1.6212861)
(3.149143 -0.36309003 1.8510585)
(3.1948448 -1.7301548 2.4277048)
(3.1145847 -1.9575178 3.3726604)
(2.1924579e+09 -1.9051821 3.7645226)
(-2.192458e+09 4.4587287 4.5006465)
(-1.7960428 6.0307733 6.175581)
(-1.6674868 6.5178586 6.5720459)
(-1.7273704 6.4096356 5.4467486)
(-1.6271761 4.6959836 3.5021259)
(-0.36306524 3.1491226 1.8510525)
(1.3926632 1.3926375 1.0312134)
(2.4626608 0.48296006 1.5293791)
(3.4011442 0.59080513 2.6133795)
(2.1924579e+09 0.93527161 3.4271908)
(-2.1924579e+09 7.0736449 11.101274)
(-1.0800112 7.8332796 12.122651)
(-2.1245826 7.5928182 10.888747)
(-3.4269817 5.7635168 7.9809616)
(-3.114584 4.057077 4.8887335)
(-1.7301321 3.1948313 2.4276896)
(0.48298042 2.4626409 1.5293712)
(2.3930124 2.3929923 2.1803289)
(3.5668957 2.8971984 3.160009)
(2.1924578e+09 2.8513434 3.6914262)
(-2.1924579e+09 6.6226079 15.367919)
(-1.27687 7.4653104 15.300745)
(-3.7372496 6.0894375 12.770434)
(-5.2631116 4.531901 9.1094455)
(-4.1958617 3.5761699 5.538348)
(-1.9575013 3.1145752 3.3726461)
(0.59082428 3.4011347 2.6133695)
(2.8972184 3.566886 3.1600071)
(3.8594942 3.8594833 4.0372209)
(2.1924579e+09 3.677867 3.8500971)
(-2.1924579e+09 2.1897084e+09 16.369808)
(-1.6131816 2.1897084e+09 15.50034)
(-5.057992 2.1897084e+09 12.503895)
(-5.9402496 2.1897084e+09 8.9121486)
(-4.5319107 2.1897084e+09 5.7893313)
(-1.9051674 2.1897084e+09 3.7645137)
(0.93529245 2.1897084e+09 3.4271909)
(2.8513611 2.1897084e+09 3.6914252)
(3.6778763 2.1897084e+09 3.8500976)
(2.1924578e+09 2.1897084e+09 3.5027671)
(-2.1897162e+09 -2.1897162e+09 -19.611117)
(-5.4833506 -2.1897163e+09 -21.622278)
(-5.2900953 -2.1897163e+09 -19.472542)
(-3.2430153 -2.1897163e+09 -14.299137)
(1.8163968 -2.1897163e+09 -7.128073)
(7.4840256 -2.1897163e+09 0.79176289)
(11.656709 -2.1897163e+09 7.7340435)
(11.985712 -2.1897163e+09 12.689834)
(8.5091205 -2.1897162e+09 14.994954)
(2.1897162e+09 -2.1897162e+09 14.596551)
(-2.1924657e+09 -5.4833606 -21.622283)
(-5.8739932 -5.8740018 -22.041558)
(-4.9260007 -5.1416438 -19.121183)
(-1.8669693 -4.0567127 -12.914069)
(3.2892492 -2.6804166 -5.435003)
(9.2863582 -1.2286445 2.3261889)
(12.624293 -0.82372157 8.778256)
(11.616723 -1.4262765 12.739803)
(8.3553053 -2.774409 13.925528)
(2.1924657e+09 -3.5275144 13.39218)
(-2.1924658e+09 -5.2901146 -19.472546)
(-5.1416338 -4.9260129 -19.121186)
(-3.4728053 -3.4728269 -15.221177)
(-0.78178787 -2.0366435 -9.4819735)
(4.644465 -0.89827704 -2.795424)
(9.3407216 -0.96335046 3.7715618)
(11.459076 -2.085187 8.6815332)
(10.035024 -4.1423505 11.261779)
(6.4078826 -6.398626 12.03556)
(2.1924657e+09 -7.7093831 11.527721)
(-2.1924658e+09 -3.2430377 -14.299137)
(-4.0567064 -1.8669948 -12.914071)
(-2.0366312 -0.78180859 -9.4819752)
(0.70758046 0.7075487 -4.8557772)
(4.3625422 0.61091162 0.063457585)
(8.0994483 -0.74778644 4.5341461)
(9.4452931 -3.1346103 7.5021696)
(7.3032843 -5.9246361 9.2294884)
(4.7882714 -8.0644476 9.9925577)
(2.1924657e+09 -8.356754 9.9287547)
(-2.1924658e+09 1.8163669 -7.1280731)
(-2.6804047 3.2892077 -5.4350097)
(-0.89826185 4.6444352 -2.795432)
(0.61093234 4.3625137 0.063454788)
(3.1891299 3.1890951 2.6566908)
(5.5951996 0.43273917 4.6172483)
(6.2822264 -3.0554292 6.0184806)
(5.1051865 -5.1753072 7.3995541)
(3.9757647 -6.1229387 8.3933961)
(2.1924657e+09 -6.1077931 8.6880672)
(-2.1924658e+09 7.483994 0.79176131)
(-1.2286382 9.2863247 2.3261795)
(-0.96332513 9.3406894 3.7715574)
(-0.7477596 8.0994268 4.5341407)
(0.43276764 5.5951767 4.6172448)
(1.854924 1.8548915 4.62048)
(3.8372467 -1.0598677 5.3080145)
(4.2357748 -2.5593251 6.618116)
(3.8557864 -2.5627213 7.8145235)
(2.1924657e+09 -2.4865212 8.2809358)
(-2.1924658e+09 11.656685 7.7340303)
(-0.82371028 12.624269 8.7782384)
(-2.0851597 11.459057 8.6815228)
(-3.1345803 9.4452768 7.5021672)
(-3.0554055 6.2822118 6.018479)
(-1.0598448 3.8372222 5.308021)
(1.8680099 1.8679832 5.7322017)
(3.6023328 1.1394924 7.3231124)
(4.0485686 0.79285145 8.0728841)
(2.1924657e+09 0.91352916 7.86558)
(-2.1924657e+09 11.985699 12.68982)
(-1.4262658 11.616715 12.739794)
(-4.1423175 10.035014 11.261766)
(-5.9246044 7.3032726 9.2294821)
(-5.1752869 5.1051698 7.3995527)
(-2.5593046 4.2357541 6.618116)
(1.1395169 3.6023111 7.3231148)
(3.160643 3.1606215 8.2975322)
(3.6298237 2.9516444 8.1240958)
(2.1924657e+09 2.6452754 7.7122816)
(-2.1924657e+09 8.5091173 14.994932)
(-2.7743932 8.3553042 13.925519)
(-6.398602 6.4078856 12.035555)
(-8.064425 4.7882628 9.9925491)
(-6.122924 3.9757576 8.393394)
(-2.5627034 3.8557769 7.8145242)
(0.79287732 4.0485603 8.0728872)
(2.951666 3.6298099 8.1240988)
(3.5332238 3.5332122 7.4560821)
(2.1924657e+09 3.3378535 7.0881259)
(-2.1924657e+09 2.1897162e+09 14.596532)
(-3.5274976 2.1897162e+09 13.392167)
(-7.7093583 2.1897162e+09 11.527713)
(-8.3567323 2.1897162e+09 9.9287379)
(-6.1077727 2.1897163e+09 8.6880562)
(-2.4865021 2.1897163e+09 8.2809315)
(0.91354938 2.1897162e+09 7.8655747)
(2.6452936 2.1897162e+09 7.7122787)
(3.3378678 2.1897162e+09 7.0881305)
(2.1924657e+09 2.1897162e+09 6.9223383)
(-2.1897241e+09 -2.1897241e+09 -17.017026)
(-4.6408483 -2.1897241e+09 -17.118313)
(-0.52033567 -2.1897242e+09 -13.412844)
(3.5691538 -2.1897242e+09 -7.9991056)
(9.1381934 -2.1897242e+09 -2.1008511)
(14.00386 -2.1897242e+09 3.2036615)
(16.356812 -2.1897241e+09 6.8231163)
(14.334568 -2.1897241e+09 8.796134)
(8.5293314 -2.1897241e+09 8.8578565)
(2.1897241e+09 -2.1897241e+09 7.8918289)
(-2.1924736e+09 -4.6408631 -17.118312)
(-3.5637123 -3.5637233 -16.13565)
(0.60492603 -2.3041524 -11.797288)
(5.0574256 -1.4525131 -6.3919343)
(10.259284 -0.69865683 -0.94775293)
(15.234261 -0.15935114 3.5545955)
(16.444409 -0.84856283 6.6382862)
(12.980564 -2.5080726 7.7423137)
(8.1176894 -4.2362725 7.4556277)
(2.1924735e+09 -4.6820234 6.9644872)
(-2.1924736e+09 -0.52035729 -13.412844)