/*--------------------------------*- C++ -*----------------------------------*\
| =========                 |                                                 |
| \\      /  F ield         | OpenFOAM: The Open Source CFD Toolbox           |
|  \\    /   O peration     | Version:  v2106                                 |
|   \\  /    A nd           | Website:  www.openfoam.com                      |
|    \\/     M anipulation  |                                                 |
\*---------------------------------------------------------------------------*/
FoamFile
{
    version     2.0;
    format      ascii;
    arch        "LSB;label=32;scalar=64";
    class       volVectorField;
    location    "0";
    object      gradTmode1;
}
// * * * * * * * * * * * * * * * * * * * * * * * * * * * * * * * * * * * * * //

dimensions      [0 -1 0 1 0 0 0];

internalField   nonuniform List<vector> 
6000
(
(3.3333333e-07 -0.000349 -0.083743)
(5e-07 -0.00034933333 -0.083742)
(3.0270925e-19 -0.00034933333 -0.083742)
(7.5749592e-20 -0.00034933333 -0.083742)
(4.0094158e-18 -0.00034933333 -0.083742)
(-3.7910936e-20 -0.00034933333 -0.083742333)
(-4.0094338e-18 -0.00034933333 -0.083742333)
(-3.0328749e-19 -0.00034966667 -0.083741)
(-4.3876758e-18 -0.00034966667 -0.083741)
(-3.0264058e-18 -0.00034966667 -0.083741)
(-5.4474895e-18 -0.001572 -0.083742333)
(-4.084822e-18 -0.0015725 -0.083743667)
(3.3650925e-18 -0.0015725 -0.083743667)
(3.1758269e-18 -0.0015725 -0.083743667)
(3.0905273e-18 -0.0015725 -0.083743667)
(0 -0.0015725 -0.083743667)
(-5e-07 -0.0015725 -0.083742667)
(-5e-07 -0.001573 -0.083743667)
(3.9716313e-18 -0.001573 -0.083743667)
(3.1780014e-18 -0.001573 -0.083743667)
(3.337608e-18 -0.002623 -0.083745667)
(2.0087736e-18 -0.0026225 -0.083745667)
(-4.8911613e-18 -0.0026225 -0.083745667)
(-2.3886058e-18 -0.0026225 -0.083745667)
(1.8991608e-20 -0.0026225 -0.083745667)
(-2.8487412e-20 -0.0026225 -0.083745667)
(-5e-07 -0.0026225 -0.083745667)
(-5e-07 -0.0026225 -0.083745667)
(2.8349538e-18 -0.0026225 -0.083745667)
(1.510137e-18 -0.0026225 -0.083745667)
(3.3333333e-07 -0.0036755 -0.08375)
(5e-07 -0.003675 -0.083749)
(1.4667629e-18 -0.003675 -0.083749)
(-1.8921316e-18 -0.003675 -0.083750333)
(4.4258398e-18 -0.003675 -0.083750333)
(-1.333388e-18 -0.003675 -0.083749333)
(-5e-07 -0.003675 -0.083749333)
(-5e-07 -0.003675 -0.083750333)
(4.3493132e-18 -0.003675 -0.083749333)
(1.1044406e-18 -0.003675 -0.083749333)
(3.3333333e-07 -0.0047305 -0.083755)
(5e-07 -0.0047305 -0.083754)
(8.0531646e-18 -0.0047305 -0.083755333)
(2.2920034e-19 -0.0047305 -0.083755333)
(-3.4938234e-18 -0.0047305 -0.083755333)
(-5.7300085e-20 -0.0047305 -0.083755333)
(-5e-07 -0.0047305 -0.083754333)
(-5e-07 -0.0047305 -0.083755333)
(1.9085572e-19 -0.0047305 -0.083755333)
(2.7356589e-18 -0.004731 -0.083754)
(3.3333333e-07 -0.00579 -0.083761667)
(5e-07 -0.0057905 -0.083760667)
(4.7709413e-18 -0.00579 -0.083760333)
(4.3294903e-18 -0.00579 -0.083761667)
(4.4255868e-18 -0.00579 -0.083761667)
(-4.0400626e-18 -0.00579 -0.083760667)
(-5e-07 -0.00579 -0.083760667)
(-5e-07 -0.00579 -0.083761667)
(-5e-07 -0.00579 -0.083760667)
(-3.3333333e-07 -0.0057905 -0.083761667)
(-3.963554e-18 -0.0068545 -0.083768)
(5e-07 -0.006855 -0.083768)
(5e-07 -0.006855 -0.083768333)
(-1.1579279e-19 -0.006855 -0.083768333)
(-9.6403643e-21 -0.0068545 -0.083768333)
(6.7509655e-20 -0.006855 -0.083768333)
(-5e-07 -0.006855 -0.083767)
(-5e-07 -0.006855 -0.083768333)
(-5e-07 -0.006855 -0.083768333)
(-3.3333333e-07 -0.0068545 -0.083768)
(5.2937978e-19 -0.007925 -0.083776)
(1.2210285e-18 -0.007925 -0.083776)
(2.3266979e-19 -0.0079255 -0.083776)
(5e-07 -0.0079255 -0.083776)
(-1.1048037e-18 -0.0079255 -0.083775)
(-5e-07 -0.0079255 -0.083776)
(-5e-07 -0.0079255 -0.083776)
(-5e-07 -0.0079255 -0.083776)
(3.390517e-18 -0.0079255 -0.083776)
(3.3381862e-18 -0.007925 -0.083776)
(-5.7867363e-18 -0.009002 -0.083783667)
(-7.9250842e-18 -0.009002 -0.083783667)
(7.9775415e-18 -0.009002 -0.083783667)
(7.9250842e-18 -0.009002 -0.083783667)
(-8.47538e-18 -0.0090025 -0.083783667)
(-8.3971639e-18 -0.009002 -0.083783667)
(-5e-07 -0.0090025 -0.083783667)
(-5e-07 -0.009002 -0.083785)
(-2.3418767e-19 -0.009002 -0.083783667)
(6.3364389e-19 -0.009002 -0.083783667)
(-2.4893523e-18 -0.0100865 -0.083791333)
(-8.9166594e-18 -0.0100865 -0.083791333)
(2.7578489e-19 -0.0100865 -0.083791333)
(4.5922829e-18 -0.0100865 -0.083791333)
(-1.0898039e-19 -0.0100865 -0.083791333)
(-5e-07 -0.0100865 -0.083791333)
(-5e-07 -0.0100865 -0.083792333)
(-2.2583931e-19 -0.0100865 -0.083791333)
(4.7784765e-18 -0.0100865 -0.083791333)
(3.0206354e-18 -0.010087 -0.083791333)
(-3.2323681e-18 -0.01118 -0.083798667)
(4.9672723e-18 -0.0111795 -0.083798667)
(9.1531781e-18 -0.0111795 -0.083798333)
(-1.2719498e-19 -0.0111795 -0.083798667)
(4.818601e-18 -0.0111795 -0.083798667)
(4.8387039e-18 -0.01118 -0.083798667)
(-5e-07 -0.0111795 -0.083798667)
(-5e-07 -0.0111795 -0.083798333)
(-5e-07 -0.01118 -0.083798667)
(-3.3333333e-07 -0.01118 -0.083799667)
(3.3333333e-07 -0.012282 -0.083805)
(5e-07 -0.0122815 -0.083805333)
(1.8751204e-32 -0.0122815 -0.083805333)
(7.0261902e-18 -0.0122815 -0.083805333)
(-5e-07 -0.0122815 -0.083805333)
(-5e-07 -0.012282 -0.083805)
(-5.3066275e-18 -0.012282 -0.083805)
(-5e-07 -0.0122815 -0.083805333)
(-5e-07 -0.012282 -0.083805)
(-1.9354454e-18 -0.0122815 -0.083805)
(3.3333333e-07 -0.0133935 -0.083811)
(5e-07 -0.013394 -0.08381)
(-9.8518182e-34 -0.0133935 -0.08381)
(7.5282662e-18 -0.0133935 -0.08381)
(-5e-07 -0.0133935 -0.08381)
(-5e-07 -0.0133935 -0.083809667)
(-7.5081543e-18 -0.0133935 -0.08381)
(-5e-07 -0.013394 -0.08381)
(-5e-07 -0.0133935 -0.083809667)
(1.2003684e-18 -0.0133935 -0.083809667)
(-4.1862371e-18 -0.0145155 -0.083813333)
(5e-07 -0.014516 -0.083813333)
(5e-07 -0.014516 -0.083812333)
(4.6046247e-18 -0.014516 -0.083812333)
(-5e-07 -0.014516 -0.083812333)
(-5e-07 -0.0145155 -0.083813667)
(-5e-07 -0.014516 -0.083812333)
(-5e-07 -0.014516 -0.083813333)
(1.3960006e-18 -0.0145155 -0.083813667)
(4.8621649e-19 -0.0145155 -0.083812333)
(-2.2986291e-18 -0.015649 -0.083812333)
(1.5730689e-18 -0.015649 -0.083812333)
(-3.7362781e-18 -0.0156495 -0.083812333)
(-8.2385903e-18 -0.0156495 -0.083812333)
(3.7877326e-18 -0.0156495 -0.083812333)
(-5e-07 -0.015649 -0.083811)
(-5e-07 -0.015649 -0.083812)
(-1.3218575e-17 -0.015649 -0.083812333)
(3.6951417e-18 -0.015649 -0.083812333)
(5.9491619e-18 -0.015649 -0.083811)
(-3.1951679e-18 -0.0167945 -0.083806667)
(-1.2479167e-19 -0.0167945 -0.083806667)
(-6.3641041e-18 -0.0167945 -0.083808)
(-1.8208633e-18 -0.0167945 -0.083808)
(5.4641079e-18 -0.0167945 -0.083808)
(-9.1281149e-18 -0.0167945 -0.083807)
(-5e-07 -0.016794 -0.083807)
(-5e-07 -0.0167945 -0.083808)
(9.8721577e-18 -0.0167945 -0.083808333)
(4.0212336e-18 -0.0167945 -0.083807)
(1.2414958e-18 -0.0179515 -0.083798333)
(4.6687914e-18 -0.0179515 -0.083798)
(-8.4774852e-18 -0.0179515 -0.083798)
(-1.7991251e-18 -0.017951 -0.083798)
(4.6162889e-18 -0.0179515 -0.083798)
(-4.4481472e-18 -0.0179515 -0.083798333)
(-5e-07 -0.0179515 -0.083798333)
(-5e-07 -0.017951 -0.083798)
(-2.3442258e-18 -0.0179515 -0.083798333)
(-4.4380973e-18 -0.0179515 -0.083798333)
(-2.8348273e-19 -0.0191205 -0.083782)
(-4.7118342e-18 -0.0191205 -0.083782)
(5e-07 -0.0191205 -0.083782)
(2.8858921e-19 -0.0191205 -0.083782333)
(-5e-07 -0.0191205 -0.083783333)
(1.0652286e-20 -0.0191205 -0.083782)
(-3.3205499e-19 -0.0191205 -0.083782333)
(-5e-07 -0.0191205 -0.083782333)
(-5e-07 -0.0191205 -0.083783333)
(8.7826881e-18 -0.0191205 -0.083782)
(-6.1338497e-18 -0.0203025 -0.083758333)
(-1.3517074e-17 -0.0203025 -0.083758)
(3.959687e-19 -0.0203025 -0.083758333)
(4.7122679e-18 -0.020303 -0.083758)
(4.4451928e-18 -0.020302 -0.083758333)
(4.4453012e-18 -0.0203025 -0.083758333)
(-5e-07 -0.0203025 -0.083758333)
(-5e-07 -0.0203025 -0.083758)
(1.7532615e-17 -0.0203025 -0.083758333)
(9.4125493e-18 -0.0203025 -0.083758333)
(2.6208901e-18 -0.021497 -0.083725667)
(4.6688637e-18 -0.021497 -0.083725333)
(-2.1622605e-19 -0.0214965 -0.083725333)
(5e-07 -0.0214965 -0.083725333)
(-9.3230435e-18 -0.0214965 -0.083724333)
(-5e-07 -0.0214965 -0.083725667)
(-8.9689902e-18 -0.021497 -0.083725667)
(-5e-07 -0.0214965 -0.083724333)
(-5e-07 -0.021497 -0.083725667)
(-1.836612e-17 -0.021497 -0.083725667)
(9.9385079e-18 -0.022703 -0.083679667)
(5e-07 -0.022703 -0.083679667)
(5e-07 -0.0227025 -0.083678667)
(3.4073222e-17 -0.0227025 -0.08368)
(-1.4338357e-17 -0.022703 -0.08368)
(-5e-07 -0.0227025 -0.083678667)
(-5e-07 -0.022703 -0.083679667)
(-5e-07 -0.022703 -0.08368)
(-5e-07 -0.0227025 -0.083679667)
(9.880491e-18 -0.022703 -0.083679667)
(1.6913156e-17 -0.0239205 -0.083619667)
(5e-07 -0.0239205 -0.083619667)
(5e-07 -0.023921 -0.083618667)
(2.9857735e-17 -0.0239205 -0.083618667)
(-4.532977e-18 -0.0239205 -0.083618667)
(-5e-07 -0.023921 -0.083618667)
(-5e-07 -0.0239205 -0.08362)
(1.0152722e-17 -0.0239205 -0.083618667)
(-5e-07 -0.0239205 -0.083618667)
(-3.3333333e-07 -0.0239205 -0.08362)
(-7.2710934e-18 -0.025149 -0.083540667)
(-6.7787211e-18 -0.0251485 -0.083540667)
(5e-07 -0.025149 -0.083540667)
(5e-07 -0.025149 -0.083539667)
(-5e-07 -0.025149 -0.083539667)
(-5e-07 -0.025149 -0.083540667)
(1.5502302e-17 -0.025149 -0.083541)
(-5e-07 -0.025149 -0.083539667)
(-5e-07 -0.0251495 -0.083540667)
(1.4720574e-17 -0.025149 -0.083541)
(3.3333333e-07 -0.026386 -0.083438333)
(5e-07 -0.026386 -0.083437333)
(-2.279629e-17 -0.026386 -0.083438333)
(4.6577506e-18 -0.0263865 -0.083438333)
(2.7510754e-17 -0.0263865 -0.083438333)
(-5e-07 -0.026386 -0.083438333)
(-5e-07 -0.026386 -0.083438333)
(-5e-07 -0.0263865 -0.083438333)
(-5e-07 -0.026386 -0.083439667)
(-5.3776428e-19 -0.026386 -0.083438333)
(-3.0106608e-18 -0.0276295 -0.083305333)
(-4.6510828e-18 -0.02763 -0.083305333)
(0 -0.0276295 -0.083305)
(2.8008375e-17 -0.0276295 -0.083306333)
(2.8312088e-17 -0.0276295 -0.083306333)
(-5.6939208e-17 -0.0276295 -0.083306667)
(-5e-07 -0.0276295 -0.083305333)
(-5e-07 -0.0276295 -0.083306333)
(-4.3807912e-18 -0.0276295 -0.083305333)
(-2.2895941e-18 -0.0276295 -0.083305333)
(1.3692341e-17 -0.028875 -0.083131333)
(5e-07 -0.028875 -0.083132667)
(5e-07 -0.0288745 -0.083131667)
(-4.1914714e-18 -0.0288745 -0.083131667)
(5.9259979e-17 -0.0288745 -0.083131667)
(-5e-07 -0.0288745 -0.083131667)
(-5e-07 -0.028875 -0.083131333)
(-5e-07 -0.0288745 -0.083131667)
(-5e-07 -0.0288745 -0.083132667)
(-3.4833488e-18 -0.0288745 -0.083131333)
(-2.0644727e-17 -0.0301115 -0.082898)
(5e-07 -0.0301115 -0.082898)
(5e-07 -0.030112 -0.082896667)
(4.1605174e-18 -0.030112 -0.082898)
(-4.7942119e-17 -0.030112 -0.082898)
(-5e-07 -0.030112 -0.082898333)
(-5e-07 -0.0301115 -0.082898)
(2.6649689e-19 -0.0301115 -0.082898)
(-1.3346529e-19 -0.0301115 -0.082896667)
(-1.6699894e-17 -0.0301115 -0.082897)
(-2.0694323e-17 -0.0313145 -0.082567667)
(-3.1509391e-17 -0.0313145 -0.082567667)
(-8.8672559e-18 -0.031315 -0.082567333)
(-8.8035048e-18 -0.031315 -0.082567333)
(6.338105e-17 -0.031315 -0.082567667)
(-1.2750218e-19 -0.031315 -0.082567667)
(-3.6198077e-17 -0.0313145 -0.082567667)
(-5e-07 -0.0313145 -0.082566333)
(-5e-07 -0.031315 -0.082567333)
(-7.2940496e-17 -0.031315 -0.082567333)
(-2.4807437e-17 -0.0323975 -0.082054333)
(-6.4882597e-17 -0.0323975 -0.082054333)
(6.0756178e-17 -0.0323975 -0.082055667)
(6.0523707e-17 -0.0323975 -0.082055667)
(-2.8180773e-17 -0.0323975 -0.082055667)
(-6.0631007e-17 -0.0323975 -0.082054333)
(6.0989571e-17 -0.032398 -0.082054333)
(-5e-07 -0.032398 -0.082054333)
(-5e-07 -0.0323975 -0.082055333)
(-2.1699054e-17 -0.0323975 -0.082055333)
(4.7608522e-20 -0.010964 -0.081117667)
(9.5097541e-18 -0.010964 -0.081117667)
(1.3942858e-17 -0.010964 -0.081117667)
(2.3595853e-18 -0.010964 -0.081117667)
(-4.3884709e-18 -0.010964 -0.081117667)
(-5e-07 -0.010964 -0.081117667)
(-5e-07 -0.010964333 -0.081117333)
(1.4265065e-17 -0.010964333 -0.081117333)
(-4.8262898e-18 -0.010964 -0.081117667)
(-3.4558462e-18 -0.010964 -0.081117667)
(-5.7621852e-18 -0.00034966667 -0.0825175)
(-9.0982632e-18 -0.00034966667 -0.082518)
(-8.6813514e-18 -0.00034966667 -0.082518)
(-8.5675101e-18 -0.00034966667 -0.082518)
(-5e-07 -0.00034966667 -0.082518)
(-5e-07 -0.00034933333 -0.082518)
(-9.7428034e-18 -0.00034966667 -0.0825185)
(8.0368112e-18 -0.00034966667 -0.0825185)
(6.8239685e-19 -0.00034966667 -0.0825185)
(-1.1726707e-17 -0.00034966667 -0.0825185)
(-1.5193286e-19 -0.001574 -0.0825185)
(-8.9464569e-18 -0.001574 -0.0825185)
(1.812103e-17 -0.001574 -0.0825185)
(7.5814463e-18 -0.001574 -0.0825185)
(-1.9315495e-17 -0.001574 -0.0825185)
(-5e-07 -0.0015735 -0.0825185)
(-5e-07 -0.0015735 -0.0825185)
(-1.6528228e-17 -0.001574 -0.0825185)
(-3.416321e-19 -0.001574 -0.0825185)
(-5.8126608e-18 -0.001574 -0.0825185)
(4.5988604e-18 -0.0026245 -0.0825195)
(3.8237642e-18 -0.0026245 -0.082519)
(-4.7806811e-18 -0.0026245 -0.082519)
(6.5563874e-18 -0.0026245 -0.082519)
(9.0037569e-18 -0.0026245 -0.0825195)
(-8.9467821e-18 -0.002625 -0.0825195)
(-5e-07 -0.0026245 -0.0825195)
(-5e-07 -0.0026245 -0.082519)
(7.1261898e-18 -0.002625 -0.0825195)
(-1.6699605e-18 -0.002625 -0.0825195)
(7.7860172e-18 -0.0036775 -0.08252)
(8.9468363e-18 -0.0036775 -0.08252)
(1.4818442e-17 -0.0036775 -0.08252)
(1.4646758e-17 -0.0036775 -0.08252)
(-5e-07 -0.0036775 -0.0825205)
(-5e-07 -0.0036775 -0.0825205)
(-1.4589241e-17 -0.003678 -0.0825205)
(-5e-07 -0.0036775 -0.08252)
(-5e-07 -0.0036775 -0.0825205)
(-1.7741848e-17 -0.0036775 -0.0825205)
(3.2275253e-18 -0.004734 -0.082521)
(-9.4473423e-33 -0.004734 -0.0825215)
(-9.7970677e-18 -0.0047335 -0.082521)
(-4.6121418e-18 -0.0047335 -0.0825215)
(1.8744283e-17 -0.0047335 -0.0825215)
(-5e-07 -0.0047335 -0.0825215)
(-5e-07 -0.0047335 -0.0825215)
(5.0653925e-19 -0.0047335 -0.082521)
(1.4017541e-17 -0.0047335 -0.0825215)
(8.2427916e-18 -0.0047335 -0.0825215)
(1.5352303e-19 -0.0057935 -0.082522)
(5e-07 -0.0057935 -0.0825225)
(5e-07 -0.0057935 -0.0825225)
(8.9465653e-18 -0.0057935 -0.0825225)
(-5e-07 -0.0057935 -0.0825225)
(-5e-07 -0.0057935 -0.0825225)
(-3.6922505e-18 -0.005793 -0.0825225)
(-5e-07 -0.0057935 -0.0825225)
(-5e-07 -0.0057935 -0.0825225)
(-9.1615084e-18 -0.0057935 -0.082522)
(-3.8111875e-18 -0.006858 -0.082523)
(-8.6736174e-22 -0.006858 -0.082523)
(8.6001627e-18 -0.0068585 -0.0825235)
(-4.4178927e-33 -0.0068585 -0.0825235)
(-2.9694942e-18 -0.0068585 -0.0825235)
(5.4210109e-23 -0.006858 -0.0825235)
(-5e-07 -0.006858 -0.0825235)
(-5e-07 -0.0068585 -0.0825235)
(-8.7158471e-18 -0.006858 -0.0825235)
(-3.0878078e-19 -0.006858 -0.082523)
(1.40668e-17 -0.0079285 -0.0825235)
(3.4900468e-19 -0.0079285 -0.0825235)
(-2.0983866e-17 -0.0079285 -0.0825235)
(3.4966062e-18 -0.0079285 -0.0825235)
(8.9763537e-18 -0.0079285 -0.082524)
(5.4506096e-18 -0.0079285 -0.0825235)
(-5e-07 -0.0079285 -0.082524)
(-5e-07 -0.0079285 -0.0825235)
(9.2962205e-18 -0.0079285 -0.0825235)
(8.1019899e-18 -0.0079285 -0.0825235)
(9.4821431e-18 -0.009005 -0.082523)
(9.9666369e-18 -0.009005 -0.082523)
(-5.1589592e-18 -0.009005 -0.082523)
(-1.0780222e-18 -0.009005 -0.082523)
(-1.2911032e-17 -0.009005 -0.0825235)
(-1.2852566e-17 -0.009005 -0.0825235)
(-5e-07 -0.009005 -0.0825235)
(-5e-07 -0.009005 -0.082523)
(-9.1813493e-18 -0.009005 -0.082523)
(3.0493186e-18 -0.009005 -0.0825235)
(6.0955292e-18 -0.010089 -0.082522)
(9.1432938e-18 -0.010089 -0.082522)
(4.8469258e-18 -0.0100885 -0.082522)
(4.3164257e-18 -0.010089 -0.082522)
(-1.7668403e-17 -0.010089 -0.0825225)
(-1.7668403e-17 -0.010089 -0.0825225)
(-5e-07 -0.010089 -0.082522)
(-5e-07 -0.0100885 -0.082522)
(-2.6409105e-17 -0.010089 -0.0825225)
(-1.2112743e-17 -0.010089 -0.0825225)
(6.123104e-18 -0.0111805 -0.0825195)
(5e-07 -0.0111805 -0.0825195)
(-4.0984401e-18 -0.0111805 -0.0825195)
(-5e-07 -0.0111805 -0.0825195)
(-4.878449e-18 -0.0111805 -0.0825195)
(-4.8487419e-18 -0.0111805 -0.08252)
(-9.0656649e-18 -0.0111805 -0.08252)
(-5e-07 -0.0111805 -0.0825195)
(-5e-07 -0.0111805 -0.0825195)
(-3.3908062e-18 -0.0111805 -0.0825195)
(1.1609059e-17 -0.0122805 -0.082515)
(1.5109984e-17 -0.0122805 -0.0825155)
(-1.1980434e-19 -0.012281 -0.0825155)
(2.4832024e-18 -0.0122805 -0.0825155)
(-6.2834395e-18 -0.0122805 -0.0825155)
(-6.2834124e-18 -0.0122805 -0.082515)
(-5e-07 -0.012281 -0.082515)
(-5e-07 -0.012281 -0.0825155)
(-1.8012393e-17 -0.0122805 -0.082515)
(-1.6117316e-17 -0.0122805 -0.082515)
(2.0967024e-18 -0.01339 -0.082508)
(2.7827133e-18 -0.01339 -0.0825085)
(-1.2078012e-19 -0.01339 -0.0825085)
(2.9638293e-18 -0.01339 -0.0825085)
(-8.9154487e-18 -0.01339 -0.082509)
(-5e-07 -0.0133905 -0.0825085)
(-5e-07 -0.0133905 -0.0825085)
(8.824701e-18 -0.01339 -0.0825085)
(9.0669117e-18 -0.0133905 -0.0825085)
(1.608956e-19 -0.0133905 -0.0825085)
(-5.9627144e-18 -0.0145095 -0.0824985)
(-5.7978253e-18 -0.0145095 -0.0824985)
(-4.2249732e-18 -0.0145095 -0.082499)
(7.3105042e-18 -0.0145095 -0.082499)
(-5e-07 -0.0145095 -0.082499)
(-5e-07 -0.0145095 -0.0824985)
(1.6255118e-17 -0.014509 -0.082499)
(-5e-07 -0.0145095 -0.0824985)
(-5e-07 -0.0145095 -0.0824985)
(8.8163707e-19 -0.0145095 -0.082499)
(-5.3968693e-18 -0.015639 -0.0824855)
(-8.3413094e-18 -0.015639 -0.0824855)
(-8.218144e-18 -0.015639 -0.0824855)
(-8.1568324e-18 -0.015639 -0.0824855)
(-8.1708186e-19 -0.015639 -0.0824855)
(-1.1030134e-33 -0.015639 -0.0824855)
(-5e-07 -0.015639 -0.0824855)
(-5e-07 -0.015639 -0.0824855)
(-2.5981658e-17 -0.015639 -0.082486)
(-5.0693318e-18 -0.015639 -0.082486)
(-5.3543505e-18 -0.0167795 -0.0824675)
(-1.8130679e-17 -0.016779 -0.0824675)
(-1.8667522e-17 -0.016779 -0.0824675)
(-1.9433782e-18 -0.016779 -0.0824675)
(-5e-07 -0.016779 -0.0824675)
(-5e-07 -0.0167795 -0.082468)
(8.8790737e-18 -0.0167795 -0.082468)
(-5e-07 -0.016779 -0.0824675)
(-5e-07 -0.0167795 -0.082468)
(-1.2527866e-17 -0.0167795 -0.082468)
(3.3333333e-07 -0.0179305 -0.0824445)
(5e-07 -0.0179305 -0.082444)
(-2.1765359e-17 -0.0179305 -0.082444)
(-1.2826545e-17 -0.0179305 -0.082444)
(-5e-07 -0.0179305 -0.0824445)
(-5e-07 -0.01793 -0.0824445)
(1.540744e-33 -0.0179305 -0.0824445)
(-5e-07 -0.0179305 -0.0824445)
(-5e-07 -0.01793 -0.0824445)
(-1.6725626e-19 -0.01793 -0.0824445)
(-2.5918937e-18 -0.0190925 -0.0824145)
(-4.2665524e-18 -0.0190925 -0.0824145)
(-4.2667692e-18 -0.019093 -0.0824145)
(-4.2666066e-18 -0.0190925 -0.082415)
(-4.8586081e-18 -0.019093 -0.0824145)
(-5e-07 -0.0190925 -0.0824145)
(-5e-07 -0.0190925 -0.082415)
(9.0618702e-18 -0.0190925 -0.082415)
(4.7958057e-18 -0.0190925 -0.0824145)
(-1.6812362e-19 -0.0190925 -0.082415)
(3.3333333e-07 -0.020266 -0.0823775)
(2.6935648e-22 -0.0202655 -0.0823775)
(2.5495692e-22 -0.0202655 -0.0823775)
(4.4729362e-18 -0.0202655 -0.0823775)
(-5e-07 -0.0202655 -0.0823775)
(-3.1956859e-20 -0.020266 -0.0823775)
(-4.6009203e-18 -0.0202655 -0.0823775)
(-5e-07 -0.0202655 -0.0823775)
(-5e-07 -0.020266 -0.0823775)
(2.7592222e-18 -0.020266 -0.0823775)
(3.3333333e-07 -0.021449 -0.0823305)
(5e-07 -0.0214495 -0.0823305)
(-9.3016957e-18 -0.021449 -0.0823305)
(8.8622686e-18 -0.0214495 -0.0823305)
(-5e-07 -0.021449 -0.082331)
(-5e-07 -0.021449 -0.0823305)
(-9.0552023e-18 -0.021449 -0.0823305)
(-5e-07 -0.0214495 -0.082331)
(-5e-07 -0.021449 -0.0823305)
(-4.370419e-19 -0.021449 -0.0823305)
(1.8785971e-17 -0.022642 -0.0822725)
(1.8480063e-17 -0.0226425 -0.0822725)
(1.3042952e-19 -0.0226425 -0.0822725)
(8.7254422e-18 -0.0226425 -0.0822725)
(-2.8559349e-17 -0.0226425 -0.082273)
(-2.8623805e-17 -0.022642 -0.082273)
(-5e-07 -0.0226425 -0.0822725)
(-5e-07 -0.0226425 -0.082273)
(7.6951249e-19 -0.022642 -0.0822725)
(2.506679e-17 -0.0226425 -0.0822725)
(3.1438321e-17 -0.023844 -0.082201)
(5.8020158e-17 -0.023844 -0.0822005)
(-1.8860673e-17 -0.023844 -0.082201)
(-2.9659001e-17 -0.023844 -0.082201)
(2.0648685e-17 -0.023844 -0.082201)
(-5e-07 -0.023844 -0.0822015)
(-5e-07 -0.0238445 -0.082201)
(-2.8557452e-17 -0.023844 -0.082201)
(-5e-07 -0.023844 -0.0822015)
(-3.3333333e-07 -0.0238445 -0.082201)
(7.0681308e-18 -0.025053 -0.082113)
(1.6994869e-18 -0.025053 -0.082113)
(-2.1992065e-17 -0.0250525 -0.082113)
(-1.2958113e-17 -0.0250525 -0.0821135)
(-1.5876325e-17 -0.0250525 -0.0821135)
(-5e-07 -0.0250525 -0.082113)
(-5e-07 -0.0250525 -0.082113)
(9.1653573e-18 -0.0250525 -0.0821135)
(-5e-07 -0.025053 -0.082113)
(-3.3333333e-07 -0.0250525 -0.082113)
(-5.9272971e-18 -0.026265 -0.0820045)
(5e-07 -0.026265 -0.082005)
(5e-07 -0.0262645 -0.082005)
(-8.8251888e-18 -0.0262645 -0.082005)
(1.7847784e-17 -0.0262645 -0.082005)
(-5e-07 -0.026265 -0.082005)
(-5e-07 -0.0262645 -0.082005)
(-5e-07 -0.0262645 -0.082005)
(-5e-07 -0.026265 -0.0820045)
(-2.1465396e-17 -0.0262645 -0.082005)
(5.7429105e-18 -0.027475 -0.0818715)
(5e-07 -0.027475 -0.0818715)
(5e-07 -0.0274755 -0.0818715)
(8.6141489e-18 -0.0274755 -0.0818715)
(-5e-07 -0.0274755 -0.0818715)
(-5e-07 -0.0274755 -0.0818715)
(3.2903693e-17 -0.027475 -0.0818715)
(-5e-07 -0.0274755 -0.0818715)
(-5e-07 -0.027475 -0.0818715)
(-3.3465888e-17 -0.027475 -0.0818715)
(1.6754248e-17 -0.028676 -0.0817055)
(1.7717056e-17 -0.028676 -0.0817055)
(-2.5001485e-17 -0.028676 -0.081706)
(-1.7393964e-17 -0.028676 -0.081706)
(3.3892648e-17 -0.028676 -0.081706)
(1.462851e-32 -0.028676 -0.081706)
(-5e-07 -0.028676 -0.081706)
(-5e-07 -0.028676 -0.081706)
(1.5884158e-17 -0.0286755 -0.0817055)
(-3.481637e-17 -0.028676 -0.0817055)
(-1.7429056e-17 -0.029852 -0.081499)
(5e-07 -0.029852 -0.081499)
(5e-07 -0.0298515 -0.081499)
(5.1658439e-17 -0.0298515 -0.0814995)
(-5e-07 -0.029852 -0.0814995)
(-5e-07 -0.029852 -0.0814995)
(-6.0558329e-17 -0.029852 -0.081499)
(-8.4592706e-18 -0.0298515 -0.081499)
(-5e-07 -0.0298515 -0.081499)
(-3.3333333e-07 -0.0298515 -0.0814995)
(2.4251904e-17 -0.030973 -0.0812405)
(5e-07 -0.030973 -0.0812405)
(5e-07 -0.0309735 -0.0812405)
(-5e-07 -0.0309735 -0.0812405)
(-5e-07 -0.0309735 -0.0812405)
(-5.8763758e-20 -0.030973 -0.0812405)
(-6.2714048e-17 -0.030973 -0.081241)
(-2.3505503e-19 -0.030973 -0.081241)
(-5.3611954e-17 -0.030973 -0.0812405)
(-7.7824357e-17 -0.0309725 -0.0812405)
(-3.7257379e-17 -0.0319825 -0.080927)
(-9.199553e-17 -0.0319825 -0.080927)
(4.5288859e-17 -0.031983 -0.080927)
(6.4306525e-17 -0.031983 -0.080927)
(-1.7598932e-17 -0.0319825 -0.080927)
(1.7598959e-17 -0.0319825 -0.080927)
(-6.4153598e-17 -0.0319825 -0.0809275)
(-4.4984632e-17 -0.0319825 -0.0809275)
(5.5582492e-17 -0.031983 -0.080927)
(1.277978e-17 -0.031983 -0.080927)
(-6.3542439e-18 -0.010816667 -0.0806085)
(6.4237172e-19 -0.010816667 -0.0806085)
(2.2737834e-17 -0.010816667 -0.0806085)
(2.4201922e-18 -0.010816667 -0.0806085)
(-2.8052566e-17 -0.010816667 -0.0806085)
(8.7582665e-18 -0.010816667 -0.0806085)
(2.4515546e-17 -0.010816667 -0.080608)
(-5e-07 -0.010816667 -0.080608)
(-5e-07 -0.010817 -0.0806085)
(9.960204e-20 -0.010817 -0.0806085)
(-1.5164374e-19 -0.00034966667 -0.0814695)
(1.7817526e-17 -0.00034966667 -0.0814695)
(1.7855436e-17 -0.00034966667 -0.0814695)
(-3.4952654e-17 -0.00034966667 -0.0814695)
(-5.591592e-19 -0.00034966667 -0.08147)
(-5e-07 -0.00034966667 -0.0814695)
(-5e-07 -0.00034933333 -0.0814695)
(1.5164374e-19 -0.00034966667 -0.0814695)
(-1.7135129e-17 -0.00034966667 -0.0814695)
(-1.1625611e-17 -0.00034966667 -0.0814695)
(-9.1015158e-19 -0.001574 -0.081469)
(1.8121138e-17 -0.0015735 -0.081469)
(1.8007297e-17 -0.0015735 -0.081469)
(-3.5331547e-17 -0.0015735 -0.081469)
(-3.40517e-17 -0.001574 -0.081469)
(3.3966536e-17 -0.001574 -0.0814695)
(-5e-07 -0.0015735 -0.081469)
(-5e-07 -0.0015735 -0.081469)
(-1.8007297e-17 -0.001574 -0.081469)
(1.0619399e-18 -0.001574 -0.081469)
(3.3333333e-07 -0.0026245 -0.081468)
(5e-07 -0.002624 -0.081468)
(1.3113642e-17 -0.002624 -0.081468)
(-5e-07 -0.002624 -0.081468)
(-5e-07 -0.0026245 -0.081468)
(0 -0.0026245 -0.081468)
(2.2194161e-18 -0.0026245 -0.0814685)
(-5e-07 -0.002624 -0.081468)
(-5e-07 -0.0026245 -0.081468)
(-1.1928971e-17 -0.0026245 -0.081468)
(3.3333333e-07 -0.003677 -0.0814665)
(5e-07 -0.0036775 -0.0814665)
(3.3034556e-18 -0.003677 -0.0814665)
(-5e-07 -0.0036775 -0.0814665)
(-5e-07 -0.003677 -0.0814665)
(3.8519752e-17 -0.003677 -0.0814665)
(1.7722423e-17 -0.003677 -0.0814665)
(-5e-07 -0.003677 -0.0814665)
(-5e-07 -0.003677 -0.081466)
(3.0473309e-19 -0.003677 -0.081466)
(2.8912058e-22 -0.0047325 -0.081464)
(5e-07 -0.004733 -0.081464)
(1.7663757e-17 -0.004733 -0.081464)
(-5e-07 -0.004733 -0.081464)
(8.6004337e-20 -0.0047325 -0.081464)
(0 -0.0047325 -0.0814645)
(-9.6269021e-18 -0.0047325 -0.081464)
(-5e-07 -0.004733 -0.081464)
(-5e-07 -0.0047325 -0.081464)
(-1.8538122e-17 -0.0047325 -0.081464)
(1.1929766e-17 -0.005792 -0.0814605)
(1.7433863e-17 -0.005792 -0.0814605)
(-1.240967e-17 -0.0057925 -0.081461)
(-1.772161e-17 -0.005792 -0.081461)
(-5.0813303e-18 -0.005792 -0.081461)
(1.7664039e-17 -0.005792 -0.081461)
(-5e-07 -0.005792 -0.081461)
(-5e-07 -0.0057925 -0.081461)
(-2.3028454e-19 -0.005792 -0.0814605)
(1.2083144e-17 -0.005792 -0.0814605)
(1.1775375e-17 -0.006856 -0.0814565)
(3.4979073e-17 -0.006856 -0.0814565)
(1.7432019e-17 -0.006856 -0.0814565)
(-1.7836373e-17 -0.006856 -0.0814565)
(-1.7720905e-17 -0.006856 -0.0814565)
(1.7720959e-17 -0.006856 -0.081457)
(-5e-07 -0.0068565 -0.081457)
(-5e-07 -0.006856 -0.0814565)
(1.1716431e-17 -0.006856 -0.0814565)
(-3.9644214e-18 -0.006856 -0.0814565)
(-1.2084517e-17 -0.007925 -0.081451)
(-1.4108723e-17 -0.007925 -0.081451)
(2.1331244e-17 -0.007925 -0.081451)
(1.4399289e-17 -0.007925 -0.081451)
(-3.408054e-18 -0.0079255 -0.081451)
(-5e-07 -0.0079255 -0.0814515)
(-5e-07 -0.0079255 -0.0814515)
(1.3992496e-17 -0.007925 -0.081451)
(-3.2044679e-18 -0.007925 -0.081451)
(-2.0948087e-17 -0.0079255 -0.081451)
(1.2085818e-17 -0.0090005 -0.081444)
(3.5320596e-17 -0.0090005 -0.081444)
(1.7309505e-17 -0.0090005 -0.081444)
(-5e-07 -0.0090005 -0.0814445)
(-5e-07 -0.009001 -0.0814445)
(-3.9328079e-18 -0.009001 -0.0814445)
(0 -0.0090005 -0.0814445)
(-2.7279936e-17 -0.0090005 -0.081444)
(-5e-07 -0.009001 -0.0814445)
(-3.3333333e-07 -0.009001 -0.0814445)
(-1.5742616e-19 -0.010083 -0.0814355)
(1.7776145e-17 -0.010083 -0.0814355)
(1.7658726e-17 -0.010083 -0.0814355)
(-5e-07 -0.010083 -0.0814355)
(-5e-07 -0.0100825 -0.081436)
(-4.4296389e-32 -0.010083 -0.081436)
(1.7661653e-19 -0.010083 -0.081436)
(-5e-07 -0.010083 -0.0814355)
(-5e-07 -0.010083 -0.0814355)
(-1.1772412e-17 -0.010083 -0.081436)
(5.7851582e-18 -0.011173 -0.081425)
(1.2810716e-17 -0.011173 -0.081425)
(-7.9653081e-18 -0.011173 -0.0814255)
(-1.2810174e-17 -0.011173 -0.081425)
(-5e-07 -0.0111725 -0.081425)
(-5e-07 -0.0111725 -0.081425)
(-1.2751519e-17 -0.0111725 -0.081425)
(-3.0467382e-17 -0.011173 -0.0814255)
(-5e-07 -0.0111725 -0.081425)
(-3.3333333e-07 -0.0111725 -0.081425)
(1.3384187e-17 -0.0122705 -0.081412)
(1.7772784e-17 -0.0122705 -0.081412)
(-1.4992456e-17 -0.0122705 -0.081412)
(-1.2570674e-17 -0.0122705 -0.081412)
(-2.986977e-20 -0.012271 -0.081412)
(-2.7105054e-23 -0.0122705 -0.081412)
(-5e-07 -0.0122705 -0.0814125)
(-5e-07 -0.0122705 -0.081412)
(-1.4873085e-17 -0.012271 -0.081412)
(0 -0.0122705 -0.081412)
(-1.3539372e-17 -0.013377 -0.081396)
(-1.7529814e-17 -0.013377 -0.081396)
(2.0791528e-17 -0.013377 -0.081396)
(-5e-07 -0.013377 -0.081396)
(-5e-07 -0.013377 -0.081396)
(-1.6884148e-34 -0.013377 -0.0813965)
(-6.0227431e-20 -0.0133775 -0.081396)
(-5e-07 -0.013377 -0.081396)
(-5e-07 -0.013377 -0.081396)
(-9.8328463e-18 -0.0133775 -0.0813965)
(-1.2649314e-17 -0.014493 -0.0813765)
(3.7503637e-18 -0.014493 -0.0813765)
(4.7140026e-18 -0.014493 -0.0813765)
(-1.7585109e-17 -0.014493 -0.081377)
(3.3659599e-17 -0.0144925 -0.081377)
(-5e-07 -0.0144925 -0.0813765)
(-5e-07 -0.014493 -0.0813765)
(-3.5048787e-17 -0.014493 -0.081377)
(-5e-07 -0.014493 -0.0813765)
(-3.3333333e-07 -0.014493 -0.0813765)
(-1.2161496e-17 -0.015618 -0.081353)
(2.4502969e-19 -0.015618 -0.081353)
(8.4665348e-19 -0.015618 -0.081353)
(-1.764062e-17 -0.015618 -0.081353)
(-1.7579362e-17 -0.015618 -0.081353)
(-5e-07 -0.0156185 -0.0813535)
(-5e-07 -0.015618 -0.0813535)
(-5e-07 -0.015618 -0.081353)
(-5e-07 -0.0156185 -0.0813535)
(1.1760341e-17 -0.015618 -0.0813535)
(-1.1315836e-17 -0.0167535 -0.081325)
(-1.8666329e-17 -0.016753 -0.081325)
(-1.8419131e-17 -0.016753 -0.081325)
(9.6998147e-19 -0.016753 -0.081325)
(-5e-07 -0.0167535 -0.081325)
(-5e-07 -0.0167535 -0.081325)
(-8.4638243e-19 -0.016753 -0.081325)
(-5e-07 -0.0167535 -0.081325)
(-5e-07 -0.016753 -0.081325)
(-2.4447783e-17 -0.016753 -0.081325)
(3.3333333e-07 -0.0178985 -0.081291)
(5e-07 -0.0178985 -0.0812915)
(-1.9405593e-18 -0.0178985 -0.0812915)
(-5e-07 -0.0178985 -0.0812915)
(-5e-07 -0.0178985 -0.0812915)
(1.953651e-17 -0.017898 -0.081291)
(-5e-07 -0.0178985 -0.0812915)
(-5e-07 -0.0178985 -0.0812915)
(-1.5561987e-17 -0.017898 -0.081291)
(1.6638889e-19 -0.0178985 -0.0812915)
(1.4164379e-17 -0.0190535 -0.081251)
(-1.7870037e-17 -0.019054 -0.081251)
(-2.1624412e-17 -0.019054 -0.081251)
(1.7618665e-17 -0.019054 -0.0812515)
(1.0842022e-22 -0.0190535 -0.0812515)
(-5e-07 -0.0190535 -0.0812515)
(-5e-07 -0.0190535 -0.081251)
(-2.1684043e-22 -0.0190535 -0.0812515)
(-5e-07 -0.0190535 -0.0812515)
(-3.3333333e-07 -0.0190535 -0.0812515)
(1.4830585e-17 -0.0202185 -0.0812035)
(1.7608311e-17 -0.0202185 -0.081204)
(8.8398256e-18 -0.0202185 -0.0812035)
(-4.3207083e-18 -0.0202185 -0.081204)
(-1.3192328e-17 -0.0202185 -0.0812035)
(4.3525025e-18 -0.0202185 -0.0812035)
(-5e-07 -0.020218 -0.081204)
(-5e-07 -0.0202185 -0.081204)
(-1.7988432e-17 -0.0202185 -0.0812035)
(1.4999648e-17 -0.020218 -0.0812035)
(5.6741359e-18 -0.021392 -0.0811475)
(1.7851606e-17 -0.021392 -0.081148)
(8.3189748e-18 -0.0213915 -0.081148)
(-2.6809338e-17 -0.0213915 -0.081148)
(1.1654509e-32 -0.021392 -0.081148)
(2.6873387e-17 -0.021392 -0.0811475)
(-5e-07 -0.021392 -0.0811475)
(-5e-07 -0.021392 -0.081148)
(-1.7340296e-17 -0.021392 -0.0811475)
(-2.9476421e-17 -0.021392 -0.0811475)
(-1.1721165e-17 -0.0225735 -0.0810815)
(5e-07 -0.022573 -0.081081)
(5e-07 -0.022573 -0.081081)
(-5e-07 -0.022573 -0.081081)
(-5e-07 -0.022573 -0.081081)
(9.7254561e-18 -0.0225735 -0.0810815)
(-5e-07 -0.0225735 -0.0810815)
(-5e-07 -0.022573 -0.081081)
(-1.5841061e-17 -0.0225735 -0.0810815)
(6.6977673e-18 -0.0225735 -0.0810815)
(3.3333333e-07 -0.023761 -0.0810035)
(5e-07 -0.023761 -0.0810035)
(7.3890546e-18 -0.0237615 -0.0810035)
(7.4535105e-18 -0.0237615 -0.0810035)
(-5e-07 -0.023761 -0.0810035)