/*--------------------------------*- C++ -*----------------------------------*\
| =========                 |                                                 |
| \\      /  F ield         | OpenFOAM: The Open Source CFD Toolbox           |
|  \\    /   O peration     | Version:  v2106                                 |
|   \\  /    A nd           | Website:  www.openfoam.com                      |
|    \\/     M anipulation  |                                                 |
\*---------------------------------------------------------------------------*/
FoamFile
{
    version     2.0;
    format      ascii;
    arch        "LSB;label=32;scalar=64";
    class       volVectorField;
    location    "0";
    object      gradTmode3;
}
// * * * * * * * * * * * * * * * * * * * * * * * * * * * * * * * * * * * * * //

dimensions      [0 -1 0 1 0 0 0];

internalField   nonuniform List<vector> 
2000
(
(0.060399333 0.060399333 -14.813017)
(0.76986 0.29098033 -15.05811)
(1.216386 0.19606833 -15.018089)
(0.7657285 0.065394667 -14.745495)
(0.52644 0.0066493333 -14.609938)
(0.7097165 0.0042413333 -14.367247)
(0.4428785 -0.037750667 -14.040235)
(-0.2064365 -0.036111 -14.119454)
(-0.457774 -0.10247467 -13.97712)
(-0.14689267 -0.084891 -13.818419)
(0.29098033 0.76986 -15.05811)
(0.9733635 0.9733635 -14.738142)
(0.8780075 0.749824 -14.782337)
(0.4816 0.409501 -14.834726)
(0.43471 0.320126 -14.793832)
(0.6431165 0.3881665 -14.696215)
(0.38235 0.237628 -14.624112)
(-0.3035225 0.202012 -14.586499)
(-0.530944 0.006317 -14.531674)
(-0.129309 -0.075363 -14.408224)
(0.19606833 1.216386 -15.018089)
(0.749824 0.8780075 -14.782337)
(0.6525235 0.6525235 -14.81034)
(0.3360305 0.3313235 -14.900048)
(0.5051055 0.2981675 -14.694543)
(0.6272185 0.3228455 -14.466374)
(0.256724 0.3234155 -14.749362)
(-0.4377475 0.244579 -14.783554)
(-0.735149 0.1098855 -14.71564)
(-0.201346 -0.0529925 -14.67575)
(0.065394667 0.765729 -14.745495)
(0.409501 0.4816005 -14.834726)
(0.3313235 0.3360305 -14.900048)
(0.127244 0.127244 -14.997684)
(0.426232 -0.1143215 -14.679631)
(0.6683645 -0.3737655 -14.474753)
(0.3040835 -0.3927575 -14.593955)
(-0.5170525 -0.476965 -14.674333)
(-0.8285155 -0.325383 -14.675991)
(-0.23789433 -0.2239765 -14.681003)
(0.0066493333 0.5264405 -14.609937)
(0.3201255 0.43471 -14.793831)
(0.298167 0.5051055 -14.694543)
(-0.1143215 0.426232 -14.679631)
(0.004096 0.004096 -14.430467)
(0.3487825 -0.430008 -14.409664)
(0.1535245 -0.5728305 -14.606464)
(-0.370373 -0.581984 -14.805564)
(-0.4821605 -0.408487 -14.457336)
(-0.13374167 -0.293938 -14.172886)
(0.004241 0.709716 -14.367246)
(0.388166 0.643116 -14.696215)
(0.3228455 0.6272185 -14.466374)
(-0.3737655 0.6683645 -14.474753)
(-0.430008 0.3487825 -14.409664)
(0.091438 0.091438 -14.472284)
(0.1521075 0.0923725 -14.424504)
(-0.352709 0.0137455 -14.505644)
(-0.5404695 -0.2103425 -14.236209)
(-0.16152833 -0.342263 -14.036738)
(-0.037750667 0.442878 -14.040236)
(0.237628 0.38235 -14.624112)
(0.3234155 0.256724 -14.749362)
(-0.3927575 0.3040835 -14.593955)
(-0.5728305 0.153525 -14.606464)
(0.0923725 0.1521075 -14.424504)
(0.075832 0.075832 -14.122036)
(-0.673088 -0.1585715 -14.203643)
(-0.838169 -0.409656 -14.122526)
(-0.22168867 -0.4770955 -14.17897)
(-0.036111 -0.2064365 -14.119454)
(0.202012 -0.3035225 -14.586499)
(0.244579 -0.4377475 -14.783554)
(-0.4769645 -0.5170525 -14.674333)
(-0.581984 -0.3703725 -14.805563)
(0.013745 -0.352709 -14.505644)
(-0.1585715 -0.673088 -14.203643)
(-0.838197 -0.838197 -14.16781)
(-0.8589935 -0.9419135 -13.989694)
(-0.206488 -0.8949985 -13.913904)
(-0.10247467 -0.4577735 -13.97712)
(0.006317 -0.530944 -14.531674)
(0.1098855 -0.7351485 -14.715641)
(-0.3253825 -0.8285155 -14.675991)
(-0.408487 -0.482161 -14.457335)
(-0.210343 -0.5404695 -14.236209)
(-0.409656 -0.838169 -14.122526)
(-0.9419135 -0.8589935 -13.989694)
(-0.8949705 -0.8949705 -14.00791)
(-0.190412 -0.9162285 -13.855462)
(-0.084891333 -0.14689233 -13.818419)
(-0.075363 -0.129309 -14.408225)
(-0.0529925 -0.20134567 -14.67575)
(-0.223977 -0.23789433 -14.681003)
(-0.293938 -0.133742 -14.172886)
(-0.342263 -0.16152833 -14.036738)
(-0.4770955 -0.22168867 -14.17897)
(-0.8949985 -0.206488 -13.913904)
(-0.9162285 -0.190412 -13.855462)
(-0.22066 -0.22066 -14.056534)
(-0.041489 -0.041489 -12.53553)
(0.238054 0.16500233 -12.568986)
(0.8507055 0.18664833 -13.023353)
(0.7527665 0.058880667 -13.129362)
(0.593033 0.19088567 -12.799998)
(0.670337 0.079545333 -12.82699)
(0.1428985 0.048493333 -13.038266)
(-0.1567485 0.16409967 -13.022701)
(0.047483 0.043761333 -12.831387)
(0.044985 -0.046009333 -12.575771)
(0.16500233 0.238054 -12.568986)
(0.58026 0.58026 -13.071372)
(0.691523 0.5914355 -13.106577)
(0.7591225 0.291433 -13.01727)
(0.62403 0.3153165 -12.841317)
(0.4567485 0.224165 -12.657188)
(0.26973 0.1643335 -12.961581)
(-0.1638465 0.234886 -13.035061)
(-0.2676805 0.079252 -12.595996)
(-0.044785667 -0.0621615 -12.477965)
(0.18664833 0.8507055 -13.023353)
(0.5914355 0.691523 -13.106577)
(0.5618785 0.5618785 -13.400147)
(0.4766475 0.364759 -13.225541)
(0.525765 -0.0538205 -13.011466)
(0.519354 0.0660295 -13.177084)
(0.1536195 0.080266 -13.309977)
(-0.24183 -0.126382 -13.205706)
(-0.2495645 -0.083278 -12.798141)
(-0.049290667 -0.0714875 -12.584102)
(0.058880667 0.7527665 -13.129362)
(0.291433 0.7591225 -13.01727)
(0.364759 0.4766475 -13.225541)
(0.1434235 0.1434235 -13.080908)
(0.3253005 0.0443485 -13.012293)
(0.590835 -0.0702895 -13.095722)
(0.0773185 -0.228379 -13.377792)
(-0.3273905 -0.2591695 -13.385502)
(-0.212786 -0.1529135 -12.879937)
(-0.036925333 -0.1613855 -12.48178)
(0.19088567 0.593033 -12.799999)
(0.3153165 0.62403 -12.841317)
(-0.0538205 0.525765 -13.011465)
(0.0443485 0.3253005 -13.012292)
(0.312052 0.312052 -12.802345)
(0.2466265 -0.0178955 -12.687601)
(-0.0352605 -0.169535 -12.979164)
(-0.1663645 -0.1529635 -12.933931)
(-0.1517805 -0.178614 -12.55554)
(-0.054938667 -0.209517 -12.378916)
(0.079545333 0.670337 -12.82699)
(0.224165 0.4567485 -12.657188)
(0.0660295 0.519354 -13.177084)
(-0.0702895 0.590835 -13.095723)
(-0.0178955 0.2466265 -12.687601)
(0.109248 0.109248 -12.482758)
(-0.0577495 0.0427605 -12.765132)
(-0.3364695 -0.100003 -12.772763)
(-0.2693395 -0.217799 -12.523579)
(-0.057527333 -0.299598 -12.302099)
(0.048493333 0.1428985 -13.038267)
(0.1643335 0.26973 -12.961581)
(0.080266 0.1536195 -13.309977)
(-0.228379 0.077319 -13.377793)
(-0.169535 -0.0352605 -12.979165)
(0.0427605 -0.0577495 -12.765132)
(-0.2445115 -0.2445115 -13.043432)
(-0.426924 -0.2481685 -12.975448)
(-0.3513755 -0.3181645 -12.560858)
(-0.10947133 -0.4511425 -12.29198)
(0.16409967 -0.1567485 -13.022701)
(0.234886 -0.1638465 -13.035061)
(-0.1263815 -0.24183 -13.205706)
(-0.2591695 -0.3273905 -13.385502)
(-0.152964 -0.1663645 -12.933931)
(-0.100003 -0.3364695 -12.772763)
(-0.2481685 -0.426924 -12.975448)
(-0.4101225 -0.4101225 -12.825896)
(-0.4723135 -0.5865205 -12.368048)
(-0.14617933 -0.642451 -12.188044)
(0.043761333 0.047483 -12.831387)
(0.079252 -0.26768 -12.595995)
(-0.083278 -0.2495645 -12.798141)
(-0.1529135 -0.2127865 -12.879936)
(-0.178614 -0.1517805 -12.555541)
(-0.217799 -0.2693395 -12.523579)
(-0.3181645 -0.3513755 -12.560857)
(-0.5865205 -0.4723135 -12.368048)
(-0.583704 -0.583704 -11.9557)
(-0.14675833 -0.5000885 -11.727827)
(-0.046009 0.044985 -12.575772)
(-0.0621615 -0.044785333 -12.477964)
(-0.071488 -0.049290667 -12.584103)
(-0.1613855 -0.036925333 -12.48178)
(-0.209517 -0.054938667 -12.378916)
(-0.299598 -0.057527333 -12.302099)
(-0.4511425 -0.10947133 -12.29198)
(-0.642451 -0.14617933 -12.188044)
(-0.5000885 -0.14675833 -11.727827)
(-0.090435667 -0.090435667 -11.44725)
(0.038095333 0.038095333 -11.792637)
(0.282037 -0.043943667 -11.658731)
(0.65601 0.14058567 -11.687171)
(0.9890835 0.14012267 -11.730912)
(0.828812 -0.020896333 -11.394132)
(0.471448 0.117443 -11.459035)
(0.247168 0.013372667 -11.553928)
(0.0004435 -0.044351667 -11.238695)
(-0.0108445 0.054452667 -11.152277)
(0.023517667 -0.019686667 -11.133378)
(-0.043943667 0.282037 -11.658731)
(0.4357725 0.4357725 -11.834134)
(0.9321095 0.3730305 -11.86273)
(0.7468605 0.313322 -11.666667)
(0.7947925 0.1086585 -11.625709)
(0.5228515 0.0380725 -11.596578)
(0.004476 -0.034082 -11.604673)
(0.0620635 0.019007 -11.464988)
(0.026153 0.039562 -11.15518)
(-0.050621667 -0.083694 -11.120917)
(0.14058567 0.65601 -11.687171)
(0.3730305 0.9321095 -11.86273)
(0.5335595 0.5335595 -11.905925)
(0.7247115 0.2676855 -11.797913)
(0.5535625 0.1271915 -11.651724)
(0.3287075 -0.1156895 -11.756521)
(0.2281025 -0.0927955 -11.772022)
(0.0740875 -0.105861 -11.52493)
(-0.1135455 -0.1740555 -11.299741)
(-0.058653 -0.056808 -11.178693)
(0.14012267 0.9890835 -11.730912)
(0.313322 0.7468605 -11.666668)
(0.2676855 0.7247115 -11.797913)
(0.3404925 0.3404925 -11.670481)
(0.4114175 0.0947985 -11.431152)
(0.3028645 0.1157175 -11.645808)
(0.0143045 -0.0619455 -11.837438)
(-0.0191965 -0.20519 -11.59862)
(0.075206 -0.082782 -11.264648)
(0.027543333 -0.0187905 -11.068345)
(-0.020896333 0.828812 -11.394132)
(0.1086585 0.7947925 -11.625709)
(0.1271915 0.5535625 -11.651724)
(0.0947985 0.4114175 -11.431152)
(0.3287875 0.3287875 -11.41022)
(0.1719635 0.1829565 -11.512324)
(-0.092805 0.03983 -11.602522)
(0.053251 0.030755 -11.419896)
(0.072854 -0.052129 -11.156961)
(-0.015992 -0.114257 -11.008258)
(0.117443 0.471448 -11.459035)
(0.0380725 0.5228515 -11.596579)
(-0.1156895 0.3287075 -11.756521)
(0.1157175 0.3028645 -11.645808)
(0.1829565 0.1719635 -11.512324)
(0.013907 0.013907 -11.481764)
(-0.137897 0.0281055 -11.598222)
(-0.1111555 -0.0277715 -11.415022)
(-0.069806 -0.2156595 -11.152535)
(-0.013875333 -0.255327 -11.016028)
(0.013372667 0.247168 -11.553928)
(-0.034082 0.004476 -11.604673)
(-0.0927955 0.2281025 -11.772022)
(-0.0619455 0.0143045 -11.837438)
(0.03983 -0.092805 -11.602522)
(0.0281055 -0.137897 -11.598222)
(-0.1344835 -0.1344835 -11.611328)
(-0.190514 -0.2117055 -11.423581)
(-0.1547015 -0.2541255 -11.21988)
(-0.042437 -0.36304 -10.956132)
(-0.044351667 0.0004435 -11.238695)
(0.019007 0.0620635 -11.464988)
(-0.105861 0.0740875 -11.52493)
(-0.20519 -0.019196 -11.59862)
(0.030755 0.0532515 -11.419896)
(-0.0277715 -0.1111555 -11.415022)
(-0.2117055 -0.190514 -11.423581)
(-0.2307975 -0.2307975 -11.367466)
(-0.2211405 -0.336756 -10.971421)
(-0.086485 -0.3308455 -10.768398)
(0.054452667 -0.0108445 -11.152277)
(0.039562 0.0261535 -11.15518)
(-0.174055 -0.1135455 -11.299741)
(-0.0827815 0.075206 -11.264648)
(-0.0521295 0.072854 -11.156961)
(-0.21566 -0.069806 -11.152535)
(-0.2541255 -0.1547015 -11.21988)
(-0.336756 -0.2211405 -10.97142)
(-0.2547495 -0.2547495 -10.600546)
(-0.038496667 -0.175435 -10.442826)
(-0.019686333 0.023517667 -11.133378)
(-0.083694 -0.050621333 -11.120918)
(-0.0568085 -0.058653 -11.178693)
(-0.0187905 0.027543 -11.068345)
(-0.114257 -0.015992333 -11.008258)
(-0.255327 -0.013875333 -11.016028)
(-0.36304 -0.042437 -10.956132)
(-0.3308455 -0.086485 -10.768398)
(-0.175435 -0.038496667 -10.442826)
(-0.033608667 -0.033608667 -10.347977)
(0.047782033 0.047782033 -10.302826)
(0.3435199 0.048067 -10.396993)
(0.77852385 0.069609267 -10.255189)
(1.0458058 0.1017106 -10.074723)
(0.86491015 0.0365009 -10.256487)
(0.51054135 -0.012150167 -10.099068)
(0.363239 0.014663033 -9.9443335)
(0.2449019 0.013237233 -9.8470988)
(0.15279945 0.041826333 -9.5814364)
(0.057584333 -0.037702167 -9.3820243)
(0.048067 0.34351985 -10.396994)
(0.37626075 0.37626075 -10.188935)
(0.85898925 0.3726822 -10.335574)
(0.9961433 0.22443185 -10.277474)
(0.694119 0.0577241 -10.108385)
(0.47778455 -0.0733211 -10.281389)
(0.4013201 -0.053761 -10.039372)
(0.28564685 -0.05134975 -9.6930763)
(0.07639035 -0.0682118 -9.5467746)
(-0.021944167 -0.10747625 -9.4497295)
(0.0696093 0.7785238 -10.255189)
(0.37268225 0.8589892 -10.335574)
(0.62669495 0.62669495 -10.237256)
(0.73084775 0.36094595 -10.186353)
(0.5671572 0.14073645 -10.202361)
(0.39905625 0.0168003 -10.194437)
(0.38521035 -0.15249925 -10.079746)
(0.2304511 -0.2600136 -9.8629901)
(0.09667295 -0.19274585 -9.6547832)
(0.031408033 -0.01891475 -9.4972613)
(0.1017106 1.0458059 -10.074723)
(0.2244319 0.99614325 -10.277474)
(0.360946 0.73084775 -10.186353)
(0.5101848 0.5101848 -9.9831657)
(0.34997335 0.2858531 -10.070078)
(0.18454885 0.1739078 -10.157235)
(0.1245062 -0.0588791 -10.08182)
(0.24540025 -0.1541352 -9.853362)
(0.3174892 -0.0101336 -9.639958)
(0.093943233 0.00904945 -9.5290491)
(0.0365009 0.8649102 -10.256487)
(0.05772415 0.694119 -10.108385)
(0.1407365 0.5671572 -10.202361)
(0.2858531 0.34997335 -10.070078)
(0.2308802 0.2308802 -10.015887)
(0.05432405 0.1461483 -10.153545)
(0.05716735 0.0696814 -10.08822)
(0.2791966 0.03063435 -9.881765)
(0.2598576 -0.06650105 -9.7097207)
(0.044196733 -0.1572006 -9.5547429)
(-0.0121502 0.51054135 -10.099069)
(-0.0733211 0.47778455 -10.281389)
(0.01680035 0.39905625 -10.194437)
(0.1739078 0.1845488 -10.157235)
(0.1461483 0.05432405 -10.153545)
(0.02335005 0.02335005 -10.243738)
(0.00899225 0.03395505 -10.153067)
(0.1092178 -0.1036881 -9.9662477)
(0.12965425 -0.28071765 -9.7239916)
(0.033476867 -0.2474716 -9.615317)
(0.014663033 0.36323895 -9.9443336)
(-0.05376095 0.40132015 -10.039372)
(-0.15249925 0.3852104 -10.079746)
(-0.0588791 0.1245062 -10.08182)
(0.06968145 0.05716735 -10.08822)
(0.03395505 0.00899225 -10.153067)
(-0.0698708 -0.06987075 -10.0943)
(-0.0354761 -0.2006128 -9.9613895)
(0.1160741 -0.13705035 -9.7477684)
(0.066360767 -0.2035122 -9.6148477)
(0.013237267 0.244902 -9.8470989)
(-0.05134965 0.28564695 -9.6930764)
(-0.2600136 0.2304511 -9.8629902)
(-0.15413525 0.2454003 -9.8533621)
(0.03063435 0.27919665 -9.881765)
(-0.10368805 0.10921785 -9.9662476)
(-0.2006128 -0.0354761 -9.9613895)
(0.0420382 0.04203825 -9.8140237)
(0.12675485 0.0328131 -9.5715939)
(-0.010831033 -0.1291452 -9.47195)
(0.041826333 0.15279955 -9.5814364)
(-0.06821185 0.07639035 -9.5467747)
(-0.1927459 0.09667295 -9.6547832)
(-0.01013355 0.3174892 -9.6399586)
(-0.066501 0.2598576 -9.7097212)
(-0.2807177 0.12965425 -9.7239917)
(-0.1370504 0.116074 -9.7477685)
(0.0328131 0.12675475 -9.5715939)
(-0.05510935 -0.0551094 -9.3894821)
(-0.041611433 -0.07966765 -9.3369193)
(-0.0377022 0.057584333 -9.3820243)
(-0.10747625 -0.0219442 -9.44973)
(-0.01891475 0.031408067 -9.4972614)
(0.0090494 0.093943233 -9.5290492)
(-0.1572006 0.0441967 -9.5547429)
(-0.24747165 0.033476833 -9.615317)
(-0.2035123 0.066360733 -9.6148477)
(-0.1291452 -0.0108311 -9.4719501)
(-0.07966755 -0.041611467 -9.3369194)
(-0.0272032 -0.027203233 -9.4459856)
(-0.024682767 -0.024682767 -8.6572468)
(0.32967465 0.094762067 -8.5279758)
(0.97828075 0.086995667 -8.4895867)
(0.9877854 0.0049551667 -8.5179331)
(0.8044663 0.077838333 -8.420076)
(0.7836013 -0.0041041333 -8.3741308)
(0.49913765 -0.049986033 -8.2188917)
(0.36334065 0.05833 -8.0751446)
(0.45423002 0.077560473 -7.7907401)
(0.15645905 -0.064823447 -7.6809755)
(0.094762067 0.32967465 -8.5279763)
(0.4971923 0.4971923 -8.6025518)
(0.8435704 0.39096275 -8.4320561)
(0.9740494 0.20169225 -8.459231)
(0.79087735 0.1627843 -8.4866578)
(0.59186475 -0.05729635 -8.3346766)
(0.59278885 -0.1694941 -8.2532798)
(0.55466041 0.0031157 -8.0021975)
(0.26949985 -0.0337848 -7.8094188)
(0.014075127 -0.19893097 -7.7811889)
(0.086995667 0.9782807 -8.4895866)
(0.39096275 0.84357035 -8.4320561)
(0.6827807 0.68278065 -8.4319103)
(0.75960695 0.5619938 -8.376933)
(0.5454777 0.1654981 -8.3975711)
(0.4513229 0.0084647 -8.3604942)
(0.5595497 -0.1352441 -8.2911076)
(0.49904995 -0.2661467 -8.0665979)
(0.25218335 -0.26723886 -7.8958965)
(0.0463616 -0.13612765 -7.8879246)
(0.0049551667 0.98778535 -8.5179331)
(0.20169225 0.97404935 -8.459231)
(0.56199385 0.7596069 -8.376933)
(0.45676685 0.45676675 -8.393045)
(0.23734825 0.28127295 -8.4456243)
(0.29112255 0.1566101 -8.3989954)
(0.31817745 -0.07041985 -8.2941829)
(0.42266565 -0.2239649 -8.1173373)
(0.3995189 -0.1377195 -8.0231085)
(0.1014826 -0.0762721 -8.00335)
(0.077838333 0.80446625 -8.4200764)
(0.1627843 0.7908773 -8.4866578)
(0.1654981 0.54547765 -8.3975716)
(0.281273 0.2373482 -8.4456243)
(0.24532105 0.24532095 -8.4403132)
(0.0996301 0.09645305 -8.4642285)
(0.1789747 -0.03141725 -8.3730296)
(0.4317503 -0.08213065 -8.2413258)
(0.39987615 -0.1361626 -8.1325051)
(0.087326533 -0.20052485 -8.0728939)
(-0.0041041333 0.78360125 -8.3741308)
(-0.05729635 0.59186475 -8.3346767)
(0.00846475 0.4513229 -8.3604942)
(0.15661015 0.2911225 -8.3989954)
(0.0964531 0.09963005 -8.4642285)
(0.01438435 0.01438425 -8.4982077)
(0.13959375 0.0220256 -8.4059951)
(0.3179203 -0.10739595 -8.2644197)
(0.2811247 -0.2537073 -8.1632312)
(0.058574433 -0.3154318 -8.1357936)
(-0.049986 0.49913765 -8.2188918)
(-0.16949405 0.5927889 -8.2532799)
(-0.13524415 0.5595497 -8.2911077)
(-0.07041985 0.31817745 -8.294183)
(-0.0314172 0.17897475 -8.3730297)
(0.02202565 0.13959375 -8.4059952)
(0.0571945 0.05719445 -8.3206508)
(0.1560174 -0.0594815 -8.2424508)
(0.1918403 -0.10172775 -8.1342034)
(0.046176867 -0.21967305 -8.1774953)
(0.058330033 0.3633407 -8.0751447)
(0.0031157 0.55466039 -8.0021976)
(-0.2661467 0.49904995 -8.066598)
(-0.2239648 0.4226657 -8.1173374)
(-0.0821306 0.43175025 -8.2413259)
(-0.10739595 0.3179203 -8.2644197)
(-0.0594815 0.1560174 -8.2424509)
(0.1589981 0.1589981 -8.1058512)
(0.12093315 0.0215303 -8.1688052)
(-0.020055767 -0.05291715 -8.1670948)
(0.07756046 0.4542301 -7.7907402)
(-0.0337848 0.26949985 -7.8094191)
(-0.26723884 0.25218335 -7.8958967)
(-0.13771955 0.39951885 -8.0231087)
(-0.1361626 0.3998761 -8.1325053)
(-0.2537072 0.2811246 -8.1632313)
(-0.1017277 0.19184025 -8.1342035)
(0.0215303 0.12093305 -8.1688053)
(-0.02007495 -0.020075 -8.2313731)
(-0.0034547667 -0.1494706 -8.1980758)
(-0.064823467 0.15645907 -7.6809757)
(-0.19893105 0.01407514 -7.7811891)
(-0.1361277 0.046361567 -7.8879248)
(-0.07627205 0.10148257 -8.0033502)
(-0.20052485 0.087326567 -8.072894)
(-0.3154318 0.0585744 -8.1357937)
(-0.21967305 0.046176833 -8.1774953)
(-0.05291715 -0.020055833 -8.1670948)
(-0.1494705 -0.0034548 -8.1980757)
(-0.1063195 -0.10631953 -8.253535)
(0.13396267 0.13396233 -6.8481931)
(0.51118 -0.0016503333 -6.703226)
(0.7885665 0.107963 -6.7133468)
(1.1153165 0.14084533 -6.7461863)
(1.0087125 -0.007887 -6.5813352)
(0.71172565 0.0141526 -6.6121766)
(0.6622252 -0.0082624 -6.6017575)
(0.67305355 0.061868667 -6.3978217)
(0.54696855 0.0293738 -6.2356912)
(0.1307607 -0.1045111 -6.2754552)
(-0.00165 0.51118 -6.7032255)
(0.472181 0.4721805 -6.7011386)
(1.00231 0.4303585 -6.7189173)
(0.9415415 0.365432 -6.6402485)
(0.8186734 0.080229 -6.6507842)
(0.71116255 -0.0596845 -6.5772553)
(0.7337993 -0.1259769 -6.593527)
(0.72950785 -0.042803 -6.4301227)
(0.2973989 -0.17336825 -6.3289609)
(-0.0031242 -0.31442535 -6.357609)
(0.107963 0.788567 -6.7133468)
(0.4303585 1.00231 -6.7189173)
(0.681818 0.681818 -6.6979241)
(0.765187 0.427132 -6.6824735)
(0.583596 0.18177 -6.6780035)
(0.50551975 -0.0475184 -6.6449647)
(0.6791067 -0.1934023 -6.6233149)
(0.6256622 -0.3751534 -6.4998029)
(0.2753462 -0.4064355 -6.4242943)
(0.036722633 -0.24107585 -6.4532237)
(0.14084533 1.115316 -6.7461862)
(0.365432 0.9415415 -6.6402489)
(0.427132 0.7651865 -6.6824734)
(0.4414935 0.4414935 -6.8251503)
(0.344023 0.243111 -6.7135008)
(0.33599025 0.0701735 -6.6957775)
(0.4061643 -0.1408011 -6.6773453)
(0.51647465 -0.32886315 -6.576666)
(0.43147645 -0.24674215 -6.560889)
(0.10711557 -0.1759198 -6.5673574)
(-0.0078866667 1.0087125 -6.5813351)
(0.080229 0.8186733 -6.6507847)
(0.18177 0.583596 -6.6780035)
(0.2431115 0.344023 -6.7135007)
(0.212276 0.212276 -6.7568284)
(0.12160765 0.046936 -6.7580648)
(0.28007005 -0.0421308 -6.7074305)
(0.51972115 -0.11644805 -6.6732835)
(0.42828955 -0.2066237 -6.6476088)
(0.083937533 -0.2896442 -6.6836231)
(0.014152533 0.711726 -6.6121765)
(-0.0596845 0.7111624 -6.5772553)
(-0.0475183 0.50552015 -6.6449646)
(0.0701735 0.33599015 -6.6957775)
(0.046936 0.12160755 -6.7580652)
(0.08158345 0.0815834 -6.7350901)
(0.24278025 0.08633385 -6.6948316)
(0.35198175 -0.1048131 -6.6530828)
(0.2582803 -0.282416 -6.6752389)
(0.051768567 -0.352073 -6.7258805)
(-0.0082624 0.66222505 -6.6017574)
(-0.12597685 0.73379925 -6.5935269)
(-0.19340225 0.6791066 -6.6233149)
(-0.1408011 0.40616415 -6.6773452)
(-0.04213075 0.28006995 -6.7074305)
(0.08633395 0.2427802 -6.6948316)
(0.09367355 0.0936735 -6.6287061)
(0.1509713 -0.04204435 -6.6400505)
(0.18102965 -0.1426244 -6.6705065)
(0.037499533 -0.2348134 -6.7241378)
(0.061868667 0.6730536 -6.3978216)
(-0.04280295 0.72950785 -6.4301226)
(-0.3751534 0.62566215 -6.4998028)
(-0.32886315 0.5164746 -6.5766664)
(-0.11644795 0.5197211 -6.6732835)
(-0.104813 0.35198175 -6.6530834)
(-0.0420443 0.15097125 -6.6400505)
(0.11568385 0.11568375 -6.6569723)
(0.06551125 -0.0643566 -6.8120301)
(-0.0096907667 -0.1497257 -6.77561)
(0.029373767 0.5469686 -6.2356911)
(-0.1733683 0.2973989 -6.3289613)
(-0.4064355 0.27534615 -6.4242943)
(-0.24674215 0.4314764 -6.560889)
(-0.2066236 0.4282895 -6.6476088)
(-0.2824159 0.25828025 -6.6752393)
(-0.14262445 0.18102955 -6.6705065)
(-0.06435655 0.0655112 -6.8120301)
(-0.0843798 -0.0843799 -6.8077578)
(-0.0194132 -0.1661078 -6.9006017)
(-0.10451113 0.1307607 -6.2754557)
(-0.3144254 -0.0031242 -6.357609)
(-0.2410759 0.036722633 -6.4532241)
(-0.1759198 0.10711553 -6.5673578)
(-0.2896441 0.083937533 -6.6836236)
(-0.35207295 0.051768533 -6.7258809)
(-0.23481335 0.0374995 -6.7241378)
(-0.1497256 -0.0096907333 -6.7756099)
(-0.16610775 -0.0194132 -6.9006016)
(-0.064176033 -0.064176033 -6.6877709)
(0.071962 0.071962333 -4.979988)
(0.464521 0.096153667 -5.100716)
(0.9353205 0.083282 -5.0164675)
(1.119797 0.075580333 -4.861566)
(0.938476 0.031539 -5.1078205)
(0.763179 0.019176667 -5.0608695)
(0.7134925 -0.044499 -5.1305346)
(0.729407 0.036796 -5.0882617)
(0.5765965 0.015380667 -4.9903667)
(0.12994967 -0.11959267 -4.9940223)
(0.096153333 0.464521 -5.1007155)
(0.4815005 0.481501 -4.9947415)
(0.9044605 0.4063855 -4.9992315)
(1.0421825 0.265405 -5.044351)
(0.8538705 0.066116 -5.0130685)
(0.649122 -0.0900845 -5.1210714)
(0.7399215 -0.1910515 -5.1896131)
(0.8192265 -0.0988655 -5.1111712)
(0.3420135 -0.222388 -5.0183289)
(-0.0050236667 -0.3766995 -5.0391751)
(0.083282 0.93532 -5.0164675)
(0.4063855 0.90446 -4.9992315)
(0.7192245 0.7192245 -4.973476)
(0.7795275 0.377092 -5.0597555)
(0.5829865 0.1027815 -5.120846)
(0.5060115 -0.1100575 -5.1449735)
(0.7047115 -0.2190625 -5.1942448)
(0.6980705 -0.41269 -5.1145897)
(0.2987625 -0.499167 -5.0706815)
(0.027075333 -0.345876 -5.1354519)
(0.07558 1.119797 -4.861566)
(0.265405 1.042182 -5.044351)
(0.3770925 0.7795275 -5.0597555)
(0.4257395 0.4257395 -5.151906)
(0.366721 0.202448 -5.149277)
(0.327278 0.04351 -5.1957045)
(0.437289 -0.1545355 -5.1980588)
(0.539122 -0.3974455 -5.1674433)
(0.4088275 -0.361034 -5.2167714)
(0.097170333 -0.3066715 -5.2955138)
(0.031538667 0.938476 -5.1078205)
(0.066116 0.853871 -5.0130685)
(0.102782 0.5829865 -5.1208455)
(0.202448 0.366721 -5.149277)
(0.200757 0.2007565 -5.2108085)
(0.149028 0.0571405 -5.1986175)
(0.263756 -0.0489035 -5.2084526)
(0.491572 -0.1585475 -5.2513855)
(0.3895365 -0.2505125 -5.3106398)
(0.063317 -0.359048 -5.4099131)
(0.019176667 0.763179 -5.0608695)
(-0.0900845 0.6491225 -5.1210713)
(-0.1100575 0.5060115 -5.1449735)
(0.0435095 0.327278 -5.1957045)
(0.0571405 0.149028 -5.1986175)
(0.077618 0.0776175 -5.1841225)
(0.221601 0.10075 -5.1886309)
(0.337513 -0.074163 -5.2264107)
(0.208327 -0.276605 -5.2968392)
(0.024813333 -0.3559465 -5.3685386)
(-0.044499 0.7134925 -5.1305345)
(-0.1910515 0.7399215 -5.1896129)
(-0.2190625 0.7047115 -5.1942447)
(-0.1545355 0.4372885 -5.1980587)
(-0.0489035 0.2637565 -5.2084525)
(0.10075 0.2216005 -5.1886309)
(0.1119755 0.1119755 -5.1710105)
(0.114217 -0.063371 -5.2370334)
(0.107753 -0.238519 -5.3073873)
(0.010422667 -0.2694025 -5.3692161)
(0.036796 0.729407 -5.0882616)
(-0.0988655 0.819226 -5.111171)
(-0.4126905 0.6980705 -5.1145901)
(-0.3974455 0.539122 -5.1674432)
(-0.1585475 0.491572 -5.2513859)
(-0.074163 0.3375125 -5.2264107)
(-0.0633705 0.114217 -5.2370334)
(-0.0129815 -0.0129815 -5.3376529)
(0.0022955 -0.115721 -5.3909108)
(0.0042243333 -0.229381 -5.4265497)
(0.015380333 0.576596 -4.9903666)
(-0.222388 0.3420135 -5.0183293)
(-0.4991665 0.298762 -5.0706813)
(-0.361034 0.4088275 -5.2167712)
(-0.250513 0.389536 -5.3106402)
(-0.276605 0.208327 -5.2968392)
(-0.2385185 0.107753 -5.3073872)
(-0.115721 0.0022955 -5.3909107)
(-0.1086465 -0.1086465 -5.3774167)
(-0.065350667 -0.0616315 -5.3732939)
(-0.11959233 0.12994933 -4.9940222)
(-0.3766995 -0.0050233333 -5.0391754)
(-0.3458765 0.027075 -5.1354522)
(-0.3066715 0.09717 -5.2955135)
(-0.359048 0.063316667 -5.4099135)
(-0.355946 0.024813333 -5.3685384)
(-0.269402 0.010422667 -5.369216)
(-0.229381 0.0042243333 -5.4265501)
(-0.0616315 -0.065350667 -5.3732939)
(0.035567667 0.035567667 -5.3453838)
(0.053477333 0.053477333 -3.425549)
(0.4747005 0.068999333 -3.278782)
(1.0277165 0.11945367 -3.197546)
(1.0239635 0.018988667 -3.379078)
(0.809409 0.055281 -3.5449685)
(0.6890115 -0.025982 -3.66501)
(0.634833 -0.047648 -3.8234165)
(0.8132215 0.046595667 -3.761281)
(0.641208 0.010732333 -3.6764915)
(0.12832367 -0.134613 -3.7046325)
(0.068999333 0.4747005 -3.2787825)
(0.573665 0.573665 -3.2652925)
(0.9527005 0.47335 -3.1198265)
(0.9277045 0.1672425 -3.3376555)
(0.741953 0.0672035 -3.53878)
(0.534618 -0.1437885 -3.7248735)
(0.7436995 -0.189687 -3.7859945)
(0.900792 -0.069131 -3.733218)
(0.369395 -0.253683 -3.694855)
(-0.017021667 -0.455855 -3.752971)
(0.11945367 1.0277165 -3.197546)
(0.47335 0.9527005 -3.1198265)
(0.621294 0.621294 -3.113123)
(0.617817 0.319577 -3.409557)
(0.498378 0.0455615 -3.5508995)
(0.432121 -0.1221515 -3.681552)
(0.7094905 -0.201848 -3.755109)
(0.7492255 -0.4314255 -3.7029185)
(0.254484 -0.604878 -3.76124)
(-0.0064576667 -0.4974145 -3.8719)
(0.018988667 1.023963 -3.379078)
(0.1672425 0.9277045 -3.337655)
(0.319577 0.617817 -3.409557)
(0.351972 0.351972 -3.5179115)
(0.3002245 0.1531485 -3.626854)
(0.2872085 0.0165295 -3.718841)
(0.4344255 -0.155009 -3.739768)
(0.497762 -0.465659 -3.797726)
(0.303406 -0.4867005 -3.9103815)
(0.054620667 -0.450381 -4.027694)
(0.055281333 0.809409 -3.544969)
(0.067204 0.741953 -3.5387795)
(0.0455615 0.498378 -3.5508995)
(0.1531485 0.3002245 -3.626854)
(0.1629355 0.1629355 -3.6886125)
(0.1239635 0.058518 -3.718825)
(0.227302 -0.032703 -3.7684515)
(0.417534 -0.1754155 -3.8306135)
(0.269762 -0.2866915 -3.950259)
(0.017755333 -0.362669 -4.0546205)
(-0.025982 0.689012 -3.66501)
(-0.1437885 0.534618 -3.724874)
(-0.1221515 0.432121 -3.681552)
(0.0165295 0.2872085 -3.7188415)
(0.058518 0.1239635 -3.7188245)
(0.09157 0.09157 -3.7137605)
(0.200492 0.123776 -3.7177665)
(0.2437735 -0.090461 -3.789318)
(0.1161525 -0.2791635 -3.9116)
(0.003969 -0.311376 -3.955911)
(-0.047648 0.634833 -3.8234165)
(-0.189687 0.7436995 -3.7859945)
(-0.201848 0.70949 -3.755109)
(-0.155009 0.4344255 -3.739768)
(-0.032703 0.2273015 -3.7684515)
(0.123776 0.200492 -3.7177665)
(0.045271 0.045271 -3.7574115)
(0.0145945 -0.1532865 -3.837648)
(0.048847 -0.236696 -3.898306)
(-0.0037196667 -0.2928245 -3.9377405)
(0.046595667 0.8132215 -3.7612815)
(-0.0691315 0.9007915 -3.733218)
(-0.4314255 0.7492255 -3.7029185)
(-0.465659 0.497762 -3.7977255)
(-0.1754155 0.4175335 -3.830614)
(-0.0904605 0.2437735 -3.789318)
(-0.1532865 0.0145945 -3.837648)
(-0.0381935 -0.0381935 -3.874213)
(-0.0233855 -0.134386 -3.846665)
(-0.03345 -0.1538035 -3.9534275)
(0.010732 0.641208 -3.6764915)
(-0.253683 0.3693945 -3.6948545)
(-0.6048775 0.254484 -3.76124)
(-0.486701 0.303406 -3.910382)
(-0.2866915 0.269762 -3.950259)
(-0.279163 0.1161525 -3.9115995)
(-0.236696 0.048847 -3.898306)
(-0.134386 -0.023386 -3.846665)
(-0.066763 -0.066763 -3.944903)
(-0.016664667 -0.084942 -3.815083)
(-0.13461333 0.12832367 -3.7046325)
(-0.4558555 -0.017021667 -3.752971)
(-0.497414 -0.006458 -3.8718995)
(-0.450381 0.054620667 -4.0276935)
(-0.362669 0.017755333 -4.0546205)
(-0.3113755 0.003969 -3.9559105)
(-0.292825 -0.0037196667 -3.9377405)
(-0.1538035 -0.033450333 -3.9534275)
(-0.0849415 -0.016664667 -3.815083)
(-0.045569333 -0.045569333 -3.99938)
(0.16980667 0.16980667 -1.5962905)
(0.692524 0.10514667 -1.416696)
(0.8350245 0.135095 -1.3930765)
(0.7723745 0.10319533 -1.8043935)
(0.652544 0.035664667 -1.9406945)
(0.484731 -0.020732333 -2.222552)
(0.6172215 -0.019551 -2.3082705)
(0.876332 0.055504667 -2.265122)
(0.633245 0.0031383333 -2.2874185)
(0.111189 -0.15181833 -2.349745)
(0.10514667 0.692524 -1.416696)
(0.6404565 0.6404565 -1.180339)
(0.8320975 0.4908085 -1.358544)
(0.623229 0.234926 -1.6114605)
(0.4666525 0.060185 -1.9581575)
(0.4019075 -0.1066265 -2.154397)
(0.731577 -0.122744 -2.223578)
(0.910366 -0.040503 -2.232041)
(0.3222605 -0.3071365 -2.3000065)
(-0.043767667 -0.543967 -2.396313)
(0.135095 0.8350245 -1.3930765)
(0.4908085 0.8320975 -1.358544)
(0.429494 0.429494 -1.399905)
(0.341751 0.196836 -1.7298045)
(0.3109915 0.0147075 -1.919053)
(0.301802 -0.104025 -2.102493)
(0.683345 -0.172836 -2.1793235)
(0.6919395 -0.477198 -2.2239675)
(0.129781 -0.7146935 -2.3953675)
(-0.046698 -0.620599 -2.5120165)
(0.10319533 0.772374 -1.8043935)
(0.234926 0.623229 -1.6114605)
(0.196836 0.341751 -1.7298045)
(0.2084425 0.2084425 -1.864092)
(0.1657915 0.064735 -2.019312)
(0.214364 0.006237 -2.132384)
(0.358404 -0.167878 -2.206532)
(0.3685085 -0.5251405 -2.343927)
(0.1788595 -0.550053 -2.50298)
(0.018962 -0.489392 -2.6009745)
(0.035665 0.652544 -1.940694)
(0.0601855 0.466652 -1.9581575)
(0.0147075 0.3109915 -1.919053)
(0.064735 0.165791 -2.019312)
(0.108786 0.108786 -2.087405)
(0.069189 0.062221 -2.1495785)
(0.1519675 -0.026902 -2.245644)
(0.3097645 -0.1501395 -2.3335325)
(0.1655295 -0.251731 -2.49471)
(-0.0062573333 -0.287265 -2.546162)
(-0.020732667 0.4847315 -2.222552)
(-0.1066265 0.4019075 -2.154397)
(-0.104025 0.301802 -2.102493)
(0.006237 0.214364 -2.132384)
(0.0622215 0.069189 -2.1495785)
(0.078676 0.078676 -2.183627)
(0.1460435 0.11179 -2.23713)
(0.1436795 -0.0811975 -2.33022)
(0.041734 -0.224652 -2.4505975)
(-0.0047273333 -0.2390665 -2.469306)
(-0.019551 0.617221 -2.3082705)
(-0.122744 0.7315775 -2.223578)
(-0.172836 0.683345 -2.1793235)
(-0.167878 0.3584045 -2.206532)