/*--------------------------------*- C++ -*----------------------------------*\
| =========                 |                                                 |
| \\      /  F ield         | OpenFOAM: The Open Source CFD Toolbox           |
|  \\    /   O peration     | Version:  v2106                                 |
|   \\  /    A nd           | Website:  www.openfoam.com                      |
|    \\/     M anipulation  |                                                 |
\*---------------------------------------------------------------------------*/
FoamFile
{
    version     2.0;
    format      ascii;
    arch        "LSB;label=32;scalar=64";
    class       volScalarField;
    location    "0";
    object      gradz_Tmode2;
}
// * * * * * * * * * * * * * * * * * * * * * * * * * * * * * * * * * * * * * //

dimensions      [0 -1 0 1 0 0 0];

internalField   nonuniform List<scalar> 
6000
(
2.0265277
2.0265313
2.026533
2.0265357
2.026536
2.0265373
2.0265393
2.0265423
2.026545
2.0265453
2.0279327
2.0279347
2.0279347
2.027937
2.0279387
2.02794
2.027941
2.0279433
2.0279437
2.027945
2.0307357
2.0307373
2.0307383
2.0307397
2.030741
2.030743
2.030745
2.0307467
2.0307463
2.0307463
2.0349433
2.0349457
2.0349447
2.0349447
2.0349473
2.034949
2.034951
2.0349527
2.034954
2.034953
2.0405593
2.040561
2.040562
2.040562
2.0405637
2.0405637
2.0405667
2.040567
2.04057
2.0405707
2.047594
2.0475943
2.0475957
2.0475967
2.0475967
2.047597
2.0476
2.0476007
2.047604
2.0476037
2.0560523
2.056053
2.056053
2.0560537
2.0560547
2.0560547
2.056057
2.0560593
2.0560603
2.056062
2.0659477
2.065946
2.065946
2.0659457
2.0659477
2.065948
2.0659493
2.0659517
2.065954
2.0659567
2.0772907
2.0772887
2.0772887
2.0772887
2.0772897
2.077291
2.0772913
2.077293
2.0772977
2.0772997
2.0900987
2.090098
2.090099
2.0900963
2.0900987
2.090099
2.0901023
2.090103
2.0901083
2.090108
2.104397
2.1043963
2.1043947
2.1043947
2.1043967
2.104397
2.1044017
2.1044047
2.1044063
2.104404
2.120207
2.120208
2.120209
2.1202073
2.1202087
2.1202103
2.120214
2.1202193
2.1202197
2.120218
2.1375657
2.137569
2.1375697
2.1375697
2.137571
2.137573
2.1375743
2.1375807
2.1375833
2.1375843
2.1565227
2.156524
2.1565247
2.156526
2.1565283
2.1565293
2.1565307
2.1565337
2.1565387
2.156543
2.1771293
2.1771283
2.1771307
2.1771317
2.1771343
2.1771363
2.1771377
2.1771407
2.1771457
2.177148
2.1994617
2.1994607
2.1994617
2.199463
2.1994647
2.1994667
2.1994703
2.1994733
2.1994783
2.1994787
2.2236167
2.2236177
2.223619
2.2236193
2.223619
2.223622
2.2236267
2.2236297
2.223635
2.223635
2.249729
2.2497297
2.2497287
2.249731
2.2497307
2.249735
2.2497373
2.249743
2.2497457
2.2497477
2.2779763
2.277977
2.2779747
2.277976
2.2779787
2.277982
2.277985
2.277988
2.2779917
2.2779927
2.3086067
2.308606
2.3086043
2.3086037
2.3086077
2.3086097
2.3086137
2.3086177
2.3086207
2.3086203
2.3419593
2.341958
2.341959
2.341957
2.3419613
2.3419637
2.3419663
2.3419703
2.341973
2.3419727
2.3785247
2.3785243
2.3785253
2.378526
2.378528
2.378531
2.3785337
2.3785377
2.3785403
2.378538
2.419013
2.419014
2.4190143
2.4190147
2.4190167
2.419021
2.4190233
2.419027
2.4190287
2.419026
2.4644893
2.4644897
2.4644887
2.4644903
2.4644923
2.464494
2.4644973
2.464501
2.4645023
2.464501
2.516606
2.516606
2.516607
2.5166073
2.516609
2.516612
2.5166143
2.5166167
2.5166203
2.5166193
2.5781013
2.5781013
2.5781037
2.578105
2.5781077
2.57811
2.5781097
2.578113
2.5781163
2.578119
2.6538983
2.6538983
2.6539003
2.6539017
2.6539033
2.6539053
2.6539073
2.653907
2.6539093
2.653912
2.7539323
2.7539333
2.7539333
2.753935
2.753937
2.7539383
2.7539387
2.753939
2.75394
2.7539407
2.9017183
2.9017183
2.9017183
2.9017177
2.9017193
2.901723
2.9017223
2.9017213
2.9017213
2.90172
3.164272
3.1642717
3.164271
3.1642727
3.1642743
3.1642757
3.164275
3.1642773
3.1642743
3.1642747
2.0339475
2.0339485
2.0339485
2.0339475
2.033949
2.0339495
2.033951
2.033952
2.033953
2.0339535
2.035356
2.035356
2.0353565
2.0353555
2.035356
2.035357
2.0353595
2.0353615
2.035363
2.0353635
2.038174
2.038174
2.038173
2.038173
2.038173
2.038175
2.038177
2.038179
2.038181
2.0381815
2.0424045
2.042404
2.042404
2.042404
2.0424045
2.042406
2.0424075
2.0424095
2.042411
2.042412
2.048053
2.048053
2.048052
2.048052
2.0480525
2.048054
2.0480555
2.0480575
2.048059
2.0480605
2.0551245
2.0551245
2.055124
2.0551235
2.0551235
2.0551245
2.0551265
2.0551295
2.055132
2.0551335
2.0636275
2.0636285
2.063628
2.0636265
2.0636265
2.0636275
2.06363
2.063634
2.063637
2.063638
2.073573
2.0735745
2.073574
2.073573
2.0735725
2.073574
2.0735775
2.073581
2.0735845
2.0735845
2.0849745
2.0849755
2.084975
2.0849745
2.0849745
2.0849755
2.0849795
2.084984
2.0849865
2.0849875
2.0978475
2.0978485
2.097847
2.097847
2.097846
2.097848
2.0978505
2.0978555
2.097859
2.097861
2.112211
2.1122115
2.1122105
2.11221
2.112209
2.1122105
2.112213
2.112218
2.112222
2.112225
2.1280905
2.1280895
2.1280885
2.128088
2.128088
2.12809
2.128093
2.128097
2.128101
2.1281035
2.145517
2.145516
2.1455145
2.145514
2.145514
2.1455165
2.1455205
2.145524
2.145528
2.1455295
2.16453
2.16453
2.1645285
2.164528
2.164528
2.1645305
2.164535
2.1645395
2.164543
2.1645435
2.185182
2.1851825
2.1851815
2.185181
2.1851805
2.1851825
2.185187
2.1851925
2.185196
2.1851975
2.2075395
2.20754
2.207539
2.207539
2.2075395
2.2075415
2.2075455
2.207551
2.2075545
2.207557
2.2316905
2.23169
2.2316895
2.2316895
2.2316915
2.2316935
2.231697
2.231702
2.231706
2.231708
2.2577505
2.257751
2.257751
2.25775
2.257752
2.2577545
2.2577585
2.257763
2.257767
2.257768
2.2858775
2.285878
2.285879
2.2858785
2.285879
2.285882
2.285886
2.285891
2.2858945
2.285896
2.3162835
2.3162845
2.3162845
2.316285
2.316285
2.316288
2.316292
2.3162965
2.3163005
2.3163025
2.3492595
2.34926
2.3492595
2.3492605
2.349261
2.349264
2.349268
2.349272
2.349276
2.349278
2.3852105
2.38521
2.3852095
2.3852105
2.3852115
2.3852135
2.385217
2.385221
2.385225
2.385228
2.4247035
2.424703
2.4247035
2.424704
2.4247055
2.424707
2.42471
2.424714
2.424718
2.424721
2.468549
2.468549
2.46855
2.4685505
2.468551
2.468553
2.468556
2.4685595
2.4685635
2.468566
2.517912
2.517912
2.5179115
2.517912
2.5179125
2.517914
2.5179175
2.5179215
2.517924
2.5179255
2.5744615
2.5744615
2.5744605
2.574461
2.5744615
2.574464
2.5744675
2.57447
2.574472
2.574473
2.640522
2.6405215
2.6405205
2.640521
2.640522
2.640524
2.640526
2.6405295
2.640532
2.6405325
2.7188455
2.718845
2.7188455
2.7188465
2.7188475
2.7188485
2.7188505
2.7188545
2.7188575
2.7188585
2.8102675
2.810268
2.8102685
2.8102705
2.810271
2.8102715
2.8102735
2.8102775
2.8102805
2.8102835
2.9009465
2.9009465
2.900948
2.900949
2.90095
2.9009505
2.9009535
2.900956
2.900961
2.900961
2.0387885
2.038789
2.038788
2.038787
2.0387885
2.0387895
2.0387915
2.0387925
2.038794
2.0387945
2.0402025
2.040201
2.0402005
2.0402005
2.0402015
2.040203
2.040205
2.0402065
2.0402085
2.040209
2.04303
2.043029
2.043028
2.0430285
2.04303
2.0430315
2.0430335
2.043036
2.0430375
2.0430385
2.047275
2.047275
2.047274
2.0472745
2.047276
2.047278
2.04728
2.0472825
2.047285
2.047286
2.052945
2.0529435
2.052943
2.0529435
2.0529445
2.0529465
2.052949
2.0529525
2.0529545
2.052955
2.0600415
2.0600405
2.06004
2.06004
2.060041
2.0600435
2.060046
2.06005
2.0600525
2.0600525
2.068573
2.068572
2.068572
2.068572
2.0685735
2.068576
2.068579
2.068583
2.0685855
2.068586
2.0785505
2.07855
2.0785495
2.0785495
2.078551
2.0785535
2.0785565
2.0785605
2.078563
2.078563
2.0899845
2.0899845
2.089984
2.089984
2.0899855
2.089988
2.089991
2.089994
2.0899965
2.0899965
2.1028895
2.102889
2.1028885
2.1028885
2.1028895
2.102892
2.1028955
2.102899
2.1029005
2.102901
2.1172825
2.1172815
2.117281
2.1172805
2.117282
2.1172845
2.1172875
2.1172915
2.1172935
2.1172935
2.133184
2.1331835
2.133183
2.133183
2.133184
2.1331865
2.13319
2.1331935
2.133196
2.133197
2.1506225
2.150622
2.1506215
2.150621
2.150622
2.1506245
2.150629
2.1506325
2.150635
2.1506355
2.169631
2.16963
2.1696295
2.169629
2.1696305
2.169633
2.1696375
2.1696415
2.169644
2.1696445
2.190251
2.1902505
2.19025
2.19025
2.190251
2.1902535
2.1902575
2.1902625
2.1902655
2.1902655
2.212537
2.212537
2.2125365
2.2125365
2.2125375
2.2125405
2.2125445
2.2125495
2.2125525
2.2125525
2.23656
2.2365595
2.236559
2.2365585
2.23656
2.236563
2.236568
2.2365725
2.2365745
2.236575
2.26241
2.2624085
2.262408
2.262408
2.2624095
2.2624125
2.2624175
2.2624215
2.2624235
2.262424
2.290205
2.290204
2.2902045
2.2902045
2.290206
2.290209
2.290213
2.290217
2.2902195
2.2902195
2.320105
2.3201045
2.3201055
2.3201055
2.3201065
2.3201095
2.320113
2.3201175
2.3201195
2.32012
2.352319
2.352319
2.3523195
2.3523195
2.3523205
2.352323
2.352327
2.3523305
2.352333
2.3523335
2.3871245
2.3871245
2.387125
2.387125
2.387126
2.3871285
2.3871315
2.3871355
2.387138
2.387139
2.424886
2.424886
2.424886
2.4248855
2.4248865
2.4248885
2.424892
2.4248965
2.4248985
2.4249
2.466069
2.4660685
2.4660685
2.466068
2.4660685
2.4660715
2.466075
2.466079
2.4660815
2.4660825
2.5112355
2.5112355
2.5112355
2.5112355
2.511236
2.511239
2.5112425
2.5112465
2.5112485
2.51125
2.5609635
2.5609635
2.560963
2.560964
2.560965
2.5609675
2.560971
2.560974
2.5609765
2.5609775
2.615536
2.615536
2.615536
2.615537
2.6155385
2.6155405
2.615543
2.6155465
2.6155485
2.615549
2.6740095
2.67401
2.674011
2.674012
2.6740125
2.674015
2.674018
2.6740205
2.674022
2.674022
2.731729
2.73173
2.731731
2.7317325
2.731733
2.731735
2.731738
2.7317405
2.7317415
2.7317415
2.774847
2.7748485
2.7748495
2.7748505
2.7748515
2.7748535
2.7748565
2.774858
2.774859
2.7748575
2.0422155
2.042213
2.0422135
2.0422145
2.0422155
2.0422165
2.0422185
2.04222
2.042221
2.0422215
2.043631
2.04363
2.0436295
2.043631
2.0436325
2.043634
2.0436355
2.0436375
2.043639
2.0436385
2.0464665
2.046466
2.046466
2.0464675
2.0464695
2.046471
2.046473
2.0464745
2.0464765
2.0464765
2.0507245
2.050724
2.0507245
2.050726
2.050727
2.050729
2.0507315
2.0507335
2.050735
2.050735
2.056408
2.056407
2.0564075
2.056409
2.0564105
2.0564125
2.0564155
2.0564185
2.0564195
2.0564195
2.0635215
2.0635205
2.063521
2.0635225
2.0635245
2.0635275
2.06353
2.063533
2.063534
2.063534
2.072073
2.0720715
2.0720725
2.0720745
2.072076
2.072079
2.072082
2.0720845
2.072086
2.072086
2.08207
2.0820685
2.082069
2.0820715
2.0820735
2.082076
2.082079
2.0820815
2.082082
2.082082
2.0935215
2.093521
2.093522
2.093524
2.0935255
2.0935285
2.093531
2.0935325
2.0935335
2.0935335
2.106441
2.10644
2.1064415
2.1064425
2.106445
2.106447
2.10645
2.106452
2.106452
2.106452
2.1208415
2.120841
2.120842
2.1208435
2.120845
2.120848
2.1208505
2.120852
2.1208525
2.1208525
2.1367405
2.13674
2.1367405
2.136742
2.1367435
2.136746
2.136749
2.1367505
2.136752
2.136752
2.154158
2.154157
2.154158
2.1541595
2.1541615
2.154163
2.1541665
2.1541685
2.1541695
2.15417
2.173119
2.173118
2.1731185
2.17312
2.1731215
2.173124
2.173127
2.1731295
2.1731305
2.173131
2.1936535
2.193652
2.193653
2.193654
2.1936565
2.193659
2.193662
2.1936645
2.1936655
2.1936655
2.2157985
2.215798
2.2157985
2.2158
2.215802
2.215805
2.2158075
2.21581
2.215811
2.215811
2.239602
2.239601
2.2396015
2.2396035
2.2396055
2.239608
2.2396115
2.2396135
2.239614
2.239614
2.2651205
2.2651195
2.26512
2.265122
2.265124
2.2651265
2.2651295
2.2651315
2.265132
2.265132
2.292427
2.292426
2.292427
2.2924285
2.292431
2.292433
2.292436
2.2924375
2.292438
2.292438
2.321612
2.3216115
2.3216125
2.3216145
2.3216165
2.3216185
2.3216205
2.321622
2.3216225
2.321623
2.352787
2.3527865
2.3527875
2.3527895
2.352791
2.3527925
2.352795
2.352797
2.3527975
2.3527975
2.386083
2.3860835
2.3860845
2.3860855
2.3860865
2.3860885
2.386091
2.386093
2.386094
2.386094
2.421646
2.421646
2.421646
2.421647
2.421648
2.42165
2.421653
2.421655
2.421656
2.4216565
2.459604
2.4596035
2.4596035
2.4596035
2.4596055
2.4596075
2.4596105
2.459613
2.459614
2.4596145
2.4999985
2.499998
2.4999985
2.4999995
2.500001
2.5000035
2.500006
2.5000085
2.50001
2.5000105
2.5426215
2.542621
2.542622
2.542623
2.542625
2.542627
2.542629
2.542632
2.5426335
2.542633
2.5866475
2.586648
2.5866495
2.5866505
2.586652
2.586654
2.586657
2.586659
2.5866595
2.586659
2.629927
2.629928
2.629929
2.6299305
2.629932
2.629934
2.6299365
2.6299375
2.6299375
2.6299365
2.667791
2.6677915
2.667793
2.667794
2.6677955
2.6677975
2.6678
2.667801
2.6678
2.6677975
2.691865
2.691866
2.691867
2.691868
2.6918695
2.691872
2.691873
2.691873
2.691871
2.6918705
2.0442245
2.044224
2.0442255
2.0442265
2.0442275
2.0442285
2.044229
2.04423
2.04423
2.04423
2.045644
2.045644
2.0456455
2.0456465
2.045648
2.045649
2.0456495
2.04565
2.04565
2.0456495
2.048486
2.048486
2.048488
2.048489
2.0484895
2.0484905
2.0484915
2.048492
2.0484925
2.048492
2.0527515
2.0527515
2.0527535
2.0527545
2.052755
2.0527565
2.0527575
2.0527585
2.0527585
2.052758
2.0584435
2.058444
2.058445
2.0584465
2.058448
2.05845
2.058451
2.058452
2.0584515
2.058451
2.065568
2.065568
2.0655695
2.065571
2.0655725
2.065574
2.065576
2.0655765
2.065576
2.065576
2.07413
2.07413
2.074131
2.074133
2.0741345
2.0741365
2.0741375
2.074138
2.0741385
2.0741375
2.084136
2.0841355
2.084137
2.0841395
2.084141
2.0841425
2.084144
2.084144
2.084144
2.0841435
2.095594
2.0955935
2.0955955
2.0955975
2.095599
2.0956005
2.0956015
2.095602
2.0956015
2.0956005
2.108513
2.1085135
2.1085155
2.1085175
2.108519
2.1085205
2.108521
2.108521
2.108521
2.1085195
2.1229045
2.122905
2.122907
2.1229095
2.1229105
2.122912
2.1229125
2.122912
2.122912
2.122911
2.13878
2.13878
2.138782
2.1387845
2.1387855
2.138787
2.1387875
2.1387875
2.138787
2.138786
2.1561515
2.156152
2.156154
2.1561565
2.156158
2.156159
2.156159
2.156159
2.1561595
2.156158
2.1750355
2.175036
2.1750375
2.17504
2.175041
2.175042
2.1750425
2.1750425
2.1750425
2.175041
2.1954475
2.1954475
2.195449
2.1954515
2.1954525
2.1954535
2.1954545
2.1954545
2.195454
2.1954525
2.2174055
2.2174055
2.2174075
2.2174095
2.2174115
2.2174125
2.217413
2.2174125
2.217412
2.2174105
2.240931
2.2409315
2.240933
2.240936
2.2409375
2.2409385
2.240938
2.2409375
2.2409375
2.2409355
2.2660455
2.266046
2.266048
2.2660505
2.2660525
2.2660535
2.266053
2.266052
2.266052
2.26605
2.292772
2.2927725
2.2927745
2.292777
2.2927785
2.2927795
2.292779
2.292778
2.2927775
2.2927765
2.321131
2.3211315
2.3211335
2.321136
2.321137
2.3211375
2.321137
2.3211365
2.321136
2.321135
2.351135
2.351136
2.3511375
2.35114
2.3511405
2.351141
2.3511405
2.3511405
2.35114
2.3511385
2.3827785
2.382779
2.3827805
2.382782
2.3827825
2.3827835
2.382784
2.382783
2.3827825
2.382781
2.4160125
2.4160125
2.4160135
2.416016
2.4160165
2.4160175
2.4160175
2.4160175
2.4160175
2.416016
2.4507015
2.450701
2.4507025
2.4507045
2.4507055
2.450706
2.450707
2.450707
2.450707
2.450706
2.486535
2.486535
2.4865365
2.4865385
2.4865395
2.48654
2.486541
2.4865415
2.4865415
2.48654
2.5228775
2.5228775
2.5228795
2.522881
2.522882
2.5228825
2.5228835
2.5228845
2.5228835
2.5228815
2.5585085
2.558509
2.558511
2.5585125
2.5585135
2.5585145
2.5585155
2.5585155
2.5585145
2.5585125
2.59126
2.5912605
2.5912615
2.591263
2.5912645
2.5912655
2.591266
2.5912655
2.5912645
2.5912615
2.6176417
2.6176417
2.6176432
2.6176444
2.617646
2.617647
2.6176469
2.6176458
2.6176437
2.6176417
2.6329558
2.6329554
2.6329565
2.6329576
2.632959
2.6329596
2.6329592
2.6329575
2.6329556
2.6329551
2.0448192
2.0448203
2.0448209
2.0448213
2.044822
2.0448217
2.0448207
2.0448198
2.0448187
2.044818
2.0462414
2.0462422
2.0462434
2.0462439
2.0462441
2.0462433
2.0462426
2.0462414
2.0462397
2.0462394
2.0490864
2.0490868
2.0490882
2.0490883
2.049088
2.0490876
2.0490869
2.0490861
2.0490845
2.0490838
2.0533553
2.0533561
2.0533567
2.0533567
2.0533575
2.0533572
2.0533564
2.0533556
2.0533542
2.0533536
2.0590526
2.0590529
2.0590537
2.0590542
2.0590548
2.0590545
2.0590534
2.0590525
2.0590514
2.0590507
2.0661811
2.0661821
2.0661829
2.0661831
2.0661834
2.0661831
2.0661825
2.0661814
2.0661805
2.0661798
2.0747464
2.0747474
2.0747479
2.0747483
2.0747489
2.0747485
2.0747479
2.0747469
2.0747459
2.0747447
2.0847532
2.0847541
2.0847552
2.0847555
2.0847559
2.0847557
2.0847548
2.084754
2.0847531
2.0847518
2.0962081
2.0962086
2.0962097
2.0962104
2.0962113
2.0962106
2.0962097
2.096209
2.0962074
2.0962062
2.1091167
2.109118
2.109119
2.1091204
2.1091206
2.1091205
2.1091193
2.1091179
2.1091167
2.1091154
2.1234877
2.1234887
2.1234898
2.1234907
2.1234917
2.123491
2.1234894
2.1234884
2.1234869
2.1234854
2.1393259
2.1393268
2.1393286
2.1393296
2.13933
2.1393291
2.1393276
2.1393265
2.1393244
2.139323
2.1566373
2.1566386
2.15664
2.1566412
2.1566411
2.1566407
2.156639
2.1566376
2.1566357
2.1566339
2.1754272
2.1754285
2.1754301
2.1754308
2.1754309
2.1754297
2.1754282
2.1754269
2.1754246
2.1754226
2.1956979
2.1956997
2.1957005
2.1957016
2.1957011
2.1957001
2.1956985
2.1956967
2.1956944
2.1956926
2.2174493
2.2174502
2.2174517
2.2174523
2.2174524
2.2174512
2.2174494
2.2174474
2.2174451
2.2174433
2.2406755
2.2406769
2.2406783
2.2406791
2.2406791
2.2406778
2.240675
2.2406732
2.2406709
2.2406694
2.265364
2.265365
2.2653671
2.2653682
2.265368
2.2653659
2.2653635
2.2653616
2.2653593
2.2653578
2.2914895
2.291491
2.2914925
2.2914939
2.291493
2.2914912
2.2914887
2.2914869
2.291485
2.2914833
2.3190085
2.3190096
2.3190114
2.3190119
2.3190112
2.3190095
2.3190073
2.3190058
2.3190037
2.3190019
2.3478473
2.3478487
2.3478498
2.3478499
2.3478493
2.347848
2.3478457
2.3478441
2.3478418
2.3478401
2.3778857
2.3778861
2.3778869
2.3778872
2.3778871
2.3778858
2.3778839
2.3778822
2.3778796
2.3778782
2.4089275
2.4089278
2.4089291
2.4089296
2.4089291
2.4089281
2.4089261
2.4089247
2.4089226
2.4089209
2.4406571
2.4406576
2.4406591
2.4406602
2.4406596
2.4406586
2.440657
2.4406556
2.4406535
2.4406516
2.4725667
2.4725672
2.4725687
2.4725692
2.4725688
2.4725681
2.4725671
2.4725655
2.472563
2.4725608
2.5038473
2.5038479
2.5038488
2.5038494
2.5038488
2.5038483
2.5038477
2.5038457
2.5038429
2.5038412
2.5332533
2.5332535
2.5332538
2.5332546
2.5332547
2.5332542
2.5332528
2.5332507
2.5332487
2.5332469
2.5589637
2.5589633
2.5589639
2.5589641
2.5589645
2.5589643
2.5589626
2.5589613
2.5589583
2.5589572
2.5785609
2.5785606
2.5785609
2.5785614
2.5785615
2.5785608
2.5785593
2.5785569
2.5785552
2.5785555
2.5893596
2.5893591
2.5893597
2.5893597
2.5893592
2.5893581
2.5893568
2.5893554
2.5893547
2.5893539
2.0439953
2.0439951
2.0439953
2.0439957
2.043995
2.0439932
2.0439912
2.0439892
2.0439875
2.0439863
2.0454172
2.0454175
2.0454178
2.0454179
2.0454162
2.0454146
2.0454127
2.0454109
2.0454085
2.0454078
2.0482627
2.0482627
2.0482623
2.0482621
2.048261
2.0482598
2.0482578
2.0482557
2.0482537
2.0482529
2.0525331
2.0525329
2.0525323
2.052532
2.0525313
2.0525294
2.0525273
2.0525255
2.0525239
2.0525234
2.0582312
2.0582307
2.0582305
2.0582301
2.0582284
2.0582265
2.0582249
2.058223
2.0582219
2.0582217
2.0653595
2.0653597
2.0653589
2.0653584
2.0653569
2.0653551
2.0653531
2.0653517
2.0653506
2.0653501
2.0739229
2.0739228
2.0739223
2.0739213
2.0739198
2.073918
2.0739166
2.0739153
2.0739133
2.0739134
2.0839245
2.0839244
2.0839239
2.0839232
2.083922
2.0839204
2.0839187
2.0839176
2.0839158
2.0839152
2.0953691
2.0953692
2.0953687
2.0953684
2.0953674
2.0953659
2.0953643
2.0953626
2.0953607
2.0953608
2.1082615
2.1082611
2.1082608
2.1082608
2.1082598
2.1082584
2.1082567
2.1082549
2.108253
2.1082535
2.1226045
2.1226045
2.1226042
2.1226038
2.122603
2.1226015
2.1225995
2.1225979
2.1225957
2.1225959
2.1383994
2.1383994
2.1383993
2.1383989
2.1383981
2.1383963
2.1383942
2.138392
2.13839
2.1383899
2.1556456
2.1556456
2.1556456
2.1556451
2.1556435
2.1556418
2.1556399
2.1556377
2.155635
2.1556349
2.1743386
2.1743391
2.174339
2.1743378
2.1743364
2.1743342
2.1743321
2.1743297
2.174327
2.1743269
2.1944692
2.1944696
2.1944692
2.1944678
2.1944661
2.1944641
2.1944616
2.1944588
2.194456
2.194456
2.2160193
2.2160194
2.2160186
2.2160176
2.2160153
2.216013
2.2160104
2.2160079
2.2160051
2.2160052
2.2389596
2.2389598
2.2389594
2.238958
2.2389559
2.2389534
2.238951
2.2389484
2.2389455
2.2389458
2.2632474
2.2632477
2.2632474
2.2632461
2.2632433
2.2632405
2.2632381
2.2632358
2.2632331
2.2632335
2.2888163
2.2888166
2.2888161
2.2888146
2.2888119
2.2888091
2.2888066
2.2888045
2.2888021
2.2888018
2.3155681
2.3155684
2.3155676
2.3155656
2.3155636
2.3155612
2.315559
2.3155563
2.3155537
2.3155539
2.343361
2.3433611
2.3433602
2.3433584
2.3433566
2.3433542
2.3433519
2.3433495
2.3433467
2.3433469
2.3719891
2.3719891
2.371988
2.3719865
2.3719848
2.3719823
2.3719799
2.3719779
2.3719752
2.3719752
2.4011558
2.401156
2.4011552
2.4011534
2.4011517
2.4011498
2.4011479
2.4011451
2.4011422
2.4011422
2.430437
2.4304373
2.4304367
2.4304349
2.4304333
2.4304316
2.4304294
2.4304269
2.4304239
2.430423
2.4592304
2.4592301
2.4592295
2.4592278
2.4592264
2.4592251
2.4592229
2.4592198
2.4592164
2.4592161
2.4866948
2.4866944
2.4866932
2.4866916
2.4866909
2.4866896
2.4866872
2.4866838
2.4866809
2.4866814
2.5116955
2.5116946
2.5116935
2.5116923
2.5116911
2.5116897
2.5116875
2.5116846
2.5116822
2.5116829
2.5327832
2.5327822
2.5327813
2.5327799
2.5327788
2.5327772
2.532775
2.5327728
2.5327709
2.5327734
2.5482812
2.5482805
2.5482793
2.5482778
2.5482762
2.5482745
2.5482728
2.5482713
2.5482711
2.5482728
2.5565648
2.5565643
2.5565631
2.5565609
2.5565591
2.556558
2.5565567
2.5565566
2.5565559
2.5565581
2.0417466
2.0417463
2.0417464
2.0417454
2.0417439
2.0417422
2.0417401
2.0417382
2.0417363
2.0417354
2.0431683
2.0431675
2.0431676
2.0431664
2.043165
2.0431634
2.0431611
2.0431591
2.0431571
2.0431566
2.0460132
2.0460123
2.0460119
2.0460106
2.046009
2.0460072
2.046005
2.0460028
2.0460013
2.0460015
2.0502819
2.0502813
2.0502807
2.0502792
2.0502773
2.0502751
2.0502728
2.050271
2.05027
2.0502703
2.0559777
2.0559772
2.055976
2.0559741
2.0559718
2.0559697
2.0559678
2.0559659
2.055965
2.0559653
2.0631028
2.0631017
2.0631003
2.0630981
2.0630958
2.063094
2.0630921
2.0630902
2.063089
2.0630894
2.0716595
2.0716582
2.0716568
2.0716547
2.0716525
2.0716507
2.071649
2.071647
2.0716458
2.0716462
2.0816515
2.0816505
2.0816491
2.081647
2.0816451
2.0816435
2.0816419
2.0816399
2.0816386
2.081639
2.0930825
2.0930813
2.0930799
2.0930781
2.0930766
2.093075
2.0930734
2.0930713
2.0930703
2.0930706
2.1059543
2.1059529
2.1059518
2.1059505
2.105949
2.1059475
2.1059458
2.1059436
2.1059427
2.1059428
2.1202674
2.1202663
2.1202654
2.1202641
2.1202626
2.120261
2.1202592
2.120257
2.120256
2.1202558
2.1360196
2.1360188
2.1360178
2.1360162
2.1360147
2.136013
2.1360111
2.1360087
2.1360076
2.1360073
2.1532048
2.1532039
2.1532027
2.1532008
2.1531991
2.1531974
2.1531952
2.1531927
2.1531914
2.1531912
2.1718111
2.1718101
2.1718085
2.1718063
2.1718045
2.1718026
2.1718003
2.1717975
2.1717963
2.1717962
2.1918183
2.1918174
2.1918155
2.1918132
2.1918111
2.1918091
2.1918066
2.1918037
2.1918025
2.1918024
2.2131949
2.2131939
2.2131921
2.2131896
2.2131873
2.2131851
2.2131826
2.2131798
2.2131786
2.2131785
2.2358939
2.2358931
2.2358911
2.2358884
2.2358857
2.2358836
2.2358814
2.2358787
2.2358774
2.2358774
2.2598473
2.2598466
2.2598443
2.2598412
2.2598384
2.2598365
2.2598346
2.2598319
2.2598307
2.2598308
2.2849569
2.2849559
2.2849533
2.2849502
2.2849476
2.2849459
2.2849439
2.2849413
2.2849403
2.2849405
2.3110841
2.3110827
2.3110802
2.3110773
2.3110751
2.3110734
2.3110714
2.3110688
2.3110678
2.3110681
2.338037
2.3380357
2.3380334
2.3380307
2.3380287
2.3380269
2.3380249
2.3380223
2.3380213
2.3380213
2.365552
2.3655508
2.3655486
2.3655459
2.3655437
2.3655419
2.36554
2.3655374
2.365536
2.3655358
2.3932689
2.393268
2.3932655
2.3932626
2.3932605
2.393259
2.3932571
2.3932539
2.3932522
2.3932519
2.4207045
2.4207035
2.4207008
2.4206979
2.4206962
2.4206948
2.4206925
2.4206889
2.420687
2.4206866
2.4472222
2.447221
2.4472183
2.4472158
2.4472143
2.4472127
2.44721
2.4472063
2.4472046
2.4472048
2.4720061
2.4720048
2.4720023
2.472
2.4719986
2.4719967
2.471994
2.4719906
2.4719894
2.4719903
2.4940511
2.4940499
2.4940474
2.4940452
2.4940436
2.4940417
2.4940391
2.4940363
2.4940358
2.4940375
2.5121945
2.5121933
2.5121908
2.5121883
2.5121864
2.5121845
2.5121824
2.5121803
2.5121817
2.5121832
2.5252192
2.525218
2.5252154
2.5252126
2.5252105
2.525209
2.5252079
2.5252076
2.5252085
2.5252091
2.5320557
2.5320544
2.5320516
2.5320488
2.5320475
2.5320467
2.5320463
2.5320456
2.5320456
2.5320475
2.0380756
2.0380755
2.0380752
2.0380735
2.0380726
2.0380711
2.0380696
2.038068
2.0380667
2.0380665
2.0394966
2.0394961
2.0394954
2.039494
2.0394931
2.0394915
2.0394899
2.0394882
2.039487
2.0394873
2.0423392
2.0423389
2.0423379
2.0423365
2.0423348
2.0423332
2.0423315
2.04233
2.0423293
2.0423296
2.0466045
2.0466045
2.0466033
2.0466011
2.0465993
2.0465977
2.0465963
2.0465947
2.0465939
2.046594
2.0522954
2.052295
2.0522929
2.0522905
2.0522887
2.0522875
2.0522858
2.0522838
2.0522832
2.0522832
2.0594129
2.0594118
2.0594099
2.0594076
2.0594061
2.0594046
2.0594027
2.0594006
2.0593997
2.0593997
2.0679599
2.0679591
2.0679573
2.0679551
2.0679533
2.0679518
2.0679499
2.0679476
2.0679468
2.0679469
2.0779402
2.0779394
2.0779376
2.0779352
2.0779335
2.0779322
2.0779305
2.0779282
2.0779272
2.0779275
2.0893555
2.0893544
2.0893525
2.0893503
2.089349
2.0893477
2.0893459
2.0893436
2.0893428
2.089343
2.1022061
2.102205
2.1022034
2.1022017
2.1022004
2.102199
2.1021971
2.1021949
2.1021941
2.1021941
2.1164916
2.1164908
2.1164894
2.1164877
2.1164864
2.1164848
2.1164829
2.1164808
2.1164797
2.1164796
2.1322073
2.1322067
2.132205
2.1322031
2.1322018
2.1322003
2.1321984
2.1321959
2.1321947
2.1321945
2.1493429
2.1493419
2.14934
2.1493382
2.149337
2.1493354
2.1493333
2.1493308
2.1493295
2.1493293
2.1678811
2.16788
2.1678781
2.1678763
2.1678751
2.1678734
2.1678711
2.1678687
2.1678675
2.1678672
2.1877956
2.1877946
2.1877927
2.1877909
2.1877895
2.1877877
2.1877853
2.1877828
2.1877817
2.1877814
2.2090456
2.2090446
2.2090427
2.2090408
2.2090392
2.2090374
2.2090351
2.2090325
2.2090314
2.209031
2.2315714
2.2315704
2.2315683
2.2315659
2.2315644
2.2315629
2.2315607
2.2315582
2.2315571
2.2315569
2.2552879
2.2552869
2.2552844
2.2552819
2.2552805
2.2552793
2.2552771
2.2552748
2.2552739
2.2552737
2.280076
2.2800745
2.2800719
2.2800697
2.2800686
2.2800673
2.2800652
2.280063
2.2800623
2.2800624
2.3057707
2.305769
2.3057667
2.3057649
2.3057638
2.3057624
2.3057604
2.3057584
2.3057579
2.3057578
2.3321488
2.3321474
2.3321455
2.3321435
2.3321422
2.3321408
2.332139
2.332137
2.3321364
2.3321361
2.358911
2.3589099
2.3589076
2.3589054
2.3589039
2.3589028
2.358901
2.3588987
2.3588976
2.3588972
2.3856611
2.3856598
2.3856571
2.3856547
2.3856536
2.3856525
2.3856502
2.3856473
2.3856461
2.3856459
2.4118873
2.4118855
2.4118827
2.4118806
2.4118797
2.4118783
2.4118754
2.4118724
2.4118713
2.4118717
2.4369458
2.4369441
2.4369416
2.4369398
2.4369387
2.4369369
2.4369338
2.4369311
2.4369304
2.4369311
2.4600552
2.4600538
2.4600517
2.4600498
2.4600483
2.4600462
2.4600435
2.4600408
2.4600408
2.4600417
2.4803089
2.4803077
2.4803055
2.4803032
2.4803015
2.4802996
2.480297
2.4802951
2.4802958
2.480297
2.4967253
2.4967242
2.4967216
2.4967191
2.4967174
2.4967157
2.4967139
2.4967134
2.4967142
2.4967144
2.5083463
2.5083447
2.5083418
2.5083395
2.5083383
2.5083376
2.5083368
2.5083361
2.508336
2.5083366
2.5143828
2.5143806
2.5143782
2.5143769
2.5143764
2.514376
2.5143751
2.5143737
2.5143746
2.5143737
2.0329856
2.032985
2.0329846
2.0329834
2.032983
2.0329818
2.0329808
2.0329796
2.0329793
2.0329799
2.0344044
2.0344044
2.0344035
2.0344028
2.0344018
2.0344007
2.0343995
2.0343985
2.0343986
2.0343991
2.0372435
2.0372434
2.0372423
2.0372411
2.0372399
2.0372389
2.0372378
2.0372373
2.0372373
2.037237
2.0415033
2.0415031
2.0415016
2.0414999
2.0414991
2.0414983
2.0414973
2.0414963
2.0414957
2.0414953
2.0471861
2.0471851
2.0471834
2.0471822
2.0471814
2.0471809
2.0471792
2.0471776
2.047177
2.0471766
2.0542931
2.0542925
2.054291
2.0542899
2.0542894
2.0542882
2.0542863
2.0542845
2.0542835
2.0542833
2.0628288
2.0628283
2.0628268
2.0628259
2.062825
2.0628239
2.0628217
2.0628196
2.0628186
2.0628183
2.0727953
2.0727947
2.0727934
2.0727922
2.0727913
2.0727902
2.0727881
2.0727859
2.0727848
2.0727846
2.0841941
2.0841934
2.084192
2.0841909
2.08419
2.0841889
2.0841867
2.0841845
2.0841835
2.0841835
2.0970255
2.0970248
2.0970235
2.0970226
2.0970215
2.0970202
2.0970181
2.097016
2.097015
2.0970152
2.1112884
2.1112876
2.1112864
2.1112853
2.1112841
2.1112829
2.1112809
2.1112787
2.1112776
2.111278
2.1269766
2.126976
2.1269745
2.1269733
2.1269724
2.1269714
2.1269693
2.1269668
2.1269658
2.1269663
2.1440788
2.1440779
2.1440765
2.1440757
2.144075
2.144074
2.1440717
2.1440692
2.1440681
2.1440685
2.1625755
2.1625746
2.1625737
2.162573
2.1625725
2.1625713
2.1625691
2.1625666
2.1625653
2.1625656
2.1824375
2.1824369
2.1824361
2.1824356
2.1824349
2.1824337
2.1824314
2.1824289
2.1824274
2.1824275
2.2036199
2.2036194
2.2036185
2.2036179
2.2036172
2.203616
2.2036137
2.2036111
2.2036096
2.2036096
2.2260568
2.2260561
2.2260552
2.2260545
2.226054
2.2260528
2.2260504
2.2260479
2.2260467
2.226047
2.2496554
2.2496545
2.2496535
2.249653
2.2496528
2.2496515
2.2496491
2.249647
2.2496462
2.2496464
2.2742865
2.2742854
2.2742845
2.2742843
2.274284
2.2742826
2.2742805
2.2742789
2.2742782
2.2742785
2.2997729
2.2997719
2.2997713
2.2997711
2.2997705
2.2997693
2.2997676
2.2997662
2.2997656
2.2997657
2.3258768
2.3258762
2.3258755
2.3258748
2.3258742
2.3258733
2.3258718
2.3258702
2.3258694
2.3258695
2.3522819
2.3522813
2.35228
2.352279
2.3522786
2.3522778
2.3522761
2.3522742
2.3522735
2.3522739
2.3785758
2.3785747
2.3785733
2.3785723
2.378572
2.378571
2.3785688
2.3785669
2.3785664
2.3785673
2.4042354
2.4042341
2.4042328
2.4042322
2.4042317
2.4042302
2.4042276
2.404226
2.404226
2.4042273
2.4286173
2.4286164
2.4286154
2.4286147
2.4286136
2.4286119
2.4286093
2.428608
2.4286083
2.4286095
2.4509592
2.4509588
2.4509577
2.4509565
2.4509551
2.4509532
2.450951
2.4509499
2.4509506
2.4509518
2.470403
2.4704025
2.4704012
2.4703996
2.4703981
2.4703966
2.4703947
2.4703944
2.4703952
2.4703952
2.4860504
2.4860496
2.486048
2.4860463
2.4860455
2.4860446
2.4860436
2.4860434
2.4860425
2.4860427
2.4970555
2.4970539
2.4970523
2.4970517
2.4970516
2.4970512
2.4970501
2.4970487
2.4970483
2.4970487
2.5027452
2.5027436
2.5027432
2.5027433
2.5027431
2.5027426
2.5027408
2.5027402
2.5027403
2.5027406
2.0264764
2.0264761