/*--------------------------------*- C++ -*----------------------------------*\
| =========                 |                                                 |
| \\      /  F ield         | OpenFOAM: The Open Source CFD Toolbox           |
|  \\    /   O peration     | Version:  v2106                                 |
|   \\  /    A nd           | Website:  www.openfoam.com                      |
|    \\/     M anipulation  |                                                 |
\*---------------------------------------------------------------------------*/
FoamFile
{
    version     2.0;
    format      ascii;
    arch        "LSB;label=32;scalar=64";
    class       volScalarField;
    location    "0";
    object      gradz_Tmode4;
}
// * * * * * * * * * * * * * * * * * * * * * * * * * * * * * * * * * * * * * //

dimensions      [0 -1 0 1 0 0 0];

internalField   nonuniform List<scalar> 
6000
(
2.9205223
2.9204827
2.9204717
2.92043
2.920448
2.920434
2.920435
2.920429
2.920412
2.9203813
2.9096823
2.909678
2.909663
2.909637
2.9096283
2.9096203
2.909652
2.909664
2.909645
2.9096163
2.8878453
2.8878347
2.8878247
2.8878057
2.887799
2.8878197
2.8878237
2.8878253
2.8878363
2.88782
2.8544353
2.8544297
2.854426
2.8544287
2.8544567
2.854462
2.8544497
2.8544547
2.854437
2.854426
2.8086963
2.8086577
2.808652
2.808706
2.808728
2.8087393
2.8087247
2.8087177
2.8087017
2.808698
2.7494847
2.749457
2.7494773
2.7494957
2.7495037
2.749521
2.74951
2.7495283
2.7495263
2.7495153
2.675395
2.6753987
2.675406
2.675408
2.6754153
2.6754123
2.6754217
2.6754417
2.6754547
2.6754393
2.5846657
2.584679
2.5846893
2.5846953
2.5846847
2.5846813
2.5847063
2.5847237
2.584731
2.5847087
2.4751067
2.4751023
2.4751177
2.4751157
2.4751307
2.47513
2.475151
2.475172
2.4751653
2.475158
2.3440497
2.3440657
2.3440573
2.3440703
2.3440917
2.3440967
2.3440983
2.3441143
2.3441243
2.344145
2.188398
2.1883967
2.188396
2.1884257
2.188431
2.1884333
2.1884133
2.1884207
2.188447
2.1884783
2.004328
2.0043017
2.004321
2.004338
2.0043443
2.004347
2.0043347
2.0043303
2.0043463
2.004374
1.7873528
1.7873347
1.7873259
1.7873383
1.7873447
1.7873594
1.7873632
1.7873524
1.7873459
1.7873543
1.5321425
1.5321145
1.5321011
1.5321086
1.5321107
1.53212
1.5321306
1.5321301
1.5321127
1.5321076
1.2322558
1.232256
1.2322558
1.2322626
1.2322724
1.2322645
1.232272
1.2322801
1.2322722
1.2322662
0.88017536
0.88020165
0.88019196
0.8802116
0.88023343
0.88023283
0.88022475
0.88021709
0.88020876
0.88021557
0.46684133
0.46683623
0.46682993
0.46684903
0.46688727
0.46689957
0.46687347
0.46684937
0.46683867
0.46685373
-0.018817333
-0.018833933
-0.018811633
-0.018804133
-0.018768033
-0.0187715
-0.018799567
-0.018812533
-0.018818367
-0.0188232
-0.5902026
-0.59021033
-0.59017183
-0.59017613
-0.59017047
-0.5901848
-0.59020667
-0.5901919
-0.59019993
-0.5902104
-1.2639187
-1.2639197
-1.263911
-1.2639203
-1.2639327
-1.2639283
-1.2639447
-1.2639377
-1.263936
-1.2639257
-2.0609457
-2.060941
-2.0609797
-2.0609803
-2.0609833
-2.060964
-2.0609743
-2.0609853
-2.0609757
-2.0609543
-3.0083547
-3.0083533
-3.0084027
-3.0083933
-3.00838
-3.0083707
-3.008381
-3.008389
-3.0083867
-3.0083547
-4.1422637
-4.1422703
-4.1422833
-4.1422773
-4.1422497
-4.1422463
-4.1422557
-4.1422673
-4.1422643
-4.142228
-5.5128843
-5.5129003
-5.512892
-5.5128863
-5.5128593
-5.5128413
-5.5128533
-5.512861
-5.5128443
-5.512827
-7.1939953
-7.1940153
-7.194008
-7.193997
-7.1939777
-7.193966
-7.1939703
-7.1939623
-7.1939647
-7.1939573
-9.3021377
-9.3021507
-9.302157
-9.3021437
-9.302132
-9.3021147
-9.3021
-9.3021037
-9.302129
-9.3021413
-12.040058
-12.040056
-12.040068
-12.040068
-12.040056
-12.040024
-12.040021
-12.040035
-12.040053
-12.040072
-15.809673
-15.809658
-15.809669
-15.809672
-15.809651
-15.809647
-15.80966
-15.80966
-15.809657
-15.809669
-21.552981
-21.552977
-21.552976
-21.552967
-21.552959
-21.552977
-21.552987
-21.552982
-21.552962
-21.55292
-31.944848
-31.944855
-31.944843
-31.944846
-31.944835
-31.944843
-31.944855
-31.944856
-31.944793
-31.944767
2.7114655
2.71141
2.7113975
2.711417
2.7114285
2.711455
2.711474
2.7114775
2.711478
2.7114815
2.6997325
2.699704
2.6997115
2.69974
2.6997715
2.699794
2.699785
2.69978
2.699775
2.6997785
2.6760925
2.6760825
2.6761025
2.676139
2.6761595
2.6761635
2.6761625
2.676157
2.676153
2.676156
2.6400115
2.640013
2.6400375
2.6400605
2.6400735
2.640081
2.640086
2.640083
2.6400915
2.64009
2.590682
2.5907045
2.590722
2.59073
2.5907435
2.59075
2.590764
2.5907645
2.590765
2.590757
2.5270405
2.527057
2.5270645
2.527081
2.5270975
2.5271075
2.5271195
2.5271055
2.527098
2.5270915
2.4476825
2.447677
2.4476885
2.4477075
2.447726
2.4477395
2.44774
2.447728
2.447718
2.447715
2.350845
2.35084
2.3508415
2.3508575
2.3508735
2.350884
2.3508865
2.350884
2.35088
2.3508785
2.234415
2.2344025
2.2344035
2.2344155
2.2344195
2.234436
2.2344505
2.234451
2.2344515
2.2344405
2.095815
2.095794
2.0958075
2.0958165
2.0958225
2.0958425
2.0958665
2.095867
2.0958575
2.0958345
1.931959
1.931958
1.9319715
1.9319815
1.931997
1.932018
1.932045
1.9320445
1.9320255
1.9320045
1.7392221
1.7392307
1.7392488
1.7392662
1.7392843
1.739304
1.7393235
1.7393241
1.7393138
1.7392997
1.5132589
1.5132676
1.5132978
1.5133195
1.5133425
1.5133588
1.5133726
1.5133785
1.5133833
1.5133766
1.2489398
1.248953
1.2489812
1.2490099
1.2490363
1.2490595
1.2490779
1.2490843
1.2490943
1.2490916
0.9402358
0.94022745
0.9402523
0.94028165
0.9403057
0.94034225
0.9403682
0.94037275
0.94037655
0.94037165
0.57990767
0.57988975
0.57991838
0.5799396
0.57995904
0.57999334
0.58002577
0.58003692
0.58003965
0.5800311
0.15937185
0.1593718
0.15939695
0.1594147
0.1594243
0.15944875
0.15948745
0.15950685
0.15951575
0.1595108
-0.33160225
-0.33159675
-0.33158925
-0.3315727
-0.3315696
-0.33154275
-0.3315022
-0.33148415
-0.33147055
-0.33146735
-0.90543495
-0.90543695
-0.90544845
-0.9054373
-0.90542895
-0.9053994
-0.90535955
-0.90534875
-0.90533805
-0.9053376
-1.5773055
-1.5773175
-1.5773255
-1.5773195
-1.5773055
-1.5772825
-1.577244
-1.5772315
-1.577228
-1.577242
-2.365977
-2.365992
-2.3659775
-2.365976
-2.3659635
-2.365945
-2.365912
-2.365893
-2.3658925
-2.365916
-3.295073
-3.2950805
-3.2950545
-3.29505
-3.295041
-3.295022
-3.294993
-3.2949705
-3.2949715
-3.2949985
-4.394992
-4.394991
-4.3949735
-4.3949585
-4.3949545
-4.3949375
-4.3949055
-4.394882
-4.3948815
-4.3949075
-5.7058155
-5.705808
-5.7057925
-5.7057715
-5.7057665
-5.7057515
-5.7057165
-5.7056965
-5.705701
-5.705719
-7.281579
-7.281563
-7.281544
-7.2815255
-7.281511
-7.28149
-7.281461
-7.281451
-7.281453
-7.281467
-9.1961875
-9.19617
-9.196146
-9.1961265
-9.196109
-9.196095
-9.1960805
-9.1960775
-9.1960725
-9.19608
-11.548927
-11.548914
-11.548884
-11.548861
-11.548852
-11.548854
-11.548852
-11.548854
-11.548852
-11.548853
-14.455357
-14.455345
-14.455322
-14.455312
-14.455316
-14.45532
-14.455322
-14.45533
-14.455338
-14.45534
-17.95327
-17.95326
-17.953251
-17.953259
-17.953267
-17.953264
-17.953268
-17.953279
-17.953292
-17.953312
-21.494049
-21.494045
-21.494051
-21.494058
-21.494068
-21.49407
-21.494065
-21.494067
-21.4941
-21.49411
2.544746
2.544765
2.544798
2.544822
2.544828
2.5448265
2.5448215
2.5448155
2.5448025
2.544797
2.532578
2.5326035
2.532636
2.5326525
2.53265
2.5326495
2.5326335
2.5326175
2.532608
2.532609
2.50799
2.508015
2.5080355
2.5080415
2.508033
2.5080245
2.5080125
2.508002
2.50799
2.507985
2.470455
2.470477
2.4704865
2.4704885
2.470479
2.4704745
2.470466
2.4704505
2.470436
2.470429
2.419213
2.419228
2.4192385
2.4192355
2.4192305
2.4192285
2.419217
2.419199
2.4191865
2.419179
2.353233
2.3532525
2.3532565
2.3532525
2.3532515
2.353247
2.353238
2.3532195
2.3532035
2.3531955
2.2711845
2.2711975
2.271202
2.2711995
2.271193
2.2711935
2.271186
2.271169
2.2711515
2.2711425
2.1713995
2.1714055
2.171405
2.171401
2.171396
2.171402
2.1713955
2.171383
2.1713655
2.1713555
2.0518335
2.051845
2.051843
2.051837
2.051833
2.0518415
2.051839
2.0518255
2.051809
2.051801
1.9100525
1.9100585
1.910065
1.9100635
1.910061
1.9100705
1.910067
1.9100535
1.9100405
1.9100325
1.7431445
1.7431505
1.7431615
1.7431631
1.7431637
1.7431687
1.7431652
1.7431559
1.7431438
1.743136
1.5476444
1.5476629
1.5476765
1.547679
1.5476779
1.5476832
1.5476855
1.5476794
1.5476713
1.5476645
1.3195069
1.3195248
1.3195413
1.3195408
1.3195412
1.319556
1.3195626
1.3195601
1.3195571
1.3195522
1.0539509
1.0539647
1.0539759
1.0539753
1.0539859
1.0540093
1.0540175
1.0540183
1.0540173
1.054014
0.7453545
0.745362
0.74537165
0.74537825
0.74539545
0.74542105
0.7454334
0.7454364
0.74543495
0.7454311
0.38712023
0.38712136
0.38713697
0.38714822
0.3871638
0.38719051
0.38720738
0.38721323
0.38721288
0.3872063
-0.02852135
-0.02851465
-0.02849895
-0.0284887
-0.0284751
-0.02844815
-0.0284288
-0.0284194
-0.028418
-0.02842405
-0.51073565
-0.51072715
-0.51071695
-0.51070765
-0.51069615
-0.51066875
-0.51064655
-0.51063505
-0.5106321
-0.5106334
-1.0704059
-1.0704024
-1.0703955
-1.0703895
-1.0703794
-1.0703486
-1.070323
-1.0703123
-1.0703084
-1.0703109
-1.7204936
-1.7204922
-1.7204876
-1.7204861
-1.7204722
-1.7204385
-1.720413
-1.7204033
-1.7204011
-1.7204074
-2.4764925
-2.476496
-2.476488
-2.476485
-2.4764655
-2.476436
-2.476416
-2.476406
-2.4764055
-2.4764115
-3.357023
-3.3570265
-3.3570105
-3.357001
-3.356984
-3.356961
-3.356945
-3.356935
-3.356932
-3.356941
-4.384442
-4.384433
-4.3844145
-4.384402
-4.3843925
-4.3843725
-4.384357
-4.3843475
-4.384345
-4.3843565
-5.5852825
-5.5852645
-5.585248
-5.5852375
-5.5852305
-5.585212
-5.585199
-5.5851935
-5.5851965
-5.585205
-6.9898235
-6.9898105
-6.9897945
-6.989787
-6.9897785
-6.989763
-6.989757
-6.9897565
-6.9897585
-6.9897645
-8.6286055
-8.628595
-8.6285745
-8.6285695
-8.6285635
-8.6285565
-8.628558
-8.6285565
-8.6285505
-8.6285525
-10.519847
-10.51983
-10.519811
-10.519809
-10.519811
-10.519813
-10.519812
-10.5198
-10.519793
-10.519802
-12.631977
-12.631963
-12.631953
-12.631956
-12.631964
-12.631962
-12.63195
-12.631936
-12.63194
-12.631946
-14.784204
-14.784197
-14.784193
-14.7842
-14.784204
-14.784193
-14.784179
-14.784174
-14.784178
-14.784207
-16.427862
-16.42786
-16.427863
-16.427866
-16.427869
-16.427857
-16.427847
-16.427842
-16.427867
-16.427895
2.390338
2.3903905
2.3904045
2.390395
2.3903825
2.390365
2.3903445
2.39033
2.390321
2.3903205
2.3779485
2.377967
2.3779805
2.377966
2.377936
2.377914
2.377903
2.377889
2.37788
2.3778815
2.3528495
2.352874
2.352867
2.3528385
2.352813
2.352799
2.3527845
2.352769
2.352755
2.3527555
2.314591
2.3146085
2.31459
2.314563
2.31455
2.314537
2.314514
2.3144925
2.3144795
2.3144845
2.262463
2.2624685
2.262457
2.262438
2.262422
2.2624025
2.2623765
2.262354
2.262347
2.2623505
2.1954945
2.195499
2.1954895
2.195469
2.1954515
2.1954305
2.1954065
2.195387
2.1953775
2.195377
2.1124345
2.1124465
2.112433
2.112411
2.112393
2.112374
2.112352
2.11233
2.112317
2.1123175
2.0117345
2.0117435
2.011731
2.011708
2.011691
2.011676
2.011653
2.0116285
2.011617
2.011623
1.891502
1.891514
1.891499
1.8914765
1.8914605
1.8914445
1.8914185
1.8913955
1.891389
1.891397
1.7494651
1.7494814
1.7494689
1.7494471
1.7494285
1.7494089
1.7493838
1.7493648
1.7493611
1.7493694
1.5829381
1.5829517
1.5829456
1.5829212
1.5828994
1.5828801
1.5828594
1.5828445
1.5828437
1.5828518
1.3887543
1.3887742
1.3887645
1.3887361
1.3887159
1.3887
1.3886845
1.3886754
1.388677
1.388684
1.1632221
1.1632437
1.1632293
1.1632017
1.1631855
1.1631748
1.1631644
1.1631598
1.1631617
1.1631664
0.9020325
0.9020467
0.90203475
0.9020112
0.9019993
0.9019939
0.9019876
0.90198375
0.9019835
0.9019871
0.60016325
0.6001789
0.6001687
0.60015005
0.6001445
0.60014345
0.60013875
0.60013315
0.6001308
0.6001358
0.25181071
0.25182682
0.25181814
0.25180661
0.25180595
0.25180739
0.25180167
0.25179479
0.25179389
0.25179963
-0.14975515
-0.1497458
-0.14974875
-0.14975445
-0.14975275
-0.14975115
-0.1497568
-0.1497619
-0.1497614
-0.14975535
-0.6123303
-0.612322
-0.61232125
-0.6123255
-0.6123206
-0.6123165
-0.61231945
-0.6123221
-0.6123218
-0.6123135
-1.144886
-1.1448756
-1.1448742
-1.1448764
-1.1448666
-1.1448573
-1.1448577
-1.1448602
-1.1448585
-1.144851
-1.7576947
-1.7576856
-1.7576821
-1.7576798
-1.7576653
-1.7576554
-1.757655
-1.7576571
-1.7576564
-1.7576497
-2.4624191
-2.4624073
-2.462401
-2.4623958
-2.4623825
-2.4623758
-2.4623755
-2.4623775
-2.4623793
-2.4623728
-3.272032
-3.2720155
-3.2720095
-3.272006
-3.2719985
-3.271992
-3.2719925
-3.271998
-3.2719995
-3.2719955
-4.200389
-4.2003745
-4.2003695
-4.2003685
-4.2003645
-4.20036
-4.200365
-4.200373
-4.2003765
-4.200372
-5.2609735
-5.260962
-5.2609565
-5.2609575
-5.2609545
-5.260956
-5.260968
-5.2609775
-5.2609785
-5.2609725
-6.463816
-6.463803
-6.4637965
-6.4637995
-6.463802
-6.463811
-6.4638255
-6.4638325
-6.4638275
-6.46382
-7.8085775
-7.808561
-7.8085585
-7.8085665
-7.808576
-7.8085895
-7.808599
-7.808596
-7.808588
-7.808583
-9.269871
-9.269859
-9.269863
-9.269876
-9.269887
-9.2698945
-9.269894
-9.269886
-9.2698825
-9.269888
-10.768507
-10.768506
-10.76851
-10.768522
-10.768528
-10.768526
-10.768519
-10.768515
-10.768521
-10.768528
-12.12371
-12.123708
-12.123711
-12.123716
-12.123715
-12.123709
-12.123704
-12.123706
-12.123719
-12.123733
-13.005339
-13.005331
-13.005334
-13.005337
-13.005333
-13.005325
-13.00533
-13.005336
-13.005352
-13.005357
2.248378
2.248383
2.248369
2.2483475
2.2483265
2.2483105
2.2483035
2.248302
2.2483025
2.2483005
2.23592
2.235923
2.2358975
2.2358685
2.2358505
2.235839
2.235836
2.2358355
2.235835
2.235835
2.2107745
2.210765
2.210739
2.2107125
2.2107045
2.210696
2.2106835
2.210677
2.2106775
2.210682
2.1725055
2.172491
2.172469
2.172451
2.172442
2.1724225
2.1724025
2.1724
2.1724075
2.172412
2.120468
2.12046
2.12044
2.120421
2.1204015
2.120376
2.12036
2.120361
2.1203655
2.1203665
2.0537735
2.053765
2.053745
2.0537225
2.053701
2.0536795
2.053664
2.0536585
2.05366
2.053661
1.9712755
1.9712685
1.9712455
1.971224
1.9712085
1.971185
1.9711625
1.9711535
1.9711575
1.971162
1.871563
1.8715602
1.8715407
1.8715202
1.8715025
1.871473
1.871446
1.8714391
1.8714472
1.8714543
1.7529305
1.7529288
1.7529113
1.7528884
1.7528647
1.7528315
1.7528045
1.7528014
1.7528121
1.7528188
1.6133242
1.6133286
1.613306
1.6132776
1.613251
1.6132169
1.6131942
1.6131944
1.6132055
1.6132106
1.4503376
1.4503424
1.4503155
1.4502837
1.4502565
1.4502257
1.4502084
1.4502112
1.4502224
1.4502244
1.2611686
1.2611684
1.26114
1.261107
1.2610798
1.2610538
1.2610409
1.2610455
1.2610545
1.2610528
1.0425556
1.0425574
1.0425263
1.0424931
1.0424695
1.0424473
1.0424366
1.0424402
1.0424455
1.0424408
0.7907468
0.79075005
0.7907187
0.79069005
0.790671
0.7906501
0.79063875
0.7906386
0.7906412
0.7906372
0.50143705
0.5014381
0.50141295
0.5013921
0.50137515
0.5013534
0.50133855
0.50133575
0.5013388
0.50133815
0.16971149
0.16971542
0.16969846
0.16968174
0.16966611
0.16964299
0.16962601
0.16962326
0.16962849
0.16962908
-0.20999605
-0.209989
-0.2100009
-0.21001545
-0.2100273
-0.21004935
-0.21006545
-0.2100674
-0.21006245
-0.2100626
-0.643946
-0.64394115
-0.64395035
-0.6439583
-0.6439639
-0.64398175
-0.64399655
-0.64399845
-0.64399535
-0.6439955
-1.1390833
-1.1390768
-1.1390828
-1.1390818
-1.1390818
-1.1390968
-1.13911
-1.1391122
-1.1391091
-1.1391111
-1.7029362
-1.702923
-1.7029247
-1.7029199
-1.7029185
-1.7029331
-1.7029443
-1.7029464
-1.7029458
-1.7029493
-2.3433987
-2.343383
-2.3433834
-2.3433811
-2.3433823
-2.3433953
-2.3434055
-2.34341
-2.3434131
-2.3434168
-3.0682444
-3.0682335
-3.0682356
-3.0682375
-3.068241
-3.0682515
-3.0682644
-3.0682736
-3.068278
-3.0682822
-3.8840932
-3.884086
-3.8840899
-3.8840955
-3.8840997
-3.884113
-3.8841305
-3.8841413
-3.8841459
-3.8841493
-4.7944133
-4.7944049
-4.794411
-4.7944192
-4.7944257
-4.7944455
-4.7944662
-4.7944749
-4.7944762
-4.7944766
-5.7958865
-5.7958781
-5.7958877
-5.795899
-5.7959112
-5.7959333
-5.7959507
-5.7959556
-5.7959516
-5.7959547
-6.8720118
-6.8720094
-6.872024
-6.872038
-6.8720521
-6.8720702
-6.8720794
-6.8720791
-6.8720795
-6.8720866
-7.9825654
-7.9825716
-7.9825865
-7.9826
-7.9826089
-7.9826186
-7.9826222
-7.9826263
-7.9826349
-7.9826406
-9.0484884
-9.0484971
-9.048505
-9.0485118
-9.048515
-9.0485185
-9.0485253
-9.0485363
-9.0485411
-9.048548
-9.9367725
-9.9367749
-9.9367794
-9.936782
-9.9367803
-9.9367842
-9.9367942
-9.936803
-9.9368116
-9.9368076
-10.464419
-10.464417
-10.464421
-10.46442
-10.464418
-10.464423
-10.464434
-10.464441
-10.464441
-10.464434
2.1187685
2.1187375
2.1187225
2.1187165
2.1187105
2.118718
2.1187315
2.1187405
2.118746
2.118743
2.106464
2.106446
2.1064255
2.106421
2.1064315
2.106444
2.106451
2.106457
2.1064615
2.106459
2.0817085
2.081682
2.081673
2.081679
2.081687
2.0816865
2.081689
2.081698
2.081708
2.0817075
2.044101
2.0440795
2.0440775
2.044081
2.0440725
2.0440645
2.0440715
2.0440875
2.044097
2.0440925
1.993056
1.9930435
1.993034
1.993028
1.9930155
1.993012
1.993021
1.993036
1.9930405
1.9930345
1.9277816
1.9277653
1.9277533
1.9277485
1.9277398
1.9277348
1.9277386
1.9277488
1.927752
1.9277498
1.8472614
1.8472421
1.8472357
1.8472343
1.8472248
1.8472127
1.8472116
1.8472214
1.8472272
1.8472283
1.750251
1.7502402
1.7502339
1.7502299
1.7502151
1.7501966
1.7501928
1.7502056
1.7502151
1.7502164
1.6352507
1.6352406
1.6352303
1.635222
1.6352027
1.6351808
1.635179
1.6351954
1.6352062
1.635206
1.5004702
1.5004544
1.5004405
1.5004291
1.5004074
1.5003875
1.5003894
1.5004077
1.5004169
1.5004133
1.3438226
1.3438076
1.343789
1.3437745
1.3437537
1.3437378
1.3437436
1.3437606
1.343765
1.343758
1.16291
1.1628946
1.1628719
1.1628562
1.1628376
1.1628259
1.162832
1.1628442
1.1628437
1.1628345
0.9549715
0.95495185
0.95492915
0.9549152
0.95489915
0.9548873
0.9548895
0.9548967
0.95489365
0.9548839
0.71685655
0.7168399
0.71682055
0.71680875
0.7167921
0.7167755
0.71677255
0.71677715
0.7167739
0.716765
0.44502247
0.44501255
0.44499726
0.44498538
0.44496415
0.44494276
0.44493619
0.44494044
0.44493867
0.4449314
0.13550683
0.13550154
0.13548818
0.13547509
0.13545141
0.13542738
0.13541952
0.13542392
0.13542404
0.13541639
-0.2160699
-0.2160707
-0.21608405
-0.21609505
-0.2161169
-0.2161414
-0.21614995
-0.2161462
-0.21614685
-0.2161565
-0.6144453
-0.6144439
-0.6144552
-0.6144603
-0.61447965
-0.61450285
-0.61451195
-0.6145097
-0.614513
-0.6145234
-1.0646068
-1.0646053
-1.064612
-1.0646128
-1.0646298
-1.0646511
-1.0646594
-1.0646588
-1.0646638
-1.0646751
-1.5715757
-1.5715737
-1.5715775
-1.5715784
-1.5715937
-1.5716125
-1.5716198
-1.5716209
-1.5716287
-1.5716408
-2.1400106
-2.1400093
-2.1400144
-2.1400172
-2.1400304
-2.1400459
-2.1400536
-2.1400582
-2.1400687
-2.1400789
-2.7735065
-2.7735071
-2.7735149
-2.7735182
-2.7735278
-2.7735429
-2.7735535
-2.7735612
-2.773572
-2.7735817
-3.4733905
-3.4733921
-3.4734018
-3.4734056
-3.4734153
-3.4734317
-3.4734454
-3.4734527
-3.4734627
-3.4734746
-4.2367495
-4.2367523
-4.2367655
-4.2367705
-4.2367823
-4.2368002
-4.2368126
-4.2368187
-4.2368303
-4.2368404
-5.0533467
-5.0533538
-5.05337
-5.0533768
-5.053389
-5.0534039
-5.0534128
-5.0534194
-5.053432
-5.0534457
-5.9010662
-5.9010788
-5.9010944
-5.9011018
-5.9011086
-5.9011176
-5.9011258
-5.9011364
-5.9011514
-5.901164
-6.7399328
-6.739946
-6.7399582
-6.7399617
-6.7399632
-6.7399704
-6.739981
-6.7399933
-6.7400102
-6.7400132
-7.5061147
-7.5061246
-7.5061297
-7.5061287
-7.50613
-7.5061369
-7.5061476
-7.5061615
-7.5061691
-7.5061644
-8.1104602
-8.110468
-8.1104713
-8.1104704
-8.1104692
-8.1104754
-8.1104885
-8.1104941
-8.1104927
-8.1104827
-8.451132
-8.45114
-8.4511418
-8.4511364
-8.4511387
-8.4511454
-8.4511511
-8.4511508
-8.4511448
-8.451146
2.0013801
2.0013664
2.0013684
2.0013791
2.0014064
2.0014295
2.0014422
2.0014463
2.0014468
2.0014452
1.9894667
1.9894435
1.9894596
1.9894836
1.9895114
1.9895276
1.9895361
1.9895376
1.9895396
1.9895424
1.9654953
1.9654881
1.9655079
1.9655274
1.9655402
1.9655491
1.9655611
1.9655715
1.965577
1.9655764
1.9291368
1.9291357
1.9291489
1.9291569
1.9291655
1.9291789
1.9291986
1.9292106
1.9292098
1.9292073
1.8798806
1.8798721
1.879879
1.8798863
1.8798986
1.8799162
1.879934
1.8799411
1.8799381
1.8799386
1.8170306
1.8170197
1.8170313
1.8170433
1.8170554
1.8170674
1.8170805
1.8170882
1.8170868
1.8170919
1.73973
1.7397255
1.7397402
1.7397496
1.7397551
1.7397622
1.7397759
1.7397859
1.7397873
1.7397939
1.6469225
1.6469176
1.6469283
1.6469326
1.646934
1.6469395
1.6469549
1.6469679
1.646971
1.6469772
1.5373209
1.5373112
1.5373174
1.5373201
1.5373205
1.537325
1.5373423
1.5373578
1.5373613
1.5373662
1.4094278
1.4094144
1.4094195
1.409421
1.4094205
1.409427
1.4094465
1.409462
1.4094635
1.4094671
1.261521
1.261505
1.2615075
1.2615076
1.2615091
1.2615188
1.2615379
1.2615492
1.261547
1.2615501
1.0916222
1.0916043
1.0916039
1.0916049
1.09161
1.0916193
1.0916332
1.0916388
1.0916339
1.0916374
0.897489
0.89747195
0.89747325
0.89747595
0.8974789
0.89748205
0.8974895
0.89749155
0.89748585
0.89748945
0.6766153
0.67660425
0.67660655
0.67660635
0.6766011
0.6765966
0.6765995
0.67660055
0.67659475
0.6765972
0.42622557
0.42622128
0.42621952
0.42621222
0.42619864
0.42618825
0.42618879
0.42618999
0.42618434
0.42618575
0.14329059
0.14328747
0.14328116
0.14326847
0.14325027
0.14323601
0.14323544
0.1432367
0.14323186
0.14323169
-0.17541775
-0.1754214
-0.17542905
-0.1754424
-0.1754629
-0.1754789
-0.17548115
-0.1754805
-0.17548595
-0.17548795
-0.53322345
-0.53322755
-0.533233
-0.5332451
-0.53326575
-0.53328175
-0.5332856
-0.53328655
-0.53329415
-0.5332959
-0.93338505
-0.93339045
-0.9333924
-0.9334034
-0.93342095
-0.93343555
-0.93343975
-0.93344295
-0.93345175
-0.93345275
-1.3788182
-1.3788238
-1.3788248
-1.3788338
-1.3788469
-1.3788591
-1.378864
-1.3788694
-1.3788788
-1.3788794
-1.8716404
-1.8716464
-1.8716488
-1.8716538
-1.8716626
-1.8716729
-1.8716789
-1.8716864
-1.8716963
-1.8716947
-2.4124597
-2.4124672
-2.4124693
-2.4124702
-2.412476
-2.4124866
-2.4124933
-2.4125011
-2.4125105
-2.4125107
-2.9992821
-2.999291
-2.9992922
-2.9992915
-2.9992973
-2.9993078
-2.9993153
-2.999323
-2.9993351
-2.9993394
-3.625912
-3.625923
-3.6259252
-3.6259242
-3.6259293
-3.6259383
-3.6259456
-3.6259564
-3.6259739
-3.6259788
-4.2797465
-4.2797598
-4.2797627
-4.27976
-4.2797624
-4.2797693
-4.2797781
-4.2797943
-4.2798139
-4.2798176
-4.9390196
-4.9390326
-4.9390337
-4.9390284
-4.939027
-4.9390331
-4.9390459
-4.9390648
-4.9390802
-4.9390773
-5.5700029
-5.5700117
-5.5700112
-5.5700044
-5.5700027
-5.5700098
-5.5700232
-5.570037
-5.5700468
-5.5700373
-6.1255676
-6.1255738
-6.1255709
-6.1255642
-6.125563
-6.125569
-6.1255772
-6.1255877
-6.1255884
-6.1255725
-6.5478194
-6.5478266
-6.5478226
-6.5478165
-6.5478142
-6.5478178
-6.5478248
-6.5478255
-6.5478194
-6.5478114
-6.7785134
-6.7785187
-6.7785119
-6.7785038
-6.7785039
-6.7785049
-6.7785062
-6.7785041
-6.7785036
-6.7784969
1.8959664
1.8959685
1.8959883
1.8960176
1.8960499
1.8960608
1.8960604
1.896053
1.8960542
1.8960649
1.8846072
1.8846166
1.8846424
1.8846742
1.8846943
1.884697
1.8846959
1.884694
1.8847023
1.8847167
1.8617656
1.86178
1.8618008
1.8618219
1.8618363
1.8618445
1.8618526
1.861856
1.8618591
1.8618685
1.8271567
1.8271653
1.8271792
1.8271988
1.8272212
1.8272372
1.8272458
1.8272416
1.8272404
1.8272526
1.7803534
1.7803572
1.7803763
1.7804015
1.7804271
1.7804408
1.7804434
1.7804363
1.7804392
1.7804555
1.7207967
1.720807
1.7208308
1.720856
1.7208748
1.7208831
1.7208872
1.7208849
1.7208913
1.7209077
1.6477852
1.6477989
1.6478183
1.6478362
1.6478494
1.6478598
1.647869
1.6478693
1.6478769
1.6478915
1.5604415
1.5604497
1.5604634
1.560477
1.5604908
1.5605042
1.5605157
1.5605176
1.5605253
1.5605391
1.4577273
1.4577299
1.4577417
1.4577565
1.457771
1.4577847
1.4577979
1.4578011
1.4578102
1.4578246
1.3384537
1.3384545
1.3384663
1.3384816
1.3384965
1.3385117
1.3385258
1.3385293
1.3385383
1.3385536
1.201263
1.201262
1.2012733
1.2012896
1.2013067
1.2013227
1.2013344
1.2013346
1.2013427
1.2013581
1.0446156
1.0446137
1.0446255
1.0446447
1.044662
1.0446735
1.044679
1.0446752
1.0446822
1.0446969
0.8667977
0.8667987
0.866812
0.86683085
0.8668412
0.8668441
0.86684425
0.86683845
0.86684395
0.86685685
0.66593309
0.66593718
0.66594907
0.66595991
0.66595951
0.66595549
0.66595334
0.66594651
0.66594995
0.66596079
0.43999286
0.43999674
0.44000224
0.44000284
0.43999396
0.4399861
0.43998311
0.43997562
0.43997758
0.43998784
0.18683804
0.186838
0.18683801
0.18683201
0.18681872
0.18680884
0.18680543
0.1867981
0.18680044
0.18681032
-0.09569785
-0.09570045
-0.09570155
-0.09570955
-0.09572465
-0.0957354
-0.0957397
-0.0957468
-0.0957441
-0.09573555
-0.40968905
-0.4096911
-0.4096906
-0.40969805
-0.4097118
-0.40972285
-0.40972865
-0.4097367
-0.4097349
-0.40972605
-0.75694255
-0.7569432
-0.75694075
-0.75694465
-0.7569543
-0.75696525
-0.756973
-0.75698305
-0.7569808
-0.75697185
-1.1387187
-1.1387189
-1.1387145
-1.1387122
-1.1387183
-1.1387297
-1.1387399
-1.1387505
-1.1387466
-1.1387386
-1.5553109
-1.555312
-1.555304
-1.5552966
-1.5553014
-1.5553139
-1.5553242
-1.5553336
-1.5553301
-1.5553228
-2.0054381
-2.0054389
-2.0054265
-2.0054172
-2.0054228
-2.0054343
-2.0054425
-2.0054514
-2.00545
-2.0054477
-2.4853889
-2.4853883
-2.4853747
-2.485366
-2.485371
-2.4853803
-2.4853883
-2.4854005
-2.485405
-2.4854075
-2.98789
-2.9878902
-2.9878764
-2.9878669
-2.9878691
-2.9878776
-2.9878897
-2.9879086
-2.987918
-2.9879181
-3.5007179
-3.5007193
-3.5007035
-3.5006906
-3.5006913
-3.5007026
-3.5007213
-3.5007437
-3.5007488
-3.5007426
-4.0052519
-4.0052512
-4.0052335
-4.0052197
-4.0052213
-4.0052364
-4.0052565
-4.0052722
-4.0052698
-4.0052598
-4.4754654
-4.4754613
-4.4754452
-4.4754346
-4.4754385
-4.4754519
-4.4754641
-4.475473
-4.4754676
-4.4754548
-4.8782988
-4.8782954
-4.8782813
-4.8782722
-4.8782745
-4.8782806
-4.8782884
-4.8782935
-4.8782814
-4.8782736
-5.1767125
-5.1767085
-5.176694
-5.1766855
-5.176684
-5.176687
-5.1766905
-5.1766895
-5.1766825
-5.176678
-5.336561
-5.336553
-5.3365385
-5.33653
-5.336528
-5.3365295
-5.336531
-5.3365325
-5.336527
-5.3365115
1.8019853
1.8019959
1.8020226
1.8020508
1.8020601
1.802053
1.8020453
1.8020447
1.8020605
1.8020808
1.7913155
1.7913382
1.7913624
1.7913808
1.7913823
1.7913785
1.7913763
1.7913837
1.7914017
1.7914174
1.7698724
1.769887
1.7699041
1.7699223
1.769933
1.7699352
1.7699361
1.7699377
1.7699468
1.7699594
1.7374212
1.7374314
1.7374534
1.7374803
1.7374949
1.7374963
1.7374899
1.7374826
1.7374927
1.7375081
1.6936385
1.6936552
1.6936861
1.6937131
1.6937233
1.6937198
1.6937085
1.6937031
1.6937182
1.6937322
1.6380969
1.6381209
1.6381484
1.6381683
1.6381729
1.6381687
1.6381615
1.6381594
1.6381747
1.6381847
1.5702401
1.5702598
1.5702793
1.5702943
1.5702984
1.5702989
1.5702947
1.5702927
1.5703063
1.570314
1.4893875
1.4894016
1.489417
1.4894316
1.4894388
1.4894423
1.4894395
1.4894377
1.4894506
1.4894598
1.3947625
1.3947731
1.3947886
1.3948057
1.3948147
1.3948198
1.394819
1.3948186
1.3948338
1.3948456
1.2854831
1.2854914
1.2855088
1.2855287
1.2855395
1.2855464
1.2855469
1.2855473
1.2855636
1.2855772
1.1605542
1.1605623
1.1605824
1.1606045
1.1606166
1.1606232
1.1606217
1.1606205
1.1606362
1.1606498
1.0188747
1.0188839
1.0189066
1.0189294
1.0189392
1.0189413
1.018936
1.0189324
1.0189456
1.0189578
0.85924774
0.85925657
0.8592807
0.85929998
0.85930292
0.85930006
0.85929251
0.85928644
0.85929614
0.85930768
0.68039771
0.68040548
0.68042724
0.68043805
0.68043438
0.68042971
0.68042166
0.68041344
0.68042076
0.68043284
0.48100747
0.4810134
0.48102871
0.48103189
0.48102503
0.4810205
0.48101232
0.48100322
0.48101003
0.4810233
0.25976921
0.25977173
0.25978268
0.25978237
0.25977482
0.25977054
0.25976289
0.25975458
0.25976248
0.25977527
0.01546635
0.01546855
0.01547865
0.0154784
0.01547115
0.01546695
0.0154595
0.01545185
0.01546045
0.01547065
-0.2529067
-0.2529024
-0.25289115
-0.25288905
-0.25289485
-0.25290015
-0.25290935
-0.25291755
-0.25290935
-0.2529
-0.54598625
-0.545981
-0.5459665
-0.54595955
-0.54596375
-0.5459719
-0.54598445
-0.5459934
-0.5459842
-0.54597665
-0.8638018
-0.8637958
-0.86377605
-0.86376425
-0.86376975
-0.86378175
-0.86379615
-0.86380415
-0.8637944
-0.86378975
-1.2054353
-1.2054267
-1.2054025
-1.2053906
-1.205399
-1.2054128
-1.2054253
-1.2054321
-1.2054262
-1.2054233
-1.5685714
-1.5685589
-1.5685342
-1.5685259
-1.568536
-1.5685473
-1.5685575
-1.5685669
-1.5685648
-1.5685651
-1.9489201
-1.9489058
-1.9488839
-1.9488776
-1.9488857
-1.9488951
-1.9489078
-1.9489215
-1.9489235
-1.9489255
-2.3395151
-2.3395013
-2.33948
-2.3394721
-2.3394782
-2.3394905
-2.3395085
-2.3395252
-2.3395282
-2.3395238
-2.7299516
-2.7299374
-2.7299132
-2.7299032
-2.7299114
-2.7299287
-2.7299498
-2.7299647
-2.7299603
-2.7299515
-3.1057615
-3.1057451
-3.1057207
-3.1057128
-3.1057235
-3.1057413
-3.1057599
-3.1057654
-3.1057564
-3.1057506
-3.4482667
-3.4482497
-3.4482293
-3.4482241
-3.4482335
-3.4482482
-3.4482572
-3.4482583
-3.4482498
-3.4482442
-3.735415
-3.7354
-3.735381
-3.7353765
-3.735383
-3.7353895
-3.735395
-3.735392
-3.7353835
-3.7353825
-3.944134
-3.944117
-3.9441
-3.9440955
-3.944098
-3.9441005
-3.9441025
-3.9440995
-3.9440935
-3.9440845
-4.0544255
-4.054409
-4.0543965
-4.0543925
-4.0543935
-4.0543955
-4.0543955
-4.054391
-4.0543765
-4.054375
1.718687
1.7187109
1.7187248
1.7187328
1.7187254
1.7187224
1.7187258
1.7187404
1.7187605
1.71877
1.7088221
1.7088334
1.7088466
1.7088495
1.7088494
1.7088516
1.7088593
1.7088744
1.7088884
1.7088857
1.6889819
1.6889925
1.6890077
1.6890189
1.689021
1.6890205
1.6890219
1.6890273
1.6890339
1.6890297
1.65902
1.659039
1.6590626
1.659073
1.659069
1.6590623
1.6590562
1.6590564
1.6590634
1.6590583
1.6187101
1.6187382
1.6187582
1.61876
1.6187503
1.618741
1.6187316
1.6187325
1.6187389
1.6187297
1.5677353
1.5677598
1.5677716
1.5677673
1.5677576
1.5677478
1.5677386
1.5677381
1.5677417
1.5677293
1.5056906
1.5057092
1.5057164
1.5057129
1.5057035
1.5056956
1.5056855
1.505684
1.5056855
1.5056729
1.4321122
1.4321272
1.4321355
1.4321332
1.4321265
1.4321209
1.4321131
1.4321118
1.4321138
1.4321044
1.3464765
1.3464901
1.3465004
1.3465016
1.3464992
1.3464979
1.346493
1.3464935
1.3464988
1.3464926
1.2481996
1.248212
1.2482263
1.2482329
1.2482343
1.2482364
1.2482339
1.248236
1.2482432
1.2482389
1.1366451
1.1366582
1.1366777
1.1366858
1.1366894
1.1366929
1.1366909
1.1366925
1.1366989
1.1366958
1.0111342
1.0111497
1.0111696
1.0111772
1.0111808