/*--------------------------------*- C++ -*----------------------------------*\
| =========                 |                                                 |
| \\      /  F ield         | OpenFOAM: The Open Source CFD Toolbox           |
|  \\    /   O peration     | Version:  v2106                                 |
|   \\  /    A nd           | Website:  www.openfoam.com                      |
|    \\/     M anipulation  |                                                 |
\*---------------------------------------------------------------------------*/
FoamFile
{
    version     2.0;
    format      ascii;
    arch        "LSB;label=32;scalar=64";
    class       volVectorField;
    location    "0";
    object      gradTmode4;
}
// * * * * * * * * * * * * * * * * * * * * * * * * * * * * * * * * * * * * * //

dimensions      [0 -1 0 1 0 0 0];

internalField   nonuniform List<vector> 
6000
(
(6.3333333e-06 0.061386 2.9205223)
(1.45e-05 0.061382667 2.9204827)
(-1.9e-05 0.061372 2.9204717)
(-2.55e-05 0.061371667 2.92043)
(-2.35e-05 0.061361333 2.920448)
(-2.6e-05 0.061368333 2.920434)
(9e-06 0.061384333 2.920435)
(2.4e-05 0.061390667 2.920429)
(1.35e-05 0.061391 2.920412)
(1.6666667e-06 0.061392333 2.9203813)
(3e-06 0.2766825 2.9096823)
(-6.5e-06 0.2766595 2.909678)
(-3.55e-05 0.276636 2.909663)
(-4.15e-05 0.276639 2.909637)
(-2.85e-05 0.276633 2.9096283)
(8.5e-06 0.276668 2.9096203)
(4.25e-05 0.2766855 2.909652)
(3.4e-05 0.276691 2.909664)
(1.6e-05 0.2767 2.909645)
(3e-06 0.276704 2.9096163)
(-9e-06 0.4626025 2.8878453)
(-3.2e-05 0.462582 2.8878347)
(-3.95e-05 0.4625795 2.8878247)
(-2.85e-05 0.4625945 2.8878057)
(5.5e-06 0.4626155 2.887799)
(2.65e-05 0.4626365 2.8878197)
(3.2e-05 0.462626 2.8878237)
(3.85e-05 0.462626 2.8878253)
(2.65e-05 0.462623 2.8878363)
(4.3333333e-06 0.4626255 2.88782)
(-1.0666667e-05 0.650759 2.8544353)
(-2.95e-05 0.6507375 2.8544297)
(-2.3e-05 0.650744 2.854426)
(-5.5e-06 0.650774 2.8544287)
(1.35e-05 0.6507855 2.8544567)
(1.9e-05 0.6507855 2.854462)
(3.2e-05 0.6507795 2.8544497)
(3.1e-05 0.65078 2.8544547)
(1.55e-05 0.65077 2.854437)
(4.6666667e-06 0.6507775 2.854426)
(-2.3333333e-05 0.8420075 2.8086963)
(-4.7e-05 0.8419985 2.8086577)
(-3e-06 0.8420145 2.808652)
(1.3e-05 0.8420235 2.808706)
(1.7e-05 0.8420205 2.808728)
(2.05e-05 0.8420255 2.8087393)
(2.65e-05 0.8420255 2.8087247)
(2.9e-05 0.842035 2.8087177)
(2.4e-05 0.8420465 2.8087017)
(9.3333333e-06 0.842054 2.808698)
(-1.6666667e-05 1.0372125 2.7494847)
(-2.25e-05 1.0372405 2.749457)
(2e-06 1.0372535 2.7494773)
(5e-07 1.037242 2.7494957)
(1.55e-05 1.0372425 2.7495037)
(2.4e-05 1.037241 2.749521)
(4.15e-05 1.037255 2.74951)
(5.2e-05 1.0372695 2.7495283)
(3.45e-05 1.037285 2.7495263)
(9.6666667e-06 1.03728 2.7495153)
(-4.6666667e-06 1.2373035 2.675395)
(-6e-06 1.2373235 2.6753987)
(-1.5e-06 1.2373315 2.675406)
(2e-06 1.237341 2.675408)
(1.6e-05 1.2373485 2.6754153)
(3.3e-05 1.237349 2.6754123)
(5.5e-05 1.2373645 2.6754217)
(5.9e-05 1.2373585 2.6754417)
(3.45e-05 1.237355 2.6754547)
(6e-06 1.2373425 2.6754393)
(-3.3333333e-06 1.443116 2.5846657)
(5.5e-06 1.4431215 2.584679)
(1.95e-05 1.4431415 2.5846893)
(1.75e-05 1.443158 2.5846953)
(2.35e-05 1.443177 2.5846847)
(4e-05 1.4431805 2.5846813)
(5.1e-05 1.443175 2.5847063)
(4.25e-05 1.4431615 2.5847237)
(1.85e-05 1.4431435 2.584731)
(1.3333333e-06 1.443146 2.5847087)
(-1e-06 1.6555065 2.4751067)
(1.95e-05 1.6555225 2.4751023)
(3.5e-05 1.6555205 2.4751177)
(3.75e-05 1.65553 2.4751157)
(3.85e-05 1.655548 2.4751307)
(3.1e-05 1.655548 2.47513)
(3.6e-05 1.6555275 2.475151)
(2.75e-05 1.65552 2.475172)
(1.9e-05 1.6555225 2.4751653)
(7.6666667e-06 1.6555465 2.475158)
(7.3333333e-06 1.8753415 2.3440497)
(1.95e-05 1.8753385 2.3440657)
(2.7e-05 1.8753215 2.3440573)
(4.5e-05 1.875331 2.3440703)
(4.15e-05 1.875325 2.3440917)
(1.95e-05 1.875322 2.3440967)
(2.3e-05 1.8753055 2.3440983)
(3.75e-05 1.8753075 2.3441143)
(4.5e-05 1.8753305 2.3441243)
(1.7333333e-05 1.875345 2.344145)
(-3e-06 2.1033625 2.188398)
(-5e-07 2.103331 2.1883967)
(2.75e-05 2.103333 2.188396)
(4.1e-05 2.103332 2.1884257)
(2.95e-05 2.1033195 2.188431)
(1.15e-05 2.103318 2.1884333)
(2.15e-05 2.103323 2.1884133)
(5.25e-05 2.1033265 2.1884207)
(5.65e-05 2.103331 2.188447)
(1.7333333e-05 2.103325 2.1884783)
(-1.3666667e-05 2.340299 2.004328)
(-1e-05 2.3402865 2.0043017)
(2.8e-05 2.340283 2.004321)
(3.15e-05 2.3402725 2.004338)
(2.75e-05 2.340267 2.0043443)
(2.3e-05 2.340275 2.004347)
(3.15e-05 2.340292 2.0043347)
(4.55e-05 2.340288 2.0043303)
(4.35e-05 2.340268 2.0043463)
(1.3333333e-05 2.340257 2.004374)
(-1.1333333e-05 2.5868796 1.7873528)
(-1.65e-05 2.5868832 1.7873347)
(1.35e-05 2.5868697 1.7873259)
(2.5e-05 2.5868609 1.7873383)
(3.2e-05 2.5868578 1.7873447)
(3.65e-05 2.5868573 1.7873594)
(3.45e-05 2.5868606 1.7873632)
(2.85e-05 2.5868592 1.7873524)
(2.55e-05 2.5868454 1.7873459)
(1e-05 2.5868384 1.7873543)
(-1.1266667e-05 2.8436274 1.5321425)
(-1.995e-05 2.843642 1.5321145)
(5.65e-06 2.8436446 1.5321011)
(1.965e-05 2.8436402 1.5321086)
(2.39e-05 2.8436396 1.5321107)
(2.575e-05 2.8436187 1.53212)
(3.34e-05 2.8436101 1.5321306)
(3.035e-05 2.8436182 1.5321301)
(2.275e-05 2.8436268 1.5321127)
(8.6666667e-06 2.8436234 1.5321076)
(-1.5666667e-06 3.1109818 1.2322558)
(7.5e-07 3.1110078 1.232256)
(1.17e-05 3.111011 1.2322558)
(1.99e-05 3.1110142 1.2322626)
(1.04e-05 3.1110173 1.2322724)
(7.05e-06 3.1110066 1.2322645)
(3.405e-05 3.1109965 1.232272)
(4.515e-05 3.1109957 1.2322801)
(3.07e-05 3.111002 1.2322722)
(7.7666667e-06 3.1110039 1.2322662)
(6.0666667e-06 3.3892296 0.88017536)
(9.25e-06 3.3892281 0.88020165)
(1.2e-05 3.389223 0.88019196)
(2.59e-05 3.3892249 0.8802116)
(1.635e-05 3.389237 0.88023343)
(4.95e-06 3.3892498 0.88023283)
(2.255e-05 3.3892367 0.88022475)
(3.59e-05 3.3892181 0.88021709)
(3.09e-05 3.3892069 0.88020876)
(9.9333333e-06 3.3892083 0.88021557)
(-2.5666667e-06 3.6782812 0.46684133)
(-5.8e-06 3.6782604 0.46683623)
(8.5e-06 3.6782723 0.46682993)
(3.39e-05 3.6782699 0.46684903)
(3.53e-05 3.6782816 0.46688727)
(6.75e-06 3.6782852 0.46689957)
(2.4e-06 3.6782728 0.46687347)
(1.54e-05 3.6782595 0.46684937)
(2.085e-05 3.6782478 0.46683867)
(8.6333333e-06 3.6782325 0.46685373)
(-7.8333333e-06 3.977754 -0.018817333)
(3.5e-07 3.9777509 -0.018833933)
(2.15e-05 3.9777799 -0.018811633)
(3.515e-05 3.9777769 -0.018804133)
(3.16e-05 3.9777659 -0.018768033)
(-3.85e-06 3.9777531 -0.0187715)
(-3.1e-06 3.9777487 -0.018799567)
(1.085e-05 3.9777572 -0.018812533)
(3.95e-06 3.9777513 -0.018818367)
(-2e-07 3.9777413 -0.0188232)
(-4.6666667e-06 4.2868343 -0.5902026)
(2e-05 4.2868486 -0.59021033)
(3.45e-05 4.2868505 -0.59017183)
(2e-05 4.2868436 -0.59017613)
(1.15e-05 4.2868188 -0.59017047)
(-1.05e-05 4.286819 -0.5901848)
(6.5e-06 4.2868222 -0.59020667)
(1.8e-05 4.2868276 -0.5901919)
(5e-06 4.2868328 -0.59019993)
(2e-06 4.2868511 -0.5902104)
(1.6666667e-06 4.603945 -1.2639187)
(1.65e-05 4.603953 -1.2639197)
(1.65e-05 4.6039095 -1.263911)
(3.5e-06 4.603904 -1.2639203)
(7e-06 4.603893 -1.2639327)
(-5e-07 4.603906 -1.2639283)
(5.5e-06 4.6039125 -1.2639447)
(2.15e-05 4.603901 -1.2639377)
(2.75e-05 4.6039155 -1.263936)
(1.2e-05 4.6039375 -1.2639257)
(6.6666666e-07 4.92649 -2.0609457)
(-1.55e-05 4.9264765 -2.060941)
(-1.45e-05 4.926435 -2.0609797)
(3.5e-06 4.9264325 -2.0609803)
(1.35e-05 4.9264385 -2.0609833)
(9e-06 4.9264405 -2.060964)
(1.5e-06 4.9264465 -2.0609743)
(2.1e-05 4.926441 -2.0609853)
(4.15e-05 4.9264485 -2.0609757)
(1.6666667e-05 4.9264645 -2.0609543)
(-7.3333333e-06 5.2503915 -3.0083547)
(-3.85e-05 5.2503745 -3.0083533)
(-2.75e-05 5.250375 -3.0084027)
(7e-06 5.250365 -3.0083933)
(1.5e-05 5.250376 -3.00838)
(7.5e-06 5.250373 -3.0083707)
(6e-06 5.250378 -3.008381)
(2.35e-05 5.2503805 -3.008389)
(5.1e-05 5.250385 -3.0083867)
(2.2666667e-05 5.2503945 -3.0083547)
(-1.0666667e-05 5.56915 -4.1422637)
(-3.2e-05 5.5691425 -4.1422703)
(-2.4e-05 5.5691585 -4.1422833)
(4.5e-06 5.5691455 -4.1422773)
(2.15e-05 5.56915 -4.1422497)
(1.1e-05 5.5691605 -4.1422463)
(9e-06 5.5691645 -4.1422557)
(2.8e-05 5.5691715 -4.1422673)
(5.55e-05 5.5691805 -4.1422643)
(2.3e-05 5.569168 -4.142228)
(-1.2333333e-05 5.8718715 -5.5128843)
(-3e-05 5.8718635 -5.5129003)
(-2.45e-05 5.8718645 -5.512892)
(-1.5e-06 5.8718635 -5.5128863)
(3e-05 5.8718605 -5.5128593)
(2.2e-05 5.871869 -5.5128413)
(1.7e-05 5.8718775 -5.5128533)
(3.95e-05 5.8718915 -5.512861)
(4.75e-05 5.871883 -5.5128443)
(1.4333333e-05 5.8718655 -5.512827)
(-1.6e-05 6.1389315 -7.1939953)
(-3.9e-05 6.1389245 -7.1940153)
(-2.4e-05 6.1389185 -7.194008)
(4.9999999e-07 6.13893 -7.193997)
(2.7e-05 6.1389295 -7.1939777)
(2.8e-05 6.138935 -7.193966)
(3.15e-05 6.1389505 -7.1939703)
(3.35e-05 6.1389495 -7.1939623)
(2.95e-05 6.1389255 -7.1939647)
(1.1333333e-05 6.138915 -7.1939573)
(-1.7e-05 6.330868 -9.3021377)
(-4.3e-05 6.330875 -9.3021507)
(-1.9e-05 6.3308735 -9.302157)
(9.5e-06 6.330881 -9.3021437)
(3.5e-05 6.330891 -9.302132)
(4.3e-05 6.330906 -9.3021147)
(3.15e-05 6.3309095 -9.3021)
(1.45e-05 6.3309005 -9.3021037)
(1.3e-05 6.3308945 -9.302129)
(7.3333333e-06 6.330881 -9.3021413)
(-1.1333333e-05 6.354226 -12.040058)
(-3.35e-05 6.354244 -12.040056)
(-1.8e-05 6.35425 -12.040068)
(1.8e-05 6.35426 -12.040068)
(5.2e-05 6.3542765 -12.040056)
(4.65e-05 6.3542715 -12.040024)
(2.6e-05 6.3542665 -12.040021)
(1.85e-05 6.3542725 -12.040035)
(1e-05 6.3542835 -12.040053)
(2.3333333e-06 6.3542775 -12.040072)
(-5e-06 5.9401 -15.809673)
(-1.9e-05 5.940108 -15.809658)
(-3e-06 5.940129 -15.809669)
(3.6e-05 5.9401525 -15.809672)
(4.65e-05 5.9401525 -15.809651)
(3.3e-05 5.9401305 -15.809647)
(3.25e-05 5.940132 -15.80966)
(3.15e-05 5.940138 -15.80966)
(1.8e-05 5.9401515 -15.809657)
(3.3333333e-06 5.9401745 -15.809669)
(-6e-06 4.152914 -21.552981)
(-4.5e-06 4.152914 -21.552977)
(2.65e-05 4.152943 -21.552976)
(4.15e-05 4.152951 -21.552967)
(3e-05 4.152944 -21.552959)
(2.6e-05 4.15294 -21.552977)
(3.35e-05 4.1529335 -21.552987)
(3.8e-05 4.1529275 -21.552982)
(4.65e-05 4.152955 -21.552962)
(1.7666667e-05 4.152966 -21.55292)
(-5e-06 0.91090167 -31.944848)
(1e-05 0.91090267 -31.944855)
(3.4e-05 0.91091133 -31.944843)
(3.7e-05 0.91090767 -31.944846)
(3.55e-05 0.91090833 -31.944835)
(2.25e-05 0.91091133 -31.944843)
(2e-05 0.910906 -31.944855)
(5.3e-05 0.91090233 -31.944856)
(5.65e-05 0.910916 -31.944793)
(1.0666667e-05 0.910909 -31.944767)
(-2.2666667e-05 0.057571333 2.7114655)
(-5.75e-05 0.057571333 2.71141)
(-4.6e-05 0.057574 2.7113975)
(-2.3e-05 0.057582667 2.711417)
(5e-07 0.057585667 2.7114285)
(1.25e-05 0.057586667 2.711455)
(2.35e-05 0.057592 2.711474)
(2.95e-05 0.057599 2.7114775)
(3e-05 0.057594667 2.711478)
(8.3333333e-06 0.057591333 2.7114815)
(-2.2666667e-05 0.259429 2.6997325)
(-5.35e-05 0.2594335 2.699704)
(-2.9e-05 0.2594415 2.6997115)
(-5.5e-06 0.2594685 2.69974)
(6.5e-06 0.2594755 2.6997715)
(2.2e-05 0.2594905 2.699794)
(4.2e-05 0.2594985 2.699785)
(3.35e-05 0.2595035 2.69978)
(1.85e-05 0.2595045 2.699775)
(5e-06 0.259504 2.6997785)
(-1.9666667e-05 0.433488 2.6760925)
(-4.5e-05 0.4335015 2.6760825)
(-1.1e-05 0.433518 2.6761025)
(1.1e-05 0.43353 2.676139)
(2.25e-05 0.433542 2.6761595)
(3.55e-05 0.433557 2.6761635)
(3.65e-05 0.4335545 2.6761625)
(3.55e-05 0.433554 2.676157)
(3.05e-05 0.433561 2.676153)
(8e-06 0.433566 2.676156)
(-1.3666667e-05 0.6091175 2.6400115)
(-2.35e-05 0.609128 2.640013)
(-5e-07 0.609137 2.6400375)
(1.85e-05 0.6091465 2.6400605)
(3.35e-05 0.609155 2.6400735)
(3.45e-05 0.609157 2.640081)
(3.9e-05 0.609159 2.640086)
(4e-05 0.6091625 2.640083)
(3.05e-05 0.60916 2.6400915)
(8.3333333e-06 0.6091625 2.64009)
(-1.2666667e-05 0.7868875 2.590682)
(-2.55e-05 0.7868875 2.5907045)
(7.5e-06 0.7868935 2.590722)
(2.9e-05 0.786906 2.59073)
(3.3e-05 0.786903 2.5907435)
(3.95e-05 0.786906 2.59075)
(4.2e-05 0.786908 2.590764)
(3.65e-05 0.7869115 2.5907645)
(3.05e-05 0.7869145 2.590765)
(9.6666667e-06 0.786916 2.590757)
(-1.3666667e-05 0.9673605 2.5270405)
(-1.75e-05 0.967362 2.527057)
(1.8e-05 0.9673745 2.5270645)
(2.8e-05 0.967375 2.527081)
(3.35e-05 0.9673795 2.5270975)
(3.95e-05 0.9673785 2.5271075)
(4.45e-05 0.9673805 2.5271195)
(4.65e-05 0.9673875 2.5271055)
(3.5e-05 0.9673925 2.527098)
(9.3333333e-06 0.96739 2.5270915)
(-1.1666667e-05 1.151089 2.4476825)
(-1.15e-05 1.1511005 2.447677)
(2.05e-05 1.1511075 2.4476885)
(3.4e-05 1.1511145 2.4477075)
(3.65e-05 1.151122 2.447726)
(4.05e-05 1.1511195 2.4477395)
(5.1e-05 1.151129 2.44774)
(4.85e-05 1.1511255 2.447728)
(3.3e-05 1.151122 2.447718)
(8e-06 1.1511185 2.447715)
(-6e-06 1.3385815 2.350845)
(1e-06 1.338585 2.35084)
(3.2e-05 1.338595 2.3508415)
(4.25e-05 1.3386055 2.3508575)
(3.85e-05 1.338612 2.3508735)
(4.65e-05 1.338617 2.350884)
(5.05e-05 1.338619 2.3508865)
(3.95e-05 1.338611 2.350884)
(2.8e-05 1.3386055 2.35088)
(7e-06 1.338604 2.3508785)
(-9.3333333e-06 1.5302725 2.234415)
(2e-06 1.5302725 2.2344025)
(4.1e-05 1.5302745 2.2344035)
(5.1e-05 1.5302785 2.2344155)
(4.8e-05 1.5302865 2.2344195)
(4.75e-05 1.530291 2.234436)
(4.5e-05 1.5302855 2.2344505)
(3.5e-05 1.530284 2.234451)
(2.6e-05 1.5302825 2.2344515)
(7e-06 1.530285 2.2344405)
(-6e-06 1.7264945 2.095815)
(3e-06 1.726502 2.095794)
(3.8e-05 1.726497 2.0958075)
(5.45e-05 1.7265 2.0958165)
(5.1e-05 1.7264975 2.0958225)
(4.55e-05 1.726499 2.0958425)
(4.35e-05 1.726497 2.0958665)
(3.65e-05 1.7264985 2.095867)
(2.9e-05 1.726501 2.0958575)
(8.6666667e-06 1.7265055 2.0958345)
(-4.3333333e-06 1.92749 1.931959)
(4.5e-06 1.927485 1.931958)
(3.9e-05 1.9274885 1.9319715)
(5.15e-05 1.9274875 1.9319815)
(4.7e-05 1.9274845 1.931997)
(4.7e-05 1.9274875 1.932018)
(4.45e-05 1.9274875 1.932045)
(3.9e-05 1.9274885 1.9320445)
(3.3e-05 1.92749 1.9320255)
(1e-05 1.9274925 1.9320045)
(-9.3333333e-06 2.1333372 1.7392221)
(1.5e-06 2.1333316 1.7392307)
(4.05e-05 2.1333318 1.7392488)
(5.05e-05 2.1333334 1.7392662)
(5.1e-05 2.1333395 1.7392843)
(4.85e-05 2.1333382 1.739304)
(4.45e-05 2.1333369 1.7393235)
(3.9e-05 2.1333376 1.7393241)
(3.3e-05 2.1333363 1.7393138)
(1.0333333e-05 2.133337 1.7392997)
(-8.0333333e-06 2.3439499 1.5132589)
(-8.5e-07 2.343952 1.5132676)
(4.08e-05 2.3439518 1.5132978)
(5.92e-05 2.3439609 1.5133195)
(5.175e-05 2.3439592 1.5133425)
(4.435e-05 2.3439496 1.5133588)
(4.395e-05 2.3439503 1.5133726)
(3.85e-05 2.3439533 1.5133785)
(3.24e-05 2.3439546 1.5133833)
(1.0433333e-05 2.3439542 1.5133766)
(-8e-06 2.5590007 1.2489398)
(3.4e-06 2.5590048 1.248953)
(4.95e-05 2.559014 1.2489812)
(5.785e-05 2.5590111 1.2490099)
(3.97e-05 2.5589997 1.2490363)
(3.96e-05 2.5589938 1.2490595)
(4.81e-05 2.558997 1.2490779)
(4.33e-05 2.5590014 1.2490843)
(3.395e-05 2.5590054 1.2490943)
(1.0066667e-05 2.5590016 1.2490916)
(-5.3e-06 2.7778191 0.9402358)
(1.24e-05 2.7778313 0.94022745)
(4.71e-05 2.7778279 0.9402523)
(4.495e-05 2.7778145 0.94028165)
(3.445e-05 2.7778113 0.9403057)
(4.165e-05 2.7778148 0.94034225)
(5.155e-05 2.7778137 0.9403682)
(4.69e-05 2.7778116 0.94037275)
(3.255e-05 2.7778087 0.94037655)
(7.8666667e-06 2.7778077 0.94037165)
(9e-08 2.9993167 0.57990767)
(1.215e-05 2.9993172 0.57988975)
(3.273e-05 2.9993044 0.57991838)
(4.131e-05 2.9992996 0.5799396)
(3.9995e-05 2.9993046 0.57995904)
(4.193e-05 2.9993068 0.57999334)
(4.494e-05 2.9992992 0.58002577)
(3.8315e-05 2.9992886 0.58003692)
(3.002e-05 2.9992814 0.58003965)
(9.41e-06 2.9992852 0.5800311)
(-5e-06 3.2218118 0.15937185)
(1e-07 3.2218024 0.1593718)
(2.95e-05 3.2218022 0.15939695)
(4.51e-05 3.2218013 0.1594147)
(4.17e-05 3.2218016 0.1594243)
(3.625e-05 3.2217961 0.15944875)
(3.33e-05 3.2217873 0.15948745)
(2.92e-05 3.2217781 0.15950685)
(2.92e-05 3.2217757 0.15951575)
(1.0366667e-05 3.221769 0.1595108)
(-6.1666667e-06 3.4428625 -0.33160225)
(2.5e-06 3.4428654 -0.33159675)
(3.16e-05 3.4428686 -0.33158925)
(4.075e-05 3.4428597 -0.3315727)
(3.475e-05 3.4428515 -0.3315696)
(2.765e-05 3.4428425 -0.33154275)
(2.695e-05 3.4428365 -0.3315022)
(2.665e-05 3.4428371 -0.33148415)
(2.095e-05 3.4428314 -0.33147055)
(4.9666667e-06 3.4428251 -0.33146735)
(-3.0666667e-06 3.6589441 -0.90543495)
(6.15e-06 3.6589444 -0.90543695)
(2.38e-05 3.6589356 -0.90544845)
(2.805e-05 3.6589243 -0.9054373)
(2.45e-05 3.6589119 -0.90542895)
(2.12e-05 3.6589065 -0.9053994)
(2.785e-05 3.6589057 -0.90535955)
(2.41e-05 3.6589071 -0.90534875)
(1.725e-05 3.6589036 -0.90533805)
(6.2e-06 3.6589096 -0.9053376)
(-6e-06 3.8649084 -1.5773055)
(-6e-06 3.864903 -1.5773175)
(1.15e-05 3.8648857 -1.5773255)
(1.7e-05 3.8648777 -1.5773195)
(1.7e-05 3.8648657 -1.5773055)
(2.15e-05 3.8648672 -1.5772825)
(2.75e-05 3.864871 -1.577244)
(2.45e-05 3.8648689 -1.5772315)
(2.35e-05 3.8648759 -1.577228)
(9e-06 3.8648776 -1.577242)
(-6.6666667e-06 4.053314 -2.365977)
(-1.65e-05 4.053316 -2.365992)
(-1.5e-06 4.0532995 -2.3659775)
(8e-06 4.053291 -2.365976)
(1.4e-05 4.0532875 -2.3659635)
(2.65e-05 4.053291 -2.365945)
(2.95e-05 4.053296 -2.365912)
(2.9e-05 4.0533 -2.365893)
(2.6e-05 4.0533025 -2.3658925)
(7.3333333e-06 4.053307 -2.365916)
(-4.6666667e-06 4.2131765 -3.295073)
(-2.05e-05 4.2131725 -3.2950805)
(-1.35e-05 4.2131655 -3.2950545)
(5e-06 4.2131595 -3.29505)
(1.7e-05 4.2131665 -3.295041)
(3e-05 4.2131695 -3.295022)
(3.65e-05 4.213176 -3.294993)
(3.1e-05 4.2131815 -3.2949705)
(3.05e-05 4.213184 -3.2949715)
(1.2e-05 4.213194 -3.2949985)
(-9.3333333e-06 4.3276355 -4.394992)
(-2.75e-05 4.32762 -4.394991)
(-1.45e-05 4.3276245 -4.3949735)
(9e-06 4.327626 -4.3949585)
(2.4e-05 4.327633 -4.3949545)
(3.6e-05 4.3276425 -4.3949375)
(4.15e-05 4.32765 -4.3949055)
(3.7e-05 4.3276555 -4.394882)
(3.85e-05 4.327666 -4.3948815)
(1.4e-05 4.3276615 -4.3949075)
(-1.5e-05 4.369778 -5.7058155)
(-3.15e-05 4.369776 -5.705808)
(-7.5e-06 4.3697835 -5.7057925)
(1.35e-05 4.36979 -5.7057715)
(3.35e-05 4.3697965 -5.7057665)
(4.7e-05 4.3698075 -5.7057515)
(4.95e-05 4.3698155 -5.7057165)
(4.7e-05 4.369823 -5.7056965)
(3.65e-05 4.3698185 -5.705701)
(9e-06 4.3698095 -5.705719)
(-1.0666667e-05 4.2943595 -7.281579)
(-2.2e-05 4.294373 -7.281563)
(-5e-07 4.294375 -7.281544)
(2.2e-05 4.294386 -7.2815255)
(4.15e-05 4.2943945 -7.281511)
(5.5e-05 4.294401 -7.28149)
(5.7e-05 4.2944065 -7.281461)
(4e-05 4.2943975 -7.281451)
(2.5e-05 4.2943805 -7.281453)
(8e-06 4.2943755 -7.281467)
(-6e-06 4.02023 -9.1961875)
(-1.6e-05 4.0202365 -9.19617)
(5.5e-06 4.02024 -9.196146)
(3.3e-05 4.020249 -9.1961265)
(4.85e-05 4.020258 -9.196109)
(5.9e-05 4.020263 -9.196095)
(4.6e-05 4.020249 -9.1960805)
(2.1e-05 4.0202275 -9.1960775)
(1.45e-05 4.0202195 -9.1960725)
(5.6666667e-06 4.020215 -9.19608)
(-6.3333333e-06 3.3921515 -11.548927)
(-1.2e-05 3.3921555 -11.548914)
(1.2e-05 3.3921625 -11.548884)
(4e-05 3.392166 -11.548861)
(5.55e-05 3.3921725 -11.548852)
(4.6e-05 3.3921605 -11.548854)
(2.15e-05 3.3921365 -11.548852)
(1.05e-05 3.3921255 -11.548854)
(1.25e-05 3.392125 -11.548852)
(5e-06 3.3921225 -11.548853)
(-3.3333333e-06 2.099036 -14.455357)
(-5e-06 2.0990415 -14.455345)
(1.6e-05 2.099052 -14.455322)
(4.3e-05 2.099055 -14.455312)
(4.3e-05 2.099044 -14.455316)
(2.3e-05 2.0990235 -14.45532)
(1.1e-05 2.099013 -14.455322)
(9.5e-06 2.099011 -14.45533)
(1.15e-05 2.099011 -14.455338)
(4e-06 2.0990265 -14.45534)
(-2.6666667e-06 -0.4718945 -17.95327)
(4e-06 -0.4718915 -17.95326)
(2.55e-05 -0.471879 -17.953251)
(3.2e-05 -0.471884 -17.953259)
(2.4e-05 -0.471896 -17.953267)
(1.5e-05 -0.4719035 -17.953264)
(9e-06 -0.4719065 -17.953268)
(8.5e-06 -0.4719065 -17.953279)
(2.8e-05 -0.471891 -17.953292)
(1.5333333e-05 -0.471873 -17.953312)
(-1.3333333e-06 -0.72596933 -21.494049)
(1.05e-05 -0.725968 -21.494045)
(2.35e-05 -0.725965 -21.494051)
(2.6e-05 -0.72596933 -21.494058)
(2.35e-05 -0.725969 -21.494068)
(1.25e-05 -0.72596967 -21.49407)
(8e-06 -0.72597067 -21.494065)
(2.5e-05 -0.72597033 -21.494067)
(4.5e-05 -0.72595967 -21.4941)
(1.6e-05 -0.725959 -21.49411)
(-3.0666667e-05 0.053564 2.544746)
(-5.35e-05 0.053578667 2.544765)
(-1.2e-05 0.053581333 2.544798)
(5.5e-06 0.053587 2.544822)
(1.45e-05 0.05359 2.544828)
(1.95e-05 0.053594333 2.5448265)
(3.15e-05 0.053591667 2.5448215)
(2.8e-05 0.053592333 2.5448155)
(1.75e-05 0.053589 2.5448025)
(4e-06 0.053590333 2.544797)
(-1.6e-05 0.2413095 2.532578)
(-2.75e-05 0.241332 2.5326035)
(5e-07 0.241341 2.532636)
(1.85e-05 0.241361 2.5326525)
(2.55e-05 0.241364 2.53265)
(2.2e-05 0.2413765 2.5326495)
(2.85e-05 0.241374 2.5326335)
(2.4e-05 0.2413705 2.5326175)
(1.45e-05 0.241375 2.532608)
(5.3333333e-06 0.2413785 2.532609)
(-1.5666667e-05 0.4028815 2.50799)
(-2.2e-05 0.402891 2.508015)
(1.7e-05 0.4029055 2.5080355)
(2.85e-05 0.402915 2.5080415)
(3e-05 0.4029175 2.508033)
(2.95e-05 0.4029235 2.5080245)
(2.55e-05 0.402927 2.5080125)
(2.9e-05 0.402929 2.508002)
(2.55e-05 0.4029395 2.50799)
(6.3333333e-06 0.402937 2.507985)
(-9.6666667e-06 0.5653485 2.470455)
(-3.5e-06 0.5653595 2.470477)
(2.45e-05 0.5653635 2.4704865)
(3.05e-05 0.565365 2.4704885)
(3.4e-05 0.5653695 2.470479)
(3.15e-05 0.565372 2.4704745)
(3.4e-05 0.565381 2.470466)
(3.65e-05 0.5653875 2.4704505)
(2.25e-05 0.565382 2.470436)
(3.6666667e-06 0.5653785 2.470429)
(-8.3333333e-06 0.7290365 2.419213)
(-7e-06 0.7290425 2.419228)
(2.25e-05 0.7290415 2.4192385)
(3.45e-05 0.729044 2.4192355)
(3.7e-05 0.7290445 2.4192305)
(4.1e-05 0.729052 2.4192285)
(4.1e-05 0.729059 2.419217)
(3e-05 0.7290575 2.419199)
(1.65e-05 0.729053 2.4191865)
(4e-06 0.7290555 2.419179)
(-5.6666667e-06 0.894213 2.353233)
(1.5e-06 0.894213 2.3532525)
(2.6e-05 0.89422 2.3532565)
(3.35e-05 0.8942195 2.3532525)
(4.2e-05 0.894225 2.3532515)
(4.6e-05 0.8942305 2.353247)
(3.95e-05 0.894231 2.353238)
(3.05e-05 0.894233 2.3532195)
(2.05e-05 0.894238 2.3532035)
(5.3333333e-06 0.894238 2.3531955)
(-8.3333333e-06 1.061108 2.2711845)
(-9.304682e-16 1.0611065 2.2711975)
(2.9e-05 1.0611085 2.271202)
(3.95e-05 1.0611175 2.2711995)
(4.8e-05 1.0611245 2.271193)
(4.7e-05 1.0611255 2.2711935)
(4.35e-05 1.0611315 2.271186)
(3.7e-05 1.061137 2.271169)
(2.15e-05 1.061137 2.2711515)
(4e-06 1.0611295 2.2711425)
(-6.6666667e-06 1.2298485 2.1713995)
(2e-06 1.229847 2.1714055)
(3.7e-05 1.2298565 2.171405)
(4.95e-05 1.229866 2.171401)
(5e-05 1.2298705 2.171396)
(5.3e-05 1.229877 2.171402)
(5.1e-05 1.2298855 2.1713955)
(3.6e-05 1.2298845 2.171383)
(1.3e-05 1.229877 2.1713655)
(3.3333333e-07 1.2298715 2.1713555)
(-9.3333333e-06 1.4004765 2.0518335)
(8e-06 1.4004765 2.051845)
(4.8e-05 1.4004865 2.051843)
(5.35e-05 1.400489 2.051837)
(5.9e-05 1.400497 2.051833)
(6.2e-05 1.4005065 2.0518415)
(5.1e-05 1.4005075 2.051839)
(2.85e-05 1.400503 2.0518255)
(8.5e-06 1.4005 2.051809)
(3.3333333e-07 1.4005025 2.051801)
(-6.6666667e-06 1.5728855 1.9100525)
(1.2e-05 1.572894 1.9100585)
(4.95e-05 1.5728895 1.910065)
(6e-05 1.572897 1.9100635)
(6.75e-05 1.5729025 1.910061)
(6.35e-05 1.572904 1.9100705)
(4.75e-05 1.5729 1.910067)
(2.85e-05 1.572901 1.9100535)
(1.25e-05 1.5729045 1.9100405)
(2e-06 1.572909 1.9100325)
(-3.6666667e-06 1.7467697 1.7431445)
(1.2e-05 1.7467678 1.7431505)
(5.1e-05 1.7467743 1.7431615)
(6.65e-05 1.7467817 1.7431631)
(6.6e-05 1.7467813 1.7431637)
(5.95e-05 1.7467795 1.7431687)
(4.8e-05 1.74678 1.7431652)
(3.3e-05 1.7467836 1.7431559)
(1.65e-05 1.7467874 1.7431438)
(3.3333333e-06 1.7467902 1.743136)
(-7.9333333e-06 1.921599 1.5476444)
(1.665e-05 1.9215961 1.5476629)
(6.345e-05 1.9216093 1.5476765)
(6.7e-05 1.9216105 1.547679)
(6.53e-05 1.9216125 1.5476779)
(6.215e-05 1.9216158 1.5476832)
(5.16e-05 1.9216196 1.5476855)
(3.59e-05 1.921622 1.5476794)
(1.91e-05 1.9216258 1.5476713)
(3.9e-06 1.9216291 1.5476645)
(-5.5666667e-06 2.0965973 1.3195069)
(2.235e-05 2.0966055 1.3195248)
(6.535e-05 2.0966021 1.3195413)
(6.97e-05 2.0966046 1.3195408)
(7.135e-05 2.0966099 1.3195412)
(6.66e-05 2.0966128 1.319556)
(5.42e-05 2.096615 1.3195626)
(3.92e-05 2.0966194 1.3195601)
(2.355e-05 2.0966258 1.3195571)
(5.5e-06 2.0966303 1.3195522)
(-2.5333333e-06 2.2706043 1.0539509)
(2.145e-05 2.2706019 1.0539647)
(6.255e-05 2.2705991 1.0539759)
(7.47e-05 2.2706025 1.0539753)
(7.355e-05 2.2706028 1.0539859)
(6.735e-05 2.2706021 1.0540093)
(5.825e-05 2.2706057 1.0540175)
(4.67e-05 2.2706124 1.0540183)
(2.995e-05 2.27062 1.0540173)
(6.8666667e-06 2.2706185 1.054014)
(-7.1333333e-06 2.4419496 0.7453545)
(1.725e-05 2.4419446 0.745362)
(6.59e-05 2.4419481 0.74537165)
(7.33e-05 2.4419439 0.74537825)
(7.1e-05 2.44194 0.74539545)
(6.955e-05 2.4419404 0.74542105)
(6.455e-05 2.4419443 0.7454334)
(5.35e-05 2.4419483 0.7454364)
(2.96e-05 2.4419474 0.74543495)
(4.5e-06 2.4419434 0.7454311)
(-5.8766667e-06 2.6083656 0.38712023)
(1.9965e-05 2.6083724 0.38712136)
(6.185e-05 2.6083676 0.38713697)
(6.6565e-05 2.6083579 0.38714822)
(7.009e-05 2.6083556 0.3871638)
(7.1675e-05 2.6083562 0.38719051)
(6.613e-05 2.6083559 0.38720738)
(4.978e-05 2.6083522 0.38721323)
(2.5075e-05 2.6083462 0.38721288)
(4.23e-06 2.6083474 0.3872063)
(-2.6e-06 2.7667713 -0.02852135)
(1.93e-05 2.7667739 -0.02851465)
(5.14e-05 2.7667647 -0.02849895)
(6.125e-05 2.7667576 -0.0284887)
(6.935e-05 2.766753 -0.0284751)
(6.99e-05 2.7667491 -0.02844815)
(6.05e-05 2.7667448 -0.0284288)
(4.37e-05 2.7667384 -0.0284194)
(2.48e-05 2.7667376 -0.028418)
(5.3333333e-06 2.7667341 -0.02842405)
(-4.1666667e-06 2.9129472 -0.51073565)
(1.335e-05 2.9129421 -0.51072715)
(4.555e-05 2.9129344 -0.51071695)
(5.48e-05 2.9129249 -0.51070765)
(6.155e-05 2.9129127 -0.51069615)
(6.355e-05 2.9129049 -0.51066875)
(5.55e-05 2.9129017 -0.51064655)
(4.25e-05 2.9129016 -0.51063505)
(2.075e-05 2.9128975 -0.5106321)
(1.9333333e-06 2.9128929 -0.5106334)
(-6e-06 3.041131 -1.0704059)
(6.5e-06 3.0411278 -1.0704024)
(3.415e-05 3.0411142 -1.0703955)
(3.95e-05 3.0410968 -1.0703895)
(4.94e-05 3.0410829 -1.0703794)
(5.89e-05 3.0410792 -1.0703486)
(5.715e-05 3.0410804 -1.070323)
(3.95e-05 3.0410802 -1.0703123)
(1.615e-05 3.0410753 -1.0703084)
(2.3e-06 3.0410765 -1.0703109)
(-6.3333333e-06 3.143403 -1.7204936)
(-3.5e-06 3.143398 -1.7204922)
(1.45e-05 3.1433805 -1.7204876)
(2.35e-05 3.1433653 -1.7204861)
(4.4e-05 3.1433585 -1.7204722)
(6.1e-05 3.1433604 -1.7204385)
(5.65e-05 3.1433601 -1.720413)
(3.75e-05 3.1433568 -1.7204033)
(1.7e-05 3.143361 -1.7204011)
(2.6666667e-06 3.1433591 -1.7204074)
(-9.3333333e-06 3.2087225 -2.4764925)
(-1.6e-05 3.2087135 -2.476496)
(1.5e-06 3.208706 -2.476488)
(1.75e-05 3.208702 -2.476485)
(4.45e-05 3.208703 -2.4764655)
(6.05e-05 3.208701 -2.476436)
(5.35e-05 3.2086975 -2.476416)
(4.05e-05 3.208702 -2.476406)
(1.85e-05 3.208705 -2.4764055)
(1e-06 3.208708 -2.4764115)
(-1.2333333e-05 3.2213765 -3.357023)
(-2e-05 3.2213755 -3.3570265)
(3e-06 3.221379 -3.3570105)
(2.05e-05 3.2213825 -3.357001)
(4.3e-05 3.221385 -3.356984)
(5.55e-05 3.2213805 -3.356961)
(5.75e-05 3.2213845 -3.356945)
(4.5e-05 3.2213915 -3.356935)
(2.3e-05 3.221396 -3.356932)
(4.6666667e-06 3.221403 -3.356941)
(-1e-05 3.1584075 -4.384442)
(-1.35e-05 3.158415 -4.384433)
(8.5e-06 3.1584205 -4.3844145)
(2.35e-05 3.158424 -4.384402)
(4.25e-05 3.1584245 -4.3843925)
(6e-05 3.158431 -4.3843725)
(6.45e-05 3.158441 -4.384357)
(5.2e-05 3.1584455 -4.3843475)
(3e-05 3.158451 -4.384345)
(5.6666667e-06 3.1584475 -4.3843565)
(-7.3333333e-06 2.9852845 -5.5852825)
(-7e-06 2.9852915 -5.5852645)
(1.2e-05 2.985294 -5.585248)
(2.45e-05 2.9852965 -5.5852375)
(5e-05 2.985304 -5.5852305)
(7.2e-05 2.9853165 -5.585212)
(7.2e-05 2.985322 -5.585199)
(5.5e-05 2.9853225 -5.5851935)
(2.5e-05 2.9853115 -5.5851965)
(2.3333333e-06 2.985306 -5.585205)
(-5.3333333e-06 2.6485595 -6.9898235)
(-4e-06 2.6485625 -6.9898105)
(1.35e-05 2.648565 -6.9897945)
(3.35e-05 2.648575 -6.989787)
(6.25e-05 2.648587 -6.9897785)
(7.8e-05 2.6485915 -6.989763)
(7.05e-05 2.6485865 -6.989757)
(4.15e-05 2.6485685 -6.9897565)
(1.35e-05 2.648554 -6.9897585)
(2e-06 2.648554 -6.9897645)
(-5.3333333e-06 2.06352 -8.6286055)
(-1.5e-06 2.0635235 -8.628595)
(2.45e-05 2.0635335 -8.6285745)
(4.65e-05 2.0635455 -8.6285695)
(6.65e-05 2.06355 -8.6285635)
(7.15e-05 2.0635425 -8.6285565)
(4.9e-05 2.063519 -8.628558)
(2.25e-05 2.063498 -8.6285565)
(1.05e-05 2.063495 -8.6285505)
(2.3333333e-06 2.0634955 -8.6285525)
(-3e-06 1.095057 -10.519847)
(9.5e-06 1.0950695 -10.51983)
(3.55e-05 1.095074 -10.519811)
(5e-05 1.0950745 -10.519809)
(5.95e-05 1.095069 -10.519811)
(4.7e-05 1.095047 -10.519813)
(2.6e-05 1.095025 -10.519812)
(1.75e-05 1.0950205 -10.5198)
(1.1e-05 1.095018 -10.519793)
(2.3333333e-06 1.095018 -10.519802)
(3e-06 -0.4642425 -12.631977)
(1.55e-05 -0.464237 -12.631963)
(2.95e-05 -0.464238 -12.631953)
(4.15e-05 -0.4642455 -12.631956)
(3.9e-05 -0.4642625 -12.631964)
(2.75e-05 -0.46428 -12.631962)
(2.25e-05 -0.4642845 -12.63195)
(1.55e-05 -0.464287 -12.631936)
(8e-06 -0.464288 -12.63194)
(2.3333333e-06 -0.4642845 -12.631946)
(6.6666667e-07 -2.8857785 -14.784204)
(1.4e-05 -2.8857865 -14.784197)
(2.7e-05 -2.8857865 -14.784193)
(2.55e-05 -2.8857955 -14.7842)
(2.5e-05 -2.885807 -14.784204)
(2.5e-05 -2.8858105 -14.784193)
(1.9e-05 -2.885809 -14.784179)
(1.4e-05 -2.8858105 -14.784174)
(1.35e-05 -2.8858075 -14.784178)
(4.6666667e-06 -2.885804 -14.784207)
(-2.3333333e-06 -1.449618 -16.427862)
(7.5e-06 -1.449621 -16.42786)
(2.05e-05 -1.4496223 -16.427863)
(2.1e-05 -1.4496253 -16.427866)
(2.4e-05 -1.4496253 -16.427869)
(2.55e-05 -1.449626 -16.427857)
(2.25e-05 -1.449625 -16.427847)
(1.7e-05 -1.4496237 -16.427842)
(1.45e-05 -1.449623 -16.427867)
(4.6666667e-06 -1.449623 -16.427895)
(-1e-05 0.049459333 2.390338)
(-5.5e-06 0.049463667 2.3903905)
(1.1e-05 0.049466 2.3904045)
(7e-06 0.049469667 2.390395)
(5e-06 0.049467 2.3903825)
(6e-06 0.049468667 2.390365)
(1.25e-05 0.049466667 2.3903445)
(1.05e-05 0.049467 2.39033)
(1.15e-05 0.049465 2.390321)
(4.6666667e-06 0.049466 2.3903205)
(-5.6666667e-06 0.222673 2.3779485)
(4.5e-06 0.2226835 2.377967)
(2e-05 0.222679 2.3779805)
(8.5e-06 0.222688 2.377966)
(3.5e-06 0.2226805 2.377936)
(5.5e-06 0.2226885 2.377914)
(1e-05 0.2226895 2.377903)
(8e-06 0.22269 2.377889)
(1e-05 0.222692 2.37788)
(5.6666667e-06 0.222692 2.3778815)
(-3e-06 0.371365 2.3528495)
(5e-07 0.371375 2.352874)
(1.55e-05 0.3713685 2.352867)
(8.5e-06 0.371366 2.3528385)
(5.5e-06 0.371371 2.352813)
(1.5e-05 0.371382 2.352799)
(1.4e-05 0.371387 2.3527845)
(1.3e-05 0.371387 2.352769)
(1.35e-05 0.371389 2.352755)
(4.6666667e-06 0.371386 2.3527555)
(1e-06 0.5203405 2.314591)
(8e-06 0.520341 2.3146085)