/*--------------------------------*- C++ -*----------------------------------*\
| =========                 |                                                 |
| \\      /  F ield         | OpenFOAM: The Open Source CFD Toolbox           |
|  \\    /   O peration     | Version:  v2106                                 |
|   \\  /    A nd           | Website:  www.openfoam.com                      |
|    \\/     M anipulation  |                                                 |
\*---------------------------------------------------------------------------*/
FoamFile
{
    version     2.0;
    format      ascii;
    arch        "LSB;label=32;scalar=64";
    class       volVectorField;
    location    "0";
    object      gradTmode7;
}
// * * * * * * * * * * * * * * * * * * * * * * * * * * * * * * * * * * * * * //

dimensions      [0 -1 0 0 0 0 0];

internalField   nonuniform List<vector> 
2000
(
(-7.8807914e+08 -7.8807914e+08 -7.8807741e+08)
(13.565747 -2.1443306e+08 -2.6922018e+08)
(20.505168 -2.1443305e+08 -2.6922017e+08)
(9.2252982 -2.1443306e+08 -2.6922017e+08)
(3.1618277 -2.1443308e+08 -2.6922019e+08)
(-3.3659251 -2.1443311e+08 -2.6922022e+08)
(-8.1418946 -2.1443314e+08 -2.6922025e+08)
(-6.6728263 -2.1443316e+08 -2.6922029e+08)
(-5.1959389 -2.1443318e+08 -2.6922031e+08)
(7.8807927e+08 -2.144332e+08 -2.6922032e+08)
(-2.6922105e+08 13.565723 -2.6922025e+08)
(19.233124 19.23315 -2.6922025e+08)
(15.74489 9.5777128 -2.6922024e+08)
(2.4113316 1.4026141 -2.6922024e+08)
(-1.3243366 -5.2183672 -2.6922026e+08)
(-4.4660253 -1.7645363 -2.6922028e+08)
(-5.3923238 -1.8842355 -2.6922031e+08)
(-3.5907005 0.74721433 -2.6922034e+08)
(-8.3835639 -1.1263599 -2.6922036e+08)
(2.6922114e+08 -3.6751341 -2.6922037e+08)
(-2.6922104e+08 20.50518 -2.6922024e+08)
(9.5777372 15.744913 -2.6922024e+08)
(2.6746316 2.6746371 -2.6922024e+08)
(-5.5707816 1.0059166 -2.6922025e+08)
(-0.0053227676 -1.2081403 -2.6922028e+08)
(-0.031793445 0.69264064 -2.692203e+08)
(-5.6301442 3.6085112 -2.6922033e+08)
(-5.9149506 1.7149913 -2.6922036e+08)
(-9.6182873 -3.163867 -2.6922038e+08)
(2.6922116e+08 -3.2440933 -2.6922039e+08)
(-2.6922106e+08 9.2253383 -2.6922025e+08)
(1.402581 2.4113111 -2.6922025e+08)
(1.0058933 -5.5707874 -2.6922026e+08)
(-1.4714457 -1.471468 -2.6922027e+08)
(-1.6376126 4.1780895 -2.692203e+08)
(0.35062611 -0.80390881 -2.6922032e+08)
(-4.3699731 -0.58986252 -2.6922034e+08)
(-10.363079 -1.9811833 -2.6922038e+08)
(-13.342649 -6.1741015 -2.692204e+08)
(2.6922117e+08 -3.3582946 -2.6922042e+08)
(-2.6922107e+08 3.1618366 -2.6922026e+08)
(-5.2183885 -1.324372 -2.6922027e+08)
(-1.2081475 -0.0052934846 -2.6922028e+08)
(4.1780953 -1.63759 -2.692203e+08)
(0.66223639 0.66222209 -2.6922032e+08)
(-4.7997455 -5.1300046 -2.6922035e+08)
(-6.8074186 -7.7883237 -2.6922037e+08)
(-11.499189 -5.4558205 -2.692204e+08)
(-10.995399 -4.8712104 -2.6922043e+08)
(2.6922119e+08 1.4056752 -2.6922044e+08)
(-2.6922108e+08 -3.3659249 -2.6922028e+08)
(-1.7645489 -4.4660212 -2.6922029e+08)
(0.69267529 -0.03177254 -2.692203e+08)
(-0.80393017 0.35064969 -2.6922032e+08)
(-5.1300272 -4.7997259 -2.6922035e+08)
(-8.0999196 -8.0999199 -2.6922038e+08)
(-4.695789 -9.0043161 -2.692204e+08)
(-7.4459654 -6.2681186 -2.6922042e+08)
(-6.4811528 0.085277636 -2.6922045e+08)
(2.692212e+08 -1.1862968 -2.6922045e+08)
(-2.692211e+08 -8.141908 -2.692203e+08)
(-1.884236 -5.3922799 -2.6922032e+08)
(3.6085234 -5.6301095 -2.6922033e+08)
(-0.58985808 -4.3699876 -2.6922034e+08)
(-7.7883332 -6.8074066 -2.6922037e+08)
(-9.0043356 -4.695793 -2.692204e+08)
(-4.9756174 -4.97563 -2.6922042e+08)
(-2.4095958 -4.8984492 -2.6922044e+08)
(-5.9135772 1.4531992 -2.6922046e+08)
(2.6922122e+08 -2.4042233 -2.6922047e+08)
(-2.6922111e+08 -6.6727738 -2.6922033e+08)
(0.74724978 -3.5906568 -2.6922035e+08)
(1.7149676 -5.9149314 -2.6922036e+08)
(-1.9812272 -10.363098 -2.6922037e+08)
(-5.4558326 -11.499231 -2.692204e+08)
(-6.2681431 -7.4459787 -2.6922042e+08)
(-4.8984452 -2.4095732 -2.6922044e+08)
(-1.0171362 -1.017139 -2.6922046e+08)
(-3.986927 -0.52848976 -2.6922047e+08)
(2.6922123e+08 -2.9770214 -2.6922048e+08)
(-2.6922112e+08 -5.1958897 -2.6922035e+08)
(-1.1263937 -8.3835356 -2.6922037e+08)
(-3.163918 -9.6183178 -2.6922038e+08)
(-6.1741573 -13.342635 -2.692204e+08)
(-4.8712137 -10.995379 -2.6922043e+08)
(0.085321688 -6.4811428 -2.6922044e+08)
(1.4532224 -5.913543 -2.6922045e+08)
(-0.52851243 -3.9869525 -2.6922046e+08)
(-7.8734591 -7.8734273 -2.6922047e+08)
(2.6922124e+08 -9.7865851 -2.6922048e+08)
(-2.6922113e+08 7.8807927e+08 -2.6922036e+08)
(-3.6751785 2.1443321e+08 -2.6922038e+08)
(-3.2441315 2.1443323e+08 -2.692204e+08)
(-3.3582888 2.1443325e+08 -2.6922042e+08)
(1.4056593 2.1443328e+08 -2.6922043e+08)
(-1.1863065 2.1443329e+08 -2.6922045e+08)
(-2.4042548 2.1443331e+08 -2.6922047e+08)
(-2.9770204 2.1443332e+08 -2.6922047e+08)
(-9.7865599 2.1443333e+08 -2.6922048e+08)
(2.6922125e+08 2.1443333e+08 -2.6922049e+08)
(-2.7210619e+08 -2.7210625e+08 11.313806)
(2.4364416 -2.7210626e+08 10.813381)
(7.4202067 -2.7210626e+08 -0.8631936)
(2.8015086 -2.7210626e+08 -7.708855)
(-0.46305229 -2.7210626e+08 -13.386215)
(-2.4868828 -2.7210626e+08 -16.051801)
(-4.2623878 -2.7210626e+08 -14.917084)
(-10.476561 -2.7210627e+08 -13.598677)
(-9.6565872 -2.7210627e+08 -18.193284)
(2.7210624e+08 -2.7210628e+08 -17.128505)
(-2.6922268e+08 2.4364227 10.813386)
(5.5481721 5.5481816 4.7130731)
(7.946301 4.2186239 -7.5584522)
(2.0766583 2.3487105 -10.352285)
(-1.82961 -0.53429588 -12.546307)
(-5.2539137 -0.29749323 -14.678853)
(-7.7449765 -4.1330675 -13.112538)
(-10.362323 -5.1479355 -17.045557)
(-8.6126913 -4.9000466 -22.343895)
(2.6922273e+08 -4.2115336 -17.078795)
(-2.6922268e+08 7.4201848 -0.86317529)
(4.2186425 7.9463097 -7.5584763)
(4.2207356 4.2207291 -11.484229)
(-1.9514111 2.1869135 -10.442064)
(-3.1092562 -1.0940681 -9.3838657)
(-6.0856545 -2.7286388 -15.183109)
(-9.1128299 -3.0801096 -15.801227)
(-11.24354 -1.9948716 -19.165351)
(-8.7201853 -0.61778839 -22.911598)
(2.6922274e+08 -0.6257494 -16.84997)
(-2.6922269e+08 2.8015288 -7.7088851)
(2.3487166 2.0766691 -10.352311)
(2.1869048 -1.9514095 -10.442051)
(-3.2381388 -3.2381434 -12.039788)
(-6.7451622 -4.0482175 -12.356565)
(-7.2399552 -6.5224314 -17.923559)
(-7.0112093 -7.0446295 -21.311822)
(-7.9000021 -4.6910142 -22.202822)
(-7.2435691 -1.7398231 -19.903805)
(2.6922275e+08 -0.94111776 -13.566496)
(-2.6922269e+08 -0.46302572 -13.386241)
(-0.53429571 -1.8296163 -12.54631)
(-1.0940769 -3.1092514 -9.3838614)
(-4.0482191 -6.7451552 -12.35656)
(-6.3935442 -6.3935516 -19.440555)
(-9.0820665 -7.2871325 -22.383354)
(-7.2814127 -8.3198518 -23.352571)
(-5.9387332 -5.1401913 -22.314327)
(-4.9702891 -3.7293714 -17.259695)
(2.6922277e+08 -0.64643228 -13.630112)
(-2.6922269e+08 -2.486864 -16.051828)
(-0.29750911 -5.2539132 -14.678841)
(-2.7286342 -6.0856576 -15.183125)
(-6.522439 -7.2399466 -17.923583)
(-7.2871395 -9.0820604 -22.383351)
(-9.1662554 -9.1662561 -22.509093)
(-4.8642682 -7.1658116 -21.92256)
(-3.3095218 -5.0644237 -20.981996)
(-2.74981 -3.0213656 -17.472527)
(2.6922278e+08 -3.3504694 -16.012408)
(-2.6922269e+08 -4.2624011 -14.917087)
(-4.1330893 -7.744971 -13.112539)
(-3.0801103 -9.1128174 -15.801246)
(-7.0446219 -7.0112042 -21.311838)
(-8.3198537 -7.2813942 -23.352593)
(-7.1658177 -4.8642611 -21.922565)
(-3.1795804 -3.1795822 -19.453)
(-1.7942872 -4.8766009 -19.322016)
(-3.2563346 -4.3698901 -19.57274)
(2.6922279e+08 -5.0579241 -14.74295)
(-2.6922271e+08 -10.476561 -13.598682)
(-5.1479255 -10.362309 -17.045585)
(-1.9948673 -11.243513 -19.1654)
(-4.6910159 -7.8999971 -22.202831)
(-5.1401964 -5.9387386 -22.31433)
(-5.0644433 -3.3095339 -20.981988)
(-4.876608 -1.7942881 -19.322001)
(-4.4998297 -4.49983 -19.032189)
(-2.9311331 -5.478953 -21.728082)
(2.692228e+08 -4.1586593 -16.501223)
(-2.6922271e+08 -9.6565658 -18.193341)
(-4.9000418 -8.6126683 -22.343938)
(-0.61779799 -8.7201813 -22.911627)
(-1.7398474 -7.2435737 -19.903798)
(-3.7293905 -4.9702958 -17.259675)
(-3.0213672 -2.7498196 -17.472524)
(-4.3698765 -3.2563235 -19.572769)
(-5.4789521 -2.931141 -21.728099)
(-2.9151638 -2.9151555 -22.699661)
(2.692228e+08 -2.7258862 -14.448159)
(-2.6922272e+08 2.7210628e+08 -17.128559)
(-4.211541 2.7210629e+08 -17.078847)
(-0.62577268 2.721063e+08 -16.849985)
(-0.94113043 2.721063e+08 -13.566519)
(-0.64644232 2.7210632e+08 -13.630138)
(-3.350471 2.7210633e+08 -16.01242)
(-5.0579294 2.7210634e+08 -14.742967)
(-4.1586616 2.7210635e+08 -16.501201)
(-2.7258784 2.7210635e+08 -14.448176)
(2.692228e+08 2.7210635e+08 -5.2847266)
(-2.7210785e+08 -2.7210791e+08 -3.8872383)
(1.3887477 -2.7210791e+08 -2.9439173)
(1.9829311 -2.7210792e+08 -6.7626042)
(-3.2977228 -2.7210791e+08 -11.300404)
(-5.181118 -2.721079e+08 -15.0724)
(-4.896794 -2.7210789e+08 -16.573599)
(-5.6887713 -2.7210787e+08 -19.431616)
(-9.9490265 -2.7210787e+08 -19.711674)
(-8.7257663 -2.7210787e+08 -18.580321)
(2.7210785e+08 -2.7210787e+08 -17.314528)
(-2.6922433e+08 1.3887417 -2.9439273)
(0.86128555 0.86129252 -3.6397953)
(0.6795315 -1.043322 -9.1240333)
(-2.5765236 -1.330595 -13.398166)
(-5.6509043 -1.2160181 -16.661625)
(-5.0322556 -0.89584443 -17.258479)
(-7.7590281 -2.7683793 -17.379402)
(-12.822058 -4.819459 -18.2757)
(-8.4168016 -5.8446741 -18.271345)
(2.6922431e+08 -3.3965994 -15.444351)
(-2.6922433e+08 1.9829088 -6.7625875)
(-1.0433159 0.67952957 -9.1240304)
(-0.20895646 -0.20896167 -13.085146)
(-3.4704188 -0.6815857 -15.475965)
(-4.7463673 -1.0183977 -17.081266)
(-6.4491551 -2.5520656 -18.212621)
(-9.6123861 -4.5907727 -17.927763)
(-13.025322 -3.4422739 -18.086464)
(-7.3029066 -0.72377622 -17.771731)
(2.6922432e+08 0.26820573 -14.864014)
(-2.6922433e+08 -3.2977274 -11.300403)
(-1.3305848 -2.5765228 -13.398179)
(-0.68158377 -3.4704203 -15.475963)
(-3.3859596 -3.3859638 -17.363818)
(-7.5213842 -5.8785996 -17.856773)
(-8.6046306 -8.0041536 -18.77723)
(-8.6492364 -8.1412061 -18.005506)
(-8.9550617 -5.1301591 -17.95843)
(-4.7063219 -0.52219831 -17.631291)
(2.6922433e+08 -0.13843729 -14.398307)
(-2.6922432e+08 -5.1811061 -15.072411)
(-1.2160089 -5.6509027 -16.661641)
(-1.0183975 -4.7463672 -17.081276)
(-5.8785981 -7.5213852 -17.856775)
(-9.364557 -9.3645635 -20.217765)
(-8.7117616 -9.7155384 -20.438961)
(-6.7383916 -8.3990618 -17.850794)
(-5.4063138 -4.2349939 -17.294133)
(-2.3111848 -2.4399323 -16.617725)
(2.6922433e+08 -1.0402371 -14.276862)
(-2.6922431e+08 -4.8967714 -16.573629)
(-0.89584588 -5.0322499 -17.25849)
(-2.5520663 -6.4491571 -18.212632)
(-8.0041559 -8.6046284 -18.777242)
(-9.7155374 -8.7117645 -20.438959)
(-7.6391289 -7.6391317 -19.414571)
(-3.1686919 -5.1047447 -16.17147)
(-2.9959322 -3.2758083 -15.934508)
(-1.5115652 -2.2277673 -15.480143)
(2.6922434e+08 -2.2991347 -14.30879)
(-2.6922429e+08 -5.6887623 -19.431643)
(-2.7683945 -7.759024 -17.379418)
(-4.590776 -9.6123851 -17.92777)
(-8.1412055 -8.6492358 -18.005519)
(-8.3990604 -6.7383864 -17.850803)
(-5.1047418 -3.1686884 -16.171477)
(-2.3750681 -2.3750712 -13.707018)
(-2.5293364 -2.9486426 -13.952938)
(-1.3345113 -2.8023565 -13.895693)
(2.6922434e+08 -2.8930386 -10.982283)
(-2.692243e+08 -9.949027 -19.711683)
(-4.8194686 -12.822056 -18.275714)
(-3.4422781 -13.025312 -18.086485)
(-5.1301573 -8.955058 -17.95845)
(-4.2349899 -5.4063121 -17.294151)
(-3.2758137 -2.9959371 -15.934517)
(-2.9486461 -2.5293426 -13.952933)
(-3.4232176 -3.4232214 -11.274579)
(-1.4559612 -3.6554108 -11.039805)
(2.6922434e+08 -2.6822303 -9.0671099)
(-2.692243e+08 -8.725766 -18.580341)
(-5.8446799 -8.4167976 -18.271373)
(-0.72377792 -7.3029025 -17.771763)
(-0.5222051 -4.7063225 -17.631309)
(-2.4399396 -2.3111875 -16.617731)
(-2.2277724 -1.5115745 -15.48014)
(-2.8023524 -1.3345085 -13.895696)
(-3.6554045 -1.4559641 -11.039813)
(-0.59352007 -0.59352114 -9.4723958)
(2.6922434e+08 1.4299118 -7.3674536)
(-2.692243e+08 2.7210787e+08 -17.314557)
(-3.396605 2.7210788e+08 -15.444388)
(0.26819717 2.7210789e+08 -14.864041)
(-0.13844231 2.7210789e+08 -14.398324)
(-1.0402419 2.721079e+08 -14.276875)
(-2.2991348 2.721079e+08 -14.308794)
(-2.8930357 2.721079e+08 -10.982292)
(-2.6822301 2.721079e+08 -9.0671045)
(1.4299145 2.721079e+08 -7.3674583)
(2.6922433e+08 2.7210789e+08 -3.3061057)
(-2.721095e+08 -2.7210954e+08 -2.6196553)
(-0.43892434 -2.7210955e+08 -5.4754884)
(-0.93627993 -2.7210954e+08 -7.8528838)
(-5.5082872 -2.7210954e+08 -9.3964383)
(-5.7362473 -2.7210951e+08 -9.2559153)
(-6.846099 -2.7210949e+08 -10.304191)
(-7.4004632 -2.7210946e+08 -11.051205)
(-9.6252656 -2.7210945e+08 -11.045598)
(-7.2594406 -2.7210945e+08 -9.3468193)
(2.7210944e+08 -2.7210944e+08 -7.8744591)
(-2.6922596e+08 -0.43892604 -5.475501)
(-0.6319336 -0.63193144 -6.4302885)
(-1.8120697 -2.1039175 -8.1604471)
(-5.4609335 -1.8268499 -10.192113)
(-5.689923 -2.5431616 -10.457856)
(-5.9716901 -1.9365155 -10.993011)
(-8.762198 -2.6292149 -12.068953)
(-11.254267 -3.5227251 -10.715023)
(-5.7813419 -4.0914568 -7.9014725)
(2.6922588e+08 -1.7610194 -5.3836582)
(-2.6922595e+08 -0.93629082 -7.8528818)
(-2.1039156 -1.8120743 -8.160446)
(-2.1311985 -2.131201 -8.4848963)
(-5.9475314 -1.7787382 -9.8609228)
(-5.8459128 -2.2892162 -10.496097)
(-6.9321521 -4.2473895 -11.667988)
(-8.9866728 -3.7062139 -10.896884)
(-11.087508 -1.6776009 -8.1827556)
(-5.497735 0.02226549 -5.5896188)
(2.6922588e+08 0.42029454 -4.6815063)
(-2.6922595e+08 -5.5082948 -9.3964337)
(-1.8268439 -5.4609414 -10.192119)
(-1.7787336 -5.9475395 -9.8609237)
(-5.6189487 -5.6189541 -11.632206)
(-8.1585742 -7.1847166 -12.15033)
(-7.3886878 -8.7487714 -12.09238)
(-6.1924094 -6.9676603 -9.3568548)
(-7.5257874 -3.8986833 -6.7212886)
(-3.6834467 -0.58581654 -6.0784734)
(2.6922588e+08 -0.35396636 -5.1189978)
(-2.6922592e+08 -5.7362518 -9.2559165)
(-2.5431603 -5.6899271 -10.457865)
(-2.2892112 -5.8459201 -10.496106)
(-7.1847085 -8.15858 -12.150332)
(-8.9757302 -8.9757374 -11.815244)
(-6.7150958 -7.9244736 -10.433225)
(-4.1365847 -6.4858162 -7.1971237)
(-4.7056638 -3.1162694 -5.4737308)
(-1.953018 -1.5782232 -5.5832274)
(2.6922588e+08 -0.55691504 -4.6754581)
(-2.692259e+08 -6.8460962 -10.304212)
(-1.9365123 -5.9716901 -10.993029)
(-4.2473865 -6.9321523 -11.668002)
(-8.748766 -7.3886904 -12.092386)
(-7.9244679 -6.7150981 -10.433225)
(-4.8987665 -4.898772 -7.9916251)
(-1.3842052 -3.0220355 -5.4607383)
(-2.6181944 -1.7232284 -4.4459947)
(-1.1240922 -0.29933361 -3.8751602)
(2.6922588e+08 -0.055890137 -3.0760935)
(-2.6922588e+08 -7.4004552 -11.051237)
(-2.6292166 -8.7621955 -12.068976)
(-3.7062115 -8.9866703 -10.896897)
(-6.9676543 -6.1924114 -9.3568653)
(-6.4858118 -4.136586 -7.1971267)
(-3.0220332 -1.3842076 -5.4607431)
(-0.96104104 -0.96104495 -3.3516634)
(-1.9829619 -0.21667233 -2.0720065)
(-0.28567977 0.070447874 -1.0142303)
(2.6922587e+08 0.18375593 -0.01535029)
(-2.6922588e+08 -9.6252588 -11.045627)
(-3.5227272 -11.254265 -10.715046)
(-1.6776025 -11.087506 -8.1827719)
(-3.8986818 -7.5257875 -6.7213036)
(-3.1162641 -4.7056673 -5.473744)
(-1.7232255 -2.6181968 -4.4460028)
(-0.21666989 -1.9829658 -2.0720051)
(-1.5867016 -1.586705 1.1669762)
(-0.72366395 -1.0556559 1.6881925)
(2.6922586e+08 -0.5438299 2.1772793)
(-2.6922588e+08 -7.2594395 -9.3468448)
(-4.091463 -5.7813413 -7.9014941)
(0.022265514 -5.4977369 -5.5896387)
(-0.58581604 -3.6834484 -6.0784919)
(-1.5782211 -1.9530203 -5.5832422)
(-0.29933173 -1.1240963 -3.8751628)
(0.070450781 -0.2856824 -1.0142275)
(-1.055652 -0.72366625 1.6881894)
(0.75719538 0.75719131 2.9655521)
(2.6922585e+08 3.0351176 3.2787881)
(-2.6922587e+08 2.7210944e+08 -7.8744877)
(-1.7610247 2.7210945e+08 -5.3836858)
(0.42029058 2.7210945e+08 -4.6815265)
(-0.3539651 2.7210945e+08 -5.1190122)
(-0.55691195 2.7210945e+08 -4.6754694)
(-0.055887604 2.7210945e+08 -3.0760934)
(0.18376012 2.7210944e+08 -0.015355173)
(-0.5438278 2.7210943e+08 2.1772791)
(3.03512 2.7210942e+08 3.2787866)
(2.6922585e+08 2.7210942e+08 4.937912)
(-2.7211111e+08 -2.7211112e+08 -1.3654412)
(-3.8444805 -2.7211114e+08 -3.7627112)
(-1.9380188 -2.7211113e+08 -4.495152)
(-4.7007544 -2.7211111e+08 -2.9308476)
(-6.0888711 -2.7211108e+08 -3.3204031)
(-6.6920832 -2.7211105e+08 -3.2541354)
(-6.4301775 -2.7211103e+08 -2.5928596)
(-8.2446413 -2.7211101e+08 -1.0727805)
(-5.5546278 -2.7211101e+08 1.4545772)
(2.72111e+08 -2.72111e+08 2.9020561)
(-2.6922754e+08 -3.8444849 -3.7627179)
(-1.8236604 -1.8236649 -2.9943736)
(-3.0822927 -1.6753347 -3.0494385)
(-4.873932 -1.7950796 -1.5834781)
(-6.4518024 -2.4561997 -2.2155693)
(-6.6433534 -2.2596414 -2.7506387)
(-7.4810403 -2.6140583 -1.861579)
(-8.6545773 -1.9566169 0.47247881)
(-3.0854367 -2.0874736 3.2752451)
(2.6922743e+08 -0.20364652 5.2698862)
(-2.6922753e+08 -1.9380239 -4.495157)
(-1.6753304 -3.0823008 -3.0494428)
(-1.9094333 -1.9094383 -2.6790378)
(-5.4816194 -2.1216793 -1.5527056)
(-6.5534329 -2.7108725 -1.9061418)
(-6.8499418 -3.6514345 -1.9974135)
(-6.1271532 -1.8786741 -0.24927687)
(-7.7180567 0.55146057 2.5713413)
(-3.8016572 1.0992229 5.0529489)
(2.6922742e+08 0.53286588 6.0303553)
(-2.6922752e+08 -4.700762 -2.9308513)
(-1.7950748 -4.8739415 -1.5834851)
(-2.1216712 -5.4816304 -1.5527102)
(-5.6753662 -5.6753732 -1.3926464)
(-7.9815575 -7.1977471 -0.84748474)
(-5.8111551 -6.7693902 0.2559342)
(-3.2781452 -4.4414462 2.0913847)
(-5.6766803 -2.4211343 4.0443289)
(-3.1040312 -0.5158069 5.1327297)
(2.6922742e+08 -0.13238889 5.8972874)
(-2.6922749e+08 -6.0888847 -3.3204127)
(-2.4561987 -6.4518125 -2.2155782)
(-2.710865 -6.5534458 -1.9061467)
(-7.1977361 -7.9815652 -0.847489)
(-7.6474499 -7.6474584 0.17554534)
(-4.0936408 -5.6147837 2.5011459)
(-1.7788973 -4.5029453 3.9492278)
(-3.7924174 -1.9597 5.4410478)
(-1.5129118 -0.23661915 5.9049162)
(2.692274e+08 1.0026672 6.6474675)
(-2.6922746e+08 -6.6920913 -3.25415)
(-2.259636 -6.6433608 -2.7506521)
(-3.6514239 -6.8499479 -1.9974226)
(-6.7693788 -5.8111615 0.25592922)
(-5.6147761 -4.0936467 2.5011458)
(-2.666642 -2.6666497 3.9883251)
(0.37693848 -1.2592844 5.6171017)
(-1.4103542 0.12591599 7.1189)
(-0.14166382 2.3412297 7.987715)
(2.6922739e+08 2.3609729 8.184636)
(-2.6922744e+08 -6.4301769 -2.5928794)
(-2.6140555 -7.4810413 -1.8615944)
(-1.8786657 -6.1271546 -0.24928824)
(-4.4414349 -3.2781531 2.0913775)
(-4.5029381 -1.7789052 3.9492229)
(-1.2592785 0.37693393 5.6170982)
(1.0136684 1.013662 7.5278344)
(-0.19190331 2.6643283 8.8326598)
(0.72214484 2.7609962 9.7302)
(2.6922737e+08 2.3603343 9.8231908)
(-2.6922743e+08 -8.2446355 -1.0728056)
(-1.9566136 -8.6545745 0.47245526)
(0.55146436 -7.7180539 2.5713203)
(-2.4211294 -5.6766845 4.0443136)
(-1.9596891 -3.7924275 5.4410381)
(0.1259253 -1.4103568 7.1188921)
(2.6643329 -0.19190675 8.8326589)
(0.33698003 0.33697451 10.449957)
(-0.44565794 0.32437164 11.31548)
(2.6922736e+08 0.61190851 11.213024)
(-2.6922743e+08 -5.5546267 1.4545524)
(-2.087474 -3.0854376 3.2752258)
(1.0992243 -3.8016571 5.0529298)
(-0.51580859 -3.1040311 5.132717)
(-0.23661045 -1.5129129 5.9049038)
(2.3412423 -0.14166514 7.9877056)
(2.7609997 0.72214129 9.7301959)
(0.32437507 -0.44566121 11.315476)
(0.99707873 0.997073 11.684467)
(2.6922735e+08 4.1905442 11.683007)
(-2.6922742e+08 2.72111e+08 2.9020313)
(-0.20364406 2.7211101e+08 5.2698644)
(0.53287078 2.72111e+08 6.0303365)
(-0.13238522 2.72111e+08 5.8972768)
(1.0026769 2.7211098e+08 6.647456)
(2.3609794 2.7211097e+08 8.1846292)
(2.3603369 2.7211096e+08 9.8231858)
(0.61191162 2.7211094e+08 11.213021)
(4.1905473 2.7211093e+08 11.683008)
(2.6922735e+08 2.7211092e+08 13.093114)
(-2.7211266e+08 -2.7211266e+08 0.17400077)
(-3.5686348 -2.7211267e+08 1.8772133)
(-0.10441647 -2.7211265e+08 3.9937447)
(-4.3335384 -2.7211263e+08 4.7163255)
(-6.0595352 -2.7211261e+08 5.2304788)
(-6.1185556 -2.7211259e+08 5.9142621)
(-5.2191082 -2.7211256e+08 6.938256)
(-5.5778286 -2.7211255e+08 8.8341165)
(-3.2846041 -2.7211254e+08 11.400937)
(2.7211254e+08 -2.7211254e+08 12.507358)
(-2.6922907e+08 -3.5686415 1.8772124)
(0.081345746 0.081336911 2.2903511)
(-0.40117418 -0.28780309 5.8651902)
(-4.6270642 -0.4487079 6.8368696)
(-6.8570836 -1.1289002 6.9640384)
(-5.6176999 -0.67979352 7.8636301)
(-5.5390805 -0.28563176 9.8027004)
(-6.1174427 0.12139683 11.464289)
(-0.9839349 -0.49308472 13.567114)
(2.6922895e+08 1.36728 14.677382)
(-2.6922905e+08 -0.10442392 3.9937425)
(-0.28779673 -0.40118578 5.8651859)
(-0.63446122 -0.63447266 7.6160628)
(-5.1746353 -1.5879065 8.5539924)
(-6.2906207 -0.92113171 8.9616137)
(-5.2752873 -1.2408165 10.456868)
(-4.417918 0.24674986 11.889572)
(-5.7852818 1.8942492 12.787805)
(-2.038721 1.8797502 14.645715)
(2.6922895e+08 1.0476958 15.352243)
(-2.6922904e+08 -4.3335507 4.7163205)
(-0.44870294 -4.6270767 6.836866)
(-1.5878949 -5.1746484 8.5539881)
(-4.9137233 -4.9137375 9.6210975)
(-6.5099936 -5.1030296 11.202053)
(-4.4498183 -4.250212 12.608811)
(-2.4040148 -2.7691556 13.080864)
(-4.4844424 -1.0289768 13.533188)
(-1.8304881 0.26615077 14.803474)
(2.6922893e+08 0.26314581 15.15342)
(-2.6922901e+08 -6.0595504 5.2304719)
(-1.1288943 -6.857094 6.9640322)
(-0.92112207 -6.2906325 8.9616115)
(-5.1030165 -6.5100043 11.202049)
(-5.6270952 -5.6271068 12.625956)
(-2.9414133 -4.1920828 14.026101)
(-1.1966828 -2.9600992 13.958159)
(-2.7499755 -0.041698267 14.808247)
(-0.74659836 1.2767621 15.287659)
(2.6922891e+08 1.7304337 14.759607)
(-2.6922899e+08 -6.1185626 5.914256)
(-0.67978515 -5.6177064 7.8636228)
(-1.2408053 -5.2752938 10.456861)
(-4.2501977 -4.4498239 12.608801)
(-4.192072 -2.9414206 14.026094)
(-1.7828106 -1.7828197 14.429651)
(1.7463697 0.55657111 15.313793)
(-0.24758111 1.6683836 16.149077)
(-0.058356156 3.5259502 15.929983)
(2.6922889e+08 3.119833 14.494481)
(-2.6922897e+08 -5.2191109 6.9382443)
(-0.28562574 -5.5390882 9.8026867)
(0.24676042 -4.4179274 11.889561)
(-2.7691432 -2.4040271 13.080854)
(-2.9600911 -1.1966937 13.95815)
(0.5565784 1.7463594 15.313792)
(2.2545205 2.2545122 16.301907)
(0.21940365 3.1143845 16.041485)
(0.70485097 3.3982132 15.367898)
(2.6922886e+08 3.2121445 14.574091)
(-2.6922896e+08 -5.5778274 8.8341011)
(0.12139848 -6.1174443 11.46427)
(1.8942558 -5.7852875 12.787788)
(-1.028964 -4.484448 13.533174)
(-0.041685523 -2.7499863 14.80824)
(1.6683953 -0.24758943 16.14907)
(3.1143948 0.21939566 16.041481)
(0.89611984 0.8961116 14.82097)
(0.039403713 0.89861124 15.455258)
(2.6922885e+08 1.3159867 14.686305)
(-2.6922895e+08 -3.284603 11.400915)
(-0.49308576 -0.98393273 13.567093)
(1.8797567 -2.0387211 14.645691)
(0.26615796 -1.8304856 14.803458)
(1.2767675 -0.7466026 15.287654)
(3.5259604 -0.058359089 15.929976)
(3.3982216 0.7048442 15.367891)
(0.89861922 0.039397975 15.455256)
(1.1247259 1.1247185 15.910547)
(2.6922884e+08 4.9152077 14.50715)
(-2.6922895e+08 2.7211254e+08 12.507339)
(1.3672802 2.7211254e+08 14.677365)
(1.047703 2.7211253e+08 15.352222)
(0.2631544 2.7211252e+08 15.153403)
(1.7304407 2.721125e+08 14.759592)
(3.1198422 2.7211247e+08 14.494465)
(3.2121522 2.7211245e+08 14.574083)
(1.315994 2.7211244e+08 14.686302)
(4.9152132 2.7211243e+08 14.507151)
(2.6922884e+08 2.7211242e+08 12.963842)
(-2.7211415e+08 -2.7211414e+08 4.6791025)
(-0.024737011 -2.7211414e+08 8.2993375)
(0.90109334 -2.7211413e+08 9.6078485)
(-3.4640204 -2.7211412e+08 10.616185)
(-4.8909343 -2.7211409e+08 12.066512)
(-4.9843061 -2.7211408e+08 13.27818)
(-3.510323 -2.7211406e+08 15.023659)
(-3.7819601 -2.7211406e+08 16.000579)
(-1.8813863 -2.7211406e+08 17.236358)
(2.7211405e+08 -2.7211405e+08 17.572981)
(-2.6923054e+08 -0.024743369 8.2993389)
(2.1643173 2.1643077 11.259429)
(1.4642258 1.9469834 11.941917)
(-3.7750839 2.0425878 12.662857)
(-5.4250419 1.2749353 14.348695)
(-3.8046914 2.2829646 16.139602)
(-3.8803815 2.337258 17.45316)
(-4.8901636 1.9970715 17.772379)
(0.1276563 1.1573044 18.679397)
(2.6923046e+08 2.6412382 19.089905)
(-2.6923053e+08 0.90108426 9.6078479)
(1.9469897 1.4642141 11.941917)
(0.77937319 0.77935963 13.0934)
(-4.1360686 0.66254855 14.420943)
(-4.6505574 1.5271418 16.435037)
(-3.9219834 1.0937461 17.716881)
(-3.796216 1.39949 18.168935)
(-4.961914 2.62036 18.406861)
(-1.2372197 2.3355825 19.742934)
(2.6923045e+08 1.0089037 18.989693)
(-2.6923052e+08 -3.464033 10.616181)
(2.0425928 -3.7750952 12.662857)
(0.66256024 -4.1360818 14.420942)
(-3.0273017 -3.0273169 16.414976)
(-4.9938443 -3.533405 17.566346)
(-3.9323432 -3.2001568 18.144636)
(-2.3537676 -2.372859 18.386464)
(-3.9540711 -0.40069278 18.875529)
(-1.4837999 0.12613754 19.122764)
(2.6923042e+08 -0.72502518 17.899735)
(-2.692305e+08 -4.8909491 12.066509)
(1.274941 -5.4250557 14.348692)
(1.5271514 -4.6505727 16.435033)
(-3.5333918 -4.9938614 17.566344)
(-4.8233973 -4.823417 17.929232)
(-2.7614373 -3.7939439 18.334344)
(-0.99675198 -2.2700168 18.831831)
(-2.4629175 0.65618866 19.002196)
(-1.5615521 0.88989026 17.822708)
(2.692304e+08 0.34372854 15.837711)
(-2.6923048e+08 -4.9843186 13.278176)
(2.2829692 -3.8047063 16.139599)
(1.0937545 -3.9219984 17.716879)
(-3.2001459 -3.9323563 18.144629)
(-3.7939268 -2.7614525 18.334339)
(-1.378943 -1.3789595 19.048851)
(2.0963649 1.0844635 19.163035)
(-0.79416404 1.3591543 17.932324)
(-1.79626 2.421468 16.279161)
(2.6923037e+08 2.1754572 14.250487)
(-2.6923046e+08 -3.5103316 15.023647)
(2.3372612 -3.8803943 17.453145)
(1.3995014 -3.7962281 18.168921)
(-2.3728459 -2.3537801 18.386452)
(-2.2700005 -0.99675915 18.831818)
(1.0844787 2.0963536 19.163031)
(1.7413618 1.7413498 17.652836)
(-1.125913 1.3362209 16.378965)
(-0.74524933 2.2862708 14.423971)
(2.6923035e+08 2.5521586 12.696351)
(-2.6923046e+08 -3.7819654 16.000565)
(1.9970728 -4.8901679 17.772367)
(2.6203688 -4.9619235 18.40685)
(-0.400677 -3.9540808 18.875521)
(0.65620693 -2.4629239 19.002188)
(1.359166 -0.79417229 17.932318)
(1.3362322 -1.1259229 16.378961)
(-0.24924307 -0.24925485 14.092456)
(-0.58032243 0.86702102 12.858681)
(2.6923033e+08 0.54496741 11.55076)
(-2.6923046e+08 -1.881389 17.236341)
(1.157303 0.12765725 18.679382)
(2.3355886 -1.2372225 19.742918)
(0.12615368 -1.4838024 19.122749)
(0.889908 -1.5615611 17.822703)
(2.4214798 -1.7962699 16.279158)
(2.2862792 -0.74525603 14.42397)
(0.86703089 -0.58032868 12.858682)
(0.048972817 0.048966047 12.066527)
(2.6923032e+08 2.4680806 9.6066367)
(-2.6923046e+08 2.7211405e+08 17.572962)
(2.6412393 2.7211405e+08 19.089888)
(1.0089091 2.7211404e+08 18.989678)
(-0.72501565 2.7211402e+08 17.899723)
(0.34373929 2.7211399e+08 15.837704)
(2.1754711 2.7211397e+08 14.250481)
(2.5521735 2.7211394e+08 12.696348)
(0.544979 2.7211393e+08 11.55076)
(2.4680868 2.7211392e+08 9.6066359)
(2.6923032e+08 2.7211391e+08 5.7856531)
(-2.7211561e+08 -2.7211559e+08 8.5857157)
(1.3601119 -2.7211559e+08 9.2170951)
(2.2124313 -2.7211559e+08 9.1640185)
(-1.8748747 -2.7211558e+08 11.158612)
(-3.3975405 -2.7211556e+08 12.516209)
(-3.1614091 -2.7211556e+08 14.803131)
(-2.4967092 -2.7211555e+08 15.431345)
(-3.3651292 -2.7211555e+08 15.286529)
(-1.7122029 -2.7211555e+08 15.668667)
(2.7211555e+08 -2.7211555e+08 15.317373)
(-2.69232e+08 1.3601048 9.2170936)
(3.7239235 3.723916 10.956521)
(1.0022538 3.1977477 10.097862)
(-2.2202863 3.3560503 12.036874)
(-3.3803385 3.2396242 14.001602)
(-2.5132347 3.7589072 15.592026)
(-3.9063037 2.8596441 15.453607)
(-4.8912057 2.5276794 15.318939)
(0.33359074 2.0134905 15.352919)
(2.6923195e+08 2.7839926 15.344676)
(-2.6923199e+08 2.2124178 9.1640166)
(3.1977549 1.0022416 10.097863)
(1.8445657 1.8445523 10.25073)
(-1.8329982 2.1642125 12.331574)
(-2.9946835 2.2965201 14.056975)
(-3.5413891 0.76421718 14.930729)
(-3.7279372 1.1800539 14.690654)
(-4.211283 2.9973993 14.958792)
(-1.4558897 2.3231173 15.551794)
(2.6923193e+08 -0.14247367 14.383286)
(-2.6923199e+08 -1.8748899 11.158609)
(3.3560579 -2.2203012 12.036875)
(2.1642247 -1.8330154 12.331574)
(-1.7683185 -1.7683366 13.538899)
(-4.7803338 -3.6088342 13.805413)
(-3.629701 -3.632749 14.409712)
(-1.6731216 -2.10626 14.858006)
(-3.7481422 -0.43364239 15.050934)
(-2.8062824 -1.654075 14.168004)
(2.6923191e+08 -2.8888356 12.445252)
(-2.6923197e+08 -3.3975551 12.516206)
(3.2396294 -3.3803518 14.001599)
(2.2965303 -2.9946956 14.05697)
(-3.6088171 -4.7803519 13.805415)
(-4.8590959 -4.8591144 13.752434)
(-2.0388148 -3.287868 14.384717)
(-0.52883062 -2.1835278 14.645837)
(-3.759098 -0.9849038 13.608779)
(-3.911083 -1.5668406 11.258521)
(2.6923188e+08 -1.9188143 9.7946656)
(-2.6923196e+08 -3.1614249 14.803122)
(3.7589174 -2.513253 15.59202)
(0.76422464 -3.5414057 14.930725)
(-3.6327373 -3.6297159 14.409708)
(-3.2878499 -2.0388345 14.38472)
(-0.95411439 -0.95413264 14.63311)
(0.62984258 -0.62242327 13.461591)
(-3.131455 -0.95484776 10.359407)
(-3.7401928 0.12721284 8.4190784)
(2.6923185e+08 -0.021527107 7.7360591)
(-2.6923195e+08 -2.4967218 15.431337)
(2.8596485 -3.9063201 15.453602)
(1.1800675 -3.7279559 14.690649)
(-2.1062459 -1.6731347 14.858002)
(-2.1835126 -0.52884411 14.645838)
(-0.62240356 0.62982671 13.461591)
(-0.52954575 -0.52956165 9.8552397)
(-3.0094618 -0.72548336 8.2982684)
(-2.9777623 -0.022267409 6.0466067)
(2.6923183e+08 0.5124175 4.37933)
(-2.6923195e+08 -3.3651328 15.286515)
(2.5276833 -4.8912076 15.318931)
(2.9974101 -4.2112903 14.958785)
(-0.43362546 -3.7481509 15.050929)
(-0.98488852 -3.7591017 13.608774)
(-0.95483192 -3.1314624 10.359404)
(-0.72546749 -3.009471 8.2982681)
(-2.6241607 -2.6241712 5.9375224)
(-2.5022919 -1.4588321 3.2976869)
(2.6923182e+08 -1.7737281 1.9324332)
(-2.6923195e+08 -1.7122058 15.668654)
(2.0134911 0.33358839 15.352909)
(2.3231241 -1.4558931 15.551789)
(-1.6540573 -2.8062832 14.167997)
(-1.5668241 -3.9110866 11.258515)
(0.12722712 -3.7401961 8.4190716)
(-0.022254607 -2.9777691 6.0466059)
(-1.4588229 -2.5022983 3.297687)
(-2.127319 -2.1273262 0.23653835)
(2.6923181e+08 -0.84989963 -1.6523098)
(-2.6923195e+08 2.7211555e+08 15.317363)
(2.783996 2.7211555e+08 15.344665)
(-0.14246146 2.7211553e+08 14.383278)
(-2.8888189 2.721155e+08 12.445246)
(-1.9188014 2.7211548e+08 9.7946639)
(-0.021514408 2.7211545e+08 7.736059)
(0.51243026 2.7211543e+08 4.3793297)
(-1.773718 2.7211541e+08 1.9324325)
(-0.84989313 2.721154e+08 -1.6523106)
(2.692318e+08 2.721154e+08 -2.6870305)
(-2.7211704e+08 -2.7211703e+08 2.8746927)
(0.5535659 -2.7211703e+08 2.8033025)
(2.8426101 -2.7211704e+08 1.9478062)
(-0.11182934 -2.7211703e+08 3.1783815)
(-1.2464156 -2.7211702e+08 5.2274777)
(-2.0691702 -2.7211702e+08 7.6043984)