/*--------------------------------*- C++ -*----------------------------------*\
| =========                 |                                                 |
| \\      /  F ield         | OpenFOAM: The Open Source CFD Toolbox           |
|  \\    /   O peration     | Version:  v2106                                 |
|   \\  /    A nd           | Website:  www.openfoam.com                      |
|    \\/     M anipulation  |                                                 |
\*---------------------------------------------------------------------------*/
FoamFile
{
    version     2.0;
    format      ascii;
    arch        "LSB;label=32;scalar=64";
    class       volVectorField;
    location    "0";
    object      gradTmode2;
}
// * * * * * * * * * * * * * * * * * * * * * * * * * * * * * * * * * * * * * //

dimensions      [0 -1 0 1 0 0 0];

internalField   nonuniform List<vector> 
6000
(
(3.3333333e-07 -0.002318 2.0265277)
(5e-07 -0.002318 2.0265313)
(1e-06 -0.002318 2.026533)
(5e-07 -0.002318 2.0265357)
(-1.1337668e-16 -0.0023176667 2.026536)
(-2.5167438e-19 -0.002318 2.0265373)
(-5e-07 -0.0023183333 2.0265393)
(-2.0114119e-18 -0.002319 2.0265423)
(-1e-06 -0.0023196667 2.026545)
(-6.6666667e-07 -0.0023193333 2.0265453)
(3.3333333e-07 -0.0104365 2.0279327)
(5e-07 -0.0104365 2.0279347)
(1e-06 -0.0104355 2.0279347)
(1e-06 -0.010436 2.027937)
(-1.1955249e-16 -0.0104355 2.0279387)
(-1e-06 -0.0104365 2.02794)
(-2e-06 -0.010437 2.027941)
(-2e-06 -0.010438 2.0279433)
(-1.5e-06 -0.0104395 2.0279437)
(-3.3333333e-07 -0.010439 2.027945)
(3.3333333e-07 -0.0174085 2.0307357)
(1.5e-06 -0.017408 2.0307373)
(1.5e-06 -0.0174075 2.0307383)
(5e-07 -0.0174085 2.0307397)
(-5e-07 -0.017408 2.030741)
(-1.5e-06 -0.0174085 2.030743)
(-2e-06 -0.0174085 2.030745)
(-2.5e-06 -0.0174085 2.0307467)
(-2e-06 -0.017408 2.0307463)
(-3.3333333e-07 -0.0174085 2.0307463)
(6.6666667e-07 -0.024399 2.0349433)
(1.5e-06 -0.0243985 2.0349457)
(5e-07 -0.0243985 2.0349447)
(5e-07 -0.0243985 2.0349447)
(-1.1107372e-16 -0.0243985 2.0349473)
(-1.5e-06 -0.0243985 2.034949)
(-2e-06 -0.024398 2.034951)
(-1.5e-06 -0.0243985 2.0349527)
(-1.5e-06 -0.024397 2.034954)
(-6.6666667e-07 -0.0243975 2.034953)
(6.6666667e-07 -0.031414 2.0405593)
(2e-06 -0.0314145 2.040561)
(1.5e-06 -0.031414 2.040562)
(5e-07 -0.031413 2.040562)
(-5e-07 -0.0314135 2.0405637)
(-1e-06 -0.0314135 2.0405637)
(-2e-06 -0.031413 2.0405667)
(-1.5e-06 -0.0314135 2.040567)
(-1e-06 -0.0314135 2.04057)
(-6.6666667e-07 -0.0314135 2.0405707)
(3.3333333e-07 -0.0384615 2.047594)
(1.5e-06 -0.0384625 2.0475943)
(2e-06 -0.038463 2.0475957)
(1e-06 -0.0384625 2.0475967)
(-5e-07 -0.038462 2.0475967)
(-1e-06 -0.038462 2.047597)
(-2e-06 -0.0384625 2.0476)
(-2e-06 -0.0384625 2.0476007)
(-1.5e-06 -0.0384635 2.047604)
(-6.6666667e-07 -0.0384625 2.0476037)
(-2.6339174e-17 -0.0455505 2.0560523)
(5e-07 -0.0455515 2.056053)
(1.5e-06 -0.0455525 2.056053)
(1.5e-06 -0.045553 2.0560537)
(-6.4333282e-20 -0.0455525 2.0560547)
(-1.5e-06 -0.0455525 2.0560547)
(-2.5e-06 -0.0455535 2.056057)
(-2.5e-06 -0.045553 2.0560593)
(-1e-06 -0.045553 2.0560603)
(-2.7367287e-17 -0.045551 2.056062)
(-3.3333333e-07 -0.0526875 2.0659477)
(-5e-07 -0.0526885 2.065946)
(5e-07 -0.052689 2.065946)
(1e-06 -0.05269 2.0659457)
(1.3484556e-16 -0.0526905 2.0659477)
(-2e-06 -0.05269 2.065948)
(-2.5e-06 -0.0526905 2.0659493)
(-1.5e-06 -0.05269 2.0659517)
(5e-07 -0.0526885 2.065954)
(6.6666667e-07 -0.0526885 2.0659567)
(-6.6666667e-07 -0.0598795 2.0772907)
(-1e-06 -0.0598795 2.0772887)
(-8.9771976e-17 -0.059879 2.0772887)
(5.2720198e-17 -0.05988 2.0772887)
(8.6445698e-17 -0.05988 2.0772897)
(-1.5e-06 -0.05988 2.077291)
(-2.5e-06 -0.0598785 2.0772913)
(-5e-07 -0.059879 2.077293)
(5e-07 -0.0598785 2.0772977)
(-9.0994233e-17 -0.0598805 2.0772997)
(-3.3333333e-07 -0.06713 2.0900987)
(8.4190656e-17 -0.067129 2.090098)
(1.8414937e-18 -0.067129 2.090099)
(-2.5651091e-16 -0.067129 2.0900963)
(1.4281125e-16 -0.0671285 2.0900987)
(-5e-07 -0.067129 2.090099)
(-1.5e-06 -0.067127 2.0901023)
(-1.5e-06 -0.0671275 2.090103)
(-1e-06 -0.067129 2.0901083)
(-6.6666667e-07 -0.067131 2.090108)
(-2.1523437e-17 -0.0744445 2.104397)
(3.3081177e-17 -0.074443 2.1043963)
(-8.3387868e-17 -0.074443 2.1043947)
(5e-07 -0.074443 2.1043947)
(3.2085339e-17 -0.0744435 2.1043967)
(3.2218602e-17 -0.0744435 2.104397)
(-1e-06 -0.074444 2.1044017)
(-2.5e-06 -0.074443 2.1044047)
(-3e-06 -0.0744445 2.1044063)
(-1.3333333e-06 -0.074445 2.104404)
(6.6666667e-07 -0.081829 2.120207)
(1.5e-06 -0.0818275 2.120208)
(-1.3764285e-21 -0.081827 2.120209)
(-5e-07 -0.0818275 2.1202073)
(-5e-07 -0.081828 2.1202087)
(-1e-06 -0.081828 2.1202103)
(-1e-06 -0.08183 2.120214)
(-2e-06 -0.0818285 2.1202193)
(-3e-06 -0.0818285 2.1202197)
(-1e-06 -0.081827 2.120218)
(1e-06 -0.0892845 2.1375657)
(2e-06 -0.089285 2.137569)
(1.0587912e-22 -0.089285 2.1375697)
(-5e-07 -0.0892845 2.1375697)
(-5e-07 -0.0892845 2.137571)
(-2e-06 -0.0892845 2.137573)
(-1.5e-06 -0.0892855 2.1375743)
(-1e-06 -0.089286 2.1375807)
(-1.5e-06 -0.0892845 2.1375833)
(-3.3333333e-07 -0.0892825 2.1375843)
(3.3333333e-07 -0.0968135 2.1565227)
(1e-06 -0.0968155 2.156524)
(5e-07 -0.0968155 2.1565247)
(-1.1649525e-16 -0.096815 2.156526)
(-5e-07 -0.0968145 2.1565283)
(-2e-06 -0.096814 2.1565293)
(-2.5e-06 -0.0968135 2.1565307)
(-1e-06 -0.096815 2.1565337)
(5e-07 -0.096814 2.1565387)
(3.3333333e-07 -0.0968135 2.156543)
(-3.3333333e-07 -0.1044155 2.1771293)
(1.0492535e-17 -0.1044165 2.1771283)
(5e-07 -0.1044165 2.1771307)
(5e-07 -0.1044165 2.1771317)
(5e-07 -0.1044165 2.1771343)
(-1e-06 -0.104416 2.1771363)
(-2.5e-06 -0.1044145 2.1771377)
(-1.5e-06 -0.104415 2.1771407)
(-1.2368365e-16 -0.104415 2.1771457)
(-1.5810096e-16 -0.1044165 2.177148)
(-3.3333333e-07 -0.1120845 2.1994617)
(-8.3521599e-19 -0.1120835 2.1994607)
(5e-07 -0.1120835 2.1994617)
(-1.2152117e-17 -0.1120835 2.199463)
(-1.1308751e-16 -0.112085 2.1994647)
(2.3818848e-16 -0.1120845 2.1994667)
(-1.5e-06 -0.1120835 2.1994703)
(-1.5e-06 -0.112083 2.1994733)
(-1e-06 -0.112083 2.1994783)
(-6.6666667e-07 -0.112084 2.1994787)
(3.3333333e-07 -0.1198095 2.2236167)
(1e-06 -0.119809 2.2236177)
(5e-07 -0.1198095 2.223619)
(-1e-06 -0.1198085 2.2236193)
(-5e-07 -0.1198095 2.223619)
(5e-07 -0.119809 2.223622)
(-1e-06 -0.1198095 2.2236267)
(-1e-06 -0.1198085 2.2236297)
(-1e-06 -0.119809 2.223635)
(-6.6666667e-07 -0.119808 2.223635)
(-1.8737905e-18 -0.127575 2.249729)
(1.2083327e-16 -0.1275755 2.2497297)
(1e-06 -0.127577 2.2497287)
(-1.5032701e-16 -0.1275765 2.249731)
(-5e-07 -0.127575 2.2497307)
(7.0375732e-20 -0.1275755 2.249735)
(-1e-06 -0.127576 2.2497373)
(-1e-06 -0.127576 2.249743)
(-5e-07 -0.1275765 2.2497457)
(-4.2921432e-17 -0.127576 2.2497477)
(6.1634231e-17 -0.1353565 2.2779763)
(-1e-06 -0.135357 2.277977)
(-5e-07 -0.1353575 2.2779747)
(1e-06 -0.135359 2.277976)
(5e-07 -0.135357 2.2779787)
(-5e-07 -0.1353575 2.277982)
(-1.5e-06 -0.135357 2.277985)
(-1.5e-06 -0.1353575 2.277988)
(-1e-06 -0.135358 2.2779917)
(-3.3333333e-07 -0.1353595 2.2779927)
(-3.3333333e-07 -0.1431125 2.3086067)
(-1e-06 -0.143113 2.308606)
(-1e-06 -0.1431115 2.3086043)
(5e-07 -0.1431125 2.3086037)
(1e-06 -0.143112 2.3086077)
(-6.1785682e-17 -0.143112 2.3086097)
(-1e-06 -0.143112 2.3086137)
(-2e-06 -0.143112 2.3086177)
(-2.5e-06 -0.1431125 2.3086207)
(-1e-06 -0.143113 2.3086203)
(-3.3333333e-07 -0.15078 2.3419593)
(-1.3242953e-16 -0.150779 2.341958)
(-5.4935846e-19 -0.1507775 2.341959)
(5e-07 -0.1507765 2.341957)
(1e-06 -0.150777 2.3419613)
(-5e-07 -0.1507765 2.3419637)
(-1.5e-06 -0.150777 2.3419663)
(-2e-06 -0.150777 2.3419703)
(-2e-06 -0.150777 2.341973)
(-6.6666667e-07 -0.150778 2.3419727)
(3.3333333e-07 -0.1582595 2.3785247)
(1.5e-06 -0.158258 2.3785243)
(1.5e-06 -0.1582575 2.3785253)
(1e-06 -0.158256 2.378526)
(1e-06 -0.1582565 2.378528)
(1.2887304e-16 -0.158256 2.378531)
(-1.5e-06 -0.158256 2.3785337)
(-2e-06 -0.158256 2.3785377)
(-3.5e-06 -0.1582565 2.3785403)
(-1.6666667e-06 -0.158258 2.378538)
(6.6666667e-07 -0.165396 2.419013)
(2e-06 -0.1653955 2.419014)
(2e-06 -0.165396 2.4190143)
(1.5e-06 -0.165395 2.4190147)
(1e-06 -0.165395 2.4190167)
(1.2503816e-19 -0.1653955 2.419021)
(-1.5e-06 -0.1653955 2.4190233)
(-2.5e-06 -0.1653955 2.419027)
(-4e-06 -0.165396 2.4190287)
(-1.6666667e-06 -0.1653955 2.419026)
(6.6666667e-07 -0.171932 2.4644893)
(1.5e-06 -0.171932 2.4644897)
(2e-06 -0.1719315 2.4644887)
(2e-06 -0.1719315 2.4644903)
(5e-07 -0.171931 2.4644923)
(-5e-07 -0.1719315 2.464494)
(-1.5e-06 -0.171932 2.4644973)
(-2.5e-06 -0.1719325 2.464501)
(-3.5e-06 -0.1719315 2.4645023)
(-1.3333333e-06 -0.17193 2.464501)
(6.6666667e-07 -0.1773915 2.516606)
(2.5e-06 -0.1773915 2.516606)
(2.5e-06 -0.17739 2.516607)
(2e-06 -0.1773905 2.5166073)
(1e-06 -0.17739 2.516609)
(-1e-06 -0.1773905 2.516612)
(-2.5e-06 -0.1773915 2.5166143)
(-2e-06 -0.177391 2.5166167)
(-1.5e-06 -0.17739 2.5166203)
(-6.6666667e-07 -0.177388 2.5166193)
(6.6666667e-07 -0.180803 2.5781013)
(3e-06 -0.180803 2.5781013)
(3e-06 -0.1808025 2.5781037)
(2e-06 -0.1808025 2.578105)
(5e-07 -0.180803 2.5781077)
(-2e-06 -0.1808035 2.57811)
(-2e-06 -0.180803 2.5781097)
(-1e-06 -0.180803 2.578113)
(-5e-07 -0.1808035 2.5781163)
(9.2376013e-17 -0.180802 2.578119)
(6.6666667e-07 -0.1798455 2.6538983)
(3e-06 -0.1798455 2.6538983)
(3e-06 -0.1798465 2.6539003)
(1.5e-06 -0.179847 2.6539017)
(-4.5520925e-16 -0.179848 2.6539033)
(-1e-06 -0.1798475 2.6539053)
(-2e-06 -0.1798465 2.6539073)
(-2.5e-06 -0.179848 2.653907)
(-5e-07 -0.1798485 2.6539093)
(3.3333333e-07 -0.1798485 2.653912)
(6.6666667e-07 -0.1678025 2.7539323)
(2e-06 -0.167803 2.7539333)
(1.5e-06 -0.1678045 2.7539333)
(5e-07 -0.167806 2.753935)
(-9.3026715e-18 -0.167806 2.753937)
(-5e-07 -0.167805 2.7539383)
(-2.5e-06 -0.1678055 2.7539387)
(-3e-06 -0.167806 2.753939)
(-1e-06 -0.167806 2.75394)
(-3.7941178e-16 -0.167808 2.7539407)
(3.3333333e-07 -0.121237 2.9017183)
(1e-06 -0.1212375 2.9017183)
(4.5097293e-17 -0.121239 2.9017183)
(6.2249457e-17 -0.121239 2.9017177)
(1e-06 -0.121239 2.9017193)
(-5e-07 -0.121239 2.901723)
(-3e-06 -0.1212395 2.9017223)
(-3e-06 -0.121238 2.9017213)
(-2.5e-06 -0.1212395 2.9017213)
(-1e-06 -0.1212395 2.90172)
(3.3333333e-07 -0.028242667 3.164272)
(2.4496193e-17 -0.028242667 3.1642717)
(-1.8741272e-16 -0.028243333 3.164271)
(5e-07 -0.028242667 3.1642727)
(1.6144199e-16 -0.028243 3.1642743)
(-1e-06 -0.028243333 3.1642757)
(-1.5e-06 -0.028243333 3.164275)
(-3e-06 -0.028242333 3.1642773)
(-2.5e-06 -0.028243333 3.1642743)
(-7.6858755e-17 -0.028242333 3.1642747)
(1.4808396e-16 -0.0018503333 2.0339475)
(5e-07 -0.0018493333 2.0339485)
(1.5e-06 -0.0018496667 2.0339485)
(1e-06 -0.00185 2.0339475)
(5e-07 -0.0018496667 2.033949)
(1e-06 -0.00185 2.0339495)
(1e-06 -0.00185 2.033951)
(5e-07 -0.00185 2.033952)
(-5e-07 -0.0018503333 2.033953)
(-3.3333333e-07 -0.0018503333 2.0339535)
(1e-06 -0.0083285 2.035356)
(1.5e-06 -0.0083275 2.035356)
(5e-07 -0.0083275 2.0353565)
(1e-06 -0.008328 2.0353555)
(5e-07 -0.008328 2.035356)
(5e-07 -0.008328 2.035357)
(1e-06 -0.0083285 2.0353595)
(4.4857271e-16 -0.0083295 2.0353615)
(-1e-06 -0.0083295 2.035363)
(-3.3333333e-07 -0.0083295 2.0353635)
(6.6666667e-07 -0.0138905 2.038174)
(1.5e-06 -0.0138915 2.038174)
(1e-06 -0.0138905 2.038173)
(5e-07 -0.013891 2.038173)
(5e-07 -0.013891 2.038173)
(5e-07 -0.013891 2.038175)
(-5e-07 -0.0138915 2.038177)
(-5e-07 -0.0138925 2.038179)
(-5e-07 -0.0138925 2.038181)
(-3.3333333e-07 -0.0138925 2.0381815)
(3.3333333e-07 -0.0194695 2.0424045)
(1.5e-06 -0.019469 2.042404)
(1e-06 -0.019469 2.042404)
(5e-07 -0.019469 2.042404)
(5e-07 -0.0194685 2.0424045)
(2.553636e-16 -0.0194695 2.042406)
(-5e-07 -0.0194695 2.0424075)
(-1e-06 -0.01947 2.0424095)
(-1e-06 -0.0194695 2.042411)
(-3.3333333e-07 -0.019469 2.042412)
(1e-06 -0.025068 2.048053)
(2e-06 -0.0250675 2.048053)
(1e-06 -0.0250675 2.048052)
(1e-06 -0.025067 2.048052)
(-7.0902679e-16 -0.0250675 2.0480525)
(-5e-07 -0.0250675 2.048054)
(-1e-06 -0.0250675 2.0480555)
(-5e-07 -0.0250675 2.0480575)
(5e-07 -0.0250665 2.048059)
(-1.3597272e-16 -0.0250655 2.0480605)
(6.6666667e-07 -0.03069 2.0551245)
(2e-06 -0.0306905 2.0551245)
(1.5e-06 -0.0306905 2.055124)
(5e-07 -0.030691 2.0551235)
(-3.0563659e-19 -0.0306915 2.0551235)
(-1.9619652e-16 -0.0306915 2.0551245)
(-5e-07 -0.030691 2.0551265)
(2.2404026e-16 -0.03069 2.0551295)
(1e-06 -0.03069 2.055132)
(3.3333333e-07 -0.0306895 2.0551335)
(6.6666667e-07 -0.036344 2.0636275)
(1.5e-06 -0.036344 2.0636285)
(5e-07 -0.036345 2.063628)
(3.8816606e-31 -0.0363455 2.0636265)
(-5e-07 -0.036346 2.0636265)
(2.7697977e-22 -0.036346 2.0636275)
(5e-07 -0.0363455 2.06363)
(5e-07 -0.0363445 2.063634)
(1e-06 -0.036344 2.063637)
(3.3333333e-07 -0.0363435 2.063638)
(6.6666667e-07 -0.042034 2.073573)
(1e-06 -0.042035 2.0735745)
(4.3326107e-16 -0.0420355 2.073574)
(-5e-07 -0.0420355 2.073573)
(-5e-07 -0.042036 2.0735725)
(5e-07 -0.0420355 2.073574)
(1e-06 -0.042035 2.0735775)
(1.5e-06 -0.0420335 2.073581)
(2e-06 -0.0420325 2.0735845)
(6.6666667e-07 -0.042032 2.0735845)
(-3.1438271e-16 -0.047763 2.0849745)
(-4.9415832e-16 -0.0477635 2.0849755)
(2.4614436e-16 -0.0477635 2.084975)
(-5e-07 -0.047764 2.0849745)
(-5e-07 -0.0477635 2.0849745)
(1e-06 -0.0477635 2.0849755)
(2.5e-06 -0.047763 2.0849795)
(3e-06 -0.047762 2.084984)
(2.5e-06 -0.047761 2.0849865)
(6.6666667e-07 -0.0477615 2.0849875)
(3.3333333e-07 -0.0535325 2.0978475)
(5e-07 -0.0535315 2.0978485)
(-5e-07 -0.053532 2.097847)
(-5e-07 -0.053532 2.097847)
(1.811743e-16 -0.053532 2.097846)
(1e-06 -0.053532 2.097848)
(2.5e-06 -0.0535315 2.0978505)
(3.5e-06 -0.053532 2.0978555)
(2.5e-06 -0.053532 2.097859)
(3.3333333e-07 -0.0535325 2.097861)
(6.6666667e-07 -0.059342 2.112211)
(5e-07 -0.059342 2.1122115)
(-5e-07 -0.059342 2.1122105)
(-5e-07 -0.0593425 2.11221)
(-5e-07 -0.0593425 2.112209)
(1.5e-06 -0.0593425 2.1122105)
(2.5e-06 -0.0593425 2.112213)
(2.5e-06 -0.0593425 2.112218)
(2e-06 -0.0593435 2.112222)
(3.3333333e-07 -0.059344 2.112225)
(3.3333333e-07 -0.065192 2.1280905)
(5e-07 -0.0651925 2.1280895)
(-1e-06 -0.0651925 2.1280885)
(-1e-06 -0.065193 2.128088)
(2.4486413e-16 -0.0651925 2.128088)
(1e-06 -0.065192 2.12809)
(2.5e-06 -0.065193 2.128093)
(2.5e-06 -0.0651925 2.128097)
(1e-06 -0.065193 2.128101)
(4.7088313e-16 -0.0651925 2.1281035)
(3.3333333e-07 -0.071077 2.145517)
(1.4772149e-17 -0.071077 2.145516)
(-1e-06 -0.0710775 2.1455145)
(-5e-07 -0.0710765 2.145514)
(5e-07 -0.071077 2.145514)
(1e-06 -0.071076 2.1455165)
(2e-06 -0.0710765 2.1455205)
(2.5e-06 -0.0710765 2.145524)
(2e-06 -0.071076 2.145528)
(6.6666667e-07 -0.071075 2.1455295)
(3.3333333e-07 -0.076986 2.16453)
(2.5137403e-16 -0.0769865 2.16453)
(-5e-07 -0.076986 2.1645285)
(-5e-07 -0.076986 2.164528)
(5e-07 -0.0769855 2.164528)
(1.5e-06 -0.076985 2.1645305)
(2e-06 -0.0769845 2.164535)
(3e-06 -0.076985 2.1645395)
(2.5e-06 -0.0769845 2.164543)
(6.6666667e-07 -0.076984 2.1645435)
(1.6094139e-16 -0.082903 2.185182)
(2.4012956e-16 -0.0829035 2.1851825)
(-5e-07 -0.082903 2.1851815)
(2.4109185e-16 -0.082903 2.185181)
(1.5e-06 -0.082902 2.1851805)
(2e-06 -0.082902 2.1851825)
(2e-06 -0.082901 2.185187)
(2.5e-06 -0.0829015 2.1851925)
(3e-06 -0.0829015 2.185196)
(1e-06 -0.082901 2.1851975)
(1.6277064e-16 -0.0888035 2.2075395)
(4.7740794e-16 -0.0888035 2.20754)
(4.7450764e-16 -0.088803 2.207539)
(5e-07 -0.088802 2.207539)
(1.5e-06 -0.088802 2.2075395)
(2.5e-06 -0.088802 2.2075415)
(2.5e-06 -0.088802 2.2075455)
(2.5e-06 -0.0888015 2.207551)
(3e-06 -0.088801 2.2075545)
(1e-06 -0.0888015 2.207557)
(-3.2009457e-16 -0.0946505 2.2316905)
(5e-07 -0.0946495 2.23169)
(1e-06 -0.094649 2.2316895)
(1e-06 -0.0946485 2.2316895)
(1.5e-06 -0.0946485 2.2316915)
(2e-06 -0.0946485 2.2316935)
(2.5e-06 -0.094649 2.231697)
(3.5e-06 -0.094648 2.231702)
(3e-06 -0.094648 2.231706)
(6.6666667e-07 -0.0946485 2.231708)
(6.6666667e-07 -0.1003875 2.2577505)
(1.5e-06 -0.1003865 2.257751)
(1e-06 -0.1003875 2.257751)
(1e-06 -0.1003875 2.25775)
(1.5e-06 -0.1003875 2.257752)
(2e-06 -0.1003875 2.2577545)
(3e-06 -0.1003865 2.2577585)
(3.5e-06 -0.1003865 2.257763)
(2.5e-06 -0.1003875 2.257767)
(6.6666667e-07 -0.1003875 2.257768)
(6.6666667e-07 -0.105936 2.2858775)
(5e-07 -0.1059365 2.285878)
(6.8186152e-22 -0.105938 2.285879)
(1e-06 -0.105938 2.2858785)
(1.5e-06 -0.1059375 2.285879)
(3e-06 -0.1059375 2.285882)
(3.5e-06 -0.1059365 2.285886)
(2.5e-06 -0.1059375 2.285891)
(2e-06 -0.1059375 2.2858945)
(6.6666667e-07 -0.1059385 2.285896)
(3.3333333e-07 -0.11118 2.3162835)
(-5e-07 -0.1111815 2.3162845)
(-5e-07 -0.111181 2.3162845)
(1.5e-06 -0.111181 2.316285)
(2e-06 -0.11118 2.316285)
(3e-06 -0.1111795 2.316288)
(3e-06 -0.11118 2.316292)
(2.5e-06 -0.1111805 2.3162965)
(1.5e-06 -0.1111805 2.3163005)
(1.966467e-16 -0.111181 2.3163025)
(-3.3333333e-07 -0.115943 2.3492595)
(-5e-07 -0.1159435 2.34926)
(5e-07 -0.115942 2.3492595)
(2e-06 -0.115941 2.3492605)
(3e-06 -0.1159405 2.349261)
(3e-06 -0.1159405 2.349264)
(2.5e-06 -0.115941 2.349268)
(2e-06 -0.115941 2.349272)
(1.5e-06 -0.1159415 2.349276)
(3.3333333e-07 -0.1159415 2.349278)
(-4.4835948e-16 -0.119959 2.3852105)
(5e-07 -0.119958 2.38521)
(2e-06 -0.1199565 2.3852095)
(3e-06 -0.1199555 2.3852105)
(2.5e-06 -0.1199555 2.3852115)
(2.5e-06 -0.119956 2.3852135)
(2.5e-06 -0.1199565 2.385217)
(2e-06 -0.119957 2.385221)
(1e-06 -0.119957 2.385225)
(-5.1772678e-16 -0.119958 2.385228)
(3.3333333e-07 -0.122817 2.4247035)
(2e-06 -0.1228155 2.424703)
(3e-06 -0.122815 2.4247035)
(3e-06 -0.1228145 2.424704)
(2.5e-06 -0.1228145 2.4247055)
(2e-06 -0.122815 2.424707)
(1.5e-06 -0.122816 2.42471)
(1.5e-06 -0.1228165 2.424714)
(5e-07 -0.122817 2.424718)
(-3.3333333e-07 -0.122817 2.424721)
(1e-06 -0.1238545 2.468549)
(2.5e-06 -0.123854 2.468549)
(3e-06 -0.1238545 2.46855)
(3.5e-06 -0.1238545 2.4685505)
(2e-06 -0.1238545 2.468551)
(1e-06 -0.123855 2.468553)
(1e-06 -0.1238555 2.468556)
(1e-06 -0.123856 2.4685595)
(5e-07 -0.123856 2.4685635)
(1.0683078e-16 -0.123856 2.468566)
(6.6666667e-07 -0.1219475 2.517912)
(2e-06 -0.121948 2.517912)
(2.5e-06 -0.1219475 2.5179115)
(3e-06 -0.1219485 2.517912)
(2e-06 -0.121949 2.5179125)
(1e-06 -0.1219485 2.517914)
(5e-07 -0.121949 2.5179175)
(1e-06 -0.121949 2.5179215)
(5e-07 -0.121949 2.517924)
(-3.3333333e-07 -0.121949 2.5179255)
(6.6666667e-07 -0.1150665 2.5744615)
(2.5e-06 -0.1150665 2.5744615)
(2.5e-06 -0.1150665 2.5744605)
(2e-06 -0.115067 2.574461)
(2e-06 -0.1150675 2.5744615)
(1e-06 -0.1150675 2.574464)
(5e-07 -0.1150675 2.5744675)
(1e-06 -0.1150675 2.57447)
(5e-07 -0.115068 2.574472)
(4.9606116e-16 -0.115067 2.574473)
(6.6666667e-07 -0.099321 2.640522)
(2e-06 -0.0993215 2.6405215)
(2e-06 -0.099322 2.6405205)
(2e-06 -0.099322 2.640521)
(1.5e-06 -0.099322 2.640522)
(1e-06 -0.099323 2.640524)
(5e-07 -0.099323 2.640526)
(5e-07 -0.099323 2.6405295)
(1e-06 -0.099323 2.640532)
(3.3333333e-07 -0.099322 2.6405325)
(3.3333333e-07 -0.0669105 2.7188455)
(1.5e-06 -0.066911 2.718845)
(2e-06 -0.0669115 2.7188455)
(2e-06 -0.066912 2.7188465)
(1e-06 -0.066912 2.7188475)
(2.3503877e-18 -0.0669125 2.7188485)
(5e-07 -0.066913 2.7188505)
(1e-06 -0.0669125 2.7188545)
(1.5e-06 -0.066912 2.7188575)
(6.6666667e-07 -0.066912 2.7188585)
(3.3333333e-07 -0.0024615 2.8102675)
(1e-06 -0.002462 2.810268)
(1e-06 -0.0024625 2.8102685)
(1.5e-06 -0.0024625 2.8102705)
(1e-06 -0.002463 2.810271)
(-6.1401765e-16 -0.002463 2.8102715)
(5e-07 -0.002463 2.8102735)
(1.5e-06 -0.0024625 2.8102775)
(1.5e-06 -0.002462 2.8102805)
(3.3333333e-07 -0.0024625 2.8102835)
(3.0069167e-17 0.013436333 2.9009465)
(5e-07 0.013436 2.9009465)
(1.5e-06 0.013436 2.900948)
(1.5e-06 0.013436333 2.900949)
(5e-07 0.013436 2.90095)
(-3.1870283e-16 0.013436 2.9009505)
(1e-06 0.013436 2.9009535)
(2e-06 0.013436333 2.900956)
(1.5e-06 0.013436333 2.900961)
(3.3333333e-07 0.013436333 2.900961)
(1e-06 -0.001379 2.0387885)
(1.5e-06 -0.0013796667 2.038789)
(-4.4134329e-16 -0.0013793333 2.038788)
(1e-06 -0.0013793333 2.038787)
(2e-06 -0.0013796667 2.0387885)
(2e-06 -0.0013796667 2.0387895)
(2e-06 -0.0013793333 2.0387915)
(2e-06 -0.0013793333 2.0387925)
(5e-07 -0.0013796667 2.038794)
(-3.3333333e-07 -0.0013793333 2.0387945)
(3.3333333e-07 -0.00621 2.0402025)
(1e-06 -0.006211 2.040201)
(5e-07 -0.006211 2.0402005)
(5e-07 -0.0062105 2.0402005)
(1.5e-06 -0.0062115 2.0402015)
(2.5e-06 -0.006211 2.040203)
(2.5e-06 -0.006211 2.040205)
(1.5e-06 -0.006211 2.0402065)
(5e-07 -0.0062115 2.0402085)
(4.1908028e-18 -0.006211 2.040209)
(3.3333333e-07 -0.01036 2.04303)
(5e-07 -0.01036 2.043029)
(5e-07 -0.01036 2.043028)
(5e-07 -0.01036 2.0430285)
(1.5e-06 -0.0103595 2.04303)
(2.5e-06 -0.0103595 2.0430315)
(2e-06 -0.0103605 2.0430335)
(1.5e-06 -0.0103605 2.043036)
(5e-07 -0.01036 2.0430375)
(2.9474202e-16 -0.01036 2.0430385)
(3.3333333e-07 -0.01452 2.047275)
(1e-06 -0.0145195 2.047275)
(5e-07 -0.0145195 2.047274)
(1e-06 -0.0145195 2.0472745)
(2e-06 -0.014519 2.047276)
(1.5e-06 -0.0145195 2.047278)
(1.5e-06 -0.0145195 2.04728)
(2e-06 -0.01452 2.0472825)
(1e-06 -0.014519 2.047285)
(1.2046209e-18 -0.0145185 2.047286)
(6.6666667e-07 -0.018694 2.052945)
(1e-06 -0.018694 2.0529435)
(5e-07 -0.018694 2.052943)
(1e-06 -0.0186935 2.0529435)
(1.5e-06 -0.0186945 2.0529445)
(2e-06 -0.018695 2.0529465)
(1.5e-06 -0.018694 2.052949)
(2e-06 -0.0186935 2.0529525)
(2e-06 -0.0186925 2.0529545)
(3.3333333e-07 -0.018692 2.052955)
(3.3333333e-07 -0.022887 2.0600415)
(1e-06 -0.022887 2.0600405)
(1e-06 -0.022887 2.06004)
(5e-07 -0.022888 2.06004)
(5e-07 -0.022888 2.060041)
(2e-06 -0.0228885 2.0600435)
(3e-06 -0.022888 2.060046)
(3.5e-06 -0.022886 2.06005)
(2.5e-06 -0.0228855 2.0600525)
(3.3333333e-07 -0.022885 2.0600525)
(6.6666667e-07 -0.027102 2.068573)
(1e-06 -0.0271015 2.068572)
(-5e-07 -0.0271025 2.068572)
(4.4786351e-16 -0.0271035 2.068572)
(1e-06 -0.0271035 2.0685735)
(2e-06 -0.027103 2.068576)
(4e-06 -0.0271025 2.068579)
(4.5e-06 -0.0271015 2.068583)
(3e-06 -0.0271005 2.0685855)
(6.6666667e-07 -0.0271 2.068586)
(6.6666667e-07 -0.0313405 2.0785505)
(5e-07 -0.0313415 2.07855)
(-1e-06 -0.031342 2.0785495)
(-5e-07 -0.031342 2.0785495)
(1e-06 -0.0313425 2.078551)
(3e-06 -0.031342 2.0785535)
(4.5e-06 -0.031341 2.0785565)
(5.5e-06 -0.03134 2.0785605)
(4e-06 -0.031339 2.078563)
(6.6666667e-07 -0.031339 2.078563)
(-3.0088988e-16 -0.035605 2.0899845)
(-5e-07 -0.0356055 2.0899845)
(-1e-06 -0.035606 2.089984)
(-5e-07 -0.035606 2.089984)
(1e-06 -0.0356065 2.0899855)
(3.5e-06 -0.035606 2.089988)
(6e-06 -0.0356055 2.089991)
(6.5e-06 -0.0356045 2.089994)
(4e-06 -0.035604 2.0899965)
(6.6666667e-07 -0.035604 2.0899965)
(3.3333333e-07 -0.0398935 2.1028895)
(-5e-07 -0.039893 2.102889)
(-1.5e-06 -0.0398935 2.1028885)
(-1e-06 -0.0398935 2.1028885)
(1e-06 -0.039894 2.1028895)
(4e-06 -0.039894 2.102892)
(6e-06 -0.0398935 2.1028955)
(7e-06 -0.0398935 2.102899)
(4.5e-06 -0.0398935 2.1029005)
(6.6666667e-07 -0.0398935 2.102901)
(3.3333333e-07 -0.0442015 2.1172825)
(-5e-07 -0.044202 2.1172815)
(-1.5e-06 -0.0442015 2.117281)
(-1e-06 -0.044202 2.1172805)
(5e-07 -0.0442015 2.117282)
(4e-06 -0.0442015 2.1172845)
(6.5e-06 -0.0442015 2.1172875)
(6.5e-06 -0.0442015 2.1172915)
(4e-06 -0.0442025 2.1172935)
(6.6666667e-07 -0.0442025 2.1172935)
(-3.0198804e-16 -0.048523 2.133184)
(-5e-07 -0.048523 2.1331835)
(-1.5e-06 -0.048523 2.133183)
(-1e-06 -0.0485235 2.133183)
(1.5e-06 -0.048523 2.133184)
(4e-06 -0.048522 2.1331865)
(6e-06 -0.0485225 2.13319)
(6e-06 -0.0485225 2.1331935)
(3.5e-06 -0.0485225 2.133196)
(6.6666667e-07 -0.0485225 2.133197)
(3.3333333e-07 -0.052845 2.1506225)
(-5e-07 -0.0528445 2.150622)
(-2e-06 -0.052845 2.1506215)
(-1e-06 -0.0528445 2.150621)
(2e-06 -0.0528445 2.150622)
(4.5e-06 -0.052844 2.1506245)
(6e-06 -0.0528435 2.150629)
(6.5e-06 -0.0528435 2.1506325)
(4e-06 -0.0528425 2.150635)
(6.6666667e-07 -0.0528425 2.1506355)
(3.3333333e-07 -0.0571485 2.169631)
(-5e-07 -0.057149 2.16963)
(-1.5e-06 -0.0571485 2.1696295)
(-5e-07 -0.057148 2.169629)
(2e-06 -0.057148 2.1696305)
(5e-06 -0.057148 2.169633)
(6.5e-06 -0.057147 2.1696375)
(7e-06 -0.0571465 2.1696415)
(4.5e-06 -0.057146 2.169644)
(6.6666667e-07 -0.0571455 2.1696445)
(3.1501444e-16 -0.061406 2.190251)
(-5e-07 -0.0614065 2.1902505)
(-1e-06 -0.061406 2.19025)
(-5e-07 -0.0614055 2.19025)
(2e-06 -0.061405 2.190251)
(5.5e-06 -0.061405 2.1902535)
(7.5e-06 -0.061404 2.1902575)
(7.5e-06 -0.0614035 2.1902625)
(5e-06 -0.0614035 2.1902655)
(1e-06 -0.061403 2.1902655)
(3.2162019e-16 -0.065576 2.212537)
(-5e-07 -0.065576 2.212537)
(-5e-07 -0.0655755 2.2125365)
(5e-07 -0.065575 2.2125365)
(2.5e-06 -0.065574 2.2125375)
(6e-06 -0.0655735 2.2125405)
(8e-06 -0.0655735 2.2125445)
(7.5e-06 -0.0655735 2.2125495)
(5e-06 -0.065573 2.2125525)
(1e-06 -0.0655735 2.2125525)
(3.2834864e-16 -0.0695985 2.23656)
(2.1305657e-18 -0.069598 2.2365595)
(-7.5457761e-18 -0.0695975 2.236559)
(1e-06 -0.0695975 2.2365585)
(3.5e-06 -0.069597 2.23656)
(6e-06 -0.069596 2.236563)
(7.5e-06 -0.0695965 2.236568)
(8e-06 -0.0695965 2.2365725)
(5e-06 -0.0695965 2.2365745)
(6.6666667e-07 -0.069597 2.236575)
(3.3333333e-07 -0.073388 2.26241)
(5e-07 -0.0733875 2.2624085)
(4.7506367e-16 -0.0733875 2.262408)
(1e-06 -0.0733875 2.262408)
(4e-06 -0.0733875 2.2624095)
(6.5e-06 -0.073387 2.2624125)
(7.5e-06 -0.073387 2.2624175)
(7.5e-06 -0.073387 2.2624215)
(4.5e-06 -0.073388 2.2624235)
(6.6666667e-07 -0.073388 2.262424)
(3.3333333e-07 -0.0768235 2.290205)
(5e-07 -0.0768235 2.290204)
(-5.2992636e-16 -0.076824 2.2902045)
(1e-06 -0.076824 2.2902045)
(4e-06 -0.076824 2.290206)
(6.5e-06 -0.076824 2.290209)
(7.5e-06 -0.0768235 2.290213)
(7e-06 -0.076824 2.290217)
(4e-06 -0.0768245 2.2902195)
(6.6666667e-07 -0.076825 2.2902195)
(3.3333333e-07 -0.0797305 2.320105)
(-5.0253028e-16 -0.079731 2.3201045)
(-5e-07 -0.079731 2.3201055)
(1e-06 -0.0797305 2.3201055)
(4e-06 -0.07973 2.3201065)
(7e-06 -0.07973 2.3201095)
(7.5e-06 -0.07973 2.320113)
(6.5e-06 -0.079731 2.3201175)
(3.5e-06 -0.079731 2.3201195)
(3.3333333e-07 -0.079731 2.32012)
(3.4005249e-16 -0.081853 2.352319)
(-3.5677841e-17 -0.0818535 2.352319)
(5e-07 -0.0818525 2.3523195)
(2e-06 -0.081851 2.3523195)
(4.5e-06 -0.0818505 2.3523205)
(6.5e-06 -0.081851 2.352323)
(6.5e-06 -0.081852 2.352327)
(6e-06 -0.0818525 2.3523305)
(4e-06 -0.0818525 2.352333)
(6.6666667e-07 -0.0818525 2.3523335)
(-3.2114032e-16 -0.0828155 2.3871245)
(5e-07 -0.082815 2.3871245)
(2e-06 -0.0828135 2.387125)
(3e-06 -0.0828125 2.387125)
(4e-06 -0.082812 2.387126)
(5.5e-06 -0.082813 2.3871285)
(6e-06 -0.082814 2.3871315)
(6e-06 -0.082814 2.3871355)
(3.5e-06 -0.0828145 2.387138)
(3.3333333e-07 -0.082815 2.387139)
(3.3333333e-07 -0.0820575 2.424886)
(2e-06 -0.0820565 2.424886)
(3e-06 -0.0820555 2.424886)
(3.5e-06 -0.082055 2.4248855)
(4e-06 -0.0820555 2.4248865)
(4.5e-06 -0.082056 2.4248885)
(5.5e-06 -0.0820565 2.424892)
(5.5e-06 -0.082057 2.4248965)
(3e-06 -0.0820575 2.4248985)
(3.3333333e-07 -0.0820575 2.4249)
(6.6666667e-07 -0.0787235 2.466069)
(2.5e-06 -0.078723 2.4660685)
(3.5e-06 -0.0787235 2.4660685)
(3e-06 -0.0787235 2.466068)
(3e-06 -0.078724 2.4660685)
(4.5e-06 -0.0787245 2.4660715)
(5e-06 -0.0787245 2.466075)
(5e-06 -0.078725 2.466079)
(3e-06 -0.0787255 2.4660815)
(3.3333333e-07 -0.0787255 2.4660825)
(6.6666667e-07 -0.071479 2.5112355)
(2e-06 -0.071479 2.5112355)
(2.5e-06 -0.0714795 2.5112355)
(3e-06 -0.07148 2.5112355)
(3e-06 -0.0714795 2.511236)
(4e-06 -0.0714795 2.511239)
(5e-06 -0.07148 2.5112425)
(4.5e-06 -0.0714805 2.5112465)
(2.5e-06 -0.0714815 2.5112485)
(3.3333333e-07 -0.071481 2.51125)
(6.6666667e-07 -0.058193 2.5609635)
(2e-06 -0.0581935 2.5609635)
(2.5e-06 -0.0581935 2.560963)
(3e-06 -0.0581935 2.560964)
(3.5e-06 -0.0581935 2.560965)
(4e-06 -0.0581935 2.5609675)
(4e-06 -0.0581945 2.560971)
(3.5e-06 -0.058195 2.560974)
(2.5e-06 -0.0581955 2.5609765)
(6.6666667e-07 -0.058195 2.5609775)
(3.3333333e-07 -0.0354615 2.615536)
(1.5e-06 -0.035462 2.615536)
(2.5e-06 -0.0354615 2.615536)
(3e-06 -0.0354615 2.615537)
(3e-06 -0.035462 2.6155385)
(3e-06 -0.035463 2.6155405)
(3.5e-06 -0.0354635 2.615543)
(3.5e-06 -0.0354635 2.6155465)
(2.5e-06 -0.035463 2.6155485)
(6.6666667e-07 -0.035463 2.615549)
(3.3333333e-07 0.001943 2.6740095)
(2e-06 0.0019435 2.67401)
(3e-06 0.0019435 2.674011)
(2.5e-06 0.0019435 2.674012)
(2e-06 0.001943 2.6740125)
(2.5e-06 0.0019425 2.674015)
(3.5e-06 0.001942 2.674018)
(4e-06 0.001942 2.6740205)
(3e-06 0.0019425 2.674022)
(6.6666667e-07 0.001943 2.674022)
(6.6666667e-07 0.060864 2.731729)
(2e-06 0.060864 2.73173)
(2.5e-06 0.0608635 2.731731)
(2.5e-06 0.0608635 2.7317325)
(2e-06 0.0608635 2.731733)
(2e-06 0.060863 2.731735)
(3e-06 0.0608635 2.731738)
(4e-06 0.0608635 2.7317405)
(3.5e-06 0.060864 2.7317415)
(1e-06 0.060863 2.7317415)
(3.3333333e-07 0.03221 2.774847)
(1.5e-06 0.032209667 2.7748485)
(2.5e-06 0.032209667 2.7748495)
(2.5e-06 0.032209667 2.7748505)
(1.5e-06 0.032209667 2.7748515)
(2.5e-06 0.032209333 2.7748535)
(4e-06 0.03221 2.7748565)
(4.5e-06 0.03221 2.774858)
(2.5e-06 0.032210333 2.774859)
(3.966684e-16 0.032209333 2.7748575)
(3.3333333e-07 -0.00090766667 2.0422155)
(-3.9611157e-19 -0.000908 2.042213)
(-5e-07 -0.000908 2.0422135)
(1.5e-06 -0.00090766667 2.0422145)
(3e-06 -0.00090766667 2.0422155)
(4e-06 -0.00090766667 2.0422165)
(4e-06 -0.00090766667 2.0422185)
(3e-06 -0.00090733333 2.04222)
(1.5e-06 -0.00090733333 2.042221)
(2.9535573e-16 -0.00090733333 2.0422215)
(-2.973968e-16 -0.004087 2.043631)
(-5e-07 -0.0040875 2.04363)
(5.9258086e-19 -0.0040875 2.0436295)
(2e-06 -0.0040865 2.043631)
(3e-06 -0.0040865 2.0436325)
(4e-06 -0.004086 2.043634)
(4.5e-06 -0.0040865 2.0436355)
(3.5e-06 -0.004086 2.0436375)
(1.5e-06 -0.004086 2.043639)
(5.9558276e-16 -0.0040855 2.0436385)
(5.9522381e-16 -0.006818 2.0464665)
(-5e-07 -0.0068175 2.046466)
(5e-07 -0.006817 2.046466)
(2.5e-06 -0.006817 2.0464675)
(3.5e-06 -0.0068165 2.0464695)
(4e-06 -0.006816 2.046471)
(4e-06 -0.0068165 2.046473)
(3.5e-06 -0.0068165 2.0464745)
(2e-06 -0.006816 2.0464765)
(3.3333333e-07 -0.0068155 2.0464765)
(3.3333333e-07 -0.0095545 2.0507245)
(5e-07 -0.0095545 2.050724)
(5e-07 -0.009554 2.0507245)
(2.5e-06 -0.009554 2.050726)
(4e-06 -0.009554 2.050727)
(4e-06 -0.0095545 2.050729)
(4e-06 -0.009554 2.0507315)
(4e-06 -0.0095535 2.0507335)
(2.5e-06 -0.0095525 2.050735)
(3.3333333e-07 -0.0095525 2.050735)