/*--------------------------------*- C++ -*----------------------------------*\
| =========                 |                                                 |
| \\      /  F ield         | OpenFOAM: The Open Source CFD Toolbox           |
|  \\    /   O peration     | Version:  v2106                                 |
|   \\  /    A nd           | Website:  www.openfoam.com                      |
|    \\/     M anipulation  |                                                 |
\*---------------------------------------------------------------------------*/
FoamFile
{
    version     2.0;
    format      ascii;
    arch        "LSB;label=32;scalar=64";
    class       volScalarField;
    location    "0";
    object      lapTmode4;
}
// * * * * * * * * * * * * * * * * * * * * * * * * * * * * * * * * * * * * * //

dimensions      [0 -2 0 1 0 0 0];

internalField   nonuniform List<scalar> 
2000
(
19263.402
15251.734
27479.466
19883.325
36517.129
17477.23
-8640.3687
-3154.008
2624.073
19587.877
15251.722
19480.786
32372.023
24297.684
12228.007
-2349.5312
-12064.926
-19799.56
-5196.683
27899.941
27479.456
32372.03
9347.1747
6509.7728
-3722.2012
-5642.9376
-9358.8327
-12864.262
4522.373
24981.142
19883.332
24297.682
6509.7784
2500.7813
2256.9877
-472.0832
-519.954
9238.337
5746.797
20911.121
36517.128
12227.992
-3722.2175
2256.9916
5848.557
15709.274
24753.911
23369.417
7640.945
20262.765
17477.235
-2349.5326
-5642.9628
-472.0852
15709.266
25849.253
18388.173
13640.175
13427.619
24660.363
-8640.3639
-12064.952
-9358.8405
-519.963
24753.911
18388.187
181.694
14943.09
16845.027
9888.545
-3154.008
-19799.587
-12864.284
9238.335
23369.41
13640.17
14943.082
14376.428
16911.006
8523.704
2624.056
-5196.704
4522.369
5746.797
7640.914
13427.619
16845.027
16911.025
19834.22
-3972.957
19587.904
27899.941
24981.123
20911.124
20262.767
24660.366
9888.566
8523.712
-3972.953
3093.137
-505.254
18333.886
24974.393
4620.2787
6142.304
17012.337
6091.2897
-9148.8755
6011.4398
7686.2423
18333.875
30684.819
11604.512
9665.2176
19962.433
3783.3864
-3735.8798
11145.349
4045.7816
4603.2019
24974.39
11604.518
11371.535
18173.488
9659.3317
2431.5493
8107.3958
2799.6578
-2876.8064
8613.5187
4620.2782
9665.2101
18173.48
12919.064
10838.849
14848.499
8303.9682
3120.1232
11471.338
8110.587
6142.2764
19962.45
9659.331
10838.832
19097.812
10020.364
5280.8981
13139.913
6219.371
-4668.738
17012.346
3783.3707
2431.5211
14848.515
10020.349
2572.1929
9621.912
5520.607
-11170.402
-8826.465
6091.2722
-3735.8809
8107.383
8303.9595
5280.8851
9621.92
2527.462
-8451.493
-13143.14
-5264.316
-9148.8964
11145.326
2799.6865
3120.0896
13139.941
5520.613
-8451.491
-10880.961
-3846.81
-3442.043
6011.4592
4045.7779
-2876.8392
11471.385
6219.356
-11170.379
-13143.133
-3846.814
-7696.548
-8745.973
7686.2271
4603.1898
8613.5377
8110.584
-4668.732
-8826.462
-5264.319
-3442.07
-8745.97
1522.3959
18643.707
16511.31
19829.41
14773.973
9856.485
11856.991
11950.356
10869.271
12465.726
10541.651
16511.311
29284.613
18580.309
7493.68
19255.823
20576.217
7927.2497
10191.762
12903.818
11925.711
19829.411
18580.31
13855.45
19328.043
22453.124
17789.637
12345.041
12379.392
11470.876
6954.3803
14773.969
7493.655
19328.045
23097.508
19280.919
16638.795
14832.052
8239.6205
4990.3409
-1184.2397
9856.488
19255.81
22453.126
19280.918
16455.276
12105.559
3401.2345
1121.7017
-7821.2622
-7026.4061
11856.983
20576.221
17789.642
16638.773
12105.579
2523.876
-1582.1811
-5760.08
-12313.166
-10337.189
11950.36
7927.226
12345.043
14832.08
3401.2106
-1582.1645
-3441.487
-10404.912
-16280.356
-7368.3406
10869.268
10191.768
12379.38
8239.636
1121.6991
-5760.086
-10404.923
-14139.935
-15638.496
-2296.3864
12465.714
12903.816
11470.906
4990.3165
-7821.2479
-12313.173
-16280.359
-15638.496
-7158.1747
-833.5617
10541.674
11925.71
6954.4005
-1184.2393
-7026.4034
-10337.176
-7368.3533
-2296.3646
-833.5609
7224.513
6601.695
13308.366
9649.763
2921.363
12047.812
17863.493
7755.003
10433.13
17714.42
8139.0143
13308.363
2159.615
4154.881
12934.578
17487.222
13481.924
10430.333
16353.861
9286.701
5206.8574
9649.776
4154.882
13876.124
18625.198
14648.989
13631.884
13219.827
6228.8459
1610.2148
2537.3878
2921.364
12934.557
18625.22
10961.683
10173.505
12056.519
3237.1439
-2871.7643
-1246.6034
-2791.0103
12047.799
17487.225
14648.982
10173.49
10524.728
3915.6361
-5799.6015
-3787.6217
-7424.4023
-7243.6521
17863.492
13481.915
13631.869
12056.56
3915.6129
-5237.9099
-3832.3173
-7682.6116
-13992.375
-4289.4649
7755
10430.338
13219.86
3237.1176
-5799.5791
-3832.3326
-8150.0341
-14143.478
-5450.9198
-452.93884
10433.122
16353.861
6228.8665
-2871.7783
-3787.6259
-7682.6045
-14143.474
-2982.5828
-1038.4809
2993.7564
17714.432
9286.7183
1610.1993
-1246.5983
-7424.4378
-13992.371
-5450.9052
-1038.4774
2644.432
2946.4965
8139.0027
5206.8826
2537.3663
-2791.0149
-7243.6384
-4289.463
-452.92651
2993.7578
2946.5053
8583.7471
4963.2907
-9460.7012
-736.9832
-473.7587
5429.625
8158.5468
7029.8083
7773.4754
8595.3022
3238.0856
-9460.6965
-6242.1216
-1796.1421
859.5732
5485.5245
5829.7856
-1233.5486
2804.7765
1846.9242
1091.9609
-736.9732
-1796.1492
4809.4794
3809.4553
3293.517
-2365.5154
-1606.6706
-1851.8943
-2322.1048
-1245.3867
-473.7667
859.5769
3809.4552
-2072.5698
-1114.0505
-3044.5934
-6134.0219
-6892.7479
-4734.4052
-3303.527
5429.6231
5485.5142
3293.5227
-1114.0512
-2778.3283
-7496.3573
-11918.42
-6510.5305
-6280.7005
-4340.2092
8158.549
5829.8006
-2365.5288
-3044.6013
-7496.3573
-13027.796
-8099.5895
-6968.7445
-9812.7379
670.2879
7029.7931
-1233.5551
-1606.668
-6134.011
-11918.41
-8099.578
-8291.8947
-8804.0699
559.009
5021.8077
7773.4696
2804.799
-1851.8956
-6892.7207
-6510.5332
-6968.7272
-8804.0627
3655.281
7368.5054
6745.9946
8595.3082
1846.943
-2322.092
-4734.4164
-6280.6894
-9812.7366
559.0067
7368.5093
5399.0913
8364.6854
3238.102
1091.9404
-1245.3734
-3303.5224
-4340.203
670.2721
5021.7919
6745.9904
8364.6732
5572.7006
-5676.9495
-17584.243
-5587.2613
-3610.0785
-5837.8781
-1601.3401
-4640.255
-1167.4671
1733.8948
-1234.0912
-17584.241
-3958.3939
-7101.3697
-11601.845
-7643.7455
-11995.781
-10369.168
-4881.4402
-4229.8365
-2093.5754
-5587.2566
-7101.3713
-6198.2993
-7900.1037
-9976.8339
-12554.856
-8145.1243
-6193.3235
-5734.944
-2480.8687
-3610.0686
-11601.855
-7900.1017
-8587.0884
-12361.282
-12576.642
-10832.613
-8785.5951
-3954.956
-762.4015
-5837.8824
-7643.736
-9976.8709
-12361.279
-14097.018
-13715.113
-12777.028
-2987.4242
-2173.3811
1814.1658
-1601.331
-11995.784
-12554.842
-12576.645
-13715.118
-14199.912
-5036.6362
-2586.7428
-289.3632
5566.6023
-4640.2315
-10369.167
-8145.0849
-10832.623
-12777.017
-5036.627
-3520.6214
1898.8951
8698.455
9375.138
-1167.4467
-4881.4303
-6193.3359
-8785.5734
-2987.4462
-2586.7364
1898.8794
12168.57
11007.374
10938.553
1733.8818
-4229.8532
-5734.9361
-3955.0028
-2173.3791
-289.3829
8698.4655
11007.378
9924.137
9673.352
-1234.0987
-2093.5758
-2480.8586
-762.401
1814.1577
5566.6097
9375.148
10938.532
9673.345
10370.617
-13412.856
-8292.3256
-3554.428
-9815.5196
-12757.638
-8026.035
-8431.5917
-4749.0246
-2203.2407
-2352.9431
-8292.3084
-5136.8894
-7214.753
-15985.938
-13151.758
-14088.045
-10637.47
-5433.6341
-3854.4307
-1351.4063
-3554.4427
-7214.7501
-9418.726
-11652.974
-10784.447
-12087.104
-6280.9605
-2239.7458
-2749.373
400.2741
-9815.513
-15985.944
-11652.988
-10142.785
-14667.474
-9476.3366
-3959.4457
-1211.5133
2335.0575
3600.5277
-12757.629
-13151.765
-10784.431
-14667.492
-9407.1277
-5691.09
-2715.7345
6890.8865
5362.054
5471.286
-8026.0155
-14088.075
-12087.1
-9476.3685
-5691.0927
-4215.3621
6800.7731
7235.572
7758.39
7848.517
-8431.597
-10637.453
-6281.0167
-3959.4194
-2715.7306
6800.7535
7716.324
11317.226
13205.159
11635.306
-4749.0394
-5433.6452
-2239.7225
-1211.5638
6890.881
7235.568
11317.229
14877.917
13656.077
14001.96
-2203.2224
-3854.4554
-2749.3909
2335.0597
5362.045
7758.388
13205.151
13656.073
18570.555
11127.807
-2352.9621
-1351.3883
400.2541
3600.5486
5471.286
7848.523
11635.305
14001.965
11127.807
13752.816
-8368.5249
2396.7473
-1348.745
-13123.535
-6554.4471
-7309.9892
-4475.1201
-670.99724
-57.1039
-754.2008
2396.7324
1590.6844
-5911.1668
-7523.1102
-6621.0726
-3081.0122
98.40708
2755.1726
908.9702
682.5257
-1348.7269
-5911.1808
-6157.8144
-4991.2241
-1006.3636
-835.57138
6358.1638
7553.3973
3242.287
3750.0101
-13123.542
-7523.0946
-4991.2338
-1746.859
-1354.5776
6591.4275
10153.736
9204.896
8644.59
6190.12
-6554.4427
-6621.0814
-1006.3621
-1354.567
7688.2608
9490.2018
10955.967
15467.529
11061.146
6445.775
-7309.9966
-3081.0095
-835.58202
6591.414
9490.2033
10413.272
17779.564
15168.446
12959.409
8999.386
-4475.1252
98.41086
6358.1798
10153.738
10955.976
17779.541
16195.949
17748.196
16526.459
13171.144
-670.97464
2755.1549
7553.3672
9204.915
15467.522
15168.444
17748.188
18993.533
20699.486
13605.433
-57.1435
908.9687
3242.271
8644.604
11061.122
12959.411
16526.463
20699.484
17772.797
14498.408
-754.1924
682.5074
3750.005
6190.104
6445.756
8999.383
13171.153
13605.427
14498.418
6349.101
4091.1421
3527.7207
260.1154
-1411.8373
-1147.6681
1710.0092
5834.5842
4838.4394
1240.0805
-575.556
3527.7225
8976.791
63.3122
344.49726
5977.7545
9786.8325
9190.3625
7266.848
2359.4243
445.3989
260.1271
63.3091
-667.09408
6108.5402
9500.3885
10878.607
16229.674
12789.236
6311.9698
4933.9316
-1411.8413
344.50992
6108.5474
9660.4916
12122.53
18679.026
18975.01
15701.205
11926.211
6176.822
-1147.6678
5977.7624
9500.4221
12122.512
19531.245
20336.541
20925.799
21278.499
12766.359
6325.033
1710
9786.8296
10878.598
18679.031
20336.547
21914.085
25193.149
20425.743
13796.262
9512.089
5834.5972
9190.3682
16229.703
18974.994
20925.786
25193.14
22172.685
22141.189
18335.313
13665.756
4838.4346
7266.843
12789.214
15701.212
21278.476
20425.758
22141.185
23426.671
21142.365
10090.799
1240.0578
2359.4102
6311.9543
11926.175
12766.33
13796.245
18335.31
21142.369
11336.266
9617.256
-575.5767
445.362
4933.9137
6176.818
6325.032
9512.1
13665.749
10090.811
9617.261
2691.008
3779.9406
6137.2362
2047.2958
3910.2359
2139.4077
7394.5147
6842.6427
1253.177
-3161.646
-3635.3149
6137.2453
2933.985
5391.1082
1016.3779
7983.8286
8253.0578
4645.1503
555.6788
-4331.484
-2209.266
2047.2784
5391.1276
846.88
6889.2777
8264.1845
8887.5856
10873.864
5048.9368
574.13928
3213.4039
3910.25
1016.3695
6889.311
8279.4513
10337.294
14786.977
12707.813
8490.043
5863.6157
2955.2432
2139.3999
7983.8332
8264.163
10337.278
16101.889
16131.717
14629.912
13222.769
5940.3695
2691.5809
7394.5007
8253.0657
8887.5828
14786.986
16131.715
16189.347
17196.435
12697.381
7549.6652
5834.1722
6842.6475
4645.1662
10873.842
12707.79
14629.934
17196.454
15780.811
15396.584
12711.326
5525.8537
1253.1441
555.67075
5048.9252
8490.0439
13222.778
12697.355
15396.59
15675.481
7450.9596
1833.3454
-3161.6461
-4331.5033
574.13257
5863.6203
5940.3658
7549.6678
12711.345
7450.9424
4783.027
-3317.888
-3635.3383
-2209.265
3213.4192
2955.2337
2691.5835
5834.1539
5525.857
1833.3589
-3317.877
-1828.753
-252.8972
6818.0399
4190.1822
-1514.6315
1007.6133
1086.0321
-2903.8381
-8667.7974
-10400.045
-6835.7448
6818.0399
4833.137
-933.3602
-2953.9567
-1968.0005
-5362.0873
-9895.2323
-12613.453
-13534.413
-2946.0319
4190.1989
-933.3519
-4820.7114
-4315.4612
-5879.2352
-7402.667
-7064.9546
-11114.571
-8241.8859
626.88469
-1514.6509
-2953.9229
-4315.4489
-5472.9582
-6491.9575
-4035.0182
-6644.9444
-8116.5659
-3281.8402
-1719.5763
1007.6043
-1967.9944
-5879.2594
-6491.9364
-3048.9587
-3701.0291
-4759.4831
-2504.7036
-4208.3899
-2305.0411
1086.0413
-5362.0766
-7402.6668
-4035.0109
-3701.0303
-3873.2032
-340.31149
-2411.8875
-3811.6824
-1723.2685
-2903.8357
-9895.2291
-7064.9593
-6644.9337
-4759.4628
-340.29899
-359.06071
-1528.1477
-2727.9931
-6889.7484
-8667.7773
-12613.458
-11114.548
-8116.5832
-2504.7084
-2411.886
-1528.1346
-2984.8665
-9157.5989
-10252.474
-10400.038
-13534.432
-8241.8916
-3281.8513
-4208.3859
-3811.6676
-2727.9747
-9157.6034
-14429.757
-13485.82
-6835.7554
-2946.0221
626.88013
-1719.5645
-2305.0311
-1723.2524
-6889.7899
-10252.446
-13485.81
-12977.12
4898.1291
2242.2731
1422.6122
-5167.361
-5441.836
-7484.287
-11922.98
-14490.499
-12322.497
-4211.6709
2242.2759
4856.3817
-10069.819
-9320.698
-12647.384
-16009.639
-17772.994
-15700.749
-10825.683
2838.6545
1422.6264
-10069.818
-10816.965
-15362.063
-17427.724
-18013.39
-15663.329
-16002.019
-6363.5426
3171.1334
-5167.356
-9320.673
-15362.099
-16988.135
-18927.622
-14750.521
-16227.575
-12890.343
-3447.8618
521.0906
-5441.832
-12647.387
-17427.674
-18927.612
-14253.58
-14831.153
-14250.336
-7938.6766
-7706.1721
-1281.7859
-7484.254
-16009.646
-18013.375
-14750.55
-14831.157
-14719.401
-10475.248
-12306.374
-11161.979
-6895.1281
-11922.985
-17773.015
-15663.304
-16227.596
-14250.323
-10475.224
-13310.529
-14411.808
-14318.553
-9914.0523
-14490.504
-15700.739
-16002.04
-12890.301
-7938.6716
-12306.375
-14411.787
-15858.282
-19249.89
-17983.047
-12322.509
-10825.699
-6363.5192
-3447.8573
-7706.1784
-11161.967
-14318.581
-19249.89
-31618.946
-18211.935
-4211.6707
2838.6524
3171.151
521.097
-1281.7659
-6895.1327
-9914.042
-17983.031
-18211.953
-9262.494
2139.8897
-442.2541
-5576.286
-7494.955
-9515.944
-9694.4399
-11646.121
-8492.8023
-2252.2173
5685.3585
-442.2423
-9020.114
-10566.806
-13690.549
-13179.153
-12440.308
-8520.9748
-1104.2632
6335.2046
12967.586
-5576.295
-10566.798
-13724.151
-16400.697
-14488.993
-13288.585
-7082.2574
-4019.7281
6195.2445
11631.877
-7494.945
-13690.558
-16400.669
-15788.341
-16358.536
-9374.293
-9988.8263
-2852.6488
6388.1796
8597.8112
-9515.899
-13179.137
-14489.02
-16358.539
-9667.404
-12086.936
-9468.573
-2003.786
-300.7098
1788.9924
-9694.4759
-12440.305
-13288.581
-9374.29
-12086.93
-12743.062
-8108.944
-10983.681
-7741.062
-3442.863
-11646.115
-8520.9565
-7082.2462
-9988.8031
-9468.542
-8108.964
-13499.984
-14309.506
-11438.617
-4648.402
-8492.8145
-1104.2385
-4019.7012
-2852.653
-2003.804
-10983.691
-14309.478
-16330.196
-20626.022
-13937.629
-2252.2092
6335.2195
6195.2417
6388.1963
-300.7141
-7741.02
-11438.628
-20626.029
-22933.785
-13337.839
5685.3575
12967.59
11631.898
8597.796
1789.0141
-3442.879
-4648.401
-13937.634
-13337.807
7711.346
-6159.6341
-2614.3995
-8865.7823
-9685.808
-6652.3452
-5165.2048
-2160.6357
5714.6542
12661.25
15014.495
-2614.4086
-12762.395
-8969.0466
-10917.55
-5100.82
-1699.6452
6816.1293
17074.021
21369.411
17025.067
-8865.7884
-8969.0515
-14584.037
-10377.077
-6531.989
-3271.4161
7286.3128
11063.192
16454.103
13249.58
-9685.8075
-10917.528
-10377.098
-8456.4828
-7185.1326
2544.1478
3595.658
8564.7004
14425.1
8640.2692
-6652.3687
-5100.8252
-6531.954
-7185.1336
1149.5133
-1153.2576
1803.0057
5254.6098
7211.5334
2775.6388
-5165.1772
-1699.6307
-3271.4031
2544.1333
-1153.2361
-2237.814
-452.62
-4254.937
-297.905
3400.486
-2160.6345
6816.1552
7286.3203
3595.6572
1802.9969
-452.629
-8436.135
-6832.786
-813.316
-2312.369
5714.6705
17074.038
11063.169
8564.708
5254.6078
-4254.904
-6832.8
-7022.746
-9919.976
-2357.738
12661.252
21369.425
16454.124
14425.107
7211.5586
-297.901
-813.3
-9919.974
-9146.134
6986.973
15014.498
17025.061
13249.576
8640.2951
2775.6437
3400.476
-2312.367
-2357.708
6986.961
9776.176
-3986.5505
-5968.7836
-6840.8092
-6649.3004
-656.6475
3342.9663
8366.3134
16066.317
18233.766
13204.022
-5968.7892
-5325.3474
-9264.4984
-2273.7805
7327.2504
9709.8044
17460.176
21908.713
17165.448
3421.9128
-6840.8102
-9264.4944
-8010.2293
3552.3166
5361.8997
9239.7601
15756.219
10806.952
8910.6041
2635.282
-6649.2928
-2273.8217
3552.3532
4749.957
7547.9964
13561.153
8187.536
6112.1291
10562.021
1761.5275
-656.6221
7327.2616
5361.9012
7547.9981
12547.831
6031.1505
2769.5594
6380.2805
6866.301
-2207.24
3342.9619
9709.7741
9239.764
13561.17
6031.161
205.1883
63.391
214.287
1102.511
1610.454
8366.3093
17460.169
15756.194
8187.5614
2769.5752
63.374
-3662.584
549.804
4308.223
8286.464
16066.319
21908.723
10806.986
6112.1239
6380.2652
214.303
549.829
2142.17
6289.861
7865.577
18233.785
17165.41
8910.6322
10561.999
6866.3439
1102.537
4308.22
6289.856
4618.354
11207.538
13203.993
3421.937
2635.2712
1761.5184
-2207.224
1610.469
8286.457
7865.567
11207.566
5015.016
-3772.3233
-4292.0516
-3328.8992
1204.657
7616.0907
12087.061
11551.871
11342.094
6689.7054
-2222.4108
-4292.0547
-1540.858
902.7134
11394.935
19185.23
12677.313
11169.897
5265.9336
-4302.5249
-14722.024
-3328.8971
902.6915
7722.9741
17175.728
11089.055
10133.552
6684.3646
-2622.8734
-7543.03
-12589.276
1204.6605
11394.948
17175.729
12057.477
11266.137
10090.783
-1062.6971
-3908.2532
-4756.562
-11458.683
7616.0592
19185.235
11089.051
11266.145
10230.596
-2401.2072
-5112.8758
-1568.064
-8787.943
-5501.338
12087.057
12677.326
10133.538
10090.776
-2401.213
-7357.5877
-3690.284
-5307.573
-1863.419
721.188
11551.88
11169.877
6684.3484
-1062.6839
-5112.8758
-3690.279
-2444.404
1396.321
9383.463
4469.878
11342.102
5265.9299
-2622.8729
-3908.242
-1568.049
-5307.566
1396.321
7111.101
5773.815
4203.002
6689.7005
-4302.519
-7543.0382
-4756.5481
-8787.948
-1863.415
9383.439
5773.809
5047.3
1595.793
-2222.4133
-14722.036
-12589.307
-11458.658
-5501.347
721.18
4469.88
4203.056
1595.787
-12700.617
-7734.396
4431.043
4227.921
7685.214
12100.618
10167.432
3177.2864
-3934.6985
-9143.4692
-17421.715
4431.047
7122.524
11708.303
17008.07
18339.842
5710.4258
-2711.8329
-10259.04
-26270.845
-31855.347
4227.929
11708.303
15053.702
19412.199
8313.551
2248.7233
-3638.8411
-19610.482
-30675.019
-16976.412
7685.202
17008.103
19412.181
10250.443
2479.6806
1760.9536
-13378.903
-23516.753
-14660.261
-11081.002
12100.635
18339.827
8313.565
2479.6885
1777.8141
-13426.89
-17836.49
-12523.67
-9247.843
-18861.349
10167.438
5710.4189
2248.7102
1760.956
-13426.891
-15751.342
-8677.814
-9372.3
-13176.544
-1965.807
3177.2625
-2711.8333
-3638.8487
-13378.893
-17836.503
-8677.834
-5685.662
-7058.923
-2245.45
-1991.894
-3934.6738
-10259.076
-19610.456
-23516.753
-12523.704
-9372.289
-7058.941
-764.732
-482.874
-18490.159
-9143.501
-26270.861
-30675.026
-14660.253
-9247.857
-13176.537
-2245.444
-482.86
-16577.485
-20547.389
-17421.732
-31855.341
-16976.389
-11081.023
-18861.327
-1965.812
-1991.883
-18490.18
-20547.399
-4651.733
-1822.595
8209.005
9934.301
13569.096
14152.706
4818.2099
-3743.1046
-14479.704
-25751.465
-24625.138
8209.009
18784.792
27381.026
24955.119
12675.109
2896.1631
-15462.172
-30313.566
-33392.494
-25914.26
9934.302
27381.031
23492.855
11861.973
4444.065
-6858.3512
-18634.987
-26372.056
-21446.969
-27636.642
13569.095
24955.106
11861.978
4063.01
414.0465
-8412.6486
-19875.286
-18401.795
-14019.999
-13606.818
14152.71
12675.12
4444.081
414.0276
-8591.7809
-16646.774
-16447.587
-18208.395
-26076.384
-9578.674
4818.2123
2896.1549
-6858.346
-8412.683
-16646.75
-13134.097
-18306.053
-19354.058
-9480.068
-16497.925
-3743.1083
-15462.18
-18634.977
-19875.274
-16447.6
-18306.044
-14753.186
-10142.714
-10827.712
-20162.805
-14479.715
-30313.567
-26372.079
-18401.796
-18208.383
-19354.052
-10142.727
-13518.808
-28044.834
-24584.289
-25751.477
-33392.487
-21446.98
-14020.025
-26076.354
-9480.07
-10827.701
-28044.844
-31930.421
-22104.306
-24625.124
-25914.277
-27636.65
-13606.817
-9578.673
-16497.967
-20162.787
-24584.297
-22104.298
-19541.004
3081.578
16640.752
10725.834
12194.487
11185.799
1281.286
-15773.428
-17348.977
-17961.9
-17266.382
16640.747
13134.334
12840.418
20804.095
11702.898
-11236.745
-12774.428
-5730.2789
-10508.576
-6925.7645
10725.818
12840.408
18749.234
15891.185
-6084.434
-9644.429
-875.4233
-12740.181
-18810.647
11705.462
12194.494
20804.095
15891.175
-708.467
-5126.623
1033.0525
-15140.905
-6637.4257
2721.9997
-12121.734
11185.806
11702.881
-6084.462
-5126.634
619.2351
-8613.9862
-11303.868
1850.5269
-9121.9079
-20937.22
1281.263
-11236.726
-9644.447
1033.0851
-8613.974
-13237.854
-1850.6768
-11580.545
-23908.826
-8428.2395
-15773.397
-12774.427
-875.4356
-15140.887
-11303.862
-1850.6949
-15089.063
-17359.84
-13383.486
-13552.494
-17348.995
-5730.3069
-12740.159
-6637.4386
1850.5009
-11580.543
-17359.83
-11623.178
-23089.808
-25353.409
-17961.9
-10508.596
-18810.64
2721.9694
-9121.8976
-23908.848
-13383.47
-23089.808
-31082.573
-14991.485
-17266.39
-6925.776
11705.441
-12121.702
-20937.231
-8428.1867
-13552.513
-25353.389
-14991.49
-914.4788
-998.954
6931.62
-1469.062
-7602.459
-27847.482
-18784.383
-16155.857
-20516.173
-29544.6
-32793.654
6931.631
-698.633
-5551.495
-13321.747
-1619.908
12952.685
12309.267
16823.413
15924.953
-7433.0528
-1469.005
-5551.506
-8218.665
-11035.296
3197.43
-8114.8
5819.116
24635.621
17188.3
-10377.243
-7602.482
-13321.755
-11035.281
10237.264
-3528.763
-13231.076
3495.4487
1612.6367
5316.9007
-8317.2239
-27847.505
-1619.884
3197.439
-3528.762
-12882.318
-11115.876
-5105.0564
4633.7994
-1704.2489
-34216.237
-18784.375
12952.706
-8114.804
-13231.069
-11115.875
-5561.761
-4367.3141
6415.516
-14323.32
-42900.613
-16155.855
12309.255
5819.103
3495.4178
-5105.0421
-4367.2772
2303.884
-8035.07
-21830.079
-15524.009
-20516.175
16823.421
24635.677
1612.6302
4633.8237
6415.5444
-8035.0807
-8768.1795
-26546.218
-15510.115
-29544.569
15924.974
17188.273
5316.9207
-1704.2455
-14323.303
-21830.061
-26546.19
-6607.1766
2517.7747
-32793.618
-7433.0275
-10377.259
-8317.2369
-34216.244
-42900.62
-15523.995
-15510.099
2517.8078
-1092.5379
)
;

boundaryField
{
    block1_in
    {
        type            extrapolatedCalculated;
        value           nonuniform List<scalar> 
100
(
19263.402
15251.722
27479.456
19883.332
36517.128
17477.235
-8640.3639
-3154.008
2624.056
19587.904
15251.734
19480.786
32372.03
24297.682
12227.992
-2349.5326
-12064.952
-19799.587
-5196.704
27899.941
27479.466
32372.023
9347.1747
6509.7784
-3722.2175
-5642.9628
-9358.8405
-12864.284
4522.369
24981.123
19883.325
24297.684
6509.7728
2500.7813
2256.9916
-472.0852
-519.963
9238.335
5746.797
20911.124
36517.129
12228.007
-3722.2012
2256.9877
5848.557
15709.266
24753.911
23369.41
7640.914
20262.767
17477.23
-2349.5312
-5642.9376
-472.0832
15709.274
25849.253
18388.187
13640.17
13427.619
24660.366
-8640.3687
-12064.926
-9358.8327
-519.954
24753.911
18388.173
181.694
14943.082
16845.027
9888.566
-3154.008
-19799.56
-12864.262
9238.337
23369.417
13640.175
14943.09
14376.428
16911.025
8523.712
2624.073
-5196.683
4522.373
5746.797
7640.945
13427.619
16845.027
16911.006
19834.22
-3972.953
19587.877
27899.941
24981.142
20911.121
20262.765
24660.363
9888.545
8523.704
-3972.957
3093.137
)
;
    }
    block1_out
    {
        type            extrapolatedCalculated;
        value           nonuniform List<scalar> 
100
(
-998.954
6931.631
-1469.005
-7602.482
-27847.505
-18784.375
-16155.855
-20516.175
-29544.569
-32793.618
6931.62
-698.633
-5551.506
-13321.755
-1619.884
12952.706
12309.255
16823.421
15924.974
-7433.0275
-1469.062
-5551.495
-8218.665
-11035.281
3197.439
-8114.804
5819.103
24635.677
17188.273
-10377.259
-7602.459
-13321.747
-11035.296
10237.264
-3528.762
-13231.069
3495.4178
1612.6302
5316.9207
-8317.2369
-27847.482
-1619.908
3197.43
-3528.763
-12882.318
-11115.875
-5105.0421
4633.8237
-1704.2455
-34216.244
-18784.383
12952.685
-8114.8
-13231.076
-11115.876
-5561.761
-4367.2772
6415.5444
-14323.303
-42900.62
-16155.857
12309.267
5819.116
3495.4487
-5105.0564
-4367.3141
2303.884
-8035.0807
-21830.061
-15523.995
-20516.173
16823.413
24635.621
1612.6367
4633.7994
6415.516
-8035.07
-8768.1795
-26546.19
-15510.099
-29544.6
15924.953
17188.3
5316.9007
-1704.2489
-14323.32
-21830.079
-26546.218
-6607.1766
2517.8078
-32793.654
-7433.0528
-10377.243
-8317.2239
-34216.237
-42900.613
-15524.009
-15510.115
2517.7747
-1092.5379
)
;
    }
    block1_wall1
    {
        type            extrapolatedCalculated;
        value           nonuniform List<scalar> 
200
(
19263.402
15251.722
27479.456
19883.332
36517.128
17477.235
-8640.3639
-3154.008
2624.056
19587.904
-505.254
18333.875
24974.39
4620.2782
6142.2764
17012.346
6091.2722
-9148.8964
6011.4592
7686.2271
18643.707
16511.311
19829.411
14773.969
9856.488
11856.983
11950.36
10869.268
12465.714
10541.674
6601.695
13308.363
9649.776
2921.364
12047.799
17863.492
7755
10433.122
17714.432
8139.0027
4963.2907
-9460.6965
-736.9732
-473.7667
5429.6231
8158.549
7029.7931
7773.4696
8595.3082
3238.102
-5676.9495
-17584.241
-5587.2566
-3610.0686
-5837.8824
-1601.331
-4640.2315
-1167.4467
1733.8818
-1234.0987
-13412.856
-8292.3084
-3554.4427
-9815.513
-12757.629
-8026.0155
-8431.597
-4749.0394
-2203.2224
-2352.9621
-8368.5249
2396.7324
-1348.7269
-13123.542
-6554.4427
-7309.9966
-4475.1252
-670.97464
-57.1435
-754.1924
4091.1421
3527.7225
260.1271
-1411.8413
-1147.6678
1710
5834.5972
4838.4346
1240.0578
-575.5767
3779.9406
6137.2453
2047.2784
3910.25
2139.3999
7394.5007
6842.6475
1253.1441
-3161.6461
-3635.3383
-252.8972
6818.0399
4190.1989
-1514.6509
1007.6043
1086.0413
-2903.8357
-8667.7773
-10400.038
-6835.7554
4898.1291
2242.2759
1422.6264
-5167.356
-5441.832
-7484.254
-11922.985
-14490.504
-12322.509
-4211.6707
2139.8897
-442.2423
-5576.295
-7494.945
-9515.899
-9694.4759
-11646.115
-8492.8145
-2252.2092
5685.3575
-6159.6341
-2614.4086
-8865.7884
-9685.8075
-6652.3687
-5165.1772
-2160.6345
5714.6705
12661.252
15014.498
-3986.5505
-5968.7892
-6840.8102
-6649.2928
-656.6221
3342.9619
8366.3093
16066.319
18233.785
13203.993
-3772.3233
-4292.0547
-3328.8971
1204.6605
7616.0592
12087.057
11551.88
11342.102
6689.7005
-2222.4133
-7734.396
4431.047
4227.929
7685.202
12100.635
10167.438
3177.2625
-3934.6738
-9143.501
-17421.732
-1822.595
8209.009
9934.302
13569.095
14152.71
4818.2123
-3743.1083
-14479.715
-25751.477
-24625.124
3081.578
16640.747
10725.818
12194.494
11185.806
1281.263
-15773.397
-17348.995
-17961.9
-17266.39
-998.954
6931.631
-1469.005
-7602.482
-27847.505
-18784.375
-16155.855
-20516.175
-29544.569
-32793.618
)
;
    }
    block1_wall2
    {
        type            extrapolatedCalculated;
        value           nonuniform List<scalar> 
200
(
19587.904
7686.2271
10541.674
8139.0027
3238.102
-1234.0987
-2352.9621
-754.1924
-575.5767
-3635.3383
-6835.7554
-4211.6707
5685.3575
15014.498
13203.993
-2222.4133
-17421.732
-24625.124
-17266.39
-32793.618
27899.941
4603.1898
11925.71
5206.8826
1091.9404
-2093.5758
-1351.3883
682.5074
445.362
-2209.265
-2946.0221
2838.6524
12967.59
17025.061
3421.937
-14722.036
-31855.341
-25914.277
-6925.776
-7433.0275
24981.123
8613.5377
6954.4005
2537.3663
-1245.3734
-2480.8586
400.2541
3750.005
4933.9137
3213.4192
626.88013
3171.151
11631.898
13249.576
2635.2712
-12589.307
-16976.389
-27636.65
11705.441
-10377.259
20911.124
8110.584
-1184.2393
-2791.0149
-3303.5224
-762.401
3600.5486
6190.104
6176.818
2955.2337
-1719.5645
521.097
8597.796
8640.2951
1761.5184
-11458.658
-11081.023
-13606.817
-12121.702
-8317.2369
20262.767
-4668.732
-7026.4034
-7243.6384
-4340.203
1814.1577
5471.286
6445.756
6325.032
2691.5835
-2305.0311
-1281.7659
1789.0141
2775.6437
-2207.224
-5501.347
-18861.327
-9578.673
-20937.231
-34216.244
24660.366
-8826.462
-10337.176
-4289.463
670.2721
5566.6097
7848.523
8999.383
9512.1
5834.1539
-1723.2524
-6895.1327
-3442.879
3400.476
1610.469
721.18
-1965.812
-16497.967
-8428.1867
-42900.62
9888.566
-5264.319
-7368.3533
-452.92651
5021.7919
9375.148
11635.305
13171.153
13665.749
5525.857
-6889.7899
-9914.042
-4648.401
-2312.367
8286.457
4469.88
-1991.883
-20162.787
-13552.513
-15523.995
8523.712
-3442.07
-2296.3646
2993.7578
6745.9904
10938.532
14001.965
13605.427
10090.811
1833.3589
-10252.446
-17983.031
-13937.634
-2357.708
7865.567
4203.056
-18490.18
-24584.297
-25353.389
-15510.099
-3972.953
-8745.97
-833.5609
2946.5053
8364.6732
9673.345
11127.807
14498.418
9617.261
-3317.877
-13485.81
-18211.953
-13337.807
6986.961
11207.566
1595.787
-20547.399
-22104.298
-14991.49
2517.8078
3093.137
1522.3959
7224.513
8583.7471
5572.7006
10370.617
13752.816
6349.101
2691.008
-1828.753
-12977.12
-9262.494
7711.346
9776.176
5015.016
-12700.617
-4651.733
-19541.004
-914.4788
-1092.5379
)
;
    }
    block1_wall3
    {
        type            extrapolatedCalculated;
        value           nonuniform List<scalar> 
200
(
19587.877
27899.941
24981.142
20911.121
20262.765
24660.363
9888.545
8523.704
-3972.957
3093.137
7686.2423
4603.2019
8613.5187
8110.587
-4668.738
-8826.465
-5264.316
-3442.043
-8745.973
1522.3959
10541.651
11925.711
6954.3803
-1184.2397
-7026.4061
-10337.189
-7368.3406
-2296.3864
-833.5617
7224.513
8139.0143
5206.8574
2537.3878
-2791.0103
-7243.6521
-4289.4649
-452.93884
2993.7564
2946.4965
8583.7471
3238.0856
1091.9609
-1245.3867
-3303.527
-4340.2092
670.2879
5021.8077
6745.9946
8364.6854
5572.7006
-1234.0912
-2093.5754
-2480.8687
-762.4015
1814.1658
5566.6023
9375.138
10938.553
9673.352
10370.617
-2352.9431
-1351.4063
400.2741
3600.5277
5471.286
7848.517
11635.306
14001.96
11127.807
13752.816
-754.2008
682.5257
3750.0101
6190.12
6445.775
8999.386
13171.144
13605.433
14498.408
6349.101
-575.556
445.3989
4933.9316
6176.822
6325.033
9512.089
13665.756
10090.799
9617.256
2691.008
-3635.3149
-2209.266
3213.4039
2955.2432
2691.5809
5834.1722
5525.8537
1833.3454
-3317.888
-1828.753
-6835.7448
-2946.0319
626.88469
-1719.5763
-2305.0411
-1723.2685
-6889.7484
-10252.474
-13485.82
-12977.12
-4211.6709
2838.6545
3171.1334
521.0906
-1281.7859
-6895.1281
-9914.0523
-17983.047
-18211.935
-9262.494
5685.3585
12967.586
11631.877
8597.8112
1788.9924
-3442.863
-4648.402
-13937.629
-13337.839
7711.346
15014.495
17025.067
13249.58
8640.2692
2775.6388
3400.486
-2312.369
-2357.738
6986.973
9776.176
13204.022
3421.9128
2635.282
1761.5275
-2207.24
1610.454
8286.464
7865.577
11207.538
5015.016
-2222.4108
-14722.024
-12589.276
-11458.683
-5501.338
721.188
4469.878
4203.002
1595.793
-12700.617
-17421.715
-31855.347
-16976.412
-11081.002
-18861.349
-1965.807
-1991.894
-18490.159
-20547.389
-4651.733
-24625.138
-25914.26
-27636.642
-13606.818
-9578.674
-16497.925
-20162.805
-24584.289
-22104.306
-19541.004
-17266.382
-6925.7645
11705.462
-12121.734
-20937.22
-8428.2395
-13552.494
-25353.409
-14991.485
-914.4788
-32793.654
-7433.0528
-10377.243