/*--------------------------------*- C++ -*----------------------------------*\
| =========                 |                                                 |
| \\      /  F ield         | OpenFOAM: The Open Source CFD Toolbox           |
|  \\    /   O peration     | Version:  v2106                                 |
|   \\  /    A nd           | Website:  www.openfoam.com                      |
|    \\/     M anipulation  |                                                 |
\*---------------------------------------------------------------------------*/
FoamFile
{
    version     2.0;
    format      ascii;
    arch        "LSB;label=32;scalar=64";
    class       volScalarField;
    location    "0";
    object      lapTmode5;
}
// * * * * * * * * * * * * * * * * * * * * * * * * * * * * * * * * * * * * * //

dimensions      [0 -2 0 1 0 0 0];

internalField   nonuniform List<scalar> 
2000
(
13324.361
11683.731
-29473.36
-35785.355
-57440.364
-24780.973
8648.507
6484.707
12479.355
109.726
11683.65
-24211.721
-58251.408
-51721.364
-19422.696
8695.4177
25279.307
45310.79
36511.176
-10011.216
-29473.357
-58251.376
-41090.968
-27999.485
-2489.5367
4500.9512
22677.391
29108.285
13099.71
-9476.8217
-35785.33
-51721.367
-27999.481
-6603.4701
-1980.7895
10239.047
12029.977
-3028.7165
12534.205
32.4098
-57440.273
-19422.709
-2489.5867
-1980.7944
8582.8793
4100.7443
-10790.908
-3867.2681
18824.338
-2427.931
-24780.906
8695.4354
4500.971
10239.013
4100.7629
-3818.464
3289.596
8771.932
7556.139
-7799.735
8648.617
25279.373
22677.396
12029.977
-10790.924
3289.575
14075.964
-6186.621
-81.308
7566.571
6484.732
45310.799
29108.331
-3028.7289
-3867.3178
8771.927
-6186.662
-2139.981
-1045.545
-375.299
12479.321
36511.225
13099.777
12534.236
18824.344
7556.121
-81.337
-1045.616
-7055.431
11309.073
109.6376
-10011.226
-9476.7552
32.5111
-2427.903
-7799.729
7566.53
-375.327
11308.964
5241.323
-1237.909
-32380.154
-41279.567
-20452.252
-3335.567
-12215.083
3810.4857
31576.566
7127.0388
-6226.3922
-32380.155
-63629.016
-30828.015
-16179.361
-22235.725
13206.594
18542.833
-7295.1377
1394.3034
-9994.9269
-41279.556
-30828.038
-22417.9
-16642.787
5859.5504
14479.268
2854.6498
7900.9744
5343.007
-17812.55
-20452.268
-16179.351
-16642.773
-2730.3589
12807.809
2552.5373
972.0889
3397.8496
-13257.789
-15498.965
-3335.559
-22235.71
5859.5696
12807.812
-2.4721
6853.0097
5011.0236
-9726.6553
-8123.7132
-196.86238
-12215.097
13206.588
14479.255
2552.5752
6853.0186
11350.568
-6527.4082
-2987.2733
12649.712
4867.2641
3810.4569
18542.844
2854.6026
972.0613
5011.0717
-6527.4268
256.8468
14429.537
14173.024
2922.345
31576.57
-7295.1799
7900.9444
3397.8411
-9726.6354
-2987.2606
14429.559
14710.355
3091.652
2266.903
7127.0897
1394.3061
5343.0093
-13257.789
-8123.746
12649.743
14172.979
3091.667
7009.243
11725.647
-6226.3826
-9994.9025
-17812.615
-15498.986
-196.85586
4867.3093
2922.357
2266.944
11725.605
-2813.993
-30761.661
-37718.353
-31399.501
-14963.385
-6175.38
1269.445
-3779.0022
-9919.534
-15527.405
-21087.753
-37718.335
-38186.439
-24753.914
2406.818
972.41
-15308.032
-3991.5473
-12090.462
-32389.564
-33011.806
-31399.49
-24753.902
-369.315
-2112.453
-7392.676
-6288.2945
-9791.2015
-24126.049
-34486.578
-25014.789
-14963.395
2406.819
-2112.427
-1755.808
-1927.2165
-9313.7487
-17994.902
-20642.195
-24540.884
-14845.404
-6175.368
972.445
-7392.675
-1927.179
-2827.6532
-10951.13
-10179.51
-13075.617
-10287.783
-7020.7679
1269.454
-15308.013
-6288.2609
-9313.7564
-10951.131
-9514.5365
-7095.1531
-5795.9776
-2832.016
-1195.3944
-3778.9836
-3991.5951
-9791.2262
-17994.894
-10179.529
-7095.1522
-5056.2165
-823.4297
4083.614
417.1021
-9919.572
-12090.443
-24126.038
-20642.118
-13075.583
-5795.9501
-823.4791
4561.851
6712.572
-799.598
-15527.339
-32389.56
-34486.606
-24540.867
-10287.832
-2831.9797
4083.6446
6712.604
4283.868
-5809.889
-21087.752
-33011.831
-25014.737
-14845.411
-7020.7099
-1195.3732
417.1333
-799.62
-5809.917
-9341.791
-14146.694
-19406.584
-2779.3658
12404.642
284.173
-10377.443
-5082.283
-21873.627
-35999.686
-25454.92
-19406.584
9980.4608
18318.195
5598.9519
-5160.818
-9172.109
-22596.259
-40462.09
-37812.477
-23843.239
-2779.3927
18318.204
9030.2895
2827.147
-2668.974
-14918.823
-27961.762
-27723.043
-25700.892
-18037.655
12404.641
5598.9896
2827.14
4828.238
-7463.301
-19429.937
-17050.283
-16369.654
-21776.463
-11319.046
284.224
-5160.876
-2668.955
-7463.278
-15328.927
-14656.756
-10221.266
-15573.821
-13590.949
-4047.5977
-10377.497
-9172.022
-14918.861
-19429.906
-14656.77
-9691.525
-12599.239
-8808.893
-3457.9642
-3412.0336
-5082.243
-22596.285
-27961.708
-17050.325
-10221.296
-12599.183
-6284.3256
-353.5349
-6557.4444
-6105.4733
-21873.578
-40462.113
-27723.038
-16369.627
-15573.842
-8808.884
-353.501
-7686.0054
-9750.818
-8889.067
-35999.757
-37812.425
-25700.85
-21776.526
-13590.892
-3457.9453
-6557.4542
-9750.811
-11816.329
-10209.245
-25454.884
-23843.285
-18037.645
-11319.049
-4047.5829
-3412.0058
-6105.443
-8889.07
-10209.288
-9455.146
-8283.0883
27691.235
20400.835
13493.458
7333.549
-8872.874
-20706.422
-23755.23
-24878.77
-15417.942
27691.258
31973.768
26230.03
16331.46
-4966.2181
-15984.703
-17073.727
-22751.044
-19039.892
-4406.9761
20400.843
26230
14664.191
4372.3314
-6129.69
-9392.8944
-14031.138
-12765.22
-9635.6854
374.6893
13493.454
16331.515
4372.3151
-2303.729
-7741.4607
-10395.193
-8111.9853
-5646.871
-4709.1259
3746.4204
7333.5339
-4966.2164
-6129.711
-7741.4834
-10147.138
-5966.0892
-746.6524
-3420.41
-1217.3815
5113.3411
-8872.81
-15984.761
-9392.9042
-10395.204
-5966.1192
952.5666
-1696.3095
-1251.7589
2263.5961
323.0317
-20706.482
-17073.691
-14031.18
-8111.9924
-746.5449
-1696.3463
-217.9336
122.8357
-5849.861
-4347.909
-23755.218
-22751.077
-12765.202
-5646.9098
-3420.3906
-1251.7719
122.8179
-9259.274
-11274.15
-7615.101
-24878.706
-19039.952
-9635.6731
-4709.1117
-1217.3779
2263.6214
-5849.85
-11274.122
-12448.617
-7256.431
-15418.02
-4406.9159
374.6051
3746.44
5113.332
323.053
-4347.907
-7615.136
-7256.403
479.686
19261.375
35158.645
21209.553
14308.122
983.3423
-8718.68
-7429.1125
-8883.5418
-6335.7949
5860.9512
35158.655
25679.493
15213.976
7431.5319
-2539.277
-2275.9435
0.9684
2705.6832
12953.234
18836.816
21209.501
15214.022
6577.0001
-1545.482
-3445.5772
1485.3724
3595.9774
10931.038
18323.207
18093.193
14308.151
7431.4638
-1545.483
-5419.0289
-712.01051
4607.0875
11138.027
16274.048
16626.466
14874.141
983.3063
-2539.266
-3445.557
-712.00032
5043.9555
12248.968
15239.918
10180.716
12392.317
10741.453
-8718.6918
-2275.8969
1485.4173
4607.0594
12248.956
14956.408
7364.8814
7003.974
8624.519
5696.032
-7429.0959
0.927
3595.9947
11138.018
15239.887
7364.8937
5331.388
2935.238
542.343
2224.924
-8883.5649
2705.7207
10931.035
16274.048
10180.699
7004.028
2935.206
-4096.714
-2805.728
2539.435
-6335.8215
12953.204
18323.172
16626.478
12392.314
8624.501
542.406
-2805.775
1327.32
6935.992
5860.9457
18836.779
18093.201
14874.118
10741.463
5696.028
2224.978
2539.44
6935.978
11385.727
25784.848
14694.567
3162.8223
892.0543
-904.841
-3340.2811
2954.0827
9778.1617
17278.498
20513.44
14694.563
-4050.7709
-6015.4863
-4631.761
-5214.7636
5723.708
16998.187
25092.822
32823.29
24857.488
3162.8445
-6015.4951
-8766.295
-9849.4067
-1869.1229
11081.053
18477.864
26381.989
30728.184
19587.352
892.0233
-4631.722
-9849.416
-5202.0268
8596.1927
15281.323
20809.331
24364.717
22898.032
14554.469
-904.7418
-5214.7842
-1869.0548
8596.1756
13714.137
17440.89
18460.716
13960.399
16901.771
11689.611
-3340.3122
5723.7141
11081.064
15281.264
17440.912
16469.532
8697.262
10499.117
13614.448
11168.176
2954.0653
16998.178
18477.823
20809.35
18460.663
8697.345
7550.626
7621.192
11611.806
12034.315
9778.2156
25092.793
26381.976
24364.72
13960.422
10499.054
7621.184
8524.868
15764.175
16135.36
17278.441
32823.278
30728.192
22897.985
16901.763
13614.441
11611.83
15764.192
20760.046
22227.864
20513.404
24857.469
19587.313
14554.462
11689.558
11168.241
12034.251
16135.415
22227.814
13308.192
10320.423
-17042.837
-15901.709
-10551.604
-9384.0543
-480.8968
10400.156
17485.853
21582.736
17273.13
-17042.864
-30867.525
-26784.249
-19663.626
-8789.7784
5601.6779
16831.468
22503.591
25098.896
12762.593
-15901.632
-26784.298
-22834.12
-15079.195
-2803.7182
9910.2238
14680.753
18864.219
19852.853
8536.101
-10551.601
-19663.65
-15079.181
-5114.8361
6095.4304
9055.2104
12918.708
15229.517
14350.607
7306.412
-9384.117
-8789.7472
-2803.7654
6095.4134
6436.2442
10071.002
11303.216
9808.168
13536.494
9876.365
-480.9027
5601.6583
9910.2105
9055.1958
10071.02
10193.486
6342.27
11176.528
16296.919
13948.961
10400.16
16831.463
14680.723
12918.694
11303.22
6342.29
9222.875
14501.015
21610.474
18515.898
17485.776
22503.537
18864.167
15229.534
9808.167
11176.534
14500.979
22599.982
28823.369
23349.647
21582.741
25098.854
19852.837
14350.59
13536.451
16296.882
21610.552
28823.388
32390.209
23503.159
17273.104
12762.6
8536.104
7306.418
9876.347
13948.936
18515.911
23349.592
23503.195
8903.733
-13196.746
-33389.992
-29256.877
-21476.875
-11668.228
-1827.1554
4419.6916
8259.1304
9322.2552
3657.3392
-33389.933
-48959.868
-35114.753
-22366.995
-11393.274
-2405.5201
3162.745
3579.4883
2258.0985
-3808.4436
-29256.978
-35114.727
-24246.285
-15657.35
-6045.9182
-533.5707
-2432.2277
-1870.6099
-799.3656
-3489.2539
-21476.867
-22366.971
-15657.411
-7725.937
-3075.1692
-4907.2175
-4140.8179
-2196.9498
-16.299
516.184
-11668.243
-11393.3
-6045.8332
-3075.1512
-5362.4399
-3856.1393
-2824.0782
-158.7556
5893.0738
6599.8774
-1827.1351
-2405.4772
-533.6056
-4907.19
-3856.2147
-2784.1156
-842.189
7151.1431
13656.062
11766.427
4419.6581
3162.7322
-2432.2703
-4140.8276
-2823.9798
-842.2008
7254.0028
15377.193
21382.14
14988.543
8259.122
3579.479
-1870.571
-2197.0002
-158.7677
7151.151
15377.241
23732.573
24532.774
15637.865
9322.1935
2258.0421
-799.4654
-16.3106
5893.0732
13656.113
21382.144
24532.777
25343.537
9221.405
3657.3265
-3808.4596
-3489.2624
516.1698
6599.826
11766.438
14988.59
15637.901
9221.4
-2594.271
-23693.682
-35280.213
-27670.563
-17906.789
-7091.9692
-5015.4297
-3677.8014
-3263.7121
-5292.5424
-8096.6915
-35280.261
-38018.533
-25249.97
-11096.288
-8130.1392
-7559.7287
-9607.456
-13558.049
-15298.514
-12340.119
-27670.509
-25249.985
-13185.425
-8381.667
-6849.416
-10306.786
-16304.7
-16526.92
-13800.751
-8210.0588
-17906.769
-11096.309
-8381.6182
-6363.6827
-9425.3683
-15396.713
-16159.277
-13478.843
-8408.925
-2152.904
-7091.9151
-8130.1161
-6849.4718
-9425.3174
-14498.673
-14797.856
-12491.458
-7489.6812
-212.72799
2161.4576
-5015.4473
-7559.7437
-10306.749
-15396.797
-14797.772
-11992.784
-6527.5907
1191.9374
6002.7238
3236.7253
-3677.7644
-9607.4806
-16304.701
-16159.245
-12491.474
-6527.5622
2118.5246
7055.6107
7693.7037
647.74804
-3263.7185
-13558.059
-16526.952
-13478.858
-7489.5953
1191.9388
7055.6284
8054.6419
4219.3718
-5267.9663
-5292.6012
-15298.547
-13800.711
-8408.907
-212.78766
6002.6968
7693.7553
4219.3542
-2705.0621
-10129.648
-8096.6901
-12340.142
-8210.1055
-2152.8973
2161.4663
3236.7511
647.73475
-5267.9401
-10129.642
-16932.217
-19238.878
-21283.836
-11980.36
-1340.2949
-301.03603
-3421.2596
-5747.9143
-8495.2852
-12002.354
-10734.334
-21283.816
-11262.629
-952.4294
4245.7138
-515.9546
-5408.0997
-11054.084
-16254.131
-16964.428
-9735.2073
-11980.363
-952.4495
4998.6344
3623.3094
-1004.7571
-7393.7798
-14232.574
-15588.253
-12724.527
-5347.1032
-1340.3029
4245.7689
3623.3231
998.1133
-4413.8008
-11309.708
-13494.375
-12125.866
-7341.8455
-2188.424
-301.06934
-515.9248
-1004.7394
-4413.823
-9983.0573
-11862.241
-10940.632
-7774.5875
-3498.5782
-3647.3106
-3421.2247
-5408.085
-7393.7397
-11309.674
-11862.252
-10186.151
-7164.5894
-4316.0389
-5511.5166
-9132.7792
-5747.9096
-11054.01
-14232.601
-13494.377
-10940.624
-7164.62
-4416.0192
-7301.6905
-13005.402
-16123.659
-8495.3066
-16254.175
-15588.207
-12125.901
-7774.6302
-4316.036
-7301.6907
-15015.378
-21473.688
-24453.127
-12002.361
-16964.475
-12724.563
-7341.8499
-3498.5598
-5511.5634
-13005.404
-21473.714
-30084.885
-26038.042
-10734.364
-9735.1936
-5347.0301
-2188.4422
-3647.326
-9132.7927
-16123.647
-24453.1
-26037.999
-20015.695
-10494.004
4650.5
8958.1735
12216.217
6925.1673
2245.0675
-1344.6721
-4911.0286
-7617.612
-4866.7446
4650.495
16569.218
22525.854
17251.701
11250.262
5720.8959
-233.4847
-5317.9976
-5550.5079
-969.7445
8958.1611
22525.869
20560.256
17018.946
11611.206
5066.4521
-1554.8624
-3716.9226
-2661.4547
47.6846
12216.225
17251.717
17018.946
13200.776
8161.882
1066.1247
-2158.695
-3134.4891
-2550.3003
-2012.0943
6925.2067
11250.271
11611.291
8161.8459
1877.685
-1401.712
-3750.1144
-5294.529
-6960.947
-9350.881
2245.067
5720.8961
5066.4106
1066.1454
-1401.7426
-3534.5046
-6499.862
-10532.606
-16716.094
-17875.085
-1344.6629
-233.5595
-1554.7956
-2158.7594
-3750.0938
-6499.825
-11819.619
-20936.178
-27723.317
-25888.376
-4911.0361
-5317.974
-3716.979
-3134.505
-5294.489
-10532.643
-20936.157
-30971.495
-37623.401
-29391.233
-7617.6379
-5550.5338
-2661.4628
-2550.2935
-6960.947
-16716.087
-27723.326
-37623.424
-38590.174
-29457.349
-4866.7024
-969.7362
47.6514
-2012.0717
-9350.847
-17875.09
-25888.447
-29391.183
-29457.408
-11990.933
4852.464
25968.569
24251.036
19637.398
15331.148
11047.059
8061.003
4712.3346
3024.9774
3416.6378
25968.536
38927.991
34149.604
28928.431
23555.406
18280.985
13129.084
9384.6806
8232.6713
6632.9804
24251.068
34149.581
30416.983
26373.445
20417.878
15181.72
10722.703
8552.0264
6060.4844
3796.6382
19637.384
28928.472
26373.465
20880.745
15737.595
10076.089
6802.704
2967.1998
-123.76728
-2767.1212
15331.176
23555.435
20417.847
15737.623
9201.1038
4994.9023
-577.5491
-5603.5199
-9511.654
-11583.416
11047.028
18280.988
15181.777
10076.055
4994.9662
-1466.5609
-7979.7874
-14305.545
-20542.492
-16926.378
8061.041
13129.067
10722.749
6802.7602
-577.5925
-7979.7665
-16162.806
-25330.564
-28993.357
-21977.679
4712.3016
9384.6994
8551.9426
2967.1823
-5603.4544
-14305.513
-25330.58
-32004.556
-33145.971
-20120.831
3024.9634
8232.6234
6060.4893
-123.75454
-9511.64
-20542.486
-28993.372
-33145.985
-31202.69
-16319.233
3416.6403
6632.96
3796.637
-2767.1346
-11583.428
-16926.391
-21977.67
-20120.851
-16319.237
732.142
20431.767
32858.906
28720.966
24085.565
20558.395
17300.542
14623.143
12182.91
10958.383
7981.6007
32858.899
42503.054
33403.093
30795.304
24963.85
20946.62
18059.271
16096.759
13517.223
7801.1061
28720.951
33403.087
30584.177
24170.846
18297.355
15467.973
13229.699
11105.795
7270.8623
1759.1843
24085.562
30795.305
24170.852
17128.144
12364.716
8741.5987
6453.4978
2009.6358
-553.184
-3949.3399
20558.363
24963.852
18297.417
12364.727
6473.2422
3342.1319
-1743.1544
-5680.3628
-7494.0001
-6426.4521
17300.558
20946.647
15467.973
8741.6615
3342.0824
-2147.6346
-7653.0217
-11326.702
-12370.813
-8429.7184
14623.117
18059.315
13229.724
6453.4218
-1743.1458
-7653.0532
-13713.209
-17231.955
-15355.009
-7004.9364
12182.888
16096.692
11105.763
2009.6422
-5680.3853
-11326.673
-17231.94
-16570.979
-12356.86
-2102.7281
10958.367
13517.208
7270.8037
-553.2113
-7493.9744
-12370.795
-15355.077
-12356.828
-9755.5061
5847.4384
7981.565
7801.0729
1759.1533
-3949.3305
-6426.4224
-8429.7363
-7004.8863
-2102.7226
5847.417
11113.111
22490.936
25953.527
20607.891
18601.127
15495.32
13513.839
11555.454
10566.601
9491.3888
5235.1032
25953.522
23214.964
20548.036
16772.207
11969.521
9420.8023
8915.6866
8285.6055
5962.4772
-201.41475
20607.853
20548.025
16643.03
9259.4664
4691.8505
4341.6385
4448.1204
2896.6997
1124.1506
-2290.0295
18601.11
16772.203
9259.4806
2550.5609
449.5835
826.0528
-168.8338
-1529.7618
-471.578
-1667.0519
15495.368
11969.573
4691.809
449.6215
-456.4356
-909.5932
-3487.191
-1805.7889
-603.16544
-1860.6897
13513.822
9420.7723
4341.6801
826.021
-909.6018
-3278.7127
-3493.6747
-1080.0899
372.9329
1366.6246
11555.459
8915.6531
4448.0886
-168.822
-3487.1886
-3493.6593
-3034.9611
75.6825
3630.1584
11166.68
10566.585
8285.5809
2896.6801
-1529.7613
-1805.7772
-1080.0733
75.6645
5842.6231
10545.207
15225.766
9491.344
5962.4529
1124.1078
-471.59776
-603.12741
372.9907
3630.1808
10545.202
20463.755
16267.869
5235.0896
-201.38385
-2290.0915
-1667.0267
-1860.7262
1366.6445
11166.693
15225.717
16267.892
16289.778
14117.183
7553.4789
4708.799
3522.8659
1585.6275
-549.38944
-881.6805
-724.59474
-725.8043
-2811.2211
7553.45
-1500.742
-1648.0236
-6842.1168
-10647.849
-10487.829
-9164.4975
-7329.4128
-5028.3128
-5643.1508
4708.806
-1648.047
-7579.2452
-12506.261
-12236.852
-10539.41
-7799.555
-3737.3608
-3397.3595
-4508.9974
3522.8209
-6842.1173
-12506.224
-12990.657
-11373.896
-8422.6703
-4527.564
-902.61808
-1986.0921
-2237.2339
1585.6022
-10647.795
-12236.931
-11373.879
-8401.8356
-4657.2829
-464.56632
2824.8851
2555.7424
4708.7181
-549.36995
-10487.905
-10539.414
-8422.7352
-4657.2519
1.94362
4963.991
8055.449
9764.307
11082.509
-881.71535
-9164.5029
-7799.5716
-4527.4853
-464.64206
4963.9947
8179.2219
14460.786
19115.123
11765.691
-724.61495
-7329.4611
-3737.3604
-902.6453
2824.8729
8055.4789
14460.744
21711.673
22426.451
19755.761
-725.8213
-5028.3451
-3397.3663
-1986.1099
2555.7285
9764.2669
19115.129
22426.43
25705.629
19622.479
-2811.2355
-5643.1477
-4509.0154
-2237.2949
4708.7516
11082.543
11765.67
19755.817
19622.455
-806.8268
3526.5451
-12715.584
-11025.248
-14188.964
-14246.097
-15316.57
-14128.665
-10547.537
-7056.5604
-7248.6415
-12715.61
-21235.456
-26672.243
-25664.092
-26846.563
-24497.755
-17711.61
-11036.142
-11583.553
-8880.9433
-11025.257
-26672.215
-25125.265
-25244.62
-22712.722
-16246.475
-8208.6945
-6516.3739
-9769.7283
-3450.9053
-14188.977
-25664.045
-25244.669
-22371.973
-16387.685
-7302.6454
-2304.6378
-3441.599
226.6042
968.75963
-14246.057
-26846.586
-22712.693
-16387.7
-6846.3356
253.6433
2806.8813
6300.4027
8386.7397
170.00544
-15316.57
-24497.767
-16246.472
-7302.6399
253.5961
5136.059
9627.9098
12794.743
6191.8405
7250.821
-14128.683
-17711.649
-8208.7282
-2304.6363
2806.8932
9627.9381
15208.277
16311.756
13028.034
11066.26
-10547.621
-11036.183
-6516.3082
-3441.6471
6300.4418
12794.763
16311.734
17547.127
22134.164
6003.5168
-7056.6241
-11583.556
-9769.7865
226.596
8386.738
6191.8051
13028.061
22134.156
10802.512
1015.995
-7248.5985
-8880.9906
-3450.9208
968.75849
169.99036
7250.8436
11066.263
6003.4724
1015.9894
1908.403
-8095.8163
-24346.049
-21133.074
-20338.795
-20417.901
-17900.623
-13107.319
-10141.436
-10976.292
-7502.896
-24346.069
-29719.61
-28994.315
-27123.071
-23653.791
-17287.949
-13770.678
-13441.525
-11482.222
-5150.3071
-21133.043
-28994.353
-25511.27
-22624.448
-14083.32
-8289.3223
-5104.8352
-3263.3137
762.7919
-8791.3142
-20338.846
-27123.083
-22624.439
-12943.727
-4468.3914
-254.6845
3865.3678
3844.8818
-482.8635
-747.938
-20417.871
-23653.823
-14083.321
-4468.449
563.7194
6285.7812
7744.2834
3982.3522
-6987.0316
1793.0029
-17900.658
-17287.938
-8289.4267
-254.7279
6285.8361
11529.108
7753.8997
3814.5147
6598.3333
-6530.4695
-13107.375
-13770.654
-5104.7607
3865.3812
7744.2573
7753.9627
10769.842
6921.5085
2250.5028
-1620.4437
-10141.431
-13441.503
-3263.3333
3844.8923
3982.3855
3814.5191
6921.5084
6396.5457
-5698.8618
-4010.5805
-10976.346
-11482.216
762.7748
-482.9083
-6986.9949
6598.4247
2250.464
-5698.8551
865.7314
-6411.1592
-7502.924
-5150.2982
-8791.329
-747.9255
1793.0221
-6530.4762
-1620.454
-4010.5617
-6411.1926
-3796.3836
-15192.908
-17246.567
-17897.847
-12791.605
-8641.5305
-6451.1402
-6947.2319
-5660.7546
-6011.1824
-5002.7778
-17246.531
-22657.262
-14698.456
-5730.585
-2316.395
-3887.8449
33.50546
235.7132
-2105.5947
-1640.5268
-17897.934
-14698.454
-3665.9444
2928.3511
2777.4664
6804.2803
9919.7546
2568.3256
-5329.6907
9864.1988
-12791.547
-5730.6119
2928.3156
5145.7661
7297.7347
12583.699
3138.5278
1741.6301
-438.11999
-4833.975
-8641.5447
-2316.4023
2777.4015
7297.7075
13745.505
9947.0128
4691.5845
2823.2249
-1670.3155
-9077.8125
-6451.1485
-3887.7884
6804.3084
12583.774
9946.9637
7106.8197
9751.8971
-1667.8191
-13118.263
-1337.5575
-6947.174
33.45268
9919.7589
3138.4956
4691.661
9751.8934
-3875.536
-7164.9069
-7728.3851
-11648.717
-5660.8673
235.7281
2568.2737
1741.6109
2823.2855
-1667.8125
-7164.9467
-8818.2055
-12599.744
-7970.0539
-6011.1376
-2105.6244
-5329.7418
-438.07009
-1670.3143
-13118.287
-7728.3616
-12599.731
-15374.433
-1211.7043
-5002.7856
-1640.5104
9864.2041
-4833.9849
-9077.8416
-1337.5409
-11648.678
-7970.0749
-1211.7052
228.519
-13890.075
-4770.9228
7725.7336
13836.19
9531.6032
12084.165
11322.563
129.03451
-3652.9052
-3797.0917
-4770.9347
16605.299
24485.849
19053.619
18753.84
20627.286
7617.6138
4005.0142
5838.9519
-1982.2399
7725.739
24485.853
23244.978
17418.847
22121.858
10086.744
-1694.9657
4077.9599
848.26259
-10272.513
13836.167
19053.595
17418.867
18986.558
14678.475
2628.0474
-185.85953
-5962.3923
-6134.0859
-10038.448
9531.6029
18753.856
22121.793
14678.433
8493.7209
2598.6137
-7747.6288
-13015.26
-9457.7282
-15800.773
12084.209
20627.301
10086.739
2628.0554
2598.6639
-5610.15
-11924.872
-10608.506
-16626.715
-22058.696
11322.636
7617.6502
-1694.912
-185.82568
-7747.6718
-11924.871
-6276.9155
-17058.664
-20435.211
-10775.584
129.06131
4005.053
4078.0304
-5962.3549
-13015.261
-10608.486
-17058.653
-17295.617
-12559.985
1942.5091
-3652.83
5838.986
848.32026
-6134.0705
-9457.6917
-16626.68
-20435.202
-12559.995
4227.4549
20866.023
-3797.0958
-1982.2035
-10272.45
-10038.38
-15800.768
-22058.712
-10775.665
1942.4313
20865.99
18675.423
)
;

boundaryField
{
    block1_in
    {
        type            extrapolatedCalculated;
        value           nonuniform List<scalar> 
100
(
13324.361
11683.65
-29473.357
-35785.33
-57440.273
-24780.906
8648.617
6484.732
12479.321
109.6376
11683.731
-24211.721
-58251.376
-51721.367
-19422.709
8695.4354
25279.373
45310.799
36511.225
-10011.226
-29473.36
-58251.408
-41090.968
-27999.481
-2489.5867
4500.971
22677.396
29108.331
13099.777
-9476.7552
-35785.355
-51721.364
-27999.485
-6603.4701
-1980.7944
10239.013
12029.977
-3028.7289
12534.236
32.5111
-57440.364
-19422.696
-2489.5367
-1980.7895
8582.8793
4100.7629
-10790.924
-3867.3178
18824.344
-2427.903
-24780.973
8695.4177
4500.9512
10239.047
4100.7443
-3818.464
3289.575
8771.927
7556.121
-7799.729
8648.507
25279.307
22677.391
12029.977
-10790.908
3289.596
14075.964
-6186.662
-81.337
7566.53
6484.707
45310.79
29108.285
-3028.7165
-3867.2681
8771.932
-6186.621
-2139.981
-1045.616
-375.327
12479.355
36511.176
13099.71
12534.205
18824.338
7556.139
-81.308
-1045.545
-7055.431
11308.964
109.726
-10011.216
-9476.8217
32.4098
-2427.931
-7799.735
7566.571
-375.299
11309.073
5241.323
)
;
    }
    block1_out
    {
        type            extrapolatedCalculated;
        value           nonuniform List<scalar> 
100
(
-13890.075
-4770.9347
7725.739
13836.167
9531.6029
12084.209
11322.636
129.06131
-3652.83
-3797.0958
-4770.9228
16605.299
24485.853
19053.595
18753.856
20627.301
7617.6502
4005.053
5838.986
-1982.2035
7725.7336
24485.849
23244.978
17418.867
22121.793
10086.739
-1694.912
4078.0304
848.32026
-10272.45
13836.19
19053.619
17418.847
18986.558
14678.433
2628.0554
-185.82568
-5962.3549
-6134.0705
-10038.38
9531.6032
18753.84
22121.858
14678.475
8493.7209
2598.6639
-7747.6718
-13015.261
-9457.6917
-15800.768
12084.165
20627.286
10086.744
2628.0474
2598.6137
-5610.15
-11924.871
-10608.486
-16626.68
-22058.712
11322.563
7617.6138
-1694.9657
-185.85953
-7747.6288
-11924.872
-6276.9155
-17058.653
-20435.202
-10775.665
129.03451
4005.0142
4077.9599
-5962.3923
-13015.26
-10608.506
-17058.664
-17295.617
-12559.995
1942.4313
-3652.9052
5838.9519
848.26259
-6134.0859
-9457.7282
-16626.715
-20435.211
-12559.985
4227.4549
20865.99
-3797.0917
-1982.2399
-10272.513
-10038.448
-15800.773
-22058.696
-10775.584
1942.5091
20866.023
18675.423
)
;
    }
    block1_wall1
    {
        type            extrapolatedCalculated;
        value           nonuniform List<scalar> 
200
(
13324.361
11683.65
-29473.357
-35785.33
-57440.273
-24780.906
8648.617
6484.732
12479.321
109.6376
-1237.909
-32380.155
-41279.556
-20452.268
-3335.559
-12215.097
3810.4569
31576.57
7127.0897
-6226.3826
-30761.661
-37718.335
-31399.49
-14963.395
-6175.368
1269.454
-3778.9836
-9919.572
-15527.339
-21087.752
-14146.694
-19406.584
-2779.3927
12404.641
284.224
-10377.497
-5082.243
-21873.578
-35999.757
-25454.884
-8283.0883
27691.258
20400.843
13493.454
7333.5339
-8872.81
-20706.482
-23755.218
-24878.706
-15418.02
19261.375
35158.655
21209.501
14308.151
983.3063
-8718.6918
-7429.0959
-8883.5649
-6335.8215
5860.9457
25784.848
14694.563
3162.8445
892.0233
-904.7418
-3340.3122
2954.0653
9778.2156
17278.441
20513.404
10320.423
-17042.864
-15901.632
-10551.601
-9384.117
-480.9027
10400.16
17485.776
21582.741
17273.104
-13196.746
-33389.933
-29256.978
-21476.867
-11668.243
-1827.1351
4419.6581
8259.122
9322.1935
3657.3265
-23693.682
-35280.261
-27670.509
-17906.769
-7091.9151
-5015.4473
-3677.7644
-3263.7185
-5292.6012
-8096.6901
-19238.878
-21283.816
-11980.363
-1340.3029
-301.06934
-3421.2247
-5747.9096
-8495.3066
-12002.361
-10734.364
-10494.004
4650.495
8958.1611
12216.225
6925.2067
2245.067
-1344.6629
-4911.0361
-7617.6379
-4866.7024
4852.464
25968.536
24251.068
19637.384
15331.176
11047.028
8061.041
4712.3016
3024.9634
3416.6403
20431.767
32858.899
28720.951
24085.562
20558.363
17300.558
14623.117
12182.888
10958.367
7981.565
22490.936
25953.522
20607.853
18601.11
15495.368
13513.822
11555.459
10566.585
9491.344
5235.0896
14117.183
7553.45
4708.806
3522.8209
1585.6022
-549.36995
-881.71535
-724.61495
-725.8213
-2811.2355
3526.5451
-12715.61
-11025.257
-14188.977
-14246.057
-15316.57
-14128.683
-10547.621
-7056.6241
-7248.5985
-8095.8163
-24346.069
-21133.043
-20338.846
-20417.871
-17900.658
-13107.375
-10141.431
-10976.346
-7502.924
-15192.908
-17246.531
-17897.934
-12791.547
-8641.5447
-6451.1485
-6947.174
-5660.8673
-6011.1376
-5002.7856
-13890.075
-4770.9347
7725.739
13836.167
9531.6029
12084.209
11322.636
129.06131
-3652.83
-3797.0958
)
;
    }
    block1_wall2
    {
        type            extrapolatedCalculated;
        value           nonuniform List<scalar> 
200
(
109.6376
-6226.3826
-21087.752
-25454.884
-15418.02
5860.9457
20513.404
17273.104
3657.3265
-8096.6901
-10734.364
-4866.7024
3416.6403
7981.565
5235.0896
-2811.2355
-7248.5985
-7502.924
-5002.7856
-3797.0958
-10011.226
-9994.9025
-33011.831
-23843.285
-4406.9159
18836.779
24857.469
12762.6
-3808.4596
-12340.142
-9735.1936
-969.7362
6632.96
7801.0729
-201.38385
-5643.1477
-8880.9906
-5150.2982
-1640.5104
-1982.2035
-9476.7552
-17812.615
-25014.737
-18037.645
374.6051
18093.201
19587.313
8536.104
-3489.2624
-8210.1055
-5347.0301
47.6514
3796.637
1759.1533
-2290.0915
-4509.0154
-3450.9208
-8791.329
9864.2041
-10272.45
32.5111
-15498.986
-14845.411
-11319.049
3746.44
14874.118
14554.462
7306.418
516.1698
-2152.8973
-2188.4422
-2012.0717
-2767.1346
-3949.3305
-1667.0267
-2237.2949
968.75849
-747.9255
-4833.9849
-10038.38
-2427.903
-196.85586
-7020.7099
-4047.5829
5113.332
10741.463
11689.558
9876.347
6599.826
2161.4663
-3647.326
-9350.847
-11583.428
-6426.4224
-1860.7262
4708.7516
169.99036
1793.0221
-9077.8416
-15800.768
-7799.729
4867.3093
-1195.3732
-3412.0058
323.053
5696.028
11168.241
13948.936
11766.438
3236.7511
-9132.7927
-17875.09
-16926.391
-8429.7363
1366.6445
11082.543
7250.8436
-6530.4762
-1337.5409
-22058.712
7566.53
2922.357
417.1333
-6105.443
-4347.907
2224.978
12034.251
18515.911
14988.59
647.73475
-16123.647
-25888.447
-21977.67
-7004.8863
11166.693
11765.67
11066.263
-1620.454
-11648.678
-10775.665
-375.327
2266.944
-799.62
-8889.07
-7615.136
2539.44
16135.415
23349.592
15637.901
-5267.9401
-24453.1
-29391.183
-20120.851
-2102.7226
15225.717
19755.817
6003.4724
-4010.5617
-7970.0749
1942.4313
11308.964
11725.605
-5809.917
-10209.288
-7256.403
6935.978
22227.814
23503.195
9221.4
-10129.642
-26037.999
-29457.408
-16319.237
5847.417
16267.892
19622.455
1015.9894
-6411.1926
-1211.7052
20865.99
5241.323
-2813.993
-9341.791
-9455.146
479.686
11385.727
13308.192
8903.733
-2594.271
-16932.217
-20015.695
-11990.933
732.142
11113.111
16289.778
-806.8268
1908.403
-3796.3836
228.519
18675.423
)
;
    }
    block1_wall3
    {
        type            extrapolatedCalculated;
        value           nonuniform List<scalar> 
200
(
109.726
-10011.216
-9476.8217
32.4098
-2427.931
-7799.735
7566.571
-375.299
11309.073
5241.323
-6226.3922
-9994.9269
-17812.55
-15498.965
-196.86238
4867.2641
2922.345
2266.903
11725.647
-2813.993
-21087.753
-33011.806
-25014.789
-14845.404
-7020.7679
-1195.3944
417.1021
-799.598
-5809.889
-9341.791
-25454.92
-23843.239
-18037.655
-11319.046
-4047.5977
-3412.0336
-6105.4733
-8889.067
-10209.245
-9455.146
-15417.942
-4406.9761
374.6893
3746.4204
5113.3411
323.0317
-4347.909
-7615.101
-7256.431
479.686
5860.9512
18836.816
18093.193
14874.141
10741.453
5696.032
2224.924
2539.435
6935.992
11385.727
20513.44
24857.488
19587.352
14554.469
11689.611
11168.176
12034.315
16135.36
22227.864
13308.192
17273.13
12762.593
8536.101
7306.412
9876.365
13948.961
18515.898
23349.647
23503.159
8903.733
3657.3392
-3808.4436
-3489.2539
516.184
6599.8774
11766.427
14988.543
15637.865
9221.405
-2594.271
-8096.6915
-12340.119
-8210.0588
-2152.904
2161.4576
3236.7253
647.74804
-5267.9663
-10129.648
-16932.217
-10734.334
-9735.2073
-5347.1032
-2188.424
-3647.3106
-9132.7792
-16123.659
-24453.127
-26038.042
-20015.695
-4866.7446
-969.7445
47.6846
-2012.0943
-9350.881
-17875.085
-25888.376
-29391.233
-29457.349
-11990.933
3416.6378
6632.9804
3796.6382
-2767.1212
-11583.416
-16926.378
-21977.679
-20120.831
-16319.233
732.142
7981.6007
7801.1061
1759.1843
-3949.3399
-6426.4521
-8429.7184
-7004.9364
-2102.7281
5847.4384
11113.111
5235.1032
-201.41475
-2290.0295
-1667.0519
-1860.6897
1366.6246
11166.68
15225.766
16267.869
16289.778
-2811.2211
-5643.1508
-4508.9974
-2237.2339
4708.7181
11082.509
11765.691
19755.761
19622.479
-806.8268
-7248.6415
-8880.9433
-3450.9053
968.75963
170.00544
7250.821