/*--------------------------------*- C++ -*----------------------------------*\
| =========                 |                                                 |
| \\      /  F ield         | OpenFOAM: The Open Source CFD Toolbox           |
|  \\    /   O peration     | Version:  v2106                                 |
|   \\  /    A nd           | Website:  www.openfoam.com                      |
|    \\/     M anipulation  |                                                 |
\*---------------------------------------------------------------------------*/
FoamFile
{
    version     2.0;
    format      ascii;
    arch        "LSB;label=32;scalar=64";
    class       volScalarField;
    location    "0";
    object      Tmode5;
}
// * * * * * * * * * * * * * * * * * * * * * * * * * * * * * * * * * * * * * //

dimensions      [0 0 0 1 0 0 0];

internalField   nonuniform List<scalar> 
6000
(
0.010145082
0.010145004
0.010144931
0.010144882
0.010144836
0.010144818
0.010144808
0.010144775
0.010144755
0.010144762
0.010159569
0.010159502
0.01015944
0.010159403
0.010159374
0.010159341
0.010159316
0.010159297
0.010159285
0.010159281
0.010188233
0.010188174
0.010188153
0.010188127
0.010188089
0.010188038
0.010188021
0.010188007
0.010187995
0.010187982
0.010230373
0.010230329
0.01023031
0.010230275
0.010230229
0.010230193
0.01023018
0.010230177
0.010230177
0.01023015
0.010284878
0.010284861
0.010284831
0.010284777
0.010284731
0.010284706
0.01028471
0.010284732
0.010284737
0.010284708
0.0103503
0.010350279
0.010350227
0.010350181
0.010350143
0.010350122
0.01035013
0.010350145
0.01035016
0.010350155
0.010424734
0.010424709
0.010424664
0.010424615
0.010424583
0.010424573
0.010424576
0.010424585
0.010424595
0.010424608
0.010505912
0.010505902
0.010505856
0.010505801
0.01050577
0.010505746
0.010505751
0.010505766
0.010505763
0.010505782
0.01059113
0.010591121
0.010591084
0.010591033
0.010590992
0.01059098
0.010590987
0.010591005
0.010590992
0.010590996
0.010677249
0.010677224
0.010677197
0.010677139
0.01067709
0.010677091
0.010677105
0.010677121
0.010677108
0.01067709
0.010760603
0.010760573
0.010760539
0.010760487
0.010760442
0.01076044
0.010760456
0.010760464
0.010760467
0.010760445
0.01083711
0.010837068
0.010837013
0.010836974
0.010836937
0.01083693
0.010836937
0.010836939
0.010836957
0.010836949
0.010902098
0.01090205
0.010901997
0.01090195
0.010901915
0.010901904
0.010901914
0.01090192
0.010901934
0.01090194
0.010950354
0.01095032
0.010950265
0.010950214
0.010950174
0.010950166
0.010950189
0.010950194
0.010950195
0.010950204
0.010976137
0.0109761
0.010976043
0.010975986
0.010975947
0.010975937
0.010975961
0.010975957
0.010975948
0.010975957
0.010972993
0.010972955
0.010972907
0.010972847
0.010972817
0.010972799
0.010972815
0.010972811
0.010972802
0.010972804
0.010933851
0.010933825
0.010933779
0.010933723
0.01093369
0.010933675
0.010933693
0.010933702
0.010933696
0.010933688
0.010850947
0.010850926
0.010850878
0.010850821
0.010850775
0.010850778
0.010850806
0.010850828
0.010850831
0.010850832
0.010715686
0.010715657
0.010715609
0.010715559
0.010715517
0.010715531
0.010715563
0.010715596
0.010715621
0.010715644
0.010518592
0.010518547
0.010518513
0.01051848
0.010518454
0.010518464
0.010518496
0.010518539
0.010518575
0.010518611
0.01024912
0.010249074
0.010249062
0.010249041
0.010249024
0.010249029
0.010249072
0.010249118
0.010249149
0.010249178
0.0098953674
0.0098953448
0.0098953372
0.0098953183
0.0098953003
0.0098953041
0.0098953573
0.0098954039
0.0098954379
0.0098954544
0.0094435233
0.0094435167
0.0094434996
0.0094434809
0.0094434649
0.0094434711
0.0094435209
0.0094435675
0.0094436022
0.0094436137
0.0088768095
0.0088767969
0.0088767761
0.0088767591
0.0088767488
0.0088767635
0.0088768092
0.0088768517
0.0088768762
0.0088768858
0.008173472
0.0081734416
0.0081734233
0.0081734122
0.0081733948
0.0081734119
0.0081734503
0.0081734908
0.0081735201
0.0081735238
0.0073022422
0.0073021963
0.0073021759
0.0073021643
0.007302138
0.007302133
0.0073021579
0.0073022037
0.0073022574
0.007302269
0.0062110239
0.0062109781
0.0062109555
0.0062109316
0.0062108939
0.0062108547
0.0062108648
0.0062109091
0.0062109777
0.0062109935
0.0047941312
0.0047940923
0.004794072
0.0047940321
0.004793997
0.0047939583
0.0047939588
0.0047939907
0.0047940453
0.0047940614
0.0027806527
0.0027806152
0.0027805825
0.0027805304
0.0027805072
0.0027804929
0.0027805044
0.002780515
0.0027805208
0.0027805352
-0.00070449734
-0.00070453018
-0.00070458571
-0.00070464205
-0.00070466076
-0.0007046574
-0.00070463873
-0.00070464154
-0.00070465787
-0.00070463079
0.0087483672
0.0087483821
0.0087483669
0.0087483211
0.0087482954
0.0087482635
0.0087482318
0.0087482325
0.0087482188
0.0087481951
0.0087657496
0.0087657323
0.0087657039
0.0087656721
0.0087656276
0.0087656054
0.0087655793
0.0087655598
0.0087655494
0.0087655369
0.0087999851
0.0087999546
0.0087999312
0.0087998942
0.0087998603
0.0087998309
0.0087997999
0.0087997907
0.0087997861
0.0087997696
0.008850116
0.0088501054
0.008850074
0.0088500342
0.0088500059
0.0088499701
0.0088499414
0.0088499341
0.0088499315
0.008849917
0.0089147348
0.0089147074
0.0089146888
0.0089146522
0.008914613
0.0089145806
0.0089145543
0.0089145517
0.008914556
0.0089145402
0.0089918302
0.0089918138
0.0089917892
0.0089917427
0.0089917065
0.0089916763
0.0089916547
0.0089916547
0.0089916598
0.0089916487
0.0090788645
0.009078858
0.009078826
0.0090787791
0.0090787422
0.0090787172
0.009078699
0.0090787007
0.0090787085
0.0090787041
0.0091727666
0.0091727402
0.0091727068
0.009172657
0.0091726205
0.0091725936
0.0091725768
0.0091725837
0.0091725878
0.0091725826
0.0092697356
0.0092697104
0.0092696726
0.0092696193
0.0092695861
0.0092695628
0.0092695467
0.0092695537
0.0092695524
0.0092695484
0.0093653434
0.0093653215
0.0093652793
0.0093652327
0.0093652002
0.0093651873
0.0093651736
0.0093651791
0.0093651803
0.0093651767
0.0094544698
0.0094544246
0.0094543877
0.0094543458
0.0094543168
0.0094543033
0.0094542885
0.0094542927
0.0094542992
0.0094542946
0.0095310871
0.0095310483
0.00953101
0.0095309652
0.0095309392
0.0095309227
0.0095309122
0.0095309141
0.0095309253
0.0095309264
0.0095883315
0.009588304
0.0095882594
0.0095882121
0.0095881843
0.0095881737
0.0095881664
0.0095881695
0.0095881842
0.0095881906
0.0096183595
0.0096183198
0.0096182673
0.0096182156
0.0096181871
0.0096181779
0.0096181687
0.009618179
0.0096181939
0.0096182021
0.0096121399
0.009612096
0.0096120437
0.009611987
0.0096119567
0.0096119383
0.0096119339
0.0096119509
0.009611965
0.0096119774
0.0095594592
0.0095594179
0.0095593655
0.0095593052
0.0095592679
0.009559245
0.0095592472
0.0095592648
0.0095592827
0.0095592953
0.0094487111
0.0094486661
0.0094486101
0.0094485461
0.0094485054
0.0094484865
0.0094484863
0.0094485044
0.0094485272
0.0094485398
0.0092666383
0.009266588
0.0092665368
0.0092664774
0.0092664372
0.0092664216
0.0092664195
0.0092664414
0.0092664691
0.0092664887
0.0089981034
0.008998056
0.008998014
0.0089979647
0.0089979271
0.0089979161
0.0089979181
0.0089979445
0.0089979785
0.008998003
0.0086256888
0.0086256493
0.0086256118
0.0086255695
0.0086255433
0.0086255405
0.0086255454
0.0086255747
0.0086256059
0.0086256339
0.0081290742
0.0081290316
0.0081290005
0.0081289681
0.0081289564
0.0081289577
0.0081289633
0.0081289878
0.008129013
0.0081290408
0.0074840783
0.0074840336
0.007484012
0.0074839891
0.0074839807
0.0074839785
0.0074839806
0.0074839985
0.0074840238
0.0074840459
0.0066611071
0.0066610808
0.0066610598
0.0066610344
0.0066610212
0.0066610111
0.0066610054
0.0066610181
0.0066610403
0.0066610593
0.0056224623
0.0056224486
0.0056224185
0.0056223847
0.0056223631
0.0056223435
0.0056223311
0.0056223368
0.0056223549
0.0056223772
0.004317356
0.0043173282
0.004317293
0.0043172544
0.004317219
0.0043171946
0.0043171772
0.0043171815
0.0043172051
0.0043172312
0.0026723684
0.002672327
0.0026722892
0.0026722437
0.0026722018
0.0026721726
0.0026721566
0.0026721715
0.0026722069
0.0026722449
0.00057210733
0.00057206524
0.00057202072
0.00057196869
0.00057192371
0.00057188931
0.0005718848
0.00057191174
0.00057195911
0.0005720045
-0.0021819045
-0.0021819476
-0.0021819936
-0.0021820503
-0.0021820921
-0.0021821174
-0.0021821114
-0.0021820777
-0.0021820282
-0.0021819803
-0.0059583078
-0.005958353
-0.0059583963
-0.0059584489
-0.0059584815
-0.0059584964
-0.0059584789
-0.0059584455
-0.0059584059
-0.0059583688
-0.011457615
-0.011457658
-0.0114577
-0.011457748
-0.011457774
-0.011457778
-0.011457756
-0.011457729
-0.011457704
-0.011457656
0.0073344471
0.0073344239
0.0073344083
0.0073343876
0.0073343594
0.0073343342
0.0073343189
0.0073343025
0.0073342931
0.0073342949
0.0073550842
0.0073550757
0.0073550398
0.0073550163
0.0073549929
0.0073549543
0.00735494
0.0073549333
0.007354913
0.0073549179
0.0073958047
0.0073957816
0.0073957611
0.0073957283
0.007395695
0.0073956623
0.0073956405
0.0073956278
0.0073956244
0.007395638
0.0074554186
0.0074553959
0.0074553663
0.007455326
0.0074553035
0.0074552611
0.0074552331
0.0074552211
0.0074552208
0.0074552362
0.0075321066
0.0075320919
0.0075320564
0.0075320267
0.0075319868
0.007531942
0.0075319144
0.0075319006
0.007531904
0.0075319174
0.0076234175
0.0076233943
0.0076233675
0.007623327
0.007623287
0.0076232419
0.0076232121
0.0076232089
0.0076232139
0.0076232227
0.0077261999
0.0077261814
0.0077261468
0.0077260983
0.00772606
0.0077260093
0.007725988
0.0077259845
0.0077259832
0.0077259946
0.0078365334
0.0078365199
0.0078364739
0.0078364282
0.0078363882
0.0078363413
0.0078363192
0.0078363077
0.007836308
0.0078363232
0.0079496846
0.0079496491
0.0079496064
0.0079495662
0.0079495345
0.007949492
0.0079494643
0.0079494563
0.0079494606
0.0079494761
0.0080600062
0.0080599711
0.0080599261
0.0080598909
0.0080598617
0.0080598216
0.0080597985
0.0080597959
0.0080598009
0.0080598145
0.0081608725
0.008160836
0.0081607951
0.0081607613
0.0081607338
0.0081607005
0.0081606823
0.0081606798
0.0081606843
0.008160697
0.0082445257
0.0082444863
0.0082444433
0.0082444083
0.0082443907
0.008244362
0.0082443479
0.008244345
0.0082443498
0.0082443672
0.0083019408
0.0083019023
0.0083018511
0.0083018212
0.0083018066
0.0083017793
0.00830177
0.00830177
0.0083017793
0.0083018006
0.0083226835
0.0083226366
0.0083225878
0.0083225538
0.0083225305
0.0083225049
0.0083225007
0.0083225096
0.0083225232
0.0083225465
0.0082946933
0.0082946485
0.0082945939
0.0082945467
0.0082945202
0.0082944961
0.0082944984
0.0082945148
0.0082945309
0.0082945616
0.0082041121
0.0082040647
0.0082039972
0.008203949
0.0082039218
0.0082038967
0.0082039014
0.0082039185
0.0082039424
0.0082039807
0.0080349763
0.0080349107
0.0080348496
0.0080348066
0.0080347754
0.0080347468
0.0080347475
0.0080347672
0.0080348002
0.0080348445
0.0077688638
0.0077688052
0.0077687556
0.0077687119
0.0077686797
0.007768648
0.0077686471
0.007768671
0.0077687087
0.0077687592
0.0073845115
0.0073844685
0.0073844199
0.0073843794
0.0073843502
0.00738432
0.0073843197
0.0073843429
0.0073843828
0.0073844343
0.0068571406
0.0068570919
0.0068570483
0.006857018
0.0068569951
0.006856968
0.0068569645
0.0068569851
0.0068570202
0.0068570713
0.0061575528
0.0061575055
0.0061574712
0.0061574505
0.0061574345
0.006157406
0.0061573977
0.0061574111
0.0061574383
0.0061574866
0.0052508803
0.0052508469
0.0052508156
0.0052507983
0.0052507816
0.0052507478
0.0052507306
0.0052507326
0.0052507549
0.0052507975
0.0040945082
0.0040944767
0.0040944422
0.004094419
0.004094395
0.0040943503
0.004094319
0.0040943121
0.0040943311
0.0040943729
0.0026347141
0.0026346749
0.0026346339
0.0026345996
0.0026345636
0.0026345043
0.0026344639
0.0026344534
0.0026344757
0.0026345244
0.00080120477
0.00080115996
0.00080111208
0.00080106745
0.00080101741
0.00080095432
0.00080091507
0.0008009123
0.00080094911
0.00080100627
-0.001502137
-0.0015021847
-0.0015022409
-0.001502294
-0.0015023486
-0.0015024046
-0.0015024294
-0.0015024103
-0.0015023585
-0.0015022955
-0.0044129224
-0.0044129788
-0.0044130413
-0.0044130943
-0.0044131448
-0.0044131848
-0.0044131846
-0.0044131492
-0.0044130922
-0.0044130325
-0.0081353966
-0.0081354598
-0.0081355159
-0.0081355649
-0.008135602
-0.0081356186
-0.008135605
-0.0081355663
-0.0081355147
-0.0081354511
-0.012974197
-0.012974256
-0.012974298
-0.012974337
-0.012974359
-0.012974367
-0.012974351
-0.012974317
-0.01297426
-0.0129742
-0.019352668
-0.019352717
-0.019352748
-0.019352778
-0.019352798
-0.019352803
-0.019352787
-0.019352748
-0.019352695
-0.019352637
0.0058999052
0.0058998441
0.0058998258
0.0058998101
0.0058997992
0.0058997958
0.0058997885
0.0058997909
0.005899806
0.0058998319
0.0059243886
0.0059243528
0.0059243344
0.0059243152
0.0059243055
0.0059242942
0.0059242872
0.005924292
0.0059243119
0.0059243503
0.0059727801
0.0059727469
0.0059727205
0.0059727072
0.0059726861
0.0059726776
0.00597266
0.0059726612
0.0059726959
0.0059727302
0.0060436472
0.0060436125
0.0060435939
0.0060435691
0.0060435473
0.0060435217
0.0060434953
0.0060435022
0.0060435336
0.0060435612
0.0061348666
0.0061348381
0.00613481
0.0061347838
0.0061347483
0.0061347176
0.0061346957
0.0061346962
0.0061347208
0.0061347486
0.0062435537
0.0062435213
0.006243498
0.0062434593
0.0062434155
0.0062433826
0.0062433553
0.0062433538
0.0062433789
0.0062434062
0.0063659723
0.0063659436
0.0063659082
0.0063658662
0.0063658261
0.006365786
0.0063657548
0.0063657522
0.0063657783
0.0063658059
0.006497491
0.0064974599
0.0064974192
0.0064973872
0.0064973438
0.0064972983
0.0064972637
0.0064972594
0.0064972861
0.006497311
0.006632469
0.0066324218
0.0066323974
0.0066323642
0.0066323222
0.0066322788
0.0066322434
0.0066322405
0.0066322647
0.0066322882
0.0067641526
0.0067641154
0.0067640842
0.0067640532
0.0067640181
0.0067639789
0.006763948
0.0067639463
0.0067639689
0.006763992
0.0068845657
0.0068845298
0.0068844933
0.0068844732
0.0068844427
0.0068844094
0.0068843816
0.0068843791
0.0068843999
0.0068844224
0.0069842942
0.0069842424
0.0069842213
0.0069842037
0.0069841788
0.0069841515
0.0069841284
0.0069841274
0.0069841466
0.0069841714
0.0070523141
0.0070522715
0.0070522477
0.0070522285
0.0070522091
0.0070521895
0.0070521758
0.0070521788
0.0070522008
0.0070522281
0.0070758287
0.0070757876
0.0070757496
0.0070757295
0.0070757108
0.0070757
0.0070756955
0.0070757064
0.0070757343
0.0070757642
0.00703995
0.0070398899
0.0070398488
0.007039827
0.0070398089
0.0070398037
0.0070398071
0.0070398273
0.0070398621
0.0070398987
0.0069274203
0.0069273558
0.0069273151
0.0069272921
0.0069272751
0.0069272712
0.0069272794
0.0069273057
0.00692735
0.006927393
0.0067182969
0.0067182336
0.0067181965
0.0067181733
0.0067181558
0.0067181503
0.0067181577
0.0067181891
0.0067182412
0.0067182891
0.0063894722
0.0063894107
0.0063893797
0.0063893585
0.0063893389
0.0063893285
0.0063893333
0.006389367
0.0063894222
0.0063894743
0.0059141197
0.0059140663
0.005914037
0.0059140183
0.0059139952
0.00591398
0.0059139818
0.0059140111
0.0059140657
0.0059141183
0.0052609599
0.005260913
0.0052608848
0.005260868
0.0052608451
0.005260828
0.0052608226
0.0052608447
0.0052608941
0.0052609474
0.004393282
0.004393236
0.0043932115
0.0043931998
0.0043931797
0.0043931581
0.0043931433
0.004393157
0.0043932009
0.0043932535
0.0032675678
0.0032675192
0.0032674988
0.0032674896
0.0032674658
0.0032674352
0.0032674107
0.0032674177
0.0032674588
0.0032675086
0.0018314528
0.0018314026
0.0018313812
0.0018313636
0.0018313301
0.0018312885
0.0018312558
0.0018312611
0.0018313
0.001831351
2.073765e-05
2.0686729e-05
2.0654001e-05
2.0623208e-05
2.0580693e-05
2.0530694e-05
2.0497033e-05
2.0504209e-05
2.054671e-05
2.0606336e-05
-0.0022450404
-0.002245099
-0.0022451439
-0.0022451813
-0.0022452273
-0.0022452753
-0.0022453028
-0.0022452849
-0.0022452301
-0.0022451602
-0.0050690799
-0.0050691469
-0.0050691948
-0.0050692335
-0.0050692741
-0.0050693128
-0.0050693246
-0.0050692885
-0.0050692242
-0.0050691531
-0.0085861333
-0.0085862013
-0.0085862459
-0.0085862802
-0.0085863115
-0.008586335
-0.0085863271
-0.0085862835
-0.0085862207
-0.0085861549
-0.012972416
-0.012972475
-0.012972511
-0.01297254
-0.01297256
-0.012972569
-0.012972555
-0.012972513
-0.012972456
-0.012972386
-0.018450232
-0.01845028
-0.018450306
-0.018450328
-0.018450342
-0.018450348
-0.018450335
-0.018450295
-0.018450233
-0.018450169
-0.025268793
-0.025268834
-0.025268854
-0.025268873
-0.025268888
-0.025268892
-0.025268878
-0.025268833
-0.025268776
-0.025268718
0.0044408759
0.0044408188
0.0044408011
0.0044407917
0.0044408154
0.0044408262
0.0044408445
0.0044408749
0.004440919
0.0044409673
0.0044699298
0.0044698774
0.0044698653
0.0044698695
0.0044698918
0.0044699007
0.0044699129
0.0044699537
0.0044700044
0.0044700503
0.0045273651
0.0045273176
0.0045273069
0.0045273148
0.0045273178
0.0045273226
0.0045273342
0.0045273746
0.0045274271
0.0045274639
0.0046115821
0.004611551
0.0046115437
0.0046115285
0.0046115265
0.0046115248
0.0046115309
0.0046115649
0.0046116061
0.0046116411
0.0047202253
0.0047201906
0.0047201647
0.0047201458
0.0047201368
0.0047201247
0.0047201234
0.0047201468
0.0047201853
0.0047202251
0.0048499852
0.0048499493
0.0048499245
0.0048498977
0.0048498793
0.0048498583
0.0048498495
0.0048498731
0.0048499139
0.0048499545
0.00499667
0.0049966274
0.0049966044
0.0049965739
0.0049965491
0.004996517
0.0049965044
0.0049965271
0.0049965683
0.0049966087
0.0051550107
0.0051549736
0.0051549433
0.0051549146
0.0051548828
0.0051548437
0.0051548275
0.0051548468
0.0051548864
0.0051549241
0.0053185779
0.0053185372
0.0053185118
0.0053184815
0.0053184507
0.0053184113
0.0053183928
0.0053184095
0.005318445
0.0053184819
0.0054796507
0.0054796052
0.0054795837
0.0054795598
0.0054795314
0.0054794946
0.0054794768
0.0054794915
0.0054795242
0.0054795595
0.0056290334
0.0056289942
0.0056289751
0.0056289581
0.0056289318
0.0056288987
0.0056288805
0.0056288926
0.0056289212
0.0056289543
0.0057558461
0.0057558082
0.0057557982
0.0057557824
0.005755764
0.0057557366
0.0057557218
0.0057557329
0.0057557589
0.0057557928
0.0058473114
0.0058472724
0.0058472593
0.0058472499
0.0058472407
0.0058472226
0.0058472161
0.0058472298
0.0058472591
0.0058472934
0.0058884883
0.0058884418
0.0058884242
0.0058884191
0.0058884158
0.0058884082
0.0058884112
0.0058884341
0.0058884686
0.0058885025
0.0058619492
0.0058618929
0.0058618783
0.005861872
0.0058618752
0.0058618778
0.005861892
0.0058619245
0.0058619636
0.0058620006
0.0057474452
0.0057473879
0.0057473735
0.005747371
0.0057473805
0.00574739
0.0057474109
0.0057474485
0.0057474945
0.0057475347
0.0055214793
0.0055214238
0.0055214117
0.0055214145
0.005521425
0.0055214332
0.0055214534
0.0055214959
0.0055215472
0.0055215889
0.005156781
0.0051567331
0.0051567254
0.0051567269
0.0051567306
0.0051567313
0.0051567499
0.0051567935
0.0051568446
0.0051568881
0.0046217092
0.0046216686
0.0046216585
0.0046216538
0.0046216493
0.0046216449
0.0046216585
0.0046216947
0.0046217439
0.0046217903
0.0038794796
0.0038794344
0.0038794211
0.003879414
0.0038794087
0.0038794007
0.0038794029
0.0038794312
0.0038794796
0.003879531
0.002887226
0.0028871737
0.0028871642
0.0028871615
0.0028871586
0.0028871436
0.0028871374
0.0028871621
0.0028872124
0.0028872663
0.0015947993
0.0015947471
0.0015947418
0.0015947416
0.0015947355
0.0015947157
0.001594709
0.001594735
0.0015947873
0.0015948419
-5.6889733e-05
-5.6941006e-05
-5.6950165e-05
-5.6955002e-05
-5.6965522e-05
-5.6985358e-05
-5.6989305e-05
-5.6959822e-05
-5.6906451e-05
-5.6849543e-05
-0.0021380689
-0.0021381266
-0.0021381453
-0.0021381537
-0.0021381648
-0.0021381823
-0.0021381819
-0.0021381495
-0.0021380917
-0.0021380284
-0.00473291
-0.0047329774
-0.0047329984
-0.0047330035
-0.0047330124
-0.0047330239
-0.0047330183
-0.0047329789
-0.0047329148
-0.0047328458
-0.0079428708
-0.0079429359
-0.0079429505
-0.0079429511
-0.0079429558
-0.0079429618
-0.0079429491
-0.0079429042
-0.0079428397
-0.0079427714
-0.011889939
-0.011889992
-0.011890002
-0.01189
-0.011890002
-0.011890003
-0.011889988
-0.011889948
-0.011889887
-0.011889819
-0.016717697
-0.016717736
-0.016717742
-0.016717744
-0.016717746
-0.016717747
-0.016717738
-0.0167177
-0.016717638
-0.01671757
-0.022585314
-0.022585347
-0.022585352
-0.022585356
-0.022585362
-0.022585368
-0.022585357
-0.022585317
-0.022585259
-0.022585204
-0.029646102
-0.029646134
-0.029646137
-0.029646144
-0.029646153
-0.029646156
-0.029646143
-0.029646103
-0.029646058
-0.029646005
0.0029529079
0.002952847
0.0029528426
0.0029528585
0.0029528968
0.0029529258
0.0029529672
0.0029530224
0.0029530823
0.0029531264
0.0029872879
0.0029872399
0.0029872452
0.0029872721
0.0029872975
0.0029873302
0.002987377
0.0029874384
0.0029874921
0.0029875333
0.0030553237
0.0030552853
0.0030552857
0.0030553017
0.0030553201
0.0030553546
0.0030553989
0.0030554535
0.0030555077
0.0030555472
0.0031552845
0.003155254
0.0031552436
0.0031552421
0.0031552626
0.0031552904
0.0031553241
0.0031553718
0.003155421
0.0031554648
0.0032845757
0.0032845274
0.0032845119
0.0032845148
0.0032845222
0.0032845403
0.0032845714
0.003284611
0.0032846607
0.0032847127
0.0034396113
0.0034395685
0.0034395548
0.003439546
0.0034395429
0.0034395539
0.0034395773
0.0034396191
0.0034396756
0.0034397324
0.0036158163
0.0036157751
0.0036157567
0.0036157359
0.0036157242
0.0036157231
0.0036157445
0.0036157885
0.0036158479
0.0036159053
0.0038074115
0.0038073658
0.0038073385
0.003807317
0.0038072956
0.0038072889
0.0038073077
0.0038073476
0.0038074039
0.0038074584
0.0040073073
0.0040072561
0.0040072337
0.0040072109
0.004007188
0.004007178
0.0040071912
0.0040072245
0.0040072747
0.0040073286
0.0042069692
0.0042069259
0.0042069075
0.0042068871
0.0042068614
0.0042068495
0.0042068585
0.0042068849
0.0042069314
0.0042069838
0.0043962116
0.0043961724
0.0043961564
0.0043961396
0.0043961124
0.0043960993
0.0043961019
0.0043961231
0.0043961657
0.0043962146
0.0045629016
0.0045628611
0.0045628547
0.0045628392
0.0045628186
0.0045628044
0.0045628057
0.0045628256
0.0045628648
0.0045629114
0.0046927523
0.0046927158
0.0046927099
0.0046927018
0.004692688
0.0046926795
0.0046926866
0.004692708
0.0046927474
0.0046927907
0.0047690192
0.0047689767
0.0047689698
0.004768969
0.0047689615
0.0047689643
0.0047689789
0.0047690056
0.0047690464
0.0047690868
0.0047720954
0.0047720442
0.004772042
0.0047720468
0.0047720512
0.0047720649
0.004772088
0.0047721204
0.004772163
0.0047722051
0.0046791429
0.0046790956
0.0046790973
0.0046791116
0.004679125
0.0046791446
0.0046791731
0.004679209
0.0046792563
0.004679301
0.0044636237
0.0044635806
0.0044635873
0.0044636059
0.004463618
0.004463637
0.0044636658
0.0044637057
0.004463756
0.0044638011
0.0040947124
0.0040946729
0.0040946814
0.004094694
0.0040946989
0.0040947129
0.0040947407
0.0040947804
0.0040948285
0.0040948753
0.0035366868
0.0035366471
0.0035366515
0.0035366565
0.003536656
0.0035366653
0.0035366867
0.0035367193
0.0035367664
0.0035368189
0.0027482107
0.0027481647
0.0027481674
0.0027481724
0.0027481724
0.0027481761
0.002748187
0.0027482155
0.0027482667
0.0027483258
0.0016815237
0.0016814751
0.0016814813
0.0016814936
0.0016814968
0.0016814957
0.0016815038
0.0016815349
0.0016815931
0.001681655
0.00028149528
0.00028144601
0.0002814561
0.00028147527
0.00028148167
0.00028148526
0.00028149993
0.0002815383
0.00028160096
0.00028166392
-0.0015155317
-0.0015155855
-0.0015155732
-0.0015155502
-0.0015155373
-0.0015155238
-0.0015155013
-0.0015154558
-0.0015153904
-0.0015153278
-0.0037830124
-0.0037830701
-0.0037830551
-0.0037830273
-0.003783006
-0.0037829862
-0.0037829588
-0.0037829103
-0.0037828433
-0.003782778
-0.0066054498
-0.0066055047
-0.006605482
-0.0066054477
-0.006605422
-0.0066053992
-0.0066053718
-0.0066053229
-0.0066052559
-0.0066051901
-0.010079307
-0.010079349
-0.010079319
-0.010079283
-0.010079258
-0.010079239
-0.010079216
-0.010079172
-0.010079109
-0.010079044
-0.014312787
-0.014312817
-0.014312787
-0.014312757
-0.014312739
-0.014312729
-0.014312715
-0.014312678
-0.014312619
-0.014312557
-0.019422869
-0.019422891
-0.019422867
-0.01942285
-0.019422842
-0.019422842
-0.019422835
-0.0194228
-0.019422745
-0.01942269
-0.025527014
-0.025527037
-0.025527019
-0.025527011
-0.025527014
-0.025527018
-0.025527011
-0.025526981
-0.025526938
-0.025526892
-0.032726821
-0.032726841
-0.032726828
-0.032726827
-0.032726835
-0.032726838
-0.032726832
-0.032726808
-0.032726771
-0.032726721
0.0014307167
0.0014306662
0.0014306742
0.0014306879
0.0014307258
0.0014307677
0.0014308175
0.0014308759
0.001430929
0.0014309652
0.0014712699
0.0014712337
0.001471245
0.0014712621
0.0014712949
0.0014713369
0.0014713902
0.0014714528
0.0014715008
0.0014715381
0.0015516008
0.0015515653
0.001551564
0.0015515762
0.0015516031
0.0015516552
0.0015517096
0.0015517636
0.0015518173
0.0015518591
0.0016698676
0.0016698295
0.0016698257
0.0016698296
0.0016698674
0.0016699172
0.0016699632
0.001670018
0.0016700743
0.0016701241
0.0018233473
0.0018233037
0.001823296
0.0018233061
0.0018233341
0.0018233802
0.0018234285
0.0018234817
0.001823546
0.0018236069
0.0020082757
0.0020082303
0.0020082248
0.0020082207
0.0020082393
0.0020082822
0.0020083304
0.0020083943
0.0020084696
0.0020085351
0.0022197716
0.0022197275
0.0022197106
0.0022196931
0.0022197067
0.0022197431
0.0022197953
0.0022198633
0.0022199406
0.002220006
0.0024516861
0.0024516395
0.0024516116
0.0024515944
0.0024515999
0.0024516328
0.0024516808
0.002451742
0.0024518142
0.002451878
0.0026964555
0.0026964021
0.002696382
0.0026963612
0.0026963623
0.0026963886
0.0026964264
0.0026964781
0.0026965428
0.0026966072
0.0029449264
0.002944883
0.0029448647
0.0029448411
0.0029448353
0.0029448539
0.0029448826
0.0029449256
0.0029449852
0.002945047
0.0031861342
0.0031860977
0.0031860785
0.0031860535
0.0031860398
0.0031860503
0.0031860691
0.0031861056
0.0031861587
0.003186215
0.0034069827
0.0034069446
0.0034069333
0.0034069059
0.0034068896
0.0034068934
0.0034069078
0.0034069402
0.003406987
0.0034070399
0.0035919912
0.0035919574
0.0035919449
0.0035919221
0.0035919075
0.0035919124
0.0035919276
0.0035919579
0.0035920027
0.0035920534
0.0037229552
0.0037229173
0.0037229061
0.0037228905
0.0037228814
0.0037228924
0.0037229108
0.0037229431
0.0037229879
0.0037230381
0.0037785066
0.0037784616
0.0037784605
0.0037784529
0.0037784541
0.0037784726
0.0037784973
0.0037785334
0.0037785798
0.0037786342
0.0037336915
0.0037336512
0.0037336576
0.0037336589
0.0037336676
0.003733693
0.0037337231
0.0037337626
0.003733814
0.0037338724
0.0035594557
0.0035594184
0.0035594298
0.0035594332
0.0035594431
0.0035594706
0.0035595023
0.0035595462
0.0035596006
0.0035596591
0.0032220346
0.0032219993
0.0032220114
0.0032220103
0.0032220172
0.0032220415
0.0032220731
0.0032221168
0.0032221688
0.0032222281
0.0026823535
0.0026823212
0.0026823298
0.0026823258
0.0026823288
0.002682348
0.0026823741
0.0026824118
0.0026824634
0.002682528
0.0018953748
0.0018953413
0.0018953505
0.0018953497
0.0018953519
0.0018953648
0.0018953825
0.0018954178
0.0018954752
0.0018955438
0.00080941683
0.00080938115
0.00080939738
0.00080940531
0.00080941051
0.00080942042
0.00080943831
0.00080947827
0.00080954269
0.00080961276
-0.00063452334
-0.00063456043
-0.00063453505
-0.00063451631
-0.0006345038
-0.00063448567
-0.00063445878
-0.00063440956
-0.00063434138
-0.00063427105
-0.0025034195
-0.0025034565
-0.0025034221
-0.0025033933
-0.0025033686
-0.0025033373
-0.0025033012
-0.0025032448
-0.0025031741
-0.0025031073
-0.0048726827
-0.0048727147
-0.0048726725
-0.0048726342
-0.0048725983
-0.0048725604
-0.0048725209
-0.0048724626
-0.0048723936
-0.0048723273
-0.0078262277
-0.0078262499
-0.0078262
-0.0078261548
-0.0078261156
-0.0078260795
-0.0078260447
-0.0078259909
-0.0078259257
-0.0078258617
-0.01145577
-0.01145578
-0.011455727
-0.011455684
-0.011455651
-0.011455626
-0.011455601
-0.011455556
-0.011455495
-0.011455435
-0.015858718
-0.015858723
-0.015858677
-0.015858644
-0.015858624
-0.015858612
-0.015858599
-0.015858559
-0.015858509
-0.015858456
-0.021133719
-0.021133726
-0.021133692
-0.021133675
-0.021133669
-0.021133668
-0.021133657
-0.021133627
-0.021133589
-0.021133537
-0.027372838
-0.02737285
-0.027372825
-0.027372822
-0.027372828
-0.02737283
-0.027372826
-0.027372804
-0.02737277
-0.027372719
-0.034649949
-0.034649958
-0.034649944
-0.034649952
-0.034649964
-0.034649966
-0.034649965
-0.034649941
-0.034649905
-0.034649843
-0.00013183968
-0.00013188236
-0.00013188415
-0.00013188652
-0.00013185616
-0.00013182885
-0.0001317891
-0.00013174348
-0.00013170367
-0.00013167386
-8.423146e-05
-8.4265068e-05
-8.4272831e-05
-8.4270679e-05
-8.4244431e-05
-8.4212784e-05
-8.4166549e-05
-8.4119676e-05
-8.4085168e-05
-8.4050591e-05
1.0161619e-05
1.0117958e-05
1.0105281e-05
1.0114347e-05
1.0143243e-05
1.0191385e-05
1.0236315e-05
1.0280213e-05
1.0330493e-05
1.0371658e-05
0.00014946542
0.00014942446
0.00014942039
0.00014942668
0.0001494707
0.00014952166
0.00014956752
0.00014962277
0.00014968224
0.00014973146
0.00033091518
0.00033087226
0.00033085998
0.00033087303
0.00033091408
0.00033096953
0.00033102718
0.00033109216
0.00033116461
0.00033122147
0.00055062262
0.00055057677
0.0005505645
0.0005505666
0.00055060616
0.00055066713
0.00055073478
0.00055081528
0.00055089622
0.00055095551
0.00080355573
0.00080350805
0.00080348494
0.00080347897
0.00080351926
0.00080358024
0.00080365374
0.00080373605
0.00080381737
0.00080387663
0.0010833466
0.001083297
0.0010832652
0.0010832624
0.0010832977
0.001083355
0.0010834214
0.0010834959
0.0010835713
0.0010836273
0.0013821416
0.0013820882
0.0013820645
0.0013820563
0.0013820861
0.0013821338
0.0013821886
0.0013822517
0.0013823171
0.0013823701
0.0016904008
0.0016903573
0.0016903334
0.0016903188
0.0016903371
0.0016903747
0.001690418
0.0016904687
0.0016905251
0.0016905724
0.0019966462
0.001996611
0.0019965802
0.0019965577
0.0019965628
0.0019965886
0.0019966189
0.0019966594
0.0019967063
0.0019967482
0.0022871231
0.0022870838
0.0022870558
0.0022870232
0.00228702
0.0022870347
0.0022870577
0.0022870914
0.0022871326
0.0022871755
0.0025455091
0.0025454688
0.0025454391
0.0025454051
0.0025453984
0.0025454098
0.002545431
0.0025454625
0.0025455053
0.0025455528
0.0027525431
0.0027524999
0.0027524714
0.002752441
0.002752436
0.0027524507
0.0027524739
0.0027525088
0.0027525555
0.0027526082
0.0028855506
0.0028855039
0.0028854844
0.00288546
0.0028854636
0.0028854855