/*--------------------------------*- C++ -*----------------------------------*\
| =========                 |                                                 |
| \\      /  F ield         | OpenFOAM: The Open Source CFD Toolbox           |
|  \\    /   O peration     | Version:  v2106                                 |
|   \\  /    A nd           | Website:  www.openfoam.com                      |
|    \\/     M anipulation  |                                                 |
\*---------------------------------------------------------------------------*/
FoamFile
{
    version     2.0;
    format      ascii;
    arch        "LSB;label=32;scalar=64";
    class       volScalarField;
    location    "0";
    object      Tmode7;
}
// * * * * * * * * * * * * * * * * * * * * * * * * * * * * * * * * * * * * * //

dimensions      [0 0 0 0 0 0 0];

internalField   nonuniform List<scalar> 
2000
(
-0.0028346358
-0.0052234442
0.024296858
0.035786891
0.042747455
0.042110546
0.036015605
0.025826757
0.022669952
0.015434879
-0.0052234327
0.0072374772
0.033242816
0.038727257
0.038065479
0.036078584
0.029133428
0.025293936
0.021952027
0.0085268083
0.024296809
0.033242856
0.043452284
0.038592119
0.032310721
0.038581474
0.032247134
0.027321185
0.020417233
0.0080846106
0.035786928
0.038727304
0.03859209
0.04073909
0.035649198
0.037463865
0.036350451
0.028723919
0.015624293
0.0020386215
0.042747486
0.038065478
0.032310709
0.035649183
0.0406669
0.036973656
0.031067409
0.023358819
0.0080690296
0.0013680211
0.042110601
0.03607856
0.038581503
0.03746391
0.036973643
0.027203856
0.020773803
0.017812278
0.0058818725
0.004849972
0.036015636
0.029133436
0.032247164
0.036350483
0.031067448
0.020773816
0.013058776
0.010822582
0.0082395849
-0.0010045728
0.025826784
0.025294
0.027321284
0.028723935
0.023358829
0.01781227
0.010822543
0.0080153793
0.0087882709
4.1525032e-05
0.022670088
0.021952122
0.020417301
0.015624286
0.0080689866
0.0058818587
0.00823963
0.0087883036
0.0071826052
-0.0069586148
0.015435005
0.0085269285
0.0080846482
0.0020386652
0.0013680704
0.0048499841
-0.0010045427
4.1474109e-05
-0.0069585838
-0.019531645
0.024199259
0.0164649
0.029072142
0.031305314
0.034675159
0.030379209
0.029701393
0.021854434
0.0087482726
0.0025412596
0.016464927
0.014966605
0.027561272
0.030859207
0.031714588
0.027199987
0.021206761
0.011710034
0.00048211412
-0.0055153488
0.029072105
0.027561264
0.03750939
0.036002735
0.033606568
0.029784222
0.021435259
0.011558563
-0.0010518206
-0.0058818078
0.031305297
0.030859224
0.03600273
0.035233034
0.029526452
0.021742709
0.015046542
0.0077202905
-0.00075346266
-0.0067668476
0.034675162
0.031714602
0.033606571
0.029526448
0.025510133
0.01673936
0.0073459996
0.0021765343
-0.0045314668
-0.0077640438
0.030379245
0.027199992
0.029784227
0.021742723
0.016739349
0.0071684442
-0.0015931619
-0.0025600921
-0.0082122054
-0.0080597122
0.029701434
0.021206775
0.021435256
0.015046555
0.0073460118
-0.0015931524
-0.0069856236
-0.0079523132
-0.010574198
-0.014464982
0.021854443
0.011710049
0.011558592
0.0077203148
0.0021765604
-0.002560078
-0.0079523263
-0.012313294
-0.016951986
-0.01817556
0.008748313
0.00048215678
-0.0010517706
-0.0007534392
-0.0045314654
-0.0082122202
-0.0105742
-0.016951973
-0.021532104
-0.022782301
0.0025413114
-0.0055152871
-0.0058817705
-0.0067668327
-0.0077640313
-0.0080597171
-0.014464973
-0.018175576
-0.022782297
-0.023627333
0.019792975
0.016403319
0.022570471
0.020369181
0.015975025
0.010006945
0.0061814377
-0.0013705979
-0.013716616
-0.01882213
0.01640334
0.016663623
0.018125911
0.018022686
0.012972864
0.0067208778
0.0029083527
-0.0087971784
-0.022735764
-0.025630782
0.022570459
0.018125904
0.020483827
0.017707991
0.013542989
0.0082152561
0.00064467907
-0.011009516
-0.025405964
-0.025615329
0.020369157
0.018022683
0.017707988
0.016659515
0.010936069
0.0016167466
-0.0062731926
-0.015681726
-0.024183316
-0.02509437
0.015975004
0.012972858
0.013542986
0.010936063
0.00178579
-0.007793051
-0.015637733
-0.021269834
-0.026450361
-0.025892204
0.010006945
0.0067208771
0.0082152533
0.0016167446
-0.0077930585
-0.01781433
-0.023071316
-0.024151714
-0.029063181
-0.027174844
0.006181461
0.0029083582
0.00064467195
-0.0062731937
-0.015637739
-0.023071314
-0.025847223
-0.027821451
-0.030905895
-0.030490473
-0.0013705795
-0.0087971709
-0.011009517
-0.015681727
-0.021269831
-0.024151707
-0.027821459
-0.030048999
-0.034667894
-0.032960922
-0.013716593
-0.022735754
-0.025405953
-0.02418331
-0.026450363
-0.029063189
-0.030905908
-0.034667894
-0.038216717
-0.035854934
-0.018822112
-0.025630766
-0.025615322
-0.025094372
-0.025892206
-0.027174856
-0.030490476
-0.032960927
-0.035854936
-0.030101098
0.016424782
0.010577066
0.015546934
0.0087045055
0.004530359
-0.0027679888
-0.0091618387
-0.017568915
-0.02841237
-0.032087796
0.010577072
0.0076870141
0.009313205
0.0040628747
-0.001608662
-0.0073169712
-0.013552042
-0.024841367
-0.036060576
-0.036404051
0.01554693
0.0093132027
0.011339099
0.0050508058
-0.00055596416
-0.0066410199
-0.014420268
-0.024614365
-0.036595284
-0.035609835
0.0087044907
0.0040628655
0.005050803
0.00050539833
-0.0061870945
-0.01581175
-0.02096447
-0.028196569
-0.036016045
-0.035563462
0.0045303402
-0.00160868
-0.00055598048
-0.0061871024
-0.014925397
-0.024138563
-0.028355589
-0.032411732
-0.037766917
-0.036317768
-0.0027680126
-0.0073169886
-0.0066410372
-0.015811762
-0.024138569
-0.031660697
-0.033936102
-0.034429108
-0.039172491
-0.036677292
-0.009161852
-0.01355206
-0.014420285
-0.020964483
-0.028355594
-0.033936107
-0.03439966
-0.035858189
-0.038365584
-0.036429548
-0.017568923
-0.02484138
-0.024614378
-0.028196585
-0.032411741
-0.034429113
-0.035858192
-0.034862452
-0.039031595
-0.03630978
-0.02841237
-0.036060589
-0.036595296
-0.036016058
-0.037766928
-0.0391725
-0.038365592
-0.039031599
-0.040476896
-0.037517208
-0.032087802
-0.036404062
-0.035609852
-0.035563481
-0.036317782
-0.036677305
-0.036429557
-0.036309785
-0.037517213
-0.030239545
0.014553665
0.0054523416
0.0068647035
0.0015763043
-0.0025368053
-0.010601438
-0.015920972
-0.023461793
-0.032410254
-0.034571049
0.0054523377
0.0038030464
0.0018050169
-0.0023615391
-0.0079428472
-0.015265144
-0.021229554
-0.030227224
-0.038538709
-0.036398098
0.006864695
0.0018050117
0.0035140341
-0.0020138549
-0.0074492047
-0.015120721
-0.021149088
-0.027375027
-0.036585202
-0.034978342
0.0015762898
-0.0023615553
-0.0020138597
-0.0066048978
-0.013364592
-0.022568013
-0.024986902
-0.029124303
-0.036340263
-0.035332366
-0.0025368293
-0.0079428713
-0.0074492267
-0.013364601
-0.021844699
-0.028659501
-0.030031981
-0.032217296
-0.037616815
-0.035243119
-0.010601479
-0.01526518
-0.015120751
-0.022568028
-0.028659509
-0.03379758
-0.033992793
-0.033043703
-0.036813501
-0.033327031
-0.015921012
-0.021229593
-0.021149123
-0.024986924
-0.030031992
-0.033992801
-0.032550549
-0.031965464
-0.032934356
-0.030521174
-0.023461833
-0.030227263
-0.02737506
-0.029124334
-0.032217319
-0.033043712
-0.031965469
-0.027715047
-0.031291509
-0.028606363
-0.032410282
-0.038538742
-0.03658523
-0.036340293
-0.037616847
-0.036813514
-0.032934363
-0.031291515
-0.032285613
-0.029297357
-0.034571087
-0.036398138
-0.034978375
-0.035332396
-0.035243145
-0.033327043
-0.030521186
-0.028606369
-0.029297363
-0.020225275
0.013693899
0.0030516433
0.0065566291
0.0028428104
-0.0021104472
-0.0092762598
-0.014347559
-0.019714477
-0.025503216
-0.026283685
0.0030516364
0.0016982669
0.0032143279
0.00089591855
-0.0060398006
-0.012818249
-0.0172752
-0.02389641
-0.029510086
-0.025864279
0.0065566164
0.0032143171
0.0059810229
0.0019453946
-0.0043682477
-0.010635847
-0.014918822
-0.019471683
-0.026489386
-0.023549125
0.0028427885
0.00089589534
0.0019453826
-0.0022798945
-0.007882064
-0.015299882
-0.016781701
-0.020107911
-0.025750585
-0.023768887
-0.0021104852
-0.0060398363
-0.0043682739
-0.0078820804
-0.014574307
-0.019136271
-0.020457133
-0.021529637
-0.025957084
-0.023022833
-0.009276312
-0.012818293
-0.010635882
-0.015299903
-0.019136278
-0.023684047
-0.022701899
-0.020191308
-0.023197061
-0.02030802
-0.01434761
-0.017275249
-0.014918862
-0.016781728
-0.020457148
-0.02270191
-0.019343991
-0.018192869
-0.018905184
-0.016783167
-0.019714534
-0.023896469
-0.019471737
-0.020107957
-0.021529665
-0.020191328
-0.018192874
-0.013962539
-0.016400635
-0.013883731
-0.025503265
-0.029510138
-0.026489436
-0.025750624
-0.025957121
-0.023197089
-0.0189052
-0.016400646
-0.017107961
-0.014151194
-0.02628374
-0.025864334
-0.023549179
-0.023768928
-0.02302287
-0.020308047
-0.016783186
-0.013883743
-0.014151198
-0.0040533164
0.014901667
0.009206768
0.014852193
0.011008954
0.0079241522
0.0012270859
-0.0020444602
-0.00579356
-0.0096083808
-0.0095563329
0.0092067626
0.0083837486
0.013535397
0.0113122
0.0059852295
0.00046211632
-0.0016241532
-0.0072986467
-0.01140448
-0.0070433341
0.01485218
0.013535383
0.01874616
0.01509413
0.010474023
0.005793015
0.0026300559
-0.001799417
-0.007293772
-0.0042738563
0.011008931
0.011312177
0.015094117
0.012637297
0.0090395131
0.0026496086
0.0011748267
-0.0020579267
-0.0067333154
-0.0050255265
0.0079241144
0.0059851931
0.010473996
0.009039496
0.0034072126
-0.00060729855
-0.002115662
-0.0026008025
-0.007041497
-0.0057239067
0.0012270326
0.00046206536
0.0057929711
0.0026495744
-0.00060732079
-0.0049382792
-0.0033652068
-0.00074554938
-0.0049535349
-0.0043380694
-0.002044523
-0.0016242194
0.0026299995
0.0011747834
-0.0021156924
-0.0033652175
5.3265049e-05
0.00011750611
-0.002198561
-0.0013729925
-0.0057936308
-0.0072987233
-0.0017994851
-0.0020579858
-0.0026008391
-0.00074557194
0.00011749287
0.0019268924
-0.00038099328
0.00076624759
-0.0096084536
-0.011404555
-0.0072938476
-0.0067333781
-0.0070415403
-0.0049535621
-0.0021985807
-0.00038100359
-0.00046451895
-0.00028305795
-0.0095564088
-0.0070434088
-0.0042739301
-0.0050255905
-0.0057239613
-0.0043381117
-0.0013730192
0.00076623509
-0.00028306118
0.0057024085
0.023052103
0.019650318
0.025772327
0.024075181
0.022022577
0.0172801
0.01569976
0.012286681
0.0089695008
0.0088622755
0.019650314
0.024217125
0.027098161
0.026221633
0.022657589
0.019460956
0.017631119
0.011648349
0.0078487078
0.01231553
0.025772313
0.02709815
0.032167822
0.030787282
0.028501826
0.024797914
0.021419048
0.01734204
0.012996482
0.014430261
0.02407515
0.026221609
0.030787266
0.030550058
0.027250629
0.020989391
0.019991227
0.017643147
0.012494942
0.012030583
0.022022533
0.022657548
0.028501792
0.027250608
0.021284157
0.017532417
0.017206528
0.016474755
0.0096883318
0.0086525894
0.01728004
0.019460905
0.024797875
0.020989354
0.0175324
0.014413654
0.015624171
0.01567334
0.0093612614
0.0081929541
0.015699683
0.017631042
0.02141898
0.019991176
0.017206488
0.015624151
0.015961681
0.01456506
0.0099427575
0.0086095352
0.012286596
0.011648265
0.017341963
0.017643085
0.016474712
0.015673308
0.014565048
0.014222373
0.0093167265
0.0092177892
0.0089694174
0.0078486264
0.0129964
0.012494875
0.009688285
0.0093612265
0.0099427392
0.0093167173
0.0070250934
0.0050620793
0.0088621843
0.012315442
0.014430177
0.012030519
0.0086525387
0.0081929157
0.0086095099
0.0092177763
0.0050620742
0.0075179898
0.032073097
0.027640958
0.033180229
0.033326179
0.032956571
0.030833347
0.028818231
0.024779497
0.021728954
0.021078414
0.02764095
0.030296791
0.033731122
0.035385949
0.033988434
0.031646169
0.029283061
0.023339232
0.019301357
0.023646019
0.033180213
0.03373111
0.039247619
0.039757278
0.038587972
0.035654472
0.032011365
0.028118168
0.023809816
0.024492717
0.033326149
0.035385927
0.039757265
0.039715094
0.036650339
0.031469032
0.030890838
0.02804394
0.021602693
0.019864978
0.032956527
0.033988392
0.038587936
0.036650327
0.030912081
0.028162135
0.027176013
0.024616755
0.015475544
0.013865425
0.030833276
0.031646106
0.03565442
0.031468991
0.02816212
0.02432794
0.023557975
0.019973265
0.011884622
0.011134049
0.028818152
0.029282984
0.032011297
0.030890788
0.027175983
0.023557964
0.019763745
0.016714043
0.0098946523
0.0073856677
0.024779398
0.023339139
0.028118084
0.028043872
0.024616709
0.019973236
0.016714029
0.013801937
0.0062143805
0.0046311141
0.021728854
0.019301262
0.02380973
0.021602617
0.015475491
0.011884581
0.009894631
0.0062143704
8.5577567e-06
-0.003587677
0.021078316
0.023645922
0.024492626
0.019864902
0.013865367
0.011134007
0.0073856411
0.0046311006
-0.0035876826
0.00032834804
0.028801489
0.025256923
0.029667939
0.030431944
0.032477533
0.032488896
0.030115875
0.026784583
0.024684093
0.024214823
0.025256916
0.023402691
0.026553663
0.029585797
0.031295895
0.029753848
0.027920029
0.023449995
0.020206727
0.025358692
0.029667921
0.026553648
0.031569671
0.033004069
0.032932659
0.032045126
0.029607033
0.02634235
0.022530772
0.023985927
0.030431909
0.029585771
0.033004054
0.032545402
0.031156012
0.028393991
0.027996087
0.024294273
0.017883752
0.016709657
0.032477491
0.031295854
0.032932627
0.031156002
0.026746255
0.024973025
0.02225008
0.017971073
0.0088412823
0.007802799
0.032488829
0.029753789
0.032045077
0.028393961
0.024973
0.019334214
0.0162184
0.010023575
0.0017080003
0.0011071268
0.030115795
0.027919954
0.029606961
0.027996041
0.022250047
0.01621839
0.0097299046
0.0046913762
-0.0034817558
-0.0059957892
0.026784489
0.023449907
0.026342267
0.024294211
0.017971023
0.01002355
0.0046913631
-0.0016189851
-0.010458805
-0.011643616
0.024683987
0.020206631
0.02253068
0.01788368
0.0088412261
0.0017079577
-0.0034817789
-0.010458818
-0.017586983
-0.020477909
0.024214715
0.02535859
0.023985833
0.016709581
0.0078027368
0.0011070812
-0.0059958156
-0.01164363
-0.020477915
-0.016563958
0.018145368
0.012124175
0.015814065
0.017118655
0.021202608
0.022546666
0.021799487
0.02074243
0.020614667
0.021308918
0.012124171
0.010213668
0.011028227
0.013703692
0.016710961
0.017754059
0.017824439
0.016076576
0.014835
0.021056737
0.015814052
0.011028215
0.013637836
0.015137117
0.017440488
0.019368323
0.018643072
0.016533388
0.014417126
0.016606546
0.017118628
0.013703674
0.015137108
0.014784066
0.016081513
0.015293791
0.015044707
0.012004165
0.0077351128
0.0070996049
0.021202559
0.016710916
0.017440458
0.016081497
0.012520166
0.010858391
0.0077115578
0.0038376833
-0.0035135914
-0.0044042956
0.022546605
0.017753999
0.019368274
0.01529376
0.010858375
0.0046441261
0.00088366987
-0.00562444
-0.01301036
-0.013527124
0.021799413
0.017824374
0.018643003
0.01504465
0.0077115204
0.00088365166
-0.0058893386
-0.011988373
-0.019713188
-0.021250227
0.02074234
0.016076494
0.016533308
0.012004098
0.0038376293
-0.0056244762
-0.01198839
-0.018958947
-0.027700214
-0.026187723
0.020614568
0.014834911
0.014417042
0.007735036
-0.0035136449
-0.013010403
-0.019713219
-0.027700231
-0.033233732
-0.031739644
0.021308817
0.021056636
0.016606451
0.0070995207
-0.0044043545
-0.013527171
-0.021250261
-0.026187741
-0.031739654
-0.025602969
0.0042553659
-0.0050524828
-0.0030758359
-0.0020506578
0.0033895288
0.0066596969
0.0083717154
0.010361037
0.013587067
0.015986677
-0.0050524852
-0.010647525
-0.010190134
-0.0072186663
-0.0021758793
0.0013766726
0.0037255249
0.0053988691
0.0076301076
0.014140525
-0.0030758511
-0.010190154
-0.0076388176
-0.0057120374
-0.00071789853
0.0027368797
0.0037534758
0.0044000371
0.0048530871
0.0071014825
-0.0020506799
-0.0072186867
-0.0057120545
-0.0046785885
-0.002331541
-0.0019632407
-0.0012529651
-0.0017518563
-0.0029670654
-0.0036974514
0.003389486
-0.0021759184
-0.00071792908
-0.002331563
-0.0056830596
-0.0072317293
-0.00924177
-0.010757338
-0.015759295
-0.016319741
0.0066596348
0.0013766114
0.0027368293
-0.0019632753
-0.0072317416
-0.012384944
-0.015317214
-0.020353908
-0.025514141
-0.024616384
0.0083716406
0.0037254551
0.0037534097
-0.0012530239
-0.0092418069
-0.015317235
-0.021155519
-0.02603049
-0.029708487
-0.029996714
0.010360958
0.0053987903
0.0043999612
-0.0017519199
-0.010757388
-0.020353942
-0.026030501
-0.030102383
-0.034517444
-0.032650995
0.013586979
0.0076300173
0.004853006
-0.0029671431
-0.015759352
-0.025514181
-0.029708511
-0.034517457
-0.036472488
-0.035919117
0.015986597
0.014140441
0.0071014067
-0.0036975278
-0.016319797
-0.024616427
-0.029996749
-0.032651011
-0.035919125
-0.0273229
-0.016263984
-0.024993923
-0.025263393
-0.022774576
-0.016359007
-0.010055359
-0.0058175008
-0.00063329676
0.0057212335
0.0092994469
-0.024993925
-0.033415295
-0.03320324
-0.028542364
-0.020705989
-0.015406259
-0.010968549
-0.0061020602
-0.0004786189
0.0058683367
-0.025263403
-0.033203254
-0.030077075
-0.025936107
-0.019033615
-0.014480631
-0.011308402
-0.0071139375
-0.0046215065
-0.0016785419
-0.022774605
-0.028542382
-0.025936124
-0.022735729
-0.020808721
-0.018305832
-0.01549983
-0.013275424
-0.011808571
-0.011071045
-0.016359048
-0.020706021
-0.019033645
-0.020808741
-0.022624202
-0.022583865
-0.022935183
-0.021858215
-0.023364815
-0.021530401
-0.010055415
-0.015406309
-0.014480674
-0.018305863
-0.022583882
-0.025672883
-0.026915803
-0.02935662
-0.030383806
-0.026247265
-0.0058175688
-0.010968613
-0.011308457
-0.015499882
-0.022935215
-0.026915819
-0.030434751
-0.031837799
-0.031640508
-0.028171285
-0.00063336638
-0.0061021302
-0.0071140086
-0.013275483
-0.021858257
-0.029356649
-0.031837809
-0.031743982
-0.032180528
-0.027844954
0.0057211615
-0.00047869131
-0.0046215726
-0.011808632
-0.023364866
-0.030383843
-0.031640524
-0.032180537
-0.031511894
-0.030613516
0.0092993732
0.0058682642
-0.0016786092
-0.011071105
-0.021530447
-0.026247298
-0.028171314
-0.027844972
-0.030613528
-0.023384181
-0.029773611
-0.040126264
-0.039673803
-0.034541013
-0.02763548
-0.020919148
-0.01576144
-0.0086671901
-0.001424874
0.0027906523
-0.040126267
-0.048024276
-0.046246858
-0.040048045
-0.03246226
-0.026480455
-0.020506942
-0.014398223
-0.00710046
-0.00017569728
-0.039673812
-0.046246867
-0.042042069
-0.037194336
-0.030206397
-0.024841452
-0.019650448
-0.013404673
-0.0097848921
-0.0052672681
-0.034541046
-0.040048069
-0.037194352
-0.03274228
-0.031610483
-0.026434278
-0.021514288
-0.017127308
-0.013664226
-0.010521833
-0.027635521
-0.03246229
-0.030206425
-0.031610494
-0.031471575
-0.028676119
-0.026739745
-0.023080104
-0.020867831
-0.015767974
-0.0209192
-0.0264805
-0.024841495
-0.026434302
-0.028676133
-0.028849319
-0.026946523
-0.02567684
-0.022598448
-0.016103778
-0.015761497
-0.020506993
-0.019650491
-0.021514325
-0.026739775
-0.026946536
-0.026644176
-0.023392342
-0.020022414
-0.015626575
-0.0086672537
-0.014398276
-0.013404726
-0.017127357
-0.023080144
-0.025676865
-0.023392357
-0.019399182
-0.018580731
-0.013089898
-0.0014249354
-0.0071005184
-0.0097849471
-0.01366427
-0.020867866
-0.022598477
-0.020022429
-0.018580734
-0.019327323
-0.014568846
0.0027905955
-0.00017574661
-0.0052673205
-0.010521884
-0.015768016
-0.016103806
-0.015626593
-0.013089909
-0.01456886
-0.005585591
-0.030330817
-0.04020078
-0.036746062
-0.031249389
-0.025465181
-0.020825589
-0.016735751
-0.0099244115
-0.0042824218
0.00027466771
-0.040200784
-0.046367352
-0.041282571
-0.035062586
-0.030417005
-0.025512941
-0.019368863
-0.014434489
-0.0081437044
-0.00051771077
-0.036746077
-0.041282576
-0.035229375
-0.032729679
-0.027278839
-0.021938401
-0.016530956
-0.01078041
-0.0071329697
-0.0013128601
-0.031249416
-0.035062606
-0.032729688
-0.028096431
-0.027379093
-0.022042895
-0.016710024
-0.010917264
-0.005870555
-0.001231462
-0.02546522
-0.030417036
-0.027278856
-0.027379104
-0.027373716
-0.02406943
-0.019803863
-0.012738611
-0.007424707
-0.0018457277
-0.020825632
-0.025512978
-0.02193843
-0.02204291
-0.024069437
-0.021906756
-0.016319902
-0.011359553
-0.0058177401
0.0010605796
-0.016735792
-0.019368904
-0.016530991
-0.016710047
-0.019803884
-0.016319909
-0.011437445
-0.0055195295
-0.00017686933
0.0038353082
-0.0099244581
-0.014434528
-0.010780447
-0.010917298
-0.012738643
-0.011359566
-0.0055195343
0.00026885083
0.0028473527
0.006812212
-0.0042824617
-0.0081437465
-0.0071330138
-0.0058705873
-0.0074247336
-0.0058177629
-0.00017688306
0.0028473519
0.0046918052
0.0069525975
0.00027462229
-0.00051775384
-0.0013129043
-0.0012314973
-0.001845756
0.0010605565
0.0038352956
0.0068122061
0.006952587
0.016630717
-0.018516284
-0.021810244
-0.016998475
-0.012848351
-0.010428978
-0.0085232124
-0.0079329961
-0.0039825166
-0.0015397362
0.0028763826
-0.02181024
-0.024368698
-0.018930457
-0.014376467
-0.013371638
-0.011544331
-0.008581053
-0.0061286471
-0.0022889599
0.0049896912
-0.016998482
-0.018930468
-0.012090855
-0.012147356
-0.0098642928
-0.0073054439
-0.0036799238
0.0010666706
0.0031120488
0.008393906
-0.012848369
-0.014376486
-0.012147368
-0.0092284934
-0.010218966
-0.0069705832
-0.0019787666
0.0042245622
0.0079487654
0.011661932
-0.010429009
-0.013371663
-0.0098642993
-0.010218963
-0.011546861
-0.008921285
-0.0029489664
0.0054136137
0.0093642433
0.01382521
-0.0085232517
-0.011544358
-0.0073054653
-0.0069705941
-0.0089212913
-0.0048509387
0.0021940297
0.0087497454
0.012908827
0.018610313
-0.0079330282
-0.0085810726
-0.0036799524
-0.0019787883
-0.0029489809
0.0021940234
0.0082188399
0.014985278
0.018277511
0.022115336
-0.0039825522
-0.0061286793
0.0010666388
0.0042245369
0.0054135884
0.0087497274
0.014985277
0.021476042
0.022995751
0.02704877
-0.0015397648
-0.0022889868
0.0031120144
0.0079487337
0.0093642218
0.0129088
0.018277492
0.022995751
0.026550068
0.027524084
0.0028763589
0.0049896711
0.0083938781
0.011661901
0.01382519
0.018610288
0.022115323
0.027048769
0.027524078
0.032805269
0.0080996002
0.0092346113
0.013283856
0.014189094
0.012580174
0.0098420941
0.0050832368
0.0044127698
0.0034204153
0.0063394114
0.0092346051
0.0091466709
0.012234036
0.014240424
0.011385113
0.0073640765
0.0050654218
0.0036600659
0.0041349237
0.0090984323
0.013283845
0.012234022
0.017157459
0.015243542
0.012811103
0.0097195467
0.0098612344
0.012039283
0.011019624
0.013679194
0.014189074
0.014240409
0.01524353
0.014954954
0.0096134554
0.009723374
0.012923097
0.016919422
0.017392078
0.017193388
0.012580149
0.011385084
0.012811089
0.0096134458
0.0072608647
0.0085556735
0.012738094
0.01916998
0.019751344
0.020424568
0.009842068
0.0073640563
0.0097195402
0.0097233707
0.0085556586
0.011970518
0.016858422
0.021193644
0.022664415
0.025176984
0.0050832064
0.0050654067
0.0098612097
0.012923078
0.012738069
0.016858417
0.02133901
0.027062856
0.028675482
0.029512842
0.0044127524
0.0036600437
0.012039252
0.016919401
0.019169958
0.021193628
0.027062855
0.033693161
0.034047354
0.034961465
0.0034203971
0.0041349083
0.011019605
0.017392055
0.019751333
0.022664393
0.028675453
0.03404736
0.032836548
0.030464984
0.006339396
0.0090984269
0.013679181
0.017193358
0.020424556
0.025176965
0.029512812
0.034961467
0.030464995
0.031607492
0.036807723
0.038646375
0.042277243
0.039199558
0.033666843
0.0243616
0.013899972
0.0081935711
0.0037507722
0.0038847988
0.03864637
0.040514277
0.042295641
0.039927419
0.032303345
0.021299619
0.014278903
0.0079069562
0.0042707011
0.0060647171
0.042277233
0.042295623
0.043338687
0.036286402
0.029504095
0.020759848
0.017080875
0.014900585
0.0093640628
0.0096715079
0.03919953
0.039927419
0.036286394
0.030604442
0.022159734
0.017958613
0.017889193
0.016483312
0.013320371
0.011666539
0.033666824
0.032303326
0.029504082
0.02215971
0.017340078
0.015480801
0.016292359
0.016716048
0.01293074
0.012789922
0.024361578
0.021299585
0.020759837
0.017958624
0.015480809
0.015672289
0.01775785
0.017225647
0.015905375
0.015564113
0.013899936
0.014278904
0.017080866
0.017889191
0.016292335
0.017757841
0.019259246
0.020094603
0.022444177
0.020954611
0.0081935592
0.007906958
0.014900566
0.016483291
0.016716012
0.017225629
0.020094608
0.022634634
0.023277632
0.02293351
0.003750764
0.0042706929
0.0093640532
0.013320342
0.012930731
0.015905374
0.022444136
0.023277631
0.020849859
0.015728837
0.003884796
0.0060647354
0.0096715231
0.011666491
0.012789893
0.015564117
0.020954556
0.022933488
0.015728858
0.014272999
0.051751722
0.056380261
0.058471575
0.049922303
0.039345702
0.026286252
0.01222446
0.0025726743
-0.0064670886
-0.010118642
0.056380252
0.059294846
0.058998808
0.052998753
0.040207805
0.025543604
0.01544315
0.0042107144
-0.0044205825
-0.0062391867
0.058471577
0.058998764
0.058703289
0.046460112
0.035186099
0.022454032
0.013579141
0.0059824926
-0.0047048377
-0.00402509
0.049922249
0.052998753
0.046460098
0.034660026
0.023262204
0.014064458
0.0079306641
0.0022977459
-0.0064551274
-0.0057307691
0.039345671
0.040207816
0.035186113
0.023262148
0.014651481
0.0071278383
0.002112535
-0.00033870877
-0.0080575991
-0.007377376
0.026286265
0.025543548
0.022453972
0.014064429
0.0071278592
0.0026287649
0.00020322406
-0.0011286568
-0.0063893119
-0.0045040018
0.012224403
0.015443149
0.013579118
0.0079306971
0.0021125331
0.0002032062
-0.0020601176
-0.0020799134
-0.0061429303
-0.006192963
0.0025726626
0.0042107453
0.0059824852
0.0022977577
-0.00033877367
-0.0011287218
-0.0020798764
2.298891e-05
-0.0068546889
-0.0069373668
-0.0064670881
-0.0044205773
-0.0047048378
-0.0064551532
-0.0080576312
-0.0063893174
-0.006142956
-0.0068546896
-0.017108824
-0.01756036
-0.010118675
-0.0062391761
-0.0040250146
-0.0057307955
-0.0073774447
-0.0045039493
-0.0061930052
-0.0069374248
-0.017560337
-0.015786565
0.041374037
0.053119361
0.054556753
0.036573072
0.013389237
-0.00024360309
-0.011559781
-0.024622111
-0.04094199
-0.050822378
0.053119328
0.063113824
0.057022036
0.039040747
0.017323791
0.0032049478
-0.0067489654
-0.021661221
-0.034729823
-0.046782554
0.054556822
0.057021953
0.051795572
0.031727612
0.015490363
0.00080868292
-0.012453419
-0.025553612
-0.039080104
-0.045982098
0.036572986
0.039040714
0.031727553
0.016883234
0.0024084307
-0.0092488228
-0.018018817
-0.031412768
-0.043038071
-0.044785265
0.013389103
0.017323827
0.015490528
0.0024083657
-0.012867264
-0.025596411
-0.031776618
-0.040608331
-0.046580429
-0.040780175
-0.00024351627
0.0032049442
0.00080864969
-0.009248981
-0.025596411
-0.040544768
-0.044013127
-0.048157958
-0.048583316
-0.042323816
-0.011559873
-0.0067489651
-0.012453507
-0.018018833
-0.031776539
-0.044013078
-0.042616579
-0.043762298
-0.045220597
-0.047864564
-0.024622215
-0.021661168
-0.025553659
-0.03141267
-0.040608334
-0.048158139
-0.043762248
-0.042742071
-0.046242134
-0.050272579
-0.040942039
-0.034729831
-0.039080184
-0.043038077
-0.046580444
-0.048583416
-0.045220632
-0.046242084
-0.061771788
-0.068079775
-0.05082253
-0.046782732
-0.045982084
-0.04478527
-0.040780358
-0.042323781
-0.047864568
-0.050272664
-0.068079759
-0.072281681
)
;

boundaryField
{
    block1_in
    {
        type            calculated;
        value           nonuniform List<scalar> 
100
(
591058.06
201915.19
201915.21
201915.22
201915.24
201915.25
201915.26
201915.27
201915.28
201915.28
201915.14
201915.2
201915.21
201915.23
201915.24
201915.25
201915.27
201915.28
201915.29
201915.29
201915.15
201915.21
201915.22
201915.23
201915.25
201915.26
201915.28
201915.3
201915.3
201915.3
201915.17
201915.22
201915.23
201915.24
201915.26
201915.27
201915.29
201915.3
201915.31
201915.31
201915.18
201915.23
201915.24
201915.26
201915.28
201915.29
201915.3
201915.32
201915.32
201915.33
201915.2
201915.24
201915.26
201915.27
201915.29
201915.31
201915.32
201915.33
201915.33
201915.34
201915.22
201915.26
201915.27
201915.29
201915.3
201915.32
201915.32
201915.33
201915.34
201915.35
201915.24
201915.28
201915.29
201915.3
201915.32
201915.33
201915.34
201915.34
201915.35
201915.35
201915.25
201915.28
201915.3
201915.31
201915.33
201915.34
201915.35
201915.35
201915.35
201915.35
201915.25
201915.29
201915.3
201915.31
201915.33
201915.34
201915.35
201915.35
201915.35
201915.34
)
;
    }
    block1_out
    {
        type            calculated;
        value           nonuniform List<scalar> 
100
(
-432396.56
-432396.54
-432396.53
-432396.52
-432396.52
-432396.52
-432396.52
-432396.52
-432396.53
-432396.54
-432396.54
-432396.53
-432396.52
-432396.51
-432396.51
-432396.51
-432396.51
-432396.52
-432396.53
-432396.54
-432396.53
-432396.52
-432396.51
-432396.51
-432396.51
-432396.51
-432396.51
-432396.52
-432396.53
-432396.54
-432396.52
-432396.51
-432396.51
-432396.51
-432396.51
-432396.51
-432396.51
-432396.52
-432396.53
-432396.54
-432396.52
-432396.51
-432396.51
-432396.51
-432396.51
-432396.51
-432396.52
-432396.52
-432396.53
-432396.53
-432396.52
-432396.51
-432396.51
-432396.51
-432396.51
-432396.51
-432396.52
-432396.53
-432396.53
-432396.53
-432396.52
-432396.51
-432396.51
-432396.51
-432396.52
-432396.52
-432396.53
-432396.53
-432396.53
-432396.53
-432396.52
-432396.52
-432396.52
-432396.52
-432396.52
-432396.53
-432396.53
-432396.53
-432396.53
-432396.54
-432396.53
-432396.53
-432396.53
-432396.53
-432396.53
-432396.53
-432396.53
-432396.53
-432396.54
-432396.55
-432396.54
-432396.54
-432396.54
-432396.54
-432396.53
-432396.53
-432396.53
-432396.54
-432396.55
-432396.55
)
;
    }
    block1_wall1
    {
        type            calculated;
        value           nonuniform List<scalar> 
200
(
591059.35
201915.78
201915.8
201915.83
201915.84
201915.85
201915.86
201915.86
201915.86
201915.86
204079.67
201917.03
201917.04
201917.05
201917.05
201917.05
201917.05
201917.05
201917.04
201917.04
204080.91
201918.26
201918.27
201918.27
201918.26
201918.24
201918.23
201918.22
201918.21
201918.21
204082.14
201919.48
201919.48
201919.47
201919.45
201919.42
201919.4
201919.39
201919.38
201919.37
204083.34
201920.66
201920.66
201920.64
201920.61
201920.59
201920.56
201920.55
201920.54
201920.53
204084.51
201921.81
201921.8
201921.78
201921.75
201921.73
201921.71
201921.7
201921.69
201921.68
204085.63
201922.92
201922.91
201922.9
201922.88
201922.86
201922.85
201922.84
201922.83
201922.83
204086.73
201924.02
201924.02
201924.01
201924
201923.99
201923.98
201923.98
201923.97
201923.97
204087.81
201925.12
201925.12
201925.12
201925.11
201925.1
201925.1
201925.1
201925.1
201925.09
204088.89
201926.2
201926.21
201926.2
201926.2
201926.2
201926.2
201926.2
201926.19
201926.19
204089.95
201927.27
201927.27
201927.27
201927.27
201927.28
201927.27
201927.27
201927.27
201927.26
204090.99
201928.32
201928.32
201928.32
201928.32
201928.32
201928.32
201928.32
201928.32
201928.32
204092
201929.34