/*--------------------------------*- C++ -*----------------------------------*\
| =========                 |                                                 |
| \\      /  F ield         | OpenFOAM: The Open Source CFD Toolbox           |
|  \\    /   O peration     | Version:  v2106                                 |
|   \\  /    A nd           | Website:  www.openfoam.com                      |
|    \\/     M anipulation  |                                                 |
\*---------------------------------------------------------------------------*/
FoamFile
{
    version     2.0;
    format      ascii;
    arch        "LSB;label=32;scalar=64";
    class       volScalarField;
    location    "0";
    object      Tmode4;
}
// * * * * * * * * * * * * * * * * * * * * * * * * * * * * * * * * * * * * * //

dimensions      [0 0 0 1 0 0 0];

internalField   nonuniform List<scalar> 
6000
(
-0.025583547
-0.025583528
-0.025583518
-0.025583566
-0.025583569
-0.025583613
-0.025583621
-0.025583595
-0.025583573
-0.025583568
-0.025399389
-0.02539938
-0.025399402
-0.025399451
-0.025399485
-0.025399508
-0.025399468
-0.025399423
-0.0253994
-0.025399391
-0.025030182
-0.025030209
-0.025030246
-0.025030288
-0.025030303
-0.025030277
-0.02503025
-0.025030213
-0.025030173
-0.02503016
-0.024474184
-0.024474216
-0.024474243
-0.024474262
-0.024474254
-0.024474235
-0.024474216
-0.024474171
-0.024474154
-0.02447414
-0.023728664
-0.023728734
-0.023728758
-0.02372874
-0.023728732
-0.023728706
-0.023728691
-0.023728653
-0.023728633
-0.023728605
-0.022790169
-0.022790219
-0.022790214
-0.022790215
-0.022790213
-0.022790184
-0.022790165
-0.022790101
-0.022790061
-0.022790032
-0.021654239
-0.021654253
-0.021654251
-0.021654256
-0.021654247
-0.021654224
-0.021654181
-0.021654114
-0.021654063
-0.021654045
-0.020315562
-0.020315572
-0.020315551
-0.020315533
-0.020315516
-0.020315486
-0.020315436
-0.020315384
-0.020315351
-0.020315347
-0.018768007
-0.01876801
-0.018767968
-0.01876794
-0.018767893
-0.018767863
-0.018767831
-0.018767791
-0.018767776
-0.018767753
-0.017004549
-0.017004527
-0.01700451
-0.017004473
-0.01700442
-0.01700439
-0.017004381
-0.017004344
-0.017004306
-0.017004254
-0.015017324
-0.015017333
-0.015017325
-0.015017278
-0.015017243
-0.015017219
-0.01501722
-0.015017176
-0.015017115
-0.015017063
-0.012797824
-0.012797865
-0.012797844
-0.012797809
-0.012797781
-0.012797754
-0.012797735
-0.012797691
-0.012797644
-0.012797604
-0.010336726
-0.01033676
-0.010336759
-0.010336733
-0.010336709
-0.010336669
-0.010336636
-0.0103366
-0.010336579
-0.010336549
-0.0076240647
-0.0076240985
-0.0076241046
-0.0076240872
-0.0076240653
-0.0076240394
-0.0076240138
-0.0076239726
-0.0076239531
-0.0076239271
-0.0046494712
-0.0046494759
-0.0046494697
-0.0046494525
-0.0046494299
-0.0046494317
-0.0046494158
-0.0046493636
-0.0046493255
-0.0046493022
-0.0014021011
-0.0014020829
-0.0014020826
-0.0014020589
-0.0014020308
-0.0014020262
-0.0014020209
-0.0014019811
-0.0014019491
-0.0014019193
0.0021289879
0.0021289802
0.0021289763
0.0021289972
0.0021290441
0.0021290678
0.0021290576
0.0021290726
0.0021290884
0.0021291143
0.0059544614
0.0059544379
0.0059544621
0.0059544809
0.0059545324
0.0059545441
0.0059545247
0.0059545379
0.0059545464
0.0059545458
0.010084496
0.010084482
0.010084536
0.010084551
0.010084576
0.010084574
0.010084555
0.010084587
0.010084591
0.010084597
0.01452813
0.014528135
0.014528163
0.014528168
0.01452817
0.014528182
0.014528169
0.014528193
0.014528212
0.014528248
0.019292386
0.019292388
0.019292355
0.019292359
0.019292362
0.019292386
0.01929238
0.019292389
0.019292422
0.019292472
0.02438111
0.024381088
0.024381033
0.024381033
0.024381047
0.024381063
0.024381062
0.024381075
0.024381109
0.024381177
0.029793169
0.029793137
0.029793105
0.029793089
0.029793114
0.029793132
0.029793136
0.02979315
0.029793192
0.029793261
0.03551941
0.035519373
0.03551935
0.035519324
0.035519347
0.035519384
0.035519391
0.035519418
0.03551947
0.035519513
0.041536912
0.041536864
0.041536834
0.041536816
0.041536835
0.04153687
0.041536891
0.041536933
0.041536958
0.041536992
0.047797273
0.047797222
0.047797187
0.047797184
0.047797206
0.047797254
0.047797292
0.047797317
0.047797321
0.047797343
0.054198648
0.054198614
0.054198581
0.054198578
0.054198617
0.054198682
0.05419871
0.054198734
0.054198747
0.054198754
0.060505725
0.06050571
0.060505687
0.060505704
0.060505759
0.060505797
0.060505825
0.060505862
0.060505888
0.060505898
0.066078848
0.06607883
0.066078839
0.066078883
0.066078922
0.066078943
0.066078974
0.06607901
0.06607905
0.066079103
0.068811553
0.068811538
0.068811573
0.068811606
0.068811647
0.068811677
0.068811692
0.068811717
0.068811798
0.06881183
-0.022785684
-0.022785752
-0.022785799
-0.022785844
-0.022785845
-0.022785843
-0.02278582
-0.022785796
-0.022785761
-0.022785736
-0.02261297
-0.022613038
-0.022613077
-0.022613096
-0.022613088
-0.022613083
-0.022613044
-0.022612999
-0.022612977
-0.022612962
-0.022266826
-0.022266885
-0.022266916
-0.022266907
-0.022266894
-0.022266862
-0.022266823
-0.022266789
-0.022266752
-0.022266728
-0.021745994
-0.021746035
-0.021746041
-0.021746036
-0.021746004
-0.021745969
-0.021745935
-0.021745891
-0.021745855
-0.02174583
-0.021048591
-0.021048629
-0.021048642
-0.021048614
-0.021048584
-0.021048548
-0.021048505
-0.021048464
-0.021048432
-0.021048403
-0.020172219
-0.02017226
-0.020172254
-0.020172224
-0.020172198
-0.020172157
-0.020172119
-0.020172068
-0.020172026
-0.020171998
-0.01911387
-0.019113905
-0.019113893
-0.019113864
-0.019113825
-0.019113791
-0.019113744
-0.019113689
-0.019113647
-0.019113623
-0.017870041
-0.017870059
-0.017870039
-0.017869995
-0.017869954
-0.017869918
-0.017869861
-0.017869817
-0.017869782
-0.017869761
-0.016436707
-0.016436735
-0.016436703
-0.016436653
-0.016436601
-0.016436557
-0.016436506
-0.016436467
-0.016436436
-0.016436415
-0.014809496
-0.014809514
-0.01480949
-0.014809438
-0.014809381
-0.014809336
-0.01480929
-0.014809249
-0.014809217
-0.014809191
-0.012983718
-0.012983731
-0.012983709
-0.012983653
-0.012983606
-0.012983559
-0.012983512
-0.01298347
-0.012983434
-0.012983404
-0.010954516
-0.010954544
-0.010954513
-0.010954463
-0.010954412
-0.010954361
-0.010954315
-0.010954272
-0.010954237
-0.010954206
-0.0087170437
-0.0087170678
-0.0087170454
-0.0087169862
-0.008716927
-0.0087168827
-0.0087168383
-0.0087167948
-0.0087167613
-0.00871673
-0.0062666161
-0.0062666401
-0.0062666093
-0.0062665411
-0.0062664936
-0.0062664617
-0.0062664144
-0.0062663655
-0.0062663278
-0.0062662976
-0.0035990423
-0.0035990582
-0.0035990175
-0.003598964
-0.0035989276
-0.0035988951
-0.0035988443
-0.003598792
-0.0035987505
-0.0035987269
-0.00071097783
-0.00071097756
-0.00071095353
-0.0007109121
-0.00071087091
-0.00071083211
-0.00071078705
-0.00071074223
-0.00071071042
-0.00071068219
0.0023995911
0.0023995761
0.0023995913
0.0023996351
0.0023996815
0.0023997185
0.002399754
0.0023997851
0.0023998124
0.0023998435
0.0057326458
0.0057326273
0.0057326508
0.0057326905
0.0057327323
0.00573276
0.0057327876
0.0057328139
0.0057328409
0.0057328558
0.0092853162
0.009285307
0.0092853285
0.0092853546
0.0092853846
0.0092854036
0.009285427
0.0092854593
0.0092854752
0.0092854938
0.013050534
0.013050516
0.013050522
0.013050539
0.013050556
0.013050573
0.013050599
0.013050628
0.013050648
0.013050675
0.017015133
0.017015113
0.0170151
0.01701511
0.017015116
0.017015138
0.017015169
0.017015197
0.017015227
0.017015249
0.021157162
0.021157148
0.021157121
0.021157121
0.021157131
0.021157155
0.021157191
0.021157228
0.021157253
0.021157289
0.025441486
0.025441458
0.025441431
0.025441429
0.025441449
0.025441477
0.025441521
0.02544156
0.025441595
0.025441637
0.029812433
0.029812388
0.02981237
0.029812373
0.029812397
0.02981244
0.029812491
0.029812539
0.029812585
0.029812612
0.034181042
0.03418101
0.034180998
0.034181009
0.034181042
0.034181092
0.034181152
0.034181206
0.034181232
0.034181256
0.038401152
0.038401134
0.03840112
0.038401145
0.038401186
0.038401242
0.038401304
0.038401334
0.038401346
0.038401363
0.042221502
0.042221483
0.042221478
0.042221507
0.042221558
0.042221618
0.04222165
0.042221661
0.042221671
0.042221686
0.045185455
0.045185445
0.045185445
0.045185477
0.045185531
0.045185563
0.045185577
0.045185585
0.045185596
0.045185608
0.046419574
0.046419566
0.046419582
0.046419617
0.046419646
0.046419665
0.046419676
0.046419683
0.046419693
0.046419739
0.044241666
0.044241662
0.044241687
0.044241709
0.044241739
0.044241756
0.044241764
0.044241772
0.044241814
0.044241862
-0.020160616
-0.020160708
-0.020160723
-0.020160732
-0.020160712
-0.020160703
-0.020160673
-0.02016064
-0.020160617
-0.020160605
-0.019999924
-0.019999972
-0.019999979
-0.019999971
-0.019999942
-0.01999992
-0.019999898
-0.019999863
-0.01999985
-0.019999834
-0.019677997
-0.019678044
-0.019678041
-0.01967801
-0.019677984
-0.01967795
-0.019677925
-0.019677899
-0.019677867
-0.019677848
-0.019194161
-0.01919419
-0.019194168
-0.019194141
-0.019194107
-0.019194073
-0.019194044
-0.019194005
-0.019193971
-0.01919396
-0.0185473
-0.018547325
-0.018547314
-0.01854728
-0.018547245
-0.018547206
-0.018547163
-0.018547124
-0.018547103
-0.018547091
-0.017736088
-0.017736105
-0.017736085
-0.017736053
-0.017736018
-0.017735969
-0.017735926
-0.01773589
-0.017735865
-0.017735849
-0.016758874
-0.016758899
-0.016758874
-0.016758841
-0.016758795
-0.016758745
-0.016758701
-0.016758658
-0.016758627
-0.016758615
-0.015613872
-0.015613892
-0.015613868
-0.015613818
-0.015613769
-0.015613718
-0.015613663
-0.015613616
-0.015613591
-0.01561359
-0.014299177
-0.014299205
-0.014299161
-0.014299109
-0.014299054
-0.014298991
-0.01429893
-0.014298889
-0.014298873
-0.014298872
-0.012812919
-0.012812939
-0.012812895
-0.01281284
-0.012812775
-0.012812705
-0.012812648
-0.01281261
-0.012812591
-0.012812585
-0.011153406
-0.011153417
-0.011153382
-0.011153315
-0.011153249
-0.011153183
-0.01115313
-0.011153087
-0.011153064
-0.011153054
-0.0093193797
-0.0093194035
-0.0093193464
-0.0093192766
-0.0093192124
-0.009319146
-0.0093190881
-0.0093190428
-0.0093190163
-0.0093190046
-0.0073102081
-0.0073102248
-0.0073101634
-0.0073100941
-0.007310024
-0.0073099514
-0.0073098908
-0.007309843
-0.0073098124
-0.0073097959
-0.005126185
-0.0051261926
-0.0051261421
-0.0051260675
-0.0051259927
-0.0051259204
-0.005125858
-0.0051258039
-0.0051257646
-0.005125744
-0.0027689996
-0.002769021
-0.0027689651
-0.0027688892
-0.0027688185
-0.0027687472
-0.0027686794
-0.0027686181
-0.0027685724
-0.0027685589
-0.00024228577
-0.0002423034
-0.00024224584
-0.0002421797
-0.00024211271
-0.00024203952
-0.00024196936
-0.00024190726
-0.0002418698
-0.00024185711
0.0024477316
0.0024477238
0.0024477702
0.0024478266
0.0024478927
0.0024479653
0.0024480325
0.0024480863
0.0024481199
0.0024481359
0.0052912569
0.0052912444
0.0052912836
0.0052913355
0.0052913932
0.0052914586
0.0052915203
0.0052915696
0.0052916053
0.0052916111
0.0082736261
0.0082736081
0.0082736391
0.0082736764
0.0082737181
0.0082737752
0.0082738359
0.0082738895
0.0082739149
0.0082739218
0.011373519
0.0113735
0.011373512
0.011373529
0.011373559
0.011373617
0.011373681
0.01137373
0.011373756
0.011373764
0.014560432
0.014560404
0.0145604
0.014560407
0.014560435
0.014560496
0.014560556
0.014560603
0.014560637
0.01456064
0.017790964
0.017790927
0.017790924
0.017790933
0.017790965
0.017791019
0.017791076
0.017791134
0.017791166
0.01779118
0.021003185
0.021003155
0.021003158
0.021003172
0.021003205
0.021003257
0.021003325
0.021003386
0.021003429
0.021003446
0.024107779
0.024107757
0.024107765
0.024107781
0.024107814
0.024107881
0.024107958
0.024108025
0.024108068
0.024108075
0.026973754
0.026973738
0.026973746
0.026973765
0.026973813
0.02697389
0.026973969
0.026974031
0.026974052
0.026974058
0.029404898
0.029404882
0.029404895
0.029404931
0.029404988
0.029405064
0.029405131
0.029405162
0.029405176
0.029405183
0.031100794
0.031100785
0.031100813
0.031100856
0.031100913
0.031100975
0.031101007
0.031101027
0.031101042
0.031101049
0.031595012
0.031595021
0.031595043
0.03159508
0.031595126
0.031595158
0.031595181
0.031595203
0.031595212
0.031595219
0.030172309
0.030172311
0.030172337
0.030172365
0.030172388
0.030172415
0.030172438
0.030172453
0.030172466
0.03017248
0.025823455
0.025823448
0.02582347
0.025823489
0.025823512
0.025823537
0.025823563
0.025823582
0.025823597
0.025823611
-0.017696192
-0.017696222
-0.017696203
-0.0176962
-0.017696189
-0.01769619
-0.017696177
-0.017696165
-0.017696156
-0.017696142
-0.017547814
-0.017547831
-0.017547805
-0.017547791
-0.017547788
-0.017547784
-0.017547777
-0.017547764
-0.017547761
-0.017547744
-0.017250846
-0.017250855
-0.017250845
-0.017250824
-0.017250828
-0.017250813
-0.017250798
-0.017250785
-0.017250772
-0.017250758
-0.016805084
-0.016805081
-0.016805068
-0.016805059
-0.016805046
-0.01680502
-0.016805003
-0.01680499
-0.016804983
-0.016804972
-0.016210165
-0.016210173
-0.016210165
-0.016210143
-0.016210123
-0.016210091
-0.016210071
-0.016210066
-0.016210059
-0.016210045
-0.015465753
-0.015465755
-0.015465741
-0.015465719
-0.015465695
-0.015465663
-0.015465643
-0.015465629
-0.015465619
-0.015465607
-0.014571501
-0.01457151
-0.014571489
-0.014571465
-0.014571439
-0.014571404
-0.014571372
-0.014571351
-0.014571344
-0.014571338
-0.013527242
-0.013527248
-0.013527229
-0.013527193
-0.013527162
-0.013527114
-0.01352707
-0.013527051
-0.013527051
-0.01352705
-0.01233304
-0.012333045
-0.012333017
-0.012332979
-0.012332935
-0.012332874
-0.012332828
-0.012332816
-0.012332818
-0.012332813
-0.010989391
-0.010989397
-0.01098936
-0.010989311
-0.010989259
-0.010989195
-0.010989156
-0.010989142
-0.010989136
-0.010989126
-0.0094974289
-0.00949743
-0.009497386
-0.0094973269
-0.0094972786
-0.0094972216
-0.0094971817
-0.0094971581
-0.0094971463
-0.0094971319
-0.0078592272
-0.0078592183
-0.0078591599
-0.0078591049
-0.0078590562
-0.0078589946
-0.007858944
-0.0078589133
-0.0078588944
-0.007858877
-0.0060780299
-0.0060780182
-0.0060779629
-0.0060779046
-0.0060778447
-0.0060777706
-0.0060777131
-0.0060776745
-0.0060776472
-0.0060776256
-0.0041587143
-0.0041587107
-0.0041586575
-0.0041585906
-0.0041585217
-0.0041584432
-0.0041583794
-0.004158329
-0.0041582932
-0.0041582696
-0.0021083333
-0.0021083342
-0.0021082742
-0.0021082075
-0.0021081367
-0.002108053
-0.0021079775
-0.0021079192
-0.0021078806
-0.0021078647
6.3262629e-05
6.3265167e-05
6.332041e-05
6.3384338e-05
6.3456696e-05
6.354891e-05
6.3627713e-05
6.3684225e-05
6.3715339e-05
6.3730413e-05
0.0023425484
0.0023425468
0.0023425934
0.0023426577
0.0023427313
0.0023428222
0.0023428964
0.0023429463
0.0023429764
0.0023429954
0.0047111745
0.004711173
0.0047112169
0.0047112752
0.00471134
0.0047114225
0.0047114945
0.0047115438
0.0047115767
0.004711589
0.0071445043
0.0071445023
0.0071445374
0.0071445756
0.0071446257
0.0071447065
0.0071447811
0.0071448346
0.0071448585
0.007144872
0.0096095468
0.0096095317
0.0096095469
0.0096095667
0.0096096115
0.009609696
0.0096097729
0.0096098213
0.0096098458
0.0096098601
0.012062148
0.012062121
0.012062124
0.01206214
0.012062185
0.012062266
0.012062337
0.012062385
0.012062416
0.012062426
0.014443116
0.014443095
0.0144431
0.014443119
0.014443163
0.014443233
0.014443301
0.014443358
0.014443389
0.014443407
0.016672602
0.016672592
0.016672602
0.016672625
0.016672664
0.016672732
0.016672807
0.016672865
0.016672905
0.016672924
0.018641868
0.018641859
0.018641874
0.018641898
0.018641936
0.018642016
0.018642093
0.018642152
0.018642192
0.018642202
0.020201395
0.020201389
0.020201409
0.020201435
0.020201485
0.020201566
0.020201638
0.020201693
0.020201715
0.020201727
0.021143941
0.021143944
0.021143971
0.021144006
0.021144059
0.021144129
0.021144188
0.021144221
0.021144245
0.021144258
0.021181808
0.021181822
0.021181855
0.021181889
0.021181936
0.021181993
0.021182026
0.021182061
0.021182085
0.021182083
0.0199215
0.019921519
0.01992154
0.019921566
0.019921603
0.019921639
0.019921677
0.019921713
0.019921715
0.019921715
0.016851167
0.016851172
0.016851195
0.016851217
0.016851239
0.016851279
0.016851317
0.016851335
0.016851337
0.016851325
0.011385942
0.011385942
0.011385961
0.011385976
0.011386001
0.011386042
0.011386071
0.011386088
0.011386079
0.011386072
-0.01537994
-0.015379927
-0.015379914
-0.015379942
-0.015379947
-0.015379973
-0.015379984
-0.01537998
-0.015379975
-0.015379964
-0.015244027
-0.015244038
-0.015244018
-0.015244039
-0.01524407
-0.015244092
-0.015244092
-0.015244085
-0.01524409
-0.015244071
-0.014972298
-0.014972296
-0.014972307
-0.014972333
-0.014972358
-0.014972352
-0.014972356
-0.014972361
-0.014972357
-0.014972337
-0.014564979
-0.014564973
-0.014564988
-0.014565015
-0.014565007
-0.014564999
-0.014565016
-0.01456502
-0.014565012
-0.014564991
-0.014022374
-0.014022388
-0.0140224
-0.014022404
-0.014022401
-0.014022401
-0.01402241
-0.014022416
-0.014022409
-0.01402239
-0.013345099
-0.013345107
-0.013345106
-0.013345115
-0.013345115
-0.013345108
-0.013345113
-0.013345116
-0.01334511
-0.013345095
-0.012534005
-0.012534006
-0.012534008
-0.012534019
-0.012534009
-0.012533997
-0.012533997
-0.012533998
-0.012533993
-0.01253398
-0.011590403
-0.011590405
-0.011590406
-0.011590402
-0.011590387
-0.011590366
-0.011590357
-0.011590359
-0.011590357
-0.011590344
-0.010516173
-0.010516177
-0.010516163
-0.010516156
-0.010516133
-0.010516102
-0.010516093
-0.010516098
-0.010516095
-0.010516078
-0.0093139888
-0.0093139763
-0.0093139572
-0.0093139458
-0.009313918
-0.0093138872
-0.0093138805
-0.0093138805
-0.0093138688
-0.0093138461
-0.0079875299
-0.0079875136
-0.0079874908
-0.0079874726
-0.0079874502
-0.0079874229
-0.0079874112
-0.0079873981
-0.0079873765
-0.0079873504
-0.006541871
-0.006541855
-0.0065418173
-0.0065418045
-0.0065417807
-0.0065417461
-0.0065417191
-0.006541692
-0.0065416623
-0.0065416366
-0.0049837638
-0.0049837373
-0.0049837047
-0.0049836906
-0.0049836531
-0.0049836019
-0.0049835619
-0.0049835235
-0.004983489
-0.0049834631
-0.00332212
-0.0033220992
-0.0033220726
-0.0033220451
-0.0033219941
-0.0033219326
-0.0033218828
-0.0033218364
-0.0033217976
-0.0033217698
-0.0015686731
-0.0015686632
-0.0015686277
-0.0015685891
-0.0015685295
-0.0015684603
-0.0015684019
-0.0015683518
-0.0015683108
-0.0015682873
0.00026133565
0.00026135023
0.00026139044
0.00026143353
0.00026149919
0.00026157526
0.00026163398
0.00026168232
0.00026171799
0.00026174215
0.0021482213
0.0021482322
0.0021482727
0.0021483177
0.0021483872
0.002148463
0.0021485189
0.0021485625
0.0021485971
0.0021486252
0.0040665963
0.0040666004
0.0040666411
0.0040666845
0.004066752
0.0040668256
0.0040668814
0.0040669254
0.0040669617
0.0040669841
0.0059838541
0.0059838568
0.0059838907
0.0059839236
0.0059839849
0.0059840607
0.0059841205
0.0059841692
0.0059841978
0.0059842198
0.0078581295
0.0078581288
0.0078581478
0.0078581695
0.0078582285
0.0078583063
0.0078583709
0.0078584158
0.0078584433
0.0078584645
0.0096355939
0.0096355893
0.0096355981
0.0096356155
0.0096356701
0.0096357444
0.009635805
0.0096358481
0.0096358784
0.0096358943
0.0112469
0.011246896
0.011246905
0.011246921
0.011246968
0.011247035
0.011247091
0.011247138
0.011247167
0.011247189
0.012602407
0.012602406
0.012602419
0.012602435
0.012602476
0.012602537
0.012602595
0.01260264
0.012602676
0.012602702
0.013585832
0.013585833
0.013585852
0.013585866
0.013585905
0.013585969
0.013586022
0.01358607
0.013586111
0.01358613
0.014046122
0.014046132
0.014046153
0.014046166
0.014046209
0.014046268
0.014046318
0.014046366
0.014046397
0.014046418
0.013787743
0.01378776
0.013787778
0.013787798
0.013787836
0.013787885
0.013787933
0.01378797
0.013788
0.013788017
0.012561052
0.012561067
0.012561087
0.012561104
0.012561139
0.012561186
0.012561219
0.012561255
0.012561277
0.012561273
0.010057997
0.010058009
0.010058022
0.010058037
0.010058071
0.010058107
0.010058143
0.010058172
0.010058171
0.010058163
0.0059248893
0.0059248949
0.0059249146
0.0059249327
0.0059249573
0.0059249969
0.0059250299
0.0059250402
0.0059250274
0.0059250144
-0.00018722295
-0.00018721497
-0.00018719844
-0.0001871853
-0.00018715459
-0.00018711322
-0.00018709671
-0.00018709041
-0.00018710746
-0.00018710298
-0.013199436
-0.013199456
-0.013199465
-0.013199505
-0.013199536
-0.013199569
-0.01319957
-0.013199561
-0.013199551
-0.013199541
-0.013075974
-0.013075985
-0.01307601
-0.013076054
-0.013076087
-0.013076106
-0.013076105
-0.013076093
-0.013076091
-0.013076074
-0.012829297
-0.012829325
-0.012829367
-0.012829399
-0.012829419
-0.012829421
-0.012829431
-0.012829431
-0.012829417
-0.012829394
-0.012460073
-0.012460099
-0.01246013
-0.012460157
-0.012460162
-0.012460175
-0.012460198
-0.01246019
-0.012460168
-0.012460148
-0.011969229
-0.011969253
-0.011969285
-0.011969301
-0.01196932
-0.011969339
-0.011969351
-0.011969344
-0.011969328
-0.011969312
-0.011358206
-0.011358225
-0.011358251
-0.011358274
-0.011358293
-0.011358304
-0.011358315
-0.011358312
-0.011358299
-0.011358285
-0.01062895
-0.010628973
-0.010628998
-0.010629017
-0.010629022
-0.010629034
-0.010629047
-0.010629044
-0.010629029
-0.010629014
-0.009784116
-0.0097841275
-0.0097841476
-0.0097841525
-0.0097841571
-0.009784168
-0.0097841779
-0.0097841728
-0.0097841566
-0.0097841415
-0.008827179
-0.0088271873
-0.0088271944
-0.0088272021
-0.0088272056
-0.0088272111
-0.0088272191
-0.0088272133
-0.0088271938
-0.0088271755
-0.0077627425
-0.0077627397
-0.0077627479
-0.0077627558
-0.0077627569
-0.0077627613
-0.0077627675
-0.0077627532
-0.007762725
-0.0077627048
-0.0065967537
-0.0065967452
-0.0065967551
-0.0065967594
-0.0065967657
-0.0065967702
-0.0065967649
-0.0065967358
-0.0065967015
-0.006596683
-0.0053368901
-0.0053368816
-0.00533688
-0.0053368909
-0.0053368966
-0.005336887
-0.0053368622
-0.0053368222
-0.0053367853
-0.0053367714
-0.0039929187
-0.0039929035
-0.0039929102
-0.0039929183
-0.0039929057
-0.0039928761
-0.0039928399
-0.003992794
-0.0039927563
-0.003992744
-0.0025772207
-0.0025772106
-0.0025772201
-0.0025772105
-0.0025771797
-0.002577143
-0.0025771019
-0.0025770518
-0.0025770108
-0.0025769952
-0.0011054592
-0.001105458
-0.0011054483
-0.0011054233
-0.0011053864
-0.0011053462
-0.0011053004
-0.0011052477
-0.001105203
-0.0011051884
0.00040268561
0.000402696
0.00040271732
0.00040274781
0.00040278891
0.00040283489
0.00040287974
0.00040293074
0.00040297231
0.00040298858
0.0019225563
0.0019225688
0.0019225916
0.0019226268
0.0019226767
0.0019227235
0.0019227655
0.0019228115
0.0019228515
0.0019228702
0.0034232825
0.0034232907
0.0034233162
0.0034233586
0.0034234122
0.003423459
0.0034235014
0.0034235469
0.003423586
0.003423598
0.0048663377
0.0048663487
0.0048663719
0.0048664119
0.0048664621
0.004866513
0.0048665612
0.0048666103
0.0048666403
0.0048666499
0.0062036744
0.0062036858
0.0062036974
0.0062037269
0.0062037745
0.0062038297
0.0062038844
0.0062039285
0.0062039542
0.0062039615
0.0073753506
0.0073753549
0.0073753572
0.0073753779
0.0073754204
0.0073754754
0.007375526
0.0073755649
0.0073755898
0.0073755925
0.0083066273
0.008306628
0.0083066289
0.0083066439
0.008306681
0.0083067299
0.0083067722
0.0083068109
0.0083068329
0.0083068425
0.0089044157
0.00890442
0.0089044222
0.008904434
0.0089044646
0.008904506
0.0089045461
0.0089045824
0.0089046133
0.0089046255
0.0090530414
0.0090530492
0.0090530519
0.0090530596
0.0090530846
0.009053125
0.0090531605
0.0090532021
0.0090532395
0.0090532487
0.008609622
0.0086096328
0.0086096336
0.008609637
0.0086096627
0.0086096995
0.0086097366
0.0086097818
0.0086098118
0.0086098177
0.0073999173
0.0073999252
0.007399923
0.0073999301
0.0073999547
0.0073999886
0.0074000292
0.0074000627
0.0074000859
0.0074000847
0.0052166772
0.0052166788
0.0052166821
0.0052166891
0.0052167182
0.0052167559
0.0052167817
0.0052168084
0.0052168152
0.0052168019
0.0018245232
0.0018245247
0.0018245299
0.0018245424
0.001824573
0.001824602
0.0018246264
0.0018246403
0.0018246327
0.001824619
-0.0030223781
-0.0030223778
-0.0030223638
-0.0030223469
-0.0030223216
-0.0030222894
-0.0030222713
-0.003022271
-0.0030222861
-0.0030222901
-0.0095428951
-0.0095428927
-0.0095428812
-0.0095428634
-0.0095428342
-0.0095428032
-0.0095427967
-0.0095427948
-0.0095428028
-0.0095427962
-0.011142403
-0.011142452
-0.011142469
-0.011142509
-0.011142526
-0.011142537
-0.011142521
-0.011142499
-0.011142483
-0.011142478
-0.011031099
-0.011031146
-0.011031167
-0.011031197
-0.011031207
-0.011031204
-0.01103119
-0.011031171
-0.011031167
-0.011031153
-0.010808881
-0.010808932
-0.010808961
-0.010808975
-0.010808984
-0.010808979
-0.010808978
-0.010808965
-0.010808941
-0.010808922
-0.010476777
-0.010476814
-0.010476833
-0.010476853
-0.010476862
-0.01047687
-0.010476873
-0.010476845
-0.010476818
-0.010476806
-0.010036262
-0.010036301
-0.010036332
-0.010036348
-0.01003637
-0.010036377
-0.010036368
-0.010036344
-0.010036328
-0.010036321
-0.0094895359
-0.0094895764
-0.0094895993
-0.009489618
-0.0094896355
-0.0094896384
-0.0094896359
-0.0094896183
-0.009489606
-0.0094895954
-0.0088394822
-0.0088395218
-0.0088395365
-0.0088395503
-0.0088395595
-0.0088395716
-0.0088395738
-0.0088395552
-0.0088395385
-0.0088395234
-0.0080899009
-0.0080899245
-0.0080899382
-0.0080899421
-0.0080899568
-0.0080899727
-0.0080899714
-0.0080899477
-0.0080899268
-0.0080899111
-0.0072456715
-0.0072456958
-0.0072457023
-0.007245712
-0.0072457276
-0.0072457403
-0.007245735
-0.0072457071
-0.0072456826
-0.0072456659
-0.0063130484
-0.0063130676
-0.0063130761
-0.0063130875
-0.0063131031
-0.0063131122
-0.0063131016
-0.006313065
-0.0063130349
-0.0063130195
-0.0052998848
-0.0052998984
-0.0052999128
-0.0052999236
-0.0052999427
-0.0052999473
-0.0052999239
-0.0052998768
-0.0052998464
-0.0052998344
-0.0042160509
-0.0042160657
-0.0042160736
-0.0042160921
-0.0042161056
-0.0042160942
-0.0042160552
-0.0042160035
-0.0042159748
-0.0042159675
-0.0030738208
-0.0030738336
-0.0030738464
-0.0030738602
-0.0030738548
-0.0030738273
-0.0030737829
-0.0030737301
-0.0030737017
-0.0030736953
-0.0018884069
-0.0018884194
-0.0018884315
-0.0018884276
-0.0018884099
-0.0018883816
-0.0018883377
-0.0018882821
-0.0018882498
-0.0018882398
-0.00067862816
-0.00067863809
-0.00067863317
-0.00067861834
-0.00067860121
-0.00067857477
-0.00067852951
-0.00067847091
-0.00067843345
-0.00067842451
0.0005323493
0.00053235331
0.00053236681
0.00053238371
0.00053240202
0.00053243003
0.00053247302
0.00053253016
0.00053256606
0.00053257493
0.0017160815
0.0017160908
0.0017161046
0.0017161276
0.0017161534
0.0017161802
0.001716219
0.0017162701
0.0017163034
0.0017163122
0.0028377057
0.0028377126
0.0028377307
0.0028377639
0.0028377927
0.0028378199
0.0028378575
0.002837906
0.0028379357
0.0028379373
0.0038546404
0.0038546462
0.0038546667
0.003854698
0.0038547254
0.0038547584
0.0038548016
0.0038548516
0.0038548702
0.0038548696
0.0047149781
0.0047149814
0.0047149927
0.0047150126
0.004715041
0.0047150813
0.0047151312
0.0047151739
0.0047151858
0.0047151829
0.0053555728
0.0053555708
0.0053555693
0.0053555812
0.0053556093
0.0053556526
0.0053556979
0.0053557317
0.005355741
0.0053557365
0.0056998871
0.0056998818
0.0056998752
0.0056998845
0.0056999123
0.0056999492
0.005699984
0.0057000155
0.0057000229
0.0057000256
0.0056556261
0.0056556217
0.0056556154
0.0056556237
0.0056556455
0.0056556737
0.0056557041
0.0056557345
0.0056557506
0.0056557527
0.0051123329
0.0051123285
0.0051123209
0.0051123251
0.0051123405
0.0051123685
0.0051123968
0.0051124326
0.0051124503
0.0051124492
0.0039394287
0.0039394245
0.003939413
0.0039394124
0.0039394311
0.0039394602
0.0039394924
0.0039395271
0.0039395331
0.0039395266
0.0019856106
0.0019856023
0.0019855892
0.0019855945
0.0019856187
0.0019856498
0.0019856813
0.0019856971
0.0019856971
0.0019856891
-0.0009188136
-0.00091882495
-0.0009188295
-0.0009188194
-0.00091878732
-0.00091875472
-0.00091874304
-0.00091873154
-0.0009187433
-0.00091875342
-0.0049542324
-0.0049542402
-0.0049542374
-0.0049542205
-0.004954189
-0.0049541668
-0.0049541523
-0.0049541509
-0.0049541673
-0.0049541658
-0.010296031
-0.010296041
-0.010296028
-0.010296008
-0.010295981
-0.010295954
-0.010295947
-0.010295948
-0.010295958
-0.010295951
-0.017089487
-0.017089495
-0.017089482
-0.017089458
-0.017089432
-0.017089404
-0.017089399
-0.017089392
-0.017089397
-0.017089395
-0.0091966759
-0.0091967232
-0.0091967282
-0.0091967469
-0.0091967233
-0.0091967101
-0.0091966856
-0.0091966685
-0.0091966574
-0.0091966506
-0.0090970406
-0.0090970981
-0.0090970908
-0.0090970867
-0.0090970642
-0.0090970507
-0.0090970327
-0.0090970178
-0.0090970118
-0.0090969892
-0.0088983064
-0.0088983488
-0.0088983513
-0.0088983442
-0.0088983387
-0.0088983228
-0.0088983088
-0.0088982881
-0.0088982629
-0.0088982413
-0.0086017993
-0.0086018276
-0.0086018323
-0.0086018431
-0.008601831
-0.0086018171
-0.0086018007
-0.0086017688
-0.0086017485
-0.0086017335
-0.0082094678
-0.0082095088
-0.0082095271
-0.0082095285
-0.0082095228
-0.0082095066
-0.0082094831
-0.0082094619
-0.0082094518
-0.0082094348
-0.0077241448
-0.0077241856
-0.0077241884
-0.0077241874
-0.0077241821
-0.0077241691
-0.0077241539
-0.0077241357
-0.0077241254
-0.0077241013
-0.00714949
-0.0071495221
-0.0071495176
-0.0071495178
-0.0071495118
-0.0071495096
-0.0071494952
-0.0071494722
-0.0071494545
-0.0071494262
-0.006490271
-0.0064902923
-0.006490291
-0.0064902873
-0.0064902892
-0.006490289
-0.0064902682
-0.0064902371
-0.0064902146
-0.0064901871
-0.0057525372
-0.005752565
-0.0057525596
-0.005752562
-0.0057525646
-0.0057525611
-0.0057525344
-0.0057524978
-0.0057524711
-0.005752443
-0.0049438869
-0.004943911
-0.004943909
-0.0049439137
-0.0049439159
-0.0049439073
-0.0049438744
-0.0049438293
-0.004943798
-0.0049437707
-0.0040737118
-0.0040737351
-0.0040737401
-0.0040737443
-0.0040737475
-0.0040737326
-0.004073689
-0.0040736373
-0.0040736075
-0.0040735828
-0.0031536457
-0.0031536729
-0.0031536722
-0.0031536812
-0.0031536767
-0.0031536485
-0.0031535959
-0.0031535446
-0.0031535176
-0.0031534966
-0.0021979407
-0.0021979596
-0.0021979637
-0.0021979664
-0.0021979479
-0.002197912
-0.0021978609
-0.0021978109
-0.0021977846
-0.0021977651
-0.0012239901
-0.0012240021
-0.001224007
-0.0012239978
-0.0012239775
-0.0012239498
-0.0012239029
-0.0012238507
-0.0012238213
-0.0012238008
-0.00025300806
-0.00025301545