/*--------------------------------*- C++ -*----------------------------------*\
| =========                 |                                                 |
| \\      /  F ield         | OpenFOAM: The Open Source CFD Toolbox           |
|  \\    /   O peration     | Version:  v2106                                 |
|   \\  /    A nd           | Website:  www.openfoam.com                      |
|    \\/     M anipulation  |                                                 |
\*---------------------------------------------------------------------------*/
FoamFile
{
    version     2.0;
    format      ascii;
    arch        "LSB;label=32;scalar=64";
    class       volScalarField;
    location    "0";
    object      Tmode9;
}
// * * * * * * * * * * * * * * * * * * * * * * * * * * * * * * * * * * * * * //

dimensions      [0 0 0 0 0 0 0];

internalField   nonuniform List<scalar> 
2000
(
-0.0054100063
0.013457101
0.0068917221
-0.0011653895
-0.0080555386
-0.0061578287
0.006844618
0.013091445
0.031958334
0.050666218
0.01345706
0.014066293
0.008256999
0.0044639932
0.0016351385
-0.0014112579
-0.0044340773
0.0020086991
0.022558686
0.045016581
0.0068918297
0.0082569109
0.018646118
0.019739916
0.016801406
0.010299822
-0.0059833326
-0.0068476518
0.0072741801
0.030994893
-0.0011654112
0.0044639843
0.019739831
0.028307188
0.019206741
0.0071002479
-0.0007079417
-0.0013813058
0.0039399942
0.026546559
-0.0080556331
0.0016352439
0.016801659
0.019206713
0.0081455314
-0.0072241329
-0.008998209
-0.00090284319
0.005048536
0.025470455
-0.006157657
-0.0014112087
0.010299819
0.0071000369
-0.0072240636
-0.024934833
-0.022235484
-0.016434806
-0.0086474447
0.012024792
0.0068444486
-0.0044340657
-0.005983347
-0.00070789801
-0.0089981107
-0.022235403
-0.019671128
-0.022931882
-0.021983911
-0.007294967
0.013091229
0.0020087448
-0.0068477697
-0.0013811128
-0.00090278287
-0.016434928
-0.022931799
-0.028956046
-0.027038915
-0.0079513846
0.031958054
0.022558623
0.007274071
0.0039400049
0.0050485991
-0.0086474647
-0.02198388
-0.027038829
-0.021507913
0.0010467653
0.050665796
0.045016179
0.030994841
0.026546528
0.025470335
0.012024938
-0.0072948748
-0.0079513992
0.0010467973
0.002104706
-0.0028271079
0.010122824
0.00066569201
-0.0089838757
-0.020546294
-0.023620414
-0.018761297
-0.012699208
0.0021724186
0.014406658
0.010122776
0.015329197
0.0023069964
-0.0057777933
-0.014992303
-0.020433517
-0.015287851
-0.0065731561
0.0064255778
0.017191475
0.00066577988
0.0023069771
-0.0027957904
-0.0063671453
-0.014786895
-0.018108746
-0.016799671
-0.011033729
0.0010143518
0.013198484
-0.0089838037
-0.0057777586
-0.0063672098
-0.0057655743
-0.011224722
-0.01628546
-0.017548589
-0.015369869
-0.0054267614
0.007149636
-0.020546334
-0.014992288
-0.014786798
-0.011224664
-0.016321763
-0.023072479
-0.025993613
-0.020785931
-0.009929024
-0.00042438698
-0.023620285
-0.020433429
-0.018108643
-0.01628548
-0.023072475
-0.035253264
-0.036909056
-0.029598325
-0.019989231
-0.010252722
-0.018761257
-0.015287797
-0.016799593
-0.017548589
-0.025993586
-0.036909001
-0.037055237
-0.03267455
-0.026903295
-0.019711722
-0.012699222
-0.0065731082
-0.011033714
-0.015369797
-0.020785843
-0.029598304
-0.032674501
-0.032566624
-0.028309502
-0.021509464
0.0021724193
0.0064256345
0.0010143675
-0.0054267105
-0.009928916
-0.019989207
-0.026903271
-0.028309468
-0.024492865
-0.011837558
0.014406661
0.017191422
0.013198497
0.0071497084
-0.00042435279
-0.010252633
-0.01971163
-0.02150945
-0.011837554
-0.0054521482
0.0082593669
0.010761321
-0.0020640919
-0.015872462
-0.025527983
-0.030847546
-0.022500111
-0.0088016322
0.0061285097
0.014508157
0.010761276
0.0077285127
-0.0045101128
-0.019515795
-0.026168015
-0.029062831
-0.020918243
-0.003803391
0.010840146
0.017702927
-0.0020640557
-0.00451011
-0.010558598
-0.019382706
-0.025049386
-0.024070908
-0.016385504
-0.003775568
0.0094972631
0.015409545
-0.015872362
-0.019515699
-0.019382705
-0.022877984
-0.023753158
-0.02261044
-0.016859803
-0.0074907053
0.0029893689
0.0088692189
-0.025527936
-0.026167949
-0.025049325
-0.023753108
-0.021642121
-0.021609216
-0.019236048
-0.011951593
-0.0034505144
0.00046015251
-0.030847422
-0.029062735
-0.024070809
-0.022610385
-0.021609199
-0.023503427
-0.023435538
-0.017918189
-0.010886858
-0.0056651885
-0.022499997
-0.020918139
-0.016385386
-0.01685973
-0.019236003
-0.023435501
-0.024177623
-0.019181927
-0.013449739
-0.0084376473
-0.0088015542
-0.003803291
-0.0037754864
-0.0074906259
-0.011951506
-0.01791813
-0.019181894
-0.016992673
-0.011475609
-0.0069960879
0.0061285694
0.010840276
0.0094973838
0.0029894591
-0.0034504015
-0.010886777
-0.01344969
-0.011475577
-0.0062810067
0.0027356928
0.014508255
0.017703037
0.015409647
0.0088693311
0.00046024644
-0.005665093
-0.0084375855
-0.0069960607
0.0027356914
0.0092903767
0.0076274887
0.0056361213
-0.012877148
-0.026448978
-0.036749015
-0.035207561
-0.021841687
-0.0050391164
0.011245802
0.018172348
0.0056361059
-0.00073650295
-0.017480054
-0.030290493
-0.035066288
-0.031152117
-0.017724787
0.0014540375
0.01649532
0.021479124
-0.012877118
-0.017480039
-0.028335167
-0.031897466
-0.031655068
-0.024665603
-0.011617282
0.0046085077
0.017603676
0.021073162
-0.026448884
-0.030290391
-0.031897434
-0.029140647
-0.024899714
-0.016070349
-0.0068760822
0.0047563609
0.014996774
0.018464365
-0.036748906
-0.035066162
-0.031654985
-0.024899662
-0.018769592
-0.011298755
-0.004906849
0.0044173382
0.012352038
0.014435671
-0.035207413
-0.031151987
-0.024665497
-0.016070275
-0.01129873
-0.0067522795
-0.0013974226
0.0039877269
0.010081993
0.013800688
-0.02184152
-0.017724628
-0.011617135
-0.006875971
-0.0049067838
-0.0013973769
0.00047654685
0.0050207189
0.011991251
0.016913343
-0.0050389474
0.0014542038
0.0046086505
0.004756495
0.0044174349
0.0039878066
0.0050207659
0.0094578776
0.018838642
0.023077154
0.011245964
0.016495502
0.017603836
0.014996914
0.012352151
0.010082094
0.011991302
0.018838668
0.026235122
0.031058694
0.018172545
0.021479314
0.021073321
0.018464508
0.014435793
0.013800798
0.016913398
0.023077174
0.031058688
0.033726141
-0.00057635213
-0.0036217272
-0.02040189
-0.03523705
-0.040675653
-0.032974646
-0.019582138
-0.0027572425
0.012882663
0.017903553
-0.0036217133
-0.01410432
-0.027028972
-0.03779882
-0.037584378
-0.026296685
-0.012624825
0.0046440179
0.018921841
0.021323206
-0.020401837
-0.027028945
-0.035302402
-0.035951665
-0.030475123
-0.017617186
-0.0039382824
0.011077409
0.022826171
0.024147
-0.035236926
-0.037798707
-0.035951604
-0.029748288
-0.02012788
-0.0063047745
0.0046807335
0.015899971
0.025408877
0.0274619
-0.040675504
-0.037584225
-0.030475011
-0.020127835
-0.0086458521
0.0036067743
0.010742051
0.020288005
0.02881404
0.029875617
-0.03297445
-0.026296502
-0.017617034
-0.006304665
0.0036068372
0.011301262
0.018251457
0.025619817
0.032847231
0.035217087
-0.019581939
-0.012624622
-0.0039380948
0.0046808709
0.010742149
0.0182515
0.024046897
0.031717647
0.039509343
0.042568049
-0.0027569998
0.0046442493
0.01107761
0.01590014
0.020288142
0.025619889
0.031717684
0.038609359
0.048758766
0.050398241
0.0128829
0.018922081
0.022826379
0.025409045
0.028814183
0.032847315
0.039509394
0.048758789
0.055575714
0.054318234
0.017903802
0.021323455
0.02414722
0.027462086
0.02987576
0.035217196
0.042568107
0.050398266
0.054318243
0.049937582
-0.0022889993
-0.0063806929
-0.022181604
-0.032264262
-0.033234836
-0.024745146
-0.013679002
-0.0016535024
0.0095121989
0.012311842
-0.0063806654
-0.014866144
-0.027137041
-0.032859904
-0.028808224
-0.018604088
-0.0069389352
0.0057875512
0.015248091
0.015694743
-0.022181527
-0.027137014
-0.031599345
-0.029726191
-0.021825851
-0.0095660007
0.0023523199
0.013417809
0.021599909
0.021890023
-0.032264121
-0.032859801
-0.029726125
-0.022068228
-0.011569173
0.0012963195
0.011077012
0.020589679
0.028608901
0.030274894
-0.033234653
-0.028808069
-0.021825725
-0.011569098
-0.00063296809
0.010243997
0.018259369
0.027812017
0.036850186
0.037706988
-0.024744911
-0.018603878
-0.0095658409
0.0012964491
0.01024406
0.019453321
0.028031739
0.036849944
0.045410919
0.046613696
-0.013678747
-0.0069386871
0.0023525267
0.011077186
0.018259484
0.028031805
0.036728556
0.047717186
0.055192002
0.054692733
-0.0016532123
0.0057878259
0.013418044
0.020589866
0.027812159
0.036850038
0.04771721
0.056218135
0.063030924
0.059734982
0.0095124886
0.015248366
0.021600148
0.028609097
0.036850348
0.04541103
0.055192053
0.063030939
0.065048828
0.057691794
0.012312133
0.01569502
0.021890275
0.030275119
0.037707153
0.046613805
0.05469279
0.059735002
0.057691808
0.04771826
0.0052921871
0.0033634145
-0.0091011148
-0.014637935
-0.016850149
-0.011380117
-0.0070165877
-0.0020526498
0.0035096239
0.0043329646
0.0033634409
9.9548909e-05
-0.0097426805
-0.01325739
-0.011983083
-0.0066445649
-0.0026849418
0.0036691636
0.0081788849
0.0074203032
-0.0091010356
-0.0097426459
-0.013957601
-0.012870769
-0.0097811182
-0.0029796382
0.0026660789
0.0090540169
0.014944542
0.015273684
-0.014637792
-0.013257285
-0.012870705
-0.0098523312
-0.0051716106
0.0024857025
0.0076284793
0.015660995
0.023352703
0.025005784
-0.01684997
-0.011982931
-0.009780986
-0.0051715543
0.00022558313
0.0060844228
0.012370325
0.022598008
0.032453509
0.033090186
-0.011379873
-0.006644347
-0.0029794508
0.0024858386
0.0060844955
0.012808625
0.021968668
0.032218942
0.04102388
0.041463248
-0.0070163345
-0.0026846863
0.0026662842
0.0076286572
0.012370433
0.021968728
0.032265393
0.044144549
0.049772842
0.046052187
-0.0020523558
0.0036694585
0.0090542665
0.015661206
0.022598161
0.032219047
0.044144592
0.05139094
0.053068872
0.046390624
0.0035099216
0.0081791773
0.014944812
0.023352933
0.032453674
0.041023996
0.049772899
0.053068883
0.048614627
0.039809138
0.0043332871
0.0074206016
0.015273948
0.025006032
0.033090377
0.041463376
0.046052247
0.046390648
0.039809154
0.030432856
0.024727752
0.027673833
0.018283493
0.011804968
0.005734091
0.0038817115
0.00029329801
-0.0013351336
-0.00067370646
-0.0010813486
0.027673855
0.026508585
0.019819791
0.012648437
0.008007803
0.0051079316
0.0013304
0.0018881386
0.0031259697
0.001864672
0.018283571
0.01981983
0.012473366
0.0077418254
0.0034829394
0.0015839448
0.00027176921
0.0028986494
0.0070416476
0.0079289445
0.011805102
0.012648547
0.0077418784
0.002989588
-0.0010985055
-0.0015702595
-0.0011310056
0.0051432775
0.012198706
0.014009243
0.0057342635
0.0080079606
0.0034830662
-0.0010984492
-0.0049348843
-0.005059147
-0.0010240201
0.0081389197
0.017679083
0.017734416
0.0038819389
0.0051081467
0.0015841432
-0.001570136
-0.0050590838
-0.0019589205
0.0056913035
0.014664493
0.021355855
0.020857006
0.00029355663
0.0013306401
0.00027198515
-0.0011308556
-0.0010239261
0.0056913453
0.014274782
0.022280964
0.024700297
0.020342674
-0.0013348431
0.0018884087
0.0028988747
0.0051434618
0.0081390626
0.014664596
0.022281016
0.024168261
0.02292928
0.015715757
-0.00067339091
0.0031262757
0.0070419108
0.012198918
0.017679251
0.021355978
0.024700351
0.022929275
0.016031625
0.0082808578
-0.0010810278
0.0018649746
0.0079291965
0.014009457
0.017734592
0.020857131
0.020342751
0.015715778
0.0082808708
-2.6667305e-05
0.045325307
0.054780567
0.044530838
0.034487575
0.02363845
0.015652158
0.0072551328
0.0016498674
0.00066382204
0.0008700833
0.054780574
0.05550257
0.045213351
0.032730658
0.022758979
0.013942394
0.0053895894
0.0034410892
0.0046317626
0.0030664594
0.04453089
0.045213375
0.032844524
0.021807426
0.01053372
0.0025162448
-0.0023864792
-0.00084812725
0.0032380842
0.0035466641
0.034487684
0.032730754
0.021807474
0.0091124492
-0.00259979
-0.0087075835
-0.010535675
-0.0049687325
0.0013739042
0.0017833862
0.023638606
0.022759136
0.010533826
-0.0025997264
-0.013493635
-0.017698271
-0.014962401
-0.0079234369
-0.00070856656
-0.0018643079
0.015652337
0.013942585
0.0025163954
-0.0087074861
-0.017698207
-0.017134551
-0.012902612
-0.008094012
-0.0043771989
-0.00563271
0.007255357
0.0053897969
-0.0023862838
-0.01053553
-0.014962321
-0.012902574
-0.0096052987
-0.0083574954
-0.0077541915
-0.010516825
0.0016501096
0.0034413188
-0.00084792125
-0.0049685648
-0.0079233079
-0.0080939427
-0.0083574653
-0.011309483
-0.012897219
-0.017889297
0.00066411321
0.004632023
0.0032382999
0.0013740802
-0.00070841927
-0.0043770992
-0.0077541539
-0.012897216
-0.019116081
-0.02429883
0.00087037133
0.0030667246
0.0035468869
0.0017835687
-0.0018641715
-0.0056326264
-0.010516779
-0.017889286
-0.024298832
-0.031821014
0.059640073
0.067256226
0.054325645
0.04368017
0.030604505
0.021261355
0.012451365
0.0075029011
0.0079495454
0.0086035015
0.067256235
0.067296707
0.054649728
0.040440331
0.028018946
0.017928356
0.0097525567
0.0091837587
0.011649145
0.0083003868
0.054325692
0.054649781
0.039522391
0.025344775
0.011442036
0.0014223355
-0.0025051311
0.00019861232
0.0037309773
0.0017636089
0.043680254
0.040440402
0.025344819
0.009059427
-0.0067582908
-0.01359306
-0.014744935
-0.01032713
-0.0061967321
-0.0073916177
0.030604647
0.028019073
0.011442116
-0.00675825
-0.019649297
-0.024275571
-0.02320221
-0.020192651
-0.015635988
-0.016317643
0.021261508
0.017928513
0.0014224345
-0.013592984
-0.024275524
-0.026172364
-0.027689889
-0.027369189
-0.024860989
-0.02464584
0.012451538
0.0097527325
-0.0025050085
-0.014744833
-0.023202143
-0.027689852
-0.031047768
-0.034028945
-0.032661536
-0.03333074
0.0075030828
0.0091839493
0.00019876926
-0.010326999
-0.020192562
-0.027369142
-0.03402892
-0.038262685
-0.039079382
-0.041980581
0.0079497613
0.011649351
0.0037311462
-0.0061966022
-0.015635877
-0.024860921
-0.032661501
-0.039079371
-0.044598982
-0.046815182
0.0086037131
0.0083005698
0.001763774
-0.0073914894
-0.016317549
-0.024645781
-0.033330712
-0.041980566
-0.046815178
-0.049339537
0.051186484
0.056204772
0.042829172
0.035235985
0.024977355
0.019343183
0.014519689
0.012875292
0.014803283
0.01491613
0.056204807
0.051624688
0.041842476
0.031694702
0.022451067
0.016142074
0.012353779
0.014055974
0.016903009
0.011312913
0.042829214
0.041842517
0.029206451
0.017295094
0.0056441917
-0.00052736418
-0.0014172651
0.001645759
0.0041549925
0.0011124847
0.035236052
0.031694754
0.017295131
0.003059709
-0.010114644
-0.013629157
-0.014699874
-0.012382468
-0.01021391
-0.010937553
0.02497744
0.022451147
0.0056442586
-0.010114625
-0.019552367
-0.023819489
-0.025557738
-0.026136864
-0.022281403
-0.021476833
0.019343274
0.016142174
-0.00052726329
-0.013629109
-0.023819454
-0.028554961
-0.035101508
-0.037234745
-0.03417148
-0.032305436
0.014519821
0.012353912
-0.001417163
-0.014699809
-0.025557688
-0.035101466
-0.042940663
-0.046696811
-0.04425493
-0.043107574
0.012875411
0.014056105
0.001645862
-0.012382392
-0.02613682
-0.037234724
-0.046696794
-0.051482188
-0.050797113
-0.051636118
0.014803403
0.016903121
0.0041550961
-0.010213822
-0.022281335
-0.034171451
-0.044254912
-0.050797101
-0.054033357
-0.053525028
0.014916252
0.011313016
0.0011125846
-0.010937459
-0.021476765
-0.032305411
-0.043107563
-0.05163611
-0.053525016
-0.052640186
0.019882452
0.024543239
0.015980872
0.014871672
0.010813206
0.01205811
0.012549364
0.013817155
0.015467695
0.014245479
0.024543258
0.022171817
0.016310269
0.012474082
0.010041884
0.010542487
0.011614081
0.013883706
0.015498327
0.0094214329
0.015980905
0.0163103
0.0074353633
0.0023390835
-0.0026968582
-0.0024667411
-0.001196866
0.00087841608
0.0024762509
0.000298006
0.014871719
0.012474109
0.0023390973
-0.005094546
-0.010868157
-0.010228464
-0.011557
-0.011707196
-0.010319507
-0.0096825491
0.010813247
0.010041916
-0.002696815
-0.010868123
-0.014395372
-0.017059227
-0.020809965
-0.023675611
-0.019418636
-0.017692918
0.012058165
0.010542535
-0.0024666793
-0.010228437
-0.017059217
-0.022646363
-0.031039074
-0.033588181
-0.030073962
-0.028372528
0.012549432
0.011614153
-0.0011968029
-0.011556966
-0.020809956
-0.031039064
-0.039153013
-0.042843529
-0.041040473
-0.038062592
0.013817214
0.013883757
0.00087844498
-0.01170718
-0.023675614
-0.03358819
-0.042843543
-0.047824161
-0.046388215
-0.043478052
0.01546774
0.01549836
0.0024762848
-0.01031948
-0.019418625
-0.030073978
-0.041040499
-0.046388232
-0.046486429
-0.039920195
0.014245513
0.0094214631
0.00029803382
-0.0096825328
-0.01769291
-0.028372534
-0.038062616
-0.043478073
-0.039920204
-0.038840978
-0.013814427
-0.0091711972
-0.011584689
-0.0069514604
-0.0037604728
0.0030103555
0.007029332
0.0088339147
0.0090992589
0.007944417
-0.0091711978
-0.0089979006
-0.0093005801
-0.0065112748
-0.0021372862
0.0038391624
0.0073220941
0.0085710426
0.0091782303
0.004734977
-0.011584683
-0.0093005697
-0.012521329
-0.010658763
-0.0087345554
-0.0036975118
-0.0021248927
-0.0015339483
0.000623419
-0.00034153355
-0.0069514379
-0.0065112493
-0.010658744
-0.010419606
-0.0083312137
-0.0050266456
-0.006440009
-0.0075394073
-0.0063296675
-0.0056766809
-0.0037604661
-0.0021372793
-0.0087345437
-0.0083311885
-0.0062317423
-0.006192361
-0.0091897162
-0.012886976
-0.0098425217
-0.0090547715
0.0030103733
0.0038391646
-0.0036975052
-0.0050266511
-0.0061923681
-0.0086889887
-0.015796733
-0.018636586
-0.016332343
-0.016388223
0.007029336
0.0073220852
-0.0021248925
-0.0064400045
-0.0091897264
-0.01579675
-0.021935319
-0.025725851
-0.023965652
-0.021289231
0.0088338778
0.0085709857
-0.0015339913
-0.0075394464
-0.012886996
-0.018636614
-0.025725869
-0.029350673
-0.025628198
-0.021862379
0.0090992257
0.0091781706
0.00062335773
-0.0063297341
-0.0098425805
-0.016332388
-0.023965691
-0.02562821
-0.021217787
-0.014437215
0.0079443736
0.0047349293
-0.0003415878
-0.0056767372
-0.0090548368
-0.016388283
-0.021289269
-0.021862401
-0.01443724
-0.014410407
-0.043198451
-0.034356994
-0.033643702
-0.025242779
-0.016793866
-0.0071575758
-0.0022070516
-0.00034982523
0.00096346649
0.0014405117
-0.034356988
-0.033001127
-0.029641233
-0.021527194
-0.012562024
-0.0048534529
-0.00078504581
0.0015607123
0.0029813708
0.00064678188
-0.033643701
-0.029641234
-0.027961429
-0.020549602
-0.014659917
-0.0073867356
-0.0050372712
-0.0042603147
-0.00070408167
-0.00043521106
-0.02524279
-0.021527197
-0.020549608
-0.015245396
-0.0071955752
-0.0015328956
-0.0021656841
-0.0034239884
-0.0022172975
-0.0022200287
-0.016793889
-0.012562047
-0.014659941
-0.007195596
0.00076378951
0.0037171379
0.0022648289
-0.0018184539
-0.00048228598
-0.0016241574
-0.0071576353
-0.0048535058
-0.0073867708
-0.0015329502
0.0037171069
0.0056185529
0.00019952773
-0.0027540994
-0.0020356417
-0.0034232353
-0.0022071429
-0.0007851494
-0.0050373458
-0.0021657657
0.0022647736
0.00019948237
-0.0030499129
-0.0067089993
-0.0047184375
-0.0029860273
-0.00034994569
0.0015605891
-0.0042604101
-0.0034240893
-0.0018185253
-0.0027541706
-0.0067090273
-0.007645021
-0.0018281823
-0.00073486332
0.00096334091
0.0029812188
-0.00070422282
-0.0022174365
-0.00048240488
-0.0020357521
-0.0047185122
-0.0018282131
0.0054489896
0.0065838046
0.0014403664
0.00064662842
-0.00043535517
-0.0022201648
-0.0016242869
-0.0034233475
-0.00298609
-0.00073488244
0.0065837736
0.0013722478
-0.059659667
-0.048843086
-0.047113363
-0.036617143
-0.026955704
-0.017338168
-0.0116379
-0.0077433828
-0.0032835881
-0.0006514388
-0.048843109
-0.04555096
-0.041109367
-0.031539239
-0.021414636
-0.013610657
-0.0086160836
-0.0030629571
0.00092787633
0.00043369237
-0.047113382
-0.041109364
-0.038424082
-0.028244432
-0.020791124
-0.012379575
-0.0084000793
-0.0059345006
-0.00048385916
0.00038167701
-0.036617168
-0.031539259
-0.028244452
-0.020417248
-0.0082714562
-0.0002165879
0.00032555211
-0.0011031051
0.00011070935
0.00076201138
-0.026955764
-0.0214147
-0.020791178
-0.0082714718
0.0050514053
0.01094044
0.009773519
0.0046246827
0.0054104368
0.0050470984
-0.017338274
-0.01361077
-0.012379664
-0.00021665623
0.010940393
0.015583271
0.010896277
0.0081309778
0.0087761379
0.0066716748
-0.011638047
-0.008616237
-0.0084002083
0.00032544328
0.0097734255
0.010896228
0.009404247
0.0073407346
0.0084841077
0.0088305109
-0.0077435867
-0.00306316
-0.0059346713
-0.0011032622
0.0046245578
0.0081308903
0.0073407063
0.0080140058
0.012252235
0.01146658
-0.0032838056
0.00092765871
-0.00048407212
0.00011049943
0.0054102574
0.0087760101
0.0084840319
0.01225222
0.016335523
0.016810717
-0.0006516858
0.0004334503
0.00038146154
0.00076181399
0.0050469181
0.0066715312
0.0088304327
0.011466569
0.016810718
0.007591595
-0.061456098
-0.050948051
-0.048596184
-0.039693464
-0.031503594
-0.022943916
-0.015309731
-0.0081136335
-0.00041555786
0.0033663839
-0.050948065
-0.045642324
-0.042023288
-0.034688039
-0.025450039
-0.017160899
-0.0095836302
-0.0013536779
0.0047015956
0.0046179717
-0.048596212
-0.042023299
-0.041428408
-0.03139203
-0.022487558
-0.012385698
-0.0077241939
-0.0047317317
0.0027962156
0.0042961277
-0.039693529
-0.034688073
-0.031392049
-0.021147764
-0.0061323233
0.0025401691
0.0024656692
0.001386729
0.0046810632
0.0063447407
-0.031503696
-0.025450134
-0.022487617
-0.006132349
0.0093131137
0.015407072
0.013725415
0.009178031
0.011494064
0.011879903
-0.022944072
-0.017161038
-0.012385804
0.0025400777
0.015407036
0.020441345
0.017114116
0.015088803
0.016269649
0.013784142
-0.01530992
-0.0095838222
-0.0077243533
0.0024655265
0.013725302
0.017114063
0.01710799
0.015254415
0.016683626
0.016409526
-0.0081138599
-0.0013539266
-0.0047319462
0.0013865561
0.0091778776
0.015088701
0.015254364
0.014235412
0.017787937
0.016923033
-0.00041584642
0.0047013106
0.0027959559
0.0046808456
0.011493858
0.016269517
0.01668354
0.017787893
0.020343366
0.021730591
0.0033660704
0.0046176742
0.0042958756
0.0063445238
0.011879692
0.013783987
0.016409432
0.016922986
0.021730579
0.017273723
-0.05537181
-0.043215961
-0.041396168
-0.036482076
-0.030600068
-0.021385497
-0.010705041
-0.001470064
0.0074096737
0.010278546
-0.043215963
-0.035888988
-0.035552435
-0.03189533
-0.022702422
-0.01201076
-0.0025604204
0.006839386
0.012915556
0.011612942
-0.041396187
-0.035552465
-0.036877847
-0.027761054
-0.016642457
-0.005383752
-0.0011476972
0.0014009792
0.0097004553
0.010890437
-0.036482156
-0.031895397
-0.027761094
-0.015328742
0.00095809597
0.0080764501
0.0069449357
0.0069063722
0.012163791
0.014472978
-0.030600188
-0.02270254
-0.016642554
0.00095806036
0.014376725
0.018810342
0.017653976
0.015055479
0.019596427
0.01999894
-0.021385681
-0.012010927
-0.0053839065
0.0080763223
0.018810292
0.023249449
0.02194423
0.021818483
0.024113949
0.021103302
-0.010705285
-0.0025606733
-0.0011479097
0.0069447518
0.017653855
0.021944171
0.021853042
0.020424257
0.022638849
0.022458975
-0.0014703354
0.0068391031
0.0014007239
0.006906165
0.015055302
0.021818359
0.020424198
0.018981286
0.023372324
0.023252873
0.0074093434
0.012915227
0.0097001428
0.012163547
0.019596209
0.024113807
0.022638787
0.023372277
0.029948737
0.032435298
0.0102782
0.011612581
0.010890133
0.014472744
0.019998726
0.021103138
0.022458893
0.023252793
0.032435243
0.030636333
-0.047491703
-0.034149371
-0.035002471
-0.032499038
-0.027335378
-0.015842818
-0.0038919159
0.0045128429
0.012175814
0.012943491
-0.034149378
-0.027253908
-0.029873565
-0.026701699
-0.016084562
-0.0044770859
0.003944169
0.013401349
0.01788524
0.014596466
-0.035002511
-0.029873603
-0.029627415
-0.018709885
-0.007189306
0.0023836145
0.0052793077
0.0074133428
0.014781263
0.014360756
-0.03249914
-0.026701782
-0.018709924
-0.0039054811
0.0094477067
0.013160658
0.012112989
0.013504451
0.018210457
0.018696083
-0.027335535
-0.016084712
-0.0071894555
0.009447652
0.018676867
0.021232674
0.021829056
0.021776007
0.027552044
0.027230166
-0.015843047
-0.0044772628
0.0023834247
0.013160489
0.021232582
0.025642916
0.025215955
0.026976341
0.029983178
0.029342947
-0.0038921927
0.0039438611
0.0052790565
0.012112784
0.021828939
0.025215915
0.025402814
0.027302308
0.030387783
0.031419787
0.0045124922
0.013401033
0.0074130488
0.013504238
0.021775838
0.026976213
0.027302217
0.029305618
0.035912685
0.035238747
0.012175421
0.017884924
0.014780921
0.018210173
0.027551779
0.029982984
0.03038773
0.035912647
0.042863695
0.046286474
0.012943109
0.014596052
0.01436035
0.018695778
0.027229931
0.029342744
0.031419759
0.035238706
0.046286337
0.04431179
-0.045348951
-0.039421813
-0.039422944
-0.032290283
-0.027449
-0.016711334
-0.0058705291
-0.001401635
0.0046099615
0.0053187152
-0.039421811
-0.033915117
-0.033728786
-0.028883326
-0.01776299
-0.010098486
-0.0048467697
0.0042225283
0.0072502303
0.0053139669
-0.039422998
-0.033728829
-0.030759112
-0.019542338
-0.0099827851
-0.0043006644
-0.0010648758
0.0035343707
0.010119384
0.0058595616
-0.032290407
-0.028883468
-0.019542363
-0.00400043
0.0066234083
0.0077220688
0.0094220122
0.012567036
0.016757569
0.012009146
-0.027449196
-0.017763176
-0.0099830009
0.0066234027
0.014805731
0.016701624
0.020196976
0.020075305
0.025664011
0.025602318
-0.016711681
-0.010098635
-0.0043008464
0.0077219217
0.016701499
0.02187375
0.024193831
0.026236451
0.029746221
0.030028816
-0.0058708158
-0.0048471235
-0.0010651633
0.0094217204
0.020196782
0.024193789
0.026127008
0.029887146
0.036456955
0.03950929
-0.0014020384
0.0042221218
0.0035339971
0.012566773
0.020075195
0.026236414
0.029887001
0.033962644
0.045481065
0.046851525
0.0046094219
0.0072499301
0.010119081
0.016757303
0.025663776
0.029745977
0.036456811
0.045481027
0.058605496
0.059145868
0.0053182694
0.0053136426
0.0058591624
0.012008815
0.025602101
0.030028482
0.039509244
0.046851641
0.059145728
0.052480043
-0.052122082
-0.061341942
-0.058893014
-0.036906926
-0.027403488
-0.018261796
-0.008470028
-0.01109341
-0.0083740268
-0.0038241656
-0.061341946
-0.065025615
-0.057355092
-0.037846953
-0.020492184
-0.017323341
-0.015620623
-0.010355617
-0.011796086
-0.0060440455
-0.058893103
-0.057355103
-0.048037179
-0.033365094
-0.023565051
-0.020733275
-0.01660359
-0.0059622409
-0.00041566184
0.00025255658
-0.036907083
-0.03784715
-0.033364982
-0.024322555
-0.014010125
-0.012551404
-0.010896211
0.0037867254
0.012613653
0.0030252739
-0.027403597
-0.020492429
-0.023565475
-0.014010109
-0.00037279567
0.0028442552
0.0035924246
0.0088491023
0.019128881
0.012373281
-0.018262382
-0.017323475
-0.020733478
-0.012551399
0.0028442135
0.016415945
0.022350422
0.025353396
0.024360142
0.021691625
-0.0084703375
-0.015620847
-0.016603709
-0.010896482
0.0035920021
0.022350248
0.025865611
0.027952609
0.028687477
0.035775587
-0.011093814
-0.010356126
-0.0059627182
0.003786284
0.0088488703
0.025353629
0.027952549
0.025280638
0.034125238
0.04712009
-0.0083749886
-0.011796672
-0.00041598659
0.012613417
0.0191288
0.024360155
0.028687289
0.034125003
0.057052116
0.072998374
-0.0038251177
-0.0060447009
0.00025194681
0.0030247968
0.0123732
0.021691234
0.035775354
0.047120319
0.072998226
0.074718505
)
;

boundaryField
{
    block1_in
    {
        type            calculated;
        value           nonuniform List<scalar> 
100
(
2075375.5
-200206.66
-200206.64
-200206.64
-200206.68
-200206.73
-200206.78
-200206.83
-200206.87
-200206.91
-200206.97
-200206.64
-200206.63
-200206.64
-200206.68
-200206.74
-200206.79
-200206.83
-200206.87
-200206.91
-200206.97
-200206.65
-200206.64
-200206.67
-200206.72
-200206.77
-200206.82
-200206.86
-200206.9
-200206.94
-200206.97
-200206.68
-200206.69
-200206.73
-200206.77
-200206.82
-200206.87
-200206.91
-200206.94
-200206.97
-200206.99
-200206.74
-200206.75
-200206.78
-200206.82
-200206.87
-200206.91
-200206.95
-200206.98
-200207
-200206.99
-200206.79
-200206.8
-200206.83
-200206.87
-200206.91
-200206.96
-200206.99
-200207.01
-200207.02
-200207
-200206.84
-200206.84
-200206.87
-200206.91
-200206.95
-200206.99
-200207.02
-200207.04
-200207.04
-200207.01
-200206.87
-200206.88
-200206.9
-200206.94
-200206.98
-200207.01
-200207.03
-200207.04
-200207.05
-200207.03
-200206.91
-200206.92
-200206.94
-200206.97
-200207
-200207.02
-200207.04
-200207.05
-200207.07
-200207.05
-200206.94
-200206.96
-200206.98
-200207
-200207.02
-200207.03
-200207.05
-200207.07
-200207.1
)
;
    }
    block1_out
    {
        type            calculated;
        value           nonuniform List<scalar> 
100
(
-2528515.6
-2528515.6
-2528515.6
-2528515.6
-2528515.6
-2528515.6
-2528515.6
-2528515.6
-2528515.6
-2528515.6
-2528515.6
-2528515.6
-2528515.6
-2528515.6
-2528515.6
-2528515.6
-2528515.6
-2528515.6
-2528515.6
-2528515.6
-2528515.6
-2528515.6
-2528515.6
-2528515.6
-2528515.6
-2528515.6
-2528515.6
-2528515.6
-2528515.6
-2528515.6
-2528515.6
-2528515.6
-2528515.6
-2528515.6
-2528515.6
-2528515.6
-2528515.6
-2528515.6
-2528515.6
-2528515.6
-2528515.6
-2528515.6
-2528515.6
-2528515.6
-2528515.6
-2528515.6
-2528515.6
-2528515.6
-2528515.6
-2528515.6
-2528515.6
-2528515.6
-2528515.6
-2528515.6
-2528515.6
-2528515.6
-2528515.6
-2528515.6
-2528515.6
-2528515.6
-2528515.6
-2528515.6
-2528515.6
-2528515.6
-2528515.6
-2528515.6
-2528515.6
-2528515.6
-2528515.6
-2528515.6
-2528515.6
-2528515.6
-2528515.6
-2528515.6
-2528515.6
-2528515.6
-2528515.6
-2528515.6
-2528515.6
-2528515.6
-2528515.6
-2528515.6
-2528515.6
-2528515.6
-2528515.6
-2528515.6
-2528515.6
-2528515.6
-2528515.6
-2528515.6
-2528515.6
-2528515.6
-2528515.6
-2528515.6
-2528515.6
-2528515.6
-2528515.6
-2528515.6
-2528515.6
-2528515.6
)
;
    }
    block1_wall1
    {
        type            calculated;
        value           nonuniform List<scalar> 
200
(
2075379.7
-200206.47
-200206.47
-200206.45
-200206.47
-200206.53
-200206.6
-200206.64
-200206.72
-200206.75
-187559.74
-200206.13
-200206.13
-200206.14
-200206.19
-200206.27
-200206.35
-200206.39
-200206.44
-200206.49
-187559.38
-200205.85
-200205.86
-200205.89
-200205.95
-200206.03
-200206.11
-200206.17
-200206.21
-200206.25
-187559.06
-200205.62
-200205.63
-200205.66
-200205.73
-200205.8
-200205.88
-200205.93
-200205.98
-200206.01
-187558.78
-200205.44
-200205.46
-200205.49
-200205.56
-200205.62
-200205.68
-200205.73
-200205.77
-200205.8
-187558.57
-200205.33
-200205.36
-200205.37
-200205.42
-200205.47
-200205.53
-200205.57
-200205.61
-200205.63
-187558.46
-200205.28
-200205.29
-200205.29
-200205.33
-200205.36
-200205.41
-200205.45
-200205.48
-200205.49
-187558.42
-200205.24
-200205.23
-200205.23
-200205.26
-200205.28
-200205.32
-200205.35
-200205.38
-200205.39
-187558.42
-200205.19
-200205.19
-200205.19
-200205.2