/*--------------------------------*- C++ -*----------------------------------*\
| =========                 |                                                 |
| \\      /  F ield         | OpenFOAM: The Open Source CFD Toolbox           |
|  \\    /   O peration     | Version:  v2106                                 |
|   \\  /    A nd           | Website:  www.openfoam.com                      |
|    \\/     M anipulation  |                                                 |
\*---------------------------------------------------------------------------*/
FoamFile
{
    version     2.0;
    format      ascii;
    arch        "LSB;label=32;scalar=64";
    class       volScalarField;
    location    "0";
    object      Tmode5;
}
// * * * * * * * * * * * * * * * * * * * * * * * * * * * * * * * * * * * * * //

dimensions      [0 0 0 1 0 0 0];

internalField   nonuniform List<scalar> 
2000
(
0.025415478
0.029846714
0.037580386
0.033624148
0.025416715
0.0042541712
-0.018188237
-0.02935009
-0.031788809
-0.027268173
0.029846725
0.037818013
0.040241166
0.030831405
0.013278784
-0.0081605477
-0.025633695
-0.035303898
-0.033935389
-0.023727423
0.037580372
0.040241153
0.030979979
0.017228566
-0.00029924562
-0.015084882
-0.026956019
-0.031979036
-0.028643937
-0.021188754
0.033624118
0.030831386
0.017228557
0.0021796976
-0.009662266
-0.018892516
-0.024086223
-0.024570212
-0.026142716
-0.023162005
0.025416665
0.01327876
-0.00029925554
-0.0096622725
-0.016081848
-0.018823643
-0.019197658
-0.021912913
-0.027233448
-0.025650611
0.0042541216
-0.0081605796
-0.015084902
-0.01889252
-0.018823649
-0.018408542
-0.020194232
-0.023393508
-0.026817018
-0.026030077
-0.018188289
-0.025633732
-0.026956036
-0.024086229
-0.019197662
-0.020194231
-0.022441354
-0.02174309
-0.024538439
-0.026775991
-0.02935012
-0.035303923
-0.03197906
-0.024570221
-0.021912913
-0.02339351
-0.021743083
-0.021487848
-0.022247257
-0.023849767
-0.031788821
-0.033935416
-0.028643969
-0.02614274
-0.027233461
-0.026817025
-0.024538436
-0.022247247
-0.02134837
-0.024403823
-0.027268167
-0.023727438
-0.021188785
-0.023162045
-0.025650639
-0.026030098
-0.026775998
-0.023849766
-0.024403803
-0.023949197
0.05156147
0.059083444
0.05709096
0.042739411
0.027246555
0.013649653
-0.0013896872
-0.010651647
-0.0051427448
0.001576139
0.059083443
0.063628464
0.052555609
0.037252969
0.023263716
0.0049339376
-0.0056614083
-0.0053981818
-0.0028486922
0.0038376476
0.057090949
0.052555605
0.040916365
0.02679659
0.010623798
-0.0010836025
-0.0053832305
-0.006517259
-0.0029100098
0.0041661873
0.042739395
0.037252953
0.026796579
0.013240654
0.0014395165
-0.0034854409
-0.0057183074
-0.0059343945
-0.0026917729
-0.0007384472
0.027246527
0.023263693
0.010623782
0.001439508
-0.0028479902
-0.0069312907
-0.0079350066
-0.0071843351
-0.0091641816
-0.010612797
0.01364963
0.0049339186
-0.0010836139
-0.0034854542
-0.0069312981
-0.009981309
-0.010017508
-0.013410063
-0.018485715
-0.018221407
-0.0013897046
-0.0056614231
-0.0053832312
-0.005718311
-0.0079350204
-0.01001751
-0.01496466
-0.020336062
-0.022731397
-0.021528698
-0.010651663
-0.0053981877
-0.0065172636
-0.0059344039
-0.0071843488
-0.013410075
-0.020336067
-0.022964812
-0.022299082
-0.021994352
-0.0051427679
-0.0028487064
-0.0029100214
-0.0026917859
-0.0091641917
-0.018485735
-0.0227314
-0.022299087
-0.022967225
-0.023505787
0.0015761296
0.0038376357
0.0041661848
-0.0007384609
-0.010612821
-0.018221439
-0.021528716
-0.021994363
-0.023505775
-0.020577444
0.061425606
0.060909458
0.052216383
0.038030171
0.027827713
0.020988205
0.017713689
0.019599035
0.025126324
0.028651434
0.060909452
0.057045654
0.045375715
0.031151722
0.024010527
0.020802409
0.01744524
0.021298676
0.027850828
0.0300271
0.052216374
0.045375708
0.033395928
0.024874401
0.019485364
0.016373471
0.016491863
0.020402273
0.024418422
0.02401795
0.03803016
0.031151709
0.02487439
0.018061674
0.013576153
0.012826092
0.01348654
0.014473369
0.015481323
0.013109187
0.027827693
0.024010507
0.019485351
0.013576141
0.009974999
0.0083386552
0.0064500832
0.0055238928
0.0030992652
0.00051379942
0.02098819
0.020802393
0.016373458
0.012826085
0.0083386528
0.003768863
-0.00014718557
-0.0040305232
-0.007920511
-0.0095824839
0.017713679
0.017445242
0.016491863
0.013486534
0.0064500792
-0.00014719142
-0.0063826122
-0.011772813
-0.015027362
-0.014997998
0.019599035
0.021298673
0.020402267
0.014473348
0.0055238758
-0.0040305398
-0.011772813
-0.016320371
-0.017797797
-0.016521523
0.025126311
0.027850825
0.024418421
0.015481313
0.0030992555
-0.0079205364
-0.01502738
-0.017797808
-0.017836006
-0.015860444
0.028651435
0.030027106
0.024017941
0.013109177
0.00051376974
-0.0095825157
-0.014998023
-0.016521527
-0.015860435
-0.01416301
0.041560383
0.03705785
0.02827611
0.021252241
0.022687727
0.026217006
0.02814665
0.034588599
0.039145663
0.03678842
0.037057848
0.027888688
0.02113508
0.019773367
0.022504648
0.025755041
0.030034664
0.0358024
0.036693574
0.032765834
0.028276111
0.021135076
0.018589674
0.018242675
0.020061158
0.023430406
0.026835683
0.028122518
0.02718159
0.023354065
0.021252234
0.019773355
0.018242672
0.016472497
0.017742056
0.019353425
0.018401238
0.017238385
0.015938584
0.011425906
0.022687713
0.022504648
0.020061153
0.01774205
0.016040729
0.012992055
0.0092540938
0.0072598809
0.0038734855
-0.00046494214
0.026217009
0.025755029
0.023430409
0.019353422
0.012992058
0.0066970195
0.0022334307
-0.002252437
-0.0063282631
-0.0084816973
0.028146649
0.030034672
0.026835682
0.018401246
0.0092540957
0.0022334191
-0.0045472267
-0.0093633773
-0.010860042
-0.011912821
0.034588603
0.035802414
0.028122523
0.017238384
0.0072598775
-0.0022524489
-0.0093633871
-0.011254332
-0.012069866
-0.012756622
0.039145689
0.036693585
0.027181595
0.015938595
0.0038734704
-0.0063282831
-0.010860055
-0.012069873
-0.012448459
-0.013085783
0.036788441
0.032765862
0.023354079
0.011425911
-0.00046495699
-0.008481723
-0.011912843
-0.012756626
-0.013085774
-0.013695508
0.016553534
0.0072480267
0.0069396302
0.009898472
0.0159212
0.023129964
0.027097009
0.02837562
0.026531712
0.021135829
0.0072480217
0.0038810808
0.0052251211
0.0099527879
0.01757925
0.022369004
0.023626711
0.023614279
0.019602652
0.013122772
0.0069396303
0.0052251238
0.0084169025
0.0125121
0.016292825
0.017284835
0.016571647
0.013551734
0.0088614848
0.0033413899
0.0098984719
0.0099527806
0.012512103
0.013632093
0.013485073
0.011298766
0.0071890184
0.0028650661
-0.0013456485
-0.00612641
0.015921205
0.017579255
0.016292833
0.01348508
0.0094722294
0.0036116513
-0.002033391
-0.0056519553
-0.0098545608
-0.013703802
0.023129967
0.022369021
0.017284849
0.011298778
0.0036116589
-0.0037292338
-0.0082029186
-0.012094663
-0.015786341
-0.01753201
0.027097039
0.023626731
0.016571671
0.0071890331
-0.0020334014
-0.0082029163
-0.012925159
-0.015846948
-0.017016007
-0.018573219
0.02837565
0.023614315
0.013551758
0.0028650876
-0.0056519537
-0.012094664
-0.015846948
-0.016025123
-0.017052762
-0.019082184
0.026531748
0.0196027
0.0088615171
-0.0013456296
-0.0098545575
-0.015786351
-0.017016018
-0.017052769
-0.018359781
-0.020877127
0.021135894
0.013122814
0.0033414411
-0.0061263885
-0.013703796
-0.017532022
-0.018573231
-0.019082183
-0.02087713
-0.023902611
0.0018746163
-0.00050072619
0.0044512563
0.0089199593
0.013644136
0.015172727
0.011499678
0.0062912706
-0.00047997396
-0.0073175303
-0.00050072684
0.0024252711
0.0072552757
0.011059877
0.013468817
0.01085352
0.0049999358
-0.0020244868
-0.010247802
-0.015638821
0.0044512665
0.0072552729
0.011101484
0.012907648
0.010704844
0.0043534676
-0.003089237
-0.011489811
-0.018798494
-0.022130273
0.0089199633
0.01105989
0.012907652
0.011021976
0.0047310079
-0.0035266
-0.012081201
-0.019438008
-0.024467181
-0.026603475
0.013644152
0.013468826
0.010704847
0.0047310132
-0.003547954
-0.012296607
-0.019146888
-0.023474474
-0.027730485
-0.029427746
0.015172751
0.010853534
0.0043534778
-0.0035265794
-0.012296596
-0.018937331
-0.022364805
-0.026079137
-0.029628946
-0.030791959
0.011499716
0.0049999765
-0.0030892074
-0.012081175
-0.019146871
-0.022364805
-0.02512193
-0.027534523
-0.029826591
-0.031670982
0.0062913266
-0.0020244396
-0.011489768
-0.019437976
-0.023474455
-0.026079138
-0.027534519
-0.028356253
-0.031037761
-0.033766291
-0.00047989928
-0.010247731
-0.018798435
-0.024467143
-0.027730463
-0.02962894
-0.029826604
-0.031037758
-0.034299056
-0.037211707
-0.0073174475
-0.015638743
-0.022130211
-0.026603429
-0.029427723
-0.030791956
-0.031670996
-0.033766295
-0.037211704
-0.039680993
0.011207759
0.016655844
0.020851695
0.019854177
0.015721319
0.008017657
-0.0034916649
-0.014798026
-0.023993315
-0.028426204
0.016655845
0.022840943
0.024482621
0.021286306
0.014431998
0.0024812251
-0.010865602
-0.02260911
-0.031194454
-0.032784456
0.020851694
0.024482624
0.024443153
0.019500125
0.0090297213
-0.004621184
-0.017293483
-0.028209336
-0.034994175
-0.034858772
0.019854187
0.021286309
0.019500129
0.011803413
-0.00046330211
-0.012557946
-0.023337464
-0.031706399
-0.036260509
-0.035991624
0.015721321
0.014432012
0.009029723
-0.00046329072
-0.010584816
-0.019983552
-0.027390932
-0.032619655
-0.037137685
-0.037567556
0.0080176942
0.0024812548
-0.0046211591
-0.012557915
-0.019983543
-0.025615531
-0.029335744
-0.034373437
-0.038934644
-0.040004079
-0.003491609
-0.010865548
-0.017293432
-0.023337431
-0.027390907
-0.02933575
-0.032676381
-0.037041041
-0.041528984
-0.043171926
-0.014797959
-0.022609036
-0.028209273
-0.031706355
-0.032619629
-0.034373417
-0.037041035
-0.041064548
-0.045731341
-0.047289386
-0.023993214
-0.031194365
-0.034994102
-0.036260447
-0.037137646
-0.038934627
-0.041528987
-0.045731346
-0.049608305
-0.050499076
-0.028426096
-0.03278436
-0.034858688
-0.035991561
-0.037567508
-0.040004071
-0.043171916
-0.047289394
-0.050499068
-0.049012223
0.035429579
0.043574116
0.041977399
0.03338366
0.021753786
0.0068643977
-0.0083579488
-0.020409149
-0.027789419
-0.029096075
0.043574119
0.048292682
0.044202867
0.033757277
0.019389836
0.0027946696
-0.012282328
-0.023469933
-0.029714576
-0.028946541
0.041977392
0.044202877
0.03882564
0.027681102
0.012756724
-0.0026590363
-0.015160211
-0.024781049
-0.029915301
-0.02880598
0.033383671
0.03375729
0.027681108
0.016522814
0.0033949998
-0.0081342504
-0.018185492
-0.026008705
-0.030367958
-0.030113339
0.021753818
0.019389854
0.012756745
0.0033950131
-0.0053531173
-0.01401459
-0.021461573
-0.027674604
-0.03281149
-0.033587035
0.006864441
0.0027947098
-0.0026589995
-0.008134223
-0.014014581
-0.019647734
-0.024896116
-0.031731284
-0.037320285
-0.038386134
-0.0083578829
-0.012282264
-0.015160151
-0.018185452
-0.021461555
-0.024896114
-0.03063216
-0.037447181
-0.042856555
-0.043331884
-0.020409047
-0.023469838
-0.024780969
-0.026008654
-0.027674572
-0.031731269
-0.037447174
-0.043961404
-0.048094887
-0.047142936
-0.02778931
-0.029714469
-0.029915212
-0.03036789
-0.032811439
-0.03732026
-0.042856564
-0.048094892
-0.050129897
-0.047145895
-0.029095959
-0.028946439
-0.028805893
-0.030113271
-0.033586981
-0.038386107
-0.043331881
-0.04714293
-0.0471459
-0.042061563
0.053682745
0.058472239
0.051972948
0.039024057
0.024025663
0.0096329279
-0.0020708441
-0.010144565
-0.014151244
-0.013949006
0.058472233
0.060493645
0.051097334
0.036936265
0.022054783
0.008575601
-0.0018034744
-0.0085197953
-0.011872912
-0.011569025
0.051972967
0.051097336
0.041908613
0.029644837
0.016900003
0.0063202578
-0.0010791251
-0.0070585889
-0.010975215
-0.011659846
0.039024067
0.036936271
0.029644849
0.020066412
0.011136561
0.0042717725
-0.0020920408
-0.0081072115
-0.012747797
-0.014507686
0.024025686
0.022054802
0.016900006
0.011136564
0.0061415145
0.00056368895
-0.0053044876
-0.011606749
-0.017244879
-0.019180291
0.0096329632
0.0085756308
0.0063202918
0.0042717922
0.00056370643
-0.004255986
-0.010225931
-0.017499553
-0.022904684
-0.023738426
-0.0020707751
-0.0018034112
-0.0010790663
-0.002092004
-0.0053044838
-0.010225926
-0.017207119
-0.023959627
-0.027805635
-0.026585971
-0.010144469
-0.0085197065
-0.0070585187
-0.0081071517
-0.011606719
-0.017499543
-0.023959633
-0.02901976
-0.02992382
-0.026502981
-0.01415112
-0.011872796
-0.010975112
-0.012747727
-0.017244834
-0.022904672
-0.027805638
-0.029923823
-0.028299294
-0.022392844
-0.013948887
-0.011568914
-0.011659751
-0.014507612
-0.019180233
-0.023738406
-0.026585977
-0.026502991
-0.022392847
-0.016038501
0.049160183
0.049247749
0.040036834
0.027324874
0.015994533
0.0089426665
0.0047385314
0.0026873378
0.0023219372
0.0026776592
0.049247756
0.046570178
0.035954913
0.023672307
0.015108056
0.010048922
0.0077183901
0.0068101898
0.0059504818
0.0047747364
0.040036829
0.035954916
0.026895397
0.018719277
0.013440937
0.011378761
0.010887079
0.0092402526
0.0066037893
0.0040694221
0.027324873
0.023672311
0.018719273
0.01458691
0.012969495
0.012929201
0.011711481
0.0086736619
0.0046998685
0.001679027
0.015994537
0.015108064
0.013440951
0.012969495
0.013439244
0.012687771
0.010171601
0.0060314855
0.0016748108
-0.00022355161
0.0089426982
0.010048952
0.011378782
0.012929228
0.012687768
0.010652164
0.0069654866
0.0025821001
-0.00016326358
0.00013137679
0.0047385825
0.0077184461
0.010887125
0.01171151
0.010171615
0.006965489
0.0030145658
0.00059867852
0.00077898665
0.0034376144
0.0026874256
0.0068102729
0.0092403223
0.0086737123
0.0060315028
0.002582112
0.00059867732
0.0013423203
0.0047124113
0.0091685306
0.0023220555
0.0059505876
0.0066038673
0.0046999271
0.0016748592
-0.00016323835
0.00077898518
0.0047124136
0.010311004
0.015243856
0.0026777715
0.0047748434
0.0040695136
0.0016790918
-0.00022350601
0.00013139727
0.0034376208
0.0091685233
0.015243851
0.020098979
0.0207688
0.016719098
0.0080131235
-1.0149812e-05
-0.0025205637
-0.00071701152
0.0027373053
0.0064468835
0.0091529088
0.0094662777
0.016719096
0.010503556
0.002207458
-0.0031058308
-0.0026932852
0.0010103287
0.0060216368
0.010226423
0.011766636
0.010405025
0.0080131241
0.00220746
-0.0030700351
-0.004306393
-0.001279386
0.0043393834
0.010048014
0.012998465
0.012837175
0.010739345
-1.0147763e-05
-0.0031058405
-0.0043063982
-0.0022861747
0.0028587487
0.0091592129
0.013540107
0.014987252
0.013906794
0.012204178
-0.0025205513
-0.0026932851
-0.0012793858
0.0028587556
0.0086807472
0.013572871
0.016446412
0.017203807
0.016736477
0.016738776
-0.00071699098
0.0010103472
0.0043393955
0.0091592239
0.013572879
0.016869671
0.019070829
0.020751704
0.022760552
0.024581236
0.0027373533
0.0060216748
0.010048055
0.013540139
0.01644643
0.019070841
0.022284707
0.026889336
0.031587818
0.034342897
0.0064469676
0.010226503
0.012998523
0.014987305
0.017203842
0.020751723
0.026889342
0.034506143
0.040816818
0.043683786
0.0091530116
0.011766736
0.012837254
0.013906852
0.016736516
0.022760585
0.031587831
0.040816826
0.047547724
0.048903962
0.009466384
0.010405116
0.010739411
0.012204239
0.016738821
0.024581267
0.03434291
0.043683782
0.048903954
0.049014493
-0.018762055
-0.026221575
-0.030867983
-0.031102647
-0.025477941
-0.017176054
-0.008551428
-0.0010648426
0.0037604552
0.0048951841
-0.026221572
-0.032664583
-0.036003408
-0.033259208
-0.02588827
-0.016345773
-0.0066647238
0.0010605957
0.0050633745
0.0055429226
-0.03086798
-0.03600341
-0.0361191
-0.031192899
-0.022320464
-0.01167441
-0.001731161
0.0050634205
0.0082834937
0.0088338217
-0.031102647
-0.033259214
-0.031192903
-0.024410558
-0.014505203
-0.0035947413
0.0053938949
0.011474811
0.014633968
0.015768524
-0.025477939
-0.025888269
-0.022320473
-0.014505195
-0.0042010724
0.0057311711
0.014178625
0.020494924
0.024635544
0.02674823
-0.017176027
-0.016345748
-0.011674389
-0.0035947273
0.0057311823
0.015092291
0.023942404
0.031687561
0.037557824
0.039799799
-0.008551377
-0.0066646661
-0.0017311286
0.0053939334
0.01417864
0.023942406
0.034357309
0.044305275
0.050932916
0.052300372
-0.0010647621
0.0010606687
0.0050634915
0.011474861
0.020494945
0.03168758
0.04430528
0.055266838
0.061389338
0.060733595
0.0037605541
0.0050634689
0.0082835715
0.014634021
0.024635577
0.037557848
0.050932934
0.061389348
0.065448895
0.062991909
0.0048952725
0.005543012
0.0088339023
0.015768577
0.026748263
0.039799829
0.052300402
0.060733597
0.062991921
0.058135382
-0.053867877
-0.060881852
-0.060067235
-0.053681736
-0.043777003
-0.032543049
-0.021933497
-0.012951748
-0.0068619608
-0.0040556637
-0.060881843
-0.065471871
-0.062791178
-0.055010492
-0.043982687
-0.031960613
-0.020675698
-0.011578075
-0.0055843641
-0.0024525368
-0.060067234
-0.062791174
-0.058691689
-0.049722725
-0.03777141
-0.025327252
-0.014108024
-0.005422604
0.00060774782
0.0038825078
-0.053681729
-0.055010497
-0.049722729
-0.039580197
-0.027201249
-0.014606989
-0.0036629663
0.0051409175
0.011184341
0.014410328
-0.043776994
-0.043982684
-0.037771405
-0.027201249
-0.014461452
-0.0020626587
0.0093128296
0.018494667
0.024680894
0.027447626
-0.032543013
-0.031960588
-0.025327242
-0.014606974
-0.0020626591
0.010802407
0.022767947
0.032540629
0.038814478
0.039936248
-0.021933446
-0.020675646
-0.014107992
-0.0036629431
0.0093128495
0.02276795
0.035544163
0.045761512
0.050733552
0.049804277
-0.01295166
-0.011577997
-0.0054225256
0.0051409651
0.018494681
0.032540635
0.04576152
0.054734149
0.057513565
0.053911337
-0.0068618583
-0.0055842627
0.00060782846
0.011184394
0.024680922
0.038814496
0.050733569
0.057513574
0.057792956
0.052280362
-0.0040555625
-0.0024524359
0.0038825914
0.014410388
0.027447664
0.039936275
0.049804293
0.053911349
0.052280369
0.045552272
-0.070093294
-0.072812133
-0.06786239
-0.058813905
-0.047868454
-0.036821019
-0.026884559
-0.01860803
-0.012453506
-0.0083867035
-0.072812125
-0.073892605
-0.067352769
-0.057696987
-0.045932928
-0.034608234
-0.024680171
-0.016509951
-0.010052063
-0.0054151062
-0.067862376
-0.067352762
-0.060586245
-0.049716218
-0.037656205
-0.026660346
-0.01710576
-0.0091095844
-0.0026364031
0.0018098165
-0.058813889
-0.05769698
-0.049716218
-0.038341927
-0.026544648
-0.015716978
-0.0063077228
0.0017444561
0.0075084234
0.01100152
-0.047868429
-0.045932916
-0.037656206
-0.026544648
-0.01483872
-0.0041590166
0.0055838145
0.013194288
0.017997054
0.019879014
-0.036820982
-0.034608207
-0.026660327
-0.015716969
-0.0041590012
0.0068450109
0.016485462
0.023412064
0.026895229
0.026888682
-0.026884493
-0.02468012
-0.017105718
-0.0063076804
0.0055838357
0.016485473
0.025685934
0.03138074
0.032581207
0.030162197
-0.018607935
-0.016509857
-0.0091095071
0.0017445056
0.013194315
0.02341207
0.031380744
0.034583329
0.033374087
0.029104055
-0.012453397
-0.010051959
-0.0026363085
0.0075084849
0.01799708
0.026895241
0.032581225
0.033374088
0.030518281
0.024834103
-0.008386588
-0.0054149977
0.0018099111
0.011001579
0.019879044
0.026888702
0.0301622
0.029104061
0.02483411
0.020245117
-0.060449274
-0.058471618
-0.051544942
-0.042874393
-0.03343902
-0.024900257
-0.017756935
-0.012057476
-0.0074003894
-0.0036409374
-0.058471608
-0.055050916
-0.047884116
-0.038560306
-0.028821151
-0.020647707
-0.014237553
-0.0089350236
-0.0041958244
-0.00019293805
-0.051544919
-0.047884105
-0.040103637
-0.030122373
-0.021014325
-0.014079674
-0.0085390124
-0.0036214498
0.0006881034
0.0039757483
-0.042874369
-0.038560293
-0.030122369
-0.020821489
-0.013148093
-0.0072815469
-0.0022354053
0.0020500507
0.0052063884
0.0074506782
-0.033439001
-0.028821138
-0.021014305
-0.01314809
-0.006690312
-0.0014224364
0.0032338924
0.0062533096
0.0083304755
0.0096337359
-0.02490021
-0.020647662
-0.014079647
-0.0072815219
-0.0014224233
0.0034671066
0.0069649799
0.0086493342
0.0093070757
0.0091410036
-0.017756865
-0.014237484
-0.0085389576
-0.0022353718
0.0032339125
0.0069649842
0.0091258134
0.0090284394
0.0075864279
0.0054278276
-0.01205738
-0.0089349322
-0.0036213757
0.0020500983
0.0062533324
0.0086493394
0.0090284464
0.0066851871
0.0035872251
0.0011358229
-0.0074002773
-0.0041957226
0.00068819434
0.005206448
0.0083304987
0.0093070779
0.0075864315
0.0035872298
-0.00085516409
-0.0021298616
-0.0036408298
-0.00019284385
0.0039758446
0.0074507365
0.0096337726
0.0091410137
0.0054278327
0.0011358354
-0.002129861
-0.0031269058
-0.03226964
-0.026547298
-0.020024302
-0.013412665
-0.0072355248
-0.0023227655
0.00085062356
0.0029795992
0.0048371856
0.0066513845
-0.026547284
-0.02048648
-0.01414409
-0.0071906093
-0.001363099
0.0021814293
0.0040492176
0.0052977181
0.0066798414
0.0081100147
-0.020024284
-0.014144078
-0.0073795843
-0.0012587966
0.0024333965
0.0040065318
0.0044938881
0.0050134672
0.0065243116
0.0078330519
-0.013412633
-0.0071905937
-0.0012587914
0.0025044789
0.0039133464
0.0037393581
0.0032630734
0.0034232434
0.0047390212
0.0057689465
-0.0072354914
-0.0013630781
0.002433429
0.0039133574
0.0033814551
0.0019856649
0.00077190114
0.00025602792
0.00098212396
0.0015068185
-0.0023227177
0.0021814863
0.0040065716
0.0037393907
0.0019856744
-0.00040618842
-0.0026654039
-0.0041499533
-0.0043870831
-0.0041856786
0.00085070065
0.0040492859
0.0044939395
0.0032630963
0.00077192916
-0.002665399
-0.0059528646
-0.0091811837
-0.010783049
-0.0097196332
0.0029796947
0.005297807
0.0050135302
0.00342329
0.0002560533
-0.0041499478
-0.0091811725
-0.013860924
-0.015857803
-0.015084366
0.0048372869
0.0066799353
0.006524388
0.0047390775
0.00098215389
-0.0043870662
-0.010783042
-0.015857797
-0.018100243
-0.016369295
0.0066514795
0.0081101024
0.0078331334
0.0057690116
0.0015068439
-0.0041856722
-0.0097196246
-0.015084368
-0.016369289
-0.01220324
-0.0014175213
0.0060690289
0.010236284
0.01378437
0.015945553
0.016940512
0.016422321
0.01524535
0.014549688
0.014488054
0.006069042
0.012014044
0.016452528
0.018753184
0.019806016
0.018878569
0.016544702
0.014669794
0.01447733
0.013935583
0.0102363
0.016452532
0.019052642
0.019695651
0.018079869
0.014731383
0.011370496
0.010225731
0.010795025
0.010277241
0.013784394
0.018753194
0.019695667
0.01754859
0.013195587
0.0081264087
0.004857891
0.0043152019
0.0045430212
0.0050779288
0.015945575
0.019806044
0.018079889
0.013195602
0.0067791639
0.001192617
-0.0019064142
-0.0029195722
-0.0019967739
4.3682831e-05
0.016940556
0.018878613
0.014731417
0.0081264312
0.0011926313
-0.0045428299
-0.0082563071
-0.0095159622
-0.0077287104
-0.0063869898
0.01642239
0.016544763
0.011370539
0.0048579149
-0.0019064046
-0.0082563118
-0.01297062
-0.014907965
-0.014023896
-0.012207209
0.015245444
0.014669867
0.010225772
0.0043152391
-0.0029195649
-0.0095159629
-0.014907959
-0.018061102
-0.01847901
-0.014855161
0.014549781
0.014477405
0.010795091
0.0045430636
-0.0019967554
-0.0077287001
-0.014023894
-0.018479005
-0.017586481
-0.014706285
0.014488123
0.01393566
0.010277305
0.0050779718
4.3705187e-05
-0.0063869851
-0.012207203
-0.014855148
-0.014706278
-0.013754297
0.017988029
0.023344052
0.023874547
0.02321053
0.022186295
0.020462312
0.018401752
0.017057811
0.01664396
0.015566919
0.023344061
0.026292157
0.026130861
0.024307056
0.021695457
0.018569617
0.016166204
0.015191791
0.014650496
0.013444332
0.023874559
0.026130875
0.024273793
0.020753798
0.015904458
0.011679948
0.0091606864
0.008674028
0.0089527869
0.010293711
0.023210557
0.024307076
0.020753809
0.014632581
0.0083384587
0.0037389707
0.0016739424
0.002319298
0.0045543284
0.0057255121
0.022186315
0.021695485
0.015904482
0.0083384803
0.0016707554
-0.0030326481
-0.0042781337
-0.00236911
0.0014855509
0.002187436
0.02046235
0.018569645
0.011679986
0.0037389914
-0.0030326511
-0.0075873614
-0.0083087026
-0.0063385226
-0.0038697169
-0.00060621282
0.018401803
0.016166234
0.0091606994
0.0016739521
-0.0042781331
-0.0083087163
-0.010334036
-0.00938327
-0.0070093986
-0.0049841053
0.017057866
0.015191828
0.0086740575
0.0023193119
-0.0023691171
-0.0063385307
-0.0093832688
-0.010184622
-0.0083554531
-0.0077954182
0.016644022
0.01465054
0.0089528259
0.0045543536
0.0014855479
-0.0038697319
-0.0070093935
-0.0083554517
-0.010245553
-0.009950196
0.015566973
0.013444374
0.010293748
0.0057255321
0.0021874411
-0.00060621183
-0.0049841
-0.0077954136
-0.0099501856
-0.011492982
0.018585708
0.018150449
0.015317934
0.011561587
0.0091997222
0.0083127615
0.0087927933
0.0096647661
0.010418594
0.010188434
0.018150449
0.017069439
0.01259077
0.0081754351
0.005745509
0.0052472628
0.0053579978
0.0064908879
0.0077105543
0.0076246439
0.015317959
0.01259078
0.0073095025
0.0030848006
0.00079589693
-0.00031474937
0.00029466476
0.002930561
0.0055119249
0.0042773688
0.011561595
0.008175453
0.003084816
-0.0008813768
-0.0035799913
-0.00460697
-0.0018896902
0.00091227911
0.0038169378
0.0057662183
0.0091997374
0.0057455251
0.00079592185
-0.003579979
-0.0068025519
-0.0066469554
-0.0039815863
-0.00050092825
0.0034201102
0.0060816499
0.0083127732
0.005247264
-0.0003147455
-0.004606978
-0.0066469541
-0.0067695123
-0.0053039551
-0.00076985915
0.0035773254
0.0034918424
0.0087927996
0.0053580118
0.00029466708
-0.0018896907
-0.0039816043
-0.0053039621
-0.0028797961
-0.00060356727
0.00081055249
0.0010772684
0.0096648016
0.0064909003
0.0029305745
0.00091227851
-0.00050094816
-0.00076986807
-0.00060356325
-0.0011726407
-0.0021175786
-0.0048427561
0.010418604
0.0077105696
0.0055119401
0.0038169319
0.0034201022
0.0035773215
0.00081054942
-0.0021175782
-0.0064098192
-0.011921901
0.010188449
0.0076246508
0.004277374
0.0057662205
0.0060816542
0.0034918406
0.0010772679
-0.0048427444
-0.011921894
-0.016113633
0.0048609973
-0.00081145498
-0.0074855296
-0.010887291
-0.010449072
-0.008589423
-0.0047205428
-9.7010268e-05
0.0018740732
0.0021408013
-0.00081145296
-0.008015233
-0.013157008
-0.013967697
-0.012957115
-0.010075404
-0.0048103205
-0.0016746296
-0.00053881564
0.00086200362
-0.007485522
-0.013157003
-0.015433889
-0.014716101
-0.013287179
-0.0084950184
-0.0035570625
-0.0017320931
5.3649881e-05
0.0020545447
-0.010887278
-0.013967686
-0.014716098
-0.013784722
-0.01102567
-0.006365705
-0.0024919434
0.00053912638
0.0022986459
0.0040956479
-0.010449066
-0.012957113
-0.013287166
-0.011025662
-0.0082866819
-0.004741451
-0.00057827061
0.0026058215
0.00438981
0.0064648301
-0.0085894335
-0.010075414
-0.0084950255
-0.0063657156
-0.0047414633
-0.002021066
0.00063762298
0.0028826738
0.0052627602
0.0059916236
-0.0047205656
-0.0048103415
-0.0035570881
-0.002491964
-0.00057827664
0.00063761785
0.00099477113
0.0026087029
0.0022108805
-0.00073790847
-9.7029151e-05
-0.0016746556
-0.0017321228
0.00053910256
0.0026058053
0.0028826618
0.002608698
-0.00022714038
-0.0053350993
-0.011426205
0.0018740402
-0.00053884201
5.3622876e-05
0.0022986264
0.0043897916
0.0052627493
0.0022108805
-0.0053350936
-0.015508843
-0.023504805
0.0021407826
0.00086197703
0.0020545147
0.0040956254
0.006464825
0.0059916303
-0.00073788375
-0.011426179
-0.023504793
-0.028889236
)
;

boundaryField
{
    block1_in
    {
        type            fixedValue;
        value           nonuniform List<scalar> 
100
(
0.014573421
0.015433347
0.017602965
0.01469578
0.0083280951
-0.0059868015
-0.024180841
-0.036841646
-0.041278567
-0.041145534
0.015433347
0.018355074
0.01683567
0.011236397
0.0012383512
-0.015088394
-0.02994325
-0.037760073
-0.039361915
-0.036910561
0.017602984
0.016835681
0.0099565391
0.001056016
-0.01048415
-0.022850669
-0.031923851
-0.036376838
-0.035625992
-0.032621099
0.014695808
0.011236419
0.0010560255
-0.0098594127
-0.018981142
-0.02543306
-0.030619438
-0.032482465
-0.032081731
-0.032609567
0.008328134
0.0012383749
-0.010484128
-0.018981128
-0.022085118
-0.024076455
-0.026111258
-0.027839253
-0.031061187
-0.034646656
-0.0059867644
-0.015088366
-0.022850646
-0.025433055
-0.024076451
-0.022330597
-0.022305732
-0.025452658
-0.030240907
-0.033257608
-0.024180807
-0.029943224
-0.031923838
-0.030619436
-0.026111248
-0.022305729
-0.022087109
-0.023095514
-0.025767818
-0.028571221
-0.036841621
-0.037760052
-0.036376821
-0.032482459
-0.027839249
-0.025452654
-0.02309552
-0.020804714
-0.021626419
-0.024026256
-0.041278551
-0.039361894
-0.035625972
-0.032081716
-0.031061179
-0.0302409
-0.025767814
-0.021626419
-0.020112333
-0.021230373
-0.041145523
-0.036910543
-0.032621084
-0.032609546
-0.034646635
-0.033257585
-0.028571197
-0.024026239
-0.021230372
-0.022559796
)
;
    }
    block1_out
    {
        type            fixedValue;
        value           nonuniform List<scalar> 
100
(
-0.0032739441
-0.0085751719
-0.013824809
-0.015573411
-0.014964353
-0.01126006
-0.0061483763
-0.0027983671
-0.0021660521
-0.0030088245
-0.0085751682
-0.014316926
-0.017650809
-0.017589084
-0.014956064
-0.010147974
-0.0056925144
-0.0035150505
-0.0033792311
-0.0040457237
-0.013824812
-0.017650814
-0.018177769
-0.016102586
-0.012245196
-0.0078891551
-0.004679871
-0.0031691927
-0.003185218
-0.0036169805
-0.015573422
-0.01758909
-0.016102587
-0.012570794
-0.008598468
-0.0052854305
-0.0028889526
-0.0018906302
-0.00146938
-0.0010244071
-0.014964361
-0.014956061
-0.012245194
-0.008598468
-0.0055881271
-0.0033464425
-0.0019119999
-0.00075347745
0.00060937065
0.0012147401
-0.011260058
-0.010147964
-0.0078891425
-0.0052854174
-0.0033464322
-0.0023902131
-0.0017178373
-0.0003874281
0.00058013969
-0.00029523089
-0.0061483665
-0.0056924943
-0.0046798463
-0.0028889307
-0.0019119934
-0.0017178322
-0.0014631816
-0.0020276883
-0.003784029
-0.0065282837
-0.002798347
-0.0035150207
-0.0031691685
-0.0018906088
-0.00075346022
-0.00038741878
-0.0020276809
-0.0061300837
-0.011418395
-0.016097064
-0.0021660177
-0.0033792045
-0.0031851975
-0.0014693683
0.00060938695
0.00058014668
-0.0037840276
-0.011418397
-0.020122418
-0.026208308
-0.003008798
-0.0040456962
-0.0036169577
-0.0010243997
0.0012147382
-0.00029523927
-0.0065283014
-0.016097076
-0.026208311
-0.031323763
)
;
    }
    block1_wall1
    {
        type            zeroGradient;
    }
    block1_wall2
    {
        type            zeroGradient;
    }
    block1_wall3
    {
        type            zeroGradient;
    }
    block1_wall4
    {
        type            zeroGradient;
    }
}


// ************************************************************************* //
