/*--------------------------------*- C++ -*----------------------------------*\
| =========                 |                                                 |
| \\      /  F ield         | OpenFOAM: The Open Source CFD Toolbox           |
|  \\    /   O peration     | Version:  v2106                                 |
|   \\  /    A nd           | Website:  www.openfoam.com                      |
|    \\/     M anipulation  |                                                 |
\*---------------------------------------------------------------------------*/
FoamFile
{
    version     2.0;
    format      ascii;
    arch        "LSB;label=32;scalar=64";
    class       volVectorField;
    location    "35";
    object      flux;
}
// * * * * * * * * * * * * * * * * * * * * * * * * * * * * * * * * * * * * * //

dimensions      [0 1 -1 1 0 0 0];

internalField   nonuniform List<vector> 
4000
(
(1.091574e-06 1.091574e-06 1.85764)
(-5.3206274e-07 -3.0965569e-07 1.8576456)
(-2.7160716e-06 1.60517e-08 1.8576377)
(-8.3998851e-07 1.3386076e-08 1.8576354)
(-2.9322609e-07 2.458491e-08 1.8576343)
(2.3976941e-07 3.7631616e-08 1.8576343)
(6.4358598e-07 6.279015e-08 1.8576353)
(8.2926368e-07 1.1923714e-07 1.857637)
(6.500646e-07 2.2570523e-07 1.8576387)
(1.4982135e-07 2.9769597e-07 1.8576394)
(-3.0965569e-07 -5.3206275e-07 1.8576456)
(-2.1453461e-06 -2.1453461e-06 1.857644)
(-2.2315089e-06 -1.61935e-06 1.8576377)
(-8.2718869e-07 -1.6010841e-06 1.8576355)
(-2.5685778e-07 -1.5624531e-06 1.8576344)
(2.9707727e-07 -1.5190575e-06 1.8576345)
(7.6599427e-07 -1.4507105e-06 1.8576356)
(1.0736363e-06 -1.3152359e-06 1.8576376)
(9.1775285e-07 -1.0390611e-06 1.85764)
(2.2181209e-07 -6.8602621e-07 1.8576411)
(1.6051703e-08 -2.7160716e-06 1.8576377)
(-1.61935e-06 -2.2315089e-06 1.8576377)
(-2.1718096e-06 -2.1718096e-06 1.8576316)
(-7.8309162e-07 -2.1249315e-06 1.8576295)
(-2.111995e-07 -2.0774878e-06 1.8576285)
(3.5151206e-07 -2.0251186e-06 1.8576287)
(8.474076e-07 -1.9612998e-06 1.8576299)
(1.240913e-06 -1.875287e-06 1.8576321)
(1.2792743e-06 -1.7317063e-06 1.857635)
(3.8517797e-07 -1.4793303e-06 1.857637)
(1.3386073e-08 -8.3998848e-07 1.8576354)
(-1.6010841e-06 -8.2718868e-07 1.8576355)
(-2.1249315e-06 -7.8309162e-07 1.8576295)
(-7.3286696e-07 -7.3286697e-07 1.8576274)
(-1.5704485e-07 -6.8081125e-07 1.8576265)
(4.1326529e-07 -6.244553e-07 1.8576269)
(9.1582587e-07 -5.6049272e-07 1.8576282)
(1.3032298e-06 -4.9094691e-07 1.8576306)
(1.3137096e-06 -4.3016908e-07 1.8576336)
(3.9006277e-07 -4.022734e-07 1.8576357)
(2.4584903e-08 -2.9322609e-07 1.8576343)
(-1.5624532e-06 -2.5685779e-07 1.8576344)
(-2.0774878e-06 -2.111995e-07 1.8576285)
(-6.8081124e-07 -1.5704485e-07 1.8576265)
(-1.0278783e-07 -1.0278785e-07 1.8576258)
(4.7183059e-07 -4.8860727e-08 1.8576262)
(9.8091598e-07 6.8959736e-09 1.8576277)
(1.3712367e-06 6.4654782e-08 1.8576302)
(1.3679478e-06 1.1851863e-07 1.8576333)
(4.0377509e-07 1.5179987e-07 1.8576355)
(3.7631608e-08 2.3976939e-07 1.8576343)
(-1.5190575e-06 2.9707727e-07 1.8576345)
(-2.0251186e-06 3.5151206e-07 1.8576287)
(-6.2445531e-07 4.132653e-07 1.8576269)
(-4.886073e-08 4.7183059e-07 1.8576262)
(5.2294912e-07 5.2294909e-07 1.8576267)
(1.0293414e-06 5.6939977e-07 1.8576283)
(1.4148525e-06 6.1031638e-07 1.8576309)
(1.4008547e-06 6.4316474e-07 1.8576341)
(4.1225026e-07 6.6269251e-07 1.8576363)
(6.2790156e-08 6.4358598e-07 1.8576353)
(-1.4507105e-06 7.6599427e-07 1.8576356)
(-1.9612998e-06 8.4740759e-07 1.8576299)
(-5.6049272e-07 9.1582586e-07 1.8576282)
(6.8959523e-09 9.8091599e-07 1.8576277)
(5.6939977e-07 1.0293414e-06 1.8576283)
(1.0682833e-06 1.0682833e-06 1.85763)
(1.4450016e-06 1.0978141e-06 1.8576327)
(1.4203239e-06 1.1164504e-06 1.8576359)
(4.167936e-07 1.1240541e-06 1.8576382)
(1.1923713e-07 8.2926367e-07 1.857637)
(-1.3152359e-06 1.0736363e-06 1.8576376)
(-1.875287e-06 1.240913e-06 1.8576321)
(-4.9094691e-07 1.3032298e-06 1.8576306)
(6.4654779e-08 1.3712367e-06 1.8576302)
(6.1031638e-07 1.4148525e-06 1.8576309)
(1.0978141e-06 1.4450016e-06 1.8576327)
(1.4630196e-06 1.4630196e-06 1.8576353)
(1.4270947e-06 1.4658433e-06 1.8576386)
(4.1731942e-07 1.4543238e-06 1.8576409)
(2.2570524e-07 6.500646e-07 1.8576387)
(-1.0390611e-06 9.1775285e-07 1.85764)
(-1.7317063e-06 1.2792743e-06 1.857635)
(-4.3016906e-07 1.3137096e-06 1.8576336)
(1.1851863e-07 1.3679478e-06 1.8576333)
(6.4316474e-07 1.4008547e-06 1.8576341)
(1.1164504e-06 1.420324e-06 1.8576359)
(1.4658433e-06 1.4270947e-06 1.8576386)
(1.4116282e-06 1.4116282e-06 1.8576419)
(4.0911392e-07 1.3617254e-06 1.8576441)
(2.9769597e-07 1.4982135e-07 1.8576394)
(-6.8602623e-07 2.2181208e-07 1.8576411)
(-1.4793303e-06 3.8517796e-07 1.857637)
(-4.0227339e-07 3.9006277e-07 1.8576357)
(1.5179986e-07 4.0377508e-07 1.8576355)
(6.6269252e-07 4.1225026e-07 1.8576363)
(1.1240541e-06 4.167936e-07 1.8576382)
(1.4543238e-06 4.1731941e-07 1.8576409)
(1.3617254e-06 4.0911392e-07 1.8576441)
(3.8405092e-07 3.8405092e-07 1.857646)
(2.3120541e-06 2.3120541e-06 1.8577552)
(-1.8810211e-06 -6.17773e-07 1.8577577)
(-7.0364492e-06 1.5599682e-09 1.8577522)
(-2.51945e-06 1.5016302e-08 1.85775)
(-8.0101778e-07 4.610861e-08 1.857749)
(7.8610064e-07 8.4172383e-08 1.8577492)
(2.018282e-06 1.5880819e-07 1.8577503)
(2.5621402e-06 3.3665096e-07 1.8577521)
(1.6740457e-06 6.9930057e-07 1.8577541)
(2.501147e-07 8.5533773e-07 1.8577541)
(-6.17773e-07 -1.8810211e-06 1.8577577)
(-5.3467623e-06 -5.3467623e-06 1.8577565)
(-6.0872653e-06 -4.2681978e-06 1.8577516)
(-2.452627e-06 -4.1756438e-06 1.8577495)
(-6.9728366e-07 -4.0634418e-06 1.8577486)
(9.5515e-07 -3.9345756e-06 1.8577488)
(2.3969998e-06 -3.7304327e-06 1.8577501)
(3.3728788e-06 -3.3104328e-06 1.8577523)
(2.4520758e-06 -2.4000244e-06 1.8577552)
(4.0615187e-07 -1.4450159e-06 1.8577556)
(1.5599695e-09 -7.0364492e-06 1.8577522)
(-4.2681978e-06 -6.0872652e-06 1.8577516)
(-5.8653307e-06 -5.8653307e-06 1.8577469)
(-2.314694e-06 -5.7191315e-06 1.8577449)
(-5.5994953e-07 -5.5773655e-06 1.8577441)
(1.1191097e-06 -5.4204417e-06 1.8577444)
(2.6424247e-06 -5.2288752e-06 1.8577458)
(3.8925485e-06 -4.9695693e-06 1.8577482)
(3.5394626e-06 -4.5113088e-06 1.8577515)
(8.8678702e-07 -3.7376171e-06 1.8577528)
(1.5016309e-08 -2.51945e-06 1.85775)
(-4.1756438e-06 -2.452627e-06 1.8577495)
(-5.7191316e-06 -2.314694e-06 1.8577449)
(-2.1646618e-06 -2.1646618e-06 1.857743)
(-3.9859389e-07 -2.0095493e-06 1.8577423)
(1.3036404e-06 -1.8412871e-06 1.8577427)
(2.8478723e-06 -1.6502766e-06 1.8577442)
(4.0904451e-06 -1.4434681e-06 1.8577468)
(3.684028e-06 -1.2557941e-06 1.8577502)
(9.2194633e-07 -1.1487864e-06 1.8577516)
(4.6108606e-08 -8.010178e-07 1.857749)
(-4.0634418e-06 -6.9728369e-07 1.8577486)
(-5.5773655e-06 -5.5994955e-07 1.8577441)
(-2.0095493e-06 -3.9859388e-07 1.8577423)
(-2.3657479e-07 -2.3657478e-07 1.8577416)
(1.4783823e-06 -7.5137625e-08 1.8577422)
(3.0402437e-06 9.1666124e-08 1.8577438)
(4.287031e-06 2.6315551e-07 1.8577465)
(3.8341443e-06 4.1973345e-07 1.8577501)
(9.5812551e-07 5.10175e-07 1.8577516)
(8.4172382e-08 7.8610062e-07 1.8577492)
(-3.9345756e-06 9.5514999e-07 1.8577488)
(-5.4204417e-06 1.1191097e-06 1.8577444)
(-1.8412871e-06 1.3036404e-06 1.8577427)
(-7.5137635e-08 1.4783823e-06 1.8577422)
(1.6318813e-06 1.6318813e-06 1.8577428)
(3.1861654e-06 1.7713333e-06 1.8577445)
(4.4185125e-06 1.8947535e-06 1.8577473)
(3.9310475e-06 1.9937568e-06 1.857751)
(9.8224069e-07 2.0500805e-06 1.8577525)
(1.5880819e-07 2.018282e-06 1.8577503)
(-3.7304327e-06 2.3969998e-06 1.8577501)
(-5.2288752e-06 2.6424247e-06 1.8577458)
(-1.6502766e-06 2.8478723e-06 1.8577442)
(9.1666109e-08 3.0402437e-06 1.8577438)
(1.7713333e-06 3.1861654e-06 1.8577445)
(3.3031159e-06 3.3031159e-06 1.8577463)
(4.5094545e-06 3.3920105e-06 1.8577492)
(3.9894713e-06 3.4472625e-06 1.8577529)
(9.9567466e-07 3.4661285e-06 1.8577545)
(3.3665095e-07 2.5621402e-06 1.8577521)
(-3.3104328e-06 3.3728788e-06 1.8577523)
(-4.9695693e-06 3.8925485e-06 1.8577482)
(-1.4434681e-06 4.0904451e-06 1.8577468)
(2.6315548e-07 4.287031e-06 1.8577465)
(1.8947535e-06 4.4185125e-06 1.8577473)
(3.3920105e-06 4.5094545e-06 1.8577492)
(4.562659e-06 4.562659e-06 1.8577521)
(4.0051655e-06 4.5613223e-06 1.8577559)
(9.9481806e-07 4.4909115e-06 1.8577574)
(6.9930057e-07 1.6740457e-06 1.8577541)
(-2.4000244e-06 2.4520758e-06 1.8577552)
(-4.5113088e-06 3.5394625e-06 1.8577515)
(-1.2557942e-06 3.684028e-06 1.8577502)
(4.1973344e-07 3.8341442e-06 1.8577501)
(1.9937568e-06 3.9310475e-06 1.857751)
(3.4472625e-06 3.9894713e-06 1.8577529)
(4.5613223e-06 4.0051655e-06 1.8577559)
(3.9177237e-06 3.9177237e-06 1.8577596)
(9.4873415e-07 3.5573212e-06 1.857761)
(8.5533772e-07 2.501147e-07 1.8577541)
(-1.445016e-06 4.0615186e-07 1.8577556)
(-3.7376171e-06 8.86787e-07 1.8577528)
(-1.1487864e-06 9.2194632e-07 1.8577516)
(5.10175e-07 9.581255e-07 1.8577516)
(2.0500805e-06 9.8224069e-07 1.8577525)
(3.4661285e-06 9.9567466e-07 1.8577545)
(4.4909115e-06 9.9481806e-07 1.8577574)
(3.5573212e-06 9.4873415e-07 1.857761)
(7.5454972e-07 7.5454972e-07 1.8577612)
(2.8018478e-06 2.8018478e-06 1.8579672)
(-3.5492955e-06 -1.1090827e-06 1.8579686)
(-1.045974e-05 -3.248652e-07 1.8579641)
(-3.9820815e-06 -2.9446501e-07 1.8579622)
(-1.1375444e-06 -2.4620506e-07 1.8579614)
(1.4976405e-06 -1.8617418e-07 1.8579617)
(3.6369002e-06 -6.8875216e-08 1.857963)
(4.6620775e-06 2.2984872e-07 1.8579652)
(2.5779161e-06 9.2875684e-07 1.8579676)
(1.2797517e-07 1.290682e-06 1.8579675)
(-1.1090827e-06 -3.5492955e-06 1.8579686)
(-8.239365e-06 -8.239365e-06 1.8579673)
(-9.2378132e-06 -6.8292267e-06 1.8579633)
(-3.8640913e-06 -6.6654058e-06 1.8579614)
(-9.7510819e-07 -6.485151e-06 1.8579607)
(1.7636353e-06 -6.2750687e-06 1.857961)
(4.2609345e-06 -5.9460428e-06 1.8579625)
(6.1585256e-06 -5.2540664e-06 1.857965)
(4.169166e-06 -3.6099049e-06 1.8579684)
(4.8990031e-07 -1.9266799e-06 1.8579687)
(-3.248652e-07 -1.045974e-05 1.8579641)
(-6.8292267e-06 -9.2378132e-06 1.8579633)
(-8.8857806e-06 -8.8857806e-06 1.8579594)
(-3.6380057e-06 -8.6470189e-06 1.8579576)
(-7.4720737e-07 -8.4139449e-06 1.857957)
(2.0367487e-06 -8.1528888e-06 1.8579574)
(4.6579025e-06 -7.8334185e-06 1.857959)
(6.9982154e-06 -7.4102046e-06 1.8579616)
(5.9053026e-06 -6.6488625e-06 1.8579655)
(1.2501252e-06 -5.392855e-06 1.8579667)
(-2.9446501e-07 -3.9820815e-06 1.8579622)
(-6.6654058e-06 -3.8640913e-06 1.8579614)
(-8.6470189e-06 -3.6380057e-06 1.8579576)
(-3.3922557e-06 -3.3922556e-06 1.8579559)
(-4.8097804e-07 -3.1368622e-06 1.8579554)
(2.3441617e-06 -2.8584421e-06 1.8579559)
(5.0036186e-06 -2.5407139e-06 1.8579576)
(7.3430816e-06 -2.1963411e-06 1.8579604)
(6.1865157e-06 -1.8753399e-06 1.8579645)
(1.3272386e-06 -1.6725032e-06 1.8579658)
(-2.4620506e-07 -1.1375444e-06 1.8579614)
(-6.485151e-06 -9.7510821e-07 1.8579607)
(-8.4139449e-06 -7.4720737e-07 1.857957)
(-3.1368622e-06 -4.8097803e-07 1.8579554)
(-2.1339378e-07 -2.1339378e-07 1.8579549)
(2.632897e-06 5.4097839e-08 1.8579556)
(5.3200034e-06 3.3052336e-07 1.8579574)
(7.6635894e-06 6.135473e-07 1.8579603)
(6.4291405e-06 8.6997901e-07 1.8579645)
(1.3853496e-06 1.0158766e-06 1.8579659)
(-1.8617418e-07 1.4976405e-06 1.8579617)
(-6.2750687e-06 1.7636352e-06 1.857961)
(-8.1528887e-06 2.0367486e-06 1.8579574)
(-2.8584421e-06 2.3441617e-06 1.8579559)
(5.4097827e-08 2.632897e-06 1.8579556)
(2.8880789e-06 2.8880789e-06 1.8579564)
(5.5630681e-06 3.1202737e-06 1.8579583)
(7.8825372e-06 3.3266802e-06 1.8579613)
(6.588845e-06 3.4927137e-06 1.8579655)
(1.4245037e-06 3.5859506e-06 1.8579669)
(-6.8875228e-08 3.6369001e-06 1.857963)
(-5.9460428e-06 4.2609345e-06 1.8579625)
(-7.8334184e-06 4.6579025e-06 1.857959)
(-2.5407139e-06 5.0036186e-06 1.8579576)
(3.3052336e-07 5.3200034e-06 1.8579574)
(3.1202737e-06 5.5630681e-06 1.8579583)
(5.7586047e-06 5.7586047e-06 1.8579603)
(8.0360294e-06 5.9091955e-06 1.8579634)
(6.6884109e-06 6.0044325e-06 1.8579676)
(1.4475076e-06 6.0354957e-06 1.8579691)
(2.2984872e-07 4.6620775e-06 1.8579652)
(-5.2540664e-06 6.1585256e-06 1.857965)
(-7.4102046e-06 6.9982154e-06 1.8579616)
(-2.1963411e-06 7.3430815e-06 1.8579604)
(6.135473e-07 7.6635894e-06 1.8579603)
(3.3266802e-06 7.8825372e-06 1.8579613)
(5.9091955e-06 8.0360294e-06 1.8579634)
(8.128365e-06 8.128365e-06 1.8579665)
(6.7151452e-06 8.1183814e-06 1.8579708)
(1.4452125e-06 7.9339103e-06 1.8579723)
(9.2875684e-07 2.5779161e-06 1.8579676)
(-3.6099049e-06 4.169166e-06 1.8579684)
(-6.6488625e-06 5.9053026e-06 1.8579655)
(-1.8753399e-06 6.1865156e-06 1.8579645)
(8.6997901e-07 6.4291405e-06 1.8579645)
(3.4927137e-06 6.588845e-06 1.8579655)
(6.0044325e-06 6.6884109e-06 1.8579676)
(8.1183814e-06 6.7151452e-06 1.8579708)
(6.4939562e-06 6.4939562e-06 1.8579751)
(1.3245269e-06 5.1794211e-06 1.8579764)
(1.290682e-06 1.2797517e-07 1.8579675)
(-1.9266799e-06 4.899003e-07 1.8579687)
(-5.392855e-06 1.2501252e-06 1.8579667)
(-1.6725032e-06 1.3272386e-06 1.8579658)
(1.0158766e-06 1.3853496e-06 1.8579659)
(3.5859506e-06 1.4245037e-06 1.8579669)
(6.0354957e-06 1.4475076e-06 1.8579691)
(7.9339103e-06 1.4452125e-06 1.8579723)
(5.1794211e-06 1.3245268e-06 1.8579764)
(5.6885581e-07 5.688558e-07 1.8579755)
(3.2756648e-06 3.2756648e-06 1.8582834)
(-4.9638377e-06 -1.4782212e-06 1.8582848)
(-1.3460123e-05 -5.4598315e-07 1.8582807)
(-5.1940536e-06 -4.9997688e-07 1.8582791)
(-1.2836451e-06 -4.3548791e-07 1.8582785)
(2.3812424e-06 -3.5434804e-07 1.858279)
(5.474573e-06 -1.9915054e-07 1.8582804)
(7.162344e-06 2.0136911e-07 1.8582828)
(3.9930917e-06 1.2059002e-06 1.8582856)
(1.6779899e-07 1.6910133e-06 1.8582858)
(-1.4782212e-06 -4.9638376e-06 1.8582848)
(-1.069631e-05 -1.069631e-05 1.8582838)
(-1.1992757e-05 -8.9920898e-06 1.8582801)
(-5.0283107e-06 -8.763172e-06 1.8582786)
(-1.0652018e-06 -8.518259e-06 1.858278)
(2.7357485e-06 -8.2287545e-06 1.8582786)
(6.3081487e-06 -7.7806481e-06 1.8582801)
(9.2699201e-06 -6.8449135e-06 1.8582828)
(6.227558e-06 -4.5113427e-06 1.8582865)
(6.5291212e-07 -2.2517985e-06 1.858287)
(-5.4598315e-07 -1.3460123e-05 1.8582807)
(-8.9920898e-06 -1.1992757e-05 1.8582801)
(-1.1526986e-05 -1.1526986e-05 1.8582766)
(-4.7202228e-06 -1.1202531e-05 1.8582751)
(-7.4922756e-07 -1.088202e-05 1.8582747)
(3.1188533e-06 -1.0518905e-05 1.8582753)
(6.858414e-06 -1.0071393e-05 1.858277)
(1.0431649e-05 -9.4854721e-06 1.8582798)
(8.5862067e-06 -8.4182371e-06 1.858284)
(1.6741618e-06 -6.7045457e-06 1.8582853)
(-4.9997688e-07 -5.1940536e-06 1.8582791)
(-8.763172e-06 -5.0283107e-06 1.8582786)
(-1.1202531e-05 -4.7202228e-06 1.8582751)
(-4.3833449e-06 -4.3833449e-06 1.8582737)
(-3.8157571e-07 -4.0309748e-06 1.8582734)
(3.5463748e-06 -3.6451877e-06 1.8582741)
(7.3415817e-06 -3.2030339e-06 1.8582759)
(1.0923076e-05 -2.7242406e-06 1.8582789)
(9.0084844e-06 -2.2702378e-06 1.8582832)
(1.7953731e-06 -1.9682042e-06 1.8582846)
(-4.3548791e-07 -1.2836451e-06 1.8582785)
(-8.5182591e-06 -1.0652018e-06 1.858278)
(-1.088202e-05 -7.4922757e-07 1.8582747)
(-4.0309747e-06 -3.8157569e-07 1.8582734)
(-1.1070337e-08 -1.1070317e-08 1.8582731)
(3.9467942e-06 3.6023553e-07 1.8582739)
(7.7793611e-06 7.4440168e-07 1.8582759)
(1.1364446e-05 1.1367559e-06 1.858279)
(9.3422431e-06 1.4909091e-06 1.8582834)
(1.8755175e-06 1.6920933e-06 1.8582849)
(-3.5434804e-07 2.3812424e-06 1.858279)
(-8.2287545e-06 2.7357485e-06 1.8582786)
(-1.0518905e-05 3.1188534e-06 1.8582753)
(-3.6451877e-06 3.5463748e-06 1.8582741)
(3.6023552e-07 3.9467942e-06 1.8582739)
(4.3018468e-06 4.3018468e-06 1.8582749)
(8.1181021e-06 4.6254692e-06 1.8582769)
(1.1669584e-05 4.9142394e-06 1.8582801)
(9.5638217e-06 5.1477161e-06 1.8582846)
(1.9294958e-06 5.2791925e-06 1.8582861)
(-1.9915055e-07 5.474573e-06 1.8582804)
(-7.7806481e-06 6.3081487e-06 1.8582801)
(-1.0071393e-05 6.858414e-06 1.858277)
(-3.2030339e-06 7.3415817e-06 1.8582759)
(7.4440166e-07 7.779361e-06 1.8582759)
(4.6254692e-06 8.1181021e-06 1.8582769)
(8.3917537e-06 8.3917537e-06 1.858279)
(1.1886692e-05 8.6060466e-06 1.8582823)
(9.7071962e-06 8.7487397e-06 1.8582868)
(1.9631685e-06 8.8049485e-06 1.8582884)
(2.0136912e-07 7.162344e-06 1.8582828)
(-6.8449135e-06 9.2699201e-06 1.8582828)
(-9.4854721e-06 1.0431649e-05 1.8582798)
(-2.7242406e-06 1.0923076e-05 1.8582789)
(1.1367559e-06 1.1364446e-05 1.858279)
(4.9142394e-06 1.1669584e-05 1.8582801)
(8.6060467e-06 1.1886692e-05 1.8582823)
(1.202657e-05 1.202657e-05 1.8582856)
(9.7627236e-06 1.2034587e-05 1.8582902)
(1.9669683e-06 1.1772124e-05 1.8582918)
(1.2059002e-06 3.9930917e-06 1.8582856)
(-4.5113427e-06 6.227558e-06 1.8582865)
(-8.4182371e-06 8.5862067e-06 1.858284)
(-2.2702378e-06 9.0084843e-06 1.8582832)
(1.4909091e-06 9.3422431e-06 1.8582834)
(5.147716e-06 9.5638218e-06 1.8582846)
(8.7487397e-06 9.7071962e-06 1.8582868)
(1.2034587e-05 9.7627236e-06 1.8582902)
(9.4527503e-06 9.4527503e-06 1.8582948)
(1.7881934e-06 6.8199448e-06 1.8582962)
(1.6910133e-06 1.6779899e-07 1.8582858)
(-2.2517985e-06 6.5291212e-07 1.858287)
(-6.7045457e-06 1.6741618e-06 1.8582853)
(-1.9682042e-06 1.7953731e-06 1.8582846)
(1.6920933e-06 1.8755175e-06 1.8582849)
(5.2791925e-06 1.9294958e-06 1.8582861)
(8.8049485e-06 1.9631685e-06 1.8582884)
(1.1772124e-05 1.9669683e-06 1.8582918)
(6.8199448e-06 1.7881934e-06 1.8582962)
(2.1176469e-07 2.1176469e-07 1.8582951)
(3.7487911e-06 3.7487911e-06 1.8587035)
(-6.2175928e-06 -1.7939549e-06 1.8587049)
(-1.6181035e-05 -7.1754041e-07 1.8587011)
(-6.1922944e-06 -6.5608304e-07 1.8586997)
(-1.2546444e-06 -5.7583609e-07 1.8586993)
(3.4119823e-06 -4.7352281e-07 1.8586999)
(7.4427769e-06 -2.7977877e-07 1.8587015)
(9.8095713e-06 2.2008361e-07 1.8587039)
(5.5990885e-06 1.5210685e-06 1.8587068)
(2.7847071e-07 2.0929e-06 1.8587072)
(-1.7939549e-06 -6.2175928e-06 1.8587049)
(-1.291709e-05 -1.291709e-05 1.858704)
(-1.4474227e-05 -1.0927567e-05 1.8587006)
(-5.9797379e-06 -1.0635818e-05 1.8586993)
(-9.8080403e-07 -1.0328685e-05 1.8586989)
(3.8560683e-06 -9.961263e-06 1.8586996)
(8.4831865e-06 -9.3942586e-06 1.8587013)
(1.2510842e-05 -8.2199819e-06 1.858704)
(8.4083131e-06 -5.2118019e-06 1.8587078)
(8.5030218e-07 -2.4522362e-06 1.8587084)
(-7.1754041e-07 -1.6181035e-05 1.8587011)
(-1.0927567e-05 -1.4474227e-05 1.8587006)
(-1.3899763e-05 -1.3899763e-05 1.8586974)
(-5.5934129e-06 -1.3493575e-05 1.8586961)
(-5.8008952e-07 -1.3089085e-05 1.8586958)
(4.3464087e-06 -1.2627244e-05 1.8586966)
(9.184058e-06 -1.2054634e-05 1.8586984)
(1.3992028e-05 -1.1309804e-05 1.8587013)
(1.1366834e-05 -9.9382668e-06 1.8587056)
(2.1181812e-06 -7.789949e-06 1.8587069)
(-6.5608304e-07 -6.1922944e-06 1.8586997)
(-1.0635818e-05 -5.9797379e-06 1.8586993)
(-1.3493575e-05 -5.5934129e-06 1.8586961)
(-5.1690596e-06 -5.1690595e-06 1.8586949)
(-1.1447288e-07 -4.7230233e-06 1.8586947)
(4.8905186e-06 -4.2331195e-06 1.8586956)
(9.8006266e-06 -3.6698303e-06 1.8586975)
(1.462721e-05 -3.0607148e-06 1.8587006)
(1.1928168e-05 -2.4758321e-06 1.858705)
(2.282514e-06 -2.0766203e-06 1.8587064)
(-5.7583609e-07 -1.2546444e-06 1.8586993)
(-1.0328685e-05 -9.8080405e-07 1.8586989)
(-1.3089085e-05 -5.8008953e-07 1.8586958)
(-4.7230234e-06 -1.1447287e-07 1.8586947)
(3.5585056e-07 3.5585055e-07 1.8586946)
(5.3996018e-06 8.2808943e-07 1.8586956)
(1.0356463e-05 1.3172703e-06 1.8586976)
(1.5186026e-05 1.8158923e-06 1.8587008)
(1.2350929e-05 2.2649907e-06 1.8587053)
(2.3843223e-06 2.5201482e-06 1.8587068)
(-4.7352281e-07 3.4119823e-06 1.8586999)
(-9.961263e-06 3.8560683e-06 1.8586996)
(-1.2627244e-05 4.3464087e-06 1.8586966)
(-4.2331195e-06 4.8905186e-06 1.8586956)
(8.2808943e-07 5.3996018e-06 1.8586956)
(5.8519383e-06 5.8519383e-06 1.8586966)
(1.0788429e-05 6.2646747e-06 1.8586988)
(1.557493e-05 6.633491e-06 1.858702)
(1.2632424e-05 6.9320636e-06 1.8587066)
(2.452619e-06 7.099875e-06 1.8587082)
(-2.7977878e-07 7.4427769e-06 1.8587015)
(-9.3942586e-06 8.4831865e-06 1.8587013)
(-1.2054634e-05 9.184058e-06 1.8586984)
(-3.6698303e-06 9.8006266e-06 1.8586975)
(1.3172703e-06 1.0356463e-05 1.8586976)
(6.2646747e-06 1.0788429e-05 1.8586988)
(1.1138015e-05 1.1138015e-05 1.858701)
(1.5853415e-05 1.1413748e-05 1.8587043)
(1.2817313e-05 1.1602422e-05 1.858709)
(2.4961966e-06 1.1684628e-05 1.8587106)
(2.2008362e-07 9.8095712e-06 1.8587039)
(-8.2199819e-06 1.2510842e-05 1.858704)
(-1.1309804e-05 1.3992028e-05 1.8587013)
(-3.0607148e-06 1.462721e-05 1.8587006)
(1.8158923e-06 1.5186026e-05 1.8587008)
(6.6334909e-06 1.557493e-05 1.858702)
(1.1413748e-05 1.5853415e-05 1.8587043)
(1.6039337e-05 1.6039337e-05 1.8587077)
(1.2903304e-05 1.6073933e-05 1.8587124)
(2.507423e-06 1.5769725e-05 1.858714)
(1.5210685e-06 5.5990885e-06 1.8587068)
(-5.2118019e-06 8.408313e-06 1.8587078)
(-9.9382668e-06 1.1366834e-05 1.8587056)
(-2.4758321e-06 1.1928168e-05 1.858705)
(2.2649907e-06 1.2350929e-05 1.8587053)
(6.9320636e-06 1.2632424e-05 1.8587066)
(1.1602422e-05 1.2817313e-05 1.858709)
(1.6073934e-05 1.2903304e-05 1.8587124)
(1.2547701e-05 1.2547701e-05 1.8587171)
(2.2933912e-06 8.5237612e-06 1.8587186)
(2.0929e-06 2.7847071e-07 1.8587072)
(-2.4522362e-06 8.5030217e-07 1.8587084)
(-7.789949e-06 2.1181812e-06 1.8587069)
(-2.0766203e-06 2.282514e-06 1.8587064)
(2.5201481e-06 2.3843223e-06 1.8587068)
(7.099875e-06 2.452619e-06 1.8587082)
(1.1684628e-05 2.4961966e-06 1.8587106)
(1.5769725e-05 2.507423e-06 1.858714)
(8.5237612e-06 2.2933912e-06 1.8587186)
(-1.752035e-07 -1.752035e-07 1.8587175)
(4.2186935e-06 4.2186934e-06 1.8592244)
(-7.3428013e-06 -2.0741266e-06 1.8592258)
(-1.8672759e-05 -8.5904638e-07 1.8592223)
(-7.013533e-06 -7.8235464e-07 1.859221)
(-1.0786082e-06 -6.8698998e-07 1.8592208)
(4.561229e-06 -5.6432334e-07 1.8592215)
(9.5025907e-06 -3.3308927e-07 1.8592232)
(1.2526269e-05 2.6322236e-07 1.8592257)
(7.2844187e-06 1.8529812e-06 1.8592286)
(4.2167926e-07 2.4988436e-06 1.8592291)
(-2.0741266e-06 -7.3428013e-06 1.8592258)
(-1.4959411e-05 -1.4959411e-05 1.859225)
(-1.6735101e-05 -1.2694836e-05 1.8592219)
(-6.7554484e-06 -1.2341986e-05 1.8592207)
(-7.5156128e-07 -1.1975052e-05 1.8592205)
(5.0920801e-06 -1.1532642e-05 1.8592213)
(1.0743909e-05 -1.0850358e-05 1.859223)
(1.5805375e-05 -9.4449325e-06 1.8592258)
(1.0637851e-05 -5.7786361e-06 1.8592296)
(1.0675417e-06 -2.554855e-06 1.8592303)
(-8.5904639e-07 -1.8672759e-05 1.8592223)
(-1.2694836e-05 -1.6735101e-05 1.8592219)
(-1.6055333e-05 -1.6055333e-05 1.8592189)
(-6.2937491e-06 -1.5570435e-05 1.8592178)
(-2.6926454e-07 -1.5085108e-05 1.8592176)
(5.6859225e-06 -1.4528093e-05 1.8592185)
(1.15903e-05 -1.3834547e-05 1.8592204)
(1.7597991e-05 -1.2936442e-05 1.8592233)
(1.4174496e-05 -1.1267229e-05 1.8592276)
(2.5708667e-06 -8.703397e-06 1.8592289)
(-7.8235465e-07 -7.013533e-06 1.859221)
(-1.2341986e-05 -6.7554484e-06 1.8592207)
(-1.5570435e-05 -6.2937491e-06 1.8592178)
(-5.7852226e-06 -5.7852226e-06 1.8592167)
(2.9078065e-07 -5.2489235e-06 1.8592167)
(6.342641e-06 -4.6585122e-06 1.8592176)
(1.233556e-05 -3.978058e-06 1.8592196)
(1.8372692e-05 -3.24332e-06 1.8592227)
(1.4870895e-05 -2.5310291e-06 1.8592271)
(2.7767631e-06 -2.0379948e-06 1.8592286)
(-6.8698997e-07 -1.0786082e-06 1.8592208)
(-1.1975052e-05 -7.5156126e-07 1.8592205)
(-1.5085108e-05 -2.6926454e-07 1.8592176)
(-5.2489235e-06 2.9078064e-07 1.8592167)
(8.5744585e-07 8.5744583e-07 1.8592167)
(6.9567879e-06 1.4272316e-06 1.8592178)
(1.3005492e-05 2.0180812e-06 1.8592199)
(1.904502e-05 2.6194126e-06 1.8592231)
(1.5379821e-05 3.1603707e-06 1.8592276)
(2.8995563e-06 3.4677509e-06 1.8592291)
(-5.6432333e-07 4.561229e-06 1.8592215)
(-1.1532642e-05 5.0920801e-06 1.8592213)
(-1.4528093e-05 5.6859225e-06 1.8592185)
(-4.6585122e-06 6.3426411e-06 1.8592176)
(1.4272316e-06 6.9567879e-06 1.8592178)
(7.5032764e-06 7.5032764e-06 1.8592189)
(1.3527741e-05 8.0023652e-06 1.8592211)
(1.9514981e-05 8.4486559e-06 1.8592244)
(1.5719233e-05 8.809877e-06 1.859229)
(2.9816833e-06 9.0120105e-06 1.8592306)
(-3.3308926e-07 9.5025907e-06 1.8592232)
(-1.0850358e-05 1.0743909e-05 1.859223)
(-1.3834547e-05 1.15903e-05 1.8592204)
(-3.978058e-06 1.233556e-05 1.8592196)
(2.0180812e-06 1.3005492e-05 1.8592199)
(8.0023652e-06 1.3527741e-05 1.8592211)
(1.3950872e-05 1.3950872e-05 1.8592234)
(1.9852532e-05 1.4285594e-05 1.8592268)
(1.5943176e-05 1.4517019e-05 1.8592314)
(3.034312e-06 1.462079e-05 1.859233)
(2.6322236e-07 1.2526269e-05 1.8592257)
(-9.4449325e-06 1.5805375e-05 1.8592258)
(-1.2936442e-05 1.7597991e-05 1.8592233)
(-3.24332e-06 1.8372692e-05 1.8592227)
(2.6194126e-06 1.904502e-05 1.8592231)
(8.4486559e-06 1.9514981e-05 1.8592244)
(1.4285594e-05 1.9852532e-05 1.8592268)
(2.0081128e-05 2.0081128e-05 1.8592302)
(1.6054429e-05 2.0139701e-05 1.8592348)
(3.0508639e-06 1.9805432e-05 1.8592364)
(1.8529812e-06 7.2844187e-06 1.8592286)
(-5.7786361e-06 1.0637851e-05 1.8592296)
(-1.1267229e-05 1.4174496e-05 1.8592276)
(-2.5310291e-06 1.4870895e-05 1.8592271)
(3.1603706e-06 1.5379821e-05 1.8592276)
(8.809877e-06 1.5719233e-05 1.859229)
(1.4517019e-05 1.5943176e-05 1.8592314)
(2.0139701e-05 1.6054429e-05 1.8592348)
(1.566748e-05 1.566748e-05 1.8592395)
(2.8114661e-06 1.0258138e-05 1.859241)
(2.4988436e-06 4.2167926e-07 1.8592291)
(-2.5548549e-06 1.0675417e-06 1.8592303)
(-8.703397e-06 2.5708667e-06 1.8592289)
(-2.0379948e-06 2.7767631e-06 1.8592286)
(3.4677509e-06 2.8995563e-06 1.8592291)
(9.0120105e-06 2.9816833e-06 1.8592306)
(1.462079e-05 3.034312e-06 1.859233)
(1.9805432e-05 3.0508639e-06 1.8592364)
(1.0258138e-05 2.8114661e-06 1.859241)
(-5.5536376e-07 -5.5536377e-07 1.8592399)
(4.6773461e-06 4.6773461e-06 1.8598428)
(-8.3601058e-06 -2.3259496e-06 1.8598442)
(-2.0958706e-05 -9.7934921e-07 1.8598409)
(-7.687395e-06 -8.8781314e-07 1.8598398)
(-7.8698544e-07 -7.7795096e-07 1.8598397)
(5.7916976e-06 -6.3578846e-07 1.8598405)
(1.1608761e-05 -3.6856947e-07 1.8598422)
(1.5257712e-05 3.2044623e-07 1.8598447)
(8.994369e-06 2.1893461e-06 1.8598476)
(5.8103242e-07 2.9030613e-06 1.8598481)
(-2.3259496e-06 -8.3601058e-06 1.8598442)
(-1.6845149e-05 -1.6845149e-05 1.8598435)
(-1.8801501e-05 -1.4318752e-05 1.8598406)
(-7.3852976e-06 -1.3906876e-05 1.8598395)
(-4.0894842e-07 -1.3482574e-05 1.8598394)
(6.4057698e-06 -1.2968242e-05 1.8598403)
(1.3043113e-05 -1.2175239e-05 1.8598421)
(1.9094585e-05 -1.054785e-05 1.8598449)
(1.2868292e-05 -6.2454095e-06 1.8598486)
(1.2947476e-06 -2.5822778e-06 1.8598493)
(-9.7934922e-07 -2.0958706e-05 1.8598409)
(-1.4318752e-05 -1.8801501e-05 1.8598406)
(-1.8020433e-05 -1.8020433e-05 1.8598378)
(-6.8512166e-06 -1.7459983e-05 1.8598368)
(1.5164863e-07 -1.6897121e-05 1.8598368)
(7.0990325e-06 -1.6248754e-05 1.8598377)
(1.4029152e-05 -1.543899e-05 1.8598397)
(2.1187542e-05 -1.4393966e-05 1.8598426)
(1.6959942e-05 -1.2436997e-05 1.8598468)
(3.0231202e-06 -9.4756366e-06 1.8598481)
(-8.8781314e-07 -7.687395e-06 1.8598398)
(-1.3906876e-05 -7.3852976e-06 1.8598395)
(-1.7459983e-05 -6.8512166e-06 1.8598368)
(-6.2619852e-06 -6.2619852e-06 1.8598359)
(8.022801e-07 -5.6391218e-06 1.859836)
(7.8639006e-06 -4.9522457e-06 1.859837)
(1.4897901e-05 -4.1592052e-06 1.8598391)
(2.2096578e-05 -3.3040325e-06 1.8598421)
(1.7786621e-05 -2.4688751e-06 1.8598464)
(3.2689878e-06 -1.8856677e-06 1.8598479)
(-7.7795094e-07 -7.8698544e-07 1.8598397)
(-1.3482574e-05 -4.0894841e-07 1.8598394)
(-1.6897121e-05 1.5164863e-07 1.8598368)
(-5.6391218e-06 8.022801e-07 1.859836)
(1.4613882e-06 1.4613882e-06 1.8598361)
(8.5789491e-06 2.1248213e-06 1.8598373)
(1.5677365e-05 2.8133697e-06 1.8598394)
(2.2877872e-05 3.5132942e-06 1.8598426)
(1.8378306e-05 4.142531e-06 1.859847)
(3.4119251e-06 4.5001101e-06 1.8598485)
(-6.3578845e-07 5.7916976e-06 1.8598405)
(-1.2968242e-05 6.4057698e-06 1.8598403)
(-1.6248754e-05 7.0990325e-06 1.8598377)
(-4.9522457e-06 7.8639006e-06 1.859837)
(2.1248213e-06 8.5789491e-06 1.8598373)
(9.2158822e-06 9.2158822e-06 1.8598385)
(1.6286374e-05 9.7979842e-06 1.8598407)
(2.342574e-05 1.0318777e-05 1.859844)
(1.8773436e-05 1.0740244e-05 1.8598485)
(3.5073739e-06 1.0975345e-05 1.85985)
(-3.6856946e-07 1.1608761e-05 1.8598422)
(-1.2175239e-05 1.3043113e-05 1.8598421)
(-1.543899e-05 1.4029152e-05 1.8598397)
(-4.1592052e-06 1.4897901e-05 1.8598391)
(2.8133697e-06 1.5677365e-05 1.8598394)
(9.7979842e-06 1.6286374e-05 1.8598407)
(1.678026e-05 1.678026e-05 1.859843)
(2.3820132e-05 1.7171728e-05 1.8598463)
(1.9034874e-05 1.7443828e-05 1.8598509)
(3.5686588e-06 1.7566416e-05 1.8598525)
(3.2044624e-07 1.5257712e-05 1.8598447)
(-1.054785e-05 1.9094585e-05 1.8598449)
(-1.4393966e-05 2.1187542e-05 1.8598426)
(-3.3040324e-06 2.2096578e-05 1.8598421)
(3.5132942e-06 2.2877872e-05 1.8598426)
(1.0318777e-05 2.342574e-05 1.859844)
(1.7171728e-05 2.3820132e-05 1.8598463)
(2.4089307e-05 2.4089307e-05 1.8598497)
(1.9168124e-05 2.416961e-05 1.8598543)
(3.589099e-06 2.3809022e-05 1.8598559)
(2.1893461e-06 8.994369e-06 1.8598476)
(-6.2454094e-06 1.2868292e-05 1.8598486)
(-1.2436997e-05 1.6959942e-05 1.8598468)
(-2.4688751e-06 1.7786621e-05 1.8598464)
(4.142531e-06 1.8378306e-05 1.859847)
(1.0740244e-05 1.8773436e-05 1.8598485)
(1.7443828e-05 1.9034874e-05 1.8598509)
(2.416961e-05 1.9168124e-05 1.8598543)
(1.8754589e-05 1.8754589e-05 1.8598588)
(3.3282669e-06 1.1989086e-05 1.8598604)
(2.9030613e-06 5.8103241e-07 1.8598481)
(-2.5822778e-06 1.2947476e-06 1.8598493)
(-9.4756366e-06 3.0231202e-06 1.8598481)
(-1.8856677e-06 3.2689878e-06 1.8598479)
(4.5001101e-06 3.4119251e-06 1.8598485)
(1.0975345e-05 3.5073738e-06 1.85985)
(1.7566416e-05 3.5686588e-06 1.8598525)
(2.3809022e-05 3.589099e-06 1.8598559)
(1.1989086e-05 3.3282668e-06 1.8598604)
(-9.2123607e-07 -9.2123608e-07 1.8598593)
(5.1175223e-06 5.1175223e-06 1.8605549)
(-9.2819942e-06 -2.5529417e-06 1.8605562)
(-2.3050418e-05 -1.0830345e-06 1.8605532)
(-8.2361783e-06 -9.7719777e-07 1.8605522)
(-4.0720359e-07 -8.5353238e-07 1.8605522)
(7.069957e-06 -6.9279671e-07 1.860553)
(1.3721633e-05 -3.9130072e-07 1.8605547)
(1.7960931e-05 3.8609862e-07 1.8605572)
(1.0694792e-05 2.5226294e-06 1.8605601)
(7.4824731e-07 3.2993029e-06 1.8605606)
(-2.5529417e-06 -9.2819942e-06 1.8605562)
(-1.8582829e-05 -1.8582829e-05 1.8605555)
(-2.0686802e-05 -1.5809982e-05 1.8605529)
(-7.8919251e-06 -1.5341603e-05 1.8605519)
(1.9398e-08 -1.4862643e-05 1.860552)
(7.7633045e-06 -1.4279733e-05 1.8605529)
(1.5339976e-05 -1.3381124e-05 1.8605547)
(2.2331826e-05 -1.1542154e-05 1.8605574)
(1.5064598e-05 -6.6300555e-06 1.8605611)
(1.5249208e-06 -2.5514106e-06 1.8605618)