/*--------------------------------*- C++ -*----------------------------------*\
| =========                 |                                                 |
| \\      /  F ield         | OpenFOAM: The Open Source CFD Toolbox           |
|  \\    /   O peration     | Version:  v2106                                 |
|   \\  /    A nd           | Website:  www.openfoam.com                      |
|    \\/     M anipulation  |                                                 |
\*---------------------------------------------------------------------------*/
FoamFile
{
    version     2.0;
    format      ascii;
    arch        "LSB;label=32;scalar=64";
    class       volScalarField;
    location    "35";
    object      gradTx;
}
// * * * * * * * * * * * * * * * * * * * * * * * * * * * * * * * * * * * * * //

dimensions      [0 -1 0 1 0 0 0];

internalField   nonuniform List<scalar> 
4000
(
0.00043662958
-0.0002128251
-0.0010864286
-0.0003359954
-0.00011729043
9.5907763e-05
0.00025743439
0.00033170547
0.00026002584
5.9928539e-05
-0.00012386228
-0.00085813845
-0.00089260357
-0.00033087548
-0.00010274311
0.00011883091
0.00030639771
0.00042945452
0.00036710114
8.8724835e-05
6.4206814e-06
-0.00064774001
-0.00086872382
-0.00031323665
-8.4479802e-05
0.00014060482
0.00033896304
0.00049636521
0.00051170972
0.00015407119
5.3544291e-06
-0.00064043365
-0.00084997261
-0.00029314678
-6.2817941e-05
0.00016530612
0.00036633035
0.00052129193
0.00052548384
0.00015602511
9.8339612e-06
-0.00062498127
-0.00083099514
-0.0002723245
-4.1115133e-05
0.00018873224
0.00039236639
0.00054849467
0.00054717913
0.00016151003
1.5052643e-05
-0.00060762302
-0.00081004744
-0.00024978212
-1.9544292e-05
0.00020917965
0.00041173655
0.000565941
0.00056034187
0.0001649001
2.5116063e-05
-0.0005802842
-0.00078451992
-0.00022419709
2.7583809e-06
0.00022775991
0.00042731331
0.00057800065
0.00056812958
0.00016671744
4.7694854e-05
-0.00052609437
-0.0007501148
-0.00019637876
2.5861912e-05
0.00024412655
0.00043912563
0.00058520784
0.00057083788
0.00016692777
9.0282096e-05
-0.00041562446
-0.00069268251
-0.00017206763
4.740745e-05
0.0002572659
0.00044658015
0.00058633733
0.00056465126
0.00016364557
0.00011907839
-0.00027441049
-0.0005917321
-0.00016090936
6.0719944e-05
0.00026507701
0.00044962165
0.00058172953
0.00054469017
0.00015362037
0.00092482164
-0.00075240845
-0.0028145797
-0.00100778
-0.00032040711
0.00031444025
0.00080731279
0.0010248561
0.00066961827
0.00010004588
-0.0002471092
-0.0021387049
-0.0024349061
-0.00098105081
-0.00027891346
0.00038206
0.00095879994
0.0013491515
0.00098083034
0.00016246075
6.2398778e-07
-0.0017072791
-0.0023461323
-0.00092587759
-0.00022397981
0.00044764386
0.0010569699
0.0015570194
0.001415785
0.00035471481
6.0065235e-06
-0.0016702575
-0.0022876526
-0.00086586473
-0.00015943755
0.00052145614
0.0011391489
0.0016361781
0.0014736112
0.00036877853
1.8443442e-05
-0.0016253767
-0.0022309462
-0.00080381971
-9.4629917e-05
0.00059135293
0.0012160975
0.0017148124
0.0015336577
0.0003832502
3.3668953e-05
-0.0015738302
-0.0021681767
-0.00073651482
-3.0055054e-05
0.00065275251
0.0012744662
0.001767405
0.001572419
0.00039289628
6.3523276e-05
-0.0014921731
-0.0020915501
-0.00066011064
3.6666444e-05
0.00070853333
0.0013212464
0.0018037818
0.0015957885
0.00039826987
0.00013466038
-0.0013241731
-0.0019878277
-0.00057738724
0.00010526219
0.00075790139
0.0013568042
0.0018250636
0.0016020662
0.00039792722
0.00027972023
-0.00096000977
-0.0018045235
-0.00050231766
0.00016789338
0.00079750272
0.001378905
0.0018245289
0.0015670895
0.00037949366
0.00034213509
-0.00057800638
-0.0014950468
-0.00045951456
0.00020407
0.00082003221
0.0013864514
0.0017963646
0.0014229285
0.00030181989
0.0011207391
-0.0014197182
-0.0041838959
-0.0015928326
-0.00045501778
0.00059905621
0.0014547601
0.001864831
0.0010311665
5.1190067e-05
-0.00044363309
-0.003295746
-0.0036951253
-0.0015456365
-0.00039004328
0.00070545411
0.0017043738
0.0024634102
0.0016676664
0.00019596012
-0.00012994608
-0.0027316907
-0.0035543122
-0.0014552023
-0.00029888295
0.00081469946
0.001863161
0.0027992862
0.002362121
0.00050005007
-0.000117786
-0.0026661623
-0.0034588076
-0.0013569023
-0.00019239122
0.00093766469
0.0020014474
0.0029372326
0.0024746063
0.00053089546
-9.8482023e-05
-0.0025940604
-0.003365578
-0.0012547449
-8.535751e-05
0.0010531588
0.0021280014
0.0030654357
0.0025716562
0.00055413985
-7.4469673e-05
-0.0025100275
-0.0032611555
-0.0011433768
2.1639131e-05
0.0011552315
0.0022252272
0.0031530149
0.002635538
0.00056980148
-2.7550091e-05
-0.0023784171
-0.0031333674
-0.0010162856
0.00013220934
0.0012481095
0.0023034419
0.0032144118
0.0026753644
0.00057900302
9.1939489e-05
-0.0021016266
-0.0029640819
-0.00087853645
0.00024541892
0.0013306721
0.0023636782
0.003251346
0.0026860581
0.000578085
0.00037150274
-0.001443962
-0.002659545
-0.00075013598
0.0003479916
0.0013970855
0.002401773
0.0032473525
0.0025975825
0.00052981074
0.00051627279
-0.00077067197
-0.002157142
-0.0006690013
0.00040635064
0.0014343802
0.0024141983
0.0031735641
0.0020717685
0.00022754232
0.0013102659
-0.0019855351
-0.0053840493
-0.0020776214
-0.00051345802
0.00095249696
0.0021898292
0.0028649376
0.0015972367
6.7119597e-05
-0.00059128848
-0.0042785239
-0.0047971027
-0.0020113243
-0.00042608072
0.0010942994
0.0025232595
0.0037079681
0.0024910232
0.00026116485
-0.00021839326
-0.0035968359
-0.0046107942
-0.0018880891
-0.00029969102
0.0012475413
0.0027433656
0.0041726598
0.0034344827
0.00066966472
-0.00019999075
-0.0035052688
-0.0044810125
-0.001753338
-0.00015263028
0.0014185499
0.0029366327
0.0043692306
0.0036033937
0.00071814922
-0.00017419517
-0.0034073036
-0.0043528079
-0.0016123899
-4.4281346e-06
0.0015787177
0.0031117444
0.0045457782
0.0037368972
0.00075020701
-0.00014173922
-0.0032915018
-0.004207562
-0.0014580751
0.00014409421
0.0017207387
0.0032472408
0.0046678336
0.0038255287
0.00077179833
-7.9660219e-05
-0.0031122592
-0.0040285574
-0.0012812136
0.00029776067
0.0018501877
0.0033567015
0.004754677
0.0038828785
0.0007852674
8.0547646e-05
-0.0027379654
-0.0037941888
-0.0010896962
0.00045470235
0.0019656958
0.0034424187
0.004810628
0.0039050894
0.00078678734
0.00048236008
-0.0018045371
-0.0033672948
-0.00090809511
0.00059636365
0.0020590864
0.0034994959
0.0048138346
0.0037811001
0.00071527738
0.00067640533
-0.00090071939
-0.0026818183
-0.00078728167
0.00067683732
0.002111677
0.0035219794
0.0047088496
0.0027279779
8.4705876e-05
0.0014995164
-0.0024870371
-0.0064724141
-0.0024769178
-0.00050185775
0.0013647929
0.0029771108
0.0039238285
0.0022396354
0.00011138828
-0.00071758197
-0.005166836
-0.005789691
-0.0023918952
-0.00039232161
0.0015424273
0.0033932746
0.0050043369
0.0033633252
0.00034012087
-0.00028701616
-0.0043710266
-0.0055599052
-0.0022373651
-0.00023203581
0.0017385635
0.0036736232
0.0055968112
0.0045467337
0.00084727246
-0.00026243322
-0.0042543271
-0.00539743
-0.0020676238
-4.578915e-05
0.0019562074
0.0039202506
0.0058508839
0.0047712672
0.00091300562
-0.00023033444
-0.004131474
-0.0052356339
-0.0018892093
0.00014234022
0.0021598407
0.004142585
0.0060744104
0.0049403715
0.00095372894
-0.00018940912
-0.0039845052
-0.0050508976
-0.0016932478
0.00033123577
0.0023407753
0.0043153718
0.006229972
0.0050529695
0.00098104761
-0.00011191151
-0.0037577034
-0.0048218537
-0.0014679321
0.0005269081
0.0025058699
0.0044552061
0.006341366
0.0051269251
0.00099847864
8.8033447e-05
-0.0032879928
-0.0045239215
-0.0012242859
0.00072635691
0.0026533964
0.0045654994
0.0064157349
0.0051613215
0.0010029692
0.0006084274
-0.0020847208
-0.0039753067
-0.00099033284
0.00090599627
0.0027728254
0.0046409689
0.0064295734
0.0050190804
0.00091735649
0.00083715999
-0.00098089449
-0.0031159796
-0.00083064813
0.0010080593
0.00283995
0.0046738513
0.0063078902
0.0034095045
-7.00814e-05
0.0016874774
-0.0029371205
-0.0074691036
-0.0028054132
-0.00043144329
0.0018244916
0.0038010363
0.0050105076
0.0029137675
0.0001686717
-0.00082965062
-0.0059837644
-0.0066940404
-0.0027021794
-0.00030062451
0.002036832
0.0042975637
0.0063221498
0.0042551402
0.00042701668
-0.00034361856
-0.0050779342
-0.0064221333
-0.0025174997
-0.00010770582
0.002274369
0.00463612
0.0070391964
0.0056697985
0.0010283467
-0.00031294186
-0.0049367942
-0.0062281739
-0.002314089
0.00011631226
0.0025370564
0.0049342241
0.0073490768
0.0059483581
0.0011107052
-0.00027479599
-0.0047900207
-0.006034043
-0.0020995694
0.00034297834
0.0027827152
0.005202197
0.007618008
0.0061519286
0.0011598225
-0.00022572933
-0.0046130568
-0.0058112371
-0.0018634049
0.00057089265
0.0030013106
0.0054110965
0.0078059926
0.0062876934
0.0011926733
-0.0001332357
-0.0043401433
-0.0055338186
-0.0015912232
0.00080723248
0.0032009461
0.0055803488
0.0079410127
0.0063772704
0.0012137248
0.00010528895
-0.003777973
-0.0051745766
-0.001297328
0.001047765
0.0033794624
0.0057142378
0.0080324514
0.0064217716
0.0012203456
0.00074119246
-0.0023114545
-0.0045068916
-0.0010124116
0.0012641483
0.0035239508
0.0058068076
0.0080558803
0.0062669918
0.0011245865
0.00099953744
-0.001021942
-0.0034813588
-0.00081519791
0.0013871004
0.0036048042
0.005848316
0.0079221728
0.0041032552
-0.0002221455
0.0018709384
-0.0033440423
-0.0083834824
-0.003074958
-0.00031479418
0.002316679
0.0046435043
0.0061030848
0.0035977476
0.00023241297
-0.00093037985
-0.0067380595
-0.0075206005
-0.0029541191
-0.00016357937
0.0025623079
0.0052172451
0.0076378341
0.0051473167
0.00051789905
-0.00039173969
-0.005727501
-0.0072081733
-0.0027404866
6.0659452e-05
0.002839613
0.0056116608
0.0084750166
0.0067839766
0.0012092481
-0.00035512526
-0.0055627504
-0.0069839931
-0.0025047941
0.00032091204
0.0031455602
0.0059591605
0.0088386314
0.0071146482
0.0013075951
-0.00031118038
-0.0053930296
-0.0067588483
-0.0022556487
0.00058455528
0.0034315796
0.0062709461
0.0091511487
0.0073513226
0.0013647701
-0.00025431538
-0.0051872967
-0.0064995017
-0.0019808983
0.00084992852
0.0036863529
0.0065145497
0.0093702959
0.0075093746
0.0014029495
-0.00014742778
-0.0048700957
-0.006175596
-0.0016636821
0.0011253479
0.0039191937
0.006712104
0.0095280527
0.0076139497
0.0014274635
0.0001281785
-0.0042191401
-0.0057575862
-0.001321613
0.0014053177
0.0041275108
0.0068686911
0.009635723
0.0076672497
0.0014356396
0.00087573845
-0.0024981638
-0.0049747988
-0.00098755003
0.0016570124
0.0042960977
0.0069775312
0.0096678439
0.0075018355
0.0013313067
0.0011612245
-0.0010329111
-0.0037902546
-0.00075426707
0.001800044
0.0043901379
0.0070265662
0.0095236088
0.0047956345
-0.00036849443
0.0020470089
-0.0037127977
-0.0092201673
-0.0032944713
-0.00016288144
0.0028279828
0.0054886532
0.0071843723
0.0042779166
0.00029929892
-0.0010211767
-0.0074331318
-0.0082747209
-0.00315677
7.7592001e-06
0.0031053218
0.0061359904
0.0089327304
0.0060258392
0.00060996832
-0.0004332138
-0.0063239929
-0.0079236769
-0.0029155358
0.00026186693
0.0034205905
0.0065836845
0.0098847998
0.0078742141
0.0013869376
-0.00039087911
-0.0061366414
-0.0076706959
-0.0026490913
0.00055665113
0.0037678028
0.0069782897
0.010299781
0.0082548367
0.0015006078
-0.00034141295
-0.0059450574
-0.0074159981
-0.0023669558
0.00085553431
0.0040923068
0.0073318389
0.010653835
0.0085230626
0.0015654595
-0.00027711869
-0.005711893
-0.007121804
-0.0020554239
0.0011566142
0.0043815731
0.0076085303
0.010902688
0.0087023606
0.0016087195
-0.00015652029
-0.0053524497
-0.0067535171
-0.0016952394
0.0014693046
0.0046460745
0.0078330672
0.011082133
0.0088212853
0.0016365609
0.00015443945
-0.0046168617
-0.0062795047
-0.0013072695
0.0017868548
0.0048828014
0.0080113063
0.011205279
0.0088826786
0.0016460303
0.0010090518
-0.0026520222
-0.0053864664
-0.00092620384
0.0020722111
0.0050743719
0.0081356583
0.011245592
0.0087077629
0.0015340039
0.0013197212
-0.0010205642
-0.0040505072
-0.00065842097
0.0022343788
0.0051810241
0.0081916244
0.011091756
0.0054754421
-0.00050885021
0.0022133838
-0.0040461739
-0.0099811367
-0.0034706016
1.5141573e-05
0.003346997
0.0063231699
0.0082404267
0.0049444756
0.00036738521
-0.0011027463
-0.0080698651
-0.0089589416
-0.0033168951
0.00020413213
0.0036542995
0.0070400652
0.010191576
0.0068798952
0.0007012776
-0.00046907704
-0.0068689642
-0.0085714456
-0.0030495719
0.00048649794
0.0040055304
0.0075381969
0.011252595
0.0089285087
0.0015590357
-0.00042128294
-0.006660174
-0.0082912511
-0.0027540679
0.00081393127
0.0043917942
0.0079773859
0.011716302
0.0093566667
0.0016873029
-0.00036660607
-0.0064479346
-0.0080086184
-0.0024407477
0.001146135
0.004752702
0.0083704333
0.012109628
0.0096547282
0.001759414
-0.00029528923
-0.0061888177
-0.007681452
-0.0020944309
0.0014809828
0.0050745944
0.0086784221
0.01238657
0.0098541057
0.0018074725
-0.00016173779
-0.0057894013
-0.0072711237
-0.0016935761
0.0018289352
0.0053690419
0.0089284723
0.012586522
0.009986624
0.0018384763
0.00018264098
-0.0049737907
-0.0067441313
-0.0012621945
0.002182019
0.0056326335
0.0091271859
0.012724322
0.010055599
0.0018491094
0.0011390283
-0.0027772333
-0.0057463978
-0.00083654241
0.0024992037
0.0058459358
0.0092662237
0.012772458
0.0098722365
0.0017301266
0.0014729207
-0.00098975759
-0.0042673598
-0.00053597504
0.0026794581
0.0059645293
0.009328679
0.012609934
0.0061336609
-0.00064327431
0.0023682082
-0.0043455918
-0.010666779
-0.0036082476
0.00021181982
0.0038641465
0.0071358609
0.0092595702
0.0055896712
0.00043533893
-0.0011754226
-0.0086478321
-0.009574137
-0.0034394926
0.00041797905
0.0041994956
0.0079178679
0.011401456
0.007700627
0.00079038408
-0.000499952
-0.0073625707
-0.009152585
-0.0031477481
0.00072683256
0.0045844867
0.0084633209
0.01256484
0.0099368109
0.0017236288
-0.00044699486
-0.0071336385
-0.0088469255
-0.0028250403
0.0010848525
0.0050073712
0.0089443312
0.013074363
0.010409825
0.0018656906
-0.00038744867
-0.0069020712
-0.0085381327
-0.0024825117
0.0014482759
0.0054024016
0.0093743956
0.013504483
0.010735846
0.0019446064
-0.00030955537
-0.0066186258
-0.008180052
-0.002103597
0.0018147693
0.005754876
0.0097117244
0.013807753
0.010954032
0.0019971561
-0.00016388257
-0.006181731
-0.0077302571
-0.0016645968
0.0021957807
0.0060773948
0.0099856866
0.014026923
0.011099299
0.0020311296
0.00021178263
-0.0052911658
-0.0071535888
-0.0011925223
0.0025821625
0.006366167
0.010203591
0.014178479
0.011175374
0.002042837
0.0012640413
-0.0028764609
-0.0060573502
-0.00072495392
0.0029291706
0.0065998351
0.010356413
0.014234086
0.010984665
0.0019176358
0.0016190865
-0.0009440261
-0.0044443905
-0.00039348755
0.0031263689
0.00672962
0.010424934
0.014063845
0.0067628754
-0.00077168944
0.0025099515
-0.0046116536
-0.011276536
-0.0037110126
0.00042112051
0.0043714127
0.0079172292
0.0102318
0.0062070164
0.00050214059
-0.0012393348
-0.0091659218
-0.010120187
-0.0035282569
0.00064316648
0.0047327273
0.0087595111
0.012551202
0.008480481
0.0008761456
-0.00052622731
-0.0078042258
-0.0096671856
-0.0032139039
0.00097658373
0.0051490812
0.009348896
0.013809754
0.010890429
0.0018791173
-0.00046843545
-0.0075565712
-0.009337961
-0.0028660054
0.0013629536
0.0056059464
0.0098687272
0.014361919
0.01140536
0.0020340918
-0.00040439018
-0.0073071171
-0.0090049341
-0.0024964105
0.00175532
0.0060326252
0.010333118
0.014826146
0.011757304
0.0021193199
-0.00032040479
-0.007001108
-0.0086181739
-0.0020872692
0.0021511596
0.0064134671
0.010697667
0.015153837
0.011992927
0.0021760301
-0.00016351375
-0.0065294485
-0.008131715
-0.0016128666
0.0025628407
0.0067620273
0.010993812
0.015390838
0.012150024
0.0022127603
0.0002411165
-0.0055694412
-0.0075089578
-0.0011030466
0.0029800995
0.0070741602
0.011229525
0.015555182
0.012232704
0.0022254609
0.0013827545
-0.0029514941
-0.0063209985
-0.00059647486
0.003354759
0.0073267194
0.011395156
0.015617885
0.012035802
0.0020948104
0.0017567596
-0.00088602901
-0.0045840792
-0.00023617092
0.0035676664
0.00746688
0.011469303
0.01544096
0.0073568285
-0.00089385501
0.0026373297
-0.0048444771
-0.011809329
-0.003781567
0.0006381375
0.0048620468
0.0086591352
0.011148417
0.0067909215
0.00056696041
-0.0012944985
-0.0096226983
-0.010596404
-0.0035859429
0.00087469385
0.0052470907
0.0095564898
0.013631027
0.0092128716
0.00095761767
-0.00054815108
-0.0081929654
-0.010114752
-0.0032509295
0.001230606
0.0056922252
0.010186157
0.014976972
0.011781714
0.0020241298
-0.00048588227
-0.0079281217
-0.009764003
-0.0028800012
0.0016429238
0.0061802323
0.010741581
0.015568354
0.012335372
0.002191058
-0.00041773497
-0.0076623279
-0.0094088103
-0.0024856393
0.0020617899
0.0066359028
0.011237411
0.016063803
0.012711055
0.0022820695
-0.00032817803
-0.0073356532
-0.0089957731
-0.0020488173
0.0024845083
0.0070427359
0.011626904
0.016413872
0.012962644
0.0023425862
-0.0001610391
-0.0068321495
-0.0084756686
-0.0015419617
0.0029242934
0.0074151601
0.011943378
0.016667217
0.013130588
0.0023818436
0.00027005841
-0.0058086319
-0.0078106814
-0.00099756323
0.0033698308
0.0077487029
0.012195421
0.016843314
0.013219346
0.0023954547
0.0014940345
-0.003003594
-0.0065383415
-0.00045513079
0.0037698105
0.0080185738
0.01237282
0.016912707
0.013017452
0.0022601578
0.0018846918
-0.00081783983
-0.004688181
-6.8221368e-05
0.0039971027
0.0081682351
0.012452123
0.016730178
0.0079101445
-0.0010094168
0.0027492609
-0.0050439065
-0.012263839
-0.0038219268
0.00085883499
0.0053303232
0.0093545447
0.012001789
0.0073364955
0.00062909921
-0.0013408699
-0.010016624
-0.011001819
-0.0036146441
0.0011084383
0.0057367166
0.010301434
0.014632296
0.0098919951
0.0010339992
-0.00056588433
-0.0085276713
-0.01049449
-0.0032610427
0.0014846423
0.0062078774
0.01096749
0.016057327
0.012603887
0.0021574748
-0.00049952355
-0.0082472758
-0.010124387
-0.0028693825
0.0019203527
0.0067240033
0.01155507
0.016684267
0.01319285
0.0023353254
-0.00042769589
-0.0079667872
-0.0097492286
-0.0024526988
0.0023631197
0.0072058387
0.012079263
0.017207868
0.013589946
0.0024315566
-0.00033312133
-0.0076214685
-0.0093124728
-0.0019909051
0.0028100924
0.0076361355
0.012491281
0.017578139
0.013855938
0.0024955043
-0.00015676695
-0.007089233
-0.0087619419
-0.0014547375
0.0032752518
0.0080301085
0.012826114
0.017846251
0.014033682
0.0025370446
0.00029813806
-0.0060085232
-0.0080588367
-0.00087913239
0.0037463036
0.0083829871
0.013092917
0.018033
0.01412796
0.0025514801
0.0015969045
-0.0030336953
-0.0067099708
-0.00030419631
0.0041691233
0.0086684911
0.013280975
0.018108642
0.013922311
0.002412369
0.0020018045
-0.00074113194
-0.0047579815
0.00010692649
0.0044093917
0.0088267231
0.013364939
0.017921628
0.0084181613
-0.0011179528
0.0028448378
-0.0052096518
-0.012638717
-0.0038336623
0.001079843
0.0057713437
0.0099973463
0.012785195
0.0078394296
0.00068795563
-0.0013783797
-0.01034621
-0.011335385
-0.0036160017
0.0013409511
0.0061965775
0.010987928
0.015547377
0.010512721
0.0011046015
-0.00057953435
-0.0088072182
-0.01080551
-0.003245997
0.0017351217
0.0066908532
0.011686261
0.017042702
0.013350938
0.0022781128
-0.0005094915
-0.0085130027
-0.01041834
-0.002836027
0.0021915295
0.0072319062
0.012302363
0.017701327
0.01397157
0.002465788
-0.00043442733
-0.0082195529
-0.010025535
-0.0023995999
0.0026554565
0.0077369241
0.012851677
0.018249842
0.014387622
0.0025666442
-0.00033541943
-0.0078577241
-0.0095677615
-0.0019156921
0.0031239158
0.0081880189
0.013283668
0.018638021
0.014666372
0.002633627
-0.00015093815
-0.0073000434
-0.0089902067
-0.001353529
0.0036115692
0.0086010989
0.013634784
0.018919236
0.014852812
0.0026771925
0.00032496852
-0.0061688095
-0.0082533263
-0.00075027602
0.0041052199
0.0089711258
0.013914689
0.019115476
0.014952023
0.0026923618
0.0016905168
-0.0030425365
-0.006836257
-0.00014638933
0.0045482633
0.0092704929
0.014112238
0.019196893
0.01474388
0.0025502929
0.0021071627
-0.00065730078
-0.0047944773
0.00028640785
0.0048000218
0.0094363153
0.014200341
0.019006544
0.008876826
-0.0012190072
0.0029233107
-0.0053413861
-0.012932731
-0.0038180552
0.001298301
0.0061808905
0.01058222
0.013492723
0.0082959255
0.00074300608
-0.0014069567
-0.010610118
-0.011596123
-0.0035913605
0.0015693019
0.0066223404
0.011610385
0.016369549
0.011070525
0.0011688287
-0.00058917687
-0.0090305763
-0.011046971
-0.0032072368
0.0019790049
0.0071366794
0.012336685
0.017925945
0.014017567
0.0023851399
-0.00051588429
-0.0087243569
-0.010645124
-0.0027814895
0.0024532904
0.0076993174
0.012977505
0.018612188
0.014666036
0.0025814818
-0.00043804708
-0.0084197579
-0.0102371
-0.002328016
0.0029355099
0.0082243963
0.013548545
0.019182228
0.015098476
0.0026863402
-0.00033521705
-0.008043653
-0.0097611354
-0.0018249846
0.0034225592
0.0086934995
0.013997837
0.019585916
0.015388259
0.002755944
-0.00014374708
-0.0074639689
-0.0091601228
-0.0012402991
0.003929692
0.0091231311
0.014363063
0.019878492
0.015582241
0.002801265
0.00035022633
-0.0062891886
-0.0083940153
-0.0006131241
0.0044428904
0.0095080171
0.014654338
0.020083007
0.01568577
0.0028170739
0.0017741369
-0.0030307478
-0.0069174837
1.5984548e-05
0.0049034198
0.0098193951
0.014860153
0.020169691
0.015476412
0.0026729222
0.0021999595
-0.00056754697
-0.004798504
0.00046778494
0.005165113
0.0099917823
0.014951848
0.019977177
0.0092826284
-0.0013121149
0.0029840767
-0.0054388153
-0.013144873
-0.0037762146
0.0015117404
0.0065553163
0.011104547
0.014119205
0.0087026493
0.00079379164
-0.0014265438
-0.010807238
-0.011783229
-0.0035418847
0.0017909617
0.0070102592
0.012163954
0.017092936
0.01156145
0.0012261654
-0.00059487146
-0.0091968859
-0.011218187
-0.0031460123
0.0022136688
0.0075414876
0.01291374
0.018700804
0.014599145
0.0024777773
-0.00051878138
-0.008880552
-0.010804144
-0.0027071159
0.0027029038
0.0081222374
0.013575324
0.019410432
0.015271452
0.0026815746
-0.00043865148
-0.0085666836
-0.010383418
-0.0022393958
0.0032004378
0.008664135
0.014164564
0.019998478
0.01571761
0.0027897881
-0.00033263383
-0.0081786236
-0.0098922015
-0.0017203468
0.0037030691
0.0091483487
0.014628381
0.020415181
0.016016636
0.002861583
-0.00013535619
-0.0075805123
-0.0092714402
-0.0011167484
0.0042265491
0.0095918773
0.01500546
0.02071731
0.016216962
0.0029083795
0.00037363795
-0.0063694305
-0.0084808322
-0.00046952264
0.0047561262
0.0099892443
0.015306303
0.020928834
0.016324166
0.0029247298
0.0018471314
-0.002998913
-0.0069539444
0.00018092564
0.0052312979
0.010310709
0.015519112
0.021020247
0.016114881
0.0027793836
0.0022795051
-0.00047293461
-0.0047708305
0.00064894189
0.0055013105
0.010488596
0.015613832
0.020826753
0.009632557
-0.0013968196
0.0030266711
-0.0055017291
-0.013274441
-0.0037091633
0.0017179978
0.0068914651
0.01156034
0.014660169
0.0090567024
0.00083990929
-0.0014371099
-0.010936745
-0.011896158
-0.0034686435
0.0020037171
0.007357095
0.012644457
0.017712471
0.011982078
0.0012761683
-0.00059667271
-0.0093055116
-0.01131871
-0.0030634645
0.0024368204
0.0079019357
0.013413104
0.019361897
0.015091697
0.0025553639
-0.00051825447
-0.0089810143
-0.010895024
-0.0026141272
0.0029379861
0.0084972142
0.01409137
0.020090531
0.015783694
0.00276536
-0.00043632621
-0.0086598128
-0.010464194
-0.002135047
0.003447764
0.009052586
0.014695174
0.020692955
0.016240817
0.0028762609
-0.00032777491
-0.0082621916
-0.0099607554
-0.0016031836
0.0039628747
0.009548921
0.015170653
0.0211201
0.016547242
0.0029498038
-0.00012590625
-0.0076493421
-0.0093240749
-0.00098439679
0.0044994708
0.010003608
0.015557256
0.021429916
0.016752673
0.0029977868
0.00039497017
-0.006409427
-0.0085138431
-0.00032111347
0.0050421583
0.010411003
0.01586581
0.021647142
0.01686289
0.0030145773
0.0019089616
-0.0029476145
-0.0069460147
0.00034666176
0.00552904
0.010740569
0.016084298
0.021742718
0.016654967
0.0028689322
0.0023452207
-0.0003744326
-0.0047122272
0.00082800717
0.0058057058
0.010922858
0.016181458
0.021549437
0.0099240695
-0.0014726881
0.0030507624
-0.005530039
-0.013321103
-0.0036179017
0.0019151509
0.0071866135
0.011946202
0.015111814
0.009355602
0.0008810058
-0.0014386586
-0.01099814
-0.011934678
-0.0033726756
0.002205606
0.007660059
0.013048345
0.018223867
0.012329516
0.0013184603
-0.00059463825
-0.0093560825
-0.011348386
-0.0029606889
0.0026464342
0.0082151517
0.013831113
0.01990468
0.015491886
0.0026173528
-0.00051437547
-0.0090254231
-0.010917671
-0.0025036824
0.003156439
0.0088212868
0.014521876
0.020647827
0.016199306
0.0028322526
-0.00043115417
-0.0086988697
-0.010479393
-0.0020161976
0.0036753157
0.0093867066
0.015136521
0.021260913
0.016664576
0.0029451569
-0.0003207387
-0.0082941398
-0.0099668379
-0.0014748009
0.0041997277
0.0098921004
0.015620727
0.021695865
0.016976507
0.0030199942
-0.00011552384
-0.0076703314
-0.0093181651
-0.00084464276
0.0047461293
0.010355141
0.016014469
0.022011456
0.017185776
0.0030688675
0.00041402327
-0.0064092285
-0.0084933063
-0.00016939318
0.0052985789
0.010770049
0.016328829
0.022233042
0.017298325
0.0030859944
0.0019591783
-0.0028774649
-0.0068942047
0.00051159032
0.005794167
0.011105683
0.016551646
0.022332191
0.017093045
0.0029409482
0.0023966328
-0.00027294442
-0.0046235163
0.0010032964
0.0060757794
0.011291249
0.016650647
0.022140312
0.010155073
-0.0015393206
0.0030561477
-0.0055238069
-0.013284939
-0.003503456
0.0021014704
0.007438428
0.01225929
0.015470986
0.009597269
0.00091677347
-0.0014312348
-0.010991281
-0.011898921
-0.0032550358
0.0023948702
0.0079167697
0.013372663
0.018623604
0.012601387
0.0013527264
-0.00058883487
-0.009348523
-0.011307399
-0.002838782
0.0028407046
0.0084786913
0.014164726
0.020325441
0.01579701
0.0026633075
-0.00050722249
-0.0090137405
-0.010872311
-0.0023769248
0.0033564031
0.0090919449
0.014863727
0.021078518
0.016515491
0.0028817859
-0.00042322137
-0.008683849
-0.010429288
-0.0018840422
0.0038811781
0.0096639251
0.01548542
0.021698485
0.016986037
0.0029959973
-0.00031162263
-0.0082745062
-0.0099107778
-0.0013364514
0.0044116567
0.01017526
0.015975368
0.02213856
0.017301551
0.0030716674
-0.00010432692
-0.0076435857
-0.0092541129
-0.00069880838
0.0049644935
0.010643797
0.016373819
0.022457978
0.017513367
0.0031211296
0.00043062589
-0.0063690705
-0.0084197136
-1.5756919e-05
0.005523298
0.011063659
0.016692045
0.022682559
0.017627553
0.003138487
0.001997418
-0.0027891309
-0.0067991986
0.00067423531
0.0060245356
0.011403291
0.016917817
0.022784667
0.017426181
0.0029949338
0.0024333709
-0.00016932988
-0.0045056092
0.0011732701
0.0063093578
0.011590989
0.017018047
0.022595373
0.01032391
-0.0015963605
0.0030427489
-0.005483266
-0.013166476
-0.0033669145
0.0022753833
0.0076449319
0.012497292
0.015735169
0.0097800183
0.00094694696
-0.0014149288
-0.010916404
-0.011789409
-0.0031168319
0.0025699186
0.0081252203
0.01361503
0.018908913
0.012795818
0.0013787104
-0.00057934313
-0.0092830744
-0.011196305
-0.0026988779
0.0030180102
0.0086905059
0.014411504
0.020621282
0.016004992
0.0026929
-0.00049688437
-0.0089462332
-0.010759527
-0.0022350181
0.0035362222
0.0093070963
0.015114433
0.021379645
0.016730104
0.00291361
-0.0004126214
-0.0086150378
-0.010314491
-0.001739777
0.0040636593
0.0098821097
0.015739341
0.02200267
0.017203024
0.0030284242
-0.00030052752
-0.0082036063
-0.009793223
-0.001189369
0.004596933
0.010396233
0.016232008
0.022445155
0.017520176
0.0031044603
-9.2429106e-05
-0.0075694637
-0.0091326154
-0.00054817328
0.0051527956
0.010867376
0.016632711
0.02276643
0.017733232
0.0031542063
0.00044463116
-0.0062893946
-0.0082938203
0.0001384681
0.0057145088
0.011289603
0.01695284
0.022992619
0.01784835
0.0031716873
0.0020234005
-0.0026833507
-0.0066618835
0.00083321439
0.0062183051
0.011631137
0.017180175
0.023097056
0.017652128
0.003030512
0.002455164
-6.4421215e-05
-0.0043595342
0.0013365008
0.0065045806
0.01181981
0.017281015
0.022911515
0.010429346
-0.0016435004
0.0030106091
-0.0054088381
-0.012966711
-0.003209456
0.0024354439
0.0078044785
0.012658403
0.015902465
0.0099025515
0.0009713008
-0.0013898808
-0.010774143
-0.011607086
-0.002959253
0.0027292987
0.0082837524
0.013773615
0.019077769
0.012911439
0.0013962128
-0.00056626095
-0.0091603118
-0.011016057
-0.0025421758
0.0031768844
0.0088489165
0.014569588
0.020790112
0.016114378
0.0027059084
-0.00048346424
-0.0088234887
-0.010580281
-0.0020791736
0.0036944146
0.0094650418
0.015272111
0.021549085
0.01684165
0.0029274891
-0.00039945896
-0.0084930316
-0.010135977
-0.0015846278
0.0042212616
0.010039543
0.015896381
0.022171326
0.01731403
0.0030421983
-0.00028756108
-0.0080820482
-0.009615165
-0.0010347964
0.0047540421
0.010553283
0.01638873
0.022613492
0.017630863
0.0031181317
-7.9943017e-05
-0.0074485936
-0.0089546877
-0.0003940015
0.005309503
0.011024129
0.016789213
0.022934644
0.017843845
0.0031678547
0.00045591352
-0.0061708626
-0.0081166687
0.00029199602
0.0058706613
0.011446116
0.017109272
0.023161045
0.017959187
0.0031853514
0.0020369265
-0.0025609471
-0.0064833717
0.0009872127
0.0063739098
0.011787447
0.017336767
0.023267168
0.017769322
0.0030474243
0.0024618385
4.096421e-05
-0.0041864572
0.0014916476
0.0066598736
0.011975931
0.017437596
0.023086522
0.010470562
-0.0016804891
0.0029598886
-0.0053011463
-0.012687132
-0.0030323736
0.0025803081
0.0079157268
0.012741307
0.015971588
0.0099639491
0.00098964713
-0.0013562827
-0.010565539
-0.011353331
-0.0027835928
0.0028716705
0.0083910313
0.013847117
0.019128875
0.012947374
0.001405088
-0.00054970675
-0.0089811562
-0.01076802
-0.0023699639
0.0033159908
0.0089525893
0.014637683
0.020830634
0.016124332
0.0027022148
-0.00046708255
-0.0086464279
-0.010335934
-0.001910674
0.0038296483
0.0095644509
0.015335468
0.021585539
0.01684928
0.0029233002
-0.00038385289
-0.0083187465
-0.0098951014
-0.0014198727
0.0043526569
0.010134897
0.015955251
0.022203159
0.017318206
0.0030371971
-0.00027284091
-0.0079107452
-0.0093779565
-0.00087400792
0.0048816593
0.010645088
0.016444246
0.02264228
0.017632767
0.0031125596
-6.6983231e-05
-0.007281884
-0.0087216818
-0.00023756463
0.0054332939
0.011112732
0.016842041
0.022961328
0.017844363
0.003161953
0.00046436582
-0.0060143691
-0.0078896057
0.00044355959
0.0059904376
0.011531878
0.017160056
0.023186547
0.017959215
0.0031793576
0.0020378749
-0.0024228382
-0.0062650183
0.0011349604
0.0064900355
0.011870901
0.017386308
0.0232937
0.01777688
0.003045529
0.0024533157
0.00014601333
-0.0039877
0.0016374337
0.0067739245
0.012058035