/*--------------------------------*- C++ -*----------------------------------*\
| =========                 |                                                 |
| \\      /  F ield         | OpenFOAM: The Open Source CFD Toolbox           |
|  \\    /   O peration     | Version:  v2106                                 |
|   \\  /    A nd           | Website:  www.openfoam.com                      |
|    \\/     M anipulation  |                                                 |
\*---------------------------------------------------------------------------*/
FoamFile
{
    version     2.0;
    format      ascii;
    arch        "LSB;label=32;scalar=64";
    class       volScalarField;
    location    "35";
    object      T;
}
// * * * * * * * * * * * * * * * * * * * * * * * * * * * * * * * * * * * * * //

dimensions      [0 0 0 1 0 0 0];

internalField   nonuniform List<scalar> 
4000
(
276.71524
276.71526
276.71524
276.71524
276.71523
276.71523
276.71524
276.71524
276.71524
276.71524
276.71526
276.71525
276.71524
276.71524
276.71523
276.71523
276.71524
276.71524
276.71525
276.71525
276.71524
276.71524
276.71523
276.71522
276.71522
276.71522
276.71522
276.71523
276.71523
276.71524
276.71524
276.71524
276.71522
276.71522
276.71522
276.71522
276.71522
276.71523
276.71523
276.71524
276.71523
276.71523
276.71522
276.71522
276.71522
276.71522
276.71522
276.71522
276.71523
276.71524
276.71523
276.71523
276.71522
276.71522
276.71522
276.71522
276.71522
276.71523
276.71523
276.71524
276.71524
276.71524
276.71522
276.71522
276.71522
276.71522
276.71522
276.71523
276.71524
276.71524
276.71524
276.71524
276.71523
276.71523
276.71522
276.71523
276.71523
276.71523
276.71524
276.71525
276.71524
276.71525
276.71523
276.71523
276.71523
276.71523
276.71524
276.71524
276.71525
276.71525
276.71524
276.71525
276.71524
276.71524
276.71524
276.71524
276.71524
276.71525
276.71525
276.71526
284.14594
284.14597
284.14593
284.14592
284.14591
284.14591
284.14592
284.14593
284.14594
284.14594
284.14597
284.14597
284.14593
284.14592
284.14591
284.14591
284.14592
284.14593
284.14594
284.14595
284.14593
284.14593
284.1459
284.14588
284.14588
284.14588
284.14589
284.1459
284.14592
284.14593
284.14592
284.14592
284.14588
284.14587
284.14587
284.14587
284.14588
284.14589
284.14591
284.14592
284.14591
284.14591
284.14588
284.14587
284.14586
284.14586
284.14587
284.14589
284.14591
284.14592
284.14591
284.14591
284.14588
284.14587
284.14586
284.14587
284.14588
284.14589
284.14591
284.14592
284.14592
284.14592
284.14589
284.14588
284.14587
284.14588
284.14589
284.1459
284.14592
284.14594
284.14593
284.14593
284.1459
284.14589
284.14589
284.14589
284.1459
284.14592
284.14594
284.14595
284.14594
284.14594
284.14592
284.14591
284.14591
284.14591
284.14592
284.14594
284.14596
284.14597
284.14594
284.14595
284.14593
284.14592
284.14592
284.14592
284.14594
284.14595
284.14597
284.14598
291.57729
291.57732
291.57726
291.57724
291.57723
291.57723
291.57724
291.57726
291.57728
291.57728
291.57732
291.57731
291.57725
291.57723
291.57722
291.57722
291.57724
291.57726
291.57729
291.57729
291.57726
291.57725
291.5772
291.57718
291.57717
291.57718
291.57719
291.57721
291.57725
291.57726
291.57724
291.57723
291.57718
291.57716
291.57716
291.57716
291.57717
291.5772
291.57723
291.57725
291.57723
291.57722
291.57717
291.57716
291.57715
291.57715
291.57717
291.5772
291.57723
291.57725
291.57723
291.57722
291.57718
291.57716
291.57715
291.57716
291.57718
291.5772
291.57724
291.57726
291.57724
291.57724
291.57719
291.57717
291.57717
291.57718
291.5772
291.57722
291.57726
291.57728
291.57726
291.57726
291.57721
291.5772
291.5772
291.5772
291.57722
291.57725
291.57729
291.57731
291.57728
291.57729
291.57725
291.57723
291.57723
291.57724
291.57726
291.57729
291.57732
291.57734
291.57728
291.57729
291.57726
291.57725
291.57725
291.57726
291.57728
291.57731
291.57734
291.57735
299.00968
299.00972
299.00964
299.00961
299.0096
299.0096
299.00962
299.00965
299.00968
299.00968
299.00972
299.0097
299.00964
299.00961
299.0096
299.0096
299.00962
299.00965
299.00969
299.0097
299.00964
299.00964
299.00957
299.00954
299.00953
299.00954
299.00956
299.00959
299.00964
299.00966
299.00961
299.00961
299.00954
299.00952
299.00951
299.00952
299.00954
299.00957
299.00962
299.00965
299.0096
299.0096
299.00953
299.00951
299.0095
299.00951
299.00953
299.00957
299.00962
299.00965
299.0096
299.0096
299.00954
299.00952
299.00951
299.00952
299.00954
299.00958
299.00964
299.00966
299.00962
299.00962
299.00956
299.00954
299.00953
299.00954
299.00957
299.00961
299.00966
299.00969
299.00965
299.00965
299.00959
299.00957
299.00957
299.00958
299.00961
299.00965
299.00971
299.00973
299.00968
299.00969
299.00964
299.00962
299.00962
299.00964
299.00966
299.00971
299.00976
299.00978
299.00968
299.0097
299.00966
299.00965
299.00965
299.00966
299.00969
299.00973
299.00978
299.00978
306.44355
306.4436
306.4435
306.44347
306.44345
306.44346
306.44348
306.44352
306.44356
306.44356
306.4436
306.44358
306.4435
306.44346
306.44345
306.44345
306.44348
306.44352
306.44358
306.44359
306.4435
306.4435
306.44342
306.44338
306.44337
306.44338
306.44341
306.44345
306.44352
306.44354
306.44347
306.44346
306.44338
306.44335
306.44334
306.44335
306.44338
306.44343
306.4435
306.44353
306.44345
306.44345
306.44337
306.44334
306.44333
306.44335
306.44338
306.44343
306.4435
306.44353
306.44346
306.44345
306.44338
306.44335
306.44335
306.44336
306.44339
306.44345
306.44352
306.44355
306.44348
306.44348
306.44341
306.44338
306.44338
306.44339
306.44343
306.44348
306.44355
306.44358
306.44352
306.44352
306.44345
306.44343
306.44343
306.44345
306.44348
306.44354
306.44361
306.44364
306.44356
306.44358
306.44352
306.4435
306.4435
306.44352
306.44355
306.44361
306.44368
306.44371
306.44356
306.44359
306.44354
306.44353
306.44353
306.44355
306.44358
306.44364
306.44371
306.44371
313.87931
313.87936
313.87925
313.87921
313.8792
313.8792
313.87923
313.87928
313.87933
313.87934
313.87936
313.87934
313.87924
313.8792
313.87919
313.8792
313.87923
313.87928
313.87935
313.87937
313.87925
313.87924
313.87915
313.87911
313.8791
313.87911
313.87914
313.8792
313.87929
313.87932
313.87921
313.8792
313.87911
313.87908
313.87907
313.87908
313.87912
313.87918
313.87926
313.8793
313.8792
313.87919
313.8791
313.87907
313.87906
313.87907
313.87911
313.87918
313.87927
313.8793
313.8792
313.8792
313.87911
313.87908
313.87907
313.87909
313.87913
313.8792
313.87929
313.87933
313.87923
313.87923
313.87914
313.87912
313.87911
313.87913
313.87918
313.87924
313.87934
313.87937
313.87928
313.87928
313.8792
313.87918
313.87918
313.8792
313.87924
313.87931
313.87941
313.87944
313.87933
313.87935
313.87929
313.87926
313.87927
313.87929
313.87934
313.87941
313.8795
313.87953
313.87934
313.87937
313.87932
313.8793
313.8793
313.87933
313.87937
313.87944
313.87953
313.87952
321.31735
321.3174
321.31728
321.31724
321.31722
321.31723
321.31727
321.31732
321.31739
321.3174
321.3174
321.31738
321.31727
321.31723
321.31721
321.31722
321.31726
321.31733
321.31742
321.31743
321.31728
321.31727
321.31717
321.31713
321.31711
321.31713
321.31717
321.31724
321.31734
321.31738
321.31724
321.31723
321.31713
321.31709
321.31708
321.31709
321.31714
321.31721
321.31732
321.31735
321.31722
321.31721
321.31711
321.31708
321.31707
321.31709
321.31714
321.31721
321.31732
321.31736
321.31723
321.31722
321.31713
321.31709
321.31709
321.31711
321.31716
321.31724
321.31735
321.31739
321.31727
321.31726
321.31717
321.31714
321.31714
321.31716
321.31721
321.3173
321.31741
321.31745
321.31732
321.31733
321.31724
321.31721
321.31721
321.31724
321.3173
321.31738
321.31749
321.31753
321.31739
321.31742
321.31734
321.31732
321.31732
321.31735
321.31741
321.31749
321.3176
321.31764
321.3174
321.31743
321.31738
321.31735
321.31736
321.31739
321.31745
321.31753
321.31764
321.31763
328.75805
328.75811
328.75798
328.75793
328.75791
328.75793
328.75797
328.75804
328.75811
328.75812
328.75811
328.75808
328.75797
328.75792
328.7579
328.75792
328.75796
328.75804
328.75814
328.75816
328.75798
328.75797
328.75785
328.75781
328.75779
328.75781
328.75786
328.75794
328.75806
328.7581
328.75793
328.75792
328.75781
328.75776
328.75775
328.75778
328.75783
328.75792
328.75804
328.75808
328.75791
328.7579
328.75779
328.75775
328.75775
328.75777
328.75783
328.75792
328.75804
328.75809
328.75793
328.75792
328.75781
328.75778
328.75777
328.7578
328.75786
328.75795
328.75808
328.75813
328.75797
328.75796
328.75786
328.75783
328.75783
328.75786
328.75792
328.75802
328.75814
328.75819
328.75804
328.75804
328.75794
328.75792
328.75792
328.75795
328.75802
328.75811
328.75824
328.75829
328.75811
328.75814
328.75806
328.75804
328.75804
328.75808
328.75814
328.75824
328.75837
328.75841
328.75812
328.75816
328.7581
328.75808
328.75809
328.75813
328.75819
328.75829
328.75841
328.7584
336.20179
336.20185
336.20171
336.20165
336.20164
336.20166
336.2017
336.20178
336.20187
336.20188
336.20185
336.20182
336.20169
336.20164
336.20163
336.20165
336.2017
336.20179
336.2019
336.20192
336.20171
336.20169
336.20157
336.20152
336.20151
336.20153
336.20159
336.20168
336.20181
336.20186
336.20165
336.20164
336.20152
336.20148
336.20147
336.20149
336.20155
336.20165
336.20179
336.20184
336.20164
336.20163
336.20151
336.20147
336.20146
336.20149
336.20156
336.20166
336.2018
336.20185
336.20166
336.20165
336.20153
336.20149
336.20149
336.20152
336.20159
336.2017
336.20184
336.20189
336.2017
336.2017
336.20159
336.20155
336.20156
336.20159
336.20166
336.20177
336.20191
336.20197
336.20178
336.20179
336.20168
336.20165
336.20166
336.2017
336.20177
336.20188
336.20202
336.20208
336.20187
336.2019
336.20181
336.20179
336.2018
336.20184
336.20191
336.20202
336.20217
336.20222
336.20188
336.20192
336.20186
336.20184
336.20185
336.20189
336.20197
336.20208
336.20222
336.2022
343.6489
343.64897
343.64882
343.64876
343.64874
343.64876
343.64882
343.64891
343.64901
343.64902
343.64897
343.64894
343.6488
343.64875
343.64873
343.64875
343.64882
343.64891
343.64904
343.64907
343.64882
343.6488
343.64867
343.64862
343.6486
343.64863
343.6487
343.6488
343.64895
343.649
343.64876
343.64875
343.64862
343.64857
343.64856
343.64859
343.64866
343.64877
343.64892
343.64898
343.64874
343.64873
343.6486
343.64856
343.64856
343.64859
343.64866
343.64878
343.64893
343.64899
343.64876
343.64875
343.64863
343.64859
343.64859
343.64863
343.6487
343.64882
343.64898
343.64904
343.64882
343.64882
343.6487
343.64866
343.64866
343.6487
343.64878
343.6489
343.64907
343.64913
343.64891
343.64891
343.6488
343.64877
343.64878
343.64882
343.6489
343.64903
343.64919
343.64925
343.64901
343.64904
343.64895
343.64892
343.64893
343.64898
343.64907
343.64919
343.64935
343.64941
343.64902
343.64907
343.649
343.64898
343.64899
343.64904
343.64913
343.64925
343.64941
343.64938
351.09972
351.0998
351.09963
351.09957
351.09955
351.09958
351.09964
351.09974
351.09985
351.09986
351.0998
351.09976
351.09961
351.09956
351.09954
351.09957
351.09964
351.09974
351.09989
351.09991
351.09963
351.09961
351.09947
351.09942
351.09941
351.09944
351.09951
351.09963
351.09979
351.09984
351.09957
351.09956
351.09942
351.09937
351.09936
351.0994
351.09947
351.09959
351.09976
351.09982
351.09955
351.09954
351.09941
351.09936
351.09936
351.0994
351.09948
351.0996
351.09978
351.09984
351.09958
351.09957
351.09944
351.0994
351.0994
351.09944
351.09953
351.09965
351.09983
351.09989
351.09964
351.09964
351.09951
351.09947
351.09948
351.09953
351.09961
351.09975
351.09992
351.09999
351.09974
351.09974
351.09963
351.09959
351.0996
351.09965
351.09975
351.09988
351.10006
351.10012
351.09985
351.09989
351.09979
351.09976
351.09978
351.09983
351.09992
351.10006
351.10023
351.1003
351.09986
351.09991
351.09984
351.09982
351.09984
351.09989
351.09999
351.10012
351.1003
351.10027
358.55455
358.55463
358.55445
358.55439
358.55438
358.5544
358.55447
358.55458
358.5547
358.55471
358.55463
358.55459
358.55444
358.55438
358.55436
358.55439
358.55447
358.55459
358.55474
358.55477
358.55445
358.55444
358.55429
358.55423
358.55422
358.55426
358.55434
358.55446
358.55464
358.5547
358.55439
358.55438
358.55423
358.55418
358.55418
358.55421
358.5543
358.55443
358.55461
358.55468
358.55438
358.55436
358.55422
358.55418
358.55417
358.55422
358.55431
358.55444
358.55463
358.5547
358.5544
358.55439
358.55426
358.55421
358.55422
358.55426
358.55436
358.5545
358.55469
358.55476
358.55447
358.55447
358.55434
358.5543
358.55431
358.55436
358.55445
358.5546
358.55479
358.55486
358.55458
358.55459
358.55446
358.55443
358.55444
358.5545
358.5546
358.55474
358.55493
358.55501
358.5547
358.55474
358.55464
358.55461
358.55463
358.55469
358.55479
358.55493
358.55513
358.55519
358.55471
358.55477
358.5547
358.55468
358.5547
358.55476
358.55486
358.55501
358.55519
358.55516
366.01366
366.01375
366.01356
366.0135
366.01349
366.01352
366.01359
366.0137
366.01383
366.01385
366.01375
366.01371
366.01355
366.01349
366.01347
366.01351
366.01359
366.01371
366.01388
366.01391
366.01356
366.01355
366.01339
366.01334
366.01333
366.01337
366.01345
366.01358
366.01377
366.01384
366.0135
366.01349
366.01334
366.01328
366.01328
366.01332
366.01341
366.01355
366.01375
366.01382
366.01349
366.01347
366.01333
366.01328
366.01328
366.01333
366.01342
366.01357
366.01377
366.01384
366.01352
366.01351
366.01337
366.01332
366.01333
366.01338
366.01348
366.01363
366.01383
366.0139
366.01359
366.01359
366.01345
366.01341
366.01342
366.01348
366.01358
366.01373
366.01394
366.01402
366.0137
366.01371
366.01358
366.01355
366.01357
366.01363
366.01373
366.01389
366.0141
366.01417
366.01383
366.01388
366.01377
366.01375
366.01377
366.01383
366.01394
366.0141
366.0143
366.01437
366.01385
366.01391
366.01384
366.01382
366.01384
366.0139
366.01402
366.01417
366.01437
366.01434
373.47732
373.4774
373.47721
373.47715
373.47714
373.47717
373.47725
373.47737
373.47751
373.47753
373.4774
373.47736
373.4772
373.47713
373.47712
373.47716
373.47725
373.47738
373.47756
373.47759
373.47721
373.4772
373.47704
373.47698
373.47697
373.47701
373.47711
373.47725
373.47745
373.47752
373.47715
373.47713
373.47698
373.47693
373.47692
373.47697
373.47707
373.47722
373.47742
373.4775
373.47714
373.47712
373.47697
373.47692
373.47692
373.47698
373.47708
373.47723
373.47744
373.47752
373.47717
373.47716
373.47701
373.47697
373.47698
373.47703
373.47714
373.4773
373.47751
373.47759
373.47725
373.47725
373.47711
373.47707
373.47708
373.47714
373.47725
373.47741
373.47763
373.47771
373.47737
373.47738
373.47725
373.47722
373.47723
373.4773
373.47741
373.47758
373.4778
373.47788
373.47751
373.47756
373.47745
373.47742
373.47744
373.47751
373.47763
373.4778
373.47801
373.47809
373.47753
373.47759
373.47752
373.4775
373.47752
373.47759
373.47771
373.47788
373.47809
373.47805
380.94574
380.94582
380.94563
380.94556
380.94555
380.94559
380.94568
380.9458
380.94595
380.94597
380.94582
380.94578
380.94561
380.94555
380.94554
380.94558
380.94567
380.94581
380.946
380.94603
380.94563
380.94561
380.94545
380.94539
380.94538
380.94543
380.94553
380.94568
380.94588
380.94596
380.94556
380.94555
380.94539
380.94534
380.94533
380.94538
380.94549
380.94564
380.94586
380.94594
380.94555
380.94554
380.94538
380.94533
380.94534
380.94539
380.9455
380.94566
380.94589
380.94597
380.94559
380.94558
380.94543
380.94538
380.94539
380.94545
380.94557
380.94573
380.94596
380.94604
380.94568
380.94567
380.94553
380.94549
380.9455
380.94557
380.94568
380.94585
380.94608
380.94617
380.9458
380.94581
380.94568
380.94564
380.94566
380.94573
380.94585
380.94603
380.94626
380.94634
380.94595
380.946
380.94588
380.94586
380.94589
380.94596
380.94608
380.94626
380.94649
380.94657
380.94597
380.94603
380.94596
380.94594
380.94597
380.94604
380.94617
380.94634
380.94657
380.94653
388.41911
388.4192
388.419
388.41894
388.41893
388.41897
388.41906
388.41919
388.41934
388.41936
388.4192
388.41916
388.41898
388.41892
388.41891
388.41896
388.41905
388.4192
388.4194
388.41943
388.419
388.41898
388.41882
388.41876
388.41876
388.4188
388.41891
388.41906
388.41928
388.41935
388.41894
388.41892
388.41876
388.41871
388.41871
388.41876
388.41887
388.41903
388.41926
388.41934
388.41893
388.41891
388.41876
388.41871
388.41871
388.41877
388.41888
388.41905
388.41928
388.41937
388.41897
388.41896
388.4188
388.41876
388.41877
388.41883
388.41895
388.41913
388.41936
388.41945
388.41906
388.41905
388.41891
388.41887
388.41888
388.41895
388.41908
388.41925
388.41949
388.41958
388.41919
388.4192
388.41906
388.41903
388.41905
388.41913
388.41925
388.41943
388.41967
388.41976
388.41934
388.4194
388.41928
388.41926
388.41928
388.41936
388.41949
388.41967
388.41991
388.41999
388.41936
388.41943
388.41935
388.41934
388.41937
388.41945
388.41958
388.41976
388.41999
388.41995
395.89761
395.8977
395.8975
395.89744
395.89743
395.89747
395.89756
395.8977
395.89786
395.89788
395.8977
395.89766
395.89748
395.89742
395.89741
395.89746
395.89756
395.89771
395.89791
395.89795
395.8975
395.89748
395.89731
395.89726
395.89725
395.8973
395.89741
395.89757
395.8978
395.89787
395.89744
395.89742
395.89726
395.8972
395.8972
395.89726
395.89737
395.89754
395.89778
395.89786
395.89743
395.89741
395.89725
395.8972
395.89721
395.89727
395.89739
395.89757
395.8978
395.89789
395.89747
395.89746
395.8973
395.89726
395.89727
395.89734
395.89746
395.89764
395.89789
395.89797
395.89756
395.89756
395.89741
395.89737
395.89739
395.89746
395.89759
395.89777
395.89802
395.89811
395.8977
395.89771
395.89757
395.89754
395.89757
395.89764
395.89777
395.89796
395.89821
395.8983
395.89786
395.89791
395.8978
395.89778
395.8978
395.89789
395.89802
395.89821
395.89845
395.89854
395.89788
395.89795
395.89787
395.89786
395.89789
395.89797
395.89811
395.8983
395.89854
395.8985
403.38136
403.38146
403.38125
403.38119
403.38118
403.38123
403.38132
403.38147
403.38163
403.38165
403.38146
403.38141
403.38124
403.38117
403.38117
403.38122
403.38132
403.38148
403.38169
403.38173
403.38125
403.38124
403.38107
403.38101
403.38101
403.38106
403.38117
403.38134
403.38157
403.38165
403.38119
403.38117
403.38101
403.38096
403.38096
403.38102
403.38113
403.38131
403.38155
403.38163
403.38118
403.38117
403.38101
403.38096
403.38097
403.38103
403.38115
403.38133
403.38158
403.38167
403.38123
403.38122
403.38106
403.38102
403.38103
403.3811
403.38123
403.38141
403.38166
403.38175
403.38132
403.38132
403.38117
403.38113
403.38115
403.38123
403.38136
403.38155
403.3818
403.38189
403.38147
403.38148
403.38134
403.38131
403.38133
403.38141
403.38155
403.38174
403.38199
403.38209
403.38163
403.38169
403.38157
403.38155
403.38158
403.38166
403.3818
403.38199
403.38225
403.38234
403.38165
403.38173
403.38165
403.38163
403.38167
403.38175
403.38189
403.38209
403.38234
403.38229
410.87047
410.87056
410.87036
410.8703
410.87029
410.87034
410.87044
410.87059
410.87075
410.87078
410.87056
410.87052
410.87034
410.87028
410.87028
410.87033
410.87044
410.8706
410.87081
410.87085
410.87036
410.87034
410.87018
410.87012
410.87012
410.87018
410.87029
410.87046
410.87069
410.87077
410.8703
410.87028
410.87012
410.87007
410.87007
410.87013
410.87025
410.87043
410.87067
410.87076
410.87029
410.87028
410.87012
410.87007
410.87008
410.87015
410.87027
410.87046
410.87071
410.8708
410.87034
410.87033
410.87018
410.87013
410.87015
410.87022
410.87035
410.87054
410.87079
410.87089
410.87044
410.87044
410.87029
410.87025
410.87027
410.87035
410.87049
410.87068
410.87094
410.87103
410.87059
410.8706
410.87046
410.87043
410.87046
410.87054
410.87068
410.87087
410.87113
410.87123
410.87075
410.87081
410.87069
410.87067
410.87071
410.87079
410.87094
410.87113
410.87139
410.87148
410.87078
410.87085
410.87077
410.87076
410.8708
410.87089
410.87103
410.87123
410.87148
410.87143
418.365
418.3651
418.36489
418.36483
418.36483
418.36488
418.36498
418.36513
418.3653
418.36532
418.3651
418.36505
418.36488
418.36482
418.36482
418.36487
418.36498
418.36514
418.36536
418.3654
418.36489
418.36488
418.36471
418.36465
418.36466
418.36471
418.36483
418.365
418.36524
418.36532
418.36483
418.36482
418.36465
418.3646
418.36461
418.36467
418.36479
418.36498
418.36522
418.36531
418.36483
418.36482
418.36466
418.36461
418.36462
418.36469
418.36482
418.365
418.36526
418.36535
418.36488
418.36487
418.36471
418.36467
418.36469
418.36476
418.3649
418.36509
418.36535
418.36544
418.36498
418.36498
418.36483
418.36479
418.36482
418.3649
418.36504
418.36523
418.36549
418.36559
418.36513
418.36514
418.365
418.36498
418.365
418.36509
418.36523
418.36543
418.36569
418.36579
418.3653
418.36536
418.36524
418.36522
418.36526
418.36535
418.36549
418.36569
418.36595
418.36604
418.36532
418.3654
418.36532
418.36531
418.36535
418.36544
418.36559
418.36579
418.36604
418.36599
425.86499
425.86508
425.86488
425.86482
425.86482
425.86487
425.86498
425.86513
425.86529
425.86532
425.86508
425.86504
425.86487
425.86481
425.86481
425.86486
425.86497
425.86514
425.86536
425.8654
425.86488
425.86487
425.8647
425.86465
425.86465
425.86471
425.86483
425.865
425.86524
425.86532
425.86482
425.86481
425.86465
425.8646
425.86461
425.86467
425.86479
425.86498
425.86523
425.86531
425.86482
425.86481
425.86465
425.86461
425.86462
425.86469
425.86482
425.86501
425.86526
425.86535
425.86487
425.86486
425.86471
425.86467
425.86469
425.86477
425.8649
425.86509
425.86535
425.86545
425.86498
425.86497
425.86483
425.86479
425.86482
425.8649
425.86504
425.86524
425.8655
425.86559
425.86513
425.86514
425.865
425.86498
425.86501
425.86509
425.86524
425.86544
425.8657
425.8658
425.86529
425.86536
425.86524
425.86523
425.86526
425.86535
425.8655
425.8657
425.86596
425.86606
425.86532
425.8654
425.86532
425.86531
425.86535
425.86545
425.86559
425.8658
425.86606
425.866
433.37044
433.37053
433.37033
433.37027
433.37027
433.37032
433.37043
433.37058
433.37075
433.37078
433.37053
433.37048
433.37031
433.37026
433.37026
433.37032
433.37043
433.37059
433.37081
433.37085
433.37033
433.37031
433.37015
433.3701
433.3701
433.37017
433.37028
433.37046
433.3707
433.37078
433.37027
433.37026
433.3701
433.37005
433.37006
433.37013
433.37025
433.37043
433.37068
433.37077
433.37027
433.37026
433.3701
433.37006
433.37008
433.37015
433.37028
433.37047
433.37072
433.37081
433.37032
433.37032
433.37017
433.37013
433.37015
433.37023
433.37036
433.37055
433.37081
433.37091
433.37043
433.37043
433.37028
433.37025
433.37028
433.37036
433.3705
433.3707
433.37096
433.37105
433.37058
433.37059
433.37046
433.37043
433.37047
433.37055
433.3707
433.3709
433.37116
433.37126
433.37075
433.37081
433.3707
433.37068
433.37072
433.37081
433.37096
433.37116
433.37143
433.37152
433.37078
433.37085
433.37078
433.37077
433.37081
433.37091
433.37105
433.37126
433.37152
433.37147
440.8813
440.88139
440.8812
440.88114
440.88114
440.8812
440.8813
440.88145
440.88162
440.88165
440.88139
440.88135
440.88118
440.88113
440.88113
440.88119
440.8813
440.88147
440.88168
440.88173
440.8812
440.88118
440.88103
440.88098
440.88098
440.88104
440.88116
440.88134
440.88158
440.88166
440.88114
440.88113
440.88098
440.88093
440.88094
440.88101
440.88113
440.88131
440.88156
440.88165
440.88114
440.88113
440.88098
440.88094
440.88096
440.88103
440.88116
440.88135
440.8816
440.88169
440.8812
440.88119
440.88104
440.88101
440.88103
440.88111
440.88124
440.88144
440.88169
440.88179
440.8813
440.8813
440.88116
440.88113
440.88116
440.88124
440.88138
440.88158
440.88184
440.88193
440.88145
440.88147
440.88134
440.88131
440.88135
440.88144
440.88158
440.88178
440.88204
440.88214
440.88162
440.88168
440.88158
440.88156
440.8816
440.88169
440.88184
440.88204
440.8823
440.88239
440.88165
440.88173
440.88166
440.88165
440.88169
440.88179
440.88193
440.88214
440.88239
440.88234
448.39753
448.39761
448.39743
448.39737
448.39737
448.39743
448.39753
448.39768
448.39785
448.39788
448.39761
448.39757
448.39741
448.39736
448.39736
448.39742
448.39753
448.3977
448.39791
448.39795
448.39743
448.39741
448.39726
448.39721
448.39722
448.39728
448.3974
448.39757
448.39781
448.39789
448.39737
448.39736
448.39721
448.39717
448.39718
448.39725
448.39737
448.39755
448.3978
448.39788
448.39737
448.39736
448.39722
448.39718
448.3972
448.39727
448.3974
448.39759
448.39784
448.39793
448.39743
448.39742
448.39728
448.39725
448.39727
448.39735
448.39748
448.39767
448.39793
448.39802
448.39753
448.39753
448.3974
448.39737
448.3974
448.39748
448.39762
448.39782
448.39807
448.39817
448.39768
448.3977
448.39757
448.39755
448.39759
448.39767
448.39782
448.39801
448.39827
448.39836
448.39785
448.39791
448.39781
448.3978
448.39784
448.39793
448.39807
448.39827
448.39853
448.39862
448.39788
448.39795
448.39789
448.39788
448.39793
448.39802
448.39817
448.39836
448.39862
448.39857
455.91901
455.91909
455.91891
455.91886
455.91886
455.91892
455.91902
455.91917
455.91933
455.91936
455.91909
455.91905
455.9189
455.91885
455.91885
455.91891
455.91902
455.91918
455.91939
455.91943
455.91891
455.9189
455.91875
455.9187
455.91871
455.91877
455.91889
455.91906
455.91929
455.91937
455.91886
455.91885
455.9187
455.91866
455.91868
455.91874
455.91887
455.91904
455.91928
455.91937
455.91886
455.91885
455.91871
455.91868
455.91869
455.91877
455.9189
455.91908
455.91932
455.91941
455.91892
455.91891
455.91877
455.91874
455.91877
455.91885
455.91898
455.91917
455.91942
455.9195
455.91902
455.91902
455.91889
455.91887
455.9189
455.91898
455.91911
455.91931
455.91956
455.91965
455.91917
455.91918
455.91906
455.91904
455.91908
455.91917
455.91931
455.9195
455.91975
455.91984
455.91933
455.91939
455.91929
455.91928
455.91932
455.91942
455.91956
455.91975
455.92001
455.9201
455.91936
455.91943
455.91937
455.91937
455.91941
455.9195
455.91965
455.91984
455.9201
455.92004
463.44561
463.44569
463.44552
463.44547
463.44547
463.44553
463.44563
463.44577
463.44594
463.44597
463.44569
463.44565
463.4455
463.44546
463.44546
463.44552
463.44563
463.44579
463.44599
463.44603
463.44552
463.4455
463.44536
463.44532
463.44533
463.44539
463.44551
463.44567
463.4459
463.44598
463.44547
463.44546
463.44532
463.44528
463.4453
463.44536
463.44548
463.44566
463.44589
463.44597
463.44547
463.44546
463.44533
463.4453
463.44532
463.44539
463.44551
463.44569
463.44593
463.44602
463.44553
463.44552
463.44539
463.44536
463.44539
463.44547
463.4456
463.44578
463.44602
463.44611
463.44563
463.44563
463.44551
463.44548
463.44551
463.4456
463.44573
463.44592
463.44616
463.44625
463.44577
463.44579
463.44567
463.44566
463.44569
463.44578
463.44592
463.44611
463.44635
463.44644
463.44594
463.44599
463.4459
463.44589
463.44593
463.44602
463.44616
463.44635
463.4466
463.44669
463.44597
463.44603
463.44598
463.44597
463.44602
463.44611
463.44625
463.44644
463.44669
463.44664
470.97717
470.97724
470.97708
470.97704
470.97705
470.9771
470.9772
470.97734
470.9775
470.97753
470.97724
470.97721
470.97707
470.97703
470.97704
470.97709
470.9772
470.97735
470.97755
470.97759
470.97708
470.97707
470.97694
470.9769
470.97691
470.97697
470.97708
470.97725
470.97747
470.97754
470.97704
470.97703
470.9769
470.97686
470.97688
470.97695
470.97706
470.97723
470.97746
470.97754
470.97705
470.97704
470.97691
470.97688
470.9769
470.97697
470.97709
470.97727
470.9775
470.97758
470.9771
470.97709
470.97697
470.97695
470.97697
470.97705
470.97717
470.97735
470.97759
470.97767
470.9772
470.9772
470.97708
470.97706
470.97709
470.97717
470.9773
470.97749
470.97772
470.97781
470.97734
470.97735
470.97725
470.97723
470.97727
470.97735
470.97749
470.97767
470.97791
470.97799
470.9775
470.97755
470.97747
470.97746
470.9775
470.97759
470.97772
470.97791
470.97815
470.97823
470.97753
470.97759
470.97754
470.97754
470.97758
470.97767
470.97781
470.97799
470.97823
470.97818
478.5135
478.51357
478.51342
478.51338
478.51338
478.51344
478.51353
478.51367
478.51382
478.51385
478.51357
478.51354
478.5134
478.51337
478.51338
478.51343
478.51353
478.51368
478.51387
478.51391
478.51342
478.5134
478.51328
478.51324
478.51326
478.51332
478.51343
478.51358
478.51379
478.51386
478.51338
478.51337
478.51324
478.51321
478.51323
478.5133
478.51341
478.51357
478.51379
478.51386
478.51338
478.51338
478.51326
478.51323
478.51325
478.51332
478.51344
478.51361
478.51383
478.51391
478.51344
478.51343
478.51332
478.5133
478.51332
478.51339
478.51352
478.51369
478.51392
478.514
478.51353
478.51353
478.51343
478.51341
478.51344
478.51352
478.51364
478.51382
478.51405
478.51413
478.51367
478.51368
478.51358
478.51357
478.51361
478.51369
478.51382
478.51399
478.51422
478.51431
478.51382
478.51387
478.51379
478.51379
478.51383
478.51392
478.51405
478.51422
478.51446
478.51453
478.51385
478.51391
478.51386
478.51386
478.51391
478.514
478.51413
478.51431
478.51453
478.51449
486.05436
486.05443
486.05429
486.05425
486.05426
486.05431
486.05441
486.05454
486.05468
486.05471
486.05443
486.0544
486.05428
486.05424
486.05426
486.05431
486.05441
486.05455
486.05473
486.05477
486.05429
486.05428
486.05416
486.05413
486.05415
486.05421
486.05431
486.05446
486.05466
486.05473
486.05425
486.05424
486.05413
486.0541
486.05412
486.05419
486.05429
486.05445
486.05466
486.05473
486.05426
486.05426
486.05415
486.05412
486.05414
486.05421
486.05432
486.05448
486.0547
486.05477
486.05431
486.05431
486.05421
486.05419
486.05421
486.05428
486.0544
486.05456
486.05478
486.05486
486.05441
486.05441
486.05431
486.05429
486.05432
486.0544
486.05452
486.05469
486.05491
486.05498
486.05454
486.05455
486.05446
486.05445
486.05448
486.05456
486.05469
486.05485
486.05507
486.05515
486.05468
486.05473
486.05466
486.05466
486.0547
486.05478
486.05491
486.05507
486.0553
486.05537
486.05471
486.05477
486.05473
486.05473
486.05477
486.05486
486.05498
486.05515
486.05537
486.05532
493.59952
493.59958
493.59945
493.59942
493.59943
493.59948
493.59957
493.59969
493.59983
493.59986
493.59958
493.59956
493.59944
493.59941
493.59943
493.59948
493.59957
493.59971
493.59988
493.59991
493.59945
493.59944
493.59934
493.59931
493.59933
493.59938
493.59948
493.59962
493.59981
493.59988
493.59942
493.59941
493.59931
493.59929
493.5993
493.59937
493.59947
493.59961
493.59981
493.59988