/*--------------------------------*- C++ -*----------------------------------*\
| =========                 |                                                 |
| \\      /  F ield         | OpenFOAM: The Open Source CFD Toolbox           |
|  \\    /   O peration     | Version:  v2106                                 |
|   \\  /    A nd           | Website:  www.openfoam.com                      |
|    \\/     M anipulation  |                                                 |
\*---------------------------------------------------------------------------*/
FoamFile
{
    version     2.0;
    format      ascii;
    arch        "LSB;label=32;scalar=64";
    class       volScalarField;
    location    "30";
    object      calFieldValue;
}
// * * * * * * * * * * * * * * * * * * * * * * * * * * * * * * * * * * * * * //

dimensions      [0 0 0 1 0 0 0];

internalField   nonuniform List<scalar> 
4000
(
273.76412
273.76412
273.76413
273.76412
273.76412
273.76412
273.76412
273.76412
273.76413
273.76413
273.76412
273.76413
273.76412
273.76412
273.76412
273.76412
273.76412
273.76412
273.76413
273.76413
273.76413
273.76412
273.76412
273.76412
273.76412
273.76412
273.76412
273.76412
273.76413
273.76413
273.76412
273.76412
273.76412
273.76412
273.76412
273.76412
273.76412
273.76412
273.76412
273.76412
273.76412
273.76412
273.76412
273.76412
273.76412
273.76412
273.76412
273.76412
273.76412
273.76412
273.76412
273.76412
273.76412
273.76412
273.76412
273.76412
273.76412
273.76412
273.76412
273.76412
273.76412
273.76412
273.76412
273.76412
273.76412
273.76412
273.76412
273.76412
273.76412
273.76412
273.76412
273.76412
273.76412
273.76412
273.76412
273.76412
273.76412
273.76412
273.76412
273.76412
273.76413
273.76413
273.76413
273.76412
273.76412
273.76412
273.76412
273.76412
273.76412
273.76412
273.76413
273.76413
273.76413
273.76412
273.76412
273.76412
273.76412
273.76412
273.76412
273.76413
280.8767
280.8767
280.8767
280.8767
280.8767
280.87667
280.87667
280.8767
280.8767
280.8767
280.8767
280.8767
280.8767
280.8767
280.8767
280.87667
280.87667
280.87667
280.8767
280.8767
280.8767
280.8767
280.8767
280.87669
280.87667
280.87667
280.87667
280.87667
280.8767
280.8767
280.8767
280.8767
280.87669
280.87666
280.87666
280.87667
280.87667
280.87667
280.8767
280.8767
280.8767
280.8767
280.87667
280.87666
280.87666
280.87667
280.87667
280.87667
280.87667
280.8767
280.87667
280.87667
280.87667
280.87667
280.87667
280.87667
280.87667
280.87667
280.8767
280.8767
280.87667
280.87667
280.87667
280.87667
280.87667
280.87667
280.87667
280.8767
280.8767
280.8767
280.8767
280.87667
280.87667
280.87667
280.87667
280.87667
280.8767
280.8767
280.8767
280.87673
280.8767
280.8767
280.8767
280.8767
280.87667
280.8767
280.8767
280.8767
280.87673
280.87673
280.8767
280.8767
280.8767
280.8767
280.8767
280.8767
280.8767
280.87673
280.87673
280.87673
287.99339
287.99339
287.99339
287.99338
287.99335
287.99336
287.99336
287.99336
287.99336
287.99337
287.99339
287.99339
287.99338
287.99338
287.99335
287.99336
287.99336
287.99336
287.99336
287.99339
287.99339
287.99338
287.99338
287.99335
287.99335
287.99333
287.99336
287.99336
287.99336
287.99336
287.99338
287.99338
287.99335
287.99335
287.99332
287.99332
287.99332
287.99335
287.99336
287.99336
287.99335
287.99335
287.99335
287.99332
287.99332
287.99332
287.99332
287.99335
287.99336
287.99336
287.99336
287.99336
287.99333
287.99332
287.99332
287.99332
287.99332
287.99335
287.99336
287.99338
287.99336
287.99336
287.99336
287.99332
287.99332
287.99332
287.99335
287.99335
287.99338
287.99338
287.99336
287.99336
287.99336
287.99335
287.99335
287.99335
287.99335
287.99338
287.99341
287.99341
287.99336
287.99336
287.99336
287.99336
287.99336
287.99336
287.99338
287.99341
287.99341
287.99342
287.99337
287.99339
287.99336
287.99336
287.99336
287.99338
287.99338
287.99341
287.99342
287.99344
295.11689
295.11689
295.11686
295.11686
295.11683
295.11683
295.11684
295.11684
295.11687
295.11687
295.11689
295.11689
295.11686
295.11685
295.11683
295.11683
295.11684
295.11684
295.11687
295.11687
295.11686
295.11686
295.11686
295.11682
295.1168
295.1168
295.11681
295.11684
295.11684
295.11687
295.11686
295.11685
295.11682
295.11682
295.11679
295.1168
295.1168
295.11683
295.11683
295.11686
295.11683
295.11683
295.1168
295.11679
295.11676
295.11677
295.1168
295.11683
295.11683
295.11686
295.11683
295.11683
295.1168
295.1168
295.11677
295.11677
295.1168
295.11683
295.11686
295.11686
295.11684
295.11684
295.11681
295.1168
295.1168
295.1168
295.11683
295.11686
295.11689
295.11689
295.11684
295.11684
295.11684
295.11683
295.11683
295.11683
295.11686
295.11689
295.11692
295.11692
295.11687
295.11687
295.11684
295.11683
295.11683
295.11686
295.11689
295.11692
295.11692
295.11695
295.11687
295.11687
295.11687
295.11686
295.11686
295.11686
295.11689
295.11692
295.11695
295.11695
302.24981
302.24981
302.24978
302.24977
302.24974
302.24975
302.24975
302.24976
302.24979
302.24979
302.24981
302.24978
302.24978
302.24974
302.24971
302.24972
302.24972
302.24976
302.24979
302.24979
302.24978
302.24978
302.24974
302.24974
302.24971
302.24971
302.24972
302.24975
302.24976
302.24979
302.24977
302.24974
302.24974
302.2497
302.24968
302.24968
302.24971
302.24975
302.24975
302.24978
302.24974
302.24971
302.24971
302.24968
302.24968
302.24968
302.24971
302.24974
302.24977
302.24978
302.24975
302.24972
302.24971
302.24968
302.24968
302.24968
302.24971
302.24974
302.24977
302.2498
302.24975
302.24972
302.24972
302.24971
302.24971
302.24971
302.24974
302.24977
302.2498
302.24983
302.24976
302.24976
302.24975
302.24975
302.24974
302.24974
302.24977
302.24983
302.24983
302.24986
302.24979
302.24979
302.24976
302.24975
302.24977
302.24977
302.2498
302.24983
302.24987
302.24989
302.24979
302.24979
302.24979
302.24978
302.24978
302.2498
302.24983
302.24986
302.24989
302.24989
309.39468
309.39467
309.39464
309.39463
309.3946
309.39461
309.39462
309.39465
309.39465
309.39466
309.39467
309.39467
309.39464
309.3946
309.39458
309.39458
309.39461
309.39462
309.39465
309.39468
309.39464
309.39464
309.39461
309.3946
309.39457
309.39458
309.39458
309.39462
309.39465
309.39465
309.39463
309.3946
309.3946
309.39456
309.39454
309.39454
309.39457
309.39461
309.39464
309.39467
309.3946
309.39458
309.39457
309.39454
309.39451
309.39454
309.39457
309.3946
309.39464
309.39466
309.39461
309.39458
309.39458
309.39454
309.39454
309.39454
309.39459
309.39463
309.39466
309.39469
309.39462
309.39461
309.39458
309.39457
309.39457
309.39459
309.39462
309.39466
309.39472
309.39472
309.39465
309.39462
309.39462
309.39461
309.3946
309.39463
309.39466
309.39472
309.39475
309.39478
309.39465
309.39465
309.39465
309.39464
309.39464
309.39466
309.39472
309.39475
309.39478
309.39481
309.39466
309.39468
309.39465
309.39467
309.39466
309.39469
309.39472
309.39478
309.39481
309.39481
316.55391
316.55391
316.55388
316.55387
316.55384
316.55382
316.55385
316.55388
316.55389
316.55392
316.55391
316.55388
316.55387
316.55384
316.55381
316.55381
316.55382
316.55386
316.55389
316.55392
316.55388
316.55387
316.55384
316.5538
316.55378
316.55378
316.55381
316.55385
316.55388
316.55391
316.55387
316.55384
316.5538
316.55377
316.55377
316.55377
316.5538
316.55384
316.55387
316.5539
316.55384
316.55381
316.55378
316.55377
316.55374
316.55374
316.5538
316.55383
316.55389
316.55392
316.55382
316.55381
316.55378
316.55377
316.55374
316.55377
316.55382
316.55388
316.55392
316.55395
316.55385
316.55382
316.55381
316.5538
316.5538
316.55382
316.55388
316.55391
316.55397
316.554
316.55388
316.55386
316.55385
316.55384
316.55383
316.55388
316.55391
316.55398
316.55401
316.55404
316.55389
316.55389
316.55388
316.55387
316.55389
316.55392
316.55397
316.55401
316.55407
316.55407
316.55392
316.55392
316.55391
316.5539
316.55392
316.55395
316.554
316.55404
316.55407
316.5541
323.72975
323.72975
323.72972
323.72968
323.72965
323.72966
323.72969
323.72973
323.72976
323.72976
323.72975
323.72972
323.72972
323.72968
323.72965
323.72965
323.72966
323.72973
323.72976
323.72979
323.72972
323.72972
323.72968
323.72964
323.72962
323.72962
323.72965
323.72969
323.72975
323.72975
323.72968
323.72968
323.72964
323.72961
323.72958
323.72961
323.72964
323.72971
323.72974
323.72977
323.72965
323.72965
323.72962
323.72958
323.72958
323.72958
323.72964
323.7297
323.72976
323.72979
323.72966
323.72965
323.72962
323.72961
323.72958
323.7296
323.72966
323.72972
323.72978
323.72981
323.72969
323.72966
323.72965
323.72964
323.72964
323.72966
323.72972
323.72981
323.72984
323.72987
323.72973
323.72973
323.72969
323.72971
323.7297
323.72972
323.72981
323.72987
323.7299
323.72993
323.72976
323.72976
323.72975
323.72974
323.72976
323.72978
323.72984
323.7299
323.72994
323.72997
323.72976
323.72979
323.72975
323.72977
323.72979
323.72981
323.72987
323.72993
323.72997
323.73
330.92429
330.92426
330.92423
330.92421
330.92418
330.92419
330.92422
330.92426
330.92429
330.92432
330.92426
330.92426
330.92422
330.92418
330.92415
330.92416
330.92419
330.92426
330.92429
330.92432
330.92423
330.92422
330.92418
330.92415
330.92412
330.92415
330.92418
330.92425
330.92428
330.92431
330.92421
330.92418
330.92415
330.92411
330.92411
330.92411
330.92417
330.92423
330.92427
330.9243
330.92418
330.92415
330.92412
330.92411
330.92407
330.9241
330.92416
330.92423
330.92429
330.92432
330.92419
330.92416
330.92415
330.92411
330.9241
330.92413
330.92421
330.92427
330.92434
330.92437
330.92422
330.92419
330.92418
330.92417
330.92416
330.92421
330.92427
330.92436
330.92439
330.92445
330.92426
330.92426
330.92425
330.92423
330.92423
330.92427
330.92436
330.92442
330.92449
330.92449
330.92429
330.92429
330.92428
330.92427
330.92429
330.92434
330.92439
330.92449
330.92452
330.92455
330.92432
330.92432
330.92431
330.9243
330.92432
330.92437
330.92445
330.92449
330.92455
330.92455
338.13933
338.13932
338.13929
338.13928
338.13924
338.13925
338.13929
338.13932
338.13938
338.13939
338.13932
338.13932
338.13928
338.13924
338.13921
338.13922
338.13928
338.13932
338.13938
338.13941
338.13929
338.13928
338.13925
338.13921
338.13918
338.13921
338.13924
338.13931
338.13937
338.1394
338.13928
338.13924
338.13921
338.13917
338.13914
338.13917
338.13923
338.13929
338.13936
338.13939
338.13924
338.13921
338.13918
338.13914
338.13913
338.13916
338.13925
338.13931
338.13937
338.13941
338.13925
338.13922
338.13921
338.13917
338.13916
338.13921
338.13927
338.13936
338.13942
338.13948
338.13929
338.13928
338.13924
338.13923
338.13925
338.13927
338.13935
338.13944
338.13951
338.13954
338.13932
338.13932
338.13931
338.13929
338.13931
338.13936
338.13944
338.13953
338.13957
338.1396
338.13938
338.13938
338.13937
338.13936
338.13937
338.13942
338.13951
338.13957
338.13964
338.13966
338.13939
338.13941
338.1394
338.13939
338.13941
338.13948
338.13954
338.1396
338.13966
338.13967
345.37657
345.37656
345.37653
345.37649
345.37648
345.37649
345.37652
345.37659
345.37662
345.37665
345.37656
345.37653
345.3765
345.37648
345.37645
345.37645
345.37652
345.37656
345.37662
345.37665
345.37653
345.3765
345.37646
345.37644
345.37641
345.37642
345.37648
345.37655
345.37661
345.37664
345.37649
345.37648
345.37644
345.3764
345.37637
345.3764
345.37649
345.37656
345.37662
345.37665
345.37648
345.37645
345.37641
345.37637
345.37637
345.37639
345.37648
345.37657
345.37663
345.37667
345.37649
345.37645
345.37642
345.3764
345.37639
345.37644
345.37653
345.37662
345.37668
345.37674
345.37652
345.37652
345.37648
345.37649
345.37648
345.37653
345.37661
345.3767
345.37679
345.37682
345.37659
345.37656
345.37655
345.37656
345.37657
345.37662
345.3767
345.37679
345.37686
345.37689
345.37662
345.37662
345.37661
345.37662
345.37663
345.37668
345.37679
345.37686
345.37692
345.37695
345.37665
345.37665
345.37664
345.37665
345.37667
345.37674
345.37682
345.37689
345.37695
345.37696
352.63734
352.63731
352.63728
352.63726
352.63723
352.63723
352.63729
352.63736
352.6374
352.63743
352.63731
352.63731
352.63727
352.63723
352.6372
352.63723
352.63729
352.63736
352.63742
352.63745
352.63728
352.63727
352.63723
352.63719
352.63716
352.63719
352.63725
352.63735
352.63741
352.63744
352.63726
352.63723
352.63719
352.63715
352.63714
352.63717
352.63726
352.63733
352.63739
352.63745
352.63723
352.6372
352.63716
352.63714
352.63713
352.63716
352.63724
352.63734
352.63743
352.63746
352.63723
352.63723
352.63719
352.63717
352.63716
352.63721
352.63732
352.63741
352.6375
352.63754
352.63729
352.63729
352.63725
352.63726
352.63724
352.63732
352.6374
352.63752
352.63759
352.63762
352.63736
352.63736
352.63735
352.63733
352.63734
352.63741
352.63752
352.63761
352.63768
352.63772
352.6374
352.63742
352.63741
352.63739
352.63743
352.6375
352.63759
352.63768
352.63775
352.63778
352.63743
352.63745
352.63744
352.63745
352.63746
352.63754
352.63762
352.63772
352.63778
352.63778
359.92272
359.92269
359.92265
359.92264
359.9226
359.92263
359.92267
359.92273
359.9228
359.92283
359.92269
359.92268
359.92265
359.9226
359.92257
359.9226
359.92266
359.92273
359.92279
359.92285
359.92265
359.92265
359.92261
359.92256
359.92253
359.92256
359.92265
359.92272
359.92278
359.92284
359.92264
359.9226
359.92256
359.92252
359.92251
359.92254
359.92263
359.92272
359.92282
359.92285
359.9226
359.92257
359.92253
359.92251
359.9225
359.92255
359.92264
359.92276
359.92283
359.92288
359.92263
359.9226
359.92256
359.92254
359.92255
359.9226
359.92271
359.9228
359.9229
359.92296
359.92267
359.92266
359.92265
359.92263
359.92264
359.92271
359.92282
359.92291
359.92301
359.92304
359.92273
359.92273
359.92272
359.92272
359.92276
359.9228
359.92291
359.92304
359.9231
359.92314
359.9228
359.92279
359.92278
359.92282
359.92283
359.9229
359.92301
359.9231
359.92317
359.9232
359.92283
359.92285
359.92284
359.92285
359.92288
359.92296
359.92304
359.92314
359.9232
359.92323
367.23346
367.23346
367.23342
367.23341
367.23337
367.23337
367.23344
367.2335
367.23357
367.2336
367.23346
367.23343
367.23339
367.23337
367.23334
367.23337
367.23343
367.2335
367.23359
367.23362
367.23342
367.23339
367.23335
367.2333
367.2333
367.23333
367.23342
367.23348
367.23358
367.2336
367.23341
367.23337
367.2333
367.23329
367.23328
367.2333
367.23339
367.23349
367.23358
367.23361
367.23337
367.23334
367.2333
367.23328
367.23327
367.23332
367.2334
367.23352
367.23362
367.23368
367.23337
367.23337
367.23333
367.2333
367.23332
367.23336
367.23347
367.23359
367.23369
367.23375
367.23344
367.23343
367.23342
367.23339
367.2334
367.23347
367.23358
367.2337
367.2338
367.23386
367.2335
367.2335
367.23348
367.23349
367.23352
367.23359
367.2337
367.23383
367.23389
367.23393
367.23357
367.23359
367.23358
367.23358
367.23362
367.23369
367.2338
367.23389
367.23396
367.23399
367.2336
367.23362
367.2336
367.23361
367.23368
367.23375
367.23386
367.23393
367.23399
367.23402
374.57004
374.57001
374.57
374.56995
374.56994
374.56995
374.57001
374.5701
374.57017
374.5702
374.57001
374.57001
374.56997
374.56992
374.56991
374.56994
374.57
374.5701
374.57016
374.57022
374.57
374.56997
374.56992
374.56988
374.56987
374.5699
374.56999
374.57008
374.57015
374.5702
374.56995
374.56992
374.56988
374.56986
374.56985
374.56987
374.56999
374.57009
374.57018
374.57021
374.56994
374.56991
374.56987
374.56985
374.56984
374.56988
374.57
374.57012
374.57021
374.57027
374.56995
374.56994
374.5699
374.56987
374.56988
374.56996
374.57007
374.57019
374.57028
374.57034
374.57001
374.57
374.56999
374.56999
374.57
374.57007
374.5702
374.57032
374.57042
374.57045
374.5701
374.5701
374.57008
374.57009
374.57012
374.57019
374.57032
374.57042
374.57052
374.57055
374.57017
374.57016
374.57015
374.57018
374.57021
374.57028
374.57042
374.57052
374.57059
374.57061
374.5702
374.57022
374.5702
374.57021
374.57027
374.57034
374.57045
374.57055
374.57061
374.57064
381.93251
381.93248
381.93247
381.93242
381.93241
381.93244
381.9325
381.93259
381.93266
381.93269
381.93248
381.93247
381.93243
381.93238
381.93237
381.9324
381.93249
381.93256
381.93265
381.93268
381.93247
381.93243
381.93239
381.93234
381.93233
381.93239
381.93248
381.93257
381.93264
381.93269
381.93242
381.93238
381.93234
381.93232
381.93231
381.93236
381.93248
381.93257
381.93267
381.9327
381.93241
381.93237
381.93233
381.93231
381.93229
381.93237
381.93248
381.93261
381.9327
381.93276
381.93244
381.9324
381.93239
381.93236
381.93237
381.93244
381.93255
381.93267
381.93279
381.93285
381.9325
381.93249
381.93248
381.93248
381.93248
381.93255
381.93269
381.93281
381.9329
381.93297
381.93259
381.93256
381.93257
381.93257
381.93261
381.93267
381.93281
381.93293
381.93303
381.93306
381.93266
381.93265
381.93264
381.93267
381.9327
381.93279
381.9329
381.93303
381.9331
381.93313
381.93269
381.93268
381.93269
381.9327
381.93276
381.93285
381.93297
381.93306
381.93313
381.93316
389.32056
389.32056
389.32052
389.3205
389.32049
389.32051
389.32058
389.32067
389.32074
389.32077
389.32056
389.32053
389.32051
389.32046
389.32045
389.32048
389.32057
389.32067
389.32076
389.32079
389.32052
389.32051
389.32047
389.32042
389.32041
389.32046
389.32055
389.32065
389.32074
389.3208
389.3205
389.32046
389.32042
389.3204
389.32039
389.32044
389.32055
389.32068
389.32077
389.3208
389.32049
389.32045
389.32041
389.32039
389.32039
389.32044
389.32058
389.3207
389.3208
389.32086
389.32051
389.32048
389.32046
389.32044
389.32044
389.32051
389.32065
389.3208
389.32089
389.32095
389.32058
389.32057
389.32055
389.32055
389.32058
389.32065
389.32078
389.32093
389.32103
389.32107
389.32067
389.32067
389.32065
389.32068
389.3207
389.3208
389.32093
389.32106
389.32113
389.32119
389.32074
389.32076
389.32074
389.32077
389.3208
389.32089
389.32103
389.32113
389.32122
389.32125
389.32077
389.32079
389.3208
389.3208
389.32086
389.32095
389.32107
389.32119
389.32125
389.32128
396.73359
396.73358
396.73354
396.73352
396.73351
396.73354
396.7336
396.73369
396.73378
396.73381
396.73358
396.73355
396.73354
396.73349
396.73347
396.7335
396.73359
396.73369
396.73378
396.73383
396.73354
396.73354
396.73349
396.73344
396.73343
396.73348
396.73357
396.7337
396.73379
396.73382
396.73352
396.73349
396.73344
396.73342
396.73341
396.73346
396.7336
396.73369
396.73379
396.73385
396.73351
396.73347
396.73343
396.73341
396.73341
396.73349
396.7336
396.73375
396.73384
396.7339
396.73354
396.7335
396.73348
396.73346
396.73349
396.73355
396.73369
396.73384
396.73393
396.734
396.7336
396.73359
396.73357
396.7336
396.7336
396.73369
396.73383
396.73397
396.73407
396.73414
396.73369
396.73369
396.7337
396.73369
396.73375
396.73384
396.73397
396.7341
396.7342
396.73423
396.73378
396.73378
396.73379
396.73379
396.73384
396.73393
396.73407
396.7342
396.73427
396.7343
396.73381
396.73383
396.73382
396.73385
396.7339
396.734
396.73414
396.73423
396.7343
396.73433
404.17049
404.17049
404.17045
404.17043
404.17041
404.17044
404.17053
404.17062
404.17069
404.17072
404.17049
404.17046
404.17041
404.17039
404.17037
404.1704
404.17052
404.17061
404.17071
404.17074
404.17045
404.17041
404.1704
404.17035
404.17033
404.17038
404.1705
404.1706
404.17069
404.17074
404.17043
404.17039
404.17035
404.17032
404.1703
404.17038
404.1705
404.17062
404.17071
404.17077
404.17041
404.17037
404.17033
404.1703
404.17031
404.17038
404.17052
404.17064
404.17076
404.17083
404.17044
404.1704
404.17038
404.17038
404.17038
404.17048
404.17061
404.17076
404.17086
404.17092
404.17053
404.17052
404.1705
404.1705
404.17052
404.17061
404.17075
404.1709
404.17099
404.17106
404.17062
404.17061
404.1706
404.17062
404.17064
404.17076
404.1709
404.17102
404.17112
404.17116
404.17069
404.17071
404.17069
404.17071
404.17076
404.17086
404.17099
404.17112
404.17119
404.17125
404.17072
404.17074
404.17074
404.17077
404.17083
404.17092
404.17106
404.17116
404.17125
404.17128
411.62983
411.62982
411.62978
411.62976
411.62974
411.62979
411.62985
411.62998
411.63004
411.63007
411.62982
411.62979
411.62977
411.62972
411.6297
411.62976
411.62985
411.62997
411.63006
411.63009
411.62978
411.62977
411.62973
411.6297
411.62968
411.62974
411.62985
411.62995
411.63004
411.6301
411.62976
411.62972
411.6297
411.62965
411.62966
411.62973
411.62985
411.62997
411.63006
411.63012
411.62974
411.6297
411.62968
411.62966
411.62966
411.62973
411.62987
411.63002
411.63012
411.63018
411.62979
411.62976
411.62974
411.62973
411.62973
411.62982
411.62996
411.63011
411.63023
411.63029
411.62985
411.62985
411.62985
411.62985
411.62987
411.62996
411.63012
411.63024
411.63037
411.63043
411.62998
411.62997
411.62995
411.62997
411.63002
411.63011
411.63024
411.6304
411.6305
411.63053
411.63004
411.63006
411.63004
411.63006
411.63012
411.63023
411.63037
411.6305
411.63057
411.6306
411.63007
411.63009
411.6301
411.63012
411.63018
411.63029
411.63043
411.63053
411.6306
411.63063
419.10979
419.10978
419.10974
419.10972
419.1097
419.10975
419.10984
419.10993
419.11002
419.11005
419.10978
419.10975
419.10973
419.10968
419.10969
419.10971
419.10983
419.10992
419.11002
419.11007
419.10974
419.10973
419.10969
419.10966
419.10964
419.10969
419.10981
419.10993
419.11002
419.11008
419.10972
419.10968
419.10966
419.10964
419.10961
419.10969
419.10983
419.10995
419.11005
419.1101
419.1097
419.10969
419.10964
419.10961
419.10964
419.10971
419.10985
419.10997
419.11009
419.11016
419.10975
419.10971
419.10969
419.10969
419.10971
419.1098
419.10994
419.11009
419.11021
419.11027
419.10984
419.10983
419.10981
419.10983
419.10985
419.10994
419.11007
419.11022
419.11035
419.11041
419.10993
419.10992
419.10993
419.10995
419.10997
419.11009
419.11022
419.11038
419.11047
419.11051
419.11002
419.11002
419.11002
419.11005
419.11009
419.11021
419.11035
419.11047
419.11054
419.11057
419.11005
419.11007
419.11008
419.1101
419.11016
419.11027
419.11041
419.11051
419.11057
419.11061
426.60818
426.60818
426.60814
426.60811
426.60812
426.60814
426.60823
426.60835
426.60842
426.60844
426.60818
426.60815
426.60813
426.6081
426.60808
426.60813
426.60822
426.60834
426.60843
426.60846
426.60814
426.60813
426.60808
426.60805
426.60803
426.60811
426.60822
426.60832
426.60844
426.60847
426.60811
426.6081
426.60805
426.60803
426.60803
426.6081
426.60822
426.60834
426.60846
426.60852
426.60812
426.60808
426.60803
426.60803
426.60803
426.60812
426.60826
426.60839
426.60851
426.60857
426.60814
426.60813
426.60811
426.6081
426.60812
426.60822
426.60835
426.6085
426.60862
426.60869
426.60823
426.60822
426.60822
426.60822
426.60826
426.60835
426.60851
426.60864
426.60876
426.60883
426.60835
426.60834
426.60832
426.60834
426.60839
426.6085
426.60864
426.60879
426.60889
426.60892
426.60842
426.60843
426.60844
426.60846
426.60851
426.60862
426.60876
426.60889
426.60896
426.60901
426.60844
426.60846
426.60847
426.60852
426.60857
426.60869
426.60883
426.60892
426.60901
426.60902
434.12252
434.12251
434.1225
434.12247
434.12245
434.1225
434.12259
434.12271
434.12277
434.1228
434.12251
434.12251
434.12246
434.12243
434.12244
434.12249
434.12258
434.1227
434.12279
434.12282
434.1225
434.12246
434.12244
434.12241
434.12239
434.12246
434.12258
434.1227
434.12279
434.12285
434.12247
434.12243
434.12241
434.12238
434.12239
434.12246
434.12257
434.12272
434.12281
434.12287
434.12245
434.12244
434.12239
434.12239
434.12238
434.12248
434.12262
434.12277
434.12286
434.12292
434.1225
434.12249
434.12246
434.12246
434.12248
434.12257
434.1227
434.12285
434.12297
434.12304
434.12259
434.12258
434.12258
434.12257
434.12262
434.1227
434.12286
434.12301
434.12311
434.12318
434.12271
434.1227
434.1227
434.12272
434.12277
434.12285
434.12301
434.12314
434.12324
434.12328
434.12277
434.12279
434.12279
434.12281
434.12286
434.12297
434.12311
434.12324
434.12333
434.12337
434.1228
434.12282
434.12285
434.12287
434.12292
434.12304
434.12318
434.12328
434.12337
434.1234
441.65008
441.65007
441.65003
441.65001
441.65001
441.65006
441.65014
441.65024
441.65033
441.65035
441.65007
441.65004
441.65002
441.64999
441.64997
441.65004
441.65013
441.65025
441.65034
441.65037
441.65003
441.65002
441.64997
441.64994
441.64995
441.65002
441.65013
441.65023
441.65032
441.65038
441.65001
441.64999
441.64994
441.64994
441.64994
441.65001
441.65013
441.65028
441.65037
441.65042
441.65001
441.64997
441.64995
441.64994
441.64994
441.65003
441.65017
441.65032
441.65041
441.65047
441.65006
441.65004
441.65002
441.65001
441.65003
441.65012
441.65025
441.6504
441.65052
441.65059
441.65014
441.65013
441.65013
441.65013
441.65017
441.65025
441.65041
441.65056
441.65066
441.65073
441.65024
441.65025
441.65023
441.65028
441.65032
441.6504
441.65056
441.65069
441.65079
441.65083
441.65033
441.65034
441.65032
441.65037
441.65041
441.65052
441.65066
441.65079
441.65089
441.65092
441.65035
441.65037
441.65038
441.65042
441.65047
441.65059
441.65073
441.65083
441.65092
441.65095
449.18786
449.18786
449.18784
449.18782
449.18782
449.18786
449.18795
449.18804
449.18813
449.18816
449.18786
449.18782
449.1878
449.18778
449.18778
449.18782
449.18794
449.18803
449.18812
449.18818
449.18784
449.1878
449.18778
449.18775
449.18776
449.18783
449.18794
449.18803
449.18812
449.18818
449.18782
449.18778
449.18775
449.18772
449.18775
449.18782
449.18793
449.18808
449.18817
449.18823
449.18782
449.18778
449.18776
449.18775
449.18774
449.18783
449.18797
449.18812
449.18822
449.18828
449.18786
449.18782
449.18783
449.18782
449.18783
449.18792
449.18808
449.18821
449.18833
449.18839
449.18795
449.18794
449.18794
449.18793
449.18797
449.18808
449.18822
449.18837
449.18847
449.18853
449.18804
449.18803
449.18803
449.18808
449.18812
449.18821
449.18837
449.18849
449.18859
449.18863
449.18813
449.18812
449.18812
449.18817
449.18822
449.18833
449.18847
449.18859
449.18866
449.18872
449.18816
449.18818
449.18818
449.18823
449.18828
449.18839
449.18853
449.18863
449.18872
449.18873
456.73291
456.7329
456.73286
456.73286
456.73286
456.7329
456.73299
456.73308
456.73317
456.7332
456.7329
456.73287
456.73285
456.73282
456.73282
456.73289
456.73298
456.7331
456.73319
456.73322
456.73286
456.73285
456.73283
456.7328
456.7328
456.73287
456.73298
456.7331
456.73319
456.73322
456.73286
456.73282
456.7328
456.73279
456.73279
456.73286
456.733
456.73312
456.73321
456.73327
456.73286
456.73282
456.7328
456.73279
456.73281
456.7329
456.73304
456.73316
456.73328
456.73334
456.7329
456.73289
456.73287
456.73286
456.7329
456.73299
456.73312
456.73327
456.73336
456.73343
456.73299
456.73298
456.73298
456.733
456.73304
456.73312
456.73328
456.73341
456.7335
456.73357
456.73308
456.7331
456.7331
456.73312
456.73316
456.73327
456.73341
456.73356
456.73363
456.73367
456.73317
456.73319
456.73319
456.73321
456.73328
456.73336
456.7335
456.73363
456.73372
456.73376
456.7332
456.73322
456.73322
456.73327
456.73334
456.73343
456.73357
456.73367
456.73376
456.73376
464.28224
464.28223
464.28221
464.28219
464.28219
464.28223
464.28232
464.28244
464.2825
464.28255
464.28223
464.28222
464.28218
464.28218
464.28218
464.28222
464.28233
464.28242
464.28251
464.28257
464.28221
464.28218
464.28216
464.28215
464.28215
464.28222
464.28233
464.28243
464.28251
464.28257
464.28219
464.28218
464.28215
464.28212
464.28215
464.28221
464.28233
464.28245
464.28256
464.28259
464.28219
464.28218
464.28215
464.28215
464.28217
464.28223
464.28236
464.28251
464.28261
464.28267
464.28223
464.28222
464.28222
464.28221
464.28223
464.28231
464.28247
464.2826
464.28272
464.28278
464.28232
464.28233
464.28233
464.28233
464.28236
464.28247
464.28261
464.28276
464.28286
464.2829
464.28244
464.28242
464.28243
464.28245
464.28251
464.2826
464.28276
464.28288
464.28296
464.28299
464.2825
464.28251
464.28251
464.28256
464.28261
464.28272
464.28286
464.28296
464.28305
464.28308
464.28255
464.28257
464.28257
464.28259
464.28267
464.28278
464.2829
464.28299
464.28308
464.28309
471.83315
471.83315
471.83313
471.83313
471.83313
471.83318
471.83326
471.83335
471.83344
471.83346
471.83315
471.83314
471.83312
471.83309
471.83309
471.83316
471.83325
471.83336
471.83345
471.83348
471.83313
471.83312
471.8331
471.83307
471.83309
471.83314
471.83325
471.83337
471.83345
471.83348
471.83313
471.83309
471.83307
471.83307
471.83309
471.83315
471.83327
471.83338
471.83347
471.83353
471.83313
471.83309
471.83309
471.83309
471.83311
471.83317
471.8333
471.83343
471.83354
471.83358
471.83318
471.83316
471.83314
471.83315
471.83317
471.83325
471.83339
471.83354
471.83363
471.8337
471.83326
471.83325
471.83325
471.83327
471.8333
471.83339
471.83355
471.83367
471.83377
471.83384
471.83335
471.83336
471.83337
471.83338
471.83343
471.83354
471.83367
471.8338
471.83389
471.83393
471.83344
471.83345
471.83345
471.83347
471.83354
471.83363
471.83377
471.83389
471.83396
471.83399
471.83346
471.83348
471.83348
471.83353
471.83358
471.8337
471.83384
471.83393
471.83399
471.834
479.38346
479.38345
479.38344
479.38341
479.38341
479.38345
479.38356
479.38365
479.38371
479.38374
479.38345
479.38342
479.3834
479.3834
479.3834
479.38344
479.38355
479.38364
479.38373
479.38376
479.38344
479.3834
479.38338
479.38338
479.38337
479.38344
479.38355
479.38364
479.38373
479.38379
479.38341
479.3834
479.38338
479.38337
479.38337
479.38346
479.38357
479.38369
479.38375
479.38381
479.38341
479.3834
479.38337
479.38337
479.38339
479.38347
479.38361
479.38373
479.38382
479.38388
479.38345
479.38344
479.38344
479.38346
479.38347
479.38356
479.38369
479.38381
479.38391
479.38397
479.38356
479.38355
479.38355
479.38357
479.38361
479.38369
479.38383
479.38395
479.38405
479.38409
479.38365
479.38364
479.38364
479.38369
479.38373
479.38381
479.38395
479.38408
479.38415
479.38418
479.38371
479.38373
479.38373
479.38375
479.38382
479.38391
479.38405
479.38415
479.38421
479.38424
479.38374
479.38376
479.38379
479.38381
479.38388
479.38397
479.38409
479.38418
479.38424
479.38428
486.93159
486.93159
486.93157
486.93158
486.93158
486.93162
486.9317
486.93179
486.93187
486.9319
486.93159
486.93158
486.93156
486.93156
486.93156
486.9316
486.93171
486.9318
486.93186
486.93192
486.93157
486.93156
486.93154
486.93154
486.93154
486.9316
486.93171
486.9318
486.93189
486.93192
486.93158
486.93156
486.93154
486.93151
486.93153
486.9316
486.93173
486.93182
486.93191
486.93194
486.93158
486.93156