/*--------------------------------*- C++ -*----------------------------------*\
| =========                 |                                                 |
| \\      /  F ield         | OpenFOAM: The Open Source CFD Toolbox           |
|  \\    /   O peration     | Version:  v2106                                 |
|   \\  /    A nd           | Website:  www.openfoam.com                      |
|    \\/     M anipulation  |                                                 |
\*---------------------------------------------------------------------------*/
FoamFile
{
    version     2.0;
    format      ascii;
    arch        "LSB;label=32;scalar=64";
    class       volScalarField;
    location    "30";
    object      laplacianT;
}
// * * * * * * * * * * * * * * * * * * * * * * * * * * * * * * * * * * * * * //

dimensions      [0 -2 0 1 0 0 0];

internalField   nonuniform List<scalar> 
4000
(
4.6091377
4.8772072
4.4901795
4.6406681
4.6664917
4.6621482
4.6584873
4.6552421
4.6501195
4.6503195
4.8772072
4.5592051
4.5254902
4.6561653
4.6676864
4.6602123
4.6543891
4.6481528
4.6461392
4.6646668
4.4901795
4.5254902
4.4211237
4.5328879
4.5431326
4.5362754
4.5289521
4.5165559
4.5071254
4.562129
4.6406681
4.6561653
4.5328879
4.6420871
4.6527577
4.6465997
4.639507
4.6243811
4.6028309
4.6266623
4.6664917
4.6676864
4.5431326
4.6527577
4.6639075
4.6581845
4.6518144
4.6376869
4.6167147
4.6383073
4.6621482
4.6602124
4.5362754
4.6465997
4.6581845
4.6526497
4.6465679
4.6331889
4.6134694
4.6365737
4.6584873
4.6543891
4.5289521
4.639507
4.6518144
4.6465679
4.6403993
4.6269515
4.6073081
4.6308409
4.6552421
4.6481528
4.5165559
4.6243811
4.6376869
4.6331889
4.6269515
4.6131443
4.5930679
4.616682
4.6501195
4.6461392
4.5071255
4.6028309
4.6167147
4.6134694
4.6073081
4.5930679
4.572563
4.5976846
4.6503195
4.6646668
4.562129
4.6266623
4.6383073
4.6365737
4.6308409
4.616682
4.5976846
4.6310214
13.72256
14.182609
13.503902
13.808147
13.858206
13.848778
13.839183
13.827792
13.811544
13.782983
14.182609
13.741404
13.660396
13.917129
13.940814
13.924657
13.907328
13.887853
13.907499
13.91693
13.503902
13.660396
13.448951
13.67369
13.69572
13.680631
13.658366
13.61925
13.623148
13.730509
13.808147
13.917129
13.67369
13.894249
13.917191
13.903702
13.881704
13.833912
13.805717
13.838398
13.858206
13.940814
13.69572
13.917191
13.94111
13.928706
13.908593
13.862998
13.83554
13.858969
13.848778
13.924657
13.680631
13.903702
13.928706
13.916802
13.897443
13.853564
13.828838
13.854462
13.839183
13.907328
13.658366
13.881704
13.908593
13.897443
13.877894
13.833779
13.809078
13.835963
13.827792
13.887853
13.61925
13.833912
13.862998
13.853564
13.833779
13.788601
13.762619
13.792576
13.811544
13.907499
13.623148
13.805717
13.83554
13.828838
13.809078
13.762619
13.735858
13.779441
13.782983
13.91693
13.730509
13.838398
13.858969
13.854462
13.835963
13.792576
13.779441
13.849469
22.787654
23.346524
22.548142
22.95753
23.020856
23.005875
22.987848
22.965871
22.961297
22.84553
23.346524
22.789944
22.72136
23.065925
23.096268
23.070817
23.034901
22.990119
23.08306
23.089671
22.548142
22.72136
22.486729
22.791745
22.820583
22.797064
22.752806
22.669367
22.722937
22.856563
22.95753
23.065925
22.791745
23.091658
23.121884
23.101101
23.057838
22.960963
22.966308
22.991568
23.020856
23.096268
22.820583
23.121884
23.153466
23.134398
23.094294
23.000889
23.007393
23.017323
23.005875
23.070817
22.797064
23.101101
23.134398
23.116037
23.077031
22.986034
22.996313
23.008208
22.987848
23.034901
22.752806
23.057838
23.094294
23.077031
23.037598
22.945924
22.9557
22.969427
22.965871
22.990119
22.669367
22.960963
23.000889
22.986034
22.945924
22.852085
22.859502
22.884707
22.961297
23.08306
22.722937
22.966308
23.007393
22.996313
22.9557
22.859502
22.868466
22.948924
22.84553
23.089671
22.856563
22.991568
23.017323
23.008208
22.969427
22.884707
22.948924
22.959108
31.675336
32.370101
31.422738
31.924494
32.001172
31.981079
31.952126
31.913969
31.941008
31.788538
32.370101
31.736425
31.651577
32.074702
32.112478
32.078331
32.019743
31.934699
32.104066
32.112877
31.422738
31.651577
31.369756
31.746418
31.78281
31.751778
31.682619
31.542982
31.658689
31.833025
31.924494
32.074702
31.746418
32.117003
32.155162
32.127976
32.060512
31.902619
31.955256
31.993233
32.001172
32.112478
31.78281
32.155162
32.194976
32.170077
32.106887
31.953321
32.007042
32.024146
31.981079
32.078331
31.751778
32.127976
32.170077
32.146099
32.084321
31.933668
31.991795
32.009912
31.952126
32.019743
31.682619
32.060512
32.106887
32.084321
32.021833
31.869806
31.926299
31.945964
31.913969
31.934699
31.542982
31.902619
31.953321
31.933668
31.869806
31.7139
31.766252
31.810138
31.941008
32.104066
31.658689
31.955256
32.007042
31.991795
31.926299
31.766252
31.826181
32.00921
31.788538
32.112877
31.833025
31.993233
32.024146
32.009912
31.945964
31.810138
32.00921
31.91778
40.417378
41.231875
40.132893
40.722234
40.8121
40.787144
40.7456
40.683662
40.729852
40.542332
41.231875
40.515736
40.40861
40.906609
40.95212
40.910043
40.827911
40.695924
40.932794
40.938605
40.132893
40.40861
40.07525
40.52018
40.564404
40.526663
40.431952
40.230112
40.402214
40.612626
40.722234
40.906609
40.52018
40.958061
41.004379
40.971532
40.879088
40.653976
40.74869
40.79681
40.8121
40.95212
40.564404
41.004379
41.052625
41.02262
40.935481
40.715342
40.810837
40.832894
40.787144
40.910043
40.526663
40.971532
41.02262
40.993769
40.908353
40.691523
40.791794
40.81347
40.7456
40.827911
40.431952
40.879088
40.935481
40.908353
40.821905
40.602764
40.699611
40.721386
40.683662
40.695924
40.230112
40.653976
40.715342
40.691523
40.602764
40.377236
40.4665
40.525804
40.729852
40.932794
40.402214
40.74869
40.810837
40.791794
40.699611
40.4665
40.56824
40.872004
40.542332
40.938605
40.612626
40.79681
40.832894
40.81347
40.721386
40.525804
40.872004
40.676031
48.919232
49.843606
48.598842
49.272049
49.374801
49.345476
49.291641
49.20485
49.266815
49.045785
49.843606
49.046075
48.916617
49.486409
49.539689
49.490479
49.385631
49.206218
49.507532
49.510504
48.598842
48.916617
48.533052
49.043466
49.095518
49.05179
48.932343
48.668096
48.894518
49.14009
49.272049
49.486409
49.043466
49.545885
49.60033
49.562496
49.445799
49.153241
49.288433
49.34706
49.374801
49.539689
49.095518
49.60033
49.656963
49.622517
49.512111
49.225071
49.360666
49.388277
49.345476
49.490479
49.05179
49.562496
49.622517
49.589474
49.481114
49.197747
49.338384
49.36399
49.291641
49.385631
48.932343
49.445799
49.512111
49.481114
49.371418
49.084724
49.219834
49.243287
49.20485
49.206218
48.668096
49.153241
49.225071
49.197747
49.084724
48.788746
48.911858
48.985688
49.266815
49.507532
48.894518
49.288433
49.360666
49.338384
49.219834
48.911858
49.05118
49.480094
49.045785
49.510504
49.14009
49.34706
49.388277
49.36399
49.243287
48.985689
49.480094
49.182318
57.118478
58.146479
56.763706
57.516695
57.631812
57.598518
57.533009
57.42187
57.498745
57.246045
58.146479
57.272178
57.121258
57.759379
57.820194
57.764391
57.637796
57.411974
57.775601
57.776253
56.763706
57.121258
56.6899
57.262685
57.32232
57.273087
57.129907
56.804696
57.083852
57.363604
57.516695
57.759379
57.262685
57.826574
57.888884
57.846504
57.706515
57.348064
57.522698
57.592066
57.631812
57.820194
57.32232
57.888884
57.953633
57.915173
57.782425
57.42999
57.604635
57.638261
57.598518
57.764391
57.273087
57.846504
57.915173
57.878377
57.748009
57.39961
57.579537
57.609457
57.533009
57.637796
57.129907
57.706515
57.782425
57.748009
57.616042
57.263324
57.435542
57.460636
57.42187
57.411974
56.804696
57.348064
57.42999
57.39961
57.263324
56.898323
57.053711
57.141461
57.498745
57.775601
57.083852
57.522698
57.604635
57.579537
57.435542
57.053711
57.228399
57.781645
57.246045
57.776253
57.363604
57.592066
57.638261
57.609457
57.460636
57.141461
57.781645
57.385031
64.96482
66.090219
64.578023
65.406167
65.53295
65.495942
65.419275
65.284517
65.37573
65.093073
66.090219
65.144635
64.973225
65.675743
65.743711
65.681704
65.534251
65.26342
65.68702
65.685511
64.578023
64.973225
64.496768
65.128392
65.195233
65.140838
64.974899
64.590705
64.920784
65.233145
65.406167
65.675743
65.128392
65.750275
65.820057
65.773434
65.611101
65.188924
65.401823
65.481672
65.53295
65.743711
65.195233
65.820057
65.892516
65.850326
65.696142
65.280441
65.492964
65.532591
65.495942
65.681704
65.140838
65.773434
65.850326
65.810056
65.658586
65.247279
65.465316
65.499542
65.419275
65.534251
64.974899
65.611101
65.696142
65.658586
65.505293
65.088727
65.296907
65.323487
65.284517
65.26342
64.590705
65.188924
65.280441
65.247279
65.088727
64.656927
64.843366
64.944333
65.37573
65.68702
64.920784
65.401823
65.492964
65.465316
65.296907
64.843366
65.051831
65.72638
65.093073
65.685511
65.233145
65.481672
65.532591
65.499542
65.323487
64.944333
65.72638
65.233827
72.410538
73.626455
71.994164
72.892351
73.030002
72.989501
72.902166
72.744629
72.849578
72.538725
73.626455
72.615457
72.424616
73.187189
73.261871
73.194032
73.026647
72.712474
73.19339
73.189745
71.994164
72.424616
71.905999
72.592557
72.666172
72.606941
72.419281
71.978462
72.357381
72.700437
72.892351
73.187189
72.592557
73.268588
73.345392
73.294805
73.111145
72.627828
72.877629
72.967484
73.030002
73.261871
72.666172
73.345392
73.425096
73.379428
73.204775
72.728354
72.977399
73.022813
72.989501
73.194032
72.606941
73.294805
73.379428
73.335929
73.164311
72.692627
72.947398
72.985755
72.902166
73.026647
72.419281
73.111145
73.204775
73.164311
72.990669
72.512838
72.755676
72.783554
72.744629
72.712474
71.978462
72.627828
72.728354
72.692627
72.512838
72.016921
72.233185
72.346646
72.849578
73.19339
72.357381
72.877629
72.977399
72.947398
72.755676
72.233185
72.473967
73.265691
72.538725
73.189745
72.700437
72.967484
73.022813
72.985755
72.783554
72.346646
73.265691
72.680375
79.409884
80.70883
78.966501
79.929186
80.076842
80.033086
79.935619
79.75627
79.874293
79.537152
80.70883
79.638655
79.429554
80.247471
80.328393
80.255128
80.06884
79.713258
80.248506
80.24274
78.966501
79.429554
78.871969
79.60922
79.689142
79.625428
79.417201
78.922469
79.347872
79.7195
79.929186
80.247471
79.60922
80.335223
80.418563
80.364313
80.160453
79.618969
79.904112
80.003409
80.076842
80.328393
79.689142
80.418563
80.505007
80.456131
80.262081
79.727871
80.011882
80.0628
80.033086
80.255128
79.625428
80.364313
80.456131
80.409658
80.218948
79.68979
79.979713
80.02197
79.935619
80.06884
79.417201
80.160453
80.262081
80.218948
80.026029
79.489884
79.765879
79.794872
79.75627
79.713258
78.922469
79.618969
79.727871
79.68979
79.489884
78.932918
79.177657
79.302872
79.874293
80.248506
79.347872
79.904112
80.011882
79.979713
79.765879
79.177657
79.449222
80.35322
79.537152
80.24274
79.7195
80.003409
80.0628
80.02197
79.794872
79.302872
80.35322
79.678782
85.919697
87.293662
85.452033
86.473274
86.630019
86.583269
86.476264
86.276205
86.406568
86.045215
87.293662
86.170905
85.944829
86.813044
86.899698
86.82145
86.617403
86.2226
86.808875
86.801017
85.452033
85.944829
85.35171
86.135104
86.220833
86.15302
85.925505
85.379906
85.849165
86.247068
86.473274
86.813044
86.135104
86.906598
86.995952
86.938365
86.715557
86.11924
86.437961
86.546083
86.630019
86.899698
86.220833
86.995952
87.088594
87.036804
86.82455
86.235839
86.553058
86.609163
86.583269
86.82145
86.15302
86.938365
87.036804
86.987636
86.779005
86.195631
86.518914
86.564809
86.476264
86.617403
85.925505
86.715557
86.82455
86.779005
86.567994
85.976839
86.284288
86.314214
86.276205
86.2226
85.379906
86.11924
86.235839
86.195631
85.976839
85.362261
85.633964
85.770146
86.406568
86.808875
85.849165
86.437961
86.553058
86.518914
86.284288
85.633964
85.934624
86.945309
86.045215
86.801017
86.247068
86.546083
86.609163
86.564809
86.314214
85.770146
86.945309
86.185912
91.899824
93.340336
91.410758
92.484256
92.649117
92.599656
92.483769
92.26423
92.406126
92.022786
93.340336
92.171917
91.930257
92.843412
92.93526
92.852507
92.631954
92.20036
92.834045
92.824142
91.410758
91.930257
91.305258
92.129961
92.220963
92.149466
91.904061
91.310955
91.821175
92.242895
92.484256
92.843412
92.129961
92.942185
93.036998
92.976424
92.736039
92.088562
92.438892
92.555169
92.649117
92.93526
92.220963
93.036998
93.135263
93.080873
92.851718
92.212133
92.560601
92.621544
92.599656
92.852507
92.149466
92.976424
93.080873
93.029308
92.804036
92.170041
92.524687
92.573938
92.483769
92.631954
91.904061
92.736039
92.851718
92.804036
92.576229
91.933707
92.270714
92.301387
92.26423
92.20036
91.310955
92.088562
92.212133
92.170041
91.933707
91.265305
91.562297
91.708603
92.406126
92.834045
91.821175
92.438892
92.560601
92.524687
92.270714
91.562297
91.890194
93.00133
92.022786
92.824142
92.242895
92.555169
92.621544
92.573938
92.301387
91.708603
93.00133
92.161655
97.313386
98.811561
96.805929
97.925062
98.097021
98.04515
97.921091
97.683424
97.835977
97.433011
98.811561
97.604683
97.348928
98.30139
98.397863
98.31111
98.075408
97.609683
98.286868
98.27498
96.805929
97.348928
96.695899
97.556824
97.652535
97.57779
97.316005
96.679047
97.227079
97.670018
97.925062
98.30139
97.556824
98.404769
98.504452
98.441262
98.184777
97.49013
97.869907
97.993621
98.097021
98.397863
97.652535
98.504452
98.607732
98.551073
98.306427
97.619908
97.997475
98.062879
98.04515
98.31111
97.57779
98.441262
98.551073
98.497424
98.256899
97.576187
97.960008
98.01231
97.921091
98.075408
97.316005
98.184777
98.306427
98.256899
98.013697
97.323766
97.688252
97.719483
97.683424
97.609683
96.679047
97.49013
97.619908
97.576187
97.323766
96.60566
96.926107
97.081634
97.835977
98.286868
97.227079
97.869907
97.997475
97.960008
97.688252
96.926107
97.279219
98.483952
97.433011
98.27498
97.670018
97.993621
98.062879
98.01231
97.719483
97.081634
98.483952
97.569175
102.127
103.6736
101.60428
102.76215
102.94014
102.88618
102.75471
102.50037
102.66264
102.24253
103.6736
102.4357
102.16743
103.15332
103.25382
103.1636
102.9142
102.41722
103.13373
103.11992
101.60428
102.16743
101.49039
102.38223
102.48206
102.40452
102.12797
101.45109
102.03355
102.49497
102.76215
103.15332
102.38223
103.26067
103.3646
103.29918
103.02818
102.29064
102.69752
102.82791
102.94014
103.25382
102.48206
103.3646
103.47226
103.41368
103.15505
102.42582
102.83016
102.89962
102.88618
103.1636
102.40452
103.29918
103.41368
103.35827
103.10397
102.38074
102.79137
102.8464
102.75471
102.9142
102.12797
103.02818
103.15505
103.10397
102.84688
102.11379
102.5035
102.5351
102.50037
102.41722
101.45109
102.29064
102.42582
102.38074
102.11379
101.3504
101.69233
101.85612
102.66264
103.13373
102.03355
102.69752
102.83016
102.79137
102.5035
101.69233
102.06848
103.35938
102.24253
103.11992
102.49497
102.82791
102.89962
102.8464
102.5351
101.85612
103.35938
102.37514
106.31098
107.89648
105.77622
106.96568
107.14861
107.09288
106.95481
106.68538
106.85636
106.4217
107.89648
106.63519
106.35605
107.3693
107.4732
107.38007
107.1185
106.59332
107.34473
107.3291
105.77622
106.35605
105.65918
106.57643
106.67976
106.59991
106.31029
105.59765
106.21095
106.68802
106.96568
107.3693
106.57643
107.47994
107.58749
107.52024
107.23638
106.4605
106.89198
107.02823
107.14861
107.4732
106.67976
107.58749
107.69885
107.63871
107.36768
106.60025
107.02887
107.10195
107.09288
107.38007
106.59991
107.52024
107.63871
107.58189
107.31538
106.55409
106.98899
107.0464
106.95481
107.1185
106.31029
107.23638
107.36768
107.31538
107.04597
106.27424
106.68678
106.71855
106.68538
106.59332
105.59765
106.4605
106.60025
106.55409
106.27424
105.47028
105.83158
106.00262
106.85636
107.34473
106.21095
106.89198
107.02887
106.98899
106.68678
105.83158
106.22844
107.59755
106.4217
107.3291
106.68802
107.02823
107.10195
107.0464
106.71855
106.00262
107.59755
106.54992
109.83954
111.45414
109.29602
110.50974
110.69648
110.63933
110.49552
110.21264
110.39128
109.94475
111.45414
110.17725
109.88895
110.92331
111.02998
110.93451
110.66239
110.11224
110.89393
110.87657
109.29602
109.88895
109.17655
110.11356
110.21975
110.13808
109.83718
109.09317
109.73354
110.2233
110.50974
110.92331
110.11356
111.03657
111.14706
111.0784
110.78344
109.974
110.42741
110.5687
110.69648
111.02998
110.21975
111.14706
111.26145
111.20012
110.91837
110.11746
110.5677
110.64397
110.63933
110.93451
110.13808
111.0784
111.20012
111.14223
110.86516
110.07049
110.52698
110.58643
110.49552
110.66239
109.83718
110.78344
110.91837
110.86516
110.58509
109.77948
110.2123
110.24404
110.21264
110.11224
109.09317
109.974
110.11746
110.07049
109.77948
108.9399
109.31834
109.49558
110.39128
110.89393
109.73354
110.42741
110.5677
110.52698
110.2123
109.31834
109.73347
111.17235
109.94475
110.87657
110.2233
110.5687
110.64397
110.58643
110.24404
109.49558
111.17235
110.06778
112.6909
114.32467
112.14199
113.37249
113.56188
113.50366
113.35498
113.06041
113.24561
112.78996
114.32467
113.04003
112.74437
113.79345
113.90223
113.805
113.52401
112.95229
113.75943
113.74045
112.14199
112.74437
112.02083
112.97181
113.0802
112.99721
112.68688
111.9161
112.57958
113.07902
113.37249
113.79345
112.97181
113.90863
114.02139
113.95173
113.64749
112.80948
113.28202
113.42747
113.56188
113.90223
113.0802
114.02139
114.13809
114.07594
113.78521
112.95576
113.42486
113.50383
113.50366
113.805
112.99721
113.95173
114.07594
114.01734
113.73141
112.90827
113.38354
113.44466
113.35498
113.52401
112.68688
113.64749
113.78521
113.73141
113.44241
112.60789
113.05833
113.08984
113.06041
112.95229
111.9161
112.80948
112.95576
112.90827
112.60789
111.73787
112.13112
112.31345
113.24561
113.75943
112.57958
113.28202
113.42486
113.38354
113.05833
112.13112
112.56196
114.06173
112.78996
113.74045
113.07902
113.42747
113.50383
113.44466
113.08984
112.31345
114.06173
112.90704
114.8475
116.49036
114.29658
115.53626
115.72713
115.66821
115.51558
115.21113
115.40174
114.93978
116.49036
115.2059
114.90469
115.96203
116.07224
115.97386
115.68573
115.09596
115.92357
115.90308
114.29658
114.90469
114.17446
115.13356
115.24348
115.15969
114.84184
114.04904
114.73153
115.23757
115.53626
115.96203
115.13356
116.07841
116.19274
116.12252
115.81087
114.94945
115.43822
115.58692
115.72713
116.07224
115.24348
116.19274
116.31103
116.24845
115.95052
115.09764
115.58271
115.6639
115.66821
115.97386
115.15969
116.12252
116.24845
116.18951
115.89648
115.04994
115.54106
115.60346
115.51558
115.68573
114.84184
115.81087
115.95052
115.89648
115.60033
114.74204
115.20731
115.23841
115.21113
115.09596
114.04904
114.94945
115.09764
115.04994
114.74204
113.84694
114.25257
114.43888
115.40174
115.92357
114.73153
115.43822
115.58271
115.54106
115.20731
114.25257
114.69646
116.24788
114.93978
115.90308
115.23757
115.58692
115.6639
115.60346
115.23841
114.43888
116.24788
115.05018
116.29603
117.93784
115.74649
116.98772
117.1789
117.11963
116.96399
116.65154
116.84639
116.38096
117.93784
116.66148
116.35658
117.41566
117.52663
117.4277
117.1342
116.53002
117.37301
117.35113
115.74649
116.35658
115.62417
116.58547
116.69626
116.61217
116.28877
115.47883
116.17613
116.68565
116.98772
117.41566
116.58547
117.53253
117.64773
117.57737
117.26023
116.38072
116.8827
117.03374
117.1789
117.52663
116.69626
117.64773
117.76689
117.70426
117.40097
116.52992
117.02795
117.11087
117.11963
117.4277
116.61217
117.57737
117.70426
117.64532
117.347
116.48229
116.98622
117.04953
116.96399
117.1342
116.28877
117.26023
117.40097
117.347
117.04554
116.16876
116.646
116.67649
116.65154
116.53002
115.47883
116.38072
116.52992
116.48229
116.16876
115.2541
115.66962
115.85876
116.84639
117.37301
116.17613
116.8827
117.02795
116.98622
116.646
115.66962
116.12382
117.71733
116.38096
117.35113
116.68565
117.03374
117.11087
117.04953
116.67649
115.85876
117.71733
116.484
117.02756
118.65821
116.48279
117.71791
117.90822
117.84897
117.69128
117.37275
117.57064
117.10462
118.65821
117.39782
117.0911
118.1454
118.25643
118.15757
117.86051
117.24564
118.0988
118.07568
116.48279
117.0911
116.36103
117.3186
117.42956
117.34569
117.01874
116.19665
116.90446
117.41432
117.71791
118.1454
117.3186
118.26203
118.37738
118.30733
117.98665
117.09446
117.60656
117.75902
117.90822
118.25643
117.42956
118.37738
118.49667
118.43438
118.1276
117.24375
117.75169
117.83581
117.84897
118.15757
117.34569
118.30733
118.43438
118.37582
118.07405
117.19648
117.71013
117.77396
117.69128
117.86051
117.01874
117.98665
118.1276
118.07405
117.76912
116.87927
117.36553
117.39523
117.37275
117.24564
116.19665
117.09446
117.24375
117.19648
116.87927
115.95069
116.37352
116.56433
117.57064
118.0988
116.90446
117.60656
117.75169
117.71013
117.36553
116.37352
116.83524
118.46101
117.10462
118.07568
117.41432
117.75902
117.83581
117.77396
117.39523
116.56433
118.46101
117.19966
117.03758
118.64701
116.50093
117.72233
117.9106
117.85173
117.69297
117.37032
117.57003
117.10629
118.64701
117.41035
117.10372
118.14672
118.25714
118.15895
117.86016
117.2384
118.09648
118.07225
116.50093
117.10372
116.38048
117.32842
117.43887
117.35575
117.02725
116.19808
116.91205
117.4191
117.72233
118.14672
117.32842
118.26241
118.37719
118.30788
117.98564
117.08628
117.60534
117.75827
117.9106
118.25714
117.43887
118.37719
118.49588
118.43431
118.12594
117.23474
117.74944
117.83425
117.85173
118.15895
117.35575
118.30788
118.43431
118.37649
118.07313
117.18813
117.70832
117.77226
117.69297
117.86016
117.02725
117.98564
118.12594
118.07313
117.76661
116.86918
117.36147
117.39018
117.37032
117.2384
116.19808
117.08628
117.23474
117.18813
116.86918
115.9324
116.35994
116.55124
117.57003
118.09648
116.91205
117.60534
117.74944
117.70832
117.36147
116.35994
116.82633
118.47433
117.10629
118.07225
117.4191
117.75827
117.83425
117.77226
117.39018
116.55124
118.47433
117.19275
116.32602
117.90431
115.80081
117.00096
117.18602
117.1279
116.96903
116.64427
116.84456
116.38596
117.90431
116.69902
116.39435
117.41964
117.52876
117.43184
117.13317
116.50835
117.36605
117.34087
115.80081
116.39435
115.6824
116.61487
116.72413
116.64227
116.31424
115.48312
116.19882
116.69995
117.00096
117.41964
116.61487
117.53365
117.64717
117.57902
117.25722
116.35623
116.87904
117.0315
117.18602
117.52876
116.72413
117.64717
117.76452
117.70406
117.39599
116.50293
117.02123
117.10621
117.1279
117.43184
116.64227
117.57902
117.70406
117.64733
117.34425
116.45726
116.9808
117.04447
116.96903
117.13317
116.31424
117.25722
117.39599
117.34425
117.03804
116.13855
116.63383
116.66139
116.64427
116.50835
115.48312
116.35623
116.50293
116.45726
116.13855
115.19935
115.62897
115.81957
116.84456
117.36605
116.19882
116.87904
117.02123
116.9808
116.63383
115.62897
116.09715
117.75723
116.38596
117.34087
116.69995
117.0315
117.10621
117.04447
116.66139
115.81957
117.75723
116.4633
114.89727
116.43469
114.38673
115.55823
115.73895
115.68193
115.52395
115.19906
115.3987
114.94807
116.43469
115.26819
114.96737
115.96862
116.07577
115.98073
115.68402
115.05998
115.91202
115.88604
114.38673
114.96737
114.27111
115.18235
115.28975
115.20965
114.88412
114.05616
114.7692
115.2613
115.55823
115.96862
115.18235
116.08026
116.19182
116.12525
115.80586
114.9088
115.43215
115.5832
115.73895
116.07577
115.28975
116.19182
116.30711
116.24812
115.94225
115.05284
115.57155
115.65617
115.68193
115.98073
115.20965
116.12525
116.24812
116.19284
115.8919
115.00841
115.53205
115.59505
115.52395
115.68402
114.88412
115.80586
115.94225
115.8919
115.58789
114.69189
115.18711
115.21334
115.19906
115.05998
114.05616
114.9088
115.05284
115.00841
114.69189
113.75606
114.18511
114.37384
115.3987
115.91202
114.7692
115.43215
115.57155
115.53205
115.18711
114.18511
114.65219
116.31411
114.94807
115.88604
115.2613
115.5832
115.65617
115.59505
115.21334
114.37384
116.31411
115.01582
112.76013
114.24721
112.26742
113.40304
113.5783
113.52274
113.36662
113.04361
113.24137
112.80148
114.24721
113.12669
112.83158
113.80261
113.90713
113.81456
113.52163
112.90223
113.74336
113.71673
112.26742
112.83158
112.15529
113.0397
113.14457
113.06672
112.7457
111.926
112.63198
113.11203
113.40304
113.80261
113.0397
113.9112
114.0201
113.95552
113.64052
112.75292
113.27357
113.42228
113.5783
113.90713
113.14457
114.0201
114.13262
114.07547
113.77369
112.89342
113.40933
113.49306
113.52274
113.81456
113.06672
113.95552
114.07547
114.02197
113.72504
112.85048
113.371
113.43295
113.36662
113.52163
112.7457
113.64052
113.77369
113.72504
113.4251
112.53811
113.03021
113.05496
113.04361
112.90223
111.926
112.75292
112.89342
112.85048
112.53811
111.61142
112.03726
112.22296
113.24137
113.74336
112.63198
113.27357
113.40933
113.371
113.03021
112.03726
112.50037
114.15388
112.80148
113.71673
113.11203
113.42228
113.49306
113.43295
113.05496
112.22296
114.15388
112.85923
109.92779
111.35534
109.45594
110.54869
110.71741
110.66365
110.51034
110.19121
110.38587
109.95944
111.35534
110.28773
110.00014
110.93496
111.03621
110.94667
110.65934
110.0484
110.87342
110.84632
109.45594
110.00014
109.34799
110.2001
110.30181
110.22669
109.91217
109.10578
109.80035
110.26538
110.54869
110.93496
110.2001
111.03983
111.14541
111.08322
110.77454
109.90187
110.41663
110.56208
110.71741
111.03621
110.30181
111.14541
111.25447
111.1995
110.90368
110.03797
110.5479
110.63024
110.66365
110.94667
110.22669
111.08322
111.1995
111.14812
110.85703
109.9968
110.51099
110.57151
110.51034
110.65934
109.91217
110.77454
110.90368
110.85703
110.563
109.6905
110.17646
110.19956
110.19121
110.0484
109.10578
109.90187
110.03797
109.9968
109.6905
108.77866
109.19866
109.38019
110.38587
110.87342
109.80035
110.41663
110.5479
110.51099
110.17646
109.19866
109.65494
111.28985
109.95944
110.84632
110.26538
110.56208
110.63024
110.57151
110.19956
109.38019
111.28985
110.00683
106.41769
107.77693
105.96962
107.01275
107.17389
107.12227
106.97273
106.65944
106.8498
106.43946
107.77693
106.76879
106.4905
107.38336
107.48072
107.39476
107.11479
106.51607
107.31991
107.2925
105.96962
106.4905
105.86652
106.68109
106.77899
106.70707
106.40098
105.61289
106.29176
106.73891
107.01275
107.38336
106.68109
107.48386
107.58546
107.52605
107.2256
106.37325
106.87893
107.02022
107.17389
107.48072
106.77899
107.58546
107.69038
107.63795
107.3499
106.50409
107.00491
107.08534
107.12227
107.39476
106.70707
107.52605
107.63795
107.58901
107.30555
106.46494
106.96964
107.02835
106.97273
107.11479
106.40098
107.2256
107.3499
107.30555
107.01925
106.16661
106.64342
106.66474
106.65944
106.51607
105.61289
106.37325
106.50409
106.46494
106.16661
105.27525
105.68682
105.86305
106.8498
107.31991
106.29176
106.87893
107.00491
106.96964
106.64342
105.68682
106.13346
107.73969
106.43946
107.2925
106.73891
107.02022
107.08534
107.02835
106.66474
105.86305
107.73969
106.4762
102.25149
103.53402
101.82995
102.81704
102.96961
102.92043
102.77558
102.47007
102.65496
102.26323
103.53402
102.59158
102.3243
103.1697
103.26256
103.18072
102.90985
102.32704
103.10474
103.07719
101.82995
102.3243
101.73234
102.50434
102.59784
102.52957
102.23379
101.46885
102.12784
102.55436
102.81704
103.1697
102.50434
103.2652
103.36221
103.30594
103.01558
102.18879
102.68228
102.81855
102.96961
103.26256
102.59784
103.36221
103.46235
103.41278
103.13428
102.31359
102.80219
102.88023
102.92043
103.18072
102.52957
103.30594
103.41278
103.36657
103.09249
102.2767
102.76879
102.82532
102.77558
102.90985
102.23379
103.01558
103.13428
103.09249
102.81569
101.98817
102.4529
102.47231
102.47007
102.32704
101.46885
102.18879
102.31359
102.2767
101.98817
101.12279
101.52338
101.69324
102.65496
103.10474
102.12784
102.68228
102.80219
102.76879
102.4529
101.52338
101.95763
103.52528
102.26323
103.07719
102.55436
102.81855
102.88023
102.82532
102.47231
101.69324
103.52528
102.28912
97.454849
98.65278
97.062447
97.987411
98.130471
98.084055
97.944788
97.648931
97.827216
97.456521
98.65278
97.78184
97.527221
98.319942
98.407738
98.330522
98.070415
97.507123
98.253884
98.226367
97.062447
97.527221
96.970927
97.695602
97.784132
97.719924
97.436292
96.699225
97.33427
97.737517
97.987411
98.319942
97.695602
98.409877
98.501689
98.448911
98.170424
97.374305
97.852564
97.982965
98.130472
98.407738
97.784132
98.501689
98.596433
98.550024
98.282798
97.49228
97.965667
98.040828
98.084055
98.330522
97.719924
98.448911
98.550024
98.506837
98.243825
97.457884
97.934336
97.988353
97.944788
98.070415
97.436292
98.170424
98.282798
98.243825
97.978237
97.180947
97.630728
97.648099
97.648931
97.507123
96.699225
97.374305
97.49228
97.457884
97.180947
96.346868
96.734029
96.896456
97.827216
98.253884
97.33427
97.852564
97.965667
97.934336
97.630728
96.734029
97.153208
98.672611
97.456521
98.226367
97.737517
97.982965
98.040828
97.988353
97.648099
96.896456
98.672611
97.471391
92.05735
93.16329
91.696507
92.553642
92.686314
92.642944
92.510122
92.22575
92.396328
92.048952
93.16329
92.369225
92.12884
92.863998
92.94619
92.874076
92.626341
92.086035
92.797258
92.769943
91.696507
92.12884
91.611643
92.284528
92.36754
92.307797
92.03806
91.333408
91.940597
92.318092
92.553642
92.863998
92.284528
92.947809
93.033862
92.984904
92.720013
91.959471
92.419551
92.543284
92.686314
92.94619
92.36754
93.033862
93.122629
93.079672
92.825367
92.069901
92.525153
92.596973
92.642944
92.874076
92.307797
92.984904
93.079672
93.039777
92.78946
92.038213
92.496089
92.547255
92.510122
92.626341
92.03806
92.720013
92.825367
92.78946
92.536719
91.774572
92.206633
92.221865
92.22575
92.086035
91.333408
91.959471
92.069901
92.038213
91.774572
90.976946
91.348287
91.502285
92.396328
92.797258
91.940597
92.419551
92.525153
92.496089
92.206633
91.348287
91.749813
93.211602
92.048952
92.769943
92.318092
92.543284
92.596973
92.547255
92.221865
91.502285
93.211602
92.052735
86.092261
87.099391
85.765203
86.549229
86.670697
86.630644
86.505089
86.233959
86.39578
86.073865
87.099391
86.387099
86.162432
86.835496
86.911581
86.845019
86.611186
86.0972
86.7685
86.741557
85.765203
86.162432
85.687523
86.304471
86.381458
86.326552
86.072375
85.404486
85.980077
86.329493
86.549229
86.835496
86.304471
86.912672
86.992439
86.947607
86.697948
85.977676
86.416741
86.533043
86.670697
86.911581
86.381458
86.992439
87.074685