/*--------------------------------*- C++ -*----------------------------------*\
| =========                 |                                                 |
| \\      /  F ield         | OpenFOAM: The Open Source CFD Toolbox           |
|  \\    /   O peration     | Version:  v2106                                 |
|   \\  /    A nd           | Website:  www.openfoam.com                      |
|    \\/     M anipulation  |                                                 |
\*---------------------------------------------------------------------------*/
FoamFile
{
    version     2.0;
    format      ascii;
    arch        "LSB;label=32;scalar=64";
    class       volVectorField;
    location    "82.5";
    object      flux;
}
// * * * * * * * * * * * * * * * * * * * * * * * * * * * * * * * * * * * * * //

dimensions      [0 1 -1 1 0 0 0];

internalField   nonuniform List<vector> 
4000
(
(-1.1568013e-07 -1.1568013e-07 0.72430957)
(-2.5417337e-07 -1.0256383e-07 0.72430872)
(-1.2799352e-07 -9.9523143e-08 0.7243083)
(-6.9353225e-08 -9.8342262e-08 0.72430806)
(-2.2170273e-08 -9.7649566e-08 0.72430795)
(1.8872705e-08 -9.7015566e-08 0.72430795)
(5.3895553e-08 -9.6152224e-08 0.72430805)
(7.947037e-08 -9.4565132e-08 0.72430823)
(8.4885933e-08 -9.0990797e-08 0.72430847)
(2.685401e-08 -8.229581e-08 0.7243087)
(-1.0256382e-07 -2.5417337e-07 0.72430872)
(-2.2993788e-07 -2.2993788e-07 0.72430797)
(-1.2166117e-07 -2.223272e-07 0.72430758)
(-6.6542859e-08 -2.1857083e-07 0.72430734)
(-2.0180228e-08 -2.1601178e-07 0.72430723)
(2.1118719e-08 -2.1359265e-07 0.72430724)
(5.7571204e-08 -2.1051853e-07 0.72430735)
(8.721251e-08 -2.0559891e-07 0.72430755)
(1.0328992e-07 -1.9642562e-07 0.72430782)
(3.5548997e-08 -1.7864867e-07 0.72430812)
(-9.9523136e-08 -1.2799352e-07 0.7243083)
(-2.223272e-07 -1.2166117e-07 0.72430758)
(-1.1662647e-07 -1.1662646e-07 0.72430721)
(-6.3037807e-08 -1.1284942e-07 0.72430698)
(-1.7192092e-08 -1.0969133e-07 0.72430688)
(2.4365959e-08 -1.065879e-07 0.72430689)
(6.1889291e-08 -1.0300194e-07 0.72430701)
(9.356328e-08 -9.8336295e-08 0.72430722)
(1.1183617e-07 -9.2108761e-08 0.72430751)
(3.8705309e-08 -8.5300944e-08 0.72430784)
(-9.8342259e-08 -6.9353226e-08 0.72430806)
(-2.1857082e-07 -6.6542864e-08 0.72430734)
(-1.1284942e-07 -6.3037798e-08 0.72430698)
(-5.9607738e-08 -5.9607725e-08 0.72430676)
(-1.3918705e-08 -5.6335506e-08 0.72430667)
(2.7808112e-08 -5.3063644e-08 0.72430669)
(6.5822806e-08 -4.957351e-08 0.72430682)
(9.810569e-08 -4.5715299e-08 0.72430704)
(1.1632527e-07 -4.1666474e-08 0.72430735)
(4.0087542e-08 -3.84724e-08 0.72430769)
(-9.7649561e-08 -2.2170272e-08 0.72430795)
(-2.1601177e-07 -2.0180224e-08 0.72430723)
(-1.0969133e-07 -1.7192099e-08 0.72430688)
(-5.6335514e-08 -1.3918704e-08 0.72430667)
(-1.0648011e-08 -1.0648011e-08 0.72430659)
(3.1127955e-08 -7.4152525e-09 0.72430662)
(6.9237637e-08 -4.1779289e-09 0.72430675)
(1.0147032e-07 -9.7191206e-10 0.72430699)
(1.1907907e-07 1.9171262e-09 0.7243073)
(4.0834692e-08 3.8086484e-09 0.72430765)
(-9.7015561e-08 1.8872702e-08 0.72430795)
(-2.1359265e-07 2.1118721e-08 0.72430724)
(-1.065879e-07 2.4365954e-08 0.72430689)
(-5.3063649e-08 2.7808097e-08 0.72430669)
(-7.4152535e-09 3.1127948e-08 0.72430662)
(3.4278194e-08 3.4278193e-08 0.72430666)
(7.2266147e-08 3.7284144e-08 0.7243068)
(1.0420074e-07 4.0097642e-08 0.72430704)
(1.2110583e-07 4.247719e-08 0.72430736)
(4.1348557e-08 4.393563e-08 0.72430771)
(-9.6152216e-08 5.3895557e-08 0.72430805)
(-2.1051852e-07 5.7571204e-08 0.72430735)
(-1.0300195e-07 6.18893e-08 0.72430701)
(-4.957352e-08 6.5822813e-08 0.72430682)
(-4.1779144e-09 6.9237642e-08 0.72430675)
(3.7284151e-08 7.2266153e-08 0.7243068)
(7.5057085e-08 7.5057087e-08 0.72430695)
(1.0666336e-07 7.7662714e-08 0.7243072)
(1.2291706e-07 7.9936964e-08 0.72430752)
(4.1806985e-08 8.1420192e-08 0.72430788)
(-9.4565129e-08 7.9470375e-08 0.72430823)
(-2.055989e-07 8.7212511e-08 0.72430755)
(-9.8336294e-08 9.3563278e-08 0.72430722)
(-4.5715308e-08 9.8105699e-08 0.72430704)
(-9.7191308e-10 1.0147032e-07 0.72430699)
(4.0097639e-08 1.0420074e-07 0.72430704)
(7.7662708e-08 1.0666336e-07 0.7243072)
(1.0908062e-07 1.0908063e-07 0.72430745)
(1.2486331e-07 1.1147674e-07 0.72430778)
(4.2337375e-08 1.1338404e-07 0.72430814)
(-9.0990792e-08 8.4885935e-08 0.72430847)
(-1.9642562e-07 1.032899e-07 0.72430782)
(-9.2108765e-08 1.1183616e-07 0.72430751)
(-4.166648e-08 1.1632526e-07 0.72430735)
(1.9171252e-09 1.1907907e-07 0.7243073)
(4.2477197e-08 1.2110583e-07 0.72430736)
(7.9936972e-08 1.2291706e-07 0.72430752)
(1.1147673e-07 1.248633e-07 0.72430778)
(1.2722047e-07 1.2722048e-07 0.72430812)
(4.307852e-08 1.2980126e-07 0.72430849)
(-8.2295816e-08 2.6854014e-08 0.7243087)
(-1.7864868e-07 3.554899e-08 0.72430812)
(-8.5300937e-08 3.8705307e-08 0.72430784)
(-3.8472402e-08 4.0087542e-08 0.72430769)
(3.808651e-09 4.0834693e-08 0.72430765)
(4.3935631e-08 4.1348559e-08 0.72430771)
(8.1420178e-08 4.1806982e-08 0.72430788)
(1.1338405e-07 4.2337363e-08 0.72430814)
(1.2980127e-07 4.3078522e-08 0.72430849)
(4.4057893e-08 4.4057895e-08 0.72430887)
(-5.0815457e-07 -5.0815457e-07 1.0774267)
(-1.1389621e-06 -4.4423617e-07 1.0774256)
(-6.0353e-07 -4.3006727e-07 1.0774251)
(-3.325143e-07 -4.2448275e-07 1.0774247)
(-1.0473266e-07 -4.2111855e-07 1.0774246)
(9.6600145e-08 -4.1800786e-07 1.0774246)
(2.7071412e-07 -4.1374485e-07 1.0774248)
(4.0303294e-07 -4.0576823e-07 1.077425)
(4.4880816e-07 -3.8677468e-07 1.0774254)
(1.4724741e-07 -3.3207146e-07 1.0774259)
(-4.4423617e-07 -1.1389621e-06 1.0774256)
(-1.0218312e-06 -1.0218312e-06 1.0774247)
(-5.7389988e-07 -9.8628328e-07 1.0774242)
(-3.1909121e-07 -9.6834926e-07 1.0774239)
(-9.5020327e-08 -9.5588788e-07 1.0774237)
(1.076607e-07 -9.440203e-07 1.0774237)
(2.8907357e-07 -9.2887278e-07 1.0774239)
(4.434882e-07 -9.0436899e-07 1.0774242)
(5.5935332e-07 -8.5695011e-07 1.0774246)
(2.0195063e-07 -7.5214217e-07 1.0774252)
(-4.3006728e-07 -6.0353e-07 1.0774251)
(-9.8628329e-07 -5.7389987e-07 1.0774242)
(-5.5004807e-07 -5.5004808e-07 1.0774237)
(-3.021189e-07 -5.3176512e-07 1.0774234)
(-8.0403707e-08 -5.1633086e-07 1.0774232)
(1.2361525e-07 -5.0110295e-07 1.0774233)
(3.1036543e-07 -4.8346939e-07 1.0774234)
(4.7495561e-07 -4.6046871e-07 1.0774238)
(6.0103498e-07 -4.2965483e-07 1.0774242)
(2.1711937e-07 -3.967743e-07 1.0774249)
(-4.2448275e-07 -3.325143e-07 1.0774247)
(-9.6834927e-07 -3.1909121e-07 1.0774239)
(-5.3176512e-07 -3.0211889e-07 1.0774234)
(-2.85374e-07 -2.8537401e-07 1.0774231)
(-6.4358156e-08 -2.6933873e-07 1.0774229)
(1.4052216e-07 -2.5327428e-07 1.077423)
(3.297078e-07 -2.3611944e-07 1.0774232)
(4.9730276e-07 -2.1714221e-07 1.0774235)
(6.2304773e-07 -1.9722621e-07 1.077424)
(2.2387099e-07 -1.8159397e-07 1.0774246)
(-4.2111855e-07 -1.0473267e-07 1.0774246)
(-9.5588788e-07 -9.5020333e-08 1.0774237)
(-5.1633086e-07 -8.0403697e-08 1.0774232)
(-2.6933874e-07 -6.4358166e-08 1.0774229)
(-4.8303977e-08 -4.8303976e-08 1.0774228)
(1.5683454e-07 -3.2420087e-08 1.0774229)
(3.464975e-07 -1.6500483e-08 1.0774231)
(5.1384884e-07 -7.2390012e-10 1.0774235)
(6.3658322e-07 1.3498617e-08 1.077424)
(2.2754086e-07 2.2807133e-08 1.0774246)
(-4.1800786e-07 9.6600135e-08 1.0774246)
(-9.4402029e-07 1.076607e-07 1.0774237)
(-5.0110295e-07 1.2361526e-07 1.0774233)
(-2.5327427e-07 1.4052216e-07 1.077423)
(-3.2420077e-08 1.5683454e-07 1.0774229)
(1.7232566e-07 1.7232566e-07 1.0774229)
(3.6140399e-07 1.871258e-07 1.0774232)
(5.2730186e-07 2.0100506e-07 1.0774235)
(6.4657877e-07 2.1277802e-07 1.0774241)
(2.3007666e-07 2.2002166e-07 1.0774247)
(-4.1374484e-07 2.7071413e-07 1.0774248)
(-9.2887276e-07 2.8907356e-07 1.0774239)
(-4.834694e-07 3.1036543e-07 1.0774234)
(-2.3611946e-07 3.2970782e-07 1.0774232)
(-1.650048e-08 3.4649749e-07 1.0774231)
(1.871258e-07 3.6140399e-07 1.0774232)
(3.751769e-07 3.7517691e-07 1.0774234)
(5.3950106e-07 3.8810495e-07 1.0774238)
(6.5559982e-07 3.9951082e-07 1.0774243)
(2.3236996e-07 4.0709574e-07 1.077425)
(-4.0576824e-07 4.0303295e-07 1.077425)
(-9.0436899e-07 4.4348818e-07 1.0774242)
(-4.604687e-07 4.749556e-07 1.0774238)
(-2.1714222e-07 4.9730275e-07 1.0774235)
(-7.2390245e-10 5.1384883e-07 1.0774235)
(2.0100507e-07 5.2730187e-07 1.0774235)
(3.8810495e-07 5.3950107e-07 1.0774238)
(5.5163577e-07 5.5163578e-07 1.0774242)
(6.6556955e-07 5.6403719e-07 1.0774247)
(2.3513327e-07 5.7458782e-07 1.0774254)
(-3.8677468e-07 4.4880816e-07 1.0774254)
(-8.5695011e-07 5.5935333e-07 1.0774246)
(-4.2965483e-07 6.0103497e-07 1.0774242)
(-1.9722623e-07 6.2304772e-07 1.077424)
(1.3498633e-08 6.3658322e-07 1.077424)
(2.1277804e-07 6.4657877e-07 1.0774241)
(3.9951081e-07 6.5559979e-07 1.0774243)
(5.6403718e-07 6.6556955e-07 1.0774247)
(6.7855186e-07 6.7855185e-07 1.0774253)
(2.3940371e-07 6.9584526e-07 1.0774259)
(-3.3207146e-07 1.4724741e-07 1.0774259)
(-7.5214219e-07 2.0195064e-07 1.0774252)
(-3.9677432e-07 2.1711936e-07 1.0774249)
(-1.8159397e-07 2.2387098e-07 1.0774246)
(2.2807154e-08 2.2754087e-07 1.0774246)
(2.2002165e-07 2.3007666e-07 1.0774247)
(4.0709573e-07 2.3236994e-07 1.077425)
(5.7458783e-07 2.3513327e-07 1.0774254)
(6.9584526e-07 2.3940371e-07 1.0774259)
(2.4666221e-07 2.4666221e-07 1.0774267)
(-8.2517521e-07 -8.2517522e-07 1.0774428)
(-1.8739903e-06 -7.2148145e-07 1.0774419)
(-1.0251177e-06 -6.9812167e-07 1.0774414)
(-5.6831885e-07 -6.8860038e-07 1.0774411)
(-1.6979859e-07 -6.8270121e-07 1.0774409)
(1.9014471e-07 -6.7715937e-07 1.077441)
(5.0956736e-07 -6.6949847e-07 1.0774411)
(7.7044522e-07 -6.5504272e-07 1.0774415)
(9.2213732e-07 -6.2023415e-07 1.0774419)
(3.2049653e-07 -5.1865789e-07 1.0774424)
(-7.2148144e-07 -1.8739903e-06 1.0774419)
(-1.6834099e-06 -1.6834099e-06 1.0774411)
(-9.7579606e-07 -1.6241618e-06 1.0774406)
(-5.4518816e-07 -1.5932909e-06 1.0774403)
(-1.5263708e-07 -1.5713517e-06 1.0774402)
(2.0994883e-07 -1.5502004e-06 1.0774402)
(5.4274234e-07 -1.5230243e-06 1.0774404)
(8.4434169e-07 -1.4788118e-06 1.0774407)
(1.1267146e-06 -1.3926243e-06 1.0774412)
(4.220728e-07 -1.2004423e-06 1.0774419)
(-6.9812167e-07 -1.0251176e-06 1.0774414)
(-1.6241618e-06 -9.7579606e-07 1.0774406)
(-9.3499861e-07 -9.3499861e-07 1.0774402)
(-5.1550878e-07 -9.0305487e-07 1.0774399)
(-1.267081e-07 -8.7572534e-07 1.0774398)
(2.3847211e-07 -8.4855794e-07 1.0774398)
(5.8095595e-07 -8.1697326e-07 1.07744)
(9.0084522e-07 -7.7569426e-07 1.0774404)
(1.2005068e-06 -7.2045941e-07 1.0774409)
(4.4861789e-07 -6.6275229e-07 1.0774416)
(-6.8860038e-07 -5.6831884e-07 1.0774411)
(-1.5932909e-06 -5.4518816e-07 1.0774403)
(-9.0305487e-07 -5.1550877e-07 1.0774399)
(-4.8591489e-07 -4.8591489e-07 1.0774396)
(-9.8140143e-08 -4.5738284e-07 1.0774395)
(2.687009e-07 -4.2868e-07 1.0774396)
(6.1560601e-07 -3.9795478e-07 1.0774398)
(9.4085555e-07 -3.6393238e-07 1.0774402)
(1.2396565e-06 -3.2827712e-07 1.0774407)
(4.6054421e-07 -3.0055909e-07 1.0774414)
(-6.8270121e-07 -1.6979861e-07 1.0774409)
(-1.5713517e-06 -1.5263708e-07 1.0774402)
(-8.7572535e-07 -1.2670809e-07 1.0774398)
(-4.5738285e-07 -9.8140141e-08 1.0774395)
(-6.9473207e-08 -6.9473215e-08 1.0774394)
(2.9790017e-07 -4.1041892e-08 1.0774395)
(6.4570357e-07 -1.2488276e-08 1.0774397)
(9.7052288e-07 1.5854736e-08 1.0774401)
(1.2638801e-06 4.1423899e-08 1.0774407)
(4.6709658e-07 5.8128838e-08 1.0774414)
(-6.7715937e-07 1.901447e-07 1.077441)
(-1.5502004e-06 2.0994881e-07 1.0774402)
(-8.4855793e-07 2.384721e-07 1.0774398)
(-4.2868001e-07 2.687009e-07 1.0774396)
(-4.1041894e-08 2.9790017e-07 1.0774395)
(3.2568584e-07 3.2568584e-07 1.0774396)
(6.7250264e-07 3.5231453e-07 1.0774398)
(9.9476772e-07 3.7740159e-07 1.0774402)
(1.2819306e-06 3.9882511e-07 1.0774408)
(4.7168083e-07 4.1212282e-07 1.0774415)
(-6.6949847e-07 5.0956737e-07 1.0774411)
(-1.5230243e-06 5.4274234e-07 1.0774404)
(-8.1697325e-07 5.8095594e-07 1.07744)
(-3.9795478e-07 6.1560601e-07 1.0774398)
(-1.2488268e-08 6.4570358e-07 1.0774397)
(3.5231453e-07 6.7250265e-07 1.0774398)
(6.9741932e-07 6.9741933e-07 1.0774401)
(1.0170335e-06 7.2109986e-07 1.0774405)
(1.2986014e-06 7.4249504e-07 1.077441)
(4.7596172e-07 7.5734758e-07 1.0774418)
(-6.5504272e-07 7.7044522e-07 1.0774415)
(-1.4788118e-06 8.443417e-07 1.0774407)
(-7.7569425e-07 9.0084523e-07 1.0774404)
(-3.6393237e-07 9.4085555e-07 1.0774402)
(1.5854745e-08 9.7052288e-07 1.0774401)
(3.7740159e-07 9.9476772e-07 1.0774402)
(7.2109985e-07 1.0170335e-06 1.0774405)
(1.0398434e-06 1.0398434e-06 1.0774409)
(1.3181783e-06 1.0647002e-06 1.0774415)
(4.8158253e-07 1.0888881e-06 1.0774422)
(-6.2023415e-07 9.2213733e-07 1.0774419)
(-1.3926243e-06 1.1267146e-06 1.0774412)
(-7.2045941e-07 1.2005068e-06 1.0774409)
(-3.2827713e-07 1.2396565e-06 1.0774407)
(4.1423905e-08 1.2638801e-06 1.0774407)
(3.9882512e-07 1.2819306e-06 1.0774408)
(7.4249502e-07 1.2986013e-06 1.077441)
(1.0647002e-06 1.3181783e-06 1.0774415)
(1.347646e-06 1.347646e-06 1.0774421)
(4.9208694e-07 1.4030871e-06 1.0774429)
(-5.186579e-07 3.2049654e-07 1.0774424)
(-1.2004423e-06 4.2207279e-07 1.0774419)
(-6.6275229e-07 4.4861787e-07 1.0774416)
(-3.0055908e-07 4.605442e-07 1.0774414)
(5.8128849e-08 4.6709658e-07 1.0774414)
(4.1212281e-07 4.7168083e-07 1.0774415)
(7.5734757e-07 4.7596171e-07 1.0774418)
(1.0888881e-06 4.8158253e-07 1.0774422)
(1.4030871e-06 4.9208694e-07 1.0774429)
(5.1854324e-07 5.1854324e-07 1.0774437)
(-1.1122319e-06 -1.1122319e-06 1.0774687)
(-2.5361283e-06 -9.7266028e-07 1.0774679)
(-1.4004396e-06 -9.4110372e-07 1.0774674)
(-7.731856e-07 -9.2798679e-07 1.0774672)
(-2.1229213e-07 -9.1968742e-07 1.077467)
(3.0354296e-07 -9.1177586e-07 1.0774671)
(7.7095161e-07 -9.0074849e-07 1.0774673)
(1.168677e-06 -8.7981972e-07 1.0774676)
(1.434674e-06 -8.2914717e-07 1.0774681)
(5.0775998e-07 -6.804897e-07 1.0774687)
(-9.7266028e-07 -2.5361283e-06 1.0774679)
(-2.279436e-06 -2.279436e-06 1.0774671)
(-1.3334293e-06 -2.1989093e-06 1.0774667)
(-7.4106115e-07 -2.1561004e-06 1.0774665)
(-1.8797572e-07 -2.1251336e-06 1.0774664)
(3.3195136e-07 -2.0949282e-06 1.0774664)
(8.1888582e-07 -2.0558632e-06 1.0774666)
(1.276079e-06 -1.9920361e-06 1.077467)
(1.733669e-06 -1.8671394e-06 1.0774675)
(6.5641745e-07 -1.5876057e-06 1.0774682)
(-9.4110372e-07 -1.4004396e-06 1.0774674)
(-2.1989093e-06 -1.3334294e-06 1.0774667)
(-1.277104e-06 -1.277104e-06 1.0774663)
(-6.9940989e-07 -1.2323188e-06 1.0774661)
(-1.5111994e-07 -1.1935498e-06 1.077466)
(3.7281335e-07 -1.1547152e-06 1.077466)
(8.7384371e-07 -1.1093713e-06 1.0774663)
(1.3574008e-06 -1.0499929e-06 1.0774666)
(1.8391044e-06 -9.7059218e-07 1.0774672)
(6.9411579e-07 -8.885753e-07 1.0774679)
(-9.2798681e-07 -7.7318559e-07 1.0774672)
(-2.1561004e-06 -7.4106114e-07 1.0774665)
(-1.2323188e-06 -6.9940988e-07 1.0774661)
(-6.5750694e-07 -6.5750693e-07 1.0774658)
(-1.1037207e-07 -6.1683885e-07 1.0774657)
(4.1612986e-07 -5.7574031e-07 1.0774658)
(9.2360807e-07 -5.316214e-07 1.0774661)
(1.4148581e-06 -4.8270792e-07 1.0774665)
(1.8950867e-06 -4.3149357e-07 1.077467)
(7.1109536e-07 -3.9193281e-07 1.0774678)
(-9.1968742e-07 -2.1229214e-07 1.077467)
(-2.1251336e-06 -1.879757e-07 1.0774664)
(-1.1935498e-06 -1.5111992e-07 1.077466)
(-6.1683887e-07 -1.1037207e-07 1.0774657)
(-6.9353311e-08 -6.9353296e-08 1.0774657)
(4.580308e-07 -2.8555817e-08 1.0774658)
(9.668761e-07 1.2518598e-08 1.077466)
(1.4575286e-06 5.3367966e-08 1.0774664)
(1.9298796e-06 9.02522e-08 1.077467)
(7.2048963e-07 1.1431808e-07 1.0774678)
(-9.1177585e-07 3.0354295e-07 1.0774671)
(-2.0949282e-06 3.3195136e-07 1.0774664)
(-1.1547152e-06 3.7281333e-07 1.077466)
(-5.7574031e-07 4.1612986e-07 1.0774658)
(-2.855582e-08 4.580308e-07 1.0774658)
(4.9800175e-07 4.9800176e-07 1.0774659)
(1.0055319e-06 5.3644529e-07 1.0774661)
(1.4925917e-06 5.7283782e-07 1.0774666)
(1.9560368e-06 6.0410749e-07 1.0774671)
(7.2713928e-07 6.2364995e-07 1.0774679)
(-9.0074849e-07 7.7095161e-07 1.0774673)
(-2.0558632e-06 8.1888581e-07 1.0774666)
(-1.1093713e-06 8.7384369e-07 1.0774663)
(-5.316214e-07 9.2360807e-07 1.0774661)
(1.251859e-08 9.6687608e-07 1.077466)
(5.3644529e-07 1.0055319e-06 1.0774661)
(1.0417122e-06 1.0417122e-06 1.0774664)
(1.5251908e-06 1.0764959e-06 1.0774668)
(1.9806917e-06 1.1085024e-06 1.0774674)
(7.3351794e-07 1.1312991e-06 1.0774682)
(-8.7981972e-07 1.168677e-06 1.0774676)
(-1.9920362e-06 1.276079e-06 1.077467)
(-1.0499929e-06 1.3574008e-06 1.0774666)
(-4.8270791e-07 1.4148581e-06 1.0774665)
(5.3367965e-08 1.4575286e-06 1.0774664)
(5.7283784e-07 1.4925918e-06 1.0774666)
(1.0764959e-06 1.5251908e-06 1.0774668)
(1.559382e-06 1.559382e-06 1.0774673)
(2.01084e-06 1.5980993e-06 1.0774679)
(7.4233709e-07 1.6377858e-06 1.0774687)
(-8.2914717e-07 1.434674e-06 1.0774681)
(-1.8671394e-06 1.733669e-06 1.0774675)
(-9.7059216e-07 1.8391045e-06 1.0774672)
(-4.3149356e-07 1.8950866e-06 1.077467)
(9.025221e-08 1.9298796e-06 1.077467)
(6.0410749e-07 1.9560368e-06 1.0774671)
(1.1085024e-06 1.9806917e-06 1.0774674)
(1.5980993e-06 2.01084e-06 1.0774679)
(2.0590955e-06 2.0590955e-06 1.0774685)
(7.5997561e-07 2.1563747e-06 1.0774693)
(-6.8048971e-07 5.0775999e-07 1.0774687)
(-1.5876057e-06 6.5641745e-07 1.0774682)
(-8.8857531e-07 6.9411579e-07 1.0774679)
(-3.919328e-07 7.1109535e-07 1.0774678)
(1.1431808e-07 7.2048963e-07 1.0774678)
(6.2364994e-07 7.2713927e-07 1.0774679)
(1.1312991e-06 7.3351793e-07 1.0774682)
(1.6377858e-06 7.4233708e-07 1.0774687)
(2.1563747e-06 7.5997561e-07 1.0774693)
(8.0718991e-07 8.0718991e-07 1.0774702)
(-1.383447e-06 -1.383447e-06 1.0775041)
(-3.1543602e-06 -1.2093398e-06 1.0775033)
(-1.7395778e-06 -1.1700631e-06 1.0775029)
(-9.4968768e-07 -1.1535698e-06 1.0775027)
(-2.3262773e-07 -1.1429819e-06 1.0775026)
(4.3546137e-07 -1.1327695e-06 1.0775026)
(1.0496889e-06 -1.1184375e-06 1.0775029)
(1.5843492e-06 -1.0911279e-06 1.0775032)
(1.9619405e-06 -1.0248098e-06 1.0775037)
(6.9899381e-07 -8.2978541e-07 1.0775043)
(-1.2093398e-06 -3.1543602e-06 1.0775033)
(-2.8342842e-06 -2.8342842e-06 1.0775026)
(-1.6559228e-06 -2.7337716e-06 1.0775022)
(-9.0906589e-07 -2.6797238e-06 1.077502)
(-2.0142726e-07 -2.6401265e-06 1.0775019)
(4.7227786e-07 -2.6011299e-06 1.077502)
(1.1121514e-06 -2.5504094e-06 1.0775022)
(1.7247907e-06 -2.4672754e-06 1.0775026)
(2.3539542e-06 -2.3042509e-06 1.0775031)
(8.9401825e-07 -1.9387814e-06 1.0775038)
(-1.1700631e-06 -1.7395778e-06 1.0775029)
(-2.7337717e-06 -1.6559228e-06 1.0775022)
(-1.5850174e-06 -1.5850174e-06 1.0775019)
(-8.560425e-07 -1.5280559e-06 1.0775017)
(-1.5403383e-07 -1.4782936e-06 1.0775016)
(5.2517845e-07 -1.4281157e-06 1.0775017)
(1.1835434e-06 -1.3692964e-06 1.0775019)
(1.8305077e-06 -1.2921358e-06 1.0775023)
(2.4904345e-06 -1.1889928e-06 1.0775029)
(9.4264013e-07 -1.0831776e-06 1.0775036)
(-1.1535698e-06 -9.4968769e-07 1.0775027)
(-2.6797238e-06 -9.0906589e-07 1.077502)
(-1.5280559e-06 -8.560425e-07 1.0775017)
(-8.023421e-07 -8.0234209e-07 1.0775014)
(-1.0148703e-07 -7.4993292e-07 1.0775014)
(5.8127504e-07 -6.9674646e-07 1.0775015)
(1.2481313e-06 -6.3949498e-07 1.0775017)
(1.9050943e-06 -5.7594251e-07 1.0775021)
(2.5629123e-06 -5.09435e-07 1.0775027)
(9.6456171e-07 -4.5827308e-07 1.0775035)
(-1.1429819e-06 -2.3262773e-07 1.0775026)
(-2.6401265e-06 -2.0142726e-07 1.0775019)
(-1.4782936e-06 -1.5403382e-07 1.0775016)
(-7.4993292e-07 -1.0148703e-07 1.0775014)
(-4.8438196e-08 -4.843818e-08 1.0775013)
(6.3561639e-07 4.4705639e-09 1.0775014)
(1.3043474e-06 5.7868516e-08 1.0775017)
(1.9605677e-06 1.1107115e-07 1.0775021)
(2.6081039e-06 1.5914947e-07 1.0775027)
(9.7674807e-07 1.9048945e-07 1.0775035)
(-1.1327695e-06 4.3546137e-07 1.0775026)
(-2.6011299e-06 4.7227786e-07 1.077502)
(-1.4281157e-06 5.2517846e-07 1.0775017)
(-6.9674645e-07 5.8127504e-07 1.0775015)
(4.4705698e-09 6.3561639e-07 1.0775014)
(6.8758173e-07 6.8758175e-07 1.0775016)
(1.3547319e-06 7.3772984e-07 1.0775018)
(2.0063752e-06 7.8540014e-07 1.0775023)
(2.6423306e-06 8.2655302e-07 1.0775029)
(9.8545503e-07 8.5238722e-07 1.0775036)
(-1.1184375e-06 1.0496889e-06 1.0775029)
(-2.5504094e-06 1.1121514e-06 1.0775022)
(-1.3692964e-06 1.1835434e-06 1.0775019)
(-6.3949499e-07 1.2481313e-06 1.0775017)
(5.7868508e-08 1.3043474e-06 1.0775017)
(7.3772984e-07 1.3547319e-06 1.0775018)
(1.4021658e-06 1.4021658e-06 1.0775021)
(2.0493908e-06 1.4481802e-06 1.0775026)
(2.675091e-06 1.491041e-06 1.0775032)
(9.9397087e-07 1.5220034e-06 1.077504)
(-1.0911279e-06 1.5843492e-06 1.0775032)
(-2.4672754e-06 1.7247907e-06 1.0775026)
(-1.2921358e-06 1.8305077e-06 1.0775023)
(-5.7594252e-07 1.9050943e-06 1.0775021)
(1.1107116e-07 1.9605677e-06 1.0775021)
(7.8540015e-07 2.0063752e-06 1.0775023)
(1.4481802e-06 2.0493908e-06 1.0775026)
(2.0952504e-06 2.0952504e-06 1.077503)
(2.7161539e-06 2.1483063e-06 1.0775036)
(1.0060967e-06 2.2038887e-06 1.0775044)
(-1.0248098e-06 1.9619405e-06 1.0775037)
(-2.3042509e-06 2.3539542e-06 1.0775031)
(-1.1889928e-06 2.4904345e-06 1.0775029)
(-5.09435e-07 2.5629123e-06 1.0775027)
(1.5914948e-07 2.6081039e-06 1.0775027)
(8.2655302e-07 2.6423306e-06 1.0775029)
(1.491041e-06 2.675091e-06 1.0775032)
(2.1483063e-06 2.7161539e-06 1.0775036)
(2.7837292e-06 2.7837292e-06 1.0775043)
(1.0310258e-06 2.9227708e-06 1.0775051)
(-8.2978542e-07 6.9899382e-07 1.0775043)
(-1.9387814e-06 8.9401825e-07 1.0775038)
(-1.0831776e-06 9.4264013e-07 1.0775036)
(-4.5827309e-07 9.6456171e-07 1.0775035)
(1.9048946e-07 9.7674807e-07 1.0775035)
(8.5238722e-07 9.8545503e-07 1.0775036)
(1.5220034e-06 9.9397087e-07 1.077504)
(2.2038887e-06 1.0060967e-06 1.0775044)
(2.9227708e-06 1.0310258e-06 1.0775051)
(1.098791e-06 1.098791e-06 1.077506)
(-1.6418362e-06 -1.6418362e-06 1.0775486)
(-3.7373431e-06 -1.4342769e-06 1.0775479)
(-2.0490482e-06 -1.3876117e-06 1.0775475)
(-1.1016352e-06 -1.3679055e-06 1.0775473)
(-2.3365965e-07 -1.3551266e-06 1.0775472)
(5.8217859e-07 -1.3426893e-06 1.0775473)
(1.339477e-06 -1.3251404e-06 1.0775475)
(2.0072469e-06 -1.2916056e-06 1.0775479)
(2.4909097e-06 -1.2100256e-06 1.0775484)
(8.8965169e-07 -9.6980576e-07 1.0775489)
(-1.4342769e-06 -3.7373431e-06 1.0775479)
(-3.3560063e-06 -3.3560063e-06 1.0775472)
(-1.9494911e-06 -3.2364241e-06 1.0775469)
(-1.0529076e-06 -3.1716809e-06 1.0775467)
(-1.9583536e-07 -3.1238145e-06 1.0775466)
(6.2715796e-07 -3.0763178e-06 1.0775467)
(1.4161026e-06 -3.0142586e-06 1.0775469)
(2.1799189e-06 -2.9122993e-06 1.0775473)
(2.9736094e-06 -2.7120963e-06 1.0775478)
(1.1298716e-06 -2.2628996e-06 1.0775485)
(-1.3876117e-06 -2.0490481e-06 1.0775475)
(-3.2364241e-06 -1.9494911e-06 1.0775469)
(-1.8647227e-06 -1.8647227e-06 1.0775465)
(-9.8902563e-07 -1.7961489e-06 1.0775463)
(-1.3829656e-07 -1.7358278e-06 1.0775463)
(6.917345e-07 -1.6746743e-06 1.0775464)
(1.5034955e-06 -1.6027505e-06 1.0775466)
(2.3094092e-06 -1.5082604e-06 1.077547)
(3.1403093e-06 -1.381981e-06 1.0775476)
(1.1891161e-06 -1.253021e-06 1.0775483)
(-1.3679055e-06 -1.1016352e-06 1.0775473)
(-3.1716808e-06 -1.0529076e-06 1.0775467)
(-1.7961489e-06 -9.8902561e-07 1.0775463)
(-9.2401265e-07 -9.2401263e-07 1.0775461)
(-7.4360775e-08 -8.6028074e-07 1.0775461)
(7.6023527e-07 -7.953727e-07 1.0775462)
(1.5825165e-06 -7.2533526e-07 1.0775465)
(2.4006884e-06 -6.4750232e-07 1.0775469)
(3.2288488e-06 -5.6607609e-07 1.0775475)
(1.2158449e-06 -5.0361709e-07 1.0775482)
(-1.3551266e-06 -2.3365964e-07 1.0775472)
(-3.1238145e-06 -1.9583538e-07 1.0775466)
(-1.7358277e-06 -1.3829658e-07 1.0775463)
(-8.6028076e-07 -7.4360785e-08 1.0775461)
(-9.656624e-09 -9.656609e-09 1.0775461)
(8.2667998e-07 5.503521e-08 1.0775462)
(1.6513659e-06 1.2046789e-07 1.0775465)
(2.4686683e-06 1.8576507e-07 1.0775469)
(3.2841946e-06 2.4481338e-07 1.0775475)
(1.2307555e-06 2.832753e-07 1.0775482)
(-1.3426893e-06 5.8217859e-07 1.0775473)
(-3.0763178e-06 6.2715795e-07 1.0775467)
(-1.6746743e-06 6.9173447e-07 1.0775464)
(-7.9537268e-07 7.6023526e-07 1.0775462)
(5.503522e-08 8.2667999e-07 1.0775462)
(8.9035976e-07 8.9035978e-07 1.0775463)
(1.7132464e-06 9.5199198e-07 1.0775466)
(2.5250339e-06 1.0107756e-06 1.077547)
(3.326359e-06 1.0616975e-06 1.0775476)
(1.2414862e-06 1.0937563e-06 1.0775484)
(-1.3251404e-06 1.339477e-06 1.0775475)
(-3.0142586e-06 1.4161026e-06 1.0775469)
(-1.6027504e-06 1.5034955e-06 1.0775466)
(-7.2533524e-07 1.5825165e-06 1.0775465)
(1.2046789e-07 1.6513659e-06 1.0775465)
(9.5199197e-07 1.7132464e-06 1.0775466)
(1.7717817e-06 1.7717817e-06 1.0775469)
(2.5783738e-06 1.8289479e-06 1.0775473)
(3.3671753e-06 1.8826332e-06 1.077548)
(1.252128e-06 1.9217395e-06 1.0775487)
(-1.2916056e-06 2.0072469e-06 1.0775479)
(-2.9122993e-06 2.1799189e-06 1.0775473)
(-1.5082604e-06 2.3094092e-06 1.077547)
(-6.4750233e-07 2.4006884e-06 1.0775469)
(1.8576507e-07 2.4686683e-06 1.0775469)
(1.0107756e-06 2.5250339e-06 1.077547)
(1.8289479e-06 2.5783738e-06 1.0775473)
(2.6358853e-06 2.6358853e-06 1.0775478)
(3.4191506e-06 2.7032809e-06 1.0775484)
(1.267557e-06 2.7746713e-06 1.0775492)
(-1.2100257e-06 2.4909097e-06 1.0775484)
(-2.7120963e-06 2.9736094e-06 1.0775478)
(-1.381981e-06 3.1403093e-06 1.0775476)
(-5.6607608e-07 3.2288488e-06 1.0775475)
(2.448134e-07 3.2841946e-06 1.0775475)
(1.0616975e-06 3.326359e-06 1.0775476)
(1.8826332e-06 3.3671753e-06 1.077548)
(2.7032809e-06 3.4191506e-06 1.0775484)
(3.5059612e-06 3.5059612e-06 1.0775491)
(1.2997216e-06 3.6861852e-06 1.0775499)
(-9.6980576e-07 8.8965169e-07 1.0775489)
(-2.2628996e-06 1.1298716e-06 1.0775485)
(-1.253021e-06 1.1891161e-06 1.0775483)
(-5.036171e-07 1.2158449e-06 1.0775482)
(2.832753e-07 1.2307555e-06 1.0775482)
(1.0937562e-06 1.2414862e-06 1.0775484)
(1.9217395e-06 1.252128e-06 1.0775487)
(2.7746713e-06 1.267557e-06 1.0775492)
(3.6861852e-06 1.2997216e-06 1.0775499)
(1.3877064e-06 1.3877064e-06 1.0775507)
(-1.8875738e-06 -1.8875738e-06 1.0776019)
(-4.2872147e-06 -1.6477784e-06 1.0776012)
(-2.3324917e-06 -1.5940396e-06 1.0776008)
(-1.2324159e-06 -1.5712688e-06 1.0776006)
(-2.1885197e-07 -1.5563943e-06 1.0776006)
(7.3937054e-07 -1.5418165e-06 1.0776007)
(1.6343935e-06 -1.5211604e-06 1.0776009)
(2.4296284e-06 -1.4816055e-06 1.0776012)
(3.0131618e-06 -1.385266e-06 1.0776017)
(1.0769885e-06 -1.1013451e-06 1.0776023)
(-1.6477784e-06 -4.2872147e-06 1.0776012)
(-3.8469135e-06 -3.8469135e-06 1.0776005)
(-2.2177272e-06 -3.7091091e-06 1.0776002)
(-1.1759479e-06 -3.6341684e-06 1.0776)
(-1.7467353e-07 -3.5783914e-06 1.0776)
(7.9222131e-07 -3.5227191e-06 1.0776001)
(1.7247099e-06 -3.4497131e-06 1.0776003)
(2.63347e-06 -3.3295536e-06 1.0776007)
(3.5835525e-06 -3.0934059e-06 1.0776012)
(1.3609095e-06 -2.5632848e-06 1.0776019)
(-1.5940396e-06 -2.3324917e-06 1.0776008)
(-3.7091091e-06 -2.2177272e-06 1.0776002)
(-2.1197466e-06 -2.1197466e-06 1.0775999)
(-1.1016982e-06 -2.0400937e-06 1.0775997)
(-1.0740264e-07 -1.9696595e-06 1.0775997)
(8.6804889e-07 -1.8979455e-06 1.0775998)
(1.8275589e-06 -1.8133713e-06 1.0776)
(2.7859355e-06 -1.7021301e-06 1.0776004)
(3.7794307e-06 -1.5534893e-06 1.077601)
(1.4304026e-06 -1.402195e-06 1.0776017)
(-1.5712688e-06 -1.2324159e-06 1.0776006)
(-3.6341684e-06 -1.1759479e-06 1.0776)
(-2.0400937e-06 -1.1016982e-06 1.0775997)
(-1.0258608e-06 -1.0258608e-06 1.0775996)
(-3.2525328e-08 -9.5125761e-07 1.0775995)
(9.4850948e-07 -8.7505419e-07 1.0775996)
(1.9205254e-06 -7.9266168e-07 1.0775999)
(2.893352e-06 -7.0101151e-07 1.0776003)
(3.8834876e-06 -6.0515152e-07 1.0776009)
(1.4617724e-06 -5.3177699e-07 1.0776016)
(-1.5563943e-06 -2.1885196e-07 1.0776006)
(-3.5783914e-06 -1.7467352e-07 1.0776)
(-1.9696595e-06 -1.0740265e-07 1.0775997)
(-9.5125762e-07 -3.2525321e-08 1.0775995)
(4.3403975e-08 4.3403988e-08 1.0775995)
(1.0266448e-06 1.1947749e-07 1.0775996)
(2.0016016e-06 1.9656575e-07 1.0775999)
(2.9734457e-06 2.735965e-07 1.0776003)
(3.9486652e-06 3.4329271e-07 1.0776009)
(1.479319e-06 3.8866157e-07 1.0776017)
(-1.5418165e-06 7.3937055e-07 1.0776007)
(-3.5227191e-06 7.9222131e-07 1.0776001)
(-1.8979455e-06 8.6804889e-07 1.0775998)
(-8.7505419e-07 9.4850947e-07 1.0775996)
(1.1947749e-07 1.0266448e-06 1.0775996)
(1.1016712e-06 1.1016712e-06 1.0775998)
(2.0746444e-06 1.1744623e-06 1.0776001)
(3.040079e-06 1.2440738e-06 1.0776005)
(3.9985527e-06 1.3045296e-06 1.0776011)
(1.4920183e-06 1.3426636e-06 1.0776018)
(-1.5211604e-06 1.6343935e-06 1.0776009)
(-3.449713e-06 1.7247099e-06 1.0776003)
(-1.8133713e-06 1.8275589e-06 1.0776)
(-7.9266169e-07 1.9205254e-06 1.0775999)
(1.9656575e-07 2.0016016e-06 1.0775999)
(1.1744623e-06 2.0746444e-06 1.0776001)
(2.1440042e-06 2.1440042e-06 1.0776004)
(3.103513e-06 2.2120853e-06 1.0776008)
(4.0472551e-06 2.2763879e-06 1.0776014)
(1.5047417e-06 2.3234808e-06 1.0776022)
(-1.4816055e-06 2.4296284e-06 1.0776012)
(-3.3295536e-06 2.63347e-06 1.0776007)
(-1.7021301e-06 2.7859355e-06 1.0776004)
(-7.0101151e-07 2.893352e-06 1.0776003)
(2.7359649e-07 2.9734457e-06 1.0776003)
(1.2440738e-06 3.040079e-06 1.0776005)
(2.2120853e-06 3.103513e-06 1.0776008)
(3.1724627e-06 3.1724627e-06 1.0776013)
(4.1099481e-06 3.2539452e-06 1.0776019)
(1.5234135e-06 3.3408325e-06 1.0776026)
(-1.385266e-06 3.0131618e-06 1.0776017)
(-3.0934059e-06 3.5835525e-06 1.0776012)
(-1.5534893e-06 3.7794307e-06 1.077601)
(-6.0515152e-07 3.8834876e-06 1.0776009)
(3.432927e-07 3.9486652e-06 1.0776009)
(1.3045296e-06 3.9985527e-06 1.0776011)
(2.2763879e-06 4.0472551e-06 1.0776014)
(3.2539452e-06 4.1099481e-06 1.0776019)
(4.2156248e-06 4.2156248e-06 1.0776025)
(1.5626665e-06 4.4361268e-06 1.0776033)
(-1.1013451e-06 1.0769885e-06 1.0776023)
(-2.5632848e-06 1.3609095e-06 1.0776019)
(-1.402195e-06 1.4304026e-06 1.0776017)
(-5.31777e-07 1.4617724e-06 1.0776016)
(3.8866157e-07 1.479319e-06 1.0776017)
(1.3426636e-06 1.4920183e-06 1.0776018)
(2.3234808e-06 1.5047417e-06 1.0776022)
(3.3408325e-06 1.5234135e-06 1.0776026)
(4.4361268e-06 1.5626665e-06 1.0776033)
(1.6704149e-06 1.6704149e-06 1.0776041)
(-2.1199399e-06 -2.1199399e-06 1.0776634)
(-4.8035917e-06 -1.8493205e-06 1.0776627)
(-2.5917751e-06 -1.7888469e-06 1.0776624)
(-1.3446511e-06 -1.7631641e-06 1.0776622)
(-1.9146285e-07 -1.7462943e-06 1.0776622)
(9.0292262e-07 -1.7296709e-06 1.0776623)
(1.9292616e-06 -1.7060379e-06 1.0776625)
(2.8453856e-06 -1.6607102e-06 1.0776629)
(3.522466e-06 -1.5502154e-06 1.0776634)
(1.2590097e-06 -1.2243794e-06 1.0776639)
(-1.8493205e-06 -4.8035917e-06 1.0776627)
(-4.3069522e-06 -4.3069522e-06 1.0776622)
(-2.4625405e-06 -4.1518185e-06 1.0776619)
(-1.2808224e-06 -4.0671907e-06 1.0776617)