/*--------------------------------*- C++ -*----------------------------------*\
| =========                 |                                                 |
| \\      /  F ield         | OpenFOAM: The Open Source CFD Toolbox           |
|  \\    /   O peration     | Version:  v2106                                 |
|   \\  /    A nd           | Website:  www.openfoam.com                      |
|    \\/     M anipulation  |                                                 |
\*---------------------------------------------------------------------------*/
FoamFile
{
    version     2.0;
    format      ascii;
    arch        "LSB;label=32;scalar=64";
    class       volScalarField;
    location    "82.5";
    object      laplacianT;
}
// * * * * * * * * * * * * * * * * * * * * * * * * * * * * * * * * * * * * * //

dimensions      [0 -2 0 1 0 0 0];

internalField   nonuniform List<scalar> 
4000
(
41117.584
41117.591
41117.562
41117.548
41117.541
41117.541
41117.547
41117.557
41117.57
41117.582
41117.591
41117.594
41117.567
41117.553
41117.547
41117.547
41117.553
41117.564
41117.579
41117.591
41117.562
41117.567
41117.54
41117.527
41117.522
41117.522
41117.529
41117.541
41117.556
41117.57
41117.548
41117.553
41117.527
41117.515
41117.51
41117.511
41117.518
41117.53
41117.547
41117.561
41117.541
41117.547
41117.522
41117.51
41117.505
41117.507
41117.514
41117.527
41117.544
41117.558
41117.541
41117.547
41117.522
41117.511
41117.507
41117.509
41117.517
41117.53
41117.548
41117.562
41117.547
41117.553
41117.529
41117.518
41117.514
41117.517
41117.525
41117.539
41117.557
41117.571
41117.557
41117.564
41117.541
41117.53
41117.527
41117.53
41117.539
41117.553
41117.571
41117.586
41117.57
41117.579
41117.556
41117.547
41117.544
41117.548
41117.557
41117.571
41117.59
41117.605
41117.582
41117.591
41117.57
41117.561
41117.558
41117.562
41117.571
41117.586
41117.605
41117.62
-548.25816
-548.04568
-548.07282
-548.07295
-548.0727
-548.07269
-548.07292
-548.07336
-548.07397
-548.08258
-548.04568
-547.88905
-547.91144
-547.91134
-547.91108
-547.91109
-547.91136
-547.91187
-547.91259
-547.9643
-548.07282
-547.91144
-547.93337
-547.93328
-547.93303
-547.93307
-547.93336
-547.9339
-547.93466
-547.98343
-548.07295
-547.91134
-547.93328
-547.9332
-547.93298
-547.93303
-547.93335
-547.93392
-547.93471
-547.9836
-548.0727
-547.91108
-547.93303
-547.93298
-547.93278
-547.93286
-547.9332
-547.93379
-547.9346
-547.98351
-548.07269
-547.91109
-547.93307
-547.93303
-547.93286
-547.93295
-547.93331
-547.93392
-547.93476
-547.98368
-548.07292
-547.91136
-547.93336
-547.93335
-547.9332
-547.93331
-547.93369
-547.93432
-547.93517
-547.9841
-548.07336
-547.91187
-547.9339
-547.93392
-547.93379
-547.93392
-547.93432
-547.93496
-547.93583
-547.98476
-548.07397
-547.91259
-547.93466
-547.93471
-547.9346
-547.93476
-547.93517
-547.93583
-547.93671
-547.98566
-548.08258
-547.9643
-547.98343
-547.9836
-547.98351
-547.98368
-547.9841
-547.98476
-547.98566
-548.03641
-537.04949
-536.73284
-536.77744
-536.77796
-536.77767
-536.77768
-536.778
-536.77861
-536.77944
-536.83365
-536.73284
-536.50267
-536.53919
-536.53928
-536.53898
-536.53902
-536.53941
-536.54011
-536.54111
-536.6755
-536.77744
-536.53919
-536.57488
-536.57497
-536.57469
-536.57476
-536.57517
-536.57591
-536.57697
-536.70449
-536.77796
-536.53928
-536.57497
-536.57508
-536.57483
-536.57493
-536.57537
-536.57614
-536.57725
-536.70491
-536.77767
-536.53898
-536.57469
-536.57483
-536.57461
-536.57473
-536.5752
-536.57601
-536.57714
-536.70484
-536.77768
-536.53902
-536.57476
-536.57493
-536.57473
-536.57488
-536.57538
-536.57621
-536.57736
-536.70508
-536.778
-536.53941
-536.57517
-536.57537
-536.5752
-536.57538
-536.5759
-536.57675
-536.57793
-536.70565
-536.77861
-536.54011
-536.57591
-536.57614
-536.57601
-536.57621
-536.57675
-536.57763
-536.57883
-536.70654
-536.77944
-536.54111
-536.57697
-536.57725
-536.57714
-536.57736
-536.57793
-536.57883
-536.58005
-536.70776
-536.83365
-536.6755
-536.70449
-536.70491
-536.70484
-536.70508
-536.70565
-536.70654
-536.70776
-536.85486
-526.21623
-525.79983
-525.86062
-525.86149
-525.86117
-525.86121
-525.86163
-525.8624
-525.86347
-525.95958
-525.79983
-525.49808
-525.5478
-525.54807
-525.54774
-525.54783
-525.54834
-525.54923
-525.55051
-525.76373
-525.86062
-525.5478
-525.59636
-525.59663
-525.59633
-525.59645
-525.59698
-525.59792
-525.59927
-525.80163
-525.86149
-525.54807
-525.59663
-525.59693
-525.59666
-525.59681
-525.59738
-525.59837
-525.59977
-525.80227
-525.86117
-525.54774
-525.59633
-525.59666
-525.59643
-525.59661
-525.59722
-525.59824
-525.59968
-525.80224
-525.86121
-525.54783
-525.59645
-525.59681
-525.59661
-525.59682
-525.59746
-525.59852
-525.59998
-525.80256
-525.86163
-525.54834
-525.59698
-525.59738
-525.59722
-525.59746
-525.59813
-525.59921
-525.60071
-525.80327
-525.8624
-525.54923
-525.59792
-525.59837
-525.59824
-525.59852
-525.59921
-525.60033
-525.60185
-525.80439
-525.86347
-525.55051
-525.59927
-525.59977
-525.59968
-525.59998
-525.60071
-525.60185
-525.6034
-525.80593
-525.95958
-525.76373
-525.80163
-525.80227
-525.80224
-525.80256
-525.80327
-525.80439
-525.80593
-526.044
-515.73978
-515.22678
-515.30318
-515.30438
-515.30405
-515.30413
-515.30465
-515.30558
-515.30687
-515.44372
-515.22678
-514.85579
-514.91824
-514.91871
-514.91837
-514.9185
-514.91913
-514.92022
-514.92177
-515.21151
-515.30318
-514.91824
-514.97924
-514.97969
-514.97938
-514.97955
-514.98021
-514.98135
-514.98298
-515.25796
-515.30438
-514.91871
-514.97969
-514.98017
-514.9799
-514.98011
-514.98081
-514.98201
-514.9837
-515.25883
-515.30405
-514.91837
-514.97938
-514.9799
-514.97967
-514.97992
-514.98066
-514.9819
-514.98363
-515.25883
-515.30413
-514.9185
-514.97955
-514.98011
-514.97992
-514.9802
-514.98098
-514.98226
-514.98402
-515.25923
-515.30465
-514.91913
-514.98021
-514.98081
-514.98066
-514.98098
-514.9818
-514.98311
-514.9849
-515.2601
-515.30558
-514.92022
-514.98135
-514.98201
-514.9819
-514.98226
-514.98311
-514.98445
-514.98627
-515.26144
-515.30687
-514.92177
-514.98298
-514.9837
-514.98363
-514.98402
-514.9849
-514.98627
-514.98815
-515.26328
-515.44372
-515.21151
-515.25796
-515.25883
-515.25883
-515.25923
-515.2601
-515.26144
-515.26328
-515.58926
-505.60671
-505.00132
-505.09272
-505.09426
-505.09392
-505.09404
-505.09466
-505.09575
-505.09724
-505.27352
-505.00132
-504.56419
-504.6389
-504.63955
-504.6392
-504.6394
-504.64014
-504.64142
-504.64322
-505.0068
-505.09272
-504.6389
-504.71184
-504.71248
-504.71217
-504.71239
-504.71317
-504.71451
-504.7164
-505.06144
-505.09426
-504.63955
-504.71248
-504.71315
-504.71288
-504.71315
-504.71398
-504.71537
-504.71734
-505.06253
-505.09392
-504.6392
-504.71217
-504.71288
-504.71266
-504.71297
-504.71385
-504.71529
-504.7173
-505.06257
-505.09404
-504.6394
-504.71239
-504.71315
-504.71297
-504.71333
-504.71425
-504.71573
-504.71778
-505.06306
-505.09466
-504.64014
-504.71317
-504.71398
-504.71385
-504.71425
-504.71521
-504.71673
-504.71881
-505.06408
-505.09575
-504.64142
-504.71451
-504.71537
-504.71529
-504.71573
-504.71673
-504.7183
-504.72042
-505.06563
-505.09724
-504.64322
-504.7164
-504.71734
-504.7173
-504.71778
-504.71881
-504.72042
-504.72259
-505.06775
-505.27352
-505.0068
-505.06144
-505.06253
-505.06257
-505.06306
-505.06408
-505.06563
-505.06775
-505.4786
-495.80565
-495.11266
-495.21837
-495.22024
-495.2199
-495.22006
-495.22078
-495.22202
-495.22371
-495.43785
-495.11266
-494.61292
-494.69931
-494.70015
-494.6998
-494.70005
-494.70092
-494.70238
-494.70441
-495.13869
-495.21837
-494.69931
-494.78365
-494.78446
-494.78416
-494.78444
-494.78535
-494.78687
-494.78901
-495.20113
-495.22024
-494.70015
-494.78446
-494.78532
-494.78506
-494.7854
-494.78635
-494.78794
-494.79016
-495.20243
-495.2199
-494.6998
-494.78416
-494.78506
-494.78485
-494.78523
-494.78624
-494.78788
-494.79015
-495.2025
-495.22006
-494.70005
-494.78444
-494.7854
-494.78523
-494.78567
-494.78672
-494.78841
-494.79072
-495.20308
-495.22078
-494.70092
-494.78535
-494.78635
-494.78624
-494.78672
-494.78783
-494.78956
-494.79191
-495.20424
-495.22202
-494.70238
-494.78687
-494.78794
-494.78788
-494.78841
-494.78956
-494.79133
-494.79372
-495.20599
-495.22371
-494.70441
-494.78901
-494.79016
-494.79015
-494.79072
-494.79191
-494.79372
-494.79618
-495.20838
-495.43785
-495.13869
-495.20113
-495.20243
-495.2025
-495.20308
-495.20424
-495.20599
-495.20838
-495.70058
-486.32579
-485.55048
-485.66973
-485.67192
-485.67159
-485.6718
-485.67261
-485.67399
-485.67585
-485.92609
-485.55048
-484.992
-485.08945
-485.09048
-485.09014
-485.09044
-485.09142
-485.09305
-485.09531
-485.59673
-485.66973
-485.08945
-485.18457
-485.18557
-485.18527
-485.18561
-485.18663
-485.18832
-485.1907
-485.66651
-485.67192
-485.09048
-485.18557
-485.18661
-485.18636
-485.18676
-485.18784
-485.1896
-485.19206
-485.66803
-485.67159
-485.09014
-485.18527
-485.18636
-485.18616
-485.18662
-485.18775
-485.18957
-485.19209
-485.66814
-485.6718
-485.09044
-485.18561
-485.18676
-485.18662
-485.18712
-485.18831
-485.19018
-485.19274
-485.6688
-485.67261
-485.09142
-485.18663
-485.18784
-485.18775
-485.18831
-485.18955
-485.19147
-485.19407
-485.67009
-485.67399
-485.09305
-485.18832
-485.1896
-485.18957
-485.19018
-485.19147
-485.19344
-485.19609
-485.67204
-485.67585
-485.09531
-485.1907
-485.19206
-485.19209
-485.19274
-485.19407
-485.19609
-485.1988
-485.67466
-485.92609
-485.59673
-485.66651
-485.66803
-485.66814
-485.6688
-485.67009
-485.67204
-485.67466
-486.24422
-477.15672
-476.30486
-476.4368
-476.4393
-476.43897
-476.43923
-476.44013
-476.44164
-476.44367
-476.728
-476.30486
-475.69186
-475.79965
-475.80087
-475.80054
-475.8009
-475.80198
-475.80377
-475.80624
-476.37086
-476.4368
-475.79965
-475.90487
-475.90604
-475.90576
-475.90616
-475.90729
-475.90914
-475.91173
-476.44751
-476.4393
-475.80087
-475.90604
-475.90726
-475.90703
-475.90749
-475.90868
-475.91061
-475.9133
-476.44922
-476.43897
-475.80054
-475.90576
-475.90703
-475.90685
-475.90737
-475.90863
-475.91062
-475.91336
-476.44937
-476.43923
-475.8009
-475.90616
-475.90749
-475.90737
-475.90795
-475.90926
-475.91131
-475.91409
-476.45012
-476.44013
-475.80198
-475.90729
-475.90868
-475.90863
-475.90926
-475.91062
-475.91272
-475.91556
-476.45153
-476.44164
-475.80377
-475.90914
-475.91061
-475.91062
-475.91131
-475.91272
-475.91488
-475.91776
-476.45364
-476.44367
-475.80624
-475.91173
-475.9133
-475.91336
-475.91409
-475.91556
-475.91776
-475.92072
-476.4565
-476.728
-476.37086
-476.44751
-476.44922
-476.44937
-476.45012
-476.45153
-476.45364
-476.4565
-477.09898
-468.28843
-467.36619
-467.5099
-467.51269
-467.51237
-467.51267
-467.51366
-467.51528
-467.51747
-467.83371
-467.36619
-466.70316
-466.82056
-466.82195
-466.82163
-466.82204
-466.82323
-466.82516
-466.82782
-467.45136
-467.5099
-466.82056
-466.93513
-466.93646
-466.93619
-466.93665
-466.93788
-466.93988
-466.94267
-467.53433
-467.51269
-466.82195
-466.93646
-466.93785
-466.93764
-466.93816
-466.93946
-466.94154
-466.94443
-467.53623
-467.51237
-466.82163
-466.93619
-466.93764
-466.93749
-466.93807
-466.93943
-466.94158
-466.94453
-467.53643
-467.51267
-466.82204
-466.93665
-466.93816
-466.93807
-466.93871
-466.94013
-466.94234
-466.94534
-467.53725
-467.51366
-466.82323
-466.93788
-466.93946
-466.93943
-466.94013
-466.94162
-466.94388
-466.94693
-467.53878
-467.51528
-466.82516
-466.93988
-466.94154
-466.94158
-466.94234
-466.94388
-466.94621
-466.94931
-467.54105
-467.51747
-466.82782
-466.94267
-466.94443
-466.94453
-466.94534
-466.94693
-466.94931
-466.95249
-467.5441
-467.83371
-467.45136
-467.53433
-467.53623
-467.53643
-467.53725
-467.53878
-467.54105
-467.5441
-468.25467
-459.71123
-458.72517
-458.87964
-458.88271
-458.88241
-458.88275
-458.88381
-458.88555
-458.88787
-459.23366
-458.72517
-458.01687
-458.14304
-458.1446
-458.14429
-458.14476
-458.14604
-458.14811
-458.15094
-458.82878
-458.87964
-458.14304
-458.26616
-458.26766
-458.26741
-458.26792
-458.26925
-458.27138
-458.27435
-458.91752
-458.88271
-458.1446
-458.26766
-458.26922
-458.26902
-458.2696
-458.271
-458.27322
-458.27629
-458.9196
-458.88241
-458.14429
-458.26741
-458.26902
-458.26889
-458.26953
-458.271
-458.27329
-458.27642
-458.91983
-458.88275
-458.14476
-458.26792
-458.2696
-458.26953
-458.27024
-458.27177
-458.27412
-458.27731
-458.92072
-458.88381
-458.14604
-458.26925
-458.271
-458.271
-458.27177
-458.27336
-458.27577
-458.27901
-458.92235
-458.88555
-458.14811
-458.27138
-458.27322
-458.27329
-458.27412
-458.27577
-458.27825
-458.28154
-458.92477
-458.88787
-458.15094
-458.27435
-458.27629
-458.27642
-458.27731
-458.27901
-458.28154
-458.28492
-458.928
-459.23366
-458.82878
-458.91752
-458.9196
-458.91983
-458.92072
-458.92235
-458.92477
-458.928
-459.70143
-451.41571
-450.37272
-450.5369
-450.54023
-450.53994
-450.54032
-450.54145
-450.54328
-450.54573
-450.91855
-450.37272
-449.62412
-449.75821
-449.75993
-449.75964
-449.76016
-449.76152
-449.76371
-449.76669
-450.49395
-450.5369
-449.75821
-449.88905
-449.8907
-449.89046
-449.89103
-449.89244
-449.89469
-449.89781
-450.58785
-450.54023
-449.75993
-449.8907
-449.89241
-449.89223
-449.89286
-449.89435
-449.8967
-449.89992
-450.59009
-450.53994
-449.75964
-449.89046
-449.89223
-449.89213
-449.89282
-449.89438
-449.8968
-449.9001
-450.59037
-450.54032
-449.76016
-449.89103
-449.89286
-449.89282
-449.89359
-449.89521
-449.8977
-449.90105
-450.59132
-450.54145
-449.76152
-449.89244
-449.89435
-449.89438
-449.89521
-449.8969
-449.89945
-449.90285
-450.59304
-450.54328
-449.76371
-449.89469
-449.8967
-449.8968
-449.8977
-449.89945
-449.90205
-449.90552
-450.59558
-450.54573
-449.76669
-449.89781
-449.89992
-449.9001
-449.90105
-449.90285
-449.90552
-449.90907
-450.59898
-450.91855
-450.49395
-450.58785
-450.59009
-450.59037
-450.59132
-450.59304
-450.59558
-450.59898
-451.42971
-443.39276
-442.29998
-442.47277
-442.47633
-442.47606
-442.47648
-442.47767
-442.47959
-442.48214
-442.87933
-442.29998
-441.51626
-441.65736
-441.65923
-441.65896
-441.65953
-441.66097
-441.66325
-441.66636
-442.43791
-442.47277
-441.65736
-441.79502
-441.79682
-441.7966
-441.79721
-441.7987
-441.80106
-441.80432
-442.53634
-442.47633
-441.65923
-441.79682
-441.79867
-441.79852
-441.7992
-441.80076
-441.80322
-441.80658
-442.53873
-442.47606
-441.65896
-441.7966
-441.79852
-441.79844
-441.79919
-441.80082
-441.80336
-441.80679
-442.53904
-442.47648
-441.65953
-441.79721
-441.7992
-441.79919
-441.80001
-441.80171
-441.80431
-441.8078
-442.54005
-442.47767
-441.66097
-441.7987
-441.80076
-441.80082
-441.80171
-441.80348
-441.80615
-441.80969
-442.54186
-442.47959
-441.66325
-441.80106
-441.80322
-441.80336
-441.80431
-441.80615
-441.80887
-441.81249
-442.5445
-442.48214
-441.66636
-441.80432
-441.80658
-441.80679
-441.8078
-441.80969
-441.81249
-441.81619
-442.54803
-442.87933
-442.43791
-442.53634
-442.53873
-442.53904
-442.54005
-442.54186
-442.5445
-442.54803
-443.43022
-435.63345
-434.49829
-434.67853
-434.6823
-434.68205
-434.68251
-434.68375
-434.68574
-434.68838
-435.10717
-434.49829
-433.68478
-433.83195
-433.83395
-433.83371
-433.83431
-433.83582
-433.83819
-433.84141
-434.65188
-434.67853
-433.83195
-433.97551
-433.97743
-433.97724
-433.9779
-433.97945
-433.9819
-433.98526
-434.75419
-434.6823
-433.83395
-433.97743
-433.97942
-433.97929
-433.98002
-433.98165
-433.98419
-433.98767
-434.75672
-434.68205
-433.83371
-433.97724
-433.97929
-433.97924
-433.98003
-433.98174
-433.98436
-433.98792
-434.75706
-434.68251
-433.83431
-433.9779
-433.98002
-433.98003
-433.9809
-433.98268
-433.98537
-433.98898
-434.75812
-434.68375
-433.83582
-433.97945
-433.98165
-433.98174
-433.98268
-433.98452
-433.98728
-433.99095
-434.76
-434.68574
-433.83819
-433.9819
-433.98419
-433.98436
-433.98537
-433.98728
-433.99011
-433.99384
-434.76273
-434.68838
-433.84141
-433.98526
-433.98767
-433.98792
-433.98898
-433.99095
-433.99384
-433.99767
-434.76637
-435.10717
-434.65188
-434.75419
-434.75672
-434.75706
-434.75812
-434.76
-434.76273
-434.76637
-435.69391
-428.12911
-426.95913
-427.14563
-427.14959
-427.14937
-427.14985
-427.15114
-427.15318
-427.15589
-427.59341
-426.95913
-426.12128
-426.27354
-426.27567
-426.27545
-426.27609
-426.27765
-426.2801
-426.2834
-427.12726
-427.14563
-426.27354
-426.42205
-426.42409
-426.42393
-426.42462
-426.42623
-426.42875
-426.43221
-427.23278
-427.14959
-426.27567
-426.42409
-426.4262
-426.4261
-426.42686
-426.42855
-426.43117
-426.43474
-427.23543
-427.14937
-426.27545
-426.42393
-426.4261
-426.42607
-426.42691
-426.42867
-426.43137
-426.43502
-427.23581
-427.14985
-426.27609
-426.42462
-426.42686
-426.42691
-426.42781
-426.42965
-426.43242
-426.43613
-427.23691
-427.15114
-426.27765
-426.42623
-426.42855
-426.42867
-426.42965
-426.43156
-426.4344
-426.43816
-427.23884
-427.15318
-426.2801
-426.42875
-426.43117
-426.43137
-426.43242
-426.4344
-426.4373
-426.44114
-427.24165
-427.15589
-426.2834
-426.43221
-426.43474
-426.43502
-426.43613
-426.43816
-426.44114
-426.44507
-427.24538
-427.59341
-427.12726
-427.23278
-427.23543
-427.23581
-427.23691
-427.23884
-427.24165
-427.24538
-428.21195
-420.87122
-419.67414
-419.86567
-419.8698
-419.8696
-419.87011
-419.87143
-419.87352
-419.87628
-420.32957
-419.67414
-418.81748
-418.97383
-418.97607
-418.97587
-418.97655
-418.97816
-418.98066
-418.98403
-419.8556
-419.86567
-418.97383
-419.12632
-419.12847
-419.12833
-419.12905
-419.1307
-419.13328
-419.13681
-419.96364
-419.8698
-418.97607
-419.12847
-419.13067
-419.1306
-419.1314
-419.13313
-419.13581
-419.13945
-419.9664
-419.8696
-418.97587
-419.12833
-419.1306
-419.1306
-419.13147
-419.13328
-419.13604
-419.13976
-419.96681
-419.87011
-418.97655
-419.12905
-419.1314
-419.13147
-419.13242
-419.1343
-419.13713
-419.14091
-419.96794
-419.87143
-418.97816
-419.1307
-419.13313
-419.13328
-419.1343
-419.13626
-419.13916
-419.14299
-419.96992
-419.87352
-418.98066
-419.13328
-419.13581
-419.13604
-419.13713
-419.13916
-419.14212
-419.14603
-419.97278
-419.87628
-418.98403
-419.13681
-419.13945
-419.13976
-419.14091
-419.14299
-419.14603
-419.15004
-419.97657
-420.32957
-419.8556
-419.96364
-419.9664
-419.96681
-419.96794
-419.96992
-419.97278
-419.97657
-420.9757
-413.85145
-412.63505
-412.83038
-412.83465
-412.83447
-412.835
-412.83635
-412.83848
-412.84127
-413.3073
-412.63505
-411.76517
-411.9246
-411.92693
-411.92676
-411.92747
-411.92911
-411.93165
-411.93507
-412.82858
-412.83038
-411.9246
-412.08008
-412.08231
-412.0822
-412.08295
-412.08464
-412.08725
-412.09083
-412.93845
-412.83465
-411.92693
-412.08231
-412.08461
-412.08456
-412.08539
-412.08716
-412.08988
-412.09356
-412.94128
-412.83447
-411.92676
-412.0822
-412.08456
-412.08459
-412.08549
-412.08734
-412.09014
-412.0939
-412.94172
-412.835
-411.92747
-412.08295
-412.08539
-412.08549
-412.08646
-412.08839
-412.09126
-412.09508
-412.94288
-412.83635
-411.92911
-412.08464
-412.08716
-412.08734
-412.08839
-412.09038
-412.09332
-412.0972
-412.94489
-412.83848
-411.93165
-412.08725
-412.08988
-412.09014
-412.09126
-412.09332
-412.09633
-412.10029
-412.94779
-412.84127
-411.93507
-412.09083
-412.09356
-412.0939
-412.09508
-412.0972
-412.10029
-412.10434
-412.95162
-413.3073
-412.82858
-412.93845
-412.94128
-412.94172
-412.94288
-412.94489
-412.94779
-412.95162
-413.97668
-407.06163
-405.83373
-406.0316
-406.03597
-406.03582
-406.03637
-406.03774
-406.03988
-406.0427
-406.5184
-405.83373
-404.95621
-405.1177
-405.12011
-405.11997
-405.1207
-405.12236
-405.12493
-405.12837
-406.03798
-406.0316
-405.1177
-405.27517
-405.27748
-405.27739
-405.27816
-405.27987
-405.28251
-405.28611
-406.14897
-406.03597
-405.12011
-405.27748
-405.27985
-405.27983
-405.28068
-405.28247
-405.28521
-405.28892
-406.15187
-406.03582
-405.11997
-405.27739
-405.27983
-405.27988
-405.2808
-405.28267
-405.2855
-405.28928
-406.15233
-406.03637
-405.1207
-405.27816
-405.28068
-405.2808
-405.2818
-405.28375
-405.28664
-405.29049
-406.15351
-406.03774
-405.12236
-405.27987
-405.28247
-405.28267
-405.28375
-405.28576
-405.28873
-405.29263
-406.15554
-406.03988
-405.12493
-405.28251
-405.28521
-405.2855
-405.28664
-405.28873
-405.29176
-405.29574
-406.15845
-406.0427
-405.12837
-405.28611
-405.28892
-405.28928
-405.29049
-405.29263
-405.29574
-405.29982
-406.1623
-406.5184
-406.03798
-406.14897
-406.15187
-406.15233
-406.15351
-406.15554
-406.15845
-406.1623
-407.20661
-400.4937
-399.26211
-399.46126
-399.46571
-399.46558
-399.46615
-399.46753
-399.46968
-399.4725
-399.95479
-399.26211
-398.38254
-398.54505
-398.54753
-398.54741
-398.54817
-398.54984
-398.55242
-398.55586
-399.47569
-399.46126
-398.54505
-398.7035
-398.70587
-398.70581
-398.70661
-398.70833
-398.71098
-398.71457
-399.5871
-399.46571
-398.54753
-398.70587
-398.70831
-398.70831
-398.70918
-398.71098
-398.71373
-398.71744
-399.59005
-399.46558
-398.54741
-398.70581
-398.70831
-398.70838
-398.70933
-398.71121
-398.71404
-398.71782
-399.59053
-399.46615
-398.54817
-398.70661
-398.70918
-398.70933
-398.71034
-398.7123
-398.7152
-398.71905
-399.59172
-399.46753
-398.54984
-398.70833
-398.71098
-398.71121
-398.7123
-398.71433
-398.7173
-398.7212
-399.59376
-399.46968
-398.55242
-398.71098
-398.71373
-398.71404
-398.7152
-398.7173
-398.72034
-398.72431
-399.59667
-399.4725
-398.55586
-398.71457
-398.71744
-398.71782
-398.71905
-398.7212
-398.72431
-398.72839
-399.60051
-399.95479
-399.47569
-399.5871
-399.59005
-399.59053
-399.59172
-399.59376
-399.59667
-399.60051
-400.65731
-394.13976
-392.91223
-393.11139
-393.11589
-393.11579
-393.11638
-393.11776
-393.1199
-393.1227
-393.60849
-392.91223
-392.03613
-392.19864
-392.20116
-392.20107
-392.20184
-392.20352
-392.20608
-392.20951
-393.1337
-393.11139
-392.19864
-392.35707
-392.35948
-392.35944
-392.36025
-392.36198
-392.36462
-392.36819
-393.24482
-393.11589
-392.20116
-392.35948
-392.36196
-392.36199
-392.36287
-392.36467
-392.36741
-392.3711
-393.2478
-393.11579
-392.20107
-392.35944
-392.36199
-392.36208
-392.36304
-392.36492
-392.36774
-392.3715
-393.2483
-393.11638
-392.20184
-392.36025
-392.36287
-392.36304
-392.36407
-392.36602
-392.36891
-392.37273
-393.2495
-393.11776
-392.20352
-392.36198
-392.36467
-392.36492
-392.36602
-392.36805
-392.37101
-392.37489
-393.25153
-393.1199
-392.20608
-392.36462
-392.36741
-392.36774
-392.36891
-392.37101
-392.37403
-392.37799
-393.25442
-393.1227
-392.20951
-392.36819
-392.3711
-392.3715
-392.37273
-392.37489
-392.37799
-392.38204
-393.25823
-393.60849
-393.1337
-393.24482
-393.2478
-393.2483
-393.2495
-393.25153
-393.25442
-393.25823
-394.32078
-387.99203
-386.77618
-386.97411
-386.97864
-386.97856
-386.97915
-386.98053
-386.98265
-386.98542
-387.47163
-386.77618
-385.90898
-386.07047
-386.07302
-386.07296
-386.07374
-386.07542
-386.07796
-386.08135
-387.00407
-386.97411
-386.07047
-386.22789
-386.23034
-386.23032
-386.23114
-386.23286
-386.23547
-386.239
-387.11422
-386.97864
-386.07302
-386.23034
-386.23284
-386.23289
-386.23378
-386.23558
-386.23829
-386.24193
-387.1172
-386.97856
-386.07296
-386.23032
-386.23289
-386.23301
-386.23397
-386.23585
-386.23864
-386.24235
-387.11771
-386.97915
-386.07374
-386.23114
-386.23378
-386.23397
-386.23501
-386.23695
-386.23981
-386.24358
-387.11891
-386.98053
-386.07542
-386.23286
-386.23558
-386.23585
-386.23695
-386.23896
-386.24189
-386.24572
-387.12092
-386.98265
-386.07796
-386.23547
-386.23829
-386.23864
-386.23981
-386.24189
-386.24488
-386.24879
-387.12378
-386.98542
-386.08135
-386.239
-386.24193
-386.24235
-386.24358
-386.24572
-386.24879
-386.25279
-387.12754
-387.47163
-387.00407
-387.11422
-387.1172
-387.11771
-387.11891
-387.12092
-387.12378
-387.12754
-388.18914
-382.04284
-380.84615
-381.04162
-381.04613
-381.04608
-381.04668
-381.04805
-381.05013
-381.05285
-381.53644
-380.84615
-379.99317
-380.15264
-380.1552
-380.15517
-380.15595
-380.15761
-380.16011
-380.16344
-381.07896
-381.04162
-380.15264
-380.30807
-380.31052
-380.31054
-380.31136
-380.31306
-380.31563
-380.3191
-381.18744
-381.04613
-380.1552
-380.31052
-380.31304
-380.31311
-380.314
-380.31578
-380.31844
-380.32202
-381.19042
-381.04608
-380.15517
-380.31054
-380.31311
-380.31325
-380.31422
-380.31607
-380.31881
-380.32246
-381.19094
-381.04668
-380.15595
-380.31136
-380.314
-380.31422
-380.31525
-380.31717
-380.31998
-380.32368
-381.19213
-381.04805
-380.15761
-380.31306
-380.31578
-380.31607
-380.31717
-380.31915
-380.32203
-380.32579
-381.1941
-381.05013
-380.16011
-380.31563
-380.31844
-380.31881
-380.31998
-380.32203
-380.32497
-380.32881
-381.19691
-381.05285
-380.16344
-380.3191
-380.32202
-380.32246
-380.32368
-380.32579
-380.32881
-380.33274
-381.20059
-381.53644
-381.07896
-381.18744
-381.19042
-381.19094
-381.19213
-381.1941
-381.19691
-381.20059
-382.25463
-376.28462
-375.11437
-375.30617
-375.31065
-375.31063
-375.31123
-375.31257
-375.31461
-375.31726
-375.79525
-375.11437
-374.28079
-374.43725
-374.43981
-374.4398
-374.44058
-374.44221
-374.44467
-374.44792
-375.35059
-375.30617
-374.43725
-374.58973
-374.59218
-374.59222
-374.59304
-374.59471
-374.59722
-374.60061
-375.45674
-375.31065
-374.43981
-374.59218
-374.59469
-374.59478
-374.59567
-374.59742
-374.60002
-374.60351
-375.45969
-375.31063
-374.4398
-374.59222
-374.59478
-374.59495
-374.5959
-374.59772
-374.6004
-374.60396
-375.46021
-375.31123
-374.44058
-374.59304
-374.59567
-374.5959
-374.59693
-374.59881
-374.60156
-374.60517
-375.46139
-375.31257
-374.44221
-374.59471
-374.59742
-374.59772
-374.59881
-374.60076
-374.60357
-374.60724
-375.46332
-375.31461
-374.44467
-374.59722
-374.60002
-374.6004
-374.60156
-374.60357
-374.60645
-374.61019
-375.46606
-375.31726
-374.44792
-374.60061
-374.60351
-374.60396
-374.60517
-374.60724
-374.61019
-374.61402
-375.46964
-375.79525
-375.35059
-375.45674
-375.45969
-375.46021
-375.46139
-375.46332
-375.46606
-375.46964
-376.50961
-370.70992
-369.57317
-369.76013
-369.76454
-369.76454
-369.76514
-369.76645
-369.76843
-369.771
-370.24045
-369.57317
-368.76397
-368.91646
-368.919
-368.91902
-368.9198
-368.92139
-368.92378
-368.92693
-369.81127
-369.76013
-368.91646
-369.06507
-369.0675
-369.06755
-369.06837
-369.07
-369.07244
-369.07573
-369.91444
-369.76454
-368.919
-369.0675
-369.06998
-369.0701
-369.07097
-369.07268
-369.07521
-369.07859
-369.91734
-369.76454
-368.91902
-369.06755
-369.0701
-369.07028
-369.07122
-369.07299
-369.0756
-369.07905
-369.91787
-369.76514
-368.9198
-369.06837
-369.07097
-369.07122
-369.07223
-369.07407
-369.07673
-369.08024
-369.91902
-369.76645
-368.92139
-369.07
-369.07268
-369.07299
-369.07407
-369.07597
-369.0787
-369.08225
-369.9209
-369.76843
-368.92378
-369.07244
-369.07521
-369.0756
-369.07673
-369.0787
-369.08149
-369.08511
-369.92355
-369.771
-368.92693
-369.07573
-369.07859
-369.07905
-369.08024
-369.08225
-369.08511
-369.08883
-369.92702
-370.24045
-369.81127
-369.91444
-369.91734
-369.91787
-369.91902
-369.9209
-369.92355
-369.92702
-370.94658
-365.31143
-364.21492
-364.3959
-364.40022
-364.40024
-364.40084
-364.40211
-364.40402
-364.40649
-364.86458
-364.21492
-363.43489
-363.58249
-363.58499
-363.58504
-363.5858
-363.58735
-363.58965
-363.59269
-364.45339
-364.3959
-363.58249
-363.72632
-363.72871
-363.72879
-363.72959
-363.73117
-363.73353
-363.7367
-364.55296
-364.40022
-363.58499
-363.72871
-363.73115
-363.73129
-363.73215
-363.7338
-363.73625
-363.7395
-364.55578
-364.40024
-363.58504
-363.72879
-363.73129
-363.73149
-363.73241
-363.73413
-363.73664
-363.73996
-364.55632
-364.40084
-363.5858
-363.72959
-363.73215
-363.73241
-363.7334
-363.73518
-363.73775
-363.74113
-364.55743
-364.40211
-363.58735
-363.73117
-363.7338
-363.73413
-363.73518
-363.73702
-363.73965
-363.74308
-364.55925
-364.40402
-363.58965
-363.73353
-363.73625
-363.73664
-363.73775
-363.73965
-363.74235
-363.74583
-364.5618
-364.40649
-363.59269
-363.7367
-363.7395
-363.73996
-363.74113
-363.74308
-363.74583
-363.74941
-364.56513
-364.86458
-364.45339
-364.55296
-364.55578
-364.55632
-364.55743
-364.55925
-364.5618
-364.56513
-365.55814
-360.08189
-359.03208
-359.206
-359.2102
-359.21024
-359.21082
-359.21205
-359.21388
-359.21624
-359.66023
-359.03208
-358.28578
-358.4276
-358.43005
-358.43011
-358.43087
-358.43236
-358.43457
-358.43747
-359.26942
-359.206
-358.4276
-358.56579
-358.56812
-358.56823
-358.56901
-358.57053
-358.57279
-358.57582
-359.36478
-359.2102
-358.43005
-358.56812
-358.57051
-358.57066
-358.5715
-358.57309
-358.57544
-358.57855
-359.36752
-359.21024
-358.43011
-358.56823
-358.57066
-358.57088
-358.57178
-358.57343
-358.57584
-358.57901
-359.36805
-359.21082
-358.43087
-358.56901
-358.5715
-358.57178
-358.57274
-358.57445
-358.57691
-358.58014
-359.36912
-359.21205
-358.43236
-358.57053
-358.57309
-358.57343
-358.57445
-358.57622
-358.57874
-358.58201
-359.37087
-359.21388
-358.43457
-358.57279
-358.57544
-358.57584
-358.57691
-358.57874
-358.58132
-358.58465
-359.37331
-359.21624
-358.43747
-358.57582
-358.57855
-358.57901
-358.58014
-358.58201
-358.58465
-358.58807
-359.37648
-359.66023
-359.26942
-359.36478
-359.36752
-359.36805
-359.36912
-359.37087
-359.37331
-359.37648
-360.33701
-355.0142
-354.01718
-354.18301
-354.18705
-354.18711
-354.18768
-354.18885
-354.1906
-354.19284
-354.6201
-354.01718
-353.3089
-353.44411
-353.44648
-353.44657
-353.4473
-353.44873
-353.45083
-353.45359
-354.2519
-354.18301
-353.44411
-353.57583
-353.5781
-353.57822
-353.57898
-353.58043
-353.58259
-353.58545
-354.3425
-354.18705
-353.44648
-353.5781
-353.58041
-353.58058
-353.58139
-353.58291
-353.58514
-353.58809
-354.34513
-354.18711
-353.44657
-353.57822
-353.58058
-353.5808
-353.58168
-353.58325
-353.58554
-353.58855
-354.34564
-354.18768
-353.4473
-353.57898
-353.58139
-353.58168
-353.5826
-353.58423
-353.58658
-353.58963
-354.34668
-354.18885
-353.44873
-353.58043
-353.58291
-353.58325
-353.58423
-353.58592
-353.58832
-353.59142
-354.34834
-354.1906
-353.45083
-353.58259
-353.58514
-353.58554
-353.58658
-353.58832
-353.59077
-353.59393
-354.35065
-354.19284
-353.45359
-353.58545
-353.58809