/*--------------------------------*- C++ -*----------------------------------*\
| =========                 |                                                 |
| \\      /  F ield         | OpenFOAM: The Open Source CFD Toolbox           |
|  \\    /   O peration     | Version:  v2106                                 |
|   \\  /    A nd           | Website:  www.openfoam.com                      |
|    \\/     M anipulation  |                                                 |
\*---------------------------------------------------------------------------*/
FoamFile
{
    version     2.0;
    format      ascii;
    arch        "LSB;label=32;scalar=64";
    class       volScalarField;
    location    "82.5";
    object      T;
}
// * * * * * * * * * * * * * * * * * * * * * * * * * * * * * * * * * * * * * //

dimensions      [0 0 0 1 0 0 0];

internalField   nonuniform List<scalar> 
4000
(
275.15479
275.15479
275.15479
275.15479
275.15479
275.15479
275.15479
275.15479
275.15479
275.15479
275.15479
275.15479
275.15478
275.15478
275.15478
275.15478
275.15478
275.15478
275.15479
275.15479
275.15479
275.15478
275.15478
275.15478
275.15478
275.15478
275.15478
275.15478
275.15478
275.15479
275.15479
275.15478
275.15478
275.15478
275.15478
275.15478
275.15478
275.15478
275.15478
275.15478
275.15479
275.15478
275.15478
275.15478
275.15478
275.15478
275.15478
275.15478
275.15478
275.15478
275.15479
275.15478
275.15478
275.15478
275.15478
275.15478
275.15478
275.15478
275.15478
275.15478
275.15479
275.15478
275.15478
275.15478
275.15478
275.15478
275.15478
275.15478
275.15478
275.15479
275.15479
275.15478
275.15478
275.15478
275.15478
275.15478
275.15478
275.15478
275.15479
275.15479
275.15479
275.15479
275.15478
275.15478
275.15478
275.15478
275.15478
275.15479
275.15479
275.15479
275.15479
275.15479
275.15479
275.15478
275.15478
275.15478
275.15479
275.15479
275.15479
275.15479
283.57614
283.57612
283.57612
283.57612
283.57611
283.57611
283.57612
283.57612
283.57612
283.57612
283.57612
283.57611
283.57611
283.57611
283.5761
283.5761
283.57611
283.57611
283.57611
283.57612
283.57612
283.57611
283.5761
283.5761
283.5761
283.5761
283.5761
283.5761
283.57611
283.57611
283.57612
283.57611
283.5761
283.5761
283.5761
283.5761
283.5761
283.5761
283.57611
283.57611
283.57611
283.5761
283.5761
283.5761
283.57609
283.57609
283.5761
283.5761
283.5761
283.57611
283.57611
283.5761
283.5761
283.5761
283.57609
283.5761
283.5761
283.5761
283.57611
283.57611
283.57612
283.57611
283.5761
283.5761
283.5761
283.5761
283.5761
283.5761
283.57611
283.57611
283.57612
283.57611
283.5761
283.5761
283.5761
283.5761
283.5761
283.57611
283.57611
283.57612
283.57612
283.57611
283.57611
283.57611
283.5761
283.57611
283.57611
283.57611
283.57612
283.57612
283.57612
283.57612
283.57611
283.57611
283.57611
283.57611
283.57611
283.57612
283.57612
283.57613
291.94268
291.94266
291.94265
291.94265
291.94264
291.94264
291.94265
291.94265
291.94266
291.94266
291.94266
291.94264
291.94263
291.94263
291.94263
291.94263
291.94263
291.94264
291.94264
291.94265
291.94265
291.94263
291.94263
291.94262
291.94262
291.94262
291.94262
291.94263
291.94264
291.94265
291.94265
291.94263
291.94262
291.94262
291.94261
291.94261
291.94262
291.94262
291.94263
291.94264
291.94264
291.94263
291.94262
291.94261
291.94261
291.94261
291.94262
291.94262
291.94263
291.94264
291.94264
291.94263
291.94262
291.94261
291.94261
291.94261
291.94262
291.94262
291.94263
291.94264
291.94265
291.94263
291.94262
291.94262
291.94262
291.94262
291.94262
291.94263
291.94264
291.94265
291.94265
291.94264
291.94263
291.94262
291.94262
291.94262
291.94263
291.94263
291.94264
291.94265
291.94266
291.94264
291.94264
291.94263
291.94263
291.94263
291.94264
291.94264
291.94265
291.94266
291.94266
291.94265
291.94265
291.94264
291.94264
291.94264
291.94265
291.94265
291.94266
291.94268
300.25556
300.25553
300.25552
300.25551
300.25551
300.25551
300.25551
300.25552
300.25553
300.25554
300.25553
300.25551
300.2555
300.25549
300.25548
300.25549
300.25549
300.2555
300.25551
300.25552
300.25552
300.2555
300.25548
300.25548
300.25547
300.25547
300.25548
300.25549
300.2555
300.25552
300.25551
300.25549
300.25548
300.25547
300.25547
300.25547
300.25547
300.25548
300.25549
300.25551
300.25551
300.25548
300.25547
300.25547
300.25546
300.25547
300.25547
300.25548
300.25549
300.25551
300.25551
300.25549
300.25547
300.25547
300.25547
300.25547
300.25547
300.25548
300.2555
300.25551
300.25551
300.25549
300.25548
300.25547
300.25547
300.25547
300.25548
300.25549
300.2555
300.25552
300.25552
300.2555
300.25549
300.25548
300.25548
300.25548
300.25549
300.2555
300.25551
300.25553
300.25553
300.25551
300.2555
300.25549
300.25549
300.2555
300.2555
300.25551
300.25553
300.25554
300.25554
300.25552
300.25552
300.25551
300.25551
300.25551
300.25552
300.25553
300.25554
300.25556
308.51586
308.51583
308.51582
308.51581
308.5158
308.5158
308.51581
308.51582
308.51583
308.51585
308.51583
308.5158
308.51579
308.51578
308.51577
308.51578
308.51578
308.51579
308.51581
308.51583
308.51582
308.51579
308.51577
308.51576
308.51576
308.51576
308.51577
308.51578
308.5158
308.51582
308.51581
308.51578
308.51576
308.51576
308.51575
308.51575
308.51576
308.51577
308.51579
308.51581
308.5158
308.51577
308.51576
308.51575
308.51575
308.51575
308.51576
308.51577
308.51579
308.51581
308.5158
308.51578
308.51576
308.51575
308.51575
308.51575
308.51576
308.51577
308.51579
308.51582
308.51581
308.51578
308.51577
308.51576
308.51576
308.51576
308.51577
308.51578
308.5158
308.51582
308.51582
308.51579
308.51578
308.51577
308.51577
308.51577
308.51578
308.5158
308.51582
308.51584
308.51583
308.51581
308.5158
308.51579
308.51579
308.51579
308.5158
308.51582
308.51583
308.51586
308.51585
308.51583
308.51582
308.51581
308.51581
308.51582
308.51582
308.51584
308.51586
308.51588
316.72466
316.72462
316.7246
316.72459
316.72459
316.72459
316.7246
316.72461
316.72463
316.72465
316.72462
316.72459
316.72457
316.72456
316.72456
316.72456
316.72456
316.72458
316.7246
316.72462
316.7246
316.72457
316.72455
316.72454
316.72454
316.72454
316.72455
316.72456
316.72458
316.72461
316.72459
316.72456
316.72454
316.72453
316.72453
316.72453
316.72454
316.72456
316.72458
316.7246
316.72459
316.72456
316.72454
316.72453
316.72453
316.72453
316.72454
316.72455
316.72458
316.7246
316.72459
316.72456
316.72454
316.72453
316.72453
316.72453
316.72454
316.72456
316.72458
316.72461
316.7246
316.72456
316.72455
316.72454
316.72454
316.72454
316.72455
316.72457
316.72459
316.72462
316.72461
316.72458
316.72456
316.72456
316.72455
316.72456
316.72457
316.72459
316.72461
316.72464
316.72463
316.7246
316.72458
316.72458
316.72458
316.72458
316.72459
316.72461
316.72463
316.72466
316.72465
316.72462
316.72461
316.7246
316.7246
316.72461
316.72462
316.72464
316.72466
316.72469
324.88297
324.88293
324.88291
324.88289
324.88289
324.88289
324.8829
324.88291
324.88293
324.88296
324.88293
324.88289
324.88287
324.88286
324.88285
324.88285
324.88286
324.88288
324.8829
324.88293
324.88291
324.88287
324.88285
324.88284
324.88283
324.88284
324.88285
324.88286
324.88289
324.88292
324.88289
324.88286
324.88284
324.88283
324.88282
324.88283
324.88284
324.88285
324.88288
324.88291
324.88289
324.88285
324.88283
324.88282
324.88282
324.88282
324.88283
324.88285
324.88288
324.88291
324.88289
324.88285
324.88284
324.88283
324.88282
324.88283
324.88284
324.88286
324.88288
324.88292
324.8829
324.88286
324.88285
324.88284
324.88283
324.88284
324.88285
324.88287
324.8829
324.88293
324.88291
324.88288
324.88286
324.88285
324.88285
324.88286
324.88287
324.88289
324.88292
324.88295
324.88293
324.8829
324.88289
324.88288
324.88288
324.88288
324.8829
324.88292
324.88295
324.88298
324.88296
324.88293
324.88292
324.88291
324.88291
324.88292
324.88293
324.88295
324.88298
324.88302
332.99179
332.99174
332.99171
332.9917
332.99169
332.9917
332.99171
332.99172
332.99175
332.99178
332.99174
332.9917
332.99167
332.99166
332.99165
332.99166
332.99167
332.99169
332.99171
332.99175
332.99171
332.99167
332.99165
332.99164
332.99163
332.99164
332.99165
332.99167
332.9917
332.99173
332.9917
332.99166
332.99164
332.99163
332.99162
332.99163
332.99164
332.99166
332.99169
332.99173
332.99169
332.99165
332.99163
332.99162
332.99162
332.99162
332.99164
332.99166
332.99169
332.99173
332.9917
332.99166
332.99164
332.99163
332.99162
332.99163
332.99164
332.99166
332.9917
332.99173
332.99171
332.99167
332.99165
332.99164
332.99164
332.99164
332.99166
332.99168
332.99171
332.99175
332.99172
332.99169
332.99167
332.99166
332.99166
332.99166
332.99168
332.9917
332.99174
332.99178
332.99175
332.99171
332.9917
332.99169
332.99169
332.9917
332.99171
332.99174
332.99177
332.99181
332.99178
332.99175
332.99173
332.99173
332.99173
332.99173
332.99175
332.99178
332.99181
332.99185
341.05206
341.05201
341.05198
341.05197
341.05196
341.05197
341.05198
341.052
341.05203
341.05206
341.05201
341.05197
341.05194
341.05193
341.05192
341.05192
341.05194
341.05196
341.05199
341.05203
341.05198
341.05194
341.05192
341.0519
341.0519
341.0519
341.05192
341.05194
341.05197
341.05201
341.05197
341.05193
341.0519
341.05189
341.05188
341.05189
341.0519
341.05193
341.05196
341.052
341.05196
341.05192
341.0519
341.05188
341.05188
341.05189
341.0519
341.05193
341.05196
341.05201
341.05197
341.05192
341.0519
341.05189
341.05189
341.05189
341.05191
341.05194
341.05197
341.05201
341.05198
341.05194
341.05192
341.0519
341.0519
341.05191
341.05193
341.05195
341.05199
341.05203
341.052
341.05196
341.05194
341.05193
341.05193
341.05194
341.05195
341.05198
341.05202
341.05206
341.05203
341.05199
341.05197
341.05196
341.05196
341.05197
341.05199
341.05202
341.05205
341.0521
341.05206
341.05203
341.05201
341.052
341.05201
341.05201
341.05203
341.05206
341.0521
341.05215
349.06473
349.06467
349.06465
349.06463
349.06462
349.06463
349.06464
349.06466
349.06469
349.06473
349.06467
349.06462
349.0646
349.06458
349.06458
349.06458
349.0646
349.06462
349.06465
349.0647
349.06465
349.0646
349.06457
349.06456
349.06455
349.06456
349.06457
349.0646
349.06463
349.06468
349.06463
349.06458
349.06456
349.06454
349.06454
349.06454
349.06456
349.06459
349.06462
349.06467
349.06462
349.06458
349.06455
349.06454
349.06454
349.06454
349.06456
349.06459
349.06462
349.06467
349.06463
349.06458
349.06456
349.06454
349.06454
349.06455
349.06457
349.0646
349.06463
349.06468
349.06464
349.0646
349.06457
349.06456
349.06456
349.06457
349.06459
349.06462
349.06466
349.0647
349.06466
349.06462
349.0646
349.06459
349.06459
349.0646
349.06462
349.06465
349.06469
349.06474
349.06469
349.06465
349.06463
349.06462
349.06462
349.06463
349.06466
349.06469
349.06473
349.06478
349.06473
349.0647
349.06468
349.06467
349.06467
349.06468
349.0647
349.06474
349.06478
349.06483
357.03068
357.03062
357.03059
357.03057
357.03057
357.03057
357.03059
357.03061
357.03065
357.03069
357.03062
357.03057
357.03054
357.03052
357.03052
357.03052
357.03054
357.03057
357.0306
357.03065
357.03059
357.03054
357.03051
357.0305
357.03049
357.0305
357.03052
357.03054
357.03058
357.03063
357.03057
357.03052
357.0305
357.03048
357.03048
357.03049
357.0305
357.03053
357.03057
357.03063
357.03057
357.03052
357.03049
357.03048
357.03048
357.03048
357.0305
357.03053
357.03057
357.03063
357.03057
357.03052
357.0305
357.03049
357.03048
357.03049
357.03051
357.03054
357.03058
357.03064
357.03059
357.03054
357.03052
357.0305
357.0305
357.03051
357.03053
357.03056
357.03061
357.03066
357.03061
357.03057
357.03054
357.03053
357.03053
357.03054
357.03056
357.0306
357.03064
357.03069
357.03065
357.0306
357.03058
357.03057
357.03057
357.03058
357.03061
357.03064
357.03068
357.03074
357.03069
357.03065
357.03063
357.03063
357.03063
357.03064
357.03066
357.03069
357.03074
357.0308
364.95078
364.95072
364.95069
364.95067
364.95066
364.95067
364.95069
364.95071
364.95075
364.95079
364.95072
364.95066
364.95063
364.95062
364.95061
364.95062
364.95063
364.95066
364.9507
364.95076
364.95069
364.95063
364.9506
364.95059
364.95058
364.95059
364.95061
364.95064
364.95068
364.95074
364.95067
364.95062
364.95059
364.95057
364.95057
364.95058
364.9506
364.95063
364.95067
364.95073
364.95066
364.95061
364.95058
364.95057
364.95057
364.95058
364.9506
364.95063
364.95067
364.95073
364.95067
364.95062
364.95059
364.95058
364.95058
364.95058
364.95061
364.95064
364.95069
364.95074
364.95069
364.95063
364.95061
364.9506
364.9506
364.95061
364.95063
364.95066
364.95071
364.95077
364.95071
364.95066
364.95064
364.95063
364.95063
364.95064
364.95066
364.9507
364.95075
364.9508
364.95075
364.9507
364.95068
364.95067
364.95067
364.95069
364.95071
364.95075
364.95079
364.95085
364.95079
364.95076
364.95074
364.95073
364.95073
364.95074
364.95077
364.9508
364.95085
364.95092
372.82587
372.8258
372.82577
372.82575
372.82574
372.82575
372.82577
372.8258
372.82584
372.82588
372.8258
372.82574
372.82571
372.82569
372.82569
372.8257
372.82572
372.82575
372.82579
372.82584
372.82577
372.82571
372.82568
372.82567
372.82566
372.82567
372.82569
372.82572
372.82577
372.82583
372.82575
372.82569
372.82567
372.82565
372.82565
372.82566
372.82568
372.82571
372.82576
372.82582
372.82574
372.82569
372.82566
372.82565
372.82564
372.82565
372.82568
372.82571
372.82576
372.82582
372.82575
372.8257
372.82567
372.82566
372.82565
372.82566
372.82569
372.82572
372.82577
372.82583
372.82577
372.82572
372.82569
372.82568
372.82568
372.82569
372.82571
372.82575
372.8258
372.82586
372.8258
372.82575
372.82572
372.82571
372.82571
372.82572
372.82575
372.82579
372.82584
372.8259
372.82584
372.82579
372.82577
372.82576
372.82576
372.82577
372.8258
372.82584
372.82589
372.82595
372.82588
372.82584
372.82583
372.82582
372.82582
372.82583
372.82586
372.8259
372.82595
372.82602
380.65675
380.65668
380.65664
380.65663
380.65662
380.65663
380.65665
380.65668
380.65672
380.65677
380.65668
380.65662
380.65659
380.65657
380.65656
380.65657
380.65659
380.65662
380.65667
380.65673
380.65664
380.65659
380.65656
380.65654
380.65654
380.65654
380.65657
380.6566
380.65665
380.65671
380.65663
380.65657
380.65654
380.65652
380.65652
380.65653
380.65655
380.65659
380.65664
380.6567
380.65662
380.65656
380.65654
380.65652
380.65652
380.65653
380.65655
380.65659
380.65664
380.6567
380.65663
380.65657
380.65654
380.65653
380.65653
380.65654
380.65656
380.6566
380.65665
380.65672
380.65665
380.65659
380.65657
380.65655
380.65655
380.65656
380.65659
380.65663
380.65668
380.65674
380.65668
380.65662
380.6566
380.65659
380.65659
380.6566
380.65663
380.65667
380.65672
380.65679
380.65672
380.65667
380.65665
380.65664
380.65664
380.65665
380.65668
380.65672
380.65677
380.65684
380.65677
380.65673
380.65671
380.6567
380.6567
380.65672
380.65674
380.65679
380.65684
380.65691
388.4442
388.44413
388.4441
388.44408
388.44407
388.44408
388.4441
388.44413
388.44418
388.44422
388.44413
388.44407
388.44404
388.44402
388.44401
388.44402
388.44404
388.44408
388.44412
388.44419
388.4441
388.44404
388.44401
388.44399
388.44398
388.44399
388.44402
388.44405
388.4441
388.44417
388.44408
388.44402
388.44399
388.44397
388.44397
388.44398
388.444
388.44404
388.44409
388.44416
388.44407
388.44401
388.44398
388.44397
388.44397
388.44398
388.444
388.44404
388.44409
388.44416
388.44408
388.44402
388.44399
388.44398
388.44398
388.44399
388.44402
388.44406
388.44411
388.44418
388.4441
388.44404
388.44402
388.444
388.444
388.44402
388.44404
388.44408
388.44414
388.4442
388.44413
388.44408
388.44405
388.44404
388.44404
388.44406
388.44408
388.44413
388.44418
388.44425
388.44418
388.44412
388.4441
388.44409
388.44409
388.44411
388.44414
388.44418
388.44424
388.44431
388.44422
388.44419
388.44417
388.44416
388.44416
388.44418
388.4442
388.44425
388.44431
388.44438
396.18899
396.18891
396.18888
396.18886
396.18885
396.18886
396.18888
396.18892
396.18896
396.18901
396.18891
396.18885
396.18882
396.1888
396.18879
396.1888
396.18883
396.18886
396.18891
396.18897
396.18888
396.18882
396.18879
396.18877
396.18876
396.18877
396.1888
396.18884
396.18889
396.18895
396.18886
396.1888
396.18877
396.18875
396.18875
396.18876
396.18878
396.18882
396.18888
396.18894
396.18885
396.18879
396.18876
396.18875
396.18875
396.18876
396.18879
396.18883
396.18888
396.18895
396.18886
396.1888
396.18877
396.18876
396.18876
396.18877
396.1888
396.18884
396.1889
396.18896
396.18888
396.18883
396.1888
396.18878
396.18879
396.1888
396.18883
396.18887
396.18893
396.18899
396.18892
396.18886
396.18884
396.18882
396.18883
396.18884
396.18887
396.18891
396.18897
396.18904
396.18896
396.18891
396.18889
396.18888
396.18888
396.1889
396.18893
396.18897
396.18903
396.1891
396.18901
396.18897
396.18895
396.18894
396.18895
396.18896
396.18899
396.18904
396.1891
396.18918
403.89183
403.89175
403.89172
403.8917
403.89169
403.8917
403.89173
403.89176
403.89181
403.89186
403.89175
403.89169
403.89166
403.89164
403.89163
403.89164
403.89167
403.8917
403.89175
403.89182
403.89172
403.89166
403.89162
403.89161
403.8916
403.89161
403.89164
403.89168
403.89173
403.8918
403.8917
403.89164
403.89161
403.89159
403.89159
403.8916
403.89163
403.89167
403.89172
403.89179
403.89169
403.89163
403.8916
403.89159
403.89159
403.8916
403.89163
403.89167
403.89172
403.89179
403.8917
403.89164
403.89161
403.8916
403.8916
403.89161
403.89164
403.89168
403.89174
403.89181
403.89173
403.89167
403.89164
403.89163
403.89163
403.89164
403.89167
403.89171
403.89177
403.89184
403.89176
403.8917
403.89168
403.89167
403.89167
403.89168
403.89171
403.89176
403.89182
403.89189
403.89181
403.89175
403.89173
403.89172
403.89172
403.89174
403.89177
403.89182
403.89188
403.89195
403.89186
403.89182
403.8918
403.89179
403.89179
403.89181
403.89184
403.89189
403.89195
403.89203
411.55343
411.55336
411.55332
411.5533
411.5533
411.55331
411.55333
411.55336
411.55341
411.55346
411.55336
411.55329
411.55326
411.55324
411.55324
411.55325
411.55327
411.55331
411.55336
411.55342
411.55332
411.55326
411.55323
411.55321
411.55321
411.55322
411.55324
411.55328
411.55334
411.5534
411.5533
411.55324
411.55321
411.55319
411.55319
411.5532
411.55323
411.55327
411.55333
411.5534
411.5533
411.55324
411.55321
411.55319
411.55319
411.5532
411.55323
411.55327
411.55333
411.5534
411.55331
411.55325
411.55322
411.5532
411.5532
411.55322
411.55325
411.55329
411.55335
411.55342
411.55333
411.55327
411.55324
411.55323
411.55323
411.55325
411.55328
411.55332
411.55338
411.55345
411.55336
411.55331
411.55328
411.55327
411.55327
411.55329
411.55332
411.55337
411.55342
411.5535
411.55341
411.55336
411.55334
411.55333
411.55333
411.55335
411.55338
411.55342
411.55349
411.55356
411.55346
411.55342
411.5534
411.5534
411.5534
411.55342
411.55345
411.5535
411.55356
411.55364
419.17448
419.1744
419.17437
419.17435
419.17434
419.17435
419.17438
419.17441
419.17446
419.17451
419.1744
419.17434
419.1743
419.17429
419.17428
419.17429
419.17432
419.17435
419.17441
419.17447
419.17437
419.1743
419.17427
419.17425
419.17425
419.17426
419.17429
419.17433
419.17438
419.17445
419.17435
419.17429
419.17425
419.17424
419.17424
419.17425
419.17428
419.17432
419.17437
419.17445
419.17434
419.17428
419.17425
419.17424
419.17424
419.17425
419.17428
419.17432
419.17438
419.17445
419.17435
419.17429
419.17426
419.17425
419.17425
419.17427
419.17429
419.17434
419.1744
419.17447
419.17438
419.17432
419.17429
419.17428
419.17428
419.17429
419.17432
419.17437
419.17443
419.1745
419.17441
419.17435
419.17433
419.17432
419.17432
419.17434
419.17437
419.17442
419.17448
419.17455
419.17446
419.17441
419.17438
419.17437
419.17438
419.1744
419.17443
419.17448
419.17454
419.17461
419.17451
419.17447
419.17445
419.17445
419.17445
419.17447
419.1745
419.17455
419.17461
419.17469
426.75562
426.75555
426.75551
426.75549
426.75549
426.7555
426.75552
426.75556
426.75561
426.75566
426.75555
426.75548
426.75545
426.75543
426.75543
426.75544
426.75546
426.7555
426.75555
426.75562
426.75551
426.75545
426.75542
426.7554
426.7554
426.75541
426.75544
426.75548
426.75553
426.7556
426.75549
426.75543
426.7554
426.75538
426.75538
426.7554
426.75542
426.75547
426.75552
426.75559
426.75549
426.75543
426.7554
426.75538
426.75538
426.7554
426.75543
426.75547
426.75553
426.7556
426.7555
426.75544
426.75541
426.7554
426.7554
426.75541
426.75544
426.75549
426.75554
426.75562
426.75552
426.75546
426.75544
426.75542
426.75543
426.75544
426.75547
426.75552
426.75558
426.75565
426.75556
426.7555
426.75548
426.75547
426.75547
426.75549
426.75552
426.75556
426.75562
426.7557
426.75561
426.75555
426.75553
426.75552
426.75553
426.75554
426.75558
426.75562
426.75569
426.75576
426.75566
426.75562
426.7556
426.75559
426.7556
426.75562
426.75565
426.7557
426.75576
426.75585
434.2975
434.29742
434.29739
434.29737
434.29737
434.29738
434.2974
434.29744
434.29749
434.29754
434.29742
434.29736
434.29733
434.29731
434.29731
434.29732
434.29734
434.29738
434.29744
434.2975
434.29739
434.29733
434.2973
434.29728
434.29728
434.29729
434.29732
434.29736
434.29741
434.29748
434.29737
434.29731
434.29728
434.29727
434.29727
434.29728
434.29731
434.29735
434.2974
434.29748
434.29737
434.29731
434.29728
434.29727
434.29727
434.29728
434.29731
434.29735
434.29741
434.29748
434.29738
434.29732
434.29729
434.29728
434.29728
434.2973
434.29733
434.29737
434.29743
434.2975
434.2974
434.29734
434.29732
434.29731
434.29731
434.29733
434.29736
434.2974
434.29746
434.29753
434.29744
434.29738
434.29736
434.29735
434.29735
434.29737
434.2974
434.29745
434.29751
434.29758
434.29749
434.29744
434.29741
434.2974
434.29741
434.29743
434.29746
434.29751
434.29757
434.29765
434.29754
434.2975
434.29748
434.29748
434.29748
434.2975
434.29753
434.29758
434.29765
434.29773
441.80072
441.80065
441.80062
441.8006
441.8006
441.80061
441.80063
441.80067
441.80071
441.80077
441.80065
441.80059
441.80056
441.80054
441.80054
441.80055
441.80057
441.80061
441.80066
441.80073
441.80062
441.80056
441.80053
441.80051
441.80051
441.80052
441.80055
441.80059
441.80064
441.80071
441.8006
441.80054
441.80051
441.8005
441.80049
441.80051
441.80054
441.80058
441.80063
441.8007
441.8006
441.80054
441.80051
441.80049
441.8005
441.80051
441.80054
441.80058
441.80064
441.80071
441.80061
441.80055
441.80052
441.80051
441.80051
441.80053
441.80056
441.8006
441.80066
441.80073
441.80063
441.80057
441.80055
441.80054
441.80054
441.80056
441.80059
441.80063
441.80069
441.80076
441.80067
441.80061
441.80059
441.80058
441.80058
441.8006
441.80063
441.80068
441.80074
441.80081
441.80071
441.80066
441.80064
441.80063
441.80064
441.80066
441.80069
441.80074
441.8008
441.80088
441.80077
441.80073
441.80071
441.8007
441.80071
441.80073
441.80076
441.80081
441.80088
441.80096
449.26589
449.26582
449.26578
449.26577
449.26576
449.26577
449.2658
449.26583
449.26588
449.26593
449.26582
449.26575
449.26572
449.26571
449.26571
449.26572
449.26574
449.26578
449.26583
449.2659
449.26578
449.26572
449.26569
449.26568
449.26568
449.26569
449.26572
449.26576
449.26581
449.26588
449.26577
449.26571
449.26568
449.26567
449.26567
449.26568
449.26571
449.26575
449.2658
449.26587
449.26576
449.26571
449.26568
449.26567
449.26567
449.26568
449.26571
449.26575
449.26581
449.26588
449.26577
449.26572
449.26569
449.26568
449.26568
449.2657
449.26573
449.26577
449.26583
449.2659
449.2658
449.26574
449.26572
449.26571
449.26571
449.26573
449.26576
449.2658
449.26586
449.26593
449.26583
449.26578
449.26576
449.26575
449.26575
449.26577
449.2658
449.26585
449.26591
449.26598
449.26588
449.26583
449.26581
449.2658
449.26581
449.26583
449.26586
449.26591
449.26597
449.26604
449.26593
449.2659
449.26588
449.26587
449.26588
449.2659
449.26593
449.26598
449.26604
449.26612
456.69356
456.69349
456.69346
456.69344
456.69344
456.69345
456.69348
456.69351
456.69356
456.69361
456.69349
456.69343
456.6934
456.69339
456.69339
456.6934
456.69342
456.69346
456.69351
456.69358
456.69346
456.6934
456.69338
456.69336
456.69336
456.69337
456.6934
456.69344
456.69349
456.69356
456.69344
456.69339
456.69336
456.69335
456.69335
456.69336
456.69339
456.69343
456.69348
456.69355
456.69344
456.69339
456.69336
456.69335
456.69335
456.69336
456.69339
456.69343
456.69349
456.69356
456.69345
456.6934
456.69337
456.69336
456.69336
456.69338
456.69341
456.69345
456.69351
456.69358
456.69348
456.69342
456.6934
456.69339
456.69339
456.69341
456.69344
456.69348
456.69354
456.69361
456.69351
456.69346
456.69344
456.69343
456.69343
456.69345
456.69348
456.69353
456.69359
456.69366
456.69356
456.69351
456.69349
456.69348
456.69349
456.69351
456.69354
456.69359
456.69365
456.69372
456.69361
456.69358
456.69356
456.69355
456.69356
456.69358
456.69361
456.69366
456.69372
456.6938
464.0843
464.08423
464.0842
464.08419
464.08419
464.0842
464.08422
464.08426
464.0843
464.08435
464.08423
464.08418
464.08415
464.08414
464.08413
464.08415
464.08417
464.08421
464.08426
464.08432
464.0842
464.08415
464.08412
464.08411
464.08411
464.08412
464.08415
464.08419
464.08424
464.0843
464.08419
464.08414
464.08411
464.0841
464.0841
464.08411
464.08414
464.08418
464.08423
464.0843
464.08419
464.08413
464.08411
464.0841
464.0841
464.08411
464.08414
464.08418
464.08424
464.0843
464.0842
464.08415
464.08412
464.08411
464.08411
464.08413
464.08416
464.0842
464.08425
464.08432
464.08422
464.08417
464.08415
464.08414
464.08414
464.08416
464.08419
464.08423
464.08429
464.08435
464.08426
464.08421
464.08419
464.08418
464.08418
464.0842
464.08423
464.08427
464.08433
464.0844
464.0843
464.08426
464.08424
464.08423
464.08424
464.08425
464.08429
464.08433
464.08439
464.08446
464.08435
464.08432
464.0843
464.0843
464.0843
464.08432
464.08435
464.0844
464.08446
464.08454
471.43864
471.43858
471.43855
471.43853
471.43853
471.43854
471.43857
471.4386
471.43864
471.43869
471.43858
471.43852
471.4385
471.43848
471.43848
471.43849
471.43852
471.43855
471.4386
471.43866
471.43855
471.4385
471.43847
471.43846
471.43846
471.43847
471.43849
471.43853
471.43858
471.43865
471.43853
471.43848
471.43846
471.43845
471.43845
471.43846
471.43849
471.43852
471.43858
471.43864
471.43853
471.43848
471.43846
471.43845
471.43845
471.43846
471.43849
471.43853
471.43858
471.43865
471.43854
471.43849
471.43847
471.43846
471.43846
471.43848
471.43851
471.43855
471.4386
471.43867
471.43857
471.43852
471.43849
471.43849
471.43849
471.43851
471.43854
471.43858
471.43863
471.4387
471.4386
471.43855
471.43853
471.43852
471.43853
471.43855
471.43858
471.43862
471.43867
471.43874
471.43864
471.4386
471.43858
471.43858
471.43858
471.4386
471.43863
471.43867
471.43873
471.4388
471.43869
471.43866
471.43865
471.43864
471.43865
471.43867
471.4387
471.43874
471.4388
471.43887
478.7571
478.75704
478.75701
478.757
478.75699
478.75701
478.75703
478.75706
478.7571
478.75715
478.75704
478.75698
478.75696
478.75695
478.75695
478.75696
478.75698
478.75702
478.75706
478.75712
478.75701
478.75696
478.75694
478.75692
478.75692
478.75694
478.75696
478.757
478.75704
478.75711
478.757
478.75695
478.75692
478.75691
478.75691
478.75693
478.75695
478.75699
478.75704
478.7571
478.75699
478.75695
478.75692
478.75691
478.75692
478.75693
478.75696
478.75699
478.75704
478.75711
478.75701
478.75696
478.75694
478.75693
478.75693
478.75695
478.75697
478.75701
478.75706
478.75713
478.75703
478.75698
478.75696
478.75695
478.75696
478.75697
478.757
478.75704
478.75709
478.75716
478.75706
478.75702
478.757
478.75699
478.75699
478.75701
478.75704
478.75708
478.75713
478.7572
478.7571
478.75706
478.75704
478.75704
478.75704
478.75706
478.75709
478.75713
478.75719
478.75726
478.75715
478.75712
478.75711
478.7571
478.75711
478.75713
478.75716
478.7572
478.75726
478.75733
486.04017
486.04011
486.04009
486.04008
486.04007
486.04009
486.04011
486.04014
486.04018
486.04022
486.04011
486.04006
486.04004
486.04003
486.04003
486.04004
486.04006
486.0401
486.04014
486.0402
486.04009
486.04004
486.04002
486.04001
486.04001
486.04002
486.04004
486.04008
486.04012
486.04018
486.04008
486.04003
486.04001
486.04
486.04
486.04001
486.04004
486.04007
486.04012
486.04018
486.04007
486.04003
486.04001
486.04
486.04
486.04002
486.04004
486.04008
486.04013
486.04018
486.04009
486.04004
486.04002
486.04001
486.04002
486.04003
486.04006
486.04009
486.04014
486.0402
486.04011
486.04006
486.04004
486.04004
486.04004
486.04006
486.04008
486.04012
486.04017
486.04023
486.04014
486.0401
486.04008
486.04007
486.04008
486.04009
486.04012
486.04016
486.04021
486.04027
486.04018
486.04014
486.04012
486.04012
486.04013
486.04014
486.04017
486.04021
486.04026
486.04033
486.04022
486.0402
486.04018
486.04018
486.04018
486.0402
486.04023
486.04027
486.04033
486.04039
493.28834
493.28829
493.28827
493.28826
493.28826
493.28827
493.28829
493.28832
493.28835
493.2884
493.28829
493.28825
493.28822
493.28821
493.28821
493.28822
493.28825
493.28828
493.28832
493.28837
493.28827
493.28822
493.2882
493.28819
493.28819
493.28821
493.28823
493.28826
493.2883
493.28836
493.28826
493.28821
493.28819
493.28818
493.28819
493.2882
493.28822
493.28826
493.2883
493.28836
493.28826
493.28821
493.28819
493.28819
493.28819
493.2882
493.28823
493.28826
493.28831
493.28836
493.28827
493.28822
493.28821
493.2882
493.2882
493.28822
493.28824
493.28828
493.28832
493.28838
493.28829
493.28825
493.28823
493.28822
493.28823
493.28824
493.28827
493.2883
493.28835
493.28841
493.28832
493.28828
493.28826
493.28826
493.28826
493.28828
493.2883
493.28834
493.28839
493.28845
493.28835
493.28832
493.2883
493.2883
493.28831
493.28832
493.28835
493.28839
493.28844
493.2885
493.2884
493.28837
493.28836
493.28836
493.28836
493.28838
493.28841
493.28845
493.2885
493.28856
500.50209
500.50204
500.50202
500.50201
500.50201
500.50202
500.50204
500.50206
500.5021
500.50214
500.50204
500.502
500.50198
500.50197
500.50197
500.50198
500.502
500.50203
500.50207
500.50212
500.50202
500.50198
500.50196
500.50195
500.50195
500.50196
500.50198
500.50201
500.50205
500.50211
500.50201
500.50197
500.50195
500.50194
500.50194
500.50196
500.50198
500.50201
500.50205
500.5021
500.50201
500.50197
500.50195
500.50194
500.50195
500.50196
500.50198