/*--------------------------------*- C++ -*----------------------------------*\
| =========                 |                                                 |
| \\      /  F ield         | OpenFOAM: The Open Source CFD Toolbox           |
|  \\    /   O peration     | Version:  v2106                                 |
|   \\  /    A nd           | Website:  www.openfoam.com                      |
|    \\/     M anipulation  |                                                 |
\*---------------------------------------------------------------------------*/
FoamFile
{
    version     2.0;
    format      ascii;
    arch        "LSB;label=32;scalar=64";
    class       volVectorField;
    location    "5";
    object      flux;
}
// * * * * * * * * * * * * * * * * * * * * * * * * * * * * * * * * * * * * * //

dimensions      [0 1 -1 1 0 0 0];

internalField   nonuniform List<vector> 
4000
(
(-5.2716346e-09 -5.2716322e-09 0.010878347)
(-8.5494235e-08 -7.6176245e-08 0.010878321)
(6.7590845e-08 2.2819415e-08 0.010878046)
(1.4691013e-07 -3.7825652e-09 0.010878696)
(-2.4144882e-08 -1.2512145e-08 0.010878712)
(-5.1745393e-08 -1.4044654e-08 0.010878584)
(-4.8881709e-08 -1.4522082e-08 0.010878449)
(-4.148409e-08 -1.5460417e-08 0.010878326)
(-2.9202635e-08 -1.4573674e-08 0.010878226)
(-7.1548317e-09 -7.5779146e-09 0.010878163)
(-7.6176247e-08 -8.5494231e-08 0.010878321)
(-4.3357664e-08 -4.3357661e-08 0.01087795)
(1.7618136e-07 6.9516879e-08 0.010878244)
(9.3912794e-08 1.3341176e-08 0.010878729)
(-3.9538015e-08 -3.7091826e-09 0.010878687)
(-5.4760298e-08 -6.4330566e-09 0.010878549)
(-5.1005353e-08 -8.3925513e-09 0.01087841)
(-4.156148e-08 -1.5417089e-08 0.010878279)
(-1.7378881e-08 -2.269995e-08 0.010878191)
(-1.5907184e-10 -9.8731446e-09 0.010878181)
(2.2819412e-08 6.7590834e-08 0.010878046)
(6.9516875e-08 1.7618137e-07 0.010878244)
(1.2428968e-07 1.2428968e-07 0.010878409)
(7.3684072e-08 1.0276835e-07 0.010878823)
(-4.3919115e-08 9.8223737e-08 0.010878761)
(-5.6428762e-08 9.9150536e-08 0.01087862)
(-5.7865741e-08 9.9366902e-08 0.010878474)
(-5.5791489e-08 9.1601905e-08 0.010878312)
(-2.365869e-08 7.14549e-08 0.010878182)
(1.3963718e-09 5.4300352e-08 0.010878188)
(-3.7825579e-09 1.4691013e-07 0.010878696)
(1.3341183e-08 9.3912797e-08 0.010878729)
(1.0276835e-07 7.3684068e-08 0.010878823)
(6.7846849e-08 6.7846849e-08 0.01087921)
(-4.3155832e-08 6.8383449e-08 0.010879145)
(-5.3617133e-08 7.2004084e-08 0.010879011)
(-5.8553983e-08 7.6902098e-08 0.010878872)
(-6.9473482e-08 7.9166518e-08 0.010878697)
(-5.4680434e-08 7.1956675e-08 0.010878508)
(-1.1595437e-08 5.5696635e-08 0.010878423)
(-1.2512142e-08 -2.4144872e-08 0.010878712)
(-3.7091862e-09 -3.9538019e-08 0.010878687)
(9.8223733e-08 -4.3919115e-08 0.010878761)
(6.8383453e-08 -4.3155832e-08 0.010879145)
(-3.9761879e-08 -3.9761876e-08 0.010879085)
(-4.7910113e-08 -3.5080135e-08 0.010878963)
(-5.0703308e-08 -2.8945216e-08 0.010878842)
(-6.0736911e-08 -2.1408142e-08 0.010878689)
(-4.7128573e-08 -1.3665552e-08 0.010878519)
(-9.4436552e-09 -7.2609636e-09 0.010878446)
(-1.4044656e-08 -5.1745393e-08 0.010878584)
(-6.4330602e-09 -5.4760302e-08 0.010878549)
(9.9150536e-08 -5.6428751e-08 0.01087862)
(7.2004088e-08 -5.3617133e-08 0.010879011)
(-3.5080135e-08 -4.7910113e-08 0.010878963)
(-4.2800473e-08 -4.2800473e-08 0.010878853)
(-4.4881991e-08 -3.8073472e-08 0.010878746)
(-5.4193819e-08 -3.3354588e-08 0.010878609)
(-4.0533256e-08 -2.8704861e-08 0.010878457)
(-7.3257109e-09 -2.4755171e-08 0.010878399)
(-1.4522082e-08 -4.8881716e-08 0.010878449)
(-8.3925441e-09 -5.100536e-08 0.01087841)
(9.9366902e-08 -5.7865745e-08 0.010878474)
(7.6902091e-08 -5.8553991e-08 0.010878872)
(-2.894522e-08 -5.0703315e-08 0.010878842)
(-3.8073472e-08 -4.4881998e-08 0.010878746)
(-4.1257423e-08 -4.1257426e-08 0.01087865)
(-5.1368299e-08 -3.9095788e-08 0.010878521)
(-3.8529156e-08 -3.794244e-08 0.010878375)
(-6.8105286e-09 -3.7657429e-08 0.01087832)
(-1.5460419e-08 -4.1484087e-08 0.010878326)
(-1.5417089e-08 -4.1561483e-08 0.010878279)
(9.1601905e-08 -5.5791489e-08 0.010878312)
(7.9166518e-08 -6.9473482e-08 0.010878697)
(-2.1408142e-08 -6.0736915e-08 0.010878689)
(-3.3354584e-08 -5.4193812e-08 0.010878609)
(-3.909578e-08 -5.1368299e-08 0.010878521)
(-5.0878833e-08 -5.0878826e-08 0.010878396)
(-3.9094898e-08 -5.1416316e-08 0.010878249)
(-7.1357036e-09 -5.208824e-08 0.010878192)
(-1.4573679e-08 -2.9202635e-08 0.010878226)
(-2.2699946e-08 -1.7378871e-08 0.010878191)
(7.1454903e-08 -2.3658679e-08 0.010878182)
(7.1956664e-08 -5.4680427e-08 0.010878508)
(-1.3665549e-08 -4.7128569e-08 0.010878519)
(-2.8704857e-08 -4.0533249e-08 0.010878457)
(-3.7942437e-08 -3.8529156e-08 0.010878375)
(-5.1416316e-08 -3.9094898e-08 0.010878249)
(-3.9738571e-08 -3.9738564e-08 0.0108781)
(-7.258478e-09 -3.8393153e-08 0.010878044)
(-7.5779097e-09 -7.1548366e-09 0.010878163)
(-9.8731337e-09 -1.5906702e-10 0.010878181)
(5.4300349e-08 1.3963718e-09 0.010878188)
(5.5696628e-08 -1.1595437e-08 0.010878423)
(-7.2609636e-09 -9.4436528e-09 0.010878446)
(-2.4755171e-08 -7.3257133e-09 0.010878399)
(-3.7657429e-08 -6.8105287e-09 0.01087832)
(-5.208824e-08 -7.1357085e-09 0.010878192)
(-3.8393153e-08 -7.258478e-09 0.010878044)
(-6.238763e-09 -6.238763e-09 0.010878001)
(-1.0749373e-08 -1.0749373e-08 0.017144099)
(-1.9505729e-07 -1.4213212e-07 0.017144244)
(3.6094383e-07 1.2953073e-07 0.017144187)
(5.5733532e-07 4.4386879e-08 0.01714486)
(-9.6586632e-08 1.3478943e-08 0.017144878)
(-2.3857625e-07 7.4457476e-09 0.017144707)
(-2.3985804e-07 4.4426012e-09 0.017144507)
(-2.0962058e-07 -7.9178222e-10 0.017144312)
(-1.5658381e-07 8.3681663e-09 0.017144155)
(-4.1526614e-08 4.0409711e-08 0.017144011)
(-1.4213212e-07 -1.9505729e-07 0.017144244)
(1.536287e-08 1.5362867e-08 0.017144141)
(6.4072233e-07 3.3587789e-07 0.017144479)
(3.8325764e-07 1.4966703e-07 0.017145007)
(-1.5199833e-07 8.5579952e-08 0.01714497)
(-2.5213077e-07 7.3904358e-08 0.017144787)
(-2.5221434e-07 6.2159528e-08 0.017144577)
(-2.0373223e-07 2.451725e-08 0.01714436)
(-9.4781574e-08 1.0938483e-09 0.017144248)
(-9.4850694e-09 6.6831409e-08 0.017144212)
(1.2953073e-07 3.6094383e-07 0.017144187)
(3.3587789e-07 6.4072233e-07 0.017144479)
(4.9524799e-07 4.9524799e-07 0.017144731)
(3.0703738e-07 4.1323681e-07 0.017145187)
(-1.723493e-07 3.918305e-07 0.017145128)
(-2.6199668e-07 3.9535978e-07 0.017144943)
(-2.8924515e-07 3.9461586e-07 0.01714472)
(-2.7068626e-07 3.5248759e-07 0.017144445)
(-1.1426966e-07 2.6166024e-07 0.01714426)
(2.2984261e-09 1.9995619e-07 0.017144242)
(4.4386879e-08 5.5733532e-07 0.01714486)
(1.4966703e-07 3.8325764e-07 0.017145007)
(4.1323681e-07 3.0703738e-07 0.017145187)
(2.7984015e-07 2.7984015e-07 0.017145611)
(-1.6987536e-07 2.8112303e-07 0.017145547)
(-2.493454e-07 2.9824707e-07 0.017145374)
(-2.9508653e-07 3.2115221e-07 0.017145164)
(-3.3668786e-07 3.2807157e-07 0.017144872)
(-2.4731297e-07 2.900645e-07 0.017144612)
(-5.0621101e-08 2.1934846e-07 0.017144492)
(1.3478943e-08 -9.6586636e-08 0.017144878)
(8.5579955e-08 -1.5199833e-07 0.01714497)
(3.9183051e-07 -1.7234931e-07 0.017145128)
(2.8112303e-07 -1.6987536e-07 0.017145547)
(-1.5394238e-07 -1.5394239e-07 0.017145491)
(-2.2196749e-07 -1.3104679e-07 0.017145336)
(-2.5942065e-07 -1.0135514e-07 0.017145153)
(-3.0177397e-07 -6.7185234e-08 0.01714489)
(-2.2299277e-07 -3.6182838e-08 0.01714465)
(-4.4845601e-08 -1.4312329e-08 0.01714454)
(7.4457476e-09 -2.3857625e-07 0.017144707)
(7.3904355e-08 -2.5213077e-07 0.017144787)
(3.9535978e-07 -2.6199668e-07 0.017144943)
(2.9824708e-07 -2.493454e-07 0.017145374)
(-1.3104679e-07 -2.219675e-07 0.017145336)
(-1.9675816e-07 -1.9675816e-07 0.0171452)
(-2.3122498e-07 -1.7348408e-07 0.017145038)
(-2.7151555e-07 -1.5088492e-07 0.017144798)
(-1.9444006e-07 -1.2989258e-07 0.01714458)
(-3.6040762e-08 -1.1370118e-07 0.017144488)
(4.4425965e-09 -2.3985804e-07 0.017144507)
(6.2159524e-08 -2.5221434e-07 0.017144577)
(3.9461587e-07 -2.8924515e-07 0.01714472)
(3.2115221e-07 -2.9508654e-07 0.017145164)
(-1.0135514e-07 -2.5942066e-07 0.017145153)
(-1.7348408e-07 -2.3122498e-07 0.017145038)
(-2.1354741e-07 -2.1354741e-07 0.017144891)
(-2.5818247e-07 -2.0329098e-07 0.017144662)
(-1.8580903e-07 -1.9821634e-07 0.017144452)
(-3.4051337e-08 -1.9792152e-07 0.01714436)
(-7.9177981e-10 -2.0962059e-07 0.017144312)
(2.4517253e-08 -2.0373223e-07 0.01714436)
(3.5248758e-07 -2.7068625e-07 0.017144445)
(3.2807157e-07 -3.3668786e-07 0.017144872)
(-6.718523e-08 -3.0177397e-07 0.01714489)
(-1.5088492e-07 -2.7151554e-07 0.017144798)
(-2.0329098e-07 -2.5818246e-07 0.017144662)
(-2.5618448e-07 -2.5618448e-07 0.017144435)
(-1.890706e-07 -2.58227e-07 0.017144222)
(-3.5844212e-08 -2.5891204e-07 0.017144126)
(8.3681663e-09 -1.5658381e-07 0.017144155)
(1.0938555e-09 -9.4781567e-08 0.017144248)
(2.6166024e-07 -1.1426965e-07 0.01714426)
(2.900645e-07 -2.4731297e-07 0.017144612)
(-3.6182827e-08 -2.2299276e-07 0.01714465)
(-1.2989257e-07 -1.9444006e-07 0.01714458)
(-1.9821634e-07 -1.8580902e-07 0.017144452)
(-2.58227e-07 -1.8907059e-07 0.017144222)
(-1.8853659e-07 -1.8853658e-07 0.017144011)
(-3.4508031e-08 -1.7003919e-07 0.017143931)
(4.0409716e-08 -4.1526612e-08 0.017144011)
(6.6831413e-08 -9.4850622e-09 0.017144212)
(1.9995618e-07 2.2984262e-09 0.017144242)
(2.1934846e-07 -5.0621101e-08 0.017144492)
(-1.4312325e-08 -4.4845601e-08 0.01714454)
(-1.1370118e-07 -3.6040767e-08 0.017144488)
(-1.9792151e-07 -3.4051337e-08 0.01714436)
(-2.5891204e-07 -3.5844212e-08 0.017144126)
(-1.7003919e-07 -3.4508028e-08 0.017143931)
(-2.3512617e-08 -2.3512614e-08 0.017143877)
(9.1736398e-08 9.1736398e-08 0.019455709)
(2.7897251e-09 -1.4510321e-07 0.019455995)
(6.8321579e-07 2.176425e-07 0.019456054)
(8.3818829e-07 9.3936714e-08 0.019456616)
(-1.7725696e-07 4.8533673e-08 0.019456623)
(-4.2325586e-07 3.9615572e-08 0.019456454)
(-4.4381995e-07 3.1894956e-08 0.019456241)
(-3.9349809e-07 1.6561987e-08 0.019456016)
(-3.3059472e-07 4.7846583e-08 0.01945586)
(-1.0338353e-07 1.2685858e-07 0.019455675)
(-1.4510321e-07 2.7897287e-09 0.019455995)
(1.9164888e-07 1.9164888e-07 0.019455984)
(1.0417757e-06 6.1376952e-07 0.019456329)
(5.8452504e-07 3.4045564e-07 0.019456775)
(-2.5873867e-07 2.454324e-07 0.019456739)
(-4.4821393e-07 2.2968661e-07 0.019456564)
(-4.7840032e-07 2.0488339e-07 0.019456333)
(-3.6957065e-07 1.172675e-07 0.019456062)
(-1.6514984e-07 8.2718746e-08 0.01945596)
(-2.4371535e-08 2.2196375e-07 0.019455915)
(2.176425e-07 6.8321578e-07 0.019456054)
(6.1376952e-07 1.0417757e-06 0.019456329)
(8.3202256e-07 8.3202255e-07 0.019456602)
(4.6985116e-07 7.0733108e-07 0.01945699)
(-2.8802599e-07 6.753946e-07 0.019456939)
(-4.6380487e-07 6.85796e-07 0.019456766)
(-5.5623906e-07 6.8719209e-07 0.019456525)
(-5.1566273e-07 6.0365979e-07 0.019456183)
(-2.2589847e-07 4.3467326e-07 0.019455995)
(-1.0553524e-08 3.3372973e-07 0.019455969)
(9.3936712e-08 8.3818828e-07 0.019456616)
(3.4045565e-07 5.8452504e-07 0.019456775)
(7.0733109e-07 4.6985117e-07 0.01945699)
(4.2789708e-07 4.2789708e-07 0.019457353)
(-2.8027375e-07 4.3229417e-07 0.0194573)
(-4.3641644e-07 4.6523067e-07 0.019457142)
(-5.6053654e-07 5.0962489e-07 0.019456919)
(-6.2208948e-07 5.2410681e-07 0.019456562)
(-4.350799e-07 4.6193754e-07 0.019456304)
(-9.1667223e-08 3.5379225e-07 0.019456192)
(4.8533671e-08 -1.7725695e-07 0.019456623)
(2.454324e-07 -2.5873866e-07 0.019456739)
(6.753946e-07 -2.8802599e-07 0.019456939)
(4.3229416e-07 -2.8027374e-07 0.0194573)
(-2.5069241e-07 -2.5069241e-07 0.019457257)
(-3.8647414e-07 -2.088416e-07 0.019457118)
(-4.9736291e-07 -1.5523226e-07 0.019456923)
(-5.6335008e-07 -9.5908654e-08 0.019456594)
(-3.9621303e-07 -4.5116942e-08 0.019456354)
(-8.2650388e-08 -1.0981174e-08 0.019456251)
(3.9615574e-08 -4.2325586e-07 0.019456454)
(2.2968661e-07 -4.4821393e-07 0.019456564)
(6.8579601e-07 -4.6380487e-07 0.019456766)
(4.6523066e-07 -4.3641644e-07 0.019457142)
(-2.088416e-07 -3.8647414e-07 0.019457118)
(-3.4095629e-07 -3.409563e-07 0.019456999)
(-4.476036e-07 -2.9961006e-07 0.019456826)
(-5.1197416e-07 -2.6097391e-07 0.019456518)
(-3.5015242e-07 -2.273584e-07 0.019456297)
(-6.8910045e-08 -2.0479585e-07 0.019456207)
(3.1894956e-08 -4.4381995e-07 0.019456241)
(2.0488339e-07 -4.7840033e-07 0.019456333)
(6.8719209e-07 -5.5623906e-07 0.019456525)
(5.0962489e-07 -5.6053655e-07 0.019456919)
(-1.5523227e-07 -4.9736291e-07 0.019456923)
(-2.9961006e-07 -4.476036e-07 0.019456826)
(-4.1738052e-07 -4.1738053e-07 0.019456667)
(-4.9109842e-07 -4.01576e-07 0.019456368)
(-3.4003498e-07 -3.9579256e-07 0.01945615)
(-6.7608691e-08 -3.9992181e-07 0.019456054)
(1.6561987e-08 -3.934981e-07 0.019456016)
(1.172675e-07 -3.6957065e-07 0.019456062)
(6.0365979e-07 -5.1566274e-07 0.019456183)
(5.2410682e-07 -6.2208948e-07 0.019456562)
(-9.5908651e-08 -5.6335008e-07 0.019456594)
(-2.6097391e-07 -5.1197415e-07 0.019456518)
(-4.01576e-07 -4.9109842e-07 0.019456368)
(-4.9038619e-07 -4.9038619e-07 0.019456068)
(-3.4849823e-07 -4.9202008e-07 0.019455846)
(-7.1662878e-08 -4.8155667e-07 0.019455745)
(4.7846593e-08 -3.3059471e-07 0.01945586)
(8.271875e-08 -1.6514983e-07 0.01945596)
(4.3467326e-07 -2.2589846e-07 0.019455995)
(4.6193755e-07 -4.3507989e-07 0.019456304)
(-4.5116942e-08 -3.9621303e-07 0.019456354)
(-2.273584e-07 -3.5015241e-07 0.019456297)
(-3.9579256e-07 -3.4003496e-07 0.01945615)
(-4.9202008e-07 -3.4849822e-07 0.019455846)
(-3.3120546e-07 -3.3120545e-07 0.019455637)
(-6.0633082e-08 -2.8654676e-07 0.019455593)
(1.2685857e-07 -1.0338352e-07 0.019455675)
(2.2196374e-07 -2.4371539e-08 0.019455915)
(3.3372973e-07 -1.0553522e-08 0.019455969)
(3.5379225e-07 -9.1667223e-08 0.019456192)
(-1.0981167e-08 -8.2650388e-08 0.019456251)
(-2.0479584e-07 -6.891004e-08 0.019456207)
(-3.9992181e-07 -6.7608681e-08 0.019456054)
(-4.8155667e-07 -7.1662876e-08 0.019455745)
(-2.8654677e-07 -6.0633077e-08 0.019455593)
(-4.189042e-08 -4.1890415e-08 0.019455524)
(1.7983265e-07 1.7983266e-07 0.023222034)
(1.4989969e-07 -1.4976727e-07 0.023222269)
(9.8189063e-07 3.1282272e-07 0.023222276)
(1.1259494e-06 1.5015364e-07 0.023222887)
(-2.5845051e-07 9.1205997e-08 0.023222903)
(-6.2058182e-07 8.0385381e-08 0.023222727)
(-6.7762935e-07 6.604317e-08 0.023222488)
(-5.9016217e-07 2.953777e-08 0.023222212)
(-4.9842084e-07 7.4742113e-08 0.023222032)
(-1.6531078e-07 2.0076527e-07 0.023221835)
(-1.4976728e-07 1.4989969e-07 0.023222269)
(3.4938478e-07 3.4938479e-07 0.023222223)
(1.431772e-06 8.8384803e-07 0.023222562)
(7.9352431e-07 5.2395517e-07 0.023223049)
(-3.631029e-07 4.0129716e-07 0.023223023)
(-6.5832606e-07 3.8527484e-07 0.023222843)
(-7.5390076e-07 3.4667902e-07 0.023222586)
(-5.7711376e-07 1.9084557e-07 0.023222245)
(-2.4157959e-07 1.3625955e-07 0.023222111)
(-3.928762e-08 3.612655e-07 0.023222059)
(3.1282272e-07 9.8189062e-07 0.023222276)
(8.8384803e-07 1.431772e-06 0.023222562)
(1.156461e-06 1.156461e-06 0.023222823)
(6.4339852e-07 9.9173387e-07 0.023223252)
(-3.9713085e-07 9.525291e-07 0.023223211)
(-6.7519996e-07 9.7358283e-07 0.023223037)
(-8.7205862e-07 9.8039811e-07 0.023222772)
(-8.0058165e-07 8.5222831e-07 0.023222353)
(-3.2800091e-07 6.0571051e-07 0.023222135)
(-1.5306811e-08 4.7693901e-07 0.023222118)
(1.5015363e-07 1.1259494e-06 0.023222887)
(5.2395517e-07 7.9352431e-07 0.023223049)
(9.9173387e-07 6.4339853e-07 0.023223252)
(5.8959239e-07 5.8959239e-07 0.023223656)
(-3.8125393e-07 5.995901e-07 0.023223616)
(-6.3045705e-07 6.508267e-07 0.02322346)
(-8.7525529e-07 7.1876509e-07 0.023223214)
(-9.5180136e-07 7.3905876e-07 0.023222776)
(-6.1686888e-07 6.4872073e-07 0.023222478)
(-1.2513529e-07 5.0085244e-07 0.023222368)
(9.1206001e-08 -2.5845051e-07 0.023222903)
(4.0129717e-07 -3.6310289e-07 0.023223023)
(9.5252909e-07 -3.9713084e-07 0.023223211)
(5.995901e-07 -3.8125394e-07 0.023223616)
(-3.3589654e-07 -3.3589654e-07 0.023223588)
(-5.5602498e-07 -2.7339491e-07 0.023223454)
(-7.8382655e-07 -1.946689e-07 0.023223237)
(-8.70626e-07 -1.1073878e-07 0.023222828)
(-5.6620723e-07 -4.2677484e-08 0.023222547)
(-1.1388567e-07 1.5027788e-10 0.023222442)
(8.0385381e-08 -6.2058182e-07 0.023222727)
(3.8527484e-07 -6.5832606e-07 0.023222843)
(9.7358283e-07 -6.7519996e-07 0.023223037)
(6.508267e-07 -6.3045705e-07 0.02322346)
(-2.733949e-07 -5.5602497e-07 0.023223454)
(-4.8922941e-07 -4.8922941e-07 0.023223341)
(-7.1259916e-07 -4.2990468e-07 0.023223148)
(-7.9980994e-07 -3.7685504e-07 0.023222759)
(-5.0597983e-07 -3.3397502e-07 0.023222495)
(-9.6583449e-08 -3.1017376e-07 0.023222399)
(6.6043171e-08 -6.7762935e-07 0.023222488)
(3.4667902e-07 -7.5390077e-07 0.023222586)
(9.8039811e-07 -8.7205862e-07 0.023222772)
(7.1876509e-07 -8.7525529e-07 0.023223214)
(-1.946689e-07 -7.8382656e-07 0.023223237)
(-4.2990469e-07 -7.1259917e-07 0.023223148)
(-6.7145219e-07 -6.714522e-07 0.023222968)
(-7.7469634e-07 -6.5314451e-07 0.023222586)
(-4.9952595e-07 -6.4957609e-07 0.02322232)
(-9.8018165e-08 -6.5969119e-07 0.023222213)
(2.9537768e-08 -5.9016217e-07 0.023222212)
(1.9084556e-07 -5.7711376e-07 0.023222245)
(8.522283e-07 -8.0058165e-07 0.023222353)
(7.3905876e-07 -9.5180136e-07 0.023222776)
(-1.1073878e-07 -8.7062599e-07 0.023222828)
(-3.7685505e-07 -7.9980994e-07 0.023222759)
(-6.531445e-07 -7.7469634e-07 0.023222586)
(-7.7793384e-07 -7.7793384e-07 0.023222198)
(-5.1252651e-07 -7.7103313e-07 0.023221925)
(-1.0332685e-07 -7.1967304e-07 0.023221812)
(7.4742115e-08 -4.9842084e-07 0.023222032)
(1.3625955e-07 -2.4157959e-07 0.023222111)
(6.0571051e-07 -3.2800091e-07 0.023222135)
(6.4872075e-07 -6.1686888e-07 0.023222478)
(-4.2677484e-08 -5.6620722e-07 0.023222547)
(-3.3397503e-07 -5.0597981e-07 0.023222495)
(-6.4957608e-07 -4.9952592e-07 0.02322232)
(-7.7103313e-07 -5.125265e-07 0.023221925)
(-4.4126515e-07 -4.4126513e-07 0.023221679)
(-6.3778103e-08 -3.9082561e-07 0.023221684)
(2.0076527e-07 -1.6531078e-07 0.023221835)
(3.612655e-07 -3.9287624e-08 0.023222059)
(4.7693901e-07 -1.5306813e-08 0.023222118)
(5.0085245e-07 -1.2513529e-07 0.023222368)
(1.5028861e-10 -1.1388568e-07 0.023222442)
(-3.1017375e-07 -9.6583442e-08 0.023222399)
(-6.5969119e-07 -9.8018158e-08 0.023222213)
(-7.1967304e-07 -1.0332685e-07 0.023221812)
(-3.9082562e-07 -6.3778094e-08 0.023221684)
(-6.9700502e-08 -6.9700492e-08 0.023221598)
(2.4787752e-07 2.4787752e-07 0.028627487)
(2.4400466e-07 -1.758513e-07 0.028627695)
(1.3015038e-06 4.0854103e-07 0.028627672)
(1.4653436e-06 2.0220757e-07 0.028628391)
(-3.3678575e-07 1.2858541e-07 0.028628425)
(-8.3835622e-07 1.168814e-07 0.028628239)
(-9.5931343e-07 9.7160257e-08 0.028627969)
(-8.4897026e-07 3.8279829e-08 0.028627636)
(-7.0711693e-07 1.0066618e-07 0.028627404)
(-2.3461187e-07 2.7618768e-07 0.028627181)
(-1.758513e-07 2.4400467e-07 0.028627695)
(4.8499992e-07 4.8499993e-07 0.028627601)
(1.8685921e-06 1.1611531e-06 0.028627979)
(1.0454102e-06 7.0507833e-07 0.028628557)
(-4.6477501e-07 5.5314339e-07 0.028628544)
(-8.8549395e-07 5.3941971e-07 0.028628355)
(-1.0772158e-06 4.8883763e-07 0.028628068)
(-8.4371138e-07 2.5804613e-07 0.028627664)
(-3.5025516e-07 1.8586917e-07 0.028627489)
(-5.9090374e-08 5.045425e-07 0.028627424)
(4.0854103e-07 1.3015038e-06 0.028627672)
(1.1611531e-06 1.8685921e-06 0.028627979)
(1.5215822e-06 1.5215822e-06 0.028628271)
(8.5733389e-07 1.3138814e-06 0.028628783)
(-5.0244437e-07 1.2682391e-06 0.028628755)
(-9.0266198e-07 1.3023136e-06 0.028628573)
(-1.240687e-06 1.3152762e-06 0.028628277)
(-1.1519387e-06 1.134668e-06 0.028627783)
(-4.6062056e-07 8.0157152e-07 0.028627514)
(-2.2162986e-08 6.4189094e-07 0.02862749)
(2.0220757e-07 1.4653436e-06 0.028628391)
(7.0507833e-07 1.0454102e-06 0.028628557)
(1.3138814e-06 8.5733389e-07 0.028628783)
(7.9206703e-07 7.9206704e-07 0.028629269)
(-4.763428e-07 8.0955885e-07 0.028629243)
(-8.3845676e-07 8.8173582e-07 0.028629081)
(-1.2448614e-06 9.7536359e-07 0.028628806)
(-1.3574161e-06 9.9912459e-07 0.028628286)
(-8.4303223e-07 8.7339415e-07 0.028627922)
(-1.655441e-07 6.7742087e-07 0.028627788)
(1.2858541e-07 -3.3678575e-07 0.028628425)
(5.5314339e-07 -4.6477501e-07 0.028628544)
(1.2682391e-06 -5.0244437e-07 0.028628755)
(8.0955885e-07 -4.763428e-07 0.028629243)
(-4.1277558e-07 -4.1277558e-07 0.028629231)
(-7.3685724e-07 -3.2728518e-07 0.028629094)
(-1.1232983e-06 -2.2140184e-07 0.028628852)
(-1.2539082e-06 -1.1226739e-07 0.028628363)
(-7.8232427e-07 -2.8238428e-08 0.028628014)
(-1.5281184e-07 2.0894885e-08 0.028627883)
(1.168814e-07 -8.3835622e-07 0.028628239)
(5.3941971e-07 -8.8549395e-07 0.028628355)
(1.3023136e-06 -9.0266198e-07 0.028628573)
(8.8173582e-07 -8.3845677e-07 0.028629081)
(-3.2728518e-07 -7.3685724e-07 0.028629094)
(-6.4708302e-07 -6.4708302e-07 0.028628981)
(-1.0298436e-06 -5.6930922e-07 0.028628764)
(-1.1642527e-06 -5.0305708e-07 0.028628296)
(-7.0986995e-07 -4.5403219e-07 0.028627964)
(-1.3278855e-07 -4.3376499e-07 0.028627841)
(9.7160255e-08 -9.5931344e-07 0.028627969)
(4.8883763e-07 -1.0772158e-06 0.028628068)
(1.3152762e-06 -1.240687e-06 0.028628277)
(9.7536358e-07 -1.2448614e-06 0.028628806)
(-2.2140183e-07 -1.1232983e-06 0.028628852)
(-5.6930921e-07 -1.0298436e-06 0.028628764)
(-9.7927232e-07 -9.7927232e-07 0.02862856)
(-1.1386311e-06 -9.6248286e-07 0.028628097)
(-7.1303218e-07 -9.6649283e-07 0.028627759)
(-1.3930037e-07 -9.8698902e-07 0.028627617)
(3.8279826e-08 -8.4897027e-07 0.028627636)
(2.5804613e-07 -8.4371139e-07 0.028627664)
(1.134668e-06 -1.1519387e-06 0.028627783)
(9.9912459e-07 -1.3574161e-06 0.028628286)
(-1.122674e-07 -1.2539081e-06 0.028628363)
(-5.0305708e-07 -1.1642527e-06 0.028628296)
(-9.6248285e-07 -1.1386311e-06 0.028628097)
(-1.1514732e-06 -1.1514732e-06 0.028627623)
(-7.3437611e-07 -1.1332018e-06 0.02862727)
(-1.4645268e-07 -1.0100878e-06 0.02862712)
(1.0066618e-07 -7.0711694e-07 0.028627404)
(1.8586917e-07 -3.5025516e-07 0.028627489)
(8.0157152e-07 -4.6062056e-07 0.028627514)
(8.7339417e-07 -8.4303223e-07 0.028627922)
(-2.8238421e-08 -7.8232428e-07 0.028628014)
(-4.540322e-07 -7.0986993e-07 0.028627964)
(-9.6649283e-07 -7.1303217e-07 0.028627759)
(-1.1332018e-06 -7.3437611e-07 0.02862727)
(-5.7164678e-07 -5.7164678e-07 0.028626952)
(-5.7224394e-08 -5.0052219e-07 0.02862697)
(2.7618768e-07 -2.3461188e-07 0.028627181)
(5.045425e-07 -5.9090374e-08 0.028627424)
(6.4189094e-07 -2.2162988e-08 0.02862749)
(6.7742087e-07 -1.655441e-07 0.028627788)
(2.08949e-08 -1.5281185e-07 0.028627883)
(-4.3376497e-07 -1.3278855e-07 0.028627841)
(-9.8698903e-07 -1.3930036e-07 0.028627617)
(-1.0100878e-06 -1.4645269e-07 0.02862712)
(-5.0052219e-07 -5.7224397e-08 0.02862697)
(-9.9036294e-08 -9.9036296e-08 0.028626875)
(3.1840418e-07 3.1840418e-07 0.035926592)
(3.3456696e-07 -2.1276435e-07 0.035926822)
(1.6776404e-06 5.1780651e-07 0.03592679)
(1.87963e-06 2.6096234e-07 0.035927651)
(-4.1055869e-07 1.7035039e-07 0.035927709)
(-1.0773522e-06 1.5774865e-07 0.035927506)
(-1.2800761e-06 1.3218935e-07 0.035927201)
(-1.1550882e-06 4.8188325e-08 0.035926817)
(-9.5402499e-07 1.3149329e-07 0.035926539)
(-3.1411305e-07 3.6327046e-07 0.03592628)
(-2.1276435e-07 3.3456697e-07 0.035926822)
(6.3367045e-07 6.3367046e-07 0.035926702)
(2.3882305e-06 1.482799e-06 0.035927149)
(1.3584458e-06 9.1590675e-07 0.035927846)
(-5.6537922e-07 7.3037186e-07 0.035927849)
(-1.1345938e-06 7.1942757e-07 0.035927642)
(-1.4444166e-06 6.549211e-07 0.035927318)
(-1.1561323e-06 3.3728728e-07 0.035926852)
(-4.8140179e-07 2.4599168e-07 0.035926642)
(-8.2335876e-08 6.7100583e-07 0.035926566)
(5.178065e-07 1.6776404e-06 0.03592679)
(1.482799e-06 2.3882305e-06 0.035927149)
(1.9598767e-06 1.9598767e-06 0.035927498)
(1.1272028e-06 1.7033932e-06 0.035928118)
(-6.0703787e-07 1.6508695e-06 0.035928104)
(-1.152803e-06 1.6998381e-06 0.035927906)
(-1.6622164e-06 1.718573e-06 0.03592757)
(-1.5640176e-06 1.4743561e-06 0.035926995)
(-6.2030644e-07 1.0386113e-06 0.035926675)
(-3.0770282e-08 8.4021443e-07 0.035926646)
(2.6096234e-07 1.87963e-06 0.035927651)
(9.1590674e-07 1.3584458e-06 0.035927846)
(1.7033932e-06 1.1272028e-06 0.035928118)
(1.0494386e-06 1.0494386e-06 0.035928709)
(-5.6893434e-07 1.0759582e-06 0.035928698)
(-1.0668903e-06 1.1720513e-06 0.035928523)
(-1.6698986e-06 1.2941203e-06 0.03592821)
(-1.836094e-06 1.3191533e-06 0.035927603)
(-1.1155435e-06 1.1489897e-06 0.035927167)
(-2.1460047e-07 8.9367501e-07 0.035927004)
(1.7035039e-07 -4.1055868e-07 0.035927709)
(7.3037186e-07 -5.6537922e-07 0.035927849)
(1.6508695e-06 -6.0703787e-07 0.035928104)
(1.0759582e-06 -5.6893434e-07 0.035928698)
(-4.8442517e-07 -4.8442518e-07 0.035928703)
(-9.3464087e-07 -3.7295311e-07 0.035928556)
(-1.5151143e-06 -2.3688486e-07 0.035928281)
(-1.7091483e-06 -1.0063254e-07 0.035927706)
(-1.0457847e-06 -6.6429798e-10 0.035927287)
(-2.0098006e-07 5.3386251e-08 0.035927126)
(1.5774865e-07 -1.0773522e-06 0.035927506)
(7.1942755e-07 -1.1345938e-06 0.035927642)
(1.6998381e-06 -1.152803e-06 0.035927906)
(1.1720513e-06 -1.0668903e-06 0.035928523)
(-3.7295311e-07 -9.3464087e-07 0.035928556)
(-8.1934993e-07 -8.1934994e-07 0.035928437)
(-1.397578e-06 -7.2175466e-07 0.035928188)
(-1.5998734e-06 -6.424049e-07 0.035927638)
(-9.6152467e-07 -5.8911848e-07 0.035927235)
(-1.7856677e-07 -5.760633e-07 0.035927082)
(1.3218934e-07 -1.2800761e-06 0.035927201)
(6.5492109e-07 -1.4444166e-06 0.035927318)
(1.718573e-06 -1.6622164e-06 0.03592757)
(1.2941203e-06 -1.6698986e-06 0.03592821)
(-2.3688485e-07 -1.5151143e-06 0.035928281)
(-7.2175466e-07 -1.397578e-06 0.035928188)
(-1.3381693e-06 -1.3381693e-06 0.035927955)
(-1.5765121e-06 -1.3261355e-06 0.035927408)
(-9.7944315e-07 -1.3431361e-06 0.035926995)
(-1.922766e-07 -1.3805426e-06 0.035926818)
(4.8188325e-08 -1.1550882e-06 0.035926817)
(3.3728727e-07 -1.1561323e-06 0.035926852)
(1.4743561e-06 -1.5640176e-06 0.035926995)
(1.3191533e-06 -1.836094e-06 0.035927603)
(-1.0063254e-07 -1.7091483e-06 0.035927706)
(-6.424049e-07 -1.5998734e-06 0.035927638)
(-1.3261355e-06 -1.5765121e-06 0.035927408)
(-1.6048402e-06 -1.6048402e-06 0.035926846)
(-1.0159317e-06 -1.5777359e-06 0.035926413)
(-2.0350442e-07 -1.3673948e-06 0.035926221)
(1.3149329e-07 -9.54025e-07 0.035926539)
(2.4599168e-07 -4.8140179e-07 0.035926642)
(1.0386113e-06 -6.2030644e-07 0.035926675)
(1.1489897e-06 -1.1155435e-06 0.035927167)
(-6.643016e-10 -1.0457847e-06 0.035927287)
(-5.8911848e-07 -9.6152467e-07 0.035927235)
(-1.3431361e-06 -9.7944314e-07 0.035926995)
(-1.5777359e-06 -1.0159317e-06 0.035926413)
(-7.419977e-07 -7.4199769e-07 0.035926017)
(-5.204916e-08 -6.3607486e-07 0.035926027)
(3.6327046e-07 -3.1411305e-07 0.03592628)
(6.7100584e-07 -8.2335876e-08 0.035926566)
(8.4021443e-07 -3.0770279e-08 0.035926646)
(8.9367501e-07 -2.1460048e-07 0.035927004)
(5.3386254e-08 -2.0098006e-07 0.035927126)
(-5.7606329e-07 -1.7856677e-07 0.035927082)
(-1.3805425e-06 -1.922766e-07 0.035926818)
(-1.3673948e-06 -2.0350441e-07 0.035926221)
(-6.3607486e-07 -5.2049158e-08 0.035926027)
(-1.3288919e-07 -1.3288919e-07 0.035925914)
(4.0122851e-07 4.0122851e-07 0.045445628)
(4.4282549e-07 -2.5592437e-07 0.045445901)
(2.130607e-06 6.4777156e-07 0.04544587)
(2.3840866e-06 3.3209292e-07 0.045446897)
(-4.8180988e-07 2.2155935e-07 0.045446982)
(-1.3460694e-06 2.0770891e-07 0.045446755)
(-1.6482151e-06 1.7498986e-07 0.045446405)
(-1.5115531e-06 6.1465943e-08 0.045445958)
(-1.2443596e-06 1.6941912e-07 0.04544563)
(-4.0748294e-07 4.6711429e-07 0.045445324)
(-2.5592437e-07 4.4282549e-07 0.045445901)
(8.1264006e-07 8.1264005e-07 0.045445763)
(3.012633e-06 1.8684587e-06 0.045446297)
(1.7447683e-06 1.1726957e-06 0.045447133)
(-6.683859e-07 9.4786348e-07 0.045447153)
(-1.4159236e-06 9.3958364e-07 0.045446921)
(-1.8675796e-06 8.5743463e-07 0.045446548)
(-1.5199092e-06 4.3656179e-07 0.045446003)
(-6.3588711e-07 3.2189691e-07 0.045445756)
(-1.0978777e-07 8.7109964e-07 0.045445666)
(6.4777156e-07 2.1306071e-06 0.04544587)
(1.8684587e-06 3.012633e-06 0.045446297)
(2.4906627e-06 2.4906627e-06 0.045446717)
(1.4634914e-06 2.1777526e-06 0.045447465)
(-7.1492196e-07 2.1173097e-06 0.045447465)
(-1.4364982e-06 2.1831596e-06 0.045447243)
(-2.151237e-06 2.2070599e-06 0.045446853)
(-2.0470908e-06 1.8855605e-06 0.045446179)
(-8.0982177e-07 1.3264551e-06 0.0454458)
(-4.1347788e-08 1.0803697e-06 0.045445765)
(3.3209291e-07 2.3840866e-06 0.045446897)
(1.1726957e-06 1.7447683e-06 0.045447133)
(2.1777526e-06 1.4634914e-06 0.045447465)
(1.3714153e-06 1.3714153e-06 0.04544818)
(-6.6297893e-07 1.4084637e-06 0.045448182)
(-1.3261734e-06 1.5319857e-06 0.045447987)
(-2.1651786e-06 1.6860332e-06 0.045447623)
(-2.400514e-06 1.7102408e-06 0.045446908)
(-1.441078e-06 1.4849805e-06 0.04544639)
(-2.7384473e-07 1.1571961e-06 0.045446195)
(2.2155935e-07 -4.8180989e-07 0.045446982)
(9.4786347e-07 -6.6838589e-07 0.045447153)
(2.1173097e-06 -7.1492195e-07 0.045447465)
(1.4084637e-06 -6.6297893e-07 0.045448182)
(-5.5435158e-07 -5.5435158e-07 0.045448205)
(-1.1589287e-06 -4.1319828e-07 0.045448042)
(-1.9729818e-06 -2.4294927e-07 0.045447721)
(-2.2481436e-06 -7.6571163e-08 0.045447043)
(-1.3628665e-06 4.017204e-08 0.045446541)
(-2.598707e-07 9.834411e-08 0.045446346)
(2.0770891e-07 -1.3460694e-06 0.045446755)
(9.3958364e-07 -1.4159236e-06 0.045446921)
(2.1831596e-06 -1.4364982e-06 0.045447243)
(1.5319857e-06 -1.3261734e-06 0.045447987)
(-4.1319828e-07 -1.1589287e-06 0.045448042)
(-1.0147711e-06 -1.0147711e-06 0.04544791)
(-1.8285515e-06 -8.9517348e-07 0.04544762)
(-2.1173927e-06 -8.0189729e-07 0.045446969)
(-1.2661627e-06 -7.4512262e-07 0.045446485)
(-2.3506335e-07 -7.4180133e-07 0.045446298)
(1.7498985e-07 -1.6482151e-06 0.045446405)
(8.5743462e-07 -1.8675796e-06 0.045446548)
(2.2070599e-06 -2.151237e-06 0.045446853)
(1.6860332e-06 -2.1651786e-06 0.045447623)
(-2.4294926e-07 -1.9729818e-06 0.045447721)
(-8.9517347e-07 -1.8285515e-06 0.04544762)
(-1.760108e-06 -1.760108e-06 0.045447345)
(-2.0980927e-06 -1.7550912e-06 0.045446697)
(-1.3027705e-06 -1.7890446e-06 0.045446201)
(-2.5765651e-07 -1.8483676e-06 0.045445984)
(6.1465941e-08 -1.5115531e-06 0.045445958)
(4.3656178e-07 -1.5199092e-06 0.045446003)
(1.8855605e-06 -2.0470908e-06 0.045446179)
(1.7102408e-06 -2.400514e-06 0.045446908)
(-7.6571163e-08 -2.2481436e-06 0.045447043)
(-8.018973e-07 -2.1173927e-06 0.045446969)
(-1.7550912e-06 -2.0980927e-06 0.045446697)