/*--------------------------------*- C++ -*----------------------------------*\
| =========                 |                                                 |
| \\      /  F ield         | OpenFOAM: The Open Source CFD Toolbox           |
|  \\    /   O peration     | Version:  v2106                                 |
|   \\  /    A nd           | Website:  www.openfoam.com                      |
|    \\/     M anipulation  |                                                 |
\*---------------------------------------------------------------------------*/
FoamFile
{
    version     2.0;
    format      ascii;
    arch        "LSB;label=32;scalar=64";
    class       volVectorField;
    location    "5";
    object      gradT;
}
// * * * * * * * * * * * * * * * * * * * * * * * * * * * * * * * * * * * * * //

dimensions      [0 -1 0 1 0 0 0];

internalField   nonuniform List<vector> 
4000
(
(-4.1410071e-06 -4.1410052e-06 8.5452267)
(-6.7157961e-05 -5.9838436e-05 8.5452058)
(5.3094379e-05 1.7925248e-05 8.5449902)
(0.00011540176 -2.971304e-06 8.545501)
(-1.8966438e-05 -9.8286174e-06 8.5455129)
(-4.0647362e-05 -1.1032444e-05 8.5454125)
(-3.8397863e-05 -1.1407476e-05 8.5453067)
(-3.258684e-05 -1.2144562e-05 8.5452101)
(-2.2939435e-05 -1.1448003e-05 8.5451317)
(-5.6203078e-06 -5.9526504e-06 8.5450823)
(-5.9838438e-05 -6.7157958e-05 8.5452058)
(-3.4058581e-05 -3.4058579e-05 8.5449147)
(0.00013839508 5.460733e-05 8.5451458)
(7.377096e-05 1.0479843e-05 8.545527)
(-3.1058147e-05 -2.9136601e-06 8.545494)
(-4.3015649e-05 -5.0533345e-06 8.5453853)
(-4.0066041e-05 -6.5925689e-06 8.5452759)
(-3.2647631e-05 -1.2110527e-05 8.5451731)
(-1.3651567e-05 -1.7831405e-05 8.545104)
(-1.249551e-07 -7.7556138e-06 8.5450961)
(1.7925246e-05 5.3094371e-05 8.5449902)
(5.4607327e-05 0.00013839508 8.5451458)
(9.7632801e-05 9.7632801e-05 8.5452753)
(5.7880769e-05 8.0727233e-05 8.5456004)
(-3.4499615e-05 7.7157318e-05 8.5455519)
(-4.4326271e-05 7.7885343e-05 8.5454411)
(-4.5455056e-05 7.8055305e-05 8.545326)
(-4.3825676e-05 7.1955697e-05 8.5451987)
(-1.8584521e-05 5.6129696e-05 8.5450966)
(1.0968866e-06 4.2654349e-05 8.5451017)
(-2.9712983e-06 0.00011540176 8.545501)
(1.0479849e-05 7.3770963e-05 8.545527)
(8.072723e-05 5.7880766e-05 8.5456004)
(5.3295477e-05 5.3295477e-05 8.5459048)
(-3.3900037e-05 5.3716991e-05 8.5458535)
(-4.2117662e-05 5.6561095e-05 8.5457481)
(-4.5995688e-05 6.0408612e-05 8.5456387)
(-5.4573241e-05 6.2187374e-05 8.5455016)
(-4.2952914e-05 5.6523854e-05 8.5453532)
(-9.1085193e-06 4.3751166e-05 8.5452861)
(-9.8286156e-06 -1.8966429e-05 8.5455129)
(-2.9136629e-06 -3.105815e-05 8.545494)
(7.7157316e-05 -3.4499615e-05 8.5455519)
(5.3716994e-05 -3.3900037e-05 8.5458535)
(-3.1233998e-05 -3.1233995e-05 8.5458065)
(-3.7634649e-05 -2.7556365e-05 8.5457104)
(-3.9828777e-05 -2.2737225e-05 8.545615)
(-4.7710435e-05 -1.6816657e-05 8.5454949)
(-3.7020729e-05 -1.0734649e-05 8.5453616)
(-7.4182386e-06 -5.7036772e-06 8.5453041)
(-1.1032445e-05 -4.0647362e-05 8.5454125)
(-5.0533373e-06 -4.3015652e-05 8.5453853)
(7.7885343e-05 -4.4326262e-05 8.5454411)
(5.6561097e-05 -4.2117662e-05 8.5457481)
(-2.7556365e-05 -3.7634649e-05 8.5457104)
(-3.3620893e-05 -3.3620893e-05 8.5456243)
(-3.5255979e-05 -2.990771e-05 8.5455401)
(-4.2570665e-05 -2.6200902e-05 8.5454327)
(-3.1839934e-05 -2.254842e-05 8.5453128)
(-5.7545378e-06 -1.9445835e-05 8.5452672)
(-1.1407476e-05 -3.8397869e-05 8.5453067)
(-6.5925633e-06 -4.0066047e-05 8.5452759)
(7.8055305e-05 -4.5455059e-05 8.545326)
(6.0408607e-05 -4.5995694e-05 8.5456387)
(-2.2737228e-05 -3.9828782e-05 8.545615)
(-2.990771e-05 -3.5255985e-05 8.5455401)
(-3.2408786e-05 -3.2408789e-05 8.5454644)
(-4.0351145e-05 -3.0710765e-05 8.5453635)
(-3.0265662e-05 -2.9804781e-05 8.5452485)
(-5.3498487e-06 -2.9580897e-05 8.5452057)
(-1.2144564e-05 -3.2586837e-05 8.5452101)
(-1.2110527e-05 -3.2647634e-05 8.5451731)
(7.1955697e-05 -4.3825676e-05 8.5451987)
(6.2187374e-05 -5.457324e-05 8.5455016)
(-1.6816657e-05 -4.7710438e-05 8.5454949)
(-2.62009e-05 -4.2570659e-05 8.5454327)
(-3.071076e-05 -4.0351145e-05 8.5453635)
(-3.9966656e-05 -3.996665e-05 8.5452649)
(-3.0710066e-05 -4.0388863e-05 8.5451494)
(-5.6052822e-06 -4.0916677e-05 8.5451044)
(-1.1448007e-05 -2.2939435e-05 8.5451317)
(-1.7831402e-05 -1.3651558e-05 8.545104)
(5.6129699e-05 -1.8584512e-05 8.5450966)
(5.6523845e-05 -4.2952908e-05 8.5453532)
(-1.0734647e-05 -3.7020726e-05 8.5453616)
(-2.2548417e-05 -3.1839929e-05 8.5453128)
(-2.9804778e-05 -3.0265662e-05 8.5452485)
(-4.0388863e-05 -3.0710066e-05 8.5451494)
(-3.1215689e-05 -3.1215683e-05 8.5450325)
(-5.7017246e-06 -3.0158827e-05 8.5449883)
(-5.9526466e-06 -5.6203116e-06 8.5450823)
(-7.7556052e-06 -1.2495131e-07 8.5450961)
(4.2654347e-05 1.0968866e-06 8.5451017)
(4.375116e-05 -9.1085193e-06 8.5452861)
(-5.7036772e-06 -7.4182367e-06 8.5453041)
(-1.9445835e-05 -5.7545397e-06 8.5452672)
(-2.9580897e-05 -5.3498487e-06 8.5452057)
(-4.0916677e-05 -5.605286e-06 8.5451044)
(-3.0158827e-05 -5.7017246e-06 8.5449883)
(-4.9007118e-06 -4.9007118e-06 8.5449551)
(-8.4430629e-06 -8.4430629e-06 13.465782)
(-0.00015320717 -0.00011163726 13.465896)
(0.00028350226 0.00010173953 13.465851)
(0.00043775738 3.4863543e-05 13.466379)
(-7.5863684e-05 1.0586996e-05 13.466394)
(-0.00018738901 5.8482404e-06 13.466259)
(-0.00018839579 3.489428e-06 13.466102)
(-0.00016464587 -6.21903e-07 13.465949)
(-0.00012298829 6.5727514e-06 13.465826)
(-3.2616956e-05 3.1739688e-05 13.465712)
(-0.00011163726 -0.00015320717 13.465896)
(1.2066721e-05 1.2066718e-05 13.465815)
(0.00050325346 0.0002638143 13.466081)
(0.00030102858 0.00011755552 13.466495)
(-0.00011938664 6.7218519e-05 13.466466)
(-0.00019803536 5.8047959e-05 13.466322)
(-0.00019810101 4.8823017e-05 13.466157)
(-0.00016002088 1.9257001e-05 13.465987)
(-7.4445907e-05 8.5915989e-07 13.465899)
(-7.4500197e-06 5.2492533e-05 13.465871)
(0.00010173953 0.00028350226 13.465851)
(0.0002638143 0.00050325346 13.466081)
(0.00038899107 0.00038899107 13.466278)
(0.0002411616 0.00032457563 13.466636)
(-0.00013537125 0.00030776211 13.46659)
(-0.00020578451 0.00031053417 13.466445)
(-0.00022718675 0.00030994986 13.46627)
(-0.00021260972 0.00027686033 13.466053)
(-8.9752763e-05 0.00020552026 13.465909)
(1.805292e-06 0.000157055 13.465894)
(3.4863543e-05 0.00043775737 13.466379)
(0.00011755553 0.00030102858 13.466495)
(0.00032457563 0.0002411616 13.466636)
(0.00021979962 0.00021979962 13.466969)
(-0.0001334281 0.00022080725 13.466919)
(-0.00019584761 0.00023425728 13.466783)
(-0.00023177484 0.00025224805 13.466619)
(-0.00026445048 0.00025768285 13.466389)
(-0.00019425124 0.0002278303 13.466185)
(-3.9760194e-05 0.0001722866 13.46609)
(1.0586996e-05 -7.5863687e-05 13.466394)
(6.7218522e-05 -0.00011938664 13.466466)
(0.00030776211 -0.00013537126 13.46659)
(0.00022080725 -0.0001334281 13.466919)
(-0.00012091359 -0.00012091359 13.466875)
(-0.00017434371 -0.00010293031 13.466753)
(-0.00020376118 -7.9609097e-05 13.46661)
(-0.00023702747 -5.2770443e-05 13.466403)
(-0.00017514901 -2.8419703e-05 13.466215)
(-3.5223845e-05 -1.1241576e-05 13.466129)
(5.8482404e-06 -0.00018738901 13.466259)
(5.8047956e-05 -0.00019803536 13.466322)
(0.00031053417 -0.00020578451 13.466445)
(0.00023425728 -0.0001958476 13.466783)
(-0.00010293031 -0.00017434371 13.466753)
(-0.00015454311 -0.00015454311 13.466647)
(-0.00018161497 -0.00013626256 13.466519)
(-0.00021326109 -0.00011851211 13.46633)
(-0.00015272237 -0.00010202374 13.46616)
(-2.830811e-05 -8.9306258e-05 13.466087)
(3.4894242e-06 -0.00018839579 13.466102)
(4.8823014e-05 -0.000198101 13.466157)
(0.00030994987 -0.00022718674 13.46627)
(0.00025224805 -0.00023177485 13.466619)
(-7.9609097e-05 -0.00020376119 13.46661)
(-0.00013626255 -0.00018161498 13.466519)
(-0.00016773018 -0.00016773018 13.466404)
(-0.00020278866 -0.0001596743 13.466224)
(-0.00014594315 -0.00015568844 13.466059)
(-2.6745522e-05 -0.00015545687 13.465987)
(-6.2190111e-07 -0.00016464587 13.465949)
(1.9257004e-05 -0.00016002088 13.465987)
(0.00027686033 -0.00021260972 13.466053)
(0.00025768284 -0.00026445048 13.466389)
(-5.277044e-05 -0.00023702747 13.466403)
(-0.00011851211 -0.00021326108 13.46633)
(-0.0001596743 -0.00020278865 13.466224)
(-0.00020121934 -0.00020121934 13.466046)
(-0.00014850494 -0.00020282363 13.465879)
(-2.8153731e-05 -0.00020336169 13.465803)
(6.5727515e-06 -0.00012298829 13.465826)
(8.5916554e-07 -7.4445902e-05 13.465899)
(0.00020552026 -8.975276e-05 13.465909)
(0.0002278303 -0.00019425124 13.466185)
(-2.8419694e-05 -0.000175149 13.466215)
(-0.00010202374 -0.00015272237 13.46616)
(-0.00015568844 -0.00014594314 13.466059)
(-0.00020282364 -0.00014850494 13.465879)
(-0.00014808551 -0.0001480855 13.465713)
(-2.7104231e-05 -0.00013355678 13.46565)
(3.1739692e-05 -3.2616955e-05 13.465712)
(5.2492535e-05 -7.4500141e-06 13.465871)
(0.00015705499 1.805292e-06 13.465894)
(0.0001722866 -3.9760194e-05 13.46609)
(-1.1241573e-05 -3.5223845e-05 13.466129)
(-8.9306252e-05 -2.8308114e-05 13.466087)
(-0.00015545687 -2.6745522e-05 13.465987)
(-0.0002033617 -2.8153731e-05 13.465803)
(-0.00013355678 -2.7104229e-05 13.46565)
(-1.8467915e-05 -1.8467913e-05 13.465608)
(7.2046102e-05 7.2046102e-05 15.279737)
(2.1909387e-06 -0.00011395826 15.279961)
(0.00053657039 0.00017092773 15.280008)
(0.00065827959 7.3774142e-05 15.280449)
(-0.00013921053 3.8116408e-05 15.280454)
(-0.00033240824 3.1112487e-05 15.280322)
(-0.00034855846 2.5049025e-05 15.280154)
(-0.00030903768 1.3007123e-05 15.279978)
(-0.00025963589 3.7576795e-05 15.279855)
(-8.1193292e-05 9.9629657e-05 15.27971)
(-0.00011395826 2.1909415e-06 15.279961)
(0.00015051338 0.00015051337 15.279952)
(0.000818169 0.00048203006 15.280224)
(0.00045906261 0.00026738026 15.280573)
(-0.00020320301 0.0001927528 15.280546)
(-0.00035200931 0.00018038668 15.280408)
(-0.0003757165 0.00016090723 15.280227)
(-0.00029024603 9.2097207e-05 15.280014)
(-0.00012970209 6.4963999e-05 15.279934)
(-1.914043e-05 0.00017432146 15.279899)
(0.00017092772 0.00053657038 15.280008)
(0.00048203006 0.00081816899 15.280224)
(0.00065343727 0.00065343727 15.280438)
(0.00036900233 0.00055550957 15.280743)
(-0.00022620411 0.00053042793 15.280702)
(-0.00036425381 0.00053859678 15.280566)
(-0.00043684793 0.00053969321 15.280378)
(-0.00040498091 0.00047409028 15.280109)
(-0.00017741163 0.00034137502 15.279962)
(-8.2883162e-06 0.000262098 15.279941)
(7.377414e-05 0.00065827959 15.280449)
(0.00026738026 0.00045906261 15.280573)
(0.00055550958 0.00036900233 15.280743)
(0.00033605327 0.00033605327 15.281028)
(-0.0002201158 0.00033950656 15.280986)
(-0.00034274403 0.00036537357 15.280862)
(-0.000440223 0.00040023903 15.280687)
(-0.00048856422 0.00041161255 15.280406)
(-0.00034169437 0.00036278729 15.280204)
(-7.1991775e-05 0.00027785429 15.280116)
(3.8116406e-05 -0.00013921053 15.280454)
(0.0001927528 -0.000203203 15.280546)
(0.00053042793 -0.00022620411 15.280702)
(0.00033950656 -0.0002201158 15.280986)
(-0.0001968838 -0.0001968838 15.280952)
(-0.00030352135 -0.00016401584 15.280843)
(-0.00039060896 -0.00012191321 15.28069)
(-0.00044243264 -7.5322825e-05 15.280431)
(-0.00031116989 -3.5433044e-05 15.280243)
(-6.4910313e-05 -8.6241755e-06 15.280162)
(3.1112489e-05 -0.00033240824 15.280322)
(0.00018038669 -0.00035200931 15.280408)
(0.00053859678 -0.00036425381 15.280566)
(0.00036537357 -0.00034274403 15.280862)
(-0.00016401585 -0.00030352135 15.280843)
(-0.00026777344 -0.00026777346 15.28075)
(-0.00035152998 -0.00023530177 15.280613)
(-0.00040208405 -0.00020495848 15.280372)
(-0.00027499572 -0.0001785582 15.280199)
(-5.4119196e-05 -0.00016083848 15.280127)
(2.5049025e-05 -0.00034855846 15.280154)
(0.00016090723 -0.00037571651 15.280227)
(0.00053969321 -0.00043684794 15.280378)
(0.00040023902 -0.00044022301 15.280687)
(-0.00012191322 -0.00039060895 15.28069)
(-0.00023530177 -0.00035152998 15.280613)
(-0.00032779398 -0.000327794 15.280488)
(-0.00038568908 -0.00031538175 15.280254)
(-0.00026704989 -0.00031083966 15.280083)
(-5.3097165e-05 -0.00031408261 15.280008)
(1.3007123e-05 -0.00030903769 15.279978)
(9.209721e-05 -0.00029024602 15.280014)
(0.00047409028 -0.00040498091 15.280109)
(0.00041161255 -0.00048856422 15.280406)
(-7.5322822e-05 -0.00044243264 15.280431)
(-0.00020495849 -0.00040208404 15.280372)
(-0.00031538175 -0.00038568908 15.280254)
(-0.00038512972 -0.00038512972 15.280019)
(-0.00027369659 -0.00038641292 15.279844)
(-5.6281162e-05 -0.00037819537 15.279765)
(3.7576802e-05 -0.00025963588 15.279855)
(6.4964002e-05 -0.00012970208 15.279934)
(0.00034137501 -0.00017741163 15.279962)
(0.0003627873 -0.00034169436 15.280204)
(-3.5433044e-05 -0.00031116988 15.280243)
(-0.00017855821 -0.00027499571 15.280199)
(-0.00031083966 -0.00026704987 15.280083)
(-0.00038641292 -0.00027369658 15.279844)
(-0.00026011554 -0.00026011553 15.27968)
(-4.7618801e-05 -0.00022504238 15.279646)
(9.9629654e-05 -8.1193285e-05 15.27971)
(0.00017432146 -1.9140433e-05 15.279899)
(0.000262098 -8.2883143e-06 15.279941)
(0.0002778543 -7.1991775e-05 15.280116)
(-8.6241698e-06 -6.4910313e-05 15.280162)
(-0.00016083847 -5.4119192e-05 15.280127)
(-0.00031408262 -5.3097157e-05 15.280008)
(-0.00037819538 -5.628116e-05 15.279765)
(-0.00022504238 -4.7618797e-05 15.279646)
(-3.2899063e-05 -3.2899059e-05 15.279591)
(0.00014121513 0.00014121513 18.235301)
(0.00011771001 -0.00011760603 18.235485)
(0.00077103802 0.00024564672 18.235491)
(0.00088416139 0.00011790943 18.23597)
(-0.00020295047 7.1620288e-05 18.235983)
(-0.00048731718 6.3123307e-05 18.235845)
(-0.00053211424 5.1860964e-05 18.235657)
(-0.0004634299 2.3194787e-05 18.235441)
(-0.00039138923 5.8691883e-05 18.2353)
(-0.0001298117 0.00015765265 18.235145)
(-0.00011760603 0.00011771001 18.235485)
(0.00027435739 0.0002743574 18.235449)
(0.0011243112 0.00069404923 18.235715)
(0.00062312174 0.00041144028 18.236098)
(-0.00028512965 0.00031512203 18.236077)
(-0.00051695616 0.00030254036 18.235936)
(-0.00059200702 0.00027223266 18.235734)
(-0.00045318352 0.00014986311 18.235466)
(-0.00018970244 0.00010699897 18.235362)
(-3.0850939e-05 0.00028368682 18.235321)
(0.00024564672 0.00077103801 18.235491)
(0.00069404922 0.0011243112 18.235715)
(0.0009081209 0.0009081209 18.23592)
(0.00050523419 0.00077876749 18.236257)
(-0.00031185039 0.00074798161 18.236224)
(-0.00053020654 0.00076451424 18.236088)
(-0.00068479148 0.00076986599 18.23588)
(-0.00062866359 0.00066921957 18.235551)
(-0.00025756552 0.00047563936 18.235381)
(-1.2019804e-05 0.00037452044 18.235367)
(0.00011790942 0.00088416138 18.23597)
(0.00041144027 0.00062312175 18.236098)
(0.00077876749 0.00050523419 18.236257)
(0.00046298246 0.00046298245 18.236574)
(-0.0002993829 0.00047083325 18.236542)
(-0.00049507178 0.00051106722 18.23642)
(-0.00068730169 0.00056441642 18.236227)
(-0.00074741015 0.00058035221 18.235883)
(-0.00048440156 0.0005094135 18.23565)
(-9.8263556e-05 0.00039329866 18.235563)
(7.1620292e-05 -0.00020295047 18.235983)
(0.00031512203 -0.00028512965 18.236077)
(0.0007479816 -0.00031185039 18.236224)
(0.00047083324 -0.00029938291 18.236542)
(-0.00026376563 -0.00026376562 18.236521)
(-0.00043662336 -0.00021468568 18.236415)
(-0.0006155065 -0.00015286542 18.236246)
(-0.00068366651 -8.695857e-05 18.235924)
(-0.00044461906 -3.3512859e-05 18.235703)
(-8.9429697e-05 1.1800699e-07 18.235621)
(6.3123307e-05 -0.00048731718 18.235845)
(0.00030254036 -0.00051695617 18.235936)
(0.00076451423 -0.00053020654 18.236088)
(0.00051106722 -0.00049507178 18.23642)
(-0.00021468568 -0.00043662336 18.236415)
(-0.00038417157 -0.00038417157 18.236327)
(-0.00055957458 -0.00033758632 18.236175)
(-0.00062805759 -0.00029592864 18.23587)
(-0.00039732499 -0.00026225674 18.235663)
(-7.5842979e-05 -0.0002435666 18.235588)
(5.1860964e-05 -0.00053211424 18.235657)
(0.00027223267 -0.00059200702 18.235734)
(0.00076986599 -0.00068479149 18.23588)
(0.00056441642 -0.00068730169 18.236227)
(-0.00015286542 -0.0006155065 18.236246)
(-0.00033758633 -0.00055957458 18.236175)
(-0.00052726357 -0.00052726357 18.236034)
(-0.00060833692 -0.00051288731 18.235734)
(-0.00039225702 -0.00051008518 18.235526)
(-7.6969602e-05 -0.00051802815 18.235441)
(2.3194785e-05 -0.0004634299 18.235441)
(0.00014986311 -0.00045318351 18.235466)
(0.00066921956 -0.00062866359 18.235551)
(0.0005803522 -0.00074741015 18.235883)
(-8.6958573e-05 -0.0006836665 18.235924)
(-0.00029592865 -0.00062805759 18.23587)
(-0.00051288731 -0.00060833692 18.235734)
(-0.0006108792 -0.0006108792 18.23543)
(-0.00040246583 -0.00060546036 18.235215)
(-8.1138292e-05 -0.00056512941 18.235127)
(5.8691885e-05 -0.00039138923 18.2353)
(0.00010699897 -0.00018970244 18.235362)
(0.00047563936 -0.00025756552 18.235381)
(0.00050941351 -0.00048440156 18.23565)
(-3.3512859e-05 -0.00044461906 18.235703)
(-0.00026225675 -0.00039732497 18.235663)
(-0.00051008518 -0.000392257 18.235526)
(-0.00060546037 -0.00040246582 18.235215)
(-0.00034650724 -0.00034650722 18.235022)
(-5.0082302e-05 -0.00030689915 18.235026)
(0.00015765265 -0.00012981171 18.235145)
(0.00028368682 -3.0850943e-05 18.235321)
(0.00037452044 -1.2019806e-05 18.235367)
(0.00039329867 -9.8263556e-05 18.235563)
(1.1801541e-07 -8.9429703e-05 18.235621)
(-0.00024356659 -7.5842974e-05 18.235588)
(-0.00051802815 -7.6969597e-05 18.235441)
(-0.00056512941 -8.113829e-05 18.235127)
(-0.00030689916 -5.0082294e-05 18.235026)
(-5.4732916e-05 -5.4732908e-05 18.234959)
(0.00019461736 0.00019461736 22.476447)
(0.00019157664 -0.00013806704 22.47661)
(0.0010218564 0.00032075993 22.476592)
(0.0011504928 0.00015876027 22.477156)
(-0.00026442233 0.00010095692 22.477183)
(-0.00065822294 9.1767695e-05 22.477037)
(-0.0007531907 7.6283934e-05 22.476825)
(-0.00066655641 3.005484e-05 22.476564)
(-0.00055518237 7.9036558e-05 22.476382)
(-0.00018420203 0.00021684466 22.476206)
(-0.00013806704 0.00019157664 22.47661)
(0.0003807905 0.0003807905 22.476536)
(0.0014670974 0.00091166214 22.476833)
(0.00082078828 0.00055358178 22.477286)
(-0.0003649112 0.00043429232 22.477276)
(-0.00069523243 0.00042351738 22.477128)
(-0.00084575999 0.00038380361 22.476903)
(-0.00066242747 0.00020260109 22.476586)
(-0.00027499764 0.00014593242 22.476448)
(-4.6393931e-05 0.00039613406 22.476398)
(0.00032075993 0.0010218564 22.476592)
(0.00091166214 0.0014670974 22.476833)
(0.0011946477 0.0011946477 22.477062)
(0.00067312297 0.0010315745 22.477463)
(-0.00039448674 0.00099573906 22.477441)
(-0.00070871165 0.0010224922 22.477299)
(-0.000974107 0.0010326696 22.477067)
(-0.0009044276 0.00089086775 22.476679)
(-0.0003616494 0.00062934199 22.476468)
(-1.740094e-05 0.00050397115 22.476449)
(0.00015876027 0.0011504928 22.477156)
(0.00055358178 0.00082078828 22.477286)
(0.0010315745 0.00067312297 22.477463)
(0.00062187966 0.00062187966 22.477845)
(-0.00037399347 0.0006356131 22.477824)
(-0.00065830187 0.00069228178 22.477698)
(-0.00097738441 0.00076579223 22.477482)
(-0.0010657551 0.00078444784 22.477074)
(-0.00066189424 0.00068573246 22.476788)
(-0.00012997449 0.00053186695 22.476683)
(0.00010095693 -0.00026442233 22.477183)
(0.00043429232 -0.0003649112 22.477276)
(0.00099573906 -0.00039448673 22.477441)
(0.0006356131 -0.00037399347 22.477824)
(-0.00032408462 -0.00032408461 22.477815)
(-0.00057853251 -0.00025696309 22.477708)
(-0.00088194094 -0.00017383036 22.477518)
(-0.00098448737 -8.8145077e-05 22.477134)
(-0.00061423029 -2.2170982e-05 22.47686)
(-0.00011997795 1.6405309e-05 22.476758)
(9.1767693e-05 -0.00065822294 22.477037)
(0.00042351738 -0.00069523243 22.477128)
(0.0010224922 -0.00070871165 22.477299)
(0.00069228178 -0.00065830187 22.477698)
(-0.00025696309 -0.00057853252 22.477708)
(-0.00050804762 -0.00050804762 22.477619)
(-0.0008085664 -0.00044698468 22.477449)
(-0.00091409573 -0.0003949678 22.477082)
(-0.00055734386 -0.00035647664 22.476821)
(-0.00010425696 -0.00034056414 22.476724)
(7.6283933e-05 -0.00075319071 22.476825)
(0.00038380361 -0.00084575999 22.476903)
(0.0010326696 -0.000974107 22.477067)
(0.00076579223 -0.00097738442 22.477482)
(-0.00017383036 -0.00088194094 22.477518)
(-0.00044698467 -0.00080856641 22.477449)
(-0.00076886112 -0.00076886112 22.477289)
(-0.00089397934 -0.00075567914 22.476926)
(-0.00055982663 -0.00075882751 22.47666)
(-0.00010936962 -0.00077491979 22.476549)
(3.0054838e-05 -0.00066655641 22.476564)
(0.00020260109 -0.00066242748 22.476586)
(0.00089086775 -0.0009044276 22.476679)
(0.00078444784 -0.0010657551 22.477074)
(-8.8145083e-05 -0.00098448737 22.477134)
(-0.0003949678 -0.00091409572 22.477082)
(-0.00075567913 -0.00089397934 22.476926)
(-0.00090406211 -0.00090406211 22.476554)
(-0.00057658451 -0.00088971657 22.476277)
(-0.00011498515 -0.00079305547 22.476159)
(7.9036556e-05 -0.00055518238 22.476382)
(0.00014593242 -0.00027499764 22.476448)
(0.00062934199 -0.0003616494 22.476468)
(0.00068573247 -0.00066189425 22.476788)
(-2.2170977e-05 -0.0006142303 22.47686)
(-0.00035647665 -0.00055734384 22.476821)
(-0.0007588275 -0.00055982663 22.47666)
(-0.00088971656 -0.00057658451 22.476277)
(-0.00044881999 -0.00044881999 22.476027)
(-4.4928885e-05 -0.00039297758 22.476041)
(0.00021684466 -0.00018420204 22.476206)
(0.00039613406 -4.6393931e-05 22.476398)
(0.00050397115 -1.7400942e-05 22.476449)
(0.00053186695 -0.00012997449 22.476683)
(1.640532e-05 -0.00011997795 22.476758)
(-0.00034056413 -0.00010425696 22.476724)
(-0.00077491979 -0.00010936961 22.476549)
(-0.00079305547 -0.00011498515 22.476159)
(-0.00039297758 -4.4928887e-05 22.476041)
(-7.7756878e-05 -7.775688e-05 22.475966)
(0.00024994137 0.00024994138 28.201708)
(0.00026262886 -0.00016701607 28.201889)
(0.0013169166 0.00040646851 28.201864)
(0.0014754747 0.0002048506 28.202539)
(-0.00032228095 0.00013372189 28.202585)
(-0.00084570149 0.00012382977 28.202425)
(-0.001004836 0.00010376619 28.202187)
(-0.00090672281 3.7826942e-05 28.201885)
(-0.00074889194 0.00010321979 28.201667)
(-0.00024657292 0.00028516058 28.201464)
(-0.00016701607 0.00026262886 28.201889)
(0.00049741956 0.00049741956 28.201795)
(0.0018747166 0.0011639697 28.202146)
(0.0010663547 0.0007189698 28.202692)
(-0.00044381219 0.00057332836 28.202694)
(-0.00089063505 0.00056473729 28.202532)
(-0.0011338402 0.00051410091 28.202278)
(-0.0009075424 0.00026476426 28.201912)
(-0.00037789148 0.00019309891 28.201748)
(-6.4632136e-05 0.00052672714 28.201688)
(0.00040646851 0.0013169166 28.201864)
(0.0011639697 0.0018747166 28.202146)
(0.0015384669 0.0015384669 28.202419)
(0.00088483328 0.0013371321 28.202906)
(-0.00047651346 0.0012959019 28.202894)
(-0.00090492893 0.0013343414 28.202739)
(-0.001304809 0.0013490479 28.202476)
(-0.0012277248 0.0011573422 28.202025)
(-0.00048692906 0.00081529063 28.201774)
(-2.4154101e-05 0.00065955275 28.201751)
(0.00020485059 0.0014754746 28.202539)
(0.00071896979 0.0010663547 28.202692)
(0.0013371321 0.00088483328 28.202906)
(0.00082378978 0.00082378977 28.203369)
(-0.00044660289 0.00084460723 28.20336)
(-0.00083748904 0.00092003847 28.203223)
(-0.0013108394 0.0010158604 28.202978)
(-0.0014412997 0.0010355109 28.202501)
(-0.00087568092 0.00090193559 28.20216)
(-0.00016845739 0.00070151831 28.202032)
(0.0001337219 -0.00032228094 28.202585)
(0.00057332836 -0.00044381219 28.202694)
(0.0012959019 -0.00047651346 28.202894)
(0.00084460723 -0.00044660289 28.20336)
(-0.00038026476 -0.00038026477 28.203364)
(-0.00073367572 -0.00029276126 28.203249)
(-0.0011893366 -0.00018595021 28.203033)
(-0.0013416497 -7.8994674e-05 28.202583)
(-0.00082092163 -5.2146159e-07 28.202253)
(-0.00015776562 4.1907217e-05 28.202127)
(0.00012382976 -0.00084570148 28.202425)
(0.00056473728 -0.00089063505 28.202532)
(0.0013343414 -0.00090492893 28.202739)
(0.00092003847 -0.00083748904 28.203223)
(-0.00029276126 -0.00073367572 28.203249)
(-0.00064317448 -0.00064317449 28.203156)
(-0.0010970728 -0.00056656401 28.202961)
(-0.0012558709 -0.00050427592 28.202529)
(-0.00075477903 -0.00046244708 28.202213)
(-0.0001401716 -0.000452199 28.202093)
(0.00010376618 -0.001004836 28.202187)
(0.00051410091 -0.0011338402 28.202278)
(0.0013490479 -0.001304809 28.202476)
(0.0010158604 -0.0013108394 28.202978)
(-0.00018595021 -0.0011893366 28.203033)
(-0.00056656401 -0.0010970728 28.202961)
(-0.001050438 -0.001050438 28.202778)
(-0.0012375327 -0.0010409917 28.202348)
(-0.00076884471 -0.0010543369 28.202025)
(-0.00015093357 -0.0010837003 28.201886)
(3.7826942e-05 -0.00090672282 28.201885)
(0.00026476426 -0.0009075424 28.201912)
(0.0011573422 -0.0012277248 28.202025)
(0.0010355109 -0.0014412997 28.202501)
(-7.8994674e-05 -0.0013416497 28.202583)
(-0.00050427592 -0.0012558709 28.202529)
(-0.0010409917 -0.0012375327 28.202348)
(-0.0012597698 -0.0012597698 28.201908)
(-0.00079748759 -0.0012384935 28.201568)
(-0.00015974719 -0.0010733796 28.201417)
(0.00010321979 -0.00074889194 28.201667)
(0.00019309891 -0.00037789148 28.201748)
(0.00081529064 -0.00048692905 28.201774)
(0.00090193559 -0.00087568092 28.20216)
(-5.2146443e-07 -0.00082092163 28.202253)
(-0.00046244708 -0.00075477903 28.202213)
(-0.0010543369 -0.0007688447 28.202025)
(-0.0012384935 -0.00079748758 28.201568)
(-0.00058245444 -0.00058245444 28.201258)
(-4.0857626e-05 -0.00049930698 28.201266)
(0.00028516058 -0.00024657292 28.201464)
(0.00052672714 -6.4632136e-05 28.201688)
(0.00065955275 -2.4154099e-05 28.201751)
(0.00070151831 -0.00016845739 28.202032)
(4.1907219e-05 -0.00015776562 28.202127)
(-0.000452199 -0.0001401716 28.202093)
(-0.0010837003 -0.00015093356 28.201886)
(-0.0010733796 -0.00015974719 28.201417)
(-0.00049930698 -4.0857625e-05 28.201266)
(-0.00010431555 -0.00010431555 28.201177)
(0.00031487917 0.00031487917 35.665167)
(0.00034752396 -0.00020084628 35.66538)
(0.001672074 0.00050836311 35.665357)
(0.0018710016 0.00026062241 35.666162)
(-0.00037811842 0.00017387703 35.666228)
(-0.0010563786 0.00016300738 35.66605)
(-0.0012934988 0.00013732987 35.665776)
(-0.0011862482 4.8237712e-05 35.665425)
(-0.00097655804 0.00013295803 35.665169)
(-0.00031978757 0.00036658552 35.664929)
(-0.00020084628 0.00034752396 35.66538)
(0.00063774987 0.00063774986 35.665273)
(0.0023642771 0.0014663432 35.665691)
(0.0013692725 0.00092031706 35.666346)
(-0.00052454097 0.0007438715 35.666362)
(-0.0011111993 0.0007373736 35.666181)
(-0.0014656533 0.00067290408 35.665888)
(-0.0011928059 0.00034260829 35.665461)
(-0.00049903634 0.00025262071 35.665267)
(-8.6160086e-05 0.00068362823 35.665197)
(0.0005083631 0.0016720741 35.665357)
(0.0014663432 0.0023642771 35.665691)
(0.0019546412 0.0019546412 35.66602)
(0.0011485299 0.0017090732 35.666607)
(-0.00056106188 0.0016616384 35.666606)
(-0.001127346 0.0017133165 35.666433)
(-0.0016882641 0.0017320733 35.666127)
(-0.0016065315 0.0014797646 35.665599)
(-0.00063553811 0.0010409856 35.665302)
(-3.2449232e-05 0.00084786078 35.665274)
(0.0002606224 0.0018710016 35.666162)
(0.00092031704 0.0013692725 35.666346)
(0.0017090732 0.0011485299 35.666607)
(0.0010762697 0.0010762697 35.667167)
(-0.00052029763 0.0011053448 35.667169)
(-0.0010407644 0.0012022834 35.667016)
(-0.0016992053 0.001323178 35.666731)
(-0.0018838936 0.0013421758 35.66617)
(-0.0011309401 0.0011653943 35.665764)
(-0.00021490996 0.00090815317 35.665611)
(0.00017387703 -0.00037811843 35.666228)
(0.0007438715 -0.00052454096 35.666362)
(0.0016616384 -0.00056106188 35.666606)
(0.0011053448 -0.00052029763 35.667169)
(-0.00043504824 -0.00043504823 35.667187)
(-0.00090951283 -0.00032427288 35.667059)
(-0.0015483717 -0.00019066358 35.666807)
(-0.0017643152 -6.00921e-05 35.666276)
(-0.0010695608 3.152652e-05 35.665882)
(-0.00020394331 7.717924e-05 35.665729)
(0.00016300738 -0.0010563786 35.66605)
(0.00073737359 -0.0011111993 35.666181)
(0.0017133165 -0.001127346 35.666433)
(0.0012022834 -0.0010407644 35.667016)
(-0.00032427288 -0.00090951283 35.667059)
(-0.00079637978 -0.00079637977 35.666956)
(-0.0014350245 -0.00070252104 35.666728)
(-0.0016617035 -0.00062931906 35.666218)
(-0.00099366879 -0.000584763 35.665839)
(-0.00018447481 -0.0005821565 35.665692)
(0.00013732987 -0.0012934988 35.665776)
(0.00067290407 -0.0014656533 35.665888)
(0.0017320733 -0.0016882641 35.666127)
(0.001323178 -0.0016992053 35.666731)
(-0.00019066357 -0.0015483717 35.666807)
(-0.00070252104 -0.0014350245 35.666728)
(-0.001381311 -0.001381311 35.666513)
(-0.0016465572 -0.0013773738 35.666005)
(-0.0010223982 -0.0014040201 35.665616)
(-0.00020220564 -0.001450576 35.665446)
(4.823771e-05 -0.0011862482 35.665425)
(0.00034260829 -0.0011928059 35.665461)
(0.0014797646 -0.0016065315 35.665599)
(0.0013421758 -0.0018838936 35.66617)
(-6.00921e-05 -0.0017643152 35.666276)
(-0.00062931906 -0.0016617035 35.666218)
(-0.0013773738 -0.0016465572 35.666005)
(-0.0016844127 -0.0016844127 35.665482)
(-0.001066871 -0.0016570198 35.665073)
(-0.00021551208 -0.0014133497 35.664889)
(0.00013295803 -0.00097655804 35.665169)
(0.00025262071 -0.00049903633 35.665267)
(0.0010409856 -0.0006355381 35.665302)
(0.0011653943 -0.0011309401 35.665764)
(3.1526528e-05 -0.0010695608 35.665882)
(-0.000584763 -0.00099366879 35.665839)
(-0.0014040201 -0.0010223982 35.665616)
(-0.0016570198 -0.001066871 35.665073)
(-0.00075133523 -0.00075133523 35.664698)
(-3.975891e-05 -0.00063309747 35.664698)
(0.00036658552 -0.00031978758 35.664929)
(0.00068362823 -8.6160084e-05 35.665197)
(0.00084786078 -3.2449229e-05 35.665274)
(0.00090815317 -0.00021490995 35.665611)
(7.7179237e-05 -0.00020394331 35.665729)
(-0.00058215649 -0.00018447481 35.665692)
(-0.001450576 -0.00020220564 35.665446)
(-0.0014133497 -0.00021551208 35.664889)
(-0.00063309747 -3.9758911e-05 35.664698)
(-0.00013668691 -0.00013668691 35.66459)
(0.00039233166 0.00039233166 45.177007)
(0.0004523419 -0.00023893171 45.177261)
(0.0020979356 0.00062930868 45.17724)
(0.0023467732 0.00032804262 45.178192)
(-0.00043383252 0.00022308316 45.17828)
(-0.0012976726 0.00021092235 45.178079)
(-0.0016295612 0.00017828476 45.17776)
(-0.0015139895 6.1617701e-05 45.177349)
(-0.0012454549 0.00016907734 45.177047)
(-0.00040657897 0.00046378984 45.176762)
(-0.00023893171 0.00045234191 45.177261)
(0.00080780744 0.00080780744 45.17714)
(0.0029483971 0.0018274043 45.177634)
(0.0017374349 0.0011642304 45.178413)
(-0.00060951291 0.00095190478 45.178443)