/*--------------------------------*- C++ -*----------------------------------*\
| =========                 |                                                 |
| \\      /  F ield         | OpenFOAM: The Open Source CFD Toolbox           |
|  \\    /   O peration     | Version:  v2106                                 |
|   \\  /    A nd           | Website:  www.openfoam.com                      |
|    \\/     M anipulation  |                                                 |
\*---------------------------------------------------------------------------*/
FoamFile
{
    version     2.0;
    format      ascii;
    arch        "LSB;label=32;scalar=64";
    class       volScalarField;
    location    "5";
    object      gradTy;
}
// * * * * * * * * * * * * * * * * * * * * * * * * * * * * * * * * * * * * * //

dimensions      [0 -1 0 1 0 0 0];

internalField   nonuniform List<scalar> 
4000
(
-4.1410052e-06
-5.9838436e-05
1.7925248e-05
-2.971304e-06
-9.8286174e-06
-1.1032444e-05
-1.1407476e-05
-1.2144562e-05
-1.1448003e-05
-5.9526504e-06
-6.7157958e-05
-3.4058579e-05
5.460733e-05
1.0479843e-05
-2.9136601e-06
-5.0533345e-06
-6.5925689e-06
-1.2110527e-05
-1.7831405e-05
-7.7556138e-06
5.3094371e-05
0.00013839508
9.7632801e-05
8.0727233e-05
7.7157318e-05
7.7885343e-05
7.8055305e-05
7.1955697e-05
5.6129696e-05
4.2654349e-05
0.00011540176
7.3770963e-05
5.7880766e-05
5.3295477e-05
5.3716991e-05
5.6561095e-05
6.0408612e-05
6.2187374e-05
5.6523854e-05
4.3751166e-05
-1.8966429e-05
-3.105815e-05
-3.4499615e-05
-3.3900037e-05
-3.1233995e-05
-2.7556365e-05
-2.2737225e-05
-1.6816657e-05
-1.0734649e-05
-5.7036772e-06
-4.0647362e-05
-4.3015652e-05
-4.4326262e-05
-4.2117662e-05
-3.7634649e-05
-3.3620893e-05
-2.990771e-05
-2.6200902e-05
-2.254842e-05
-1.9445835e-05
-3.8397869e-05
-4.0066047e-05
-4.5455059e-05
-4.5995694e-05
-3.9828782e-05
-3.5255985e-05
-3.2408789e-05
-3.0710765e-05
-2.9804781e-05
-2.9580897e-05
-3.2586837e-05
-3.2647634e-05
-4.3825676e-05
-5.457324e-05
-4.7710438e-05
-4.2570659e-05
-4.0351145e-05
-3.996665e-05
-4.0388863e-05
-4.0916677e-05
-2.2939435e-05
-1.3651558e-05
-1.8584512e-05
-4.2952908e-05
-3.7020726e-05
-3.1839929e-05
-3.0265662e-05
-3.0710066e-05
-3.1215683e-05
-3.0158827e-05
-5.6203116e-06
-1.2495131e-07
1.0968866e-06
-9.1085193e-06
-7.4182367e-06
-5.7545397e-06
-5.3498487e-06
-5.605286e-06
-5.7017246e-06
-4.9007118e-06
-8.4430629e-06
-0.00011163726
0.00010173953
3.4863543e-05
1.0586996e-05
5.8482404e-06
3.489428e-06
-6.21903e-07
6.5727514e-06
3.1739688e-05
-0.00015320717
1.2066718e-05
0.0002638143
0.00011755552
6.7218519e-05
5.8047959e-05
4.8823017e-05
1.9257001e-05
8.5915989e-07
5.2492533e-05
0.00028350226
0.00050325346
0.00038899107
0.00032457563
0.00030776211
0.00031053417
0.00030994986
0.00027686033
0.00020552026
0.000157055
0.00043775737
0.00030102858
0.0002411616
0.00021979962
0.00022080725
0.00023425728
0.00025224805
0.00025768285
0.0002278303
0.0001722866
-7.5863687e-05
-0.00011938664
-0.00013537126
-0.0001334281
-0.00012091359
-0.00010293031
-7.9609097e-05
-5.2770443e-05
-2.8419703e-05
-1.1241576e-05
-0.00018738901
-0.00019803536
-0.00020578451
-0.0001958476
-0.00017434371
-0.00015454311
-0.00013626256
-0.00011851211
-0.00010202374
-8.9306258e-05
-0.00018839579
-0.000198101
-0.00022718674
-0.00023177485
-0.00020376119
-0.00018161498
-0.00016773018
-0.0001596743
-0.00015568844
-0.00015545687
-0.00016464587
-0.00016002088
-0.00021260972
-0.00026445048
-0.00023702747
-0.00021326108
-0.00020278865
-0.00020121934
-0.00020282363
-0.00020336169
-0.00012298829
-7.4445902e-05
-8.975276e-05
-0.00019425124
-0.000175149
-0.00015272237
-0.00014594314
-0.00014850494
-0.0001480855
-0.00013355678
-3.2616955e-05
-7.4500141e-06
1.805292e-06
-3.9760194e-05
-3.5223845e-05
-2.8308114e-05
-2.6745522e-05
-2.8153731e-05
-2.7104229e-05
-1.8467913e-05
7.2046102e-05
-0.00011395826
0.00017092773
7.3774142e-05
3.8116408e-05
3.1112487e-05
2.5049025e-05
1.3007123e-05
3.7576795e-05
9.9629657e-05
2.1909415e-06
0.00015051337
0.00048203006
0.00026738026
0.0001927528
0.00018038668
0.00016090723
9.2097207e-05
6.4963999e-05
0.00017432146
0.00053657038
0.00081816899
0.00065343727
0.00055550957
0.00053042793
0.00053859678
0.00053969321
0.00047409028
0.00034137502
0.000262098
0.00065827959
0.00045906261
0.00036900233
0.00033605327
0.00033950656
0.00036537357
0.00040023903
0.00041161255
0.00036278729
0.00027785429
-0.00013921053
-0.000203203
-0.00022620411
-0.0002201158
-0.0001968838
-0.00016401584
-0.00012191321
-7.5322825e-05
-3.5433044e-05
-8.6241755e-06
-0.00033240824
-0.00035200931
-0.00036425381
-0.00034274403
-0.00030352135
-0.00026777346
-0.00023530177
-0.00020495848
-0.0001785582
-0.00016083848
-0.00034855846
-0.00037571651
-0.00043684794
-0.00044022301
-0.00039060895
-0.00035152998
-0.000327794
-0.00031538175
-0.00031083966
-0.00031408261
-0.00030903769
-0.00029024602
-0.00040498091
-0.00048856422
-0.00044243264
-0.00040208404
-0.00038568908
-0.00038512972
-0.00038641292
-0.00037819537
-0.00025963588
-0.00012970208
-0.00017741163
-0.00034169436
-0.00031116988
-0.00027499571
-0.00026704987
-0.00027369658
-0.00026011553
-0.00022504238
-8.1193285e-05
-1.9140433e-05
-8.2883143e-06
-7.1991775e-05
-6.4910313e-05
-5.4119192e-05
-5.3097157e-05
-5.628116e-05
-4.7618797e-05
-3.2899059e-05
0.00014121513
-0.00011760603
0.00024564672
0.00011790943
7.1620288e-05
6.3123307e-05
5.1860964e-05
2.3194787e-05
5.8691883e-05
0.00015765265
0.00011771001
0.0002743574
0.00069404923
0.00041144028
0.00031512203
0.00030254036
0.00027223266
0.00014986311
0.00010699897
0.00028368682
0.00077103801
0.0011243112
0.0009081209
0.00077876749
0.00074798161
0.00076451424
0.00076986599
0.00066921957
0.00047563936
0.00037452044
0.00088416138
0.00062312175
0.00050523419
0.00046298245
0.00047083325
0.00051106722
0.00056441642
0.00058035221
0.0005094135
0.00039329866
-0.00020295047
-0.00028512965
-0.00031185039
-0.00029938291
-0.00026376562
-0.00021468568
-0.00015286542
-8.695857e-05
-3.3512859e-05
1.1800699e-07
-0.00048731718
-0.00051695617
-0.00053020654
-0.00049507178
-0.00043662336
-0.00038417157
-0.00033758632
-0.00029592864
-0.00026225674
-0.0002435666
-0.00053211424
-0.00059200702
-0.00068479149
-0.00068730169
-0.0006155065
-0.00055957458
-0.00052726357
-0.00051288731
-0.00051008518
-0.00051802815
-0.0004634299
-0.00045318351
-0.00062866359
-0.00074741015
-0.0006836665
-0.00062805759
-0.00060833692
-0.0006108792
-0.00060546036
-0.00056512941
-0.00039138923
-0.00018970244
-0.00025756552
-0.00048440156
-0.00044461906
-0.00039732497
-0.000392257
-0.00040246582
-0.00034650722
-0.00030689915
-0.00012981171
-3.0850943e-05
-1.2019806e-05
-9.8263556e-05
-8.9429703e-05
-7.5842974e-05
-7.6969597e-05
-8.113829e-05
-5.0082294e-05
-5.4732908e-05
0.00019461736
-0.00013806704
0.00032075993
0.00015876027
0.00010095692
9.1767695e-05
7.6283934e-05
3.005484e-05
7.9036558e-05
0.00021684466
0.00019157664
0.0003807905
0.00091166214
0.00055358178
0.00043429232
0.00042351738
0.00038380361
0.00020260109
0.00014593242
0.00039613406
0.0010218564
0.0014670974
0.0011946477
0.0010315745
0.00099573906
0.0010224922
0.0010326696
0.00089086775
0.00062934199
0.00050397115
0.0011504928
0.00082078828
0.00067312297
0.00062187966
0.0006356131
0.00069228178
0.00076579223
0.00078444784
0.00068573246
0.00053186695
-0.00026442233
-0.0003649112
-0.00039448673
-0.00037399347
-0.00032408461
-0.00025696309
-0.00017383036
-8.8145077e-05
-2.2170982e-05
1.6405309e-05
-0.00065822294
-0.00069523243
-0.00070871165
-0.00065830187
-0.00057853252
-0.00050804762
-0.00044698468
-0.0003949678
-0.00035647664
-0.00034056414
-0.00075319071
-0.00084575999
-0.000974107
-0.00097738442
-0.00088194094
-0.00080856641
-0.00076886112
-0.00075567914
-0.00075882751
-0.00077491979
-0.00066655641
-0.00066242748
-0.0009044276
-0.0010657551
-0.00098448737
-0.00091409572
-0.00089397934
-0.00090406211
-0.00088971657
-0.00079305547
-0.00055518238
-0.00027499764
-0.0003616494
-0.00066189425
-0.0006142303
-0.00055734384
-0.00055982663
-0.00057658451
-0.00044881999
-0.00039297758
-0.00018420204
-4.6393931e-05
-1.7400942e-05
-0.00012997449
-0.00011997795
-0.00010425696
-0.00010936961
-0.00011498515
-4.4928887e-05
-7.775688e-05
0.00024994138
-0.00016701607
0.00040646851
0.0002048506
0.00013372189
0.00012382977
0.00010376619
3.7826942e-05
0.00010321979
0.00028516058
0.00026262886
0.00049741956
0.0011639697
0.0007189698
0.00057332836
0.00056473729
0.00051410091
0.00026476426
0.00019309891
0.00052672714
0.0013169166
0.0018747166
0.0015384669
0.0013371321
0.0012959019
0.0013343414
0.0013490479
0.0011573422
0.00081529063
0.00065955275
0.0014754746
0.0010663547
0.00088483328
0.00082378977
0.00084460723
0.00092003847
0.0010158604
0.0010355109
0.00090193559
0.00070151831
-0.00032228094
-0.00044381219
-0.00047651346
-0.00044660289
-0.00038026477
-0.00029276126
-0.00018595021
-7.8994674e-05
-5.2146159e-07
4.1907217e-05
-0.00084570148
-0.00089063505
-0.00090492893
-0.00083748904
-0.00073367572
-0.00064317449
-0.00056656401
-0.00050427592
-0.00046244708
-0.000452199
-0.001004836
-0.0011338402
-0.001304809
-0.0013108394
-0.0011893366
-0.0010970728
-0.001050438
-0.0010409917
-0.0010543369
-0.0010837003
-0.00090672282
-0.0009075424
-0.0012277248
-0.0014412997
-0.0013416497
-0.0012558709
-0.0012375327
-0.0012597698
-0.0012384935
-0.0010733796
-0.00074889194
-0.00037789148
-0.00048692905
-0.00087568092
-0.00082092163
-0.00075477903
-0.0007688447
-0.00079748758
-0.00058245444
-0.00049930698
-0.00024657292
-6.4632136e-05
-2.4154099e-05
-0.00016845739
-0.00015776562
-0.0001401716
-0.00015093356
-0.00015974719
-4.0857625e-05
-0.00010431555
0.00031487917
-0.00020084628
0.00050836311
0.00026062241
0.00017387703
0.00016300738
0.00013732987
4.8237712e-05
0.00013295803
0.00036658552
0.00034752396
0.00063774986
0.0014663432
0.00092031706
0.0007438715
0.0007373736
0.00067290408
0.00034260829
0.00025262071
0.00068362823
0.0016720741
0.0023642771
0.0019546412
0.0017090732
0.0016616384
0.0017133165
0.0017320733
0.0014797646
0.0010409856
0.00084786078
0.0018710016
0.0013692725
0.0011485299
0.0010762697
0.0011053448
0.0012022834
0.001323178
0.0013421758
0.0011653943
0.00090815317
-0.00037811843
-0.00052454096
-0.00056106188
-0.00052029763
-0.00043504823
-0.00032427288
-0.00019066358
-6.00921e-05
3.152652e-05
7.717924e-05
-0.0010563786
-0.0011111993
-0.001127346
-0.0010407644
-0.00090951283
-0.00079637977
-0.00070252104
-0.00062931906
-0.000584763
-0.0005821565
-0.0012934988
-0.0014656533
-0.0016882641
-0.0016992053
-0.0015483717
-0.0014350245
-0.001381311
-0.0013773738
-0.0014040201
-0.001450576
-0.0011862482
-0.0011928059
-0.0016065315
-0.0018838936
-0.0017643152
-0.0016617035
-0.0016465572
-0.0016844127
-0.0016570198
-0.0014133497
-0.00097655804
-0.00049903633
-0.0006355381
-0.0011309401
-0.0010695608
-0.00099366879
-0.0010223982
-0.001066871
-0.00075133523
-0.00063309747
-0.00031978758
-8.6160084e-05
-3.2449229e-05
-0.00021490995
-0.00020394331
-0.00018447481
-0.00020220564
-0.00021551208
-3.9758911e-05
-0.00013668691
0.00039233166
-0.00023893171
0.00062930868
0.00032804262
0.00022308316
0.00021092235
0.00017828476
6.1617701e-05
0.00016907734
0.00046378984
0.00045234191
0.00080780744
0.0018274043
0.0011642304
0.00095190478
0.00094743318
0.00086552864
0.00043848245
0.00032608169
0.00087210471
0.0020979356
0.0029483971
0.0024543586
0.0021576206
0.0021030208
0.0021698111
0.0021921474
0.0018665808
0.0013119111
0.0010739085
0.0023467732
0.0017374349
0.0014712736
0.0013860971
0.0014247782
0.001546502
0.0016958654
0.0017124466
0.0014827445
0.0011569543
-0.00043383252
-0.0006095129
-0.00065062972
-0.00059732239
-0.00049022485
-0.00035270027
-0.00018846761
-3.1304984e-05
7.4410991e-05
0.0001227069
-0.0012976726
-0.0013648702
-0.0013840487
-0.0012757435
-0.0011129616
-0.00097398625
-0.00086068394
-0.0007755187
-0.00072854228
-0.00073541456
-0.0016295612
-0.0018535182
-0.0021385119
-0.0021567485
-0.0019725673
-0.0018353532
-0.0017740997
-0.0017772458
-0.0018199115
-0.0018869044
-0.0015139895
-0.0015278007
-0.0020534365
-0.002408037
-0.0022665573
-0.0021451584
-0.0021344156
-0.0021909702
-0.0021567116
-0.0018217305
-0.0012454549
-0.00064219663
-0.00081183257
-0.0014348689
-0.0013673249
-0.001280857
-0.0013272208
-0.0013905156
-0.00095798102
-0.00079756161
-0.00040657897
-0.00011186646
-4.2563617e-05
-0.00027053483
-0.00025975711
-0.00023833755
-0.00026433862
-0.00028299949
-4.1017864e-05
-0.00017605322
0.00048396076
-0.00028131233
0.00077135854
0.00040842319
0.00028243554
0.00026870679
0.00022754315
7.7947643e-05
0.00021220667
0.00057908528
0.00058032111
0.0010114178
0.0022535932
0.0014555508
0.0012018956
0.0011996016
0.0010961522
0.00055362575
0.00041434928
0.0010964512
0.0026030798
0.0036376831
0.0030472128
0.0026917168
0.002629046
0.0027132771
0.0027387855
0.0023252324
0.0016327063
0.0013418738
0.0029113906
0.0021780061
0.0018596931
0.0017598393
0.0018097953
0.0019601938
0.0021420533
0.0021541816
0.0018603594
0.0014527606
-0.00049100129
-0.0007005759
-0.00074695052
-0.00067901559
-0.00054659596
-0.00037823239
-0.0001788936
8.2962856e-06
0.0001291129
0.00017924044
-0.0015762923
-0.0016586309
-0.0016820358
-0.0015488914
-0.0013497777
-0.001181189
-0.0010458561
-0.00094749417
-0.00089848151
-0.00091705814
-0.0020234204
-0.0023095591
-0.0026693962
-0.0026976038
-0.0024754084
-0.0023110751
-0.0022417136
-0.0022537047
-0.0023153575
-0.0024061694
-0.0018999823
-0.0019229871
-0.0025817852
-0.0030290662
-0.0028634792
-0.0027210597
-0.0027161046
-0.0027947037
-0.0027518037
-0.0023089028
-0.0015633078
-0.00081160136
-0.0010204824
-0.0017949599
-0.0017219033
-0.0016240158
-0.0016914673
-0.0017764804
-0.0012056664
-0.00099511221
-0.00050943038
-0.00014255177
-5.4695755e-05
-0.00033644012
-0.00032642826
-0.00030302176
-0.00033881267
-0.00036356298
-4.3545377e-05
-0.00022319354
0.00059105334
-0.00032802039
0.00093614865
0.00050280724
0.00035283649
0.00033734164
0.00028589983
9.7092105e-05
0.00026287799
0.00071459043
0.00073392241
0.0012515654
0.0027500502
0.0017981973
0.0014975942
0.0014979679
0.0013684454
0.00068877937
0.0005179096
0.001360417
0.0031946886
0.00444093
0.0037413205
0.0033190881
0.0032476536
0.0033522055
0.003380593
0.0028622407
0.0020072235
0.0016552158
0.0035721583
0.00269719
0.0023197022
0.0022035231
0.0022668529
0.0024504822
0.0026694935
0.0026747836
0.0023041279
0.0017999507
-0.00055097332
-0.00079917172
-0.00085120269
-0.00076605428
-0.00060424356
-0.00040032797
-0.00016078847
6.0201714e-05
0.00019700449
0.00024775567
-0.0018981271
-0.0019985321
-0.0020272759
-0.0018655927
-0.0016246353
-0.0014221376
-0.0012618799
-0.0011490584
-0.0010987005
-0.0011318738
-0.0024847204
-0.0028450947
-0.0032939089
-0.0033350595
-0.0030696075
-0.0028745299
-0.0027965282
-0.0028195448
-0.0029037506
-0.0030223546
-0.0023539832
-0.002388516
-0.003204519
-0.0037618855
-0.0035698846
-0.0034040925
-0.0034067052
-0.0035113148
-0.0034573469
-0.0028858363
-0.0019376207
-0.0010113732
-0.001265983
-0.002218398
-0.0021408159
-0.0020308441
-0.0021236314
-0.0022336539
-0.0014981528
-0.0012280831
-0.0006306774
-0.00017896496
-6.9005777e-05
-0.00041363676
-0.00040512387
-0.00037980265
-0.0004272394
-0.00045887205
-4.6232297e-05
-0.00027882557
0.00071459686
-0.00037892554
0.0011248176
0.00061191881
0.00043495607
0.00041761615
0.0003539945
0.00011878888
0.0003214822
0.00087216598
0.00091509664
0.0015304278
0.0033202912
0.0021948961
0.0018417767
0.0018457644
0.0016853398
0.00084408732
0.00063677611
0.0016670964
0.003878156
0.0053644225
0.0045426243
0.0040455561
0.003965027
0.0040934209
0.0041245937
0.0034826894
0.0024381661
0.0020164393
0.0043343504
0.0032995581
0.0028558359
0.0027219608
0.0028012883
0.0030234141
0.0032848682
0.0032805904
0.0028189738
0.0022021101
-0.00061510222
-0.00090655622
-0.00096423391
-0.00085869134
-0.00066278059
-0.00041797341
-0.00013256948
0.00012623894
0.00027968445
0.00032935908
-0.0022682489
-0.0023896913
-0.0024246858
-0.0022301246
-0.0019411059
-0.0016999135
-0.0015115992
-0.0013831391
-0.0013325834
-0.0013840674
-0.0030220849
-0.0034703258
-0.004023762
-0.0040810573
-0.0037665856
-0.003536845
-0.0034498113
-0.0034865985
-0.0035977138
-0.0037488975
-0.0028849135
-0.002933682
-0.0039334772
-0.0046201096
-0.0043993716
-0.0042078557
-0.0042203558
-0.0043557583
-0.0042878591
-0.0035629735
-0.0023752754
-0.0012452098
-0.0015522664
-0.0027114599
-0.0026307467
-0.0025083398
-0.0026316751
-0.0027706387
-0.0018388903
-0.0014983998
-0.0007724639
-0.00022178011
-8.5583724e-05
-0.00050293132
-0.0004968262
-0.0004698149
-0.00053114886
-0.00057060399
-4.789178e-05
-0.00034361034
0.0008551849
-0.00043368612
0.0013378186
0.00073602044
0.00052910994
0.0005100137
0.0004322178
0.00014260191
0.00038820226
0.0010532821
0.0011251185
0.001849069
0.0039655609
0.002646632
0.0022357372
0.0022448778
0.0020486046
0.0010188519
0.00077031532
0.0020186479
0.0046563305
0.0064108904
0.0054538935
0.0048740773
0.0047846457
0.0049411401
0.0049753382
0.0041895065
0.0029265911
0.0024267175
0.0052002495
0.0039871865
0.0034704258
0.0033179387
0.0034165069
0.0036831454
0.0039929901
0.0039761521
0.0034082817
0.0026616169
-0.00068497123
-0.0010239813
-0.0010867254
-0.00095691854
-0.00072151873
-0.00042985403
-9.2392631e-05
0.00020842673
0.00037887457
0.00042523345
-0.0026907734
-0.0028361116
-0.0028779059
-0.0026454191
-0.0023014227
-0.002016293
-0.0017966116
-0.0016515044
-0.0016024604
-0.0016768884
-0.0036427271
-0.0041938448
-0.0048687531
-0.0049454784
-0.0045757463
-0.0043071977
-0.0042109578
-0.0042649242
-0.0044082178
-0.0045977057
-0.0035003344
-0.0035663577
-0.0047786237
-0.0056151048
-0.0053633321
-0.0051438376
-0.0051691809
-0.0053410977
-0.0052561235
-0.0043491402
-0.0028820608
-0.0015160406
-0.0018822649
-0.0032788296
-0.0031968001
-0.0030620229
-0.003222184
-0.0033948045
-0.0022302266
-0.0018069988
-0.0009366077
-0.00027152791
-0.00010438601
-0.00060477696
-0.00060216251
-0.00057387104
-0.00065178115
-0.00070019632
-4.7125648e-05
-0.00041804449
0.0010128881
-0.00049171892
0.0015747063
0.00087475209
0.00063512225
0.00061458597
0.00052061301
0.00016788244
0.00046294794
0.001258859
0.0013643179
0.0022070453
0.0046840965
0.0031520269
0.0026787177
0.0026953081
0.0024583893
0.0012112913
0.0009170826
0.0024159628
0.0055286166
0.0075783231
0.0064735981
0.0058036739
0.0057062366
0.0058959383
0.0059339282
0.0049826863
0.0034713866
0.0028854821
0.006168089
0.0047587129
0.0041627102
0.0039913513
0.0041131237
0.0044310825
0.0047959594
0.0047634713
0.0040733022
0.0031792183
-0.00076256492
-0.0011528141
-0.0012192837
-0.0010605497
-0.0007795525
-0.00043444032
-3.823813e-05
0.00030890633
0.00049638919
0.00053665001
-0.0031685597
-0.0033403236
-0.0033888881
-0.003112632
-0.0027060523
-0.0023713176
-0.0021168299
-0.0019543076
-0.0019091254
-0.0020121138
-0.0043518506
-0.0050219059
-0.0058358673
-0.0059351578
-0.0055034786
-0.0051918112
-0.0050864686
-0.0051617553
-0.0053434956
-0.0055780384
-0.0042057768
-0.0042922744
-0.0057470835
-0.006754816
-0.0064697407
-0.0062201887
-0.0062620362
-0.0064772157
-0.0063719129
-0.0052504174
-0.0034621012
-0.0018256364
-0.0022574297
-0.0039228406
-0.0038416826
-0.0036950969
-0.0038994888
-0.00411138
-0.0026726905
-0.0021532429
-0.0011244256
-0.00032851456
-0.00012517211
-0.00071911752
-0.00072122804
-0.00069227697
-0.00078988696
-0.00084863881
-4.2223295e-05
-0.00050234037
0.0011871182
-0.00055217811
0.001833921
0.0010269686
0.00075218765
0.00073082689
0.00061878226
0.00019374641
0.00054529846
0.0014890954
0.0016317837
0.0026019879
0.0054703788
0.0037067105
0.0031673332
0.0031946239
0.002912776
0.0014183414
0.0010747
0.0028583291
0.006490035
0.008858755
0.0075947575
0.0068283415
0.0067247065
0.0069536965
0.0069970293
0.0058585244
0.0040687853
0.0033900406
0.0072309922
0.0056083922
0.0049279466
0.0047383412
0.0048881105
0.0052650304
0.0056923266
0.0056412558
0.0048125863
0.0037536443
-0.00085036332
-0.0012945758
-0.0013624499
-0.0011692208
-0.00083576068
-0.00042999327
3.2082397e-05
0.00042994865
0.00063418091
0.00066505919
-0.0037027598
-0.0039028678
-0.0039573169
-0.003630545
-0.0031531008
-0.002762702
-0.0024698866
-0.002289478
-0.002251206
-0.0023893892
-0.0051518485
-0.0059574692
-0.006928131
-0.0070526413
-0.0065519056
-0.0061926993
-0.0060786816
-0.0061802107
-0.0064077361
-0.0066951881
-0.005003904
-0.0051141297
-0.0068419799
-0.0080423737
-0.0077217202
-0.0074402752
-0.0075030396
-0.0077693296
-0.0076405618
-0.0062689258
-0.0041171846
-0.0021741611
-0.0026771969
-0.004642645
-0.0045648084
-0.0044075344
-0.0046647196
-0.0049225119
-0.0031643158
-0.0025343734
-0.0013365309
-0.00039273399
-0.00014744485
-0.00084523048
-0.00085340621
-0.00082464496
-0.00094552835
-0.0010162797
-3.1104315e-05
-0.00059631805
0.0013764934
-0.00061395029
0.0021125825
0.0011905852
0.0008787398
0.00085755209
0.0007258011
0.00021907081
0.00063445625
0.0017432939
0.0019250608
0.0030291943
0.0063144289
0.0043027326
0.0036950323
0.0037374511
0.0034073696
0.0016355247
0.0012397942
0.0033431217
0.0075303231
0.010237126
0.0088038614
0.0079360266
0.0078291396
0.0081046093
0.0081559439
0.0068089293
0.0047119674
0.0039352694
0.0083760059
0.0065252419
0.0057566093
0.0055505202
0.0057340214
0.0061784126
0.0066763237
0.0066042445
0.0056215004
0.0043813055
-0.00095132868
-0.0014508784
-0.0015166102
-0.0012822957
-0.0008887178
-0.00041448455
0.00012099937
0.00057404066
0.00079446829
0.00081226764
-0.0042922268
-0.0045216349
-0.0045798896
-0.0041948307
-0.0036375873
-0.0031851135
-0.0028504121
-0.0026519894
-0.0026244099
-0.0028054426
-0.0060413291
-0.006999051
-0.0081432555
-0.008294731
-0.0077174236
-0.0073062058
-0.0071842995
-0.0073178041
-0.0075995815
-0.0079489781
-0.0058935217
-0.006030539
-0.0080610971
-0.0094745154
-0.0091159204
-0.0088010465
-0.0088899182
-0.0092163285
-0.0090613894
-0.0074015274
-0.0048460018
-0.0025596672
-0.0031384048
-0.0054333271
-0.0053613439
-0.0051951001
-0.0055147971
-0.0058262741
-0.0036999959
-0.0029450095
-0.0015726097
-0.00046377202
-0.00017039134
-0.00098157072
-0.00099718796
-0.00096970449
-0.0011178764
-0.0012026356
-1.1301743e-05
-0.00069931127
0.0015787129
-0.00067567656
0.0024063104
0.0013624439
0.0010123356
0.00099279108
0.00084014563
0.00024250929
0.00072921424
0.0020196942
0.0022398569
0.0034812531
0.0072012171
0.0049280711
0.0042516432
0.0043150355
0.0039349592
0.0018569039
0.0014080063
0.0038655453
0.0086331632
0.011690344
0.010079981
0.0091077836
0.0090019638
0.0093323518
0.0093958338
0.0078208875
0.0053908074
0.0045134288
0.0095833471
0.0074923849
0.0066337732
0.0064143675
0.0066383853
0.0071596491
0.0077372451
0.007642678
0.0064918832
0.0050561209
-0.0010687499
-0.0016232291
-0.0016817855
-0.0013986609
-0.00093650394
-0.00038542291
0.0002313458
0.00074405581
0.00097994811
0.00098070292
-0.0049328007
-0.0051910856
-0.0052494846
-0.0047972156
-0.0041506247
-0.0036293658
-0.0032492322
-0.003033048
-0.0030206894
-0.0032532099
-0.0070140073
-0.00813943
-0.0094721389
-0.0096508943
-0.00898911
-0.0085214156
-0.0083927921
-0.0085648286
-0.0089104998
-0.0093321328
-0.0068684781
-0.0070348752
-0.009395431
-0.011039902
-0.010640793
-0.010291299
-0.01041225
-0.010809007
-0.010626037
-0.0086384976
-0.005643324
-0.0029775467
-0.0036346826
-0.0062850054
-0.0062212396
-0.0060483582
-0.0064414016
-0.0068156625
-0.0042708922
-0.0033767137
-0.0018311826
-0.00054070271
-0.00019282332
-0.0011256217
-0.0011499981
-0.0011251185
-0.0013050118
-0.0014062072
2.0014138e-05
-0.00081008817
0.0017904442
-0.00073581502
0.002709086
0.0015382113
0.0011495648
0.0011336997
0.00095963605
0.00026252541
0.0008279371
0.0023153242
0.0025697679
0.0039477305
0.008110254
0.0055663003
0.0048230589
0.0049149293
0.004485287
0.002075136
0.0015740807
0.0044184545
0.0097756393
0.013186679
0.011394209
0.01031724
0.01021841
0.010613521
0.010695199
0.0088761631
0.0060918195
0.0051141417
0.010825997
0.0084867156
0.0075388023
0.0073109162
0.0075833722
0.0081917939
0.0088590709
0.0087419968
0.0074119059
0.0057695188
-0.0012059104
-0.0018126778
-0.0018572814
-0.0015163962
-0.00097640375
-0.00033958225
0.00036660576
0.00094350547
0.0011940851
0.0011737544
-0.005616497
-0.0059013901
-0.0059542689
-0.0054246005
-0.0046785702
-0.004081591
-0.0036525498
-0.0034192679
-0.0034273908
-0.0037209398
-0.0080575285
-0.00936429
-0.010897322
-0.011101648
-0.010347119
-0.0098185605
-0.0096847958
-0.0099027349
-0.010323147
-0.010828635
-0.0079165176
-0.0081140661
-0.010827724
-0.012717446
-0.012274889
-0.011889966
-0.01204973
-0.012528317
-0.012316831
-0.0099622645
-0.0064991662
-0.003419968
-0.0041558477
-0.0071819894
-0.0071283257
-0.0069517405
-0.0074299975
-0.0078776408
-0.0048639447
-0.0038176611
-0.0021093668
-0.00062197966
-0.00021311758
-0.0012737649
-0.0013080423
-0.0012873187
-0.0015037416
-0.001624311
6.5969133e-05
-0.00092678855
0.0020072311
-0.00079275613
0.0030131729
0.0017123245
0.0012859964
0.0012765012
0.0010813996
0.00027743863
0.00092855508
0.0026258829
0.0029060378
0.0044149506
0.0090154437
0.0061964875
0.005391125
0.0055208529
0.0050449592
0.0022816319
0.0017320277
0.0049922731
0.010928034
0.014685655
0.012709571
0.011530509
0.011446395
0.011917479
0.012025722
0.0099513128
0.0067983498
0.0057245701
0.012069785
0.0094790199
0.008445466
0.0082158442
0.0085458437
0.0092525345
0.01002043
0.0098828471
0.0083661923
0.006510642
-0.0013655535
-0.0020192884
-0.0020411882
-0.0016323185
-0.0010044979
-0.00027263868
0.00053123926
0.0011768544
0.0014414548
0.0013961591
-0.0063306542
-0.0066375493
-0.00667682
-0.0060582221
-0.0052022342
-0.0045224849
-0.00404121
-0.0037919328
-0.0038264893
-0.0041913754
-0.0091523213
-0.010650915
-0.012391542
-0.012617081
-0.01176123
-0.011167588
-0.011030678
-0.011302673
-0.011809882
-0.012412227
-0.0090181876
-0.0092474544
-0.012331119
-0.014474827
-0.013985356
-0.013564611
-0.013770636
-0.014343816
-0.014105336
-0.011346352
-0.0073980062
-0.0038753398
-0.0046873649
-0.0081020825
-0.00805957
-0.0078827778
-0.0084590126
-0.0089923319
-0.0054615483
-0.0042524584
-0.0024026543
-0.00070532652
-0.0002291574
-0.0014211797
-0.001466191
-0.0014513768
-0.0017094484
-0.0018529402
0.00012987462
-0.0010468803
0.0022234262
-0.00084499945
0.0033091149
0.0018779971
0.0014161729
0.0014164642
0.0012018559
0.00028547582
0.001028568
0.0029456656
0.0032373714
0.0048659044
0.0098852739
0.0067933862
0.0059337872
0.0061127831
0.0055975323
0.0024668188
0.0018753507
0.0055750311
0.012054071
0.016138566
0.013981553
0.012706688
0.012646961
0.01320671
0.013352579
0.011018086
0.007491046
0.006329811
0.013274081
0.010434668
0.0093225943
0.0091000765
0.009497888
0.01031465
0.011194984
0.01104146
0.0093362348
0.0072667719
-0.0015491406
-0.00224144
-0.0022297436
-0.001741418
-0.0010151705
-0.00017874506
0.00073105001
0.0014498606
0.0017280917
0.0016543773
-0.0070571171
-0.0073785927
-0.0073933719
-0.0066729751
-0.0056962758
-0.0049267546
-0.004390177
-0.0041264768
-0.0041940415
-0.0046411517
-0.010270612
-0.011967094
-0.013916576
-0.014155719
-0.013189766
-0.012527113
-0.012389488
-0.012724419
-0.013331659
-0.014045266
-0.010145925
-0.010405857
-0.013868107
-0.016267389
-0.015726856
-0.015270348
-0.01553072
-0.016212519
-0.015951293
-0.012754689
-0.0083181451
-0.0043278604
-0.0052099328
-0.0090161354
-0.0089846206
-0.0088116188
-0.0094992955
-0.010132466
-0.0060414658
-0.0046621639
-0.0027047318
-0.00078763418
-0.00023827816
-0.0015617909
-0.0016179201
-0.0016109339
-0.0019159936
-0.0020866717
0.00021507556
-0.0011671371
0.0024321594
-0.00089139
0.0035858303
0.0020273031
0.0015336667
0.0015479286
0.0013167279
0.00028482098
0.0011250573
0.0032675482
0.0035498315
0.0052803379
0.010683421
0.0073279922
0.00642556
0.0066673185
0.0061238048
0.0026204974
0.0019973188
0.0061525344
0.013111714
0.017489754
0.015159369
0.013799049
0.013775371
0.014437806
0.014635304
0.012044257
0.0081486165
0.0069135113
0.014393213
0.011314968
0.010135353
0.0099309706
0.010407907
0.011346987
0.012352297
0.012190439
0.010301117
0.0080239549
-0.0017559283
-0.00247499
-0.0024166021
-0.0018362336
-0.001000586
-5.009978e-05
0.00097353565
0.0017698725
0.002061766
0.0019568721
-0.0077715761
-0.0080969844
-0.0080733314
-0.0072370511
-0.0061289406
-0.0052629294
-0.0046683905
-0.00439235
-0.0045000261
-0.0050405755
-0.011375773
-0.013270435
-0.015422594
-0.015663984
-0.014579142
-0.013844011
-0.013708563
-0.014115939
-0.014837533
-0.015678174
-0.011263487
-0.011550993
-0.015389973
-0.018037681
-0.017441154
-0.016949451
-0.01727279
-0.018078421
-0.01780217
-0.01414148
-0.0092313193
-0.0047572285
-0.0056992823
-0.009887974
-0.009865766
-0.0097009744
-0.010513991
-0.01126321
-0.0065770507
-0.0050245563
-0.0030073663
-0.00086487534
-0.00023722252
-0.0016882788
-0.0017553303
-0.0017582081
-0.0021156965
-0.0023186353
0.00032476361
-0.001283639
0.0026253543
-0.00093139687
0.0038308265
0.0021513573
0.0016312148
0.0016643943
0.0014210883
0.00027365905
0.0012147075
0.0035830463
0.0038268738
0.0056350821
0.011369836
0.0077685238
0.0068383711
0.0071583689
0.0066023434
0.0027322829
0.0020912703
0.0067086838
0.014054593
0.018678724
0.016188035
0.014756999
0.014782933
0.015563122
0.015829261
0.012994905
0.0087488595
0.0074586802
0.015378627
0.012079209
0.010847162
0.010674108
0.011242274
0.012315976
0.013459185
0.013299952
0.011238508
0.0087677817
-0.0019819351
-0.0027123797
-0.00259209
-0.0019062564
-0.00095022232
0.00012340109
0.0012681291
0.0021459876
0.0024520865
0.0023141837
-0.0084432128
-0.0087584026
-0.0086792405
-0.0077120755
-0.0064623295
-0.0054937241
-0.0048391864
-0.0045534589
-0.0047087595
-0.0053539796
-0.012422218
-0.014508321
-0.016848304
-0.017076538
-0.015864327
-0.015053952
-0.014924062
-0.015413888
-0.016265079
-0.017249764
-0.012325919
-0.01263549
-0.016836992
-0.019715891
-0.019057669
-0.018531934
-0.018927242
-0.019872951
-0.019593588
-0.01545182
-0.010102691
-0.0051386102
-0.0061262902
-0.010674835
-0.010658461
-0.010506639
-0.011458982
-0.012342515
-0.007037851
-0.0053147034
-0.0033003924
-0.00093205358
-0.00022211672
-0.0017921732
-0.0018692674
-0.0018841084
-0.0022994141
-0.0025405649
0.00046176453
-0.0013917999
0.002793819
-0.00096539451
0.0040305593
0.0022406154