/*--------------------------------*- C++ -*----------------------------------*\
| =========                 |                                                 |
| \\      /  F ield         | OpenFOAM: The Open Source CFD Toolbox           |
|  \\    /   O peration     | Version:  v2106                                 |
|   \\  /    A nd           | Website:  www.openfoam.com                      |
|    \\/     M anipulation  |                                                 |
\*---------------------------------------------------------------------------*/
FoamFile
{
    version     2.0;
    format      ascii;
    arch        "LSB;label=32;scalar=64";
    class       volScalarField;
    location    "5";
    object      T;
}
// * * * * * * * * * * * * * * * * * * * * * * * * * * * * * * * * * * * * * //

dimensions      [0 0 0 1 0 0 0];

internalField   nonuniform List<scalar> 
4000
(
273.03202
273.03202
273.03201
273.03202
273.03202
273.03202
273.03202
273.03202
273.03201
273.03201
273.03202
273.03201
273.03201
273.03202
273.03202
273.03202
273.03202
273.03201
273.03201
273.03201
273.03201
273.03201
273.03201
273.03202
273.03202
273.03202
273.03202
273.03201
273.03201
273.03201
273.03202
273.03202
273.03202
273.03202
273.03202
273.03202
273.03202
273.03202
273.03202
273.03202
273.03202
273.03202
273.03202
273.03202
273.03202
273.03202
273.03202
273.03202
273.03202
273.03202
273.03202
273.03202
273.03202
273.03202
273.03202
273.03202
273.03202
273.03202
273.03202
273.03202
273.03202
273.03202
273.03202
273.03202
273.03202
273.03202
273.03202
273.03202
273.03202
273.03201
273.03202
273.03201
273.03201
273.03202
273.03202
273.03202
273.03202
273.03202
273.03201
273.03201
273.03201
273.03201
273.03201
273.03202
273.03202
273.03202
273.03202
273.03201
273.03201
273.03201
273.03201
273.03201
273.03201
273.03202
273.03202
273.03202
273.03201
273.03201
273.03201
273.03201
273.16031
273.16031
273.16031
273.16032
273.16032
273.16031
273.16031
273.16031
273.16031
273.16031
273.16031
273.16031
273.16031
273.16032
273.16032
273.16032
273.16031
273.16031
273.16031
273.16031
273.16031
273.16031
273.16031
273.16032
273.16032
273.16032
273.16031
273.16031
273.16031
273.16031
273.16032
273.16032
273.16032
273.16032
273.16032
273.16032
273.16032
273.16032
273.16031
273.16031
273.16032
273.16032
273.16032
273.16032
273.16032
273.16032
273.16032
273.16032
273.16031
273.16031
273.16031
273.16032
273.16032
273.16032
273.16032
273.16032
273.16032
273.16032
273.16031
273.16031
273.16031
273.16031
273.16031
273.16032
273.16032
273.16032
273.16032
273.16031
273.16031
273.16031
273.16031
273.16031
273.16031
273.16032
273.16032
273.16032
273.16031
273.16031
273.16031
273.16031
273.16031
273.16031
273.16031
273.16031
273.16031
273.16031
273.16031
273.16031
273.16031
273.16031
273.16031
273.16031
273.16031
273.16031
273.16031
273.16031
273.16031
273.16031
273.16031
273.16031
273.30133
273.30133
273.30133
273.30134
273.30134
273.30134
273.30134
273.30133
273.30133
273.30133
273.30133
273.30133
273.30134
273.30135
273.30135
273.30134
273.30134
273.30133
273.30133
273.30133
273.30133
273.30134
273.30134
273.30135
273.30135
273.30134
273.30134
273.30134
273.30133
273.30133
273.30134
273.30135
273.30135
273.30136
273.30136
273.30135
273.30135
273.30134
273.30134
273.30134
273.30134
273.30135
273.30135
273.30136
273.30135
273.30135
273.30135
273.30134
273.30134
273.30134
273.30134
273.30134
273.30134
273.30135
273.30135
273.30135
273.30135
273.30134
273.30134
273.30134
273.30134
273.30134
273.30134
273.30135
273.30135
273.30135
273.30134
273.30134
273.30134
273.30133
273.30133
273.30133
273.30134
273.30134
273.30134
273.30134
273.30134
273.30134
273.30133
273.30133
273.30133
273.30133
273.30133
273.30134
273.30134
273.30134
273.30134
273.30133
273.30133
273.30133
273.30133
273.30133
273.30133
273.30134
273.30134
273.30134
273.30133
273.30133
273.30133
273.30133
273.46591
273.46591
273.46591
273.46593
273.46593
273.46592
273.46592
273.46591
273.46591
273.4659
273.46591
273.46591
273.46592
273.46593
273.46593
273.46592
273.46592
273.46591
273.46591
273.46591
273.46591
273.46592
273.46592
273.46593
273.46593
273.46593
273.46592
273.46591
273.46591
273.46591
273.46593
273.46593
273.46593
273.46594
273.46594
273.46594
273.46593
273.46592
273.46592
273.46592
273.46593
273.46593
273.46593
273.46594
273.46594
273.46594
273.46593
273.46593
273.46592
273.46592
273.46592
273.46592
273.46593
273.46594
273.46594
273.46593
273.46593
273.46592
273.46592
273.46592
273.46592
273.46592
273.46592
273.46593
273.46593
273.46593
273.46593
273.46592
273.46591
273.46591
273.46591
273.46591
273.46591
273.46592
273.46593
273.46592
273.46592
273.46591
273.46591
273.4659
273.46591
273.46591
273.46591
273.46592
273.46592
273.46592
273.46591
273.46591
273.4659
273.4659
273.4659
273.46591
273.46591
273.46592
273.46592
273.46592
273.46591
273.4659
273.4659
273.4659
273.66604
273.66604
273.66604
273.66606
273.66606
273.66606
273.66605
273.66604
273.66604
273.66603
273.66604
273.66604
273.66605
273.66607
273.66607
273.66606
273.66605
273.66604
273.66604
273.66604
273.66604
273.66605
273.66606
273.66607
273.66607
273.66607
273.66606
273.66605
273.66604
273.66604
273.66606
273.66607
273.66607
273.66609
273.66609
273.66608
273.66607
273.66606
273.66605
273.66605
273.66606
273.66607
273.66607
273.66609
273.66609
273.66608
273.66607
273.66606
273.66605
273.66605
273.66606
273.66606
273.66607
273.66608
273.66608
273.66608
273.66607
273.66606
273.66605
273.66605
273.66605
273.66605
273.66606
273.66607
273.66607
273.66607
273.66606
273.66605
273.66605
273.66604
273.66604
273.66604
273.66605
273.66606
273.66606
273.66606
273.66605
273.66604
273.66604
273.66603
273.66604
273.66604
273.66604
273.66605
273.66605
273.66605
273.66605
273.66604
273.66603
273.66603
273.66603
273.66604
273.66604
273.66605
273.66605
273.66605
273.66604
273.66603
273.66603
273.66603
273.91543
273.91544
273.91544
273.91547
273.91547
273.91546
273.91545
273.91544
273.91543
273.91543
273.91544
273.91544
273.91545
273.91547
273.91547
273.91547
273.91546
273.91544
273.91544
273.91544
273.91544
273.91545
273.91546
273.91548
273.91548
273.91547
273.91546
273.91545
273.91544
273.91544
273.91547
273.91547
273.91548
273.9155
273.9155
273.91549
273.91548
273.91547
273.91545
273.91545
273.91547
273.91547
273.91548
273.9155
273.9155
273.91549
273.91548
273.91547
273.91546
273.91545
273.91546
273.91547
273.91547
273.91549
273.91549
273.91549
273.91548
273.91546
273.91545
273.91545
273.91545
273.91546
273.91546
273.91548
273.91548
273.91548
273.91547
273.91546
273.91545
273.91544
273.91544
273.91544
273.91545
273.91547
273.91547
273.91546
273.91546
273.91544
273.91543
273.91543
273.91543
273.91544
273.91544
273.91545
273.91546
273.91545
273.91545
273.91543
273.91542
273.91542
273.91543
273.91544
273.91544
273.91545
273.91545
273.91545
273.91544
273.91543
273.91542
273.91542
274.23007
274.23008
274.23008
274.23011
274.23012
274.23011
274.23009
274.23008
274.23007
274.23006
274.23008
274.23007
274.23009
274.23012
274.23012
274.23011
274.2301
274.23008
274.23007
274.23007
274.23008
274.23009
274.23011
274.23013
274.23013
274.23012
274.23011
274.23009
274.23008
274.23007
274.23011
274.23012
274.23013
274.23016
274.23015
274.23015
274.23013
274.23011
274.2301
274.23009
274.23012
274.23012
274.23013
274.23015
274.23015
274.23015
274.23013
274.23011
274.2301
274.23009
274.23011
274.23011
274.23012
274.23015
274.23015
274.23014
274.23013
274.23011
274.2301
274.23009
274.23009
274.2301
274.23011
274.23013
274.23013
274.23013
274.23012
274.2301
274.23009
274.23008
274.23008
274.23008
274.23009
274.23011
274.23011
274.23011
274.2301
274.23008
274.23007
274.23006
274.23007
274.23007
274.23008
274.2301
274.2301
274.2301
274.23009
274.23007
274.23005
274.23005
274.23006
274.23007
274.23007
274.23009
274.23009
274.23009
274.23008
274.23006
274.23005
274.23005
274.62874
274.62875
274.62875
274.62879
274.62879
274.62878
274.62877
274.62875
274.62874
274.62873
274.62875
274.62874
274.62877
274.6288
274.6288
274.62879
274.62877
274.62875
274.62874
274.62874
274.62875
274.62877
274.62878
274.62882
274.62881
274.6288
274.62879
274.62876
274.62874
274.62874
274.62879
274.6288
274.62882
274.62884
274.62884
274.62883
274.62882
274.62879
274.62877
274.62876
274.62879
274.6288
274.62881
274.62884
274.62884
274.62883
274.62882
274.62879
274.62877
274.62877
274.62878
274.62879
274.6288
274.62883
274.62883
274.62883
274.62881
274.62879
274.62877
274.62876
274.62877
274.62877
274.62879
274.62882
274.62882
274.62881
274.6288
274.62878
274.62876
274.62875
274.62875
274.62875
274.62876
274.62879
274.62879
274.62879
274.62878
274.62875
274.62873
274.62873
274.62874
274.62874
274.62874
274.62877
274.62877
274.62877
274.62876
274.62873
274.62872
274.62872
274.62873
274.62874
274.62874
274.62876
274.62877
274.62876
274.62875
274.62873
274.62872
274.62871
275.13361
275.13363
275.13362
275.13368
275.13368
275.13367
275.13365
275.13363
275.13361
275.1336
275.13363
275.13362
275.13365
275.13369
275.13369
275.13368
275.13366
275.13363
275.13362
275.13361
275.13362
275.13365
275.13367
275.13371
275.13371
275.13369
275.13367
275.13364
275.13362
275.13362
275.13368
275.13369
275.13371
275.13374
275.13374
275.13373
275.13371
275.13368
275.13365
275.13364
275.13368
275.13369
275.13371
275.13374
275.13374
275.13373
275.13371
275.13368
275.13366
275.13365
275.13367
275.13368
275.13369
275.13373
275.13373
275.13372
275.13371
275.13368
275.13365
275.13364
275.13365
275.13366
275.13367
275.13371
275.13371
275.13371
275.13369
275.13366
275.13364
275.13363
275.13363
275.13363
275.13364
275.13368
275.13368
275.13368
275.13366
275.13363
275.13361
275.1336
275.13361
275.13362
275.13362
275.13365
275.13366
275.13365
275.13364
275.13361
275.13358
275.13358
275.1336
275.13361
275.13362
275.13364
275.13365
275.13364
275.13363
275.1336
275.13358
275.13358
275.7708
275.77082
275.77082
275.77089
275.77089
275.77087
275.77085
275.77083
275.77081
275.77079
275.77082
275.77081
275.77085
275.7709
275.7709
275.77089
275.77086
275.77083
275.77081
275.77081
275.77082
275.77085
275.77087
275.77092
275.77092
275.7709
275.77088
275.77084
275.77082
275.77081
275.77089
275.7709
275.77092
275.77097
275.77097
275.77095
275.77093
275.77089
275.77085
275.77084
275.77089
275.7709
275.77092
275.77097
275.77097
275.77095
275.77093
275.77089
275.77086
275.77085
275.77087
275.77089
275.7709
275.77095
275.77095
275.77094
275.77093
275.77089
275.77086
275.77085
275.77085
275.77086
275.77088
275.77093
275.77093
275.77093
275.77091
275.77087
275.77084
275.77083
275.77083
275.77083
275.77084
275.77089
275.77089
275.77089
275.77087
275.77083
275.7708
275.77079
275.77081
275.77081
275.77082
275.77085
275.77086
275.77086
275.77084
275.7708
275.77077
275.77077
275.77079
275.77081
275.77081
275.77084
275.77085
275.77085
275.77083
275.77079
275.77077
275.77076
276.5709
276.57092
276.57092
276.571
276.571
276.57098
276.57096
276.57092
276.5709
276.57088
276.57092
276.57091
276.57095
276.57101
276.57102
276.571
276.57097
276.57093
276.57091
276.5709
276.57092
276.57095
276.57098
276.57104
276.57104
276.57102
276.57099
276.57094
276.57091
276.57091
276.571
276.57101
276.57104
276.5711
276.57109
276.57108
276.57105
276.571
276.57096
276.57094
276.571
276.57102
276.57104
276.57109
276.57109
276.57108
276.57106
276.57101
276.57097
276.57095
276.57098
276.571
276.57102
276.57108
276.57108
276.57107
276.57105
276.571
276.57096
276.57095
276.57096
276.57097
276.57099
276.57105
276.57106
276.57105
276.57103
276.57098
276.57094
276.57093
276.57092
276.57093
276.57094
276.571
276.57101
276.571
276.57098
276.57093
276.57089
276.57087
276.5709
276.57091
276.57091
276.57096
276.57097
276.57096
276.57094
276.57089
276.57086
276.57085
276.57088
276.5709
276.57091
276.57094
276.57095
276.57095
276.57093
276.57087
276.57085
276.57084
277.56941
277.56943
277.56943
277.56953
277.56953
277.56951
277.56948
277.56944
277.56941
277.56938
277.56943
277.56942
277.56947
277.56955
277.56955
277.56953
277.56949
277.56944
277.56942
277.56941
277.56943
277.56947
277.56951
277.56958
277.56958
277.56956
277.56952
277.56946
277.56943
277.56942
277.56953
277.56955
277.56958
277.56965
277.56965
277.56963
277.56959
277.56953
277.56948
277.56946
277.56953
277.56955
277.56958
277.56965
277.56965
277.56963
277.5696
277.56954
277.56949
277.56948
277.56951
277.56953
277.56956
277.56963
277.56963
277.56962
277.56959
277.56953
277.56949
277.56947
277.56948
277.56949
277.56952
277.56959
277.5696
277.56959
277.56957
277.56951
277.56946
277.56944
277.56944
277.56944
277.56946
277.56953
277.56954
277.56953
277.56951
277.56945
277.5694
277.56938
277.56941
277.56942
277.56943
277.56948
277.56949
277.56949
277.56946
277.5694
277.56936
277.56936
277.56938
277.56941
277.56942
277.56946
277.56948
277.56947
277.56944
277.56938
277.56936
277.56934
278.80718
278.80721
278.80721
278.80732
278.80733
278.80731
278.80727
278.80722
278.80719
278.80715
278.80721
278.8072
278.80726
278.80735
278.80735
278.80733
278.80729
278.80723
278.8072
278.80719
278.80721
278.80726
278.8073
278.80739
278.80739
278.80736
278.80732
278.80725
278.8072
278.8072
278.80732
278.80735
278.80739
278.80747
278.80747
278.80745
278.8074
278.80733
278.80727
278.80725
278.80733
278.80735
278.80739
278.80747
278.80747
278.80745
278.80742
278.80734
278.80729
278.80726
278.80731
278.80733
278.80736
278.80745
278.80745
278.80744
278.8074
278.80733
278.80728
278.80726
278.80727
278.80729
278.80732
278.8074
278.80742
278.8074
278.80737
278.8073
278.80725
278.80722
278.80722
278.80723
278.80725
278.80733
278.80734
278.80733
278.8073
278.80723
278.80717
278.80715
278.80719
278.8072
278.8072
278.80727
278.80729
278.80728
278.80725
278.80717
278.80712
278.80712
278.80715
278.80719
278.8072
278.80725
278.80726
278.80726
278.80722
278.80715
278.80712
278.8071
280.33065
280.33068
280.33068
280.33081
280.33083
280.3308
280.33075
280.33069
280.33065
280.33061
280.33068
280.33067
280.33074
280.33084
280.33085
280.33082
280.33077
280.3307
280.33067
280.33066
280.33068
280.33074
280.33079
280.33089
280.33089
280.33086
280.33081
280.33072
280.33067
280.33067
280.33081
280.33084
280.33089
280.33098
280.33098
280.33096
280.33091
280.33082
280.33075
280.33072
280.33083
280.33085
280.33089
280.33098
280.33099
280.33097
280.33092
280.33083
280.33077
280.33074
280.3308
280.33082
280.33086
280.33096
280.33097
280.33095
280.33091
280.33083
280.33076
280.33074
280.33075
280.33077
280.33081
280.33091
280.33092
280.33091
280.33087
280.33079
280.33072
280.3307
280.33069
280.3307
280.33072
280.33082
280.33083
280.33083
280.33079
280.3307
280.33063
280.3306
280.33065
280.33067
280.33067
280.33075
280.33077
280.33076
280.33072
280.33063
280.33057
280.33057
280.33061
280.33066
280.33067
280.33072
280.33074
280.33074
280.3307
280.3306
280.33057
280.33055
282.1919
282.19194
282.19193
282.19209
282.1921
282.19207
282.19202
282.19195
282.1919
282.19185
282.19194
282.19192
282.192
282.19212
282.19213
282.19209
282.19204
282.19195
282.19192
282.1919
282.19193
282.192
282.19206
282.19217
282.19218
282.19214
282.19208
282.19198
282.19192
282.19192
282.19209
282.19212
282.19217
282.19228
282.19229
282.19226
282.1922
282.19209
282.19201
282.19198
282.1921
282.19213
282.19218
282.19229
282.19229
282.19227
282.19222
282.19211
282.19204
282.19201
282.19207
282.19209
282.19214
282.19226
282.19227
282.19225
282.1922
282.1921
282.19203
282.192
282.19202
282.19204
282.19208
282.1922
282.19222
282.1922
282.19216
282.19206
282.19198
282.19195
282.19195
282.19195
282.19198
282.19209
282.19211
282.1921
282.19206
282.19196
282.19188
282.19184
282.1919
282.19192
282.19192
282.19201
282.19204
282.19203
282.19198
282.19188
282.1918
282.1918
282.19185
282.1919
282.19192
282.19198
282.19201
282.192
282.19195
282.19184
282.1918
282.19178
284.44854
284.44858
284.44858
284.44876
284.44877
284.44874
284.44867
284.4486
284.44854
284.44848
284.44858
284.44856
284.44865
284.4488
284.4488
284.44877
284.4487
284.4486
284.44856
284.44854
284.44858
284.44865
284.44873
284.44886
284.44886
284.44882
284.44875
284.44863
284.44857
284.44856
284.44876
284.4488
284.44886
284.44898
284.44898
284.44895
284.44889
284.44876
284.44867
284.44863
284.44877
284.4488
284.44886
284.44898
284.44899
284.44896
284.44891
284.44879
284.4487
284.44866
284.44874
284.44877
284.44882
284.44895
284.44896
284.44894
284.44889
284.44877
284.44869
284.44865
284.44867
284.4487
284.44875
284.44889
284.44891
284.44889
284.44884
284.44872
284.44863
284.4486
284.4486
284.4486
284.44863
284.44876
284.44879
284.44877
284.44872
284.4486
284.44851
284.44847
284.44854
284.44856
284.44857
284.44867
284.4487
284.44869
284.44863
284.44851
284.44842
284.44842
284.44848
284.44854
284.44856
284.44863
284.44866
284.44865
284.4486
284.44847
284.44842
284.4484
287.16328
287.16333
287.16333
287.16352
287.16354
287.1635
287.16343
287.16334
287.16327
287.16321
287.16333
287.16331
287.16341
287.16357
287.16358
287.16353
287.16346
287.16335
287.1633
287.16328
287.16333
287.16341
287.16349
287.16364
287.16364
287.1636
287.16352
287.16338
287.1633
287.1633
287.16352
287.16357
287.16364
287.16378
287.16378
287.16375
287.16367
287.16352
287.16342
287.16338
287.16354
287.16358
287.16364
287.16378
287.16379
287.16376
287.1637
287.16356
287.16345
287.16341
287.1635
287.16353
287.1636
287.16375
287.16376
287.16374
287.16368
287.16354
287.16344
287.1634
287.16343
287.16346
287.16352
287.16367
287.1637
287.16368
287.16362
287.16349
287.16338
287.16334
287.16334
287.16335
287.16338
287.16352
287.16356
287.16354
287.16349
287.16335
287.16324
287.16319
287.16327
287.1633
287.1633
287.16342
287.16345
287.16344
287.16338
287.16324
287.16314
287.16314
287.16321
287.16328
287.1633
287.16338
287.16341
287.1634
287.16334
287.16319
287.16314
287.16311
290.40316
290.40322
290.40322
290.40344
290.40346
290.40341
290.40333
290.40323
290.40315
290.40308
290.40322
290.4032
290.40331
290.40349
290.4035
290.40345
290.40337
290.40324
290.40318
290.40316
290.40322
290.40331
290.4034
290.40356
290.40357
290.40352
290.40343
290.40327
290.40319
290.40318
290.40344
290.40349
290.40356
290.40372
290.40373
290.40369
290.40361
290.40344
290.40332
290.40327
290.40346
290.4035
290.40357
290.40373
290.40374
290.40371
290.40363
290.40347
290.40335
290.40331
290.40341
290.40345
290.40352
290.40369
290.40371
290.40368
290.40362
290.40346
290.40335
290.4033
290.40333
290.40337
290.40343
290.40361
290.40363
290.40362
290.40355
290.4034
290.40328
290.40323
290.40323
290.40324
290.40327
290.40344
290.40347
290.40346
290.4034
290.40323
290.40311
290.40305
290.40315
290.40318
290.40319
290.40332
290.40335
290.40335
290.40328
290.40311
290.403
290.403
290.40308
290.40316
290.40318
290.40327
290.40331
290.4033
290.40323
290.40305
290.403
290.40297
294.23847
294.23854
294.23854
294.23878
294.2388
294.23875
294.23866
294.23854
294.23846
294.23838
294.23854
294.23851
294.23863
294.23883
294.23884
294.23879
294.2387
294.23855
294.23849
294.23846
294.23854
294.23863
294.23873
294.23891
294.23892
294.23887
294.23877
294.23859
294.23849
294.23849
294.23878
294.23883
294.23891
294.23909
294.2391
294.23905
294.23896
294.23877
294.23864
294.23859
294.2388
294.23884
294.23892
294.2391
294.23911
294.23908
294.239
294.23881
294.23868
294.23863
294.23875
294.23879
294.23887
294.23905
294.23908
294.23905
294.23898
294.2388
294.23867
294.23862
294.23866
294.2387
294.23877
294.23896
294.239
294.23898
294.23891
294.23873
294.2386
294.23854
294.23854
294.23855
294.23859
294.23877
294.23881
294.2388
294.23873
294.23855
294.23841
294.23834
294.23846
294.23849
294.23849
294.23864
294.23868
294.23867
294.2386
294.23841
294.23828
294.23828
294.23838
294.23846
294.23849
294.23859
294.23863
294.23862
294.23854
294.23834
294.23828
294.23825
298.74121
298.74129
298.74129
298.74155
298.74157
298.74151
298.74142
298.74129
298.74119
298.7411
298.74129
298.74126
298.74139
298.74161
298.74162
298.74156
298.74146
298.7413
298.74123
298.7412
298.74129
298.74139
298.7415
298.7417
298.7417
298.74165
298.74154
298.74134
298.74123
298.74123
298.74155
298.74161
298.7417
298.74189
298.7419
298.74185
298.74175
298.74154
298.74139
298.74134
298.74157
298.74162
298.7417
298.7419
298.74191
298.74188
298.74179
298.74158
298.74144
298.74139
298.74151
298.74156
298.74165
298.74185
298.74188
298.74185
298.74177
298.74157
298.74143
298.74138
298.74142
298.74146
298.74154
298.74175
298.74179
298.74177
298.74169
298.7415
298.74135
298.74129
298.74129
298.7413
298.74134
298.74154
298.74158
298.74157
298.7415
298.74129
298.74113
298.74106
298.74119
298.74123
298.74123
298.74139
298.74144
298.74143
298.74135
298.74113
298.74099
298.741
298.7411
298.7412
298.74123
298.74134
298.74139
298.74138
298.74129
298.74106
298.741
298.74096
303.98325
303.98333
303.98333
303.98361
303.98364
303.98357
303.98347
303.98333
303.98322
303.98312
303.98333
303.98331
303.98345
303.98368
303.98369
303.98362
303.98351
303.98333
303.98326
303.98323
303.98333
303.98345
303.98356
303.98377
303.98378
303.98372
303.9836
303.98338
303.98326
303.98326
303.98361
303.98368
303.98377
303.98397
303.98398
303.98394
303.98383
303.98359
303.98343
303.98338
303.98364
303.98369
303.98378
303.98398
303.984
303.98396
303.98387
303.98365
303.98349
303.98343
303.98357
303.98362
303.98372
303.98394
303.98396
303.98394
303.98385
303.98364
303.98348
303.98343
303.98347
303.98351
303.9836
303.98383
303.98387
303.98385
303.98377
303.98356
303.9834
303.98333
303.98333
303.98333
303.98338
303.98359
303.98365
303.98364
303.98356
303.98333
303.98316
303.98308
303.98322
303.98326
303.98326
303.98343
303.98349
303.98348
303.9834
303.98316
303.983
303.98302
303.98312
303.98323
303.98326
303.98338
303.98343
303.98343
303.98333
303.98308
303.98302
303.98298
310.03408
310.03416
310.03416
310.03446
310.03448
310.03441
310.0343
310.03414
310.03403
310.03393
310.03416
310.03413
310.03428
310.03452
310.03453
310.03446
310.03434
310.03415
310.03407
310.03404
310.03416
310.03428
310.03439
310.03462
310.03462
310.03456
310.03444
310.0342
310.03408
310.03407
310.03446
310.03452
310.03462
310.03483
310.03484
310.03479
310.03468
310.03443
310.03426
310.0342
310.03448
310.03453
310.03462
310.03484
310.03486
310.03483
310.03473
310.03449
310.03432
310.03426
310.03441
310.03446
310.03456
310.03479
310.03483
310.0348
310.03471
310.03448
310.03432
310.03426
310.0343
310.03434
310.03444
310.03468
310.03473
310.03471
310.03463
310.0344
310.03422
310.03415
310.03414
310.03415
310.0342
310.03443
310.03449
310.03448
310.0344
310.03415
310.03397
310.03388
310.03403
310.03407
310.03408
310.03426
310.03432
310.03432
310.03422
310.03397
310.0338
310.03382
310.03393
310.03404
310.03407
310.0342
310.03426
310.03426
310.03415
310.03388
310.03382
310.03377
316.95828
316.95837
316.95837
316.95868
316.9587
316.95863
316.95851
316.95835
316.95823
316.95812
316.95837
316.95834
316.95849
316.95875
316.95875
316.95868
316.95856
316.95835
316.95827
316.95824
316.95837
316.95849
316.95861
316.95884
316.95885
316.95879
316.95866
316.9584
316.95827
316.95827
316.95868
316.95875
316.95884
316.95907
316.95908
316.95903
316.95891
316.95864
316.95847
316.95841
316.9587
316.95875
316.95885
316.95908
316.9591
316.95907
316.95897
316.95871
316.95853
316.95847
316.95863
316.95868
316.95879
316.95903
316.95907
316.95904
316.95896
316.95871
316.95853
316.95847
316.95851
316.95856
316.95866
316.95891
316.95897
316.95896
316.95887
316.95862
316.95844
316.95836
316.95835
316.95835
316.9584
316.95864
316.95871
316.95871
316.95862
316.95836
316.95816
316.95808
316.95823
316.95827
316.95827
316.95847
316.95853
316.95853
316.95844
316.95816
316.95799
316.95801
316.95812
316.95824
316.95827
316.95841
316.95847
316.95847
316.95836
316.95808
316.95801
316.95796
324.81293
324.81302
324.81301
324.81333
324.81335
324.81328
324.81316
324.81298
324.81286
324.81274
324.81302
324.81298
324.81314
324.8134
324.8134
324.81333
324.8132
324.81299
324.81291
324.81287
324.81301
324.81314
324.81326
324.81349
324.8135
324.81344
324.81331
324.81304
324.81291
324.8129
324.81333
324.8134
324.81349
324.81372
324.81374
324.81369
324.81357
324.81329
324.8131
324.81305
324.81335
324.8134
324.8135
324.81374
324.81376
324.81373
324.81363
324.81336
324.81318
324.81312
324.81328
324.81333
324.81344
324.81369
324.81373
324.81371
324.81362
324.81336
324.81319
324.81313
324.81316
324.8132
324.81331
324.81357
324.81363
324.81362
324.81354
324.81328
324.81309
324.81301
324.81298
324.81299
324.81304
324.81329
324.81336
324.81336
324.81328
324.813
324.8128
324.81271
324.81286
324.81291
324.81291
324.8131
324.81318
324.81319
324.81309
324.8128
324.81262
324.81265
324.81274
324.81287
324.8129
324.81305
324.81312
324.81313
324.81301
324.81271
324.81265
324.8126
333.64477
333.64486
333.64486
333.64518
333.6452
333.64512
333.645
333.64482
333.6447
333.64458
333.64486
333.64483
333.64498
333.64524
333.64525
333.64518
333.64505
333.64483
333.64475
333.64472
333.64486
333.64498
333.6451
333.64534
333.64534
333.64528
333.64515
333.64488
333.64474
333.64475
333.64518
333.64524
333.64534
333.64557
333.64558
333.64554
333.64542
333.64513
333.64495
333.64489
333.6452
333.64525
333.64534
333.64558
333.6456
333.64558
333.64549
333.64521
333.64503
333.64497
333.64512
333.64518
333.64528
333.64554
333.64558
333.64557
333.64549
333.64522
333.64504
333.64499
333.645
333.64505
333.64515
333.64542
333.64549
333.64549
333.64541
333.64514
333.64495
333.64487
333.64482
333.64483
333.64488
333.64513
333.64521
333.64522
333.64514
333.64486
333.64465
333.64456
333.6447
333.64475
333.64474
333.64495
333.64503
333.64504
333.64495
333.64465
333.64446
333.6445
333.64458
333.64472
333.64475
333.64489
333.64497
333.64499
333.64487
333.64456
333.6445
333.64445
343.48773
343.48782
343.48781
343.48813
343.48814
343.48807
343.48795
343.48778
343.48765
343.48753
343.48782
343.48779
343.48793
343.48819
343.48819
343.48812
343.488
343.48778
343.4877
343.48767
343.48781
343.48793
343.48804
343.48828
343.48828
343.48822
343.4881
343.48782
343.48769
343.4877
343.48813
343.48819
343.48828
343.48851
343.48852
343.48848
343.48838
343.48808
343.4879
343.48785
343.48814
343.48819
343.48828
343.48852
343.48854
343.48853
343.48844
343.48817
343.48799
343.48794
343.48807
343.48812
343.48822
343.48848
343.48853
343.48853
343.48846
343.48819
343.48801
343.48796
343.48795
343.488
343.4881
343.48838
343.48844
343.48846
343.48839
343.48812
343.48793
343.48785
343.48778
343.48778
343.48782
343.48808
343.48817
343.48819
343.48812
343.48783
343.48762
343.48753
343.48765
343.4877
343.48769
343.4879
343.48799
343.48801
343.48793
343.48762
343.48743
343.48748
343.48753
343.48767
343.4877
343.48785
343.48794
343.48796
343.48785
343.48753
343.48748
343.48743
354.36054
354.36062
354.36061
354.36092
354.36093
354.36086
354.36075
354.36058
354.36046
354.36034
354.36062
354.36059
354.36072
354.36097
354.36097
354.36091
354.36079
354.36057
354.3605
354.36048
354.36061
354.36072
354.36083
354.36105
354.36106
354.36101
354.36089
354.36062
354.3605
354.36051
354.36092
354.36097
354.36105
354.36128
354.36129
354.36126
354.36117
354.36088
354.36071
354.36066
354.36093
354.36097
354.36106
354.36129
354.36132
354.36131
354.36124
354.36097
354.3608
354.36076
354.36086
354.36091
354.36101
354.36126
354.36131
354.36132
354.36126
354.361
354.36084
354.36079
354.36075
354.36079
354.36089
354.36117
354.36124
354.36126
354.36121
354.36095
354.36077
354.36069
354.36058
354.36057
354.36062
354.36088
354.36097
354.361
354.36095
354.36066
354.36046
354.36037
354.36046
354.3605
354.3605
354.36071
354.3608
354.36084
354.36077
354.36046
354.36027
354.36033
354.36034
354.36048
354.36051
354.36066
354.36076
354.36079
354.36069
354.36037
354.36033
354.36028
366.26494
366.26502
366.265
366.2653
366.26531
366.26524
366.26514
366.26498
366.26487
366.26475
366.26502
366.26498
366.26511
366.26534
366.26534
366.26528
366.26518
366.26497
366.26491
366.26489
366.265
366.26511
366.2652
366.26541
366.26541
366.26537
366.26527
366.26501
366.2649
366.26492
366.2653
366.26534
366.26541
366.26563
366.26564
366.26562
366.26554
366.26527
366.26511
366.26507
366.26531
366.26534
366.26541
366.26564
366.26567
366.26567
366.26562
366.26536
366.26521
366.26517
366.26524
366.26528
366.26537
366.26562
366.26567
366.2657
366.26566
366.26541
366.26526
366.26522
366.26514
366.26518
366.26527
366.26554
366.26562
366.26566
366.26563
366.26537
366.2652
366.26514
366.26498
366.26497
366.26501
366.26527
366.26536
366.26541
366.26537
366.2651
366.2649
366.26481
366.26487
366.26491
366.2649
366.26511
366.26521
366.26526
366.2652
366.2649
366.26473
366.26479
366.26475
366.26489
366.26492
366.26507
366.26517
366.26522
366.26514
366.26481
366.26479
366.26475
379.18445
379.18452
379.1845
379.18478
379.18478
379.18473
379.18464
379.18449
379.1844
379.18428
379.18452
379.18449
379.18459
379.18481
379.18481
379.18476
379.18468
379.18448
379.18443
379.18442
379.1845
379.18459
379.18467
379.18487
379.18487
379.18485
379.18476
379.18452
379.18442
379.18445
379.18478
379.18481
379.18487
379.18507
379.18509
379.18508
379.18502
379.18477
379.18462
379.1846
379.18478
379.18481
379.18487
379.18509
379.18512
379.18514
379.18511
379.18487
379.18473
379.18471
379.18473
379.18476
379.18485
379.18508
379.18514
379.18518
379.18516
379.18493
379.1848
379.18477
379.18464
379.18468
379.18476
379.18502
379.18511
379.18516
379.18515
379.18492
379.18476
379.1847
379.18449
379.18448
379.18452
379.18477
379.18487
379.18493
379.18492
379.18466
379.18448
379.18439
379.1844
379.18443
379.18442
379.18462
379.18473
379.1848
379.18476
379.18448
379.18431
379.18439
379.18428
379.18442
379.18445
379.1846
379.18471
379.18477
379.1847
379.18439
379.18439
379.18435
393.08385
393.08391
393.08388
393.08413
393.08414
393.08409
393.08402
393.08389
393.08381
393.08371
393.08391
393.08387
393.08396
393.08416
393.08416
393.08412
393.08405
393.08388
393.08385
393.08385
393.08388
393.08396
393.08402
393.0842
393.08421
393.0842
393.08414
393.08391
393.08384
393.08388
393.08413
393.08416
393.0842
393.08439
393.0844
393.08442
393.08438
393.08415
393.08403
393.08402