/*--------------------------------*- C++ -*----------------------------------*\
| =========                 |                                                 |
| \\      /  F ield         | OpenFOAM: The Open Source CFD Toolbox           |
|  \\    /   O peration     | Version:  v2106                                 |
|   \\  /    A nd           | Website:  www.openfoam.com                      |
|    \\/     M anipulation  |                                                 |
\*---------------------------------------------------------------------------*/
FoamFile
{
    version     2.0;
    format      ascii;
    arch        "LSB;label=32;scalar=64";
    class       volScalarField;
    location    "20";
    object      gradTz;
}
// * * * * * * * * * * * * * * * * * * * * * * * * * * * * * * * * * * * * * //

dimensions      [0 -1 0 1 0 0 0];

internalField   nonuniform List<scalar> 
4000
(
680.50475
680.5027
680.50844
680.5061
680.50473
680.50423
680.50424
680.50446
680.50465
680.50484
680.5027
680.50656
680.50866
680.50611
680.50482
680.50445
680.5046
680.50491
680.50482
680.50449
680.50844
680.50866
680.51052
680.50805
680.50684
680.50657
680.5069
680.50745
680.50744
680.5065
680.5061
680.50611
680.50805
680.50566
680.50452
680.50433
680.50478
680.50557
680.50595
680.50551
680.50473
680.50482
680.50684
680.50452
680.50345
680.50332
680.50386
680.50475
680.50527
680.50502
680.50423
680.50445
680.50657
680.50433
680.50332
680.50326
680.50386
680.50481
680.50539
680.50518
680.50424
680.5046
680.5069
680.50478
680.50386
680.50386
680.5045
680.50547
680.50606
680.50583
680.50446
680.50491
680.50745
680.50557
680.50475
680.50481
680.50547
680.50644
680.50699
680.50668
680.50465
680.50482
680.50744
680.50595
680.50527
680.50539
680.50606
680.50699
680.50744
680.50697
680.50484
680.50449
680.5065
680.50551
680.50502
680.50518
680.50583
680.50668
680.50697
680.50636
680.97002
680.96911
680.97165
680.96995
680.9689
680.96856
680.96867
680.96892
680.96898
680.96957
680.96911
680.97056
680.97147
680.96968
680.96869
680.96847
680.96875
680.96909
680.96862
680.9685
680.97165
680.97147
680.97218
680.97042
680.9695
680.96937
680.96983
680.97045
680.97006
680.96946
680.96995
680.96968
680.97042
680.96872
680.96785
680.9678
680.96838
680.96923
680.96918
680.96897
680.9689
680.96869
680.9695
680.96785
680.96705
680.96706
680.96772
680.96868
680.96878
680.96874
680.96856
680.96847
680.96937
680.9678
680.96706
680.96713
680.96786
680.96887
680.96902
680.96903
680.96867
680.96875
680.96983
680.96838
680.96772
680.96786
680.96862
680.96965
680.9698
680.96978
680.96892
680.96909
680.97045
680.96923
680.96868
680.96887
680.96965
680.97067
680.97075
680.97059
680.96898
680.96862
680.97006
680.96918
680.96878
680.96902
680.9698
680.97075
680.97066
680.97022
680.96957
680.9685
680.96946
680.96897
680.96874
680.96903
680.96978
680.97059
680.97022
680.97011
681.82389
681.82308
681.82453
681.82309
681.82224
681.82206
681.8223
681.82262
681.82242
681.82302
681.82308
681.824
681.82438
681.82288
681.8221
681.82203
681.82249
681.82297
681.82219
681.822
681.82453
681.82438
681.82463
681.82317
681.82245
681.82248
681.82311
681.82389
681.82321
681.82262
681.82309
681.82288
681.82317
681.82176
681.8211
681.82119
681.82194
681.82294
681.82257
681.82229
681.82224
681.8221
681.82245
681.8211
681.82049
681.82065
681.82148
681.82259
681.82235
681.82223
681.82206
681.82203
681.82248
681.82119
681.82065
681.82088
681.82176
681.82292
681.82273
681.82266
681.8223
681.82249
681.82311
681.82194
681.82148
681.82176
681.82269
681.82387
681.82366
681.82354
681.82262
681.82297
681.82389
681.82294
681.82259
681.82292
681.82387
681.82501
681.8247
681.82435
681.82242
681.82219
681.82321
681.82257
681.82235
681.82273
681.82366
681.8247
681.8241
681.82328
681.82302
681.822
681.82262
681.82229
681.82223
681.82266
681.82354
681.82435
681.82328
681.82363
683.09719
683.0963
683.09769
683.09642
683.09572
683.09566
683.09605
683.09649
683.09622
683.09658
683.0963
683.09698
683.09739
683.09608
683.09545
683.09551
683.09611
683.09677
683.09598
683.09574
683.09769
683.09739
683.0977
683.09643
683.09586
683.096
683.09678
683.09773
683.097
683.09635
683.09642
683.09608
683.09643
683.09521
683.09469
683.09491
683.0958
683.09696
683.09651
683.09613
683.09572
683.09545
683.09586
683.09469
683.09423
683.09452
683.09548
683.09674
683.09641
683.09618
683.09566
683.09551
683.096
683.09491
683.09452
683.09486
683.09588
683.09719
683.09691
683.09671
683.09605
683.09611
683.09678
683.0958
683.09548
683.09588
683.09693
683.09826
683.09796
683.0977
683.09649
683.09677
683.09773
683.09696
683.09674
683.09719
683.09826
683.09954
683.0991
683.09855
683.09622
683.09598
683.097
683.09651
683.09641
683.09691
683.09796
683.0991
683.09828
683.09705
683.09658
683.09574
683.09635
683.09613
683.09618
683.09671
683.0977
683.09855
683.09705
683.09751
684.78243
684.78163
684.78303
684.7819
684.78133
684.78136
684.78186
684.78243
684.78226
684.78258
684.78163
684.78231
684.78278
684.78162
684.7811
684.78125
684.78195
684.78274
684.78205
684.78185
684.78303
684.78278
684.78317
684.78203
684.78157
684.78182
684.78268
684.78375
684.78309
684.78248
684.7819
684.78162
684.78203
684.78095
684.78055
684.78086
684.78184
684.78311
684.78271
684.78234
684.78133
684.7811
684.78157
684.78055
684.7802
684.78057
684.78163
684.78299
684.78271
684.78247
684.78136
684.78125
684.78182
684.78086
684.78057
684.78101
684.78211
684.78352
684.78328
684.78308
684.78186
684.78195
684.78268
684.78184
684.78163
684.78211
684.78325
684.78467
684.78441
684.78414
684.78243
684.78274
684.78375
684.78311
684.78299
684.78352
684.78467
684.78604
684.78563
684.78505
684.78226
684.78205
684.78309
684.78271
684.78271
684.78328
684.78441
684.78563
684.78481
684.78342
684.78258
684.78185
684.78248
684.78234
684.78247
684.78308
684.78414
684.78505
684.78342
684.78384
686.86993
686.86921
686.87061
686.86959
686.8691
686.86922
686.86977
686.87042
686.87031
686.87063
686.86921
686.8699
686.8704
686.86935
686.86892
686.86914
686.8699
686.87076
686.87014
686.86996
686.87061
686.8704
686.87082
686.8698
686.86943
686.86974
686.87066
686.87178
686.87119
686.87061
686.86959
686.86935
686.8698
686.86883
686.86851
686.86889
686.86993
686.87123
686.87089
686.87053
686.8691
686.86892
686.86943
686.86851
686.86825
686.86869
686.86979
686.87119
686.87095
686.87073
686.86922
686.86914
686.86974
686.86889
686.86869
686.86918
686.87033
686.87178
686.87158
686.87138
686.86977
686.8699
686.87066
686.86993
686.86979
686.87033
686.87151
686.87296
686.87274
686.87247
686.87042
686.87076
686.87178
686.87123
686.87119
686.87178
686.87296
686.87437
686.87399
686.87341
686.87031
686.87014
686.87119
686.87089
686.87095
686.87158
686.87274
686.87399
686.87319
686.87177
686.87063
686.86996
686.87061
686.87053
686.87073
686.87138
686.87247
686.87341
686.87177
686.87215
689.34676
689.34611
689.34745
689.34653
689.34612
689.34629
689.34689
689.34757
689.34751
689.34783
689.34611
689.34677
689.34728
689.34632
689.34597
689.34625
689.34704
689.34793
689.34737
689.3472
689.34745
689.34728
689.34771
689.34679
689.34649
689.34685
689.3478
689.34893
689.3484
689.34785
689.34653
689.34632
689.34679
689.34592
689.34567
689.3461
689.34715
689.34847
689.34816
689.34782
689.34612
689.34597
689.34649
689.34567
689.34548
689.34596
689.34708
689.34848
689.34828
689.34806
689.34629
689.34625
689.34685
689.3461
689.34596
689.34649
689.34765
689.3491
689.34893
689.34874
689.34689
689.34704
689.3478
689.34715
689.34708
689.34765
689.34884
689.35029
689.35009
689.34984
689.34757
689.34793
689.34893
689.34847
689.34848
689.3491
689.35029
689.3517
689.35135
689.35078
689.34751
689.34737
689.3484
689.34816
689.34828
689.34893
689.35009
689.35135
689.35058
689.34918
689.34783
689.3472
689.34785
689.34782
689.34806
689.34874
689.34984
689.35078
689.34918
689.34954
692.19757
692.19697
692.19825
692.19742
692.19708
692.19729
692.19791
692.19861
692.19857
692.19889
692.19697
692.19759
692.1981
692.19724
692.19695
692.19726
692.19807
692.19896
692.19845
692.19831
692.19825
692.1981
692.19853
692.1977
692.19747
692.19786
692.19881
692.19994
692.19945
692.19893
692.19742
692.19724
692.1977
692.19692
692.19673
692.19719
692.19824
692.19954
692.19926
692.19895
692.19708
692.19695
692.19747
692.19673
692.1966
692.19711
692.19822
692.1996
692.19942
692.19922
692.19729
692.19726
692.19786
692.19719
692.19711
692.19766
692.19881
692.20023
692.20008
692.19991
692.19791
692.19807
692.19881
692.19824
692.19822
692.19881
692.19999
692.20142
692.20124
692.201
692.19861
692.19896
692.19994
692.19954
692.1996
692.20023
692.20142
692.20279
692.20247
692.20193
692.19857
692.19845
692.19945
692.19926
692.19942
692.20008
692.20124
692.20247
692.20174
692.20038
692.19889
692.19831
692.19893
692.19895
692.19922
692.19991
692.201
692.20193
692.20038
692.20072
695.40476
695.40422
695.40541
695.40467
695.40439
695.40464
695.40526
695.40596
695.40594
695.40625
695.40422
695.40479
695.40528
695.40451
695.40428
695.40462
695.40542
695.4063
695.40584
695.40571
695.40541
695.40528
695.4057
695.40496
695.40478
695.40519
695.40613
695.40724
695.40679
695.40632
695.40467
695.40451
695.40496
695.40426
695.40413
695.4046
695.40564
695.4069
695.40665
695.40637
695.40439
695.40428
695.40478
695.40413
695.40404
695.40456
695.40566
695.407
695.40684
695.40666
695.40464
695.40462
695.40519
695.4046
695.40456
695.40513
695.40626
695.40764
695.4075
695.40735
695.40526
695.40542
695.40613
695.40564
695.40566
695.40626
695.40741
695.40879
695.40863
695.40841
695.40596
695.4063
695.40724
695.4069
695.407
695.40764
695.40879
695.41012
695.40983
695.40931
695.40594
695.40584
695.40679
695.40665
695.40684
695.4075
695.40863
695.40983
695.40913
695.40783
695.40625
695.40571
695.40632
695.40637
695.40666
695.40735
695.40841
695.40931
695.40783
695.40816
698.94856
698.94807
698.94917
698.94851
698.9483
698.94856
698.94919
698.94987
698.94987
698.95016
698.94807
698.94859
698.94905
698.94837
698.9482
698.94855
698.94934
698.9502
698.94978
698.94967
698.94917
698.94905
698.94945
698.9488
698.94867
698.94909
698.95002
698.95109
698.95068
698.95024
698.94851
698.94837
698.9488
698.94819
698.9481
698.94858
698.94959
698.95081
698.95058
698.95032
698.9483
698.9482
698.94867
698.9481
698.94806
698.94858
698.94964
698.95094
698.95079
698.95062
698.94856
698.94855
698.94909
698.94858
698.94858
698.94915
698.95024
698.95156
698.95145
698.9513
698.94919
698.94934
698.95002
698.94959
698.94964
698.95024
698.95136
698.95268
698.95253
698.95233
698.94987
698.9502
698.95109
698.95081
698.95094
698.95156
698.95268
698.95396
698.95368
698.95319
698.94987
698.94978
698.95068
698.95058
698.95079
698.95145
698.95253
698.95368
698.95302
698.95178
698.95016
698.94967
698.95024
698.95032
698.95062
698.9513
698.95233
698.95319
698.95178
698.95211
702.80713
702.80669
702.80769
702.80712
702.80696
702.80724
702.80785
702.80851
702.80853
702.8088
702.80669
702.80716
702.80759
702.807
702.80687
702.80723
702.808
702.80883
702.80845
702.80836
702.80769
702.80759
702.80796
702.8074
702.80732
702.80774
702.80863
702.80965
702.80928
702.80889
702.80712
702.807
702.8074
702.80687
702.80683
702.8073
702.80827
702.80943
702.80923
702.80899
702.80696
702.80687
702.80732
702.80683
702.80682
702.80734
702.80836
702.80958
702.80946
702.8093
702.80724
702.80723
702.80774
702.8073
702.80734
702.8079
702.80894
702.8102
702.81009
702.80996
702.80785
702.808
702.80863
702.80827
702.80836
702.80894
702.81
702.81126
702.81113
702.81094
702.80851
702.80883
702.80965
702.80943
702.80958
702.8102
702.81126
702.81247
702.81221
702.81176
702.80853
702.80845
702.80928
702.80923
702.80946
702.81009
702.81113
702.81221
702.8116
702.81043
702.8088
702.80836
702.80889
702.80899
702.8093
702.80996
702.81094
702.81176
702.81043
702.81074
706.9567
706.95632
706.95721
706.95672
706.9566
706.95689
706.95748
706.95812
706.95815
706.9584
706.95632
706.95672
706.95711
706.95661
706.95653
706.9569
706.95763
706.95842
706.95809
706.958
706.95721
706.95711
706.95746
706.95698
706.95694
706.95736
706.95821
706.95917
706.95884
706.95849
706.95672
706.95661
706.95698
706.95654
706.95653
706.957
706.95792
706.95901
706.95883
706.95861
706.9566
706.95653
706.95694
706.95653
706.95656
706.95707
706.95803
706.95918
706.95907
706.95893
706.95689
706.9569
706.95736
706.957
706.95707
706.95761
706.95859
706.95977
706.95968
706.95956
706.95748
706.95763
706.95821
706.95792
706.95803
706.95859
706.9596
706.96077
706.96065
706.96048
706.95812
706.95842
706.95917
706.95901
706.95918
706.95977
706.96077
706.9619
706.96167
706.96125
706.95815
706.95809
706.95884
706.95883
706.95907
706.95968
706.96065
706.96167
706.9611
706.96001
706.9584
706.958
706.95849
706.95861
706.95893
706.95956
706.96048
706.96125
706.96001
706.96031
711.37169
711.37137
711.37214
711.37174
711.37167
711.37196
711.37253
711.37313
711.37317
711.37339
711.37137
711.37171
711.37206
711.37165
711.37161
711.37197
711.37267
711.37342
711.37312
711.37305
711.37214
711.37206
711.37237
711.37198
711.37198
711.37239
711.37319
711.37409
711.3738
711.37349
711.37174
711.37165
711.37198
711.37162
711.37165
711.37211
711.37296
711.37398
711.37382
711.37363
711.37167
711.37161
711.37198
711.37165
711.37171
711.3722
711.3731
711.37417
711.37407
711.37394
711.37196
711.37197
711.37239
711.37211
711.3722
711.37272
711.37364
711.37473
711.37464
711.37454
711.37253
711.37267
711.37319
711.37296
711.3731
711.37364
711.37457
711.37566
711.37555
711.3754
711.37313
711.37342
711.37409
711.37398
711.37417
711.37473
711.37566
711.3767
711.37649
711.37611
711.37317
711.37312
711.3738
711.37382
711.37407
711.37464
711.37555
711.37649
711.37597
711.37496
711.37339
711.37305
711.37349
711.37363
711.37394
711.37454
711.3754
711.37611
711.37496
711.37524
716.02492
716.02465
716.02529
716.02498
716.02496
716.02525
716.02579
716.02635
716.02639
716.02659
716.02465
716.02492
716.02523
716.02491
716.02491
716.02527
716.02592
716.02661
716.02636
716.02631
716.02529
716.02523
716.0255
716.0252
716.02524
716.02564
716.02637
716.02721
716.02695
716.02669
716.02498
716.02491
716.0252
716.02493
716.02499
716.02543
716.02622
716.02715
716.02701
716.02684
716.02496
716.02491
716.02524
716.02499
716.02508
716.02555
716.02637
716.02735
716.02726
716.02715
716.02525
716.02527
716.02564
716.02543
716.02555
716.02604
716.02688
716.02787
716.0278
716.02771
716.02579
716.02592
716.02637
716.02622
716.02637
716.02688
716.02774
716.02873
716.02863
716.02849
716.02635
716.02661
716.02721
716.02715
716.02735
716.02787
716.02873
716.02968
716.02948
716.02914
716.02639
716.02636
716.02695
716.02701
716.02726
716.0278
716.02863
716.02948
716.02901
716.02809
716.02659
716.02631
716.02669
716.02684
716.02715
716.02771
716.02849
716.02914
716.02809
716.02836
720.88769
720.88749
720.888
720.88778
720.8878
720.88809
720.88859
720.88911
720.88916
720.88933
720.88749
720.88769
720.88795
720.88772
720.88777
720.88811
720.88871
720.88934
720.88913
720.8891
720.888
720.88795
720.88819
720.88797
720.88804
720.88843
720.8891
720.88985
720.88964
720.88942
720.88778
720.88772
720.88797
720.88778
720.88788
720.88829
720.88901
720.88985
720.88973
720.88959
720.8878
720.88777
720.88804
720.88788
720.888
720.88843
720.88918
720.89006
720.88998
720.88989
720.88809
720.88811
720.88843
720.88829
720.88843
720.88889
720.88966
720.89054
720.89048
720.8904
720.88859
720.88871
720.8891
720.88901
720.88918
720.88966
720.89043
720.89131
720.89123
720.89111
720.88911
720.88934
720.88985
720.88985
720.89006
720.89054
720.89131
720.89216
720.89199
720.89169
720.88916
720.88913
720.88964
720.88973
720.88998
720.89048
720.89123
720.89199
720.89157
720.89074
720.88933
720.8891
720.88942
720.88959
720.88989
720.8904
720.89111
720.89169
720.89074
720.89099
725.93006
725.92992
725.9303
725.93016
725.93022
725.93051
725.93097
725.93144
725.93149
725.93164
725.92992
725.93005
725.93026
725.93012
725.93021
725.93053
725.93108
725.93165
725.93148
725.93146
725.9303
725.93026
725.93045
725.93033
725.93043
725.9308
725.9314
725.93207
725.9319
725.93173
725.93016
725.93012
725.93033
725.93022
725.93035
725.93073
725.93138
725.93211
725.93202
725.9319
725.93022
725.93021
725.93043
725.93035
725.93049
725.9309
725.93156
725.93233
725.93227
725.93219
725.93051
725.93053
725.9308
725.93073
725.9309
725.93132
725.932
725.93278
725.93272
725.93265
725.93097
725.93108
725.9314
725.93138
725.93156
725.932
725.93268
725.93345
725.93338
725.93328
725.93144
725.93165
725.93207
725.93211
725.93233
725.93278
725.93345
725.9342
725.93405
725.93378
725.93149
725.93148
725.9319
725.93202
725.93227
725.93272
725.93338
725.93405
725.93367
725.93295
725.93164
725.93146
725.93173
725.9319
725.93219
725.93265
725.93328
725.93378
725.93295
725.93318
731.12094
731.12087
731.12111
731.12106
731.12117
731.12144
731.12186
731.12228
731.12233
731.12245
731.12087
731.12092
731.12108
731.12104
731.12116
731.12147
731.12195
731.12246
731.12234
731.12233
731.12111
731.12108
731.12123
731.1212
731.12134
731.12167
731.1222
731.12278
731.12266
731.12253
731.12106
731.12104
731.1212
731.12118
731.12133
731.12169
731.12225
731.12288
731.1228
731.12272
731.12117
731.12116
731.12134
731.12133
731.1215
731.12187
731.12245
731.1231
731.12305
731.12299
731.12144
731.12147
731.12167
731.12169
731.12187
731.12225
731.12284
731.1235
731.12346
731.1234
731.12186
731.12195
731.1222
731.12225
731.12245
731.12284
731.12343
731.12408
731.12402
731.12394
731.12228
731.12246
731.12278
731.12288
731.1231
731.1235
731.12408
731.12472
731.12459
731.12437
731.12233
731.12234
731.12266
731.1228
731.12305
731.12346
731.12402
731.12459
731.12427
731.12365
731.12245
731.12233
731.12253
731.12272
731.12299
731.1234
731.12394
731.12437
731.12365
731.12385
736.42836
736.42834
736.42844
736.42848
736.42863
736.4289
736.42927
736.42963
736.42969
736.42977
736.42834
736.42832
736.42843
736.42848
736.42864
736.42893
736.42935
736.42978
736.4297
736.42971
736.42844
736.42843
736.42854
736.42859
736.42876
736.42907
736.42952
736.43001
736.42992
736.42985
736.42848
736.42848
736.42859
736.42866
736.42884
736.42916
736.42963
736.43015
736.4301
736.43004
736.42863
736.42864
736.42876
736.42884
736.42903
736.42936
736.42984
736.43038
736.43034
736.4303
736.4289
736.42893
736.42907
736.42916
736.42936
736.4297
736.43019
736.43073
736.43069
736.43065
736.42927
736.42935
736.42952
736.42963
736.42984
736.43019
736.43068
736.43121
736.43116
736.4311
736.42963
736.42978
736.43001
736.43015
736.43038
736.43073
736.43121
736.43173
736.43162
736.43145
736.42969
736.4297
736.42992
736.4301
736.43034
736.43069
736.43116
736.43162
736.43136
736.43085
736.42977
736.42971
736.42985
736.43004
736.4303
736.43065
736.4311
736.43145
736.43085
736.43103
741.81958
741.81963
741.81959
741.81972
741.81991
741.82016
741.82048
741.82079
741.82085
741.8209
741.81963
741.81954
741.81959
741.81973
741.81992
741.82019
741.82054
741.8209
741.82087
741.82089
741.81959
741.81959
741.81965
741.8198
741.82
741.82028
741.82065
741.82104
741.82099
741.82097
741.81972
741.81973
741.8198
741.81994
741.82015
741.82044
741.82082
741.82123
741.8212
741.82117
741.81991
741.81992
741.82
741.82015
741.82036
741.82065
741.82104
741.82146
741.82143
741.82141
741.82016
741.82019
741.82028
741.82044
741.82065
741.82095
741.82134
741.82176
741.82173
741.8217
741.82048
741.82054
741.82065
741.82082
741.82104
741.82134
741.82172
741.82214
741.8221
741.82205
741.82079
741.8209
741.82104
741.82123
741.82146
741.82176
741.82214
741.82253
741.82245
741.82231
741.82085
741.82087
741.82099
741.8212
741.82143
741.82173
741.8221
741.82245
741.82224
741.82184
741.8209
741.82089
741.82097
741.82117
741.82141
741.8217
741.82205
741.82231
741.82184
741.82199
747.26139
747.2615
747.26132
747.26154
747.26176
747.262
747.26226
747.26251
747.26257
747.2626
747.2615
747.26134
747.26134
747.26156
747.26179
747.26203
747.26232
747.2626
747.26261
747.26264
747.26132
747.26134
747.26135
747.26158
747.26181
747.26206
747.26234
747.26264
747.26263
747.26266
747.26154
747.26156
747.26158
747.26181
747.26204
747.26229
747.26258
747.26287
747.26286
747.26286
747.26176
747.26179
747.26181
747.26204
747.26227
747.26252
747.26281
747.2631
747.26309
747.26308
747.262
747.26203
747.26206
747.26229
747.26252
747.26277
747.26305
747.26334
747.26333
747.26331
747.26226
747.26232
747.26234
747.26258
747.26281
747.26305
747.26334
747.26362
747.26359
747.26356
747.26251
747.2626
747.26264
747.26287
747.2631
747.26334
747.26362
747.26389
747.26383
747.26374
747.26257
747.26261
747.26263
747.26286
747.26309
747.26333
747.26359
747.26383
747.26368
747.2634
747.2626
747.26264
747.26266
747.26286
747.26308
747.26331
747.26356
747.26374
747.2634
747.26352
752.72024
752.72041
752.72009
752.72039
752.72065
752.72087
752.72108
752.72127
752.72133
752.72132
752.72041
752.72017
752.72011
752.72043
752.72069
752.72091
752.72112
752.72132
752.72138
752.72142
752.72009
752.72011
752.72008
752.7204
752.72065
752.72087
752.72107
752.72126
752.7213
752.72137
752.72039
752.72043
752.7204
752.72071
752.72096
752.72117
752.72136
752.72154
752.72155
752.72157
752.72065
752.72069
752.72065
752.72096
752.72121
752.72141
752.7216
752.72177
752.72177
752.72177
752.72087
752.72091
752.72087
752.72117
752.72141
752.72161
752.72179
752.72195
752.72194
752.72194
752.72108
752.72112
752.72107
752.72136
752.7216
752.72179
752.72197
752.72212
752.7221
752.7221
752.72127
752.72132
752.72126
752.72154
752.72177
752.72195
752.72212
752.72227
752.72223
752.72219
752.72133
752.72138
752.7213
752.72155
752.72177
752.72194
752.7221
752.72223
752.72214
752.72197
752.72132
752.72142
752.72137
752.72157
752.72177
752.72194
752.7221
752.72219
752.72197
752.72206
758.16246
758.16269
758.16223
758.16262
758.16291
758.16312
758.16327
758.16339
758.16345
758.16341
758.16269
758.16238
758.16227
758.16268
758.16296
758.16315
758.16329
758.16341
758.16352
758.16357
758.16223
758.16227
758.1622
758.16259
758.16287
758.16305
758.16316
758.16325
758.16333
758.16345
758.16262
758.16268
758.16259
758.16298
758.16325
758.16342
758.16352
758.16358
758.16361
758.16366
758.16291
758.16296
758.16287
758.16325
758.16351
758.16367
758.16376
758.1638
758.16381
758.16383
758.16312
758.16315
758.16305
758.16342
758.16367
758.16382
758.1639
758.16393
758.16393
758.16394
758.16327
758.16329
758.16316
758.16352
758.16376
758.1639
758.16396
758.16399
758.16398
758.16399
758.16339
758.16341
758.16325
758.16358
758.1638
758.16393
758.16399
758.164
758.16399
758.164
758.16345
758.16352
758.16333
758.16361
758.16381
758.16393
758.16398
758.16399
758.16396
758.1639
758.16341
758.16357
758.16345
758.16366
758.16383
758.16394
758.16399
758.164
758.1639
758.16397
763.55451
763.5548
763.55421
763.55467
763.55499
763.55518
763.55527
763.55533
763.55539
763.55532
763.5548
763.55442
763.55426
763.55474
763.55505
763.55521
763.55527
763.55531
763.55546
763.55553
763.55421
763.55426
763.55413
763.55461
763.55491
763.55505
763.55508
763.55506
763.55518
763.55535
763.55467
763.55474
763.55461
763.55508
763.55536
763.55549
763.55549
763.55543
763.55548
763.55555
763.55499
763.55505
763.55491
763.55536
763.55564
763.55575
763.55573
763.55564
763.55566
763.5557
763.55518
763.55521
763.55505
763.55549
763.55575
763.55584
763.55581
763.55571
763.55572
763.55575
763.55527
763.55527
763.55508
763.55549
763.55573
763.55581
763.55577
763.55566
763.55566
763.55569
763.55533
763.55531
763.55506
763.55543
763.55564
763.55571
763.55566
763.55555
763.55556
763.55561
763.55539
763.55546
763.55518
763.55548
763.55566
763.55572
763.55566
763.55556
763.55559
763.55565
763.55532
763.55553
763.55535
763.55555
763.5557
763.55575
763.55569
763.55561
763.55565
763.55568
768.86313
768.86347
768.86275
768.86329
768.86364
768.8638
768.86384
768.86383
768.8639
768.86379
768.86347
768.86303
768.86281
768.86338
768.86371
768.86384
768.86383
768.86378
768.86398
768.86405
768.86275
768.86281
768.86264
768.8632
768.86352
768.86362
768.86355
768.86343
768.8636
768.86381
768.86329
768.86338
768.8632
768.86373
768.86404
768.86412
768.86402
768.86384
768.86391
768.86401
768.86364
768.86371
768.86352
768.86404
768.86432
768.86438
768.86426
768.86405
768.86408
768.86413
768.8638
768.86384
768.86362
768.86412
768.86438
768.86443
768.86428
768.86405
768.86407
768.86411
768.86384
768.86383
768.86355
768.86402
768.86426
768.86428
768.86413
768.86389
768.86391
768.86396
768.86383
768.86378
768.86343
768.86384
768.86405
768.86405
768.86389
768.86366
768.86369
768.86379
768.8639
768.86398
768.8636
768.86391
768.86408
768.86407
768.86391
768.86369
768.86378
768.86395
768.86379
768.86405
768.86381
768.86401
768.86413
768.86411
768.86396
768.86379
768.86395
768.86396
774.05558
774.05598
774.05513
774.05574
774.05612
774.05626
774.05623
774.05616
774.05622
774.05609
774.05598
774.05547
774.0552
774.05584
774.0562
774.0563
774.05621
774.05608
774.05631
774.0564
774.05513
774.0552
774.05499
774.05561
774.05595
774.05601
774.05586
774.05564
774.05584
774.05609
774.05574
774.05584
774.05561
774.05622
774.05654
774.05657
774.05637
774.05607
774.05616
774.05629
774.05612
774.0562
774.05595
774.05654
774.05683
774.05684
774.05661
774.05627
774.05632
774.05638
774.05626
774.0563
774.05601
774.05657
774.05684
774.05683
774.05658
774.05622
774.05624
774.0563
774.05623
774.05621
774.05586
774.05637
774.05661
774.05658
774.05632
774.05595
774.05597
774.05604
774.05616
774.05608
774.05564
774.05607
774.05627
774.05622
774.05595
774.05559
774.05564
774.05578
774.05622
774.05631
774.05584
774.05616
774.05632
774.05624
774.05597
774.05564
774.05579
774.05608
774.05609
774.0564
774.05609
774.05629
774.05638
774.0563
774.05604
774.05578
774.05608
774.05605
779.09984
779.10029
779.09932
779.1
779.1004
779.10052
779.10043
779.10029
779.10035
779.10018
779.10029
779.09972
779.0994
779.10011
779.10049
779.10055
779.10038
779.10018
779.10045
779.10055
779.09932
779.0994
779.09914
779.09984
779.10019
779.10021
779.09997
779.09964
779.09988
779.10017
779.1
779.10011
779.09984
779.10051
779.10083
779.10082
779.10053
779.10011
779.10021
779.10037
779.1004
779.10049
779.10019
779.10083
779.10113
779.10109
779.10076
779.1003
779.10035
779.10043
779.10052
779.10055
779.10021
779.10082
779.10109
779.10103
779.10067
779.10018
779.10021
779.10028
779.10043
779.10038
779.09997
779.10053
779.10076
779.10067
779.1003
779.0998
779.09983
779.09992
779.10029
779.10018
779.09964
779.10011
779.1003
779.10018
779.0998
779.09932
779.09939
779.09958
779.10035
779.10045
779.09988
779.10021
779.10035
779.10021
779.09983
779.09939
779.09959
779.09999
779.10018
779.10055
779.10017
779.10037
779.10043
779.10028
779.09992
779.09958
779.09999
779.09994
783.9648
783.9653
783.96421
783.96495
783.96537
783.96546
783.96531
783.9651
783.96516
783.96496
783.9653
783.96467
783.9643
783.96508
783.96547
783.96549
783.96525
783.96496
783.96526
783.96537
783.96421
783.9643
783.964
783.96475
783.96511
783.96509
783.96476
783.96433
783.9646
783.96494
783.96495
783.96508
783.96475
783.96548
783.96581
783.96575
783.96536
783.96483
783.96495
783.96512
783.96537
783.96547
783.96511
783.96581
783.96612
783.96602
783.96559
783.965
783.96506
783.96516
783.96546
783.96549
783.96509
783.96575
783.96602
783.9659
783.96544
783.96482
783.96486
783.96493
783.96531
783.96525
783.96476
783.96536
783.96559
783.96544
783.96496
783.96434
783.96438
783.96448
783.9651
783.96496
783.96433
783.96483
783.965
783.96482
783.96434
783.96373
783.96383
783.96405
783.96516
783.96526
783.9646
783.96495
783.96506
783.96486
783.96438
783.96383
783.96408
783.96459
783.96496
783.96537
783.96494
783.96512
783.96516
783.96493
783.96448
783.96405
783.96459
783.9645
788.62044
788.62098
788.61978
788.62057
788.62101
788.62107
788.62086
788.62059
788.62064
788.62041
788.62098
788.6203
788.61988
788.62071
788.62112
788.62111
788.62078
788.62041
788.62075
788.62087
788.61978
788.61988
788.61953
788.62035
788.62071
788.62065
788.62023
788.6197
788.62
788.62038
788.62057
788.62071
788.62035
788.62113
788.62146
788.62136
788.62087
788.62022
788.62035
788.62055
788.62101
788.62112
788.62071
788.62146
788.62176
788.62162
788.62108
788.62038
788.62044
788.62055
788.62107
788.62111
788.62065
788.62136
788.62162
788.62144
788.62087
788.62014
788.62018
788.62026
788.62086
788.62078
788.62023
788.62087
788.62108
788.62087
788.62029
788.61954
788.61959
788.61971
788.62059
788.62041
788.6197
788.62022
788.62038
788.62014
788.61954
788.61881
788.61893
788.61919
788.62064
788.62075
788.62
788.62035
788.62044
788.62018
788.61959
788.61893
788.61924
788.61985
788.62041
788.62087
788.62038
788.62055
788.62055
788.62026
788.61971
788.61919
788.61985
788.61974
793.03804
793.03862
793.03731
793.03816
793.03861
793.03863
793.03836
793.03803
793.03807
793.03781
793.03862
793.03789
793.03742
793.03831
793.03872
793.03867
793.03827
793.03781
793.03819
793.03831
793.03731
793.03742
793.03703
793.0379
793.03827
793.03816
793.03765
793.03702
793.03735
793.03776
793.03816
793.03831
793.0379
793.03873
793.03906
793.0389
793.03832
793.03755
793.0377
793.03792
793.03861
793.03872
793.03827
793.03906
793.03936
793.03916
793.03852
793.0377
793.03777
793.03789
793.03863
793.03867
793.03816
793.0389
793.03916
793.03892
793.03825
793.03739
793.03744
793.03753
793.03836
793.03827
793.03765
793.03832
793.03852
793.03825
793.03756
793.03669
793.03675
793.03688
793.03803
793.03781
793.03702
793.03755
793.0377
793.03739
793.03669
793.03585
793.03598
793.03628
793.03807
793.03819
793.03735
793.0377
793.03777
793.03744
793.03675
793.03598
793.03634
793.03705
793.03781
793.03831
793.03776
793.03792
793.03789
793.03753
793.03688
793.03628
793.03705
793.03691
797.19035
797.19097
797.18956
797.19045
797.19091
797.19089
797.19056
797.19016
797.19019
797.18991
797.19097
797.19018
797.18967
797.19061
797.19102
797.19092
797.19045
797.18991
797.19031
797.19043
797.18956
797.18967
797.18924
797.19015
797.19052
797.19036
797.18976
797.18904
797.1894
797.18983
797.19045
797.19061
797.19015
797.19102
797.19135
797.19114
797.19046
797.18958
797.18974
797.18998
797.19091
797.19102
797.19052
797.19135
797.19163