/*--------------------------------*- C++ -*----------------------------------*\
| =========                 |                                                 |
| \\      /  F ield         | OpenFOAM: The Open Source CFD Toolbox           |
|  \\    /   O peration     | Version:  v2106                                 |
|   \\  /    A nd           | Website:  www.openfoam.com                      |
|    \\/     M anipulation  |                                                 |
\*---------------------------------------------------------------------------*/
FoamFile
{
    version     2.0;
    format      ascii;
    arch        "LSB;label=32;scalar=64";
    class       volVectorField;
    location    "20";
    object      gradT;
}
// * * * * * * * * * * * * * * * * * * * * * * * * * * * * * * * * * * * * * //

dimensions      [0 -1 0 1 0 0 0];

internalField   nonuniform List<vector> 
4000
(
(-0.00041602582 -0.00041602582 680.50475)
(0.0010874939 0.0008194532 680.5027)
(0.0010608763 8.2459072e-05 680.50844)
(-0.001015145 4.4625013e-05 680.5061)
(-0.00049705759 5.7705538e-05 680.50473)
(-0.00013461467 7.888736e-05 680.50423)
(5.1141204e-05 0.00010359559 680.50424)
(0.00010207002 0.00011929753 680.50446)
(7.1457871e-05 8.4346299e-05 680.50465)
(1.5049913e-05 -3.7116321e-06 680.50484)
(0.0008194532 0.0010874939 680.5027)
(0.0018352212 0.0018352212 680.50656)
(-0.00010136597 0.00067501369 680.50866)
(-0.0010522753 0.00064264528 680.50611)
(-0.00044566407 0.00068551435 680.50482)
(-6.5779586e-05 0.00074402969 680.50445)
(0.00011175646 0.00082398202 680.5046)
(7.3196079e-05 0.00090900084 680.50491)
(-0.00011305587 0.00087968916 680.50482)
(-7.3008018e-05 0.00058973854 680.50449)
(8.2459073e-05 0.0010608763 680.50844)
(0.00067501369 -0.00010136597 680.50866)
(-0.0001316996 -0.0001316996 680.51052)
(-0.0010046443 -8.4751119e-05 680.50805)
(-0.00039567318 -4.3386306e-05 680.50684)
(3.8529957e-06 3.4077866e-06 680.50657)
(0.00021611235 7.7492516e-05 680.5069)
(0.00015777716 0.00019673043 680.50745)
(-0.00024780443 0.00032153754 680.50744)
(-0.0001782505 0.000299197 680.5065)
(4.4625016e-05 -0.001015145 680.5061)
(0.00064264528 -0.0010522753 680.50611)
(-8.4751123e-05 -0.0010046443 680.50805)
(-0.00096396201 -0.00096396202 680.50566)
(-0.00035750516 -0.00092961622 680.50452)
(5.5099235e-05 -0.00089258116 680.50433)
(0.0003050791 -0.00084116408 680.50478)
(0.0003172411 -0.00075705481 680.50557)
(-1.0589305e-05 -0.00061990416 680.50595)
(-8.7901712e-05 -0.00044055175 680.50551)
(5.7705541e-05 -0.00049705758 680.50473)
(0.00068551435 -0.00044566407 680.50482)
(-4.3386315e-05 -0.00039567318 680.50684)
(-0.00092961623 -0.00035750516 680.50452)
(-0.00032429233 -0.00032429233 680.50345)
(9.2305135e-05 -0.00029176083 680.50332)
(0.00035163871 -0.00025663491 680.50386)
(0.00037903708 -0.00021550443 680.50475)
(6.8698628e-05 -0.00016622079 680.50527)
(-5.8682228e-05 -0.00011163818 680.50502)
(7.8887355e-05 -0.00013461468 680.50423)
(0.00074402969 -6.5779596e-05 680.50445)
(3.4077914e-06 3.8529938e-06 680.50657)
(-0.00089258117 5.5099237e-05 680.50433)
(-0.00029176083 9.2305132e-05 680.50332)
(0.00012275666 0.00012275665 680.50326)
(0.00038133551 0.00014805625 680.50386)
(0.00040765522 0.00016935569 680.50481)
(9.327695e-05 0.00018520946 680.50539)
(-5.1513302e-05 0.00019324166 680.50518)
(0.00010359559 5.1141198e-05 680.50424)
(0.00082398202 0.00011175647 680.5046)
(7.7492517e-05 0.00021611235 680.5069)
(-0.00084116409 0.0003050791 680.50478)
(-0.00025663491 0.00035163872 680.50386)
(0.00014805626 0.0003813355 680.50386)
(0.00039823774 0.00039823774 680.5045)
(0.0004161903 0.00040399083 680.50547)
(9.2584604e-05 0.00039723415 680.50606)
(-5.3327428e-05 0.00037856571 680.50583)
(0.00011929754 0.00010207002 680.50446)
(0.00090900084 7.319608e-05 680.50491)
(0.00019673042 0.00015777716 680.50745)
(-0.0007570548 0.00031724111 680.50557)
(-0.00021550443 0.00037903708 680.50475)
(0.00016935568 0.00040765523 680.50481)
(0.00040399083 0.0004161903 680.50547)
(0.00040665163 0.00040665164 680.50644)
(6.7851827e-05 0.00037604675 680.50699)
(-6.395893e-05 0.00032638539 680.50668)
(8.4346299e-05 7.1457875e-05 680.50465)
(0.00087968916 -0.00011305588 680.50482)
(0.00032153754 -0.00024780443 680.50744)
(-0.00061990416 -1.0589301e-05 680.50595)
(-0.00016622079 6.8698625e-05 680.50527)
(0.00018520947 9.3276949e-05 680.50539)
(0.00039723415 9.2584609e-05 680.50606)
(0.00037604675 6.7851831e-05 680.50699)
(1.2318358e-05 1.2318367e-05 680.50744)
(-8.6435001e-05 -6.6196642e-05 680.50697)
(-3.7116327e-06 1.5049914e-05 680.50484)
(0.00058973854 -7.3008018e-05 680.50449)
(0.000299197 -0.0001782505 680.5065)
(-0.00044055175 -8.7901714e-05 680.50551)
(-0.00011163818 -5.8682225e-05 680.50502)
(0.00019324167 -5.1513306e-05 680.50518)
(0.00037856572 -5.3327427e-05 680.50583)
(0.00032638539 -6.395893e-05 680.50668)
(-6.6196646e-05 -8.6434997e-05 680.50697)
(-0.00011630227 -0.00011630227 680.50636)
(-0.00079594058 -0.00079594058 680.97002)
(0.0022853074 0.0014028426 680.96911)
(0.0019082383 -3.5940015e-05 680.97165)
(-0.002523851 -0.00011948445 680.96995)
(-0.001299435 -8.4783638e-05 680.9689)
(-0.0003271706 -2.5669424e-05 680.96856)
(0.0001888838 4.888797e-05 680.96867)
(0.00030820243 8.7196918e-05 680.96892)
(0.00035487244 -8.3604252e-05 680.96898)
(0.00014410697 -0.00033946919 680.96957)
(0.0014028426 0.0022853074 680.96911)
(0.0034253083 0.0034253083 680.97056)
(-0.00037525234 0.0010848085 680.97147)
(-0.0025971165 0.00099979563 680.96968)
(-0.0011587125 0.0011085414 680.96869)
(-0.00012666319 0.0012736922 680.96847)
(0.00035818332 0.0015148302 680.96875)
(0.00010946409 0.00175879 680.96909)
(-0.00028512672 0.0015481984 680.96862)
(-0.00011175797 0.00072227476 680.9685)
(-3.5940016e-05 0.0019082383 680.97165)
(0.0010848085 -0.00037525234 680.97147)
(-0.00051727434 -0.00051727434 680.97218)
(-0.0025001181 -0.00042623174 680.97042)
(-0.0010255384 -0.00032063074 680.9695)
(7.9118178e-05 -0.00018470357 680.96937)
(0.00067398155 3.8897963e-05 680.96983)
(0.00034157061 0.00039734892 680.97045)
(-0.00068164278 0.00072466973 680.97006)
(-0.00040650878 0.00063165805 680.96946)
(-0.00011948445 -0.002523851 680.96995)
(0.00099979562 -0.0025971165 680.96968)
(-0.00042623175 -0.0025001181 680.97042)
(-0.0024004729 -0.0024004729 680.96872)
(-0.00091718431 -0.0023044188 680.96785)
(0.00023286551 -0.0021940044 680.9678)
(0.0009402358 -0.0020382294 680.96838)
(0.00079523586 -0.0017852555 680.96923)
(-5.0817594e-05 -0.0013948857 680.96918)
(-0.00017376576 -0.00090813811 680.96897)
(-8.4783638e-05 -0.001299435 680.9689)
(0.0011085414 -0.0011587125 680.96869)
(-0.00032063075 -0.0010255384 680.9695)
(-0.0023044188 -0.0009171843 680.96785)
(-0.00081906996 -0.00081906996 680.96705)
(0.00034530758 -0.00072133401 680.96706)
(0.0010827305 -0.0006149924 680.96772)
(0.00098491436 -0.00048953464 680.96868)
(0.0001954746 -0.00033919023 680.96878)
(-8.2010418e-05 -0.00016548911 680.96874)
(-2.5669422e-05 -0.0003271706 680.96856)
(0.0012736922 -0.0001266632 680.96847)
(-0.00018470356 7.9118176e-05 680.96937)
(-0.0021940044 0.00023286551 680.9678)
(-0.00072133402 0.00034530758 680.96706)
(0.00043694307 0.00043694307 680.96713)
(0.0011720352 0.00051305975 680.96786)
(0.001071038 0.00057633349 680.96887)
(0.00027322793 0.00062175106 680.96902)
(-5.7965015e-05 0.00064461922 680.96903)
(4.8887968e-05 0.00018888381 680.96867)
(0.0015148302 0.00035818331 680.96875)
(3.889796e-05 0.00067398155 680.96983)
(-0.0020382294 0.0009402358 680.96838)
(-0.0006149924 0.0010827305 680.96772)
(0.00051305975 0.0011720352 680.96786)
(0.0012221209 0.0012221209 680.96862)
(0.0010936057 0.0012355813 680.96965)
(0.00026376032 0.0012045561 680.9698)
(-6.676498e-05 0.001123199 680.96978)
(8.7196916e-05 0.00030820242 680.96892)
(0.00175879 0.00010946409 680.96909)
(0.00039734892 0.00034157061 680.97045)
(-0.0017852555 0.00079523585 680.96923)
(-0.00048953464 0.00098491436 680.96868)
(0.0005763335 0.001071038 680.96887)
(0.0012355813 0.0010936057 680.96965)
(0.0010534732 0.0010534732 680.97067)
(0.00016084558 0.00093469072 680.97075)
(-0.00011220307 0.00073142702 680.97059)
(-8.3604253e-05 0.00035487244 680.96898)
(0.0015481984 -0.00028512672 680.96862)
(0.00072466973 -0.00068164279 680.97006)
(-0.0013948857 -5.0817602e-05 680.96918)
(-0.00033919022 0.0001954746 680.96878)
(0.00062175107 0.00027322792 680.96902)
(0.0012045561 0.00026376032 680.9698)
(0.00093469072 0.00016084558 680.97075)
(-5.8285859e-05 -5.8285857e-05 680.97066)
(-0.00020227411 -0.00028793855 680.97022)
(-0.00033946919 0.00014410697 680.96957)
(0.00072227475 -0.00011175797 680.9685)
(0.00063165804 -0.00040650879 680.96946)
(-0.00090813811 -0.00017376576 680.96897)
(-0.00016548911 -8.2010418e-05 680.96874)
(0.00064461922 -5.7965019e-05 680.96903)
(0.001123199 -6.6764981e-05 680.96978)
(0.00073142702 -0.00011220307 680.97059)
(-0.00028793856 -0.00020227411 680.97022)
(-0.00026530487 -0.00026530487 680.97011)
(-0.0010206217 -0.0010206217 681.82389)
(0.0027151592 0.0017870419 681.82308)
(0.0019031292 -3.4274402e-05 681.82453)
(-0.0037591506 -0.00013701338 681.82309)
(-0.0018927706 -8.103225e-05 681.82224)
(-0.00036917021 1.7556492e-05 681.82206)
(0.00041154167 0.00015609819 681.8223)
(0.00041186995 0.00023543156 681.82262)
(0.00072281417 -0.00015416793 681.82242)
(0.00041004901 -0.00071698599 681.82302)
(0.0017870419 0.0027151592 681.82308)
(0.0041946801 0.0041946801 681.824)
(-0.00098295376 0.0012117666 681.82438)
(-0.0038292874 0.0011131881 681.82288)
(-0.0016609158 0.0012828022 681.8221)
(-1.3474551e-05 0.0015542913 681.82203)
(0.00073835428 0.00198209 681.82249)
(-5.3529228e-05 0.0024396548 681.82297)
(-0.00070581216 0.001966145 681.82219)
(-0.00015276904 0.00047956696 681.822)
(-3.4274399e-05 0.0019031292 681.82453)
(0.0012117666 -0.00098295375 681.82438)
(-0.0011783628 -0.0011783628 681.82463)
(-0.003688115 -0.0010483422 681.82317)
(-0.0014516675 -0.00088565013 681.82245)
(0.00033011753 -0.00066484563 681.82248)
(0.0012969052 -0.00028982913 681.82311)
(0.00039592496 0.00033009966 681.82389)
(-0.0012372737 0.00088317555 681.82321)
(-0.000581003 0.00076446234 681.82262)
(-0.00013701338 -0.0037591506 681.82309)
(0.0011131881 -0.0038292874 681.82288)
(-0.0010483422 -0.003688115 681.82317)
(-0.0035365747 -0.0035365747 681.82176)
(-0.0012774193 -0.0033828492 681.8211)
(0.00058234645 -0.0032015232 681.82119)
(0.0017332996 -0.0029445353 681.82194)
(0.0011194754 -0.0025285643 681.82294)
(-0.00027144948 -0.0019084993 681.82257)
(-0.00023191118 -0.0011610819 681.82229)
(-8.103225e-05 -0.0018927706 681.82224)
(0.0012828022 -0.0016609158 681.8221)
(-0.00088565013 -0.0014516675 681.82245)
(-0.0033828492 -0.0012774193 681.8211)
(-0.001116616 -0.001116616 681.82049)
(0.00076843138 -0.00095527689 681.82065)
(0.0019698641 -0.00077934362 681.82148)
(0.0014319609 -0.00057196596 681.82259)
(0.00013020874 -0.00032672066 681.82235)
(-8.2724707e-05 -4.3060269e-05 681.82223)
(1.7556493e-05 -0.00036917021 681.82206)
(0.0015542913 -1.3474558e-05 681.82203)
(-0.00066484563 0.00033011753 681.82248)
(-0.0032015232 0.00058234644 681.82119)
(-0.00095527689 0.00076843139 681.82065)
(0.0009196188 0.00091961881 681.82088)
(0.0021166105 0.0010447366 681.82176)
(0.0015720984 0.0011463232 681.82292)
(0.00025745621 0.0012133783 681.82273)
(-4.2804252e-05 0.0012389465 681.82266)
(0.00015609819 0.00041154166 681.8223)
(0.00198209 0.00073835428 681.82249)
(-0.00028982913 0.0012969052 681.82311)
(-0.0029445353 0.0017332996 681.82194)
(-0.00077934362 0.0019698641 681.82148)
(0.0010447366 0.0021166105 681.82176)
(0.0021965684 0.0021965684 681.82269)
(0.0016006027 0.0022079868 681.82387)
(0.00022283202 0.0021271537 681.82366)
(-6.5679304e-05 0.0019300861 681.82354)
(0.00023543157 0.00041186995 681.82262)
(0.0024396548 -5.3529226e-05 681.82297)
(0.00033009965 0.00039592496 681.82389)
(-0.0025285643 0.0011194754 681.82294)
(-0.00057196596 0.0014319609 681.82259)
(0.0011463232 0.0015720984 681.82292)
(0.0022079868 0.0016006027 681.82387)
(0.0015026837 0.0015026837 681.82501)
(-2.0444434e-05 0.0012283599 681.8247)
(-0.00017418266 0.000759873 681.82435)
(-0.00015416793 0.00072281417 681.82242)
(0.001966145 -0.00070581217 681.82219)
(0.00088317553 -0.0012372737 681.82321)
(-0.0019084993 -0.00027144948 681.82257)
(-0.00032672066 0.00013020874 681.82235)
(0.0012133784 0.00025745621 681.82273)
(0.0021271537 0.00022283202 681.82366)
(0.0012283599 -2.0444435e-05 681.8247)
(-0.00051997865 -0.00051997866 681.8241)
(-0.00037800393 -0.00054038241 681.82328)
(-0.00071698599 0.00041004902 681.82302)
(0.00047956695 -0.00015276905 681.822)
(0.00076446234 -0.00058100301 681.82262)
(-0.0011610819 -0.00023191118 681.82229)
(-4.3060272e-05 -8.2724706e-05 681.82223)
(0.0012389465 -4.2804251e-05 681.82266)
(0.0019300861 -6.5679306e-05 681.82354)
(0.000759873 -0.00017418265 681.82435)
(-0.00054038241 -0.00037800394 681.82328)
(-0.00018778516 -0.00018778516 681.82363)
(-0.0013353101 -0.0013353101 683.09719)
(0.0029283832 0.0020158081 683.0963)
(0.0019157267 -0.00013951678 683.09769)
(-0.0048102217 -0.00025599713 683.09642)
(-0.0023306547 -0.0001790637 683.09572)
(-0.00026897571 -4.0361307e-05 683.09566)
(0.00075223302 0.00017124109 683.09605)
(0.0004285815 0.00032381391 683.09649)
(0.00075477135 -0.0002400998 683.09622)
(0.00054089599 -0.0010176946 683.09658)
(0.0020158081 0.0029283832 683.0963)
(0.0047220731 0.0047220732 683.09698)
(-0.0014919811 0.0011876236 683.09739)
(-0.0048695421 0.0010864848 683.09608)
(-0.002007201 0.001316325 683.09545)
(0.00025648148 0.0016936808 683.09551)
(0.0012984958 0.0023180925 683.09611)
(-0.00018842984 0.0030309428 683.09677)
(-0.0012574915 0.0023380135 683.09598)
(-0.00023669885 0.00032170264 683.09574)
(-0.00013951677 0.0019157267 683.09769)
(0.0011876236 -0.0014919811 683.09739)
(-0.0017198617 -0.0017198617 683.0977)
(-0.0046815203 -0.0015475506 683.09643)
(-0.0017234587 -0.0013280663 683.09586)
(0.00073279179 -0.0010242788 683.096)
(0.002089495 -0.00050295126 683.09678)
(0.00044850246 0.00036782359 683.09773)
(-0.0019544688 0.0011076312 683.097)
(-0.00080331126 0.00092538867 683.09635)
(-0.00025599712 -0.0048102217 683.09642)
(0.0010864848 -0.0048695421 683.09608)
(-0.0015475506 -0.0046815203 683.09643)
(-0.0044777468 -0.0044777468 683.09521)
(-0.0014839292 -0.0042669492 683.09469)
(0.0010815965 -0.0040158885 683.09491)
(0.0026905982 -0.003660337 683.0958)
(0.0014221526 -0.0030873578 683.09696)
(-0.00069992639 -0.0022583729 683.09651)
(-0.00035819385 -0.0012912429 683.09613)
(-0.0001790637 -0.0023306547 683.09572)
(0.001316325 -0.002007201 683.09545)
(-0.0013280663 -0.0017234587 683.09586)
(-0.0042669492 -0.0014839292 683.09469)
(-0.0012616004 -0.0012616004 683.09423)
(0.001339404 -0.0010382829 683.09452)
(0.0030180257 -0.00079518148 683.09548)
(0.0018504665 -0.00050953734 683.09674)
(-0.0001583539 -0.00017676905 683.09641)
(-0.00015855787 0.00020350445 683.09618)
(-4.0361307e-05 -0.00026897571 683.09566)
(0.0016936808 0.00025648147 683.09551)
(-0.0010242788 0.0007327918 683.096)
(-0.0040158885 0.0010815965 683.09491)
(-0.0010382829 0.001339404 683.09452)
(0.0015480154 0.0015480154 683.09486)
(0.0032193438 0.0017194618 683.09588)
(0.002040565 0.0018552378 683.09719)
(1.3115393e-05 0.0019364515 683.09691)
(-0.00010467818 0.0019534227 683.09671)
(0.00017124109 0.00075223301 683.09605)
(0.0023180925 0.0012984958 683.09611)
(-0.00050295125 0.002089495 683.09678)
(-0.003660337 0.0026905982 683.0958)
(-0.00079518149 0.0030180257 683.09548)
(0.0017194618 0.0032193438 683.09588)
(0.0033252481 0.0033252481 683.09693)
(0.0020674562 0.0033251888 683.09826)
(-6.0169e-05 0.0031691767 683.09796)
(-0.00014724371 0.0028045503 683.0977)
(0.00032381391 0.0004285815 683.09649)
(0.0030309428 -0.00018842984 683.09677)
(0.00036782359 0.00044850246 683.09773)
(-0.0030873578 0.0014221526 683.09696)
(-0.00050953735 0.0018504665 683.09674)
(0.0018552378 0.002040565 683.09719)
(0.0033251888 0.0020674562 683.09826)
(0.0018844936 0.0018844936 683.09954)
(-0.00050752313 0.0013697661 683.0991)
(-0.00034776246 0.00046903211 683.09855)
(-0.0002400998 0.00075477136 683.09622)
(0.0023380135 -0.0012574915 683.09598)
(0.0011076312 -0.0019544688 683.097)
(-0.0022583729 -0.0006999264 683.09651)
(-0.00017676905 -0.0001583539 683.09641)
(0.0019364515 1.3115405e-05 683.09691)
(0.0031691767 -6.0169007e-05 683.09796)
(0.0013697662 -0.00050752314 683.0991)
(-0.0014756305 -0.0014756305 683.09828)
(-0.00074773306 -0.0010000377 683.09705)
(-0.0010176946 0.00054089599 683.09658)
(0.00032170263 -0.00023669885 683.09574)
(0.00092538866 -0.00080331126 683.09635)
(-0.0012912429 -0.00035819385 683.09613)
(0.00020350445 -0.00015855787 683.09618)
(0.0019534227 -0.00010467818 683.09671)
(0.0028045503 -0.00014724371 683.0977)
(0.00046903212 -0.00034776247 683.09855)
(-0.0010000377 -0.00074773306 683.09705)
(-3.0700558e-05 -3.070056e-05 683.09751)
(-0.0016182279 -0.0016182279 684.78243)
(0.0032077794 0.0022426873 684.78163)
(0.0020237077 -0.00023224498 684.78303)
(-0.0057199529 -0.00036168792 684.7819)
(-0.0026466923 -0.00026458438 684.78133)
(-4.6106683e-05 -8.7210239e-05 684.78136)
(0.0012417639 0.00019552023 684.78186)
(0.00058348214 0.00042144056 684.78243)
(0.00080954505 -0.00031546666 684.78226)
(0.00065052035 -0.0012747649 684.78258)
(0.0022426873 0.0032077794 684.78163)
(0.0052867537 0.0052867537 684.78231)
(-0.0018828551 0.0012265788 684.78278)
(-0.005768462 0.0011249054 684.78162)
(-0.0022349758 0.0014138344 684.7811)
(0.00064405023 0.0018941986 684.78125)
(0.0020047401 0.002709702 684.78195)
(-0.00018299819 0.0036711798 684.78274)
(-0.0017347632 0.002742759 684.78205)
(-0.00030877794 0.00024621981 684.78185)
(-0.00023224497 0.0020237077 684.78303)
(0.0012265788 -0.0018828551 684.78278)
(-0.0021381406 -0.0021381406 684.78317)
(-0.0055326973 -0.001922295 684.78203)
(-0.0018773991 -0.0016460682 684.78157)
(0.001249761 -0.0012606101 684.78182)
(0.0030187451 -0.00059723574 684.78268)
(0.00061653907 0.00051362322 684.78375)
(-0.0026154149 0.0014105912 684.78309)
(-0.0010138391 0.0011488741 684.78248)
(-0.00036168792 -0.0057199529 684.7819)
(0.0011249054 -0.005768462 684.78162)
(-0.001922295 -0.0055326973 684.78203)
(-0.0052763895 -0.0052763895 684.78095)
(-0.0015732909 -0.0050090656 684.78055)
(0.0016928827 -0.0046897833 684.78086)
(0.0037789734 -0.0042387824 684.78184)
(0.0018248288 -0.0035149872 684.78311)
(-0.0010995123 -0.0024930122 684.78271)
(-0.00048325605 -0.0013292291 684.78234)
(-0.00026458439 -0.0026466923 684.78133)
(0.0014138344 -0.0022349758 684.7811)
(-0.0016460682 -0.0018773991 684.78157)
(-0.0050090656 -0.0015732909 684.78055)
(-0.0012907929 -0.0012907929 684.7802)
(0.0020200441 -0.0010075789 684.78057)
(0.0041935412 -0.00070025897 684.78163)
(0.0023623093 -0.00034028474 684.78299)
(-0.00042965686 7.3666981e-05 684.78271)
(-0.00023798372 0.00054119997 684.78247)
(-8.7210238e-05 -4.6106686e-05 684.78136)
(0.0018941986 0.00064405024 684.78125)
(-0.0012606101 0.001249761 684.78182)
(-0.0046897833 0.0016928827 684.78086)
(-0.0010075789 0.0020200441 684.78057)
(0.0022834166 0.0022834166 684.78101)
(0.0044462675 0.0024982573 684.78211)
(0.0025987547 0.0026651262 684.78352)
(-0.00021802763 0.0027568525 684.78328)
(-0.00017156739 0.0027604151 684.78308)
(0.00019552022 0.0012417639 684.78186)
(0.002709702 0.0020047401 684.78195)
(-0.00059723574 0.0030187451 684.78268)
(-0.0042387824 0.0037789734 684.78184)
(-0.00070025897 0.0041935412 684.78163)
(0.0024982573 0.0044462675 684.78211)
(0.0045752508 0.0045752508 684.78325)
(0.0026209045 0.0045602783 684.78467)
(-0.00033436795 0.004320732 684.78441)
(-0.00023560866 0.0037665909 684.78414)
(0.00042144056 0.00058348213 684.78243)
(0.0036711798 -0.0001829982 684.78274)
(0.00051362322 0.00061653906 684.78375)
(-0.0035149872 0.0018248288 684.78311)
(-0.00034028474 0.0023623093 684.78299)
(0.0026651261 0.0025987547 684.78352)
(0.0045602783 0.0026209045 684.78467)
(0.002344236 0.0023442359 684.78604)
(-0.0010117151 0.0015515108 684.78563)
(-0.00054099478 0.00010865595 684.78505)
(-0.00031546666 0.00080954505 684.78226)
(0.002742759 -0.0017347632 684.78205)
(0.0014105912 -0.0026154149 684.78309)
(-0.0024930122 -0.0010995124 684.78271)
(7.3666986e-05 -0.00042965687 684.78271)
(0.0027568525 -0.00021802764 684.78328)
(0.004320732 -0.00033436795 684.78441)
(0.0015515108 -0.0010117151 684.78563)
(-0.0025699479 -0.002569948 684.78481)
(-0.0011975119 -0.0015802548 684.78342)
(-0.0012747649 0.00065052035 684.78258)
(0.00024621981 -0.00030877794 684.78185)
(0.0011488741 -0.0010138391 684.78248)
(-0.0013292291 -0.00048325605 684.78234)
(0.00054119997 -0.00023798372 684.78247)
(0.0027604151 -0.00017156739 684.78308)
(0.0037665909 -0.00023560867 684.78414)
(0.00010865595 -0.00054099479 684.78505)
(-0.0015802548 -0.0011975119 684.78342)
(0.00011880063 0.00011880063 684.78384)
(-0.001869659 -0.001869659 686.86993)
(0.0035357841 0.002473731 686.86921)
(0.0021933993 -0.00030619967 686.87061)
(-0.0065183888 -0.00044799459 686.86959)
(-0.0028690561 -0.00033141452 686.8691)
(0.00026041425 -0.0001165726 686.86922)
(0.001818618 0.00023522654 686.86977)
(0.0008286453 0.00053229114 686.87042)
(0.00090533921 -0.00037730163 686.87031)
(0.00075823804 -0.0015079591 686.87063)
(0.002473731 0.0035357841 686.86921)
(0.0058809731 0.0058809731 686.8699)
(-0.0021891891 0.0013195083 686.8704)
(-0.0065562111 0.001218203 686.86935)
(-0.0023719231 0.0015647029 686.86892)
(0.0011103759 0.0021451826 686.86914)
(0.0027919136 0.0031461394 686.8699)
(-9.0146965e-05 0.0043477111 686.87076)
(-0.0021550362 0.0031756992 686.87014)
(-0.00037241944 0.00021843954 686.86996)
(-0.00030619967 0.0021933993 686.87061)
(0.0013195083 -0.0021891891 686.8704)
(-0.0024693709 -0.0024693708 686.87082)
(-0.0062731942 -0.002210179 686.8698)
(-0.0019420765 -0.0018781707 686.86943)
(0.0018418508 -0.0014131365 686.86974)
(0.0040211465 -0.00061224607 686.87066)
(0.0008582051 0.00072956682 686.87178)
(-0.0032239323 0.0017668566 686.87119)
(-0.0012132684 0.0014202836 686.87061)
(-0.00044799459 -0.0065183888 686.86959)
(0.001218203 -0.0065562111 686.86935)
(-0.002210179 -0.0062731942 686.8698)
(-0.0059650109 -0.0059650109 686.86883)
(-0.0015748806 -0.0056424101 686.86851)
(0.0023763005 -0.0052570886 686.86889)
(0.004934617 -0.0047143325 686.86993)
(0.0022889557 -0.0038460033 686.87123)
(-0.0014643194 -0.0026430355 686.87089)
(-0.00060346813 -0.0012967626 686.87053)
(-0.00033141452 -0.0028690561 686.8691)
(0.0015647029 -0.0023719231 686.86892)
(-0.0018781707 -0.0019420765 686.86943)
(-0.0056424101 -0.0015748806 686.86851)
(-0.0012341542 -0.0012341542 686.86825)
(0.0027699283 -0.00089364165 686.86869)
(0.0054322318 -0.00052550399 686.86979)
(0.0029295021 -9.5438018e-05 686.87119)
(-0.0006746916 0.00039407416 686.87095)
(-0.00031575315 0.00094243606 686.87073)
(-0.0001165726 0.00026041425 686.86922)
(0.0021451826 0.0011103758 686.86914)
(-0.0014131365 0.0018418508 686.86974)
(-0.0052570886 0.0023763005 686.86889)
(-0.00089364165 0.0027699283 686.86869)
(0.0030849507 0.0030849507 686.86918)
(0.0057328206 0.0033398208 686.87033)
(0.0032085338 0.0035343848 686.87178)
(-0.00042644535 0.0036335318 686.87158)
(-0.00023789353 0.0036214745 686.87138)
(0.00023522655 0.001818618 686.86977)
(0.0031461394 0.0027919136 686.8699)
(-0.00061224608 0.0040211465 686.87066)
(-0.0047143325 0.004934617 686.86993)
(-0.00052550398 0.0054322318 686.86979)
(0.0033398208 0.0057328206 686.87033)
(0.005881666 0.005881666 686.87151)
(0.003223213 0.0058490202 686.87296)
(-0.00058760196 0.0055233338 686.87274)
(-0.00032379135 0.00477571 686.87247)
(0.00053229114 0.00082864529 686.87042)
(0.0043477111 -9.014697e-05 686.87076)
(0.00072956682 0.0008582051 686.87178)
(-0.0038460033 0.0022889557 686.87123)
(-9.5438014e-05 0.0029295021 686.87119)
(0.0035343848 0.0032085339 686.87178)
(0.0058490202 0.0032232131 686.87296)
(0.0028502016 0.0028502016 686.87437)
(-0.0014997555 0.0017706712 686.87399)
(-0.00073630937 -0.00025036259 686.87341)
(-0.00037730163 0.00090533921 686.87031)
(0.0031756992 -0.0021550362 686.87014)
(0.0017668566 -0.0032239323 686.87119)
(-0.0026430355 -0.0014643194 686.87089)
(0.00039407416 -0.00067469161 686.87095)
(0.0036335318 -0.00042644535 686.87158)
(0.0055233338 -0.00058760197 686.87274)
(0.0017706712 -0.0014997555 686.87399)
(-0.0036881662 -0.0036881662 686.87319)
(-0.0016711472 -0.0022069457 686.87177)
(-0.0015079591 0.00075823804 686.87063)
(0.00021843954 -0.00037241944 686.86996)
(0.0014202836 -0.0012132684 686.87061)
(-0.0012967626 -0.00060346813 686.87053)
(0.00094243606 -0.00031575316 686.87073)
(0.0036214745 -0.00023789354 686.87138)
(0.00477571 -0.00032379135 686.87247)
(-0.00025036258 -0.00073630937 686.87341)
(-0.0022069457 -0.0016711472 686.87177)
(0.00025117095 0.00025117095 686.87215)
(-0.002098352 -0.002098352 689.34676)
(0.0038806517 0.0026997884 689.34611)
(0.0023968541 -0.00036820613 689.34745)
(-0.0072236465 -0.00052153134 689.34653)
(-0.0030171011 -0.00038624869 689.34612)
(0.00062461621 -0.00013534852 689.34629)
(0.0024447863 0.00028321343 689.34689)
(0.0011236516 0.00064926724 689.34757)
(0.0010261654 -0.00042904556 689.34751)
(0.00086526912 -0.0017239836 689.34783)
(0.0026997884 0.0038806517 689.34611)
(0.0064758705 0.0064758705 689.34677)
(-0.0024351255 0.0014411527 689.34728)
(-0.0072507103 0.0013410518 689.34632)
(-0.0024378269 0.0017430862 689.34597)
(0.0016288094 0.0024200221 689.34625)
(0.0036217099 0.0035999345 689.34704)
(5.5263146e-05 0.0050331935 689.34793)
(-0.0025337108 0.0036196594 689.34737)
(-0.0004296689 0.00021883256 689.3472)
(-0.00036820613 0.0023968541 689.34745)
(0.0014411527 -0.0024351255 689.34728)
(-0.0027379645 -0.0027379645 689.34771)
(-0.006921713 -0.002436446 689.34679)
(-0.0019381308 -0.0020503983 689.34649)
(0.0024814646 -0.0015086953 689.34685)
(0.0050579577 -0.00057566509 689.3478)
(0.0011433765 0.00098775144 689.34893)
(-0.0037881955 0.0021545857 689.3484)
(-0.0014019488 0.0017223788 689.34785)
(-0.00052153134 -0.0072236464 689.34653)
(0.0013410518 -0.0072507103 689.34632)
(-0.002436446 -0.006921713 689.34679)
(-0.0065631441 -0.0065631441 689.34592)
(-0.0015100762 -0.0061872062 689.34567)
(0.0031035426 -0.0057386201 689.3461)
(0.0061181567 -0.0051083274 689.34715)
(0.002785514 -0.00410211 689.34847)
(-0.0017990835 -0.0027283422 689.34816)
(-0.00071780687 -0.0012106458 689.34782)
(-0.00038624869 -0.0030171011 689.34612)
(0.0017430862 -0.0024378269 689.34597)
(-0.0020503983 -0.0019381308 689.34649)
(-0.0061872062 -0.0015100762 689.34567)
(-0.0011136069 -0.0011136069 689.34548)
(0.0035603433 -0.00071876699 689.34596)
(0.0066944678 -0.00029342443 689.34708)
(0.0035233617 0.0002024393 689.34848)
(-0.00089673129 0.00076248152 689.34828)
(-0.0003901512 0.0013865908 689.34806)
(-0.00013534852 0.00062461621 689.34629)
(0.0024200221 0.0016288094 689.34625)
(-0.0015086953 0.0024814646 689.34685)
(-0.0057386201 0.0031035426 689.3461)
(-0.000718767 0.0035603433 689.34596)
(0.0039237251 0.0039237251 689.34649)
(0.007039363 0.0042152665 689.34765)
(0.0038414199 0.0044342714 689.3491)
(-0.00061493198 0.0045381544 689.34893)
(-0.00030173402 0.0045091201 689.34874)
(0.00028321343 0.0024447863 689.34689)
(0.0035999345 0.0036217099 689.34704)
(-0.0005756651 0.0050579577 689.3478)
(-0.0051083274 0.0061181567 689.34715)
(-0.00029342443 0.0066944678 689.34708)
(0.0042152665 0.007039363 689.34765)
(0.0072050141 0.0072050141 689.34884)
(0.0038462496 0.0071523183 689.35029)
(-0.00082188261 0.0067395194 689.35009)
(-0.0004095074 0.0058000978 689.34984)
(0.00064926724 0.0011236516 689.34757)
(0.0050331935 5.5263146e-05 689.34793)
(0.00098775145 0.0011433765 689.34893)
(-0.00410211 0.002785514 689.34847)
(0.0002024393 0.0035233618 689.34848)
(0.0044342714 0.0038414199 689.3491)
(0.0071523183 0.0038462496 689.35029)
(0.0033759252 0.0033759252 689.3517)
(-0.0019671525 0.0020103333 689.35135)
(-0.00092801512 -0.00059228498 689.35078)
(-0.00042904556 0.0010261654 689.34751)
(0.0036196594 -0.0025337108 689.34737)
(0.0021545857 -0.0037881955 689.3484)
(-0.0027283422 -0.0017990835 689.34816)
(0.00076248153 -0.0008967313 689.34828)
(0.0045381544 -0.00061493199 689.34893)
(0.0067395194 -0.00082188261 689.35009)
(0.0020103333 -0.0019671525 689.35135)
(-0.0047900928 -0.0047900928 689.35058)
(-0.0021445863 -0.0028387033 689.34918)
(-0.0017239836 0.00086526912 689.34783)
(0.00021883256 -0.0004296689 689.3472)
(0.0017223788 -0.0014019488 689.34785)
(-0.0012106458 -0.00071780687 689.34782)
(0.0013865908 -0.00039015121 689.34806)
(0.0045091201 -0.00030173403 689.34874)
(0.0058000978 -0.00040950741 689.34984)
(-0.00059228499 -0.00092801512 689.35078)
(-0.0028387033 -0.0021445863 689.34918)
(0.00037291122 0.00037291122 689.34954)
(-0.0023081688 -0.0023081688 692.19757)
(0.0042245488 0.0029149303 692.19697)
(0.0026174117 -0.00042224389 692.19825)
(-0.0078462913 -0.00058614364 692.19742)
(-0.0031048633 -0.00043300825 692.19708)
(0.0010277767 -0.0001476502 692.19729)
(0.003096917 0.00033501492 692.19791)
(0.0014465065 0.00076767699 692.19861)
(0.0011614003 -0.00047320926 692.19857)
(0.00097071436 -0.0019246744 692.19889)
(0.0029149303 0.0042245488 692.19697)
(0.0070534362 0.0070534363 692.19759)
(-0.0026341992 0.0015765956 692.1981)
(-0.0078624378 0.0014784662 692.19724)
(-0.0024471232 0.0019335872 692.19695)
(0.0021798115 0.0027026807 692.19726)
(0.0044699078 0.0040540102 692.19807)
(0.00023417026 0.0057096647 692.19896)
(-0.0028771268 0.0040616364 692.19845)
(-0.00048075076 0.00023729317 692.19831)
(-0.00042224388 0.0026174117 692.19825)
(0.0015765956 -0.0026341992 692.1981)
(-0.0029575584 -0.0029575584 692.19853)
(-0.0074892997 -0.0026153366 692.1977)
(-0.0018806488 -0.0021775859 692.19747)
(0.0031481998 -0.001562749 692.19786)
(0.0061039009 -0.00050377198 692.19881)
(0.0014541327 0.0012709389 692.19994)
(-0.0043109712 0.002558432 692.19945)
(-0.0015788478 0.0020420303 692.19893)
(-0.00058614364 -0.0078462913 692.19742)
(0.0014784662 -0.0078624378 692.19724)
(-0.0026153367 -0.0074892997 692.1977)
(-0.0070824654 -0.0070824654 692.19692)