/*--------------------------------*- C++ -*----------------------------------*\
| =========                 |                                                 |
| \\      /  F ield         | OpenFOAM: The Open Source CFD Toolbox           |
|  \\    /   O peration     | Version:  v2106                                 |
|   \\  /    A nd           | Website:  www.openfoam.com                      |
|    \\/     M anipulation  |                                                 |
\*---------------------------------------------------------------------------*/
FoamFile
{
    version     2.0;
    format      ascii;
    arch        "LSB;label=32;scalar=64";
    class       volVectorField;
    location    "10";
    object      flux;
}
// * * * * * * * * * * * * * * * * * * * * * * * * * * * * * * * * * * * * * //

dimensions      [0 1 -1 1 0 0 0];

internalField   nonuniform List<vector> 
500
(
(1.18757e-07 1.18757e-07 1.07928)
(3.76038e-07 5.5651e-07 1.07928)
(-8.0658e-07 -1.64782e-07 1.07928)
(-1.50795e-06 -1.42974e-07 1.07927)
(-4.44084e-07 -1.17227e-07 1.07927)
(5.5651e-07 3.76038e-07 1.07928)
(9.24986e-08 9.24986e-08 1.07928)
(-1.50606e-06 -5.55163e-07 1.07927)
(-1.46039e-06 -3.01118e-07 1.07927)
(-4.18337e-07 -1.86061e-07 1.07927)
(-1.64782e-07 -8.0658e-07 1.07928)
(-5.55163e-07 -1.50606e-06 1.07927)
(-1.2002e-06 -1.2002e-06 1.07927)
(-1.13884e-06 -5.82216e-07 1.07927)
(-3.29028e-07 -2.23026e-07 1.07927)
(-1.42974e-07 -1.50795e-06 1.07927)
(-3.01118e-07 -1.46039e-06 1.07927)
(-5.82216e-07 -1.13884e-06 1.07927)
(-4.83219e-07 -4.83219e-07 1.07927)
(-5.91469e-08 -1.2997e-07 1.07927)
(-1.17227e-07 -4.44084e-07 1.07927)
(-1.86061e-07 -4.18337e-07 1.07927)
(-2.23026e-07 -3.29028e-07 1.07927)
(-1.2997e-07 -5.91469e-08 1.07927)
(2.42208e-08 2.42208e-08 1.07927)
(2.63399e-08 2.63399e-08 1.09822)
(-6.91765e-08 5.15299e-07 1.09822)
(-2.67549e-06 -6.97728e-07 1.09822)
(-3.63924e-06 -5.79948e-07 1.09822)
(-1.05927e-06 -4.64804e-07 1.09822)
(5.15299e-07 -6.91765e-08 1.09822)
(-7.93245e-07 -7.93245e-07 1.09822)
(-3.77073e-06 -1.6675e-06 1.09822)
(-3.40632e-06 -8.77175e-07 1.09822)
(-9.4413e-07 -4.83382e-07 1.09822)
(-6.97728e-07 -2.67549e-06 1.09822)
(-1.6675e-06 -3.77073e-06 1.09822)
(-2.75942e-06 -2.75942e-06 1.09822)
(-2.45512e-06 -1.085e-06 1.09822)
(-6.65482e-07 -1.95071e-07 1.09822)
(-5.79948e-07 -3.63924e-06 1.09822)
(-8.77175e-07 -3.40632e-06 1.09822)
(-1.085e-06 -2.45512e-06 1.09822)
(-8.41974e-07 -8.41974e-07 1.09822)
(-5.42046e-08 -1.25573e-07 1.09822)
(-4.64804e-07 -1.05927e-06 1.09822)
(-4.83382e-07 -9.4413e-07 1.09822)
(-1.95071e-07 -6.65482e-07 1.09822)
(-1.25573e-07 -5.42046e-08 1.09822)
(5.09197e-08 5.09197e-08 1.09822)
(-3.19178e-07 -3.19178e-07 1.13571)
(-1.02448e-06 2.95752e-07 1.13571)
(-4.34276e-06 -9.87757e-07 1.13571)
(-4.94745e-06 -7.50452e-07 1.13571)
(-1.30998e-06 -5.98272e-07 1.13571)
(2.95752e-07 -1.02448e-06 1.13571)
(-1.69305e-06 -1.69305e-06 1.13571)
(-5.38897e-06 -2.19502e-06 1.13571)
(-4.55796e-06 -8.31403e-07 1.13571)
(-1.1578e-06 -2.45366e-07 1.13571)
(-9.87757e-07 -4.34276e-06 1.13571)
(-2.19502e-06 -5.38897e-06 1.13571)
(-3.48111e-06 -3.48111e-06 1.13571)
(-2.9978e-06 -8.88538e-07 1.13571)
(-7.23945e-07 2.93818e-07 1.13571)
(-7.50452e-07 -4.94745e-06 1.13571)
(-8.31403e-07 -4.55796e-06 1.13571)
(-8.88538e-07 -2.9978e-06 1.13571)
(-7.83033e-07 -7.83033e-07 1.13571)
(2.45536e-08 8.64971e-08 1.13571)
(-5.98272e-07 -1.30998e-06 1.13571)
(-2.45366e-07 -1.1578e-06 1.13571)
(2.93818e-07 -7.23945e-07 1.13571)
(8.64971e-08 2.45536e-08 1.13571)
(1.45585e-07 1.45585e-07 1.13571)
(-6.56164e-07 -6.56164e-07 1.19095)
(-1.67862e-06 1.39581e-07 1.19095)
(-5.33273e-06 -1.0719e-06 1.19094)
(-5.7126e-06 -6.66528e-07 1.19094)
(-1.40233e-06 -4.65789e-07 1.19094)
(1.39581e-07 -1.67862e-06 1.19095)
(-2.09436e-06 -2.09436e-06 1.19094)
(-6.13883e-06 -2.05977e-06 1.19094)
(-5.10649e-06 -1.42234e-07 1.19094)
(-1.20159e-06 5.55978e-07 1.19094)
(-1.0719e-06 -5.33273e-06 1.19094)
(-2.05977e-06 -6.13883e-06 1.19094)
(-3.3806e-06 -3.3806e-06 1.19095)
(-3.09685e-06 -8.54443e-08 1.19095)
(-7.0412e-07 1.10842e-06 1.19095)
(-6.66528e-07 -5.7126e-06 1.19094)
(-1.42234e-07 -5.10649e-06 1.19094)
(-8.54443e-08 -3.09685e-06 1.19095)
(-6.17471e-07 -6.17471e-07 1.19095)
(-7.73288e-09 3.26041e-07 1.19095)
(-4.65789e-07 -1.40233e-06 1.19094)
(5.55978e-07 -1.20159e-06 1.19094)
(1.10842e-06 -7.0412e-07 1.19095)
(3.26041e-07 -7.73288e-09 1.19095)
(2.39392e-07 2.39392e-07 1.19095)
(-8.28921e-07 -8.28921e-07 1.26272)
(-1.86818e-06 1.39287e-07 1.26272)
(-5.63853e-06 -9.56056e-07 1.26272)
(-5.91838e-06 -3.98516e-07 1.26272)
(-1.31911e-06 -1.62449e-07 1.26272)
(1.39287e-07 -1.86818e-06 1.26272)
(-1.99532e-06 -1.99532e-06 1.26272)
(-6.17634e-06 -1.40718e-06 1.26272)
(-5.12477e-06 9.82155e-07 1.26272)
(-1.08304e-06 1.72324e-06 1.26272)
(-9.56056e-07 -5.63853e-06 1.26272)
(-1.40718e-06 -6.17634e-06 1.26272)
(-2.66106e-06 -2.66106e-06 1.26273)
(-2.78796e-06 1.1625e-06 1.26273)
(-5.78029e-07 2.18959e-06 1.26273)
(-3.98516e-07 -5.91838e-06 1.26272)
(9.82155e-07 -5.12477e-06 1.26272)
(1.1625e-06 -2.78796e-06 1.26273)
(-2.74127e-07 -2.74127e-07 1.26273)
(-5.59541e-08 6.32452e-07 1.26273)
(-1.62449e-07 -1.31911e-06 1.26272)
(1.72324e-06 -1.08304e-06 1.26272)
(2.18959e-06 -5.78029e-07 1.26273)
(6.32452e-07 -5.59541e-08 1.26273)
(3.2855e-07 3.2855e-07 1.26273)
(-8.80007e-07 -8.80007e-07 1.34948)
(-1.74514e-06 2.39094e-07 1.34948)
(-5.48133e-06 -7.13479e-07 1.34948)
(-5.73294e-06 -2.43355e-08 1.34948)
(-1.11673e-06 2.34058e-07 1.34948)
(2.39094e-07 -1.74514e-06 1.34948)
(-1.57861e-06 -1.57861e-06 1.34948)
(-5.74476e-06 -4.53338e-07 1.34948)
(-4.7854e-06 2.32853e-06 1.34948)
(-8.58341e-07 3.06858e-06 1.34948)
(-7.13479e-07 -5.48133e-06 1.34948)
(-4.53338e-07 -5.74476e-06 1.34948)
(-1.57419e-06 -1.57419e-06 1.34948)
(-2.21102e-06 2.64316e-06 1.34948)
(-3.76689e-07 3.41963e-06 1.34948)
(-2.43355e-08 -5.73294e-06 1.34948)
(2.32853e-06 -4.7854e-06 1.34948)
(2.64316e-06 -2.21102e-06 1.34948)
(2.08422e-07 2.08422e-07 1.34948)
(-8.18685e-08 1.01155e-06 1.34948)
(2.34058e-07 -1.11673e-06 1.34948)
(3.06858e-06 -8.58341e-07 1.34948)
(3.41963e-06 -3.76689e-07 1.34948)
(1.01155e-06 -8.18685e-08 1.34948)
(4.2644e-07 4.2644e-07 1.34948)
(-8.51944e-07 -8.51944e-07 1.44927)
(-1.4296e-06 3.91435e-07 1.44927)
(-5.01167e-06 -3.95611e-07 1.44927)
(-5.27097e-06 4.05165e-07 1.44927)
(-8.36961e-07 6.75651e-07 1.44927)
(3.91435e-07 -1.4296e-06 1.44927)
(-9.73263e-07 -9.73263e-07 1.44927)
(-4.99793e-06 6.60945e-07 1.44927)
(-4.19971e-06 3.75896e-06 1.44927)
(-5.66475e-07 4.46798e-06 1.44927)
(-3.95611e-07 -5.01167e-06 1.44927)
(6.60945e-07 -4.99793e-06 1.44927)
(-2.79441e-07 -2.79441e-07 1.44927)
(-1.46394e-06 4.21289e-06 1.44927)
(-1.27939e-07 4.69654e-06 1.44927)
(4.05165e-07 -5.27097e-06 1.44927)
(3.75896e-06 -4.19971e-06 1.44927)
(4.21289e-06 -1.46394e-06 1.44927)
(7.76274e-07 7.76274e-07 1.44927)
(-8.28179e-08 1.43745e-06 1.44927)
(6.75651e-07 -8.36961e-07 1.44927)
(4.46798e-06 -5.66475e-07 1.44927)
(4.69654e-06 -1.27939e-07 1.44927)
(1.43745e-06 -8.28179e-08 1.44927)
(5.33236e-07 5.33236e-07 1.44927)
(-7.70947e-07 -7.70947e-07 1.55984)
(-9.95385e-07 5.66778e-07 1.55984)
(-4.31946e-06 -3.43494e-08 1.55984)
(-4.60225e-06 8.57497e-07 1.55984)
(-5.07235e-07 1.13141e-06 1.55984)
(5.66778e-07 -9.95385e-07 1.55984)
(-2.58787e-07 -2.58787e-07 1.55984)
(-4.02874e-06 1.84722e-06 1.55984)
(-3.4365e-06 5.18324e-06 1.55984)
(-2.33326e-07 5.8379e-06 1.55984)
(-3.43494e-08 -4.31946e-06 1.55984)
(1.84722e-06 -4.02874e-06 1.55984)
(1.12257e-06 1.12257e-06 1.55984)
(-6.11577e-07 5.7744e-06 1.55985)
(1.47428e-07 5.94196e-06 1.55985)
(8.57497e-07 -4.60225e-06 1.55984)
(5.18324e-06 -3.4365e-06 1.55984)
(5.7744e-06 -6.11577e-07 1.55985)
(1.3829e-06 1.3829e-06 1.55985)
(-6.57638e-08 1.87735e-06 1.55985)
(1.13141e-06 -5.07235e-07 1.55984)
(5.8379e-06 -2.33326e-07 1.55984)
(5.94196e-06 1.47428e-07 1.55985)
(1.87735e-06 -6.57638e-08 1.55985)
(6.4188e-07 6.4188e-07 1.55985)
(-6.53104e-07 -6.53104e-07 1.67864)
(-4.89155e-07 7.46478e-07 1.67864)
(-3.46241e-06 3.48645e-07 1.67864)
(-3.77319e-06 1.30968e-06 1.67864)
(-1.46835e-07 1.57913e-06 1.67864)
(7.46478e-07 -4.89155e-07 1.67864)
(5.12594e-07 5.12594e-07 1.67864)
(-2.89921e-06 3.04395e-06 1.67864)
(-2.54271e-06 6.53606e-06 1.67864)
(1.2261e-07 7.11666e-06 1.67864)
(3.48645e-07 -3.46241e-06 1.67864)
(3.04395e-06 -2.89921e-06 1.67864)
(2.56106e-06 2.56106e-06 1.67864)
(2.99514e-07 7.25585e-06 1.67864)
(4.33768e-07 7.0953e-06 1.67864)
(1.30968e-06 -3.77319e-06 1.67864)
(6.53606e-06 -2.54271e-06 1.67864)
(7.25585e-06 2.99514e-07 1.67864)
(1.99153e-06 1.99153e-06 1.67864)
(-3.794e-08 2.30206e-06 1.67864)
(1.57913e-06 -1.46835e-07 1.67864)
(7.11666e-06 1.2261e-07 1.67864)
(7.0953e-06 4.33768e-07 1.67864)
(2.30206e-06 -3.794e-08 1.67864)
(7.44293e-07 7.44293e-07 1.67864)
(-5.09445e-07 -5.09445e-07 1.80285)
(5.61302e-08 9.17603e-07 1.80285)
(-2.48347e-06 7.36463e-07 1.80285)
(-2.81991e-06 1.74336e-06 1.80285)
(2.29134e-07 2.00098e-06 1.80285)
(9.17603e-07 5.61302e-08 1.80285)
(1.30204e-06 1.30204e-06 1.80285)
(-1.65771e-06 4.20256e-06 1.80285)
(-1.55539e-06 7.76509e-06 1.80285)
(4.86751e-07 8.25463e-06 1.80285)
(7.36463e-07 -2.48347e-06 1.80285)
(4.20256e-06 -1.65771e-06 1.80285)
(3.97958e-06 3.97958e-06 1.80285)
(1.23216e-06 8.5994e-06 1.80285)
(7.18671e-07 8.10772e-06 1.80285)
(1.74336e-06 -2.81991e-06 1.80285)
(7.76509e-06 -1.55539e-06 1.80285)
(8.5994e-06 1.23216e-06 1.80285)
(2.57274e-06 2.57274e-06 1.80285)
(-4.93076e-09 2.68761e-06 1.80285)
(2.00098e-06 2.29134e-07 1.80285)
(8.25463e-06 4.86751e-07 1.80285)
(8.10772e-06 7.18671e-07 1.80285)
(2.68761e-06 -4.93078e-09 1.80285)
(8.33541e-07 8.33541e-07 1.80285)
(-3.48917e-07 -3.48917e-07 1.92948)
(6.13422e-07 1.07003e-06 1.92949)
(-1.42061e-06 1.1141e-06 1.92949)
(-1.77567e-06 2.14231e-06 1.92949)
(6.0728e-07 2.38126e-06 1.92949)
(1.07003e-06 6.13422e-07 1.92949)
(2.07644e-06 2.07644e-06 1.92949)
(-3.48326e-07 5.28031e-06 1.92949)
(-5.08514e-07 8.82497e-06 1.92949)
(8.46223e-07 9.20907e-06 1.92949)
(1.1141e-06 -1.42061e-06 1.92949)
(5.28031e-06 -3.48326e-07 1.92949)
(5.32792e-06 5.32792e-06 1.92949)
(2.15309e-06 9.75512e-06 1.92949)
(9.9138e-07 8.93782e-06 1.92949)
(2.14231e-06 -1.77567e-06 1.92949)
(8.82497e-06 -5.08514e-07 1.92949)
(9.75512e-06 2.15309e-06 1.92949)
(3.10138e-06 3.10138e-06 1.92949)
(2.89214e-08 3.01388e-06 1.92949)
(2.38126e-06 6.0728e-07 1.92949)
(9.20907e-06 8.46223e-07 1.92949)
(8.93782e-06 9.9138e-07 1.92949)
(3.01388e-06 2.89214e-08 1.92949)
(9.0388e-07 9.0388e-07 1.92949)
(-1.80184e-07 -1.80184e-07 2.05543)
(1.15693e-06 1.19474e-06 2.05543)
(-3.12735e-07 1.4669e-06 2.05543)
(-6.75529e-07 2.49104e-06 2.05543)
(9.74321e-07 2.70509e-06 2.05543)
(1.19474e-06 1.15693e-06 2.05543)
(2.80401e-06 2.80401e-06 2.05543)
(9.83563e-07 6.23644e-06 2.05543)
(5.62662e-07 9.67406e-06 2.05543)
(1.18837e-06 9.94124e-06 2.05543)
(1.4669e-06 -3.12735e-07 2.05543)
(6.23644e-06 9.83563e-07 2.05543)
(6.55731e-06 6.55731e-06 2.05543)
(3.02927e-06 1.06772e-05 2.05543)
(1.2415e-06 9.54835e-06 2.05543)
(2.49104e-06 -6.75529e-07 2.05543)
(9.67406e-06 5.62662e-07 2.05543)
(1.06772e-05 3.02927e-06 2.05543)
(3.5537e-06 3.5537e-06 2.05543)
(5.95256e-08 3.26225e-06 2.05543)
(2.70509e-06 9.74321e-07 2.05543)
(9.94124e-06 1.18837e-06 2.05543)
(9.54835e-06 1.2415e-06 2.05543)
(3.26225e-06 5.95256e-08 2.05543)
(9.50053e-07 9.50053e-07 2.05543)
(-1.28882e-08 -1.28882e-08 2.17751)
(1.65875e-06 1.28254e-06 2.17751)
(7.95984e-07 1.77931e-06 2.17751)
(4.40149e-07 2.77369e-06 2.17751)
(1.3158e-06 2.95736e-06 2.17751)
(1.28254e-06 1.65875e-06 2.17751)
(3.45095e-06 3.45095e-06 2.17751)
(2.28714e-06 7.02914e-06 2.17751)
(1.61819e-06 1.02718e-05 2.17751)
(1.49947e-06 1.04138e-05 2.17751)
(1.77931e-06 7.95984e-07 2.17751)
(7.02914e-06 2.28714e-06 2.17751)
(7.6168e-06 7.6168e-06 2.17751)
(3.82477e-06 1.13206e-05 2.17751)
(1.4578e-06 9.90301e-06 2.17751)
(2.77369e-06 4.40149e-07 2.17751)
(1.02718e-05 1.61819e-06 2.17751)
(1.13206e-05 3.82477e-06 2.17751)
(3.9044e-06 3.9044e-06 2.17751)
(8.18252e-08 3.41286e-06 2.17751)
(2.95736e-06 1.3158e-06 2.17751)
(1.04138e-05 1.49947e-06 2.17751)
(9.90301e-06 1.4578e-06 2.17751)
(3.41286e-06 8.18252e-08 2.17751)
(9.66256e-07 9.66256e-07 2.17751)
(1.41283e-07 1.41283e-07 2.29261)
(2.08561e-06 1.32273e-06 2.29261)
(1.8515e-06 2.03353e-06 2.29261)
(1.52176e-06 2.97258e-06 2.29261)
(1.61459e-06 3.12124e-06 2.29261)
(1.32273e-06 2.08561e-06 2.29261)
(3.97786e-06 3.97786e-06 2.29261)
(3.50134e-06 7.61193e-06 2.29261)
(2.60946e-06 1.05749e-05 2.29261)
(1.76325e-06 1.0587e-05 2.29261)
(2.03353e-06 1.8515e-06 2.29261)
(7.61193e-06 3.50134e-06 2.29261)
(8.44856e-06 8.44856e-06 2.29261)
(4.49686e-06 1.1637e-05 2.29261)
(1.62669e-06 9.96197e-06 2.29261)
(2.97258e-06 1.52176e-06 2.29261)
(1.05749e-05 2.60946e-06 2.29261)
(1.1637e-05 4.49686e-06 2.29261)
(4.12287e-06 4.12287e-06 2.29261)
(8.82399e-08 3.44094e-06 2.29261)
(3.12124e-06 1.61459e-06 2.29261)
(1.0587e-05 1.76325e-06 2.29261)
(9.96197e-06 1.62669e-06 2.29261)
(3.44094e-06 8.82399e-08 2.29261)
(9.44764e-07 9.44764e-07 2.29261)
(2.6799e-07 2.6799e-07 2.39772)
(2.39564e-06 1.30179e-06 2.39772)
(2.78338e-06 2.20701e-06 2.39772)
(2.50431e-06 3.06556e-06 2.39773)
(1.84858e-06 3.17553e-06 2.39773)
(1.30179e-06 2.39564e-06 2.39772)
(4.33466e-06 4.33466e-06 2.39772)
(4.54715e-06 7.92714e-06 2.39773)
(3.47282e-06 1.05312e-05 2.39773)
(1.95854e-06 1.04127e-05 2.39773)
(2.20701e-06 2.78338e-06 2.39772)
(7.92714e-06 4.54715e-06 2.39773)
(8.97993e-06 8.97993e-06 2.39773)
(4.98984e-06 1.15664e-05 2.39773)
(1.73005e-06 9.67445e-06 2.39773)
(3.06556e-06 2.50431e-06 2.39773)
(1.05312e-05 3.47282e-06 2.39773)
(1.15664e-05 4.98984e-06 2.39773)
(4.16734e-06 4.16734e-06 2.39773)
(6.65955e-08 3.31152e-06 2.39773)
(3.17553e-06 1.84858e-06 2.39773)
(1.04127e-05 1.95854e-06 2.39773)
(9.67445e-06 1.73005e-06 2.39773)
(3.31152e-06 6.65954e-08 2.39773)
(8.7423e-07 8.7423e-07 2.39773)
(3.52013e-07 3.52013e-07 2.49007)
(2.53754e-06 1.2038e-06 2.49007)
(3.49528e-06 2.26879e-06 2.49007)
(3.29627e-06 3.02164e-06 2.49007)
(1.98652e-06 3.0905e-06 2.49007)
(1.2038e-06 2.53754e-06 2.49007)
(4.45432e-06 4.45432e-06 2.49007)
(5.31312e-06 7.89447e-06 2.49007)
(4.11798e-06 1.00672e-05 2.49007)
(2.05538e-06 9.82268e-06 2.49007)
(2.26879e-06 3.49528e-06 2.49007)
(7.89447e-06 5.31312e-06 2.49007)
(9.10813e-06 9.10813e-06 2.49007)
(5.22448e-06 1.1024e-05 2.49007)
(1.74203e-06 8.96663e-06 2.49007)
(3.02164e-06 3.29627e-06 2.49007)
(1.00672e-05 4.11798e-06 2.49007)
(1.1024e-05 5.22448e-06 2.49007)
(3.97648e-06 3.97648e-06 2.49007)
(-2.0122e-09 2.97301e-06 2.49007)
(3.0905e-06 1.98652e-06 2.49007)
(9.82268e-06 2.05538e-06 2.49007)
(8.96663e-06 1.74203e-06 2.49007)
(2.97301e-06 -2.01219e-09 2.49007)
(7.38556e-07 7.38556e-07 2.49007)
(3.86426e-07 3.86426e-07 2.56717)
(2.46272e-06 1.0221e-06 2.56717)
(3.85511e-06 2.1783e-06 2.56717)
(3.76003e-06 2.79802e-06 2.56717)
(1.98122e-06 2.82614e-06 2.56717)
(1.0221e-06 2.46272e-06 2.56717)
(4.25459e-06 4.25459e-06 2.56717)
(5.63102e-06 7.39766e-06 2.56717)
(4.40788e-06 9.07474e-06 2.56717)
(2.00935e-06 8.72016e-06 2.56717)
(2.1783e-06 3.85511e-06 2.56717)
(7.39766e-06 5.63102e-06 2.56717)
(8.67526e-06 8.67526e-06 2.56717)
(5.08253e-06 9.88026e-06 2.56717)
(1.62664e-06 7.7294e-06 2.56717)
(2.79802e-06 3.76003e-06 2.56717)
(9.07474e-06 4.40788e-06 2.56717)
(9.88026e-06 5.08253e-06 2.56717)
(3.46202e-06 3.46202e-06 2.56717)
(-1.41518e-07 2.35702e-06 2.56717)
(2.82614e-06 1.98122e-06 2.56717)
(8.72016e-06 2.00935e-06 2.56717)
(7.7294e-06 1.62664e-06 2.56717)
(2.35702e-06 -1.41518e-07 2.56717)
(5.21635e-07 5.21635e-07 2.56717)
(3.91178e-07 3.91178e-07 2.62693)
(2.16873e-06 8.05424e-07 2.62693)
(3.70535e-06 1.90896e-06 2.62693)
(3.68916e-06 2.3604e-06 2.62693)
(1.76137e-06 2.35669e-06 2.62693)
(8.05424e-07 2.16873e-06 2.62693)
(3.68651e-06 3.68651e-06 2.62693)
(5.26033e-06 6.30818e-06 2.62693)
(4.1369e-06 7.4371e-06 2.62693)
(1.75766e-06 7.02163e-06 2.62693)
(1.90896e-06 3.70535e-06 2.62693)
(6.30818e-06 5.26033e-06 2.62693)
(7.45594e-06 7.45594e-06 2.62693)
(4.40261e-06 7.9662e-06 2.62693)
(1.34589e-06 5.85078e-06 2.62693)
(2.3604e-06 3.68916e-06 2.62693)
(7.4371e-06 4.1369e-06 2.62693)
(7.9662e-06 4.40261e-06 2.62693)
(2.53173e-06 2.53173e-06 2.62693)
(-3.57768e-07 1.42452e-06 2.62693)
(2.35669e-06 1.76137e-06 2.62693)
(7.02163e-06 1.75766e-06 2.62693)
(5.85078e-06 1.34589e-06 2.62693)
(1.42452e-06 -3.57768e-07 2.62693)
(2.38684e-07 2.38684e-07 2.62693)
(3.9004e-07 3.9004e-07 2.66772)
(1.72449e-06 7.03447e-07 2.66772)
(2.93775e-06 1.53112e-06 2.66772)
(2.8418e-06 1.77139e-06 2.66771)
(1.2385e-06 1.76193e-06 2.66771)
(7.03447e-07 1.72449e-06 2.66772)
(2.86557e-06 2.86557e-06 2.66772)
(4.0057e-06 4.66383e-06 2.66771)
(3.07261e-06 5.22751e-06 2.66771)
(1.22904e-06 4.88748e-06 2.66771)
(1.53112e-06 2.93775e-06 2.66772)
(4.66383e-06 4.0057e-06 2.66771)
(5.29969e-06 5.29969e-06 2.66771)
(3.06545e-06 5.26125e-06 2.66771)
(8.98468e-07 3.47892e-06 2.66771)
(1.77139e-06 2.8418e-06 2.66771)
(5.22751e-06 3.07261e-06 2.66771)
(5.26125e-06 3.06545e-06 2.66771)
(1.25183e-06 1.25183e-06 2.66771)
(-5.53293e-07 3.84695e-07 2.66771)
(1.76193e-06 1.2385e-06 2.66771)
(4.88748e-06 1.22904e-06 2.66771)
(3.47892e-06 8.98468e-07 2.66771)
(3.84695e-07 -5.53293e-07 2.66771)
(3.13324e-08 3.13324e-08 2.66771)
(1.88352e-07 1.88352e-07 2.6884)
(8.18426e-07 3.83837e-07 2.6884)
(1.34329e-06 7.3177e-07 2.68839)
(1.10351e-06 7.62027e-07 2.68839)
(3.90293e-07 7.13262e-07 2.68839)
(3.83837e-07 8.18426e-07 2.6884)
(1.36184e-06 1.36184e-06 2.68839)
(1.72148e-06 2.07655e-06 2.68839)
(1.08501e-06 2.18621e-06 2.68839)
(3.41528e-07 1.96968e-06 2.68839)
(7.3177e-07 1.34329e-06 2.68839)
(2.07655e-06 1.72148e-06 2.68839)
(2.16766e-06 2.16766e-06 2.68839)
(9.96641e-07 1.99111e-06 2.68838)
(1.73764e-07 9.8445e-07 2.68838)
(7.62027e-07 1.10351e-06 2.68839)
(2.18621e-06 1.08501e-06 2.68839)
(1.99111e-06 9.96641e-07 2.68838)
(-9.8201e-08 -9.8201e-08 2.68838)
(-6.65137e-07 -3.76412e-07 2.68838)
(7.13262e-07 3.90293e-07 2.68839)
(1.96968e-06 3.41528e-07 2.68839)
(9.8445e-07 1.73764e-07 2.68838)
(-3.76412e-07 -6.65137e-07 2.68838)
(-1.04447e-07 -1.04447e-07 2.68838)
)
;

boundaryField
{
    wall_minX
    {
        type            calculated;
        value           nonuniform List<vector> 
100
(
(0 1.18757e-07 1.07928)
(0 3.76038e-07 1.07928)
(0 -8.0658e-07 1.07928)
(0 -1.50795e-06 1.07927)
(0 -4.44084e-07 1.07927)
(0 2.63399e-08 1.09822)
(0 -6.91765e-08 1.09822)
(0 -2.67549e-06 1.09822)
(0 -3.63924e-06 1.09822)
(0 -1.05927e-06 1.09822)
(0 -3.19178e-07 1.13571)
(0 -1.02448e-06 1.13571)
(0 -4.34276e-06 1.13571)
(0 -4.94745e-06 1.13571)
(0 -1.30998e-06 1.13571)
(0 -6.56164e-07 1.19095)
(0 -1.67862e-06 1.19095)
(0 -5.33273e-06 1.19094)
(0 -5.7126e-06 1.19094)
(0 -1.40233e-06 1.19094)
(0 -8.28921e-07 1.26272)
(0 -1.86818e-06 1.26272)
(0 -5.63853e-06 1.26272)
(0 -5.91838e-06 1.26272)
(0 -1.31911e-06 1.26272)
(0 -8.80007e-07 1.34948)
(0 -1.74514e-06 1.34948)
(0 -5.48133e-06 1.34948)
(0 -5.73294e-06 1.34948)
(0 -1.11673e-06 1.34948)
(0 -8.51944e-07 1.44927)
(0 -1.4296e-06 1.44927)
(0 -5.01167e-06 1.44927)
(0 -5.27097e-06 1.44927)
(0 -8.36961e-07 1.44927)
(0 -7.70947e-07 1.55984)
(0 -9.95385e-07 1.55984)
(0 -4.31946e-06 1.55984)
(0 -4.60225e-06 1.55984)
(0 -5.07235e-07 1.55984)
(0 -6.53104e-07 1.67864)
(0 -4.89155e-07 1.67864)
(0 -3.46241e-06 1.67864)
(0 -3.77319e-06 1.67864)
(0 -1.46835e-07 1.67864)
(0 -5.09445e-07 1.80285)
(0 5.61302e-08 1.80285)
(0 -2.48347e-06 1.80285)
(0 -2.81991e-06 1.80285)
(0 2.29134e-07 1.80285)
(0 -3.48917e-07 1.92948)
(0 6.13422e-07 1.92949)
(0 -1.42061e-06 1.92949)
(0 -1.77567e-06 1.92949)
(0 6.0728e-07 1.92949)
(0 -1.80184e-07 2.05543)
(0 1.15693e-06 2.05543)
(0 -3.12735e-07 2.05543)
(0 -6.75529e-07 2.05543)
(0 9.74321e-07 2.05543)
(0 -1.28882e-08 2.17751)
(0 1.65875e-06 2.17751)
(0 7.95984e-07 2.17751)
(0 4.40149e-07 2.17751)
(0 1.3158e-06 2.17751)
(0 1.41283e-07 2.29261)
(0 2.08561e-06 2.29261)
(0 1.8515e-06 2.29261)
(0 1.52176e-06 2.29261)
(0 1.61459e-06 2.29261)
(0 2.6799e-07 2.39772)
(0 2.39564e-06 2.39772)
(0 2.78338e-06 2.39772)
(0 2.50431e-06 2.39773)
(0 1.84858e-06 2.39773)
(0 3.52013e-07 2.49007)
(0 2.53754e-06 2.49007)
(0 3.49528e-06 2.49007)
(0 3.29627e-06 2.49007)
(0 1.98652e-06 2.49007)
(0 3.86426e-07 2.56717)
(0 2.46272e-06 2.56717)
(0 3.85511e-06 2.56717)
(0 3.76003e-06 2.56717)
(0 1.98122e-06 2.56717)
(0 3.91178e-07 2.62693)
(0 2.16873e-06 2.62693)
(0 3.70535e-06 2.62693)
(0 3.68916e-06 2.62693)
(0 1.76137e-06 2.62693)
(0 3.9004e-07 2.66772)
(0 1.72449e-06 2.66772)
(0 2.93775e-06 2.66772)
(0 2.8418e-06 2.66771)
(0 1.2385e-06 2.66771)
(0 1.88352e-07 2.6884)
(0 8.18426e-07 2.6884)
(0 1.34329e-06 2.68839)
(0 1.10351e-06 2.68839)
(0 3.90293e-07 2.68839)
)
;
    }
    wall_maxX
    {
        type            calculated;
        value           nonuniform List<vector> 
100
(
(0 -1.17227e-07 1.07927)
(0 -1.86061e-07 1.07927)
(0 -2.23026e-07 1.07927)
(0 -1.2997e-07 1.07927)
(0 2.42208e-08 1.07927)
(0 -4.64804e-07 1.09822)
(0 -4.83382e-07 1.09822)
(0 -1.95071e-07 1.09822)
(0 -1.25573e-07 1.09822)
(0 5.09197e-08 1.09822)
(0 -5.98272e-07 1.13571)
(0 -2.45366e-07 1.13571)
(0 2.93818e-07 1.13571)
(0 8.64971e-08 1.13571)
(0 1.45585e-07 1.13571)
(0 -4.65789e-07 1.19094)
(0 5.55978e-07 1.19094)
(0 1.10842e-06 1.19095)
(0 3.26041e-07 1.19095)
(0 2.39392e-07 1.19095)
(0 -1.62449e-07 1.26272)
(0 1.72324e-06 1.26272)
(0 2.18959e-06 1.26273)
(0 6.32452e-07 1.26273)
(0 3.2855e-07 1.26273)
(0 2.34058e-07 1.34948)
(0 3.06858e-06 1.34948)
(0 3.41963e-06 1.34948)
(0 1.01155e-06 1.34948)
(0 4.2644e-07 1.34948)
(0 6.75651e-07 1.44927)
(0 4.46798e-06 1.44927)
(0 4.69654e-06 1.44927)
(0 1.43745e-06 1.44927)
(0 5.33236e-07 1.44927)
(0 1.13141e-06 1.55984)
(0 5.8379e-06 1.55984)
(0 5.94196e-06 1.55985)
(0 1.87735e-06 1.55985)
(0 6.4188e-07 1.55985)
(0 1.57913e-06 1.67864)
(0 7.11666e-06 1.67864)
(0 7.0953e-06 1.67864)
(0 2.30206e-06 1.67864)
(0 7.44293e-07 1.67864)
(0 2.00098e-06 1.80285)
(0 8.25463e-06 1.80285)
(0 8.10772e-06 1.80285)
(0 2.68761e-06 1.80285)
(0 8.33541e-07 1.80285)
(0 2.38126e-06 1.92949)
(0 9.20907e-06 1.92949)
(0 8.93782e-06 1.92949)
(0 3.01388e-06 1.92949)
(0 9.0388e-07 1.92949)
(0 2.70509e-06 2.05543)
(0 9.94124e-06 2.05543)
(0 9.54835e-06 2.05543)
(0 3.26225e-06 2.05543)
(0 9.50053e-07 2.05543)
(0 2.95736e-06 2.17751)
(0 1.04138e-05 2.17751)
(0 9.90301e-06 2.17751)
(0 3.41286e-06 2.17751)
(0 9.66256e-07 2.17751)
(0 3.12124e-06 2.29261)
(0 1.0587e-05 2.29261)
(0 9.96197e-06 2.29261)
(0 3.44094e-06 2.29261)
(0 9.44764e-07 2.29261)
(0 3.17553e-06 2.39773)
(0 1.04127e-05 2.39773)
(0 9.67445e-06 2.39773)
(0 3.31152e-06 2.39773)
(0 8.7423e-07 2.39773)
(0 3.0905e-06 2.49007)
(0 9.82268e-06 2.49007)
(0 8.96663e-06 2.49007)
(0 2.97301e-06 2.49007)
(0 7.38556e-07 2.49007)
(0 2.82614e-06 2.56717)
(0 8.72016e-06 2.56717)
(0 7.7294e-06 2.56717)
(0 2.35702e-06 2.56717)
(0 5.21635e-07 2.56717)
(0 2.35669e-06 2.62693)
(0 7.02163e-06 2.62693)
(0 5.85078e-06 2.62693)
(0 1.42452e-06 2.62693)
(0 2.38684e-07 2.62693)
(0 1.76193e-06 2.66771)
(0 4.88748e-06 2.66771)
(0 3.47892e-06 2.66771)
(0 3.84695e-07 2.66771)
(0 3.13324e-08 2.66771)
(0 7.13262e-07 2.68839)
(0 1.96968e-06 2.68839)
(0 9.8445e-07 2.68838)
(0 -3.76412e-07 2.68838)
(0 -1.04447e-07 2.68838)
)
;
    }
    wall_minY
    {
        type            calculated;
        value           nonuniform List<vector> 
100
(
(1.18757e-07 0 1.07928)
(2.63399e-08 0 1.09822)
(-3.19178e-07 0 1.13571)
(-6.56164e-07 0 1.19095)
(-8.28921e-07 0 1.26272)
(-8.80007e-07 0 1.34948)
(-8.51944e-07 0 1.44927)
(-7.70947e-07 0 1.55984)
(-6.53104e-07 0 1.67864)
(-5.09445e-07 0 1.80285)
(-3.48917e-07 0 1.92948)
(-1.80184e-07 0 2.05543)
(-1.28882e-08 0 2.17751)
(1.41283e-07 0 2.29261)
(2.6799e-07 0 2.39772)
(3.52013e-07 0 2.49007)
(3.86426e-07 0 2.56717)
(3.91178e-07 0 2.62693)
(3.9004e-07 0 2.66772)
(1.88352e-07 0 2.6884)
(3.76038e-07 0 1.07928)
(-6.91765e-08 0 1.09822)
(-1.02448e-06 0 1.13571)
(-1.67862e-06 0 1.19095)
(-1.86818e-06 0 1.26272)
(-1.74514e-06 0 1.34948)
(-1.4296e-06 0 1.44927)
(-9.95385e-07 0 1.55984)
(-4.89155e-07 0 1.67864)
(5.61302e-08 0 1.80285)
(6.13422e-07 0 1.92949)
(1.15693e-06 0 2.05543)
(1.65875e-06 0 2.17751)
(2.08561e-06 0 2.29261)
(2.39564e-06 0 2.39772)
(2.53754e-06 0 2.49007)
(2.46272e-06 0 2.56717)
(2.16873e-06 0 2.62693)
(1.72449e-06 0 2.66772)
(8.18426e-07 0 2.6884)
(-8.0658e-07 0 1.07928)
(-2.67549e-06 0 1.09822)
(-4.34276e-06 0 1.13571)
(-5.33273e-06 0 1.19094)
(-5.63853e-06 0 1.26272)
(-5.48133e-06 0 1.34948)
(-5.01167e-06 0 1.44927)
(-4.31946e-06 0 1.55984)
(-3.46241e-06 0 1.67864)
(-2.48347e-06 0 1.80285)
(-1.42061e-06 0 1.92949)
(-3.12735e-07 0 2.05543)
(7.95984e-07 0 2.17751)
(1.8515e-06 0 2.29261)
(2.78338e-06 0 2.39772)
(3.49528e-06 0 2.49007)
(3.85511e-06 0 2.56717)
(3.70535e-06 0 2.62693)
(2.93775e-06 0 2.66772)
(1.34329e-06 0 2.68839)
(-1.50795e-06 0 1.07927)
(-3.63924e-06 0 1.09822)
(-4.94745e-06 0 1.13571)
(-5.7126e-06 0 1.19094)
(-5.91838e-06 0 1.26272)
(-5.73294e-06 0 1.34948)
(-5.27097e-06 0 1.44927)
(-4.60225e-06 0 1.55984)
(-3.77319e-06 0 1.67864)
(-2.81991e-06 0 1.80285)
(-1.77567e-06 0 1.92949)
(-6.75529e-07 0 2.05543)
(4.40149e-07 0 2.17751)
(1.52176e-06 0 2.29261)
(2.50431e-06 0 2.39773)
(3.29627e-06 0 2.49007)
(3.76003e-06 0 2.56717)
(3.68916e-06 0 2.62693)
(2.8418e-06 0 2.66771)
(1.10351e-06 0 2.68839)
(-4.44084e-07 0 1.07927)
(-1.05927e-06 0 1.09822)
(-1.30998e-06 0 1.13571)
(-1.40233e-06 0 1.19094)
(-1.31911e-06 0 1.26272)
(-1.11673e-06 0 1.34948)
(-8.36961e-07 0 1.44927)
(-5.07235e-07 0 1.55984)
(-1.46835e-07 0 1.67864)
(2.29134e-07 0 1.80285)
(6.0728e-07 0 1.92949)
(9.74321e-07 0 2.05543)
(1.3158e-06 0 2.17751)
(1.61459e-06 0 2.29261)
(1.84858e-06 0 2.39773)
(1.98652e-06 0 2.49007)
(1.98122e-06 0 2.56717)
(1.76137e-06 0 2.62693)
(1.2385e-06 0 2.66771)
(3.90293e-07 0 2.68839)
)
;
    }
    wall_maxY
    {
        type            calculated;
        value           nonuniform List<vector> 
100
(
(-1.17227e-07 0 1.07927)
(-4.64804e-07 0 1.09822)
(-5.98272e-07 0 1.13571)
(-4.65789e-07 0 1.19094)
(-1.62449e-07 0 1.26272)
(2.34058e-07 0 1.34948)
(6.75651e-07 0 1.44927)
(1.13141e-06 0 1.55984)
(1.57913e-06 0 1.67864)
(2.00098e-06 0 1.80285)
(2.38126e-06 0 1.92949)
(2.70509e-06 0 2.05543)
(2.95736e-06 0 2.17751)
(3.12124e-06 0 2.29261)
(3.17553e-06 0 2.39773)
(3.0905e-06 0 2.49007)
(2.82614e-06 0 2.56717)
(2.35669e-06 0 2.62693)
(1.76193e-06 0 2.66771)
(7.13262e-07 0 2.68839)
(-1.86061e-07 0 1.07927)
(-4.83382e-07 0 1.09822)
(-2.45366e-07 0 1.13571)
(5.55978e-07 0 1.19094)
(1.72324e-06 0 1.26272)
(3.06858e-06 0 1.34948)
(4.46798e-06 0 1.44927)
(5.8379e-06 0 1.55984)
(7.11666e-06 0 1.67864)
(8.25463e-06 0 1.80285)
(9.20907e-06 0 1.92949)
(9.94124e-06 0 2.05543)
(1.04138e-05 0 2.17751)
(1.0587e-05 0 2.29261)
(1.04127e-05 0 2.39773)
(9.82268e-06 0 2.49007)
(8.72016e-06 0 2.56717)
(7.02163e-06 0 2.62693)
(4.88748e-06 0 2.66771)
(1.96968e-06 0 2.68839)
(-2.23026e-07 0 1.07927)
(-1.95071e-07 0 1.09822)
(2.93818e-07 0 1.13571)
(1.10842e-06 0 1.19095)
(2.18959e-06 0 1.26273)
(3.41963e-06 0 1.34948)
(4.69654e-06 0 1.44927)
(5.94196e-06 0 1.55985)
(7.0953e-06 0 1.67864)
(8.10772e-06 0 1.80285)
(8.93782e-06 0 1.92949)
(9.54835e-06 0 2.05543)
(9.90301e-06 0 2.17751)
(9.96197e-06 0 2.29261)
(9.67445e-06 0 2.39773)
(8.96663e-06 0 2.49007)
(7.7294e-06 0 2.56717)
(5.85078e-06 0 2.62693)
(3.47892e-06 0 2.66771)
(9.8445e-07 0 2.68838)
(-1.2997e-07 0 1.07927)
(-1.25573e-07 0 1.09822)
(8.64971e-08 0 1.13571)
(3.26041e-07 0 1.19095)
(6.32452e-07 0 1.26273)
(1.01155e-06 0 1.34948)
(1.43745e-06 0 1.44927)
(1.87735e-06 0 1.55985)
(2.30206e-06 0 1.67864)
(2.68761e-06 0 1.80285)
(3.01388e-06 0 1.92949)
(3.26225e-06 0 2.05543)
(3.41286e-06 0 2.17751)
(3.44094e-06 0 2.29261)
(3.31152e-06 0 2.39773)
(2.97301e-06 0 2.49007)
(2.35702e-06 0 2.56717)
(1.42452e-06 0 2.62693)
(3.84695e-07 0 2.66771)
(-3.76412e-07 0 2.68838)
(2.42208e-08 0 1.07927)
(5.09197e-08 0 1.09822)
(1.45585e-07 0 1.13571)
(2.39392e-07 0 1.19095)
(3.2855e-07 0 1.26273)
(4.2644e-07 0 1.34948)
(5.33236e-07 0 1.44927)
(6.4188e-07 0 1.55985)
(7.44293e-07 0 1.67864)
(8.33541e-07 0 1.80285)
(9.0388e-07 0 1.92949)
(9.50053e-07 0 2.05543)
(9.66256e-07 0 2.17751)
(9.44764e-07 0 2.29261)
(8.7423e-07 0 2.39773)
(7.38556e-07 0 2.49007)
(5.21635e-07 0 2.56717)
(2.38684e-07 0 2.62693)
(3.13324e-08 0 2.66771)
(-1.04447e-07 0 2.68838)
)
;
    }
    inlet_minZ
    {
        type            calculated;
        value           nonuniform List<vector> 
25
(
(1.18757e-07 1.18757e-07 1.07451)
(5.5651e-07 3.76038e-07 1.07451)
(-1.64782e-07 -8.0658e-07 1.07451)
(-1.42974e-07 -1.50795e-06 1.07451)
(-1.17227e-07 -4.44084e-07 1.07451)
(3.76038e-07 5.5651e-07 1.07451)
(9.24986e-08 9.24986e-08 1.07452)
(-5.55163e-07 -1.50606e-06 1.07451)
(-3.01118e-07 -1.46039e-06 1.07451)
(-1.86061e-07 -4.18337e-07 1.07451)
(-8.0658e-07 -1.64782e-07 1.07451)
(-1.50606e-06 -5.55163e-07 1.07451)
(-1.2002e-06 -1.2002e-06 1.07451)
(-5.82216e-07 -1.13884e-06 1.07451)
(-2.23026e-07 -3.29028e-07 1.07451)
(-1.50795e-06 -1.42974e-07 1.07451)
(-1.46039e-06 -3.01118e-07 1.07451)
(-1.13884e-06 -5.82216e-07 1.07451)
(-4.83219e-07 -4.83219e-07 1.07451)
(-1.2997e-07 -5.91469e-08 1.07451)
(-4.44084e-07 -1.17227e-07 1.07451)
(-4.18337e-07 -1.86061e-07 1.07451)
(-3.29028e-07 -2.23026e-07 1.07451)
(-5.91469e-08 -1.2997e-07 1.07451)
(2.42208e-08 2.42208e-08 1.07451)
)
;
    }
    outlet_maxZ
    {
        type            calculated;
        value           nonuniform List<vector> 
25
(
(1.88352e-07 1.88352e-07 2.6936)
(3.83837e-07 8.18426e-07 2.6936)
(7.3177e-07 1.34329e-06 2.6936)
(7.62027e-07 1.10351e-06 2.6936)
(7.13262e-07 3.90293e-07 2.69359)
(8.18426e-07 3.83837e-07 2.6936)
(1.36184e-06 1.36184e-06 2.6936)
(2.07655e-06 1.72148e-06 2.6936)
(2.18621e-06 1.08501e-06 2.69359)
(1.96968e-06 3.41528e-07 2.69359)
(1.34329e-06 7.3177e-07 2.6936)
(1.72148e-06 2.07655e-06 2.6936)
(2.16766e-06 2.16766e-06 2.69359)
(1.99111e-06 9.96641e-07 2.69359)
(9.8445e-07 1.73764e-07 2.69359)
(1.10351e-06 7.62027e-07 2.6936)
(1.08501e-06 2.18621e-06 2.69359)