/*--------------------------------*- C++ -*----------------------------------*\
| =========                 |                                                 |
| \\      /  F ield         | OpenFOAM: The Open Source CFD Toolbox           |
|  \\    /   O peration     | Version:  v2106                                 |
|   \\  /    A nd           | Website:  www.openfoam.com                      |
|    \\/     M anipulation  |                                                 |
\*---------------------------------------------------------------------------*/
FoamFile
{
    version     2.0;
    format      ascii;
    arch        "LSB;label=32;scalar=64";
    class       volVectorField;
    location    "10";
    object      flux;
}
// * * * * * * * * * * * * * * * * * * * * * * * * * * * * * * * * * * * * * //

dimensions      [0 1 -1 1 0 0 0];

internalField   nonuniform List<vector> 
500
(
(7.9171384e-08 7.9171377e-08 1.0776878)
(3.7603785e-07 3.7100641e-07 1.0776881)
(-8.0657998e-07 -1.0985481e-07 1.0776885)
(-1.507945e-06 -9.5316243e-08 1.0776847)
(-2.9605616e-07 -7.8151433e-08 1.0776831)
(3.7100641e-07 3.7603785e-07 1.0776881)
(9.249857e-08 9.2498559e-08 1.0776895)
(-1.506064e-06 -5.5516305e-07 1.0776877)
(-1.4603899e-06 -3.0111805e-07 1.077684)
(-2.7889135e-07 -1.8606146e-07 1.0776825)
(-1.0985481e-07 -8.0657998e-07 1.0776885)
(-5.5516304e-07 -1.506064e-06 1.0776877)
(-1.2001966e-06 -1.2001966e-06 1.0776863)
(-1.1388434e-06 -5.8221569e-07 1.0776835)
(-2.1935178e-07 -2.230256e-07 1.0776824)
(-9.5316243e-08 -1.507945e-06 1.0776847)
(-3.0111804e-07 -1.4603899e-06 1.077684)
(-5.8221568e-07 -1.1388434e-06 1.0776835)
(-4.8321895e-07 -4.8321894e-07 1.0776821)
(-3.9431293e-08 -1.2997044e-07 1.0776819)
(-7.8151435e-08 -2.9605616e-07 1.0776831)
(-1.8606146e-07 -2.7889136e-07 1.0776825)
(-2.2302558e-07 -2.1935178e-07 1.0776824)
(-1.2997044e-07 -3.943129e-08 1.0776819)
(1.6147226e-08 1.6147229e-08 1.077682)
(1.7559953e-08 1.7559949e-08 1.0982231)
(-6.9176459e-08 3.4353241e-07 1.0982227)
(-2.6754875e-06 -4.6515217e-07 1.0982217)
(-3.6392448e-06 -3.8663175e-07 1.0982192)
(-7.0618242e-07 -3.0986961e-07 1.0982183)
(3.4353241e-07 -6.9176473e-08 1.0982227)
(-7.9324463e-07 -7.9324465e-07 1.0982224)
(-3.7707338e-06 -1.6675037e-06 1.0982209)
(-3.4063209e-06 -8.7717456e-07 1.0982186)
(-6.2942028e-07 -4.8338245e-07 1.0982178)
(-4.6515216e-07 -2.6754875e-06 1.0982217)
(-1.6675037e-06 -3.7707338e-06 1.0982209)
(-2.7594174e-06 -2.7594174e-06 1.0982201)
(-2.4551235e-06 -1.0849964e-06 1.0982186)
(-4.4365434e-07 -1.9507056e-07 1.0982182)
(-3.8663175e-07 -3.6392447e-06 1.0982192)
(-8.7717455e-07 -3.4063209e-06 1.0982186)
(-1.0849963e-06 -2.4551235e-06 1.0982186)
(-8.4197404e-07 -8.4197405e-07 1.0982182)
(-3.6136412e-08 -1.2557281e-07 1.0982183)
(-3.0986961e-07 -7.0618241e-07 1.0982183)
(-4.8338245e-07 -6.2942028e-07 1.0982178)
(-1.9507056e-07 -4.4365434e-07 1.0982182)
(-1.2557281e-07 -3.6136416e-08 1.0982183)
(3.3946478e-08 3.3946474e-08 1.0982185)
(-2.127852e-07 -2.127852e-07 1.1357141)
(-1.0244757e-06 1.9716829e-07 1.1357134)
(-4.3427633e-06 -6.585044e-07 1.1357124)
(-4.9474483e-06 -5.0030145e-07 1.1357107)
(-8.7332199e-07 -3.9884769e-07 1.1357104)
(1.971683e-07 -1.0244757e-06 1.1357134)
(-1.6930545e-06 -1.6930545e-06 1.135713)
(-5.3889679e-06 -2.1950186e-06 1.1357121)
(-4.5579633e-06 -8.3140322e-07 1.1357106)
(-7.7186823e-07 -2.4536563e-07 1.1357104)
(-6.5850439e-07 -4.3427633e-06 1.1357124)
(-2.1950186e-06 -5.3889679e-06 1.1357121)
(-3.481112e-06 -3.481112e-06 1.1357121)
(-2.9977954e-06 -8.8853776e-07 1.1357114)
(-4.8263026e-07 2.938182e-07 1.1357114)
(-5.0030145e-07 -4.9474483e-06 1.1357107)
(-8.3140321e-07 -4.5579633e-06 1.1357106)
(-8.8853775e-07 -2.9977954e-06 1.1357114)
(-7.830331e-07 -7.830331e-07 1.1357116)
(1.6369076e-08 8.6497123e-08 1.1357117)
(-3.9884769e-07 -8.7332199e-07 1.1357104)
(-2.4536562e-07 -7.7186823e-07 1.1357104)
(2.938182e-07 -4.8263026e-07 1.1357114)
(8.6497123e-08 1.6369076e-08 1.1357117)
(9.7056553e-08 9.7056553e-08 1.1357119)
(-4.3744242e-07 -4.3744243e-07 1.1909455)
(-1.6786201e-06 9.3053795e-08 1.190945)
(-5.3327262e-06 -7.1460282e-07 1.1909447)
(-5.7126015e-06 -4.4435197e-07 1.1909437)
(-9.3488784e-07 -3.1052586e-07 1.1909437)
(9.3053805e-08 -1.6786201e-06 1.190945)
(-2.0943607e-06 -2.0943607e-06 1.1909449)
(-6.1388349e-06 -2.05977e-06 1.1909447)
(-5.1064861e-06 -1.4223402e-07 1.1909441)
(-8.0106173e-07 5.5597755e-07 1.1909442)
(-7.1460281e-07 -5.3327262e-06 1.1909447)
(-2.05977e-06 -6.1388349e-06 1.1909447)
(-3.3805995e-06 -3.3805996e-06 1.1909455)
(-3.096854e-06 -8.5444292e-08 1.1909456)
(-4.6941346e-07 1.1084154e-06 1.1909457)
(-4.4435196e-07 -5.7126015e-06 1.1909437)
(-1.4223401e-07 -5.1064861e-06 1.1909441)
(-8.5444282e-08 -3.096854e-06 1.1909456)
(-6.1747109e-07 -6.174711e-07 1.1909461)
(-5.1552488e-09 3.2604071e-07 1.1909461)
(-3.1052586e-07 -9.3488784e-07 1.1909437)
(5.5597755e-07 -8.0106173e-07 1.1909442)
(1.1084154e-06 -4.6941346e-07 1.1909457)
(3.2604072e-07 -5.1552494e-09 1.1909461)
(1.5959441e-07 1.5959441e-07 1.1909462)
(-5.5261373e-07 -5.5261373e-07 1.2627235)
(-1.8681849e-06 9.285786e-08 1.2627233)
(-5.6385341e-06 -6.3737068e-07 1.2627234)
(-5.9183818e-06 -2.6567731e-07 1.2627231)
(-8.7940802e-07 -1.0829925e-07 1.2627234)
(9.2857862e-08 -1.8681849e-06 1.2627233)
(-1.9953203e-06 -1.9953203e-06 1.2627234)
(-6.1763368e-06 -1.4071844e-06 1.2627238)
(-5.1247747e-06 9.8215465e-07 1.2627238)
(-7.2202996e-07 1.7232374e-06 1.2627241)
(-6.3737067e-07 -5.6385341e-06 1.2627234)
(-1.4071844e-06 -6.1763368e-06 1.2627238)
(-2.6610591e-06 -2.6610591e-06 1.262725)
(-2.78796e-06 1.1624974e-06 1.2627256)
(-3.8535284e-07 2.1895882e-06 1.2627259)
(-2.656773e-07 -5.9183818e-06 1.2627231)
(9.8215468e-07 -5.1247747e-06 1.2627238)
(1.1624974e-06 -2.78796e-06 1.2627256)
(-2.7412734e-07 -2.7412733e-07 1.2627265)
(-3.7302757e-08 6.3245232e-07 1.2627264)
(-1.0829925e-07 -8.7940801e-07 1.2627234)
(1.7232374e-06 -7.2202996e-07 1.2627241)
(2.1895882e-06 -3.8535285e-07 1.2627259)
(6.3245232e-07 -3.7302758e-08 1.2627264)
(2.1903359e-07 2.1903359e-07 1.2627266)
(-5.8667111e-07 -5.8667111e-07 1.3494751)
(-1.7451381e-06 1.593957e-07 1.3494751)
(-5.4813334e-06 -4.7565298e-07 1.3494756)
(-5.7329362e-06 -1.6223666e-08 1.3494757)
(-7.4448943e-07 1.5603843e-07 1.3494762)
(1.593957e-07 -1.7451381e-06 1.3494751)
(-1.5786109e-06 -1.5786109e-06 1.3494754)
(-5.7447625e-06 -4.5333778e-07 1.3494761)
(-4.785399e-06 2.3285326e-06 1.3494765)
(-5.7222733e-07 3.0685774e-06 1.349477)
(-4.7565298e-07 -5.4813334e-06 1.3494756)
(-4.5333778e-07 -5.7447625e-06 1.3494761)
(-1.5741899e-06 -1.5741899e-06 1.3494776)
(-2.2110209e-06 2.6431586e-06 1.3494785)
(-2.5112621e-07 3.419631e-06 1.349479)
(-1.6223671e-08 -5.7329362e-06 1.3494757)
(2.3285326e-06 -4.785399e-06 1.3494765)
(2.6431586e-06 -2.2110209e-06 1.3494785)
(2.0842192e-07 2.0842191e-07 1.3494796)
(-5.4579014e-08 1.0115512e-06 1.3494796)
(1.5603843e-07 -7.4448943e-07 1.3494762)
(3.0685774e-06 -5.7222733e-07 1.349477)
(3.419631e-06 -2.5112622e-07 1.349479)
(1.0115512e-06 -5.4579024e-08 1.3494796)
(2.8429332e-07 2.8429331e-07 1.3494798)
(-5.6796275e-07 -5.6796276e-07 1.4492686)
(-1.4295959e-06 2.609564e-07 1.4492687)
(-5.011665e-06 -2.6374074e-07 1.4492693)
(-5.2709738e-06 2.7011025e-07 1.4492699)
(-5.5797367e-07 4.5043415e-07 1.4492705)
(2.6095641e-07 -1.4295959e-06 1.4492687)
(-9.7326288e-07 -9.7326288e-07 1.449269)
(-4.9979343e-06 6.609446e-07 1.44927)
(-4.1997114e-06 3.7589607e-06 1.4492707)
(-3.7764977e-07 4.467982e-06 1.4492714)
(-2.6374074e-07 -5.011665e-06 1.4492693)
(6.6094461e-07 -4.9979343e-06 1.44927)
(-2.7944146e-07 -2.7944146e-07 1.4492716)
(-1.4639363e-06 4.2128873e-06 1.4492727)
(-8.5292776e-08 4.696544e-06 1.4492732)
(2.7011025e-07 -5.2709738e-06 1.4492699)
(3.7589607e-06 -4.1997114e-06 1.4492707)
(4.2128873e-06 -1.4639363e-06 1.4492727)
(7.7627407e-07 7.7627407e-07 1.4492739)
(-5.5211925e-08 1.4374497e-06 1.4492739)
(4.5043415e-07 -5.5797367e-07 1.4492705)
(4.467982e-06 -3.7764977e-07 1.4492714)
(4.696544e-06 -8.529278e-08 1.4492732)
(1.4374497e-06 -5.5211927e-08 1.4492739)
(3.5549098e-07 3.5549097e-07 1.4492741)
(-5.139645e-07 -5.1396451e-07 1.5598412)
(-9.9538478e-07 3.7785223e-07 1.5598414)
(-4.3194571e-06 -2.2899617e-08 1.5598421)
(-4.6022545e-06 5.7166449e-07 1.5598429)
(-3.3815696e-07 7.5427064e-07 1.5598436)
(3.7785223e-07 -9.953848e-07 1.5598414)
(-2.5878745e-07 -2.5878746e-07 1.5598417)
(-4.0287387e-06 1.8472213e-06 1.5598429)
(-3.4364991e-06 5.1832354e-06 1.5598438)
(-1.5555081e-07 5.8378986e-06 1.5598445)
(-2.2899613e-08 -4.3194571e-06 1.5598421)
(1.8472213e-06 -4.0287387e-06 1.5598429)
(1.1225658e-06 1.1225658e-06 1.5598445)
(-6.1157714e-07 5.7744021e-06 1.5598457)
(9.8285196e-08 5.9419645e-06 1.5598463)
(5.716645e-07 -4.6022545e-06 1.5598429)
(5.1832354e-06 -3.4364991e-06 1.5598438)
(5.7744021e-06 -6.1157715e-07 1.5598457)
(1.3828997e-06 1.3828997e-06 1.5598469)
(-4.3842521e-08 1.8773519e-06 1.5598469)
(7.5427064e-07 -3.3815695e-07 1.5598436)
(5.8378986e-06 -1.5555082e-07 1.5598445)
(5.9419645e-06 9.8285199e-08 1.5598463)
(1.8773519e-06 -4.3842522e-08 1.5598469)
(4.2792e-07 4.2792e-07 1.5598471)
(-4.3540294e-07 -4.3540295e-07 1.678636)
(-4.8915547e-07 4.9765218e-07 1.6786363)
(-3.4624102e-06 2.3242999e-07 1.6786371)
(-3.7731943e-06 8.731209e-07 1.6786381)
(-9.789013e-08 1.0527513e-06 1.6786389)
(4.9765219e-07 -4.8915548e-07 1.6786363)
(5.1259393e-07 5.1259391e-07 1.6786367)
(-2.8992071e-06 3.0439535e-06 1.6786379)
(-2.5427124e-06 6.5360593e-06 1.678639)
(8.1740239e-08 7.116662e-06 1.6786398)
(2.3242999e-07 -3.4624102e-06 1.6786371)
(3.0439535e-06 -2.8992071e-06 1.6786379)
(2.5610552e-06 2.5610552e-06 1.6786395)
(2.9951423e-07 7.2558476e-06 1.6786407)
(2.8917835e-07 7.0952972e-06 1.6786413)
(8.731209e-07 -3.7731943e-06 1.6786381)
(6.5360593e-06 -2.5427124e-06 1.678639)
(7.2558476e-06 2.9951423e-07 1.6786407)
(1.9915297e-06 1.9915297e-06 1.6786419)
(-2.5293346e-08 2.3020556e-06 1.6786419)
(1.0527513e-06 -9.789013e-08 1.6786389)
(7.116662e-06 8.1740242e-08 1.6786398)
(7.0952972e-06 2.8917835e-07 1.6786413)
(2.3020556e-06 -2.5293348e-08 1.6786419)
(4.9619562e-07 4.9619562e-07 1.6786421)
(-3.3962966e-07 -3.3962968e-07 1.8028488)
(5.6130204e-08 6.1173556e-07 1.8028491)
(-2.4834662e-06 4.9097542e-07 1.8028499)
(-2.8199065e-06 1.1622426e-06 1.8028512)
(1.5275626e-07 1.3339868e-06 1.8028519)
(6.1173557e-07 5.6130194e-08 1.8028491)
(1.3020379e-06 1.3020378e-06 1.8028494)
(-1.6577056e-06 4.2025589e-06 1.8028507)
(-1.5553894e-06 7.7650886e-06 1.802852)
(3.2450047e-07 8.2546253e-06 1.8028527)
(4.9097543e-07 -2.4834661e-06 1.8028499)
(4.2025589e-06 -1.6577056e-06 1.8028507)
(3.9795847e-06 3.9795847e-06 1.8028522)
(1.23216e-06 8.5993992e-06 1.8028535)
(4.7911405e-07 8.1077177e-06 1.802854)
(1.1622426e-06 -2.8199065e-06 1.8028512)
(7.7650886e-06 -1.5553894e-06 1.802852)
(8.5993992e-06 1.23216e-06 1.8028535)
(2.5727437e-06 2.5727437e-06 1.8028545)
(-3.2871839e-09 2.687614e-06 1.8028546)
(1.3339868e-06 1.5275626e-07 1.8028519)
(8.2546253e-06 3.2450047e-07 1.8028527)
(8.1077177e-06 4.7911405e-07 1.802854)
(2.687614e-06 -3.2871862e-09 1.8028546)
(5.5569424e-07 5.5569424e-07 1.8028547)
(-2.3261111e-07 -2.3261113e-07 1.9294848)
(6.1342231e-07 7.1335433e-07 1.9294852)
(-1.4206086e-06 7.4273597e-07 1.9294859)
(-1.7756672e-06 1.4282095e-06 1.9294873)
(4.0485357e-07 1.5875047e-06 1.9294881)
(7.1335435e-07 6.134223e-07 1.9294852)
(2.076443e-06 2.0764429e-06 1.9294854)
(-3.4832576e-07 5.280314e-06 1.9294867)
(-5.0851413e-07 8.8249719e-06 1.9294881)
(5.6414871e-07 9.2090711e-06 1.9294888)
(7.4273598e-07 -1.4206085e-06 1.9294859)
(5.280314e-06 -3.4832577e-07 1.9294867)
(5.3279204e-06 5.3279204e-06 1.929488)
(2.15309e-06 9.7551197e-06 1.9294892)
(6.6091972e-07 8.9378181e-06 1.9294898)
(1.4282095e-06 -1.7756672e-06 1.9294873)
(8.8249719e-06 -5.0851414e-07 1.9294881)
(9.7551198e-06 2.15309e-06 1.9294892)
(3.1013836e-06 3.1013836e-06 1.9294902)
(1.9280963e-08 3.0138842e-06 1.9294902)
(1.5875047e-06 4.0485357e-07 1.9294881)
(9.2090711e-06 5.6414872e-07 1.9294888)
(8.9378181e-06 6.6091971e-07 1.9294898)
(3.0138842e-06 1.9280963e-08 1.9294902)
(6.0258681e-07 6.0258681e-07 1.9294903)
(-1.2012278e-07 -1.2012279e-07 2.0554265)
(1.1569297e-06 7.9649378e-07 2.0554269)
(-3.1273527e-07 9.7793014e-07 2.0554276)
(-6.7552858e-07 1.6606929e-06 2.0554291)
(6.4954701e-07 1.8033904e-06 2.0554298)
(7.9649379e-07 1.1569296e-06 2.0554269)
(2.8040091e-06 2.804009e-06 2.0554271)
(9.8356339e-07 6.2364361e-06 2.0554282)
(5.6266182e-07 9.6740567e-06 2.0554297)
(7.9224453e-07 9.9412371e-06 2.0554304)
(9.7793015e-07 -3.1273526e-07 2.0554276)
(6.2364361e-06 9.8356339e-07 2.0554282)
(6.5573124e-06 6.5573124e-06 2.0554293)
(3.0292724e-06 1.0677189e-05 2.0554305)
(8.2766727e-07 9.5483475e-06 2.055431)
(1.6606929e-06 -6.7552858e-07 2.0554291)
(9.6740567e-06 5.6266181e-07 2.0554297)
(1.0677189e-05 3.0292724e-06 2.0554305)
(3.5536969e-06 3.5536969e-06 2.0554313)
(3.9683764e-08 3.2622493e-06 2.0554313)
(1.8033904e-06 6.4954701e-07 2.0554298)
(9.9412371e-06 7.9224453e-07 2.0554304)
(9.5483475e-06 8.2766726e-07 2.055431)
(3.2622493e-06 3.9683767e-08 2.0554313)
(6.3336886e-07 6.3336886e-07 2.0554314)
(-8.5921291e-09 -8.5921386e-09 2.17751)
(1.6587455e-06 8.5502379e-07 2.1775104)
(7.9598428e-07 1.186209e-06 2.177511)
(4.4014854e-07 1.8491256e-06 2.1775125)
(8.7719861e-07 1.9715718e-06 2.1775132)
(8.550238e-07 1.6587455e-06 2.1775104)
(3.4509472e-06 3.4509472e-06 2.1775105)
(2.287137e-06 7.0291397e-06 2.1775115)
(1.6181928e-06 1.0271759e-05 2.177513)
(9.9964482e-07 1.0413759e-05 2.1775136)
(1.186209e-06 7.9598428e-07 2.177511)
(7.0291397e-06 2.287137e-06 2.1775115)
(7.6167959e-06 7.6167959e-06 2.1775123)
(3.8247675e-06 1.1320647e-05 2.1775134)
(9.718652e-07 9.9030054e-06 2.1775138)
(1.8491256e-06 4.4014855e-07 2.1775125)
(1.0271759e-05 1.6181928e-06 2.177513)
(1.1320648e-05 3.8247675e-06 2.1775134)
(3.9044023e-06 3.9044023e-06 2.177514)
(5.4550102e-08 3.4128604e-06 2.177514)
(1.9715718e-06 8.7719862e-07 2.1775132)
(1.0413759e-05 9.9964482e-07 2.1775136)
(9.9030054e-06 9.718652e-07 2.1775138)
(3.4128604e-06 5.4550095e-08 2.177514)
(6.4417057e-07 6.4417057e-07 2.177514)
(9.4188455e-08 9.4188454e-08 2.2926092)
(2.0856131e-06 8.8182203e-07 2.2926095)
(1.8514978e-06 1.3556888e-06 2.29261)
(1.5217592e-06 1.9817193e-06 2.2926115)
(1.0763945e-06 2.080825e-06 2.292612)
(8.8182203e-07 2.0856131e-06 2.2926095)
(3.9778637e-06 3.9778637e-06 2.2926095)
(3.5013438e-06 7.6119323e-06 2.2926104)
(2.6094635e-06 1.0574928e-05 2.2926118)
(1.1755002e-06 1.0587028e-05 2.2926122)
(1.3556888e-06 1.8514978e-06 2.29261)
(7.6119324e-06 3.5013438e-06 2.2926104)
(8.4485625e-06 8.4485625e-06 2.2926109)
(4.4968551e-06 1.163698e-05 2.2926118)
(1.0844611e-06 9.9619698e-06 2.292612)
(1.9817193e-06 1.5217592e-06 2.2926115)
(1.0574928e-05 2.6094635e-06 2.2926118)
(1.163698e-05 4.4968551e-06 2.2926118)
(4.1228707e-06 4.1228707e-06 2.292612)
(5.8826591e-08 3.4409433e-06 2.292612)
(2.080825e-06 1.0763945e-06 2.292612)
(1.0587028e-05 1.1755002e-06 2.2926122)
(9.9619698e-06 1.0844611e-06 2.292612)
(3.4409433e-06 5.8826594e-08 2.292612)
(6.2984286e-07 6.2984286e-07 2.2926119)
(1.7866006e-07 1.7866006e-07 2.3977244)
(2.395639e-06 8.6786002e-07 2.3977246)
(2.7833798e-06 1.4713402e-06 2.3977248)
(2.5043088e-06 2.0437069e-06 2.3977262)
(1.2323853e-06 2.1170169e-06 2.3977266)
(8.6786003e-07 2.395639e-06 2.3977246)
(4.3346593e-06 4.3346593e-06 2.3977244)
(4.5471502e-06 7.9271438e-06 2.397725)
(3.4728237e-06 1.0531206e-05 2.3977263)
(1.3056952e-06 1.0412678e-05 2.3977266)
(1.4713402e-06 2.7833798e-06 2.3977248)
(7.9271438e-06 4.5471502e-06 2.397725)
(8.9799266e-06 8.9799266e-06 2.3977251)
(4.9898427e-06 1.1566395e-05 2.3977257)
(1.1533663e-06 9.6744472e-06 2.3977258)
(2.0437069e-06 2.5043088e-06 2.3977262)
(1.0531206e-05 3.4728237e-06 2.3977263)
(1.1566395e-05 4.9898427e-06 2.3977257)
(4.1673443e-06 4.1673443e-06 2.3977256)
(4.4396966e-08 3.3115247e-06 2.3977256)
(2.1170169e-06 1.2323853e-06 2.3977266)
(1.0412678e-05 1.3056952e-06 2.3977266)
(9.6744472e-06 1.1533663e-06 2.3977258)
(3.3115247e-06 4.4396961e-08 2.3977256)
(5.8281992e-07 5.8281992e-07 2.3977253)
(2.3467512e-07 2.3467512e-07 2.4900722)
(2.5375403e-06 8.0253459e-07 2.4900723)
(3.4952783e-06 1.5125249e-06 2.4900722)
(3.2962711e-06 2.0144271e-06 2.4900734)
(1.3243469e-06 2.0603318e-06 2.4900735)
(8.0253458e-07 2.5375403e-06 2.4900723)
(4.4543151e-06 4.4543151e-06 2.490072)
(5.3131172e-06 7.8944699e-06 2.4900722)
(4.1179814e-06 1.0067169e-05 2.4900731)
(1.3702516e-06 9.8226765e-06 2.4900731)
(1.5125249e-06 3.4952783e-06 2.4900722)
(7.8944699e-06 5.3131171e-06 2.4900722)
(9.1081326e-06 9.1081326e-06 2.4900717)
(5.2244777e-06 1.102402e-05 2.4900719)
(1.1613517e-06 8.9666305e-06 2.4900718)
(2.0144271e-06 3.2962711e-06 2.4900734)
(1.0067169e-05 4.1179814e-06 2.4900731)
(1.102402e-05 5.2244777e-06 2.4900719)
(3.9764793e-06 3.9764793e-06 2.4900714)
(-1.341465e-09 2.9730082e-06 2.4900712)
(2.0603318e-06 1.3243469e-06 2.4900735)
(9.8226764e-06 1.3702516e-06 2.4900731)
(8.9666305e-06 1.1613517e-06 2.4900718)
(2.9730083e-06 -1.341468e-09 2.4900712)
(4.9237098e-07 4.9237097e-07 2.4900709)
(2.576176e-07 2.576176e-07 2.5671735)
(2.4627188e-06 6.8140129e-07 2.5671736)
(3.8551084e-06 1.4521977e-06 2.5671732)
(3.7600342e-06 1.8653434e-06 2.5671738)
(1.3208122e-06 1.8840952e-06 2.5671736)
(6.8140128e-07 2.4627188e-06 2.5671736)
(4.254589e-06 4.254589e-06 2.5671732)
(5.6310215e-06 7.3976617e-06 2.5671728)
(4.4078805e-06 9.0747404e-06 2.5671731)
(1.3395641e-06 8.7201622e-06 2.5671728)
(1.4521977e-06 3.8551083e-06 2.5671732)
(7.3976617e-06 5.6310215e-06 2.5671728)
(8.6752598e-06 8.6752598e-06 2.5671716)
(5.0825347e-06 9.8802648e-06 2.5671712)
(1.0844267e-06 7.729401e-06 2.5671708)
(1.8653434e-06 3.7600342e-06 2.5671738)
(9.0747404e-06 4.4078805e-06 2.5671731)
(9.8802648e-06 5.0825347e-06 2.5671712)
(3.4620217e-06 3.4620217e-06 2.5671701)
(-9.4345194e-08 2.3570169e-06 2.5671697)
(1.8840952e-06 1.3208122e-06 2.5671736)
(8.7201622e-06 1.339564e-06 2.5671728)
(7.729401e-06 1.0844267e-06 2.5671708)
(2.3570169e-06 -9.4345191e-08 2.5671697)
(3.4775683e-07 3.4775684e-07 2.5671692)
(2.6078545e-07 2.6078545e-07 2.6269346)
(2.168729e-06 5.3694918e-07 2.6269346)
(3.7053485e-06 1.2726391e-06 2.6269338)
(3.6891637e-06 1.5736002e-06 2.6269336)
(1.174244e-06 1.5711268e-06 2.6269329)
(5.3694918e-07 2.168729e-06 2.6269346)
(3.6865095e-06 3.6865095e-06 2.6269342)
(5.2603251e-06 6.3081838e-06 2.6269332)
(4.1368953e-06 7.437104e-06 2.6269326)
(1.1717706e-06 7.0216273e-06 2.6269318)
(1.2726391e-06 3.7053485e-06 2.6269338)
(6.3081837e-06 5.2603251e-06 2.6269332)
(7.455943e-06 7.4559431e-06 2.6269311)
(4.4026072e-06 7.9662019e-06 2.6269298)
(8.9725953e-07 5.8507777e-06 2.6269291)
(1.5736002e-06 3.6891637e-06 2.6269336)
(7.437104e-06 4.1368952e-06 2.6269326)
(7.9662019e-06 4.4026072e-06 2.6269298)
(2.5317299e-06 2.5317299e-06 2.626928)
(-2.3851225e-07 1.4245246e-06 2.6269276)
(1.5711268e-06 1.174244e-06 2.6269329)
(7.0216273e-06 1.1717706e-06 2.6269318)
(5.8507777e-06 8.9725953e-07 2.6269291)
(1.4245246e-06 -2.3851225e-07 2.6269276)
(1.5912268e-07 1.5912268e-07 2.6269271)
(2.6002685e-07 2.6002685e-07 2.6677172)
(1.724492e-06 4.6896453e-07 2.667717)
(2.937752e-06 1.0207468e-06 2.6677159)
(2.8417995e-06 1.1809266e-06 2.6677147)
(8.256661e-07 1.1746183e-06 2.6677133)
(4.6896453e-07 1.724492e-06 2.667717)
(2.8655719e-06 2.8655719e-06 2.6677166)
(4.0056951e-06 4.6638299e-06 2.6677147)
(3.0726067e-06 5.2275129e-06 2.6677131)
(8.1935777e-07 4.8874821e-06 2.6677116)
(1.0207468e-06 2.937752e-06 2.6677159)
(4.6638299e-06 4.0056951e-06 2.6677147)
(5.299693e-06 5.299693e-06 2.6677116)
(3.0654517e-06 5.2612469e-06 2.6677094)
(5.9897889e-07 3.4789171e-06 2.6677082)
(1.1809266e-06 2.8417995e-06 2.6677147)
(5.2275129e-06 3.0726067e-06 2.6677131)
(5.2612469e-06 3.0654516e-06 2.6677094)
(1.2518308e-06 1.2518307e-06 2.6677071)
(-3.688621e-07 3.846948e-07 2.6677068)
(1.1746183e-06 8.256661e-07 2.6677133)
(4.8874821e-06 8.1935778e-07 2.6677116)
(3.4789171e-06 5.9897889e-07 2.6677082)
(3.8469481e-07 -3.6886211e-07 2.6677068)
(2.0888269e-08 2.0888261e-08 2.6677064)
(1.2556782e-07 1.2556782e-07 2.6901317)
(8.1842605e-07 2.5589124e-07 2.690131)
(1.3432944e-06 4.8784643e-07 2.6901289)
(1.103513e-06 5.0801798e-07 2.6901264)
(2.6019529e-07 4.755083e-07 2.6901248)
(2.5589125e-07 8.1842605e-07 2.690131)
(1.361844e-06 1.3618439e-06 2.6901298)
(1.7214845e-06 2.0765485e-06 2.6901264)
(1.0850058e-06 2.1862062e-06 2.6901237)
(2.2768561e-07 1.969677e-06 2.6901222)
(4.8784642e-07 1.3432944e-06 2.6901289)
(2.0765485e-06 1.7214845e-06 2.6901264)
(2.1676566e-06 2.1676566e-06 2.6901216)
(9.9664141e-07 1.9911148e-06 2.6901185)
(1.1584247e-07 9.8444976e-07 2.6901176)
(5.0801799e-07 1.103513e-06 2.6901264)
(2.1862062e-06 1.0850058e-06 2.6901237)
(1.9911148e-06 9.9664142e-07 2.6901185)
(-9.8201042e-08 -9.8201031e-08 2.6901162)
(-4.4342443e-07 -3.7641213e-07 2.6901179)
(4.755083e-07 2.6019529e-07 2.6901248)
(1.969677e-06 2.2768561e-07 2.6901222)
(9.8444977e-07 1.1584247e-07 2.6901176)
(-3.7641214e-07 -4.4342443e-07 2.6901179)
(-6.9631595e-08 -6.9631593e-08 2.6901181)
)
;

boundaryField
{
    wall_minX
    {
        type            calculated;
        value           nonuniform List<vector> 
100
(
(0 7.9171377e-08 1.0776878)
(0 3.7603785e-07 1.0776881)
(0 -8.0657998e-07 1.0776885)
(0 -1.507945e-06 1.0776847)
(0 -2.9605616e-07 1.0776831)
(0 1.7559949e-08 1.0982231)
(0 -6.9176473e-08 1.0982227)
(0 -2.6754875e-06 1.0982217)
(0 -3.6392447e-06 1.0982192)
(0 -7.0618241e-07 1.0982183)
(0 -2.127852e-07 1.1357141)
(0 -1.0244757e-06 1.1357134)
(0 -4.3427633e-06 1.1357124)
(0 -4.9474483e-06 1.1357107)
(0 -8.7332199e-07 1.1357104)
(0 -4.3744243e-07 1.1909455)
(0 -1.6786201e-06 1.190945)
(0 -5.3327262e-06 1.1909447)
(0 -5.7126015e-06 1.1909437)
(0 -9.3488784e-07 1.1909437)
(0 -5.5261373e-07 1.2627235)
(0 -1.8681849e-06 1.2627233)
(0 -5.6385341e-06 1.2627234)
(0 -5.9183818e-06 1.2627231)
(0 -8.7940801e-07 1.2627234)
(0 -5.8667111e-07 1.3494751)
(0 -1.7451381e-06 1.3494751)
(0 -5.4813334e-06 1.3494756)
(0 -5.7329362e-06 1.3494757)
(0 -7.4448943e-07 1.3494762)
(0 -5.6796276e-07 1.4492686)
(0 -1.4295959e-06 1.4492687)
(0 -5.011665e-06 1.4492693)
(0 -5.2709738e-06 1.4492699)
(0 -5.5797367e-07 1.4492705)
(0 -5.1396451e-07 1.5598412)
(0 -9.953848e-07 1.5598414)
(0 -4.3194571e-06 1.5598421)
(0 -4.6022545e-06 1.5598429)
(0 -3.3815695e-07 1.5598436)
(0 -4.3540295e-07 1.678636)
(0 -4.8915548e-07 1.6786363)
(0 -3.4624102e-06 1.6786371)
(0 -3.7731943e-06 1.6786381)
(0 -9.789013e-08 1.6786389)
(0 -3.3962968e-07 1.8028488)
(0 5.6130194e-08 1.8028491)
(0 -2.4834661e-06 1.8028499)
(0 -2.8199065e-06 1.8028512)
(0 1.5275626e-07 1.8028519)
(0 -2.3261113e-07 1.9294848)
(0 6.134223e-07 1.9294852)
(0 -1.4206085e-06 1.9294859)
(0 -1.7756672e-06 1.9294873)
(0 4.0485357e-07 1.9294881)
(0 -1.2012279e-07 2.0554265)
(0 1.1569296e-06 2.0554269)
(0 -3.1273526e-07 2.0554276)
(0 -6.7552858e-07 2.0554291)
(0 6.4954701e-07 2.0554298)
(0 -8.5921386e-09 2.17751)
(0 1.6587455e-06 2.1775104)
(0 7.9598428e-07 2.177511)
(0 4.4014855e-07 2.1775125)
(0 8.7719862e-07 2.1775132)
(0 9.4188454e-08 2.2926092)
(0 2.0856131e-06 2.2926095)
(0 1.8514978e-06 2.29261)
(0 1.5217592e-06 2.2926115)
(0 1.0763945e-06 2.292612)
(0 1.7866006e-07 2.3977244)
(0 2.395639e-06 2.3977246)
(0 2.7833798e-06 2.3977248)
(0 2.5043088e-06 2.3977262)
(0 1.2323853e-06 2.3977266)
(0 2.3467512e-07 2.4900722)
(0 2.5375403e-06 2.4900723)
(0 3.4952783e-06 2.4900722)
(0 3.2962711e-06 2.4900734)
(0 1.3243469e-06 2.4900735)
(0 2.576176e-07 2.5671735)
(0 2.4627188e-06 2.5671736)
(0 3.8551083e-06 2.5671732)
(0 3.7600342e-06 2.5671738)
(0 1.3208122e-06 2.5671736)
(0 2.6078545e-07 2.6269346)
(0 2.168729e-06 2.6269346)
(0 3.7053485e-06 2.6269338)
(0 3.6891637e-06 2.6269336)
(0 1.174244e-06 2.6269329)
(0 2.6002685e-07 2.6677172)
(0 1.724492e-06 2.667717)
(0 2.937752e-06 2.6677159)
(0 2.8417995e-06 2.6677147)
(0 8.256661e-07 2.6677133)
(0 1.2556782e-07 2.6901317)
(0 8.1842605e-07 2.690131)
(0 1.3432944e-06 2.6901289)
(0 1.103513e-06 2.6901264)
(0 2.6019529e-07 2.6901248)
)
;
    }
    wall_maxX
    {
        type            calculated;
        value           nonuniform List<vector> 
100
(
(0 -7.8151433e-08 1.0776831)
(0 -1.8606146e-07 1.0776825)
(0 -2.230256e-07 1.0776824)
(0 -1.2997044e-07 1.0776819)
(0 1.6147229e-08 1.077682)
(0 -3.0986961e-07 1.0982183)
(0 -4.8338245e-07 1.0982178)
(0 -1.9507056e-07 1.0982182)
(0 -1.2557281e-07 1.0982183)
(0 3.3946474e-08 1.0982185)
(0 -3.9884769e-07 1.1357104)
(0 -2.4536563e-07 1.1357104)
(0 2.938182e-07 1.1357114)
(0 8.6497123e-08 1.1357117)
(0 9.7056553e-08 1.1357119)
(0 -3.1052586e-07 1.1909437)
(0 5.5597755e-07 1.1909442)
(0 1.1084154e-06 1.1909457)
(0 3.2604071e-07 1.1909461)
(0 1.5959441e-07 1.1909462)
(0 -1.0829925e-07 1.2627234)
(0 1.7232374e-06 1.2627241)
(0 2.1895882e-06 1.2627259)
(0 6.3245232e-07 1.2627264)
(0 2.1903359e-07 1.2627266)
(0 1.5603843e-07 1.3494762)
(0 3.0685774e-06 1.349477)
(0 3.419631e-06 1.349479)
(0 1.0115512e-06 1.3494796)
(0 2.8429331e-07 1.3494798)
(0 4.5043415e-07 1.4492705)
(0 4.467982e-06 1.4492714)
(0 4.696544e-06 1.4492732)
(0 1.4374497e-06 1.4492739)
(0 3.5549097e-07 1.4492741)
(0 7.5427064e-07 1.5598436)
(0 5.8378986e-06 1.5598445)
(0 5.9419645e-06 1.5598463)
(0 1.8773519e-06 1.5598469)
(0 4.2792e-07 1.5598471)
(0 1.0527513e-06 1.6786389)
(0 7.116662e-06 1.6786398)
(0 7.0952972e-06 1.6786413)
(0 2.3020556e-06 1.6786419)
(0 4.9619562e-07 1.6786421)
(0 1.3339868e-06 1.8028519)
(0 8.2546253e-06 1.8028527)
(0 8.1077177e-06 1.802854)
(0 2.687614e-06 1.8028546)
(0 5.5569424e-07 1.8028547)
(0 1.5875047e-06 1.9294881)
(0 9.2090711e-06 1.9294888)
(0 8.9378181e-06 1.9294898)
(0 3.0138842e-06 1.9294902)
(0 6.0258681e-07 1.9294903)
(0 1.8033904e-06 2.0554298)
(0 9.9412371e-06 2.0554304)
(0 9.5483475e-06 2.055431)
(0 3.2622493e-06 2.0554313)
(0 6.3336886e-07 2.0554314)
(0 1.9715718e-06 2.1775132)
(0 1.0413759e-05 2.1775136)
(0 9.9030054e-06 2.1775138)
(0 3.4128604e-06 2.177514)
(0 6.4417057e-07 2.177514)
(0 2.080825e-06 2.292612)
(0 1.0587028e-05 2.2926122)
(0 9.9619698e-06 2.292612)
(0 3.4409433e-06 2.292612)
(0 6.2984286e-07 2.2926119)
(0 2.1170169e-06 2.3977266)
(0 1.0412678e-05 2.3977266)
(0 9.6744472e-06 2.3977258)
(0 3.3115247e-06 2.3977256)
(0 5.8281992e-07 2.3977253)
(0 2.0603318e-06 2.4900735)
(0 9.8226765e-06 2.4900731)
(0 8.9666305e-06 2.4900718)
(0 2.9730082e-06 2.4900712)
(0 4.9237097e-07 2.4900709)
(0 1.8840952e-06 2.5671736)
(0 8.7201622e-06 2.5671728)
(0 7.729401e-06 2.5671708)
(0 2.3570169e-06 2.5671697)
(0 3.4775684e-07 2.5671692)
(0 1.5711268e-06 2.6269329)
(0 7.0216273e-06 2.6269318)
(0 5.8507777e-06 2.6269291)
(0 1.4245246e-06 2.6269276)
(0 1.5912268e-07 2.6269271)
(0 1.1746183e-06 2.6677133)
(0 4.8874821e-06 2.6677116)
(0 3.4789171e-06 2.6677082)
(0 3.846948e-07 2.6677068)
(0 2.0888261e-08 2.6677064)
(0 4.755083e-07 2.6901248)
(0 1.969677e-06 2.6901222)
(0 9.8444976e-07 2.6901176)
(0 -3.7641213e-07 2.6901179)
(0 -6.9631593e-08 2.6901181)
)
;
    }
    wall_minY
    {
        type            calculated;
        value           nonuniform List<vector> 
100
(
(7.9171384e-08 0 1.0776878)
(1.7559953e-08 0 1.0982231)
(-2.127852e-07 0 1.1357141)
(-4.3744242e-07 0 1.1909455)
(-5.5261373e-07 0 1.2627235)
(-5.8667111e-07 0 1.3494751)
(-5.6796275e-07 0 1.4492686)
(-5.139645e-07 0 1.5598412)
(-4.3540294e-07 0 1.678636)
(-3.3962966e-07 0 1.8028488)
(-2.3261111e-07 0 1.9294848)
(-1.2012278e-07 0 2.0554265)
(-8.5921291e-09 0 2.17751)
(9.4188455e-08 0 2.2926092)
(1.7866006e-07 0 2.3977244)
(2.3467512e-07 0 2.4900722)
(2.576176e-07 0 2.5671735)
(2.6078545e-07 0 2.6269346)
(2.6002685e-07 0 2.6677172)
(1.2556782e-07 0 2.6901317)
(3.7603785e-07 0 1.0776881)
(-6.9176459e-08 0 1.0982227)
(-1.0244757e-06 0 1.1357134)
(-1.6786201e-06 0 1.190945)
(-1.8681849e-06 0 1.2627233)
(-1.7451381e-06 0 1.3494751)
(-1.4295959e-06 0 1.4492687)
(-9.9538478e-07 0 1.5598414)
(-4.8915547e-07 0 1.6786363)
(5.6130204e-08 0 1.8028491)
(6.1342231e-07 0 1.9294852)
(1.1569297e-06 0 2.0554269)
(1.6587455e-06 0 2.1775104)
(2.0856131e-06 0 2.2926095)
(2.395639e-06 0 2.3977246)
(2.5375403e-06 0 2.4900723)
(2.4627188e-06 0 2.5671736)
(2.168729e-06 0 2.6269346)
(1.724492e-06 0 2.667717)
(8.1842605e-07 0 2.690131)
(-8.0657998e-07 0 1.0776885)
(-2.6754875e-06 0 1.0982217)
(-4.3427633e-06 0 1.1357124)
(-5.3327262e-06 0 1.1909447)
(-5.6385341e-06 0 1.2627234)
(-5.4813334e-06 0 1.3494756)
(-5.011665e-06 0 1.4492693)
(-4.3194571e-06 0 1.5598421)
(-3.4624102e-06 0 1.6786371)
(-2.4834662e-06 0 1.8028499)
(-1.4206086e-06 0 1.9294859)
(-3.1273527e-07 0 2.0554276)
(7.9598428e-07 0 2.177511)
(1.8514978e-06 0 2.29261)
(2.7833798e-06 0 2.3977248)
(3.4952783e-06 0 2.4900722)
(3.8551084e-06 0 2.5671732)
(3.7053485e-06 0 2.6269338)
(2.937752e-06 0 2.6677159)
(1.3432944e-06 0 2.6901289)
(-1.507945e-06 0 1.0776847)
(-3.6392448e-06 0 1.0982192)
(-4.9474483e-06 0 1.1357107)
(-5.7126015e-06 0 1.1909437)
(-5.9183818e-06 0 1.2627231)
(-5.7329362e-06 0 1.3494757)
(-5.2709738e-06 0 1.4492699)
(-4.6022545e-06 0 1.5598429)
(-3.7731943e-06 0 1.6786381)
(-2.8199065e-06 0 1.8028512)
(-1.7756672e-06 0 1.9294873)
(-6.7552858e-07 0 2.0554291)
(4.4014854e-07 0 2.1775125)
(1.5217592e-06 0 2.2926115)
(2.5043088e-06 0 2.3977262)
(3.2962711e-06 0 2.4900734)
(3.7600342e-06 0 2.5671738)
(3.6891637e-06 0 2.6269336)
(2.8417995e-06 0 2.6677147)
(1.103513e-06 0 2.6901264)
(-2.9605616e-07 0 1.0776831)
(-7.0618242e-07 0 1.0982183)
(-8.7332199e-07 0 1.1357104)
(-9.3488784e-07 0 1.1909437)
(-8.7940802e-07 0 1.2627234)
(-7.4448943e-07 0 1.3494762)
(-5.5797367e-07 0 1.4492705)
(-3.3815696e-07 0 1.5598436)
(-9.789013e-08 0 1.6786389)
(1.5275626e-07 0 1.8028519)
(4.0485357e-07 0 1.9294881)
(6.4954701e-07 0 2.0554298)
(8.7719861e-07 0 2.1775132)
(1.0763945e-06 0 2.292612)
(1.2323853e-06 0 2.3977266)
(1.3243469e-06 0 2.4900735)
(1.3208122e-06 0 2.5671736)
(1.174244e-06 0 2.6269329)
(8.256661e-07 0 2.6677133)
(2.6019529e-07 0 2.6901248)
)
;
    }
    wall_maxY
    {
        type            calculated;