/*--------------------------------*- C++ -*----------------------------------*\
| =========                 |                                                 |
| \\      /  F ield         | OpenFOAM: The Open Source CFD Toolbox           |
|  \\    /   O peration     | Version:  v2106                                 |
|   \\  /    A nd           | Website:  www.openfoam.com                      |
|    \\/     M anipulation  |                                                 |
\*---------------------------------------------------------------------------*/
FoamFile
{
    version     2.0;
    format      ascii;
    arch        "LSB;label=32;scalar=64";
    class       volScalarField;
    location    "10";
    object      gradTz;
}
// * * * * * * * * * * * * * * * * * * * * * * * * * * * * * * * * * * * * * //

dimensions      [0 -1 0 1 0 0 0];

internalField   nonuniform List<scalar> 
500
(
431.07512
431.07522
431.0754
431.07386
431.07323
431.07522
431.0758
431.07508
431.07359
431.07301
431.0754
431.07508
431.07451
431.07339
431.07295
431.07386
431.07359
431.07339
431.07284
431.07278
431.07323
431.07301
431.07295
431.07278
431.07281
439.28925
439.28908
439.28869
439.28766
439.28732
439.28908
439.28897
439.28836
439.28742
439.28713
439.28869
439.28836
439.28804
439.28745
439.28729
439.28766
439.28742
439.28745
439.2873
439.28733
439.28732
439.28713
439.28729
439.28733
439.28738
454.28562
454.28535
454.28498
454.28429
454.28415
454.28535
454.2852
454.28483
454.28425
454.28415
454.28498
454.28483
454.28482
454.28458
454.28456
454.28429
454.28425
454.28458
454.28465
454.28467
454.28415
454.28415
454.28456
454.28467
454.28474
476.37822
476.37801
476.37788
476.3775
476.37749
476.37801
476.37795
476.37789
476.37764
476.37767
476.37788
476.37789
476.3782
476.37822
476.37828
476.3775
476.37764
476.37822
476.37846
476.37843
476.37749
476.37767
476.37828
476.37843
476.3785
505.0894
505.08931
505.08937
505.08925
505.08936
505.08931
505.08935
505.08951
505.0895
505.08964
505.08937
505.08951
505.09001
505.09024
505.09037
505.08925
505.0895
505.09024
505.0906
505.09057
505.08936
505.08964
505.09037
505.09057
505.09064
539.79005
539.79004
539.79023
539.79029
539.79048
539.79004
539.79014
539.79045
539.79061
539.79082
539.79023
539.79045
539.79105
539.7914
539.79158
539.79029
539.79061
539.7914
539.79183
539.79182
539.79048
539.79082
539.79158
539.79182
539.7919
579.70744
579.70748
579.70774
579.70795
579.70819
579.70748
579.70761
579.70801
579.7083
579.70855
579.70774
579.70801
579.70866
579.70909
579.7093
579.70795
579.7083
579.70909
579.70955
579.70956
579.70819
579.70855
579.7093
579.70956
579.70964
623.93648
623.93656
623.93685
623.93718
623.93745
623.93656
623.9367
623.93715
623.93754
623.93781
623.93685
623.93715
623.93781
623.93829
623.93851
623.93718
623.93754
623.93829
623.93875
623.93877
623.93745
623.93781
623.93851
623.93877
623.93886
671.45442
671.45452
671.45484
671.45526
671.45555
671.45452
671.45466
671.45515
671.45561
671.4559
671.45484
671.45515
671.45578
671.45629
671.45652
671.45526
671.45561
671.45629
671.45674
671.45677
671.45555
671.4559
671.45652
671.45677
671.45684
721.13953
721.13965
721.13997
721.14047
721.14077
721.13965
721.13978
721.14028
721.1408
721.14109
721.13997
721.14028
721.14086
721.14138
721.14161
721.14047
721.1408
721.14138
721.1418
721.14183
721.14077
721.14109
721.14161
721.14183
721.14189
771.79393
771.79407
771.79437
771.79493
771.79523
771.79407
771.79418
771.79467
771.79523
771.79551
771.79437
771.79467
771.79519
771.7957
771.79591
771.79493
771.79523
771.7957
771.79606
771.79609
771.79523
771.79551
771.79591
771.79609
771.79614
822.17061
822.17074
822.17103
822.17163
822.17191
822.17074
822.17083
822.17129
822.17188
822.17214
822.17103
822.17129
822.17173
822.17221
822.1724
822.17163
822.17188
822.17221
822.17251
822.17253
822.17191
822.17214
822.1724
822.17253
822.17256
871.00401
871.00414
871.00438
871.00501
871.00526
871.00414
871.00419
871.00461
871.0052
871.00543
871.00438
871.00461
871.00494
871.00537
871.00552
871.00501
871.0052
871.00537
871.00558
871.0056
871.00526
871.00543
871.00552
871.0056
871.00559
917.04369
917.0438
917.04398
917.0446
917.04481
917.0438
917.04381
917.04416
917.04471
917.0449
917.04398
917.04416
917.04434
917.0447
917.04481
917.0446
917.04471
917.0447
917.04481
917.04481
917.04481
917.0449
917.04481
917.04481
917.04477
959.08974
959.08983
959.08992
959.09048
959.09063
959.08983
959.08978
959.09002
959.0905
959.09062
959.08992
959.09002
959.09004
959.09028
959.09033
959.09048
959.0905
959.09028
959.09026
959.09022
959.09063
959.09062
959.09033
959.09022
959.09014
996.02887
996.02892
996.0289
996.02935
996.0294
996.02892
996.02881
996.02889
996.02924
996.02926
996.0289
996.02889
996.02868
996.02876
996.02872
996.02935
996.02924
996.02876
996.02856
996.02848
996.0294
996.02926
996.02872
996.02848
996.02834
1026.8694
1026.8694
1026.8693
1026.8695
1026.8694
1026.8694
1026.8693
1026.8691
1026.8693
1026.8691
1026.8693
1026.8691
1026.8686
1026.8685
1026.8683
1026.8695
1026.8693
1026.8685
1026.868
1026.8679
1026.8694
1026.8691
1026.8683
1026.8679
1026.8677
1050.7738
1050.7738
1050.7735
1050.7735
1050.7732
1050.7738
1050.7737
1050.7733
1050.773
1050.7727
1050.7735
1050.7733
1050.7724
1050.7719
1050.7716
1050.7735
1050.773
1050.7719
1050.7712
1050.771
1050.7732
1050.7727
1050.7716
1050.771
1050.7708
1067.0869
1067.0868
1067.0863
1067.0859
1067.0853
1067.0868
1067.0866
1067.0859
1067.0852
1067.0847
1067.0863
1067.0859
1067.0847
1067.0838
1067.0833
1067.0859
1067.0852
1067.0838
1067.0828
1067.0827
1067.0853
1067.0847
1067.0833
1067.0827
1067.0826
1076.0527
1076.0524
1076.0515
1076.0506
1076.0499
1076.0524
1076.0519
1076.0506
1076.0495
1076.0489
1076.0515
1076.0506
1076.0486
1076.0474
1076.047
1076.0506
1076.0495
1076.0474
1076.0465
1076.0472
1076.0499
1076.0489
1076.047
1076.0472
1076.0472
)
;

boundaryField
{
    wall_minX
    {
        type            calculated;
        value           nonuniform List<scalar> 
100
(
431.07512
431.07522
431.0754
431.07386
431.07323
439.28925
439.28908
439.28869
439.28766
439.28732
454.28562
454.28535
454.28498
454.28429
454.28415
476.37822
476.37801
476.37788
476.3775
476.37749
505.0894
505.08931
505.08937
505.08925
505.08936
539.79005
539.79004
539.79023
539.79029
539.79048
579.70744
579.70748
579.70774
579.70795
579.70819
623.93648
623.93656
623.93685
623.93718
623.93745
671.45442
671.45452
671.45484
671.45526
671.45555
721.13953
721.13965
721.13997
721.14047
721.14077
771.79393
771.79407
771.79437
771.79493
771.79523
822.17061
822.17074
822.17103
822.17163
822.17191
871.00401
871.00414
871.00438
871.00501
871.00526
917.04369
917.0438
917.04398
917.0446
917.04481
959.08974
959.08983
959.08992
959.09048
959.09063
996.02887
996.02892
996.0289
996.02935
996.0294
1026.8694
1026.8694
1026.8693
1026.8695
1026.8694
1050.7738
1050.7738
1050.7735
1050.7735
1050.7732
1067.0869
1067.0868
1067.0863
1067.0859
1067.0853
1076.0527
1076.0524
1076.0515
1076.0506
1076.0499
)
;
    }
    wall_maxX
    {
        type            calculated;
        value           nonuniform List<scalar> 
100
(
431.07323
431.07301
431.07295
431.07278
431.07281
439.28732
439.28713
439.28729
439.28733
439.28738
454.28415
454.28415
454.28456
454.28467
454.28474
476.37749
476.37767
476.37828
476.37843
476.3785
505.08936
505.08964
505.09037
505.09057
505.09064
539.79048
539.79082
539.79158
539.79182
539.7919
579.70819
579.70855
579.7093
579.70956
579.70964
623.93745
623.93781
623.93851
623.93877
623.93886
671.45555
671.4559
671.45652
671.45677
671.45684
721.14077
721.14109
721.14161
721.14183
721.14189
771.79523
771.79551
771.79591
771.79609
771.79614
822.17191
822.17214
822.1724
822.17253
822.17256
871.00526
871.00543
871.00552
871.0056
871.00559
917.04481
917.0449
917.04481
917.04481
917.04477
959.09063
959.09062
959.09033
959.09022
959.09014
996.0294
996.02926
996.02872
996.02848
996.02834
1026.8694
1026.8691
1026.8683
1026.8679
1026.8677
1050.7732
1050.7727
1050.7716
1050.771
1050.7708
1067.0853
1067.0847
1067.0833
1067.0827
1067.0826
1076.0499
1076.0489
1076.047
1076.0472
1076.0472
)
;
    }
    wall_minY
    {
        type            calculated;
        value           nonuniform List<scalar> 
100
(
431.07512
439.28925
454.28562
476.37822
505.0894
539.79005
579.70744
623.93648
671.45442
721.13953
771.79393
822.17061
871.00401
917.04369
959.08974
996.02887
1026.8694
1050.7738
1067.0869
1076.0527
431.07522
439.28908
454.28535
476.37801
505.08931
539.79004
579.70748
623.93656
671.45452
721.13965
771.79407
822.17074
871.00414
917.0438
959.08983
996.02892
1026.8694
1050.7738
1067.0868
1076.0524
431.0754
439.28869
454.28498
476.37788
505.08937
539.79023
579.70774
623.93685
671.45484
721.13997
771.79437
822.17103
871.00438
917.04398
959.08992
996.0289
1026.8693
1050.7735
1067.0863
1076.0515
431.07386
439.28766
454.28429
476.3775
505.08925
539.79029
579.70795
623.93718
671.45526
721.14047
771.79493
822.17163
871.00501
917.0446
959.09048
996.02935
1026.8695
1050.7735
1067.0859
1076.0506
431.07323
439.28732
454.28415
476.37749
505.08936
539.79048
579.70819
623.93745
671.45555
721.14077
771.79523
822.17191
871.00526
917.04481
959.09063
996.0294
1026.8694
1050.7732
1067.0853
1076.0499
)
;
    }
    wall_maxY
    {
        type            calculated;
        value           nonuniform List<scalar> 
100
(
431.07323
439.28732
454.28415
476.37749
505.08936
539.79048
579.70819
623.93745
671.45555
721.14077
771.79523
822.17191
871.00526
917.04481
959.09063
996.0294
1026.8694
1050.7732
1067.0853
1076.0499
431.07301
439.28713
454.28415
476.37767
505.08964
539.79082
579.70855
623.93781
671.4559
721.14109
771.79551
822.17214
871.00543
917.0449
959.09062
996.02926
1026.8691
1050.7727
1067.0847
1076.0489
431.07295
439.28729
454.28456
476.37828
505.09037
539.79158
579.7093
623.93851
671.45652
721.14161
771.79591
822.1724
871.00552
917.04481
959.09033
996.02872
1026.8683
1050.7716
1067.0833
1076.047
431.07278
439.28733
454.28467
476.37843
505.09057
539.79182
579.70956
623.93877
671.45677
721.14183
771.79609
822.17253
871.0056
917.04481
959.09022
996.02848
1026.8679
1050.771
1067.0827
1076.0472
431.07281
439.28738
454.28474
476.3785
505.09064
539.7919
579.70964
623.93886
671.45684
721.14189
771.79614
822.17256
871.00559
917.04477
959.09014
996.02834
1026.8677
1050.7708
1067.0826
1076.0472
)
;
    }
    inlet_minZ
    {
        type            calculated;
        value           nonuniform List<scalar> 
25
(
429.80509
429.80528
429.80569
429.80399
429.80328
429.80528
429.80617
429.80543
429.80376
429.80309
429.80569
429.80543
429.8048
429.80351
429.80298
429.80399
429.80376
429.80351
429.80283
429.80273
429.80328
429.80309
429.80298
429.80273
429.80277
)
;
    }
    outlet_maxZ
    {
        type            calculated;
        value           nonuniform List<scalar> 
25
(
1077.4411
1077.4407
1077.4397
1077.4386
1077.438
1077.4407
1077.4401
1077.4386
1077.4374
1077.4368
1077.4397
1077.4386
1077.4364
1077.4351
1077.4348
1077.4386
1077.4374
1077.4351
1077.4342
1077.4353
1077.438
1077.4368
1077.4348
1077.4353
1077.4354
)
;
    }
}


// ************************************************************************* //
