/*--------------------------------*- C++ -*----------------------------------*\
| =========                 |                                                 |
| \\      /  F ield         | OpenFOAM: The Open Source CFD Toolbox           |
|  \\    /   O peration     | Version:  v2106                                 |
|   \\  /    A nd           | Website:  www.openfoam.com                      |
|    \\/     M anipulation  |                                                 |
\*---------------------------------------------------------------------------*/
FoamFile
{
    version     2.0;
    format      ascii;
    arch        "LSB;label=32;scalar=64";
    class       volScalarField;
    location    "80";
    object      DT;
}
// * * * * * * * * * * * * * * * * * * * * * * * * * * * * * * * * * * * * * //

dimensions      [0 2 -1 0 0 0 0];

internalField   uniform 0.0025;

boundaryField
{
    block1_in
    {
        type            calculated;
        value           uniform 0.0025;
    }
    block1_wall1
    {
        type            calculated;
        value           uniform 0.0025;
    }
    block1_wall2
    {
        type            calculated;
        value           uniform 0.0025;
    }
    block1_wall3
    {
        type            calculated;
        value           uniform 0.0025;
    }
    block1_wall4
    {
        type            calculated;
        value           uniform 0.0025;
    }
    block2_wall1
    {
        type            calculated;
        value           uniform 0.0025;
    }
    block2_wall2
    {
        type            calculated;
        value           uniform 0.0025;
    }
    block2_wall3
    {
        type            calculated;
        value           uniform 0.0025;
    }
    block2_wall4
    {
        type            calculated;
        value           uniform 0.0025;
    }
    block3_wall1
    {
        type            calculated;
        value           uniform 0.0025;
    }
    block3_wall2
    {
        type            calculated;
        value           uniform 0.0025;
    }
    block3_wall3
    {
        type            calculated;
        value           uniform 0.0025;
    }
    block3_wall4
    {
        type            calculated;
        value           uniform 0.0025;
    }
    block4_wall1
    {
        type            calculated;
        value           uniform 0.0025;
    }
    block4_wall2
    {
        type            calculated;
        value           uniform 0.0025;
    }
    block4_wall3
    {
        type            calculated;
        value           uniform 0.0025;
    }
    block4_wall4
    {
        type            calculated;
        value           uniform 0.0025;
    }
    block5_wall1
    {
        type            calculated;
        value           uniform 0.0025;
    }
    block5_wall2
    {
        type            calculated;
        value           uniform 0.0025;
    }
    block5_wall3
    {
        type            calculated;
        value           uniform 0.0025;
    }
    block5_wall4
    {
        type            calculated;
        value           uniform 0.0025;
    }
    block6_wall1
    {
        type            calculated;
        value           uniform 0.0025;
    }
    block6_wall2
    {
        type            calculated;
        value           uniform 0.0025;
    }
    block6_wall3
    {
        type            calculated;
        value           uniform 0.0025;
    }
    block6_wall4
    {
        type            calculated;
        value           uniform 0.0025;
    }
    block7_wall1
    {
        type            calculated;
        value           uniform 0.0025;
    }
    block7_wall2
    {
        type            calculated;
        value           uniform 0.0025;
    }
    block7_wall3
    {
        type            calculated;
        value           uniform 0.0025;
    }
    block7_wall4
    {
        type            calculated;
        value           uniform 0.0025;
    }
    block8_wall1
    {
        type            calculated;
        value           uniform 0.0025;
    }
    block8_wall2
    {
        type            calculated;
        value           uniform 0.0025;
    }
    block8_wall3
    {
        type            calculated;
        value           uniform 0.0025;
    }
    block8_wall4
    {
        type            calculated;
        value           uniform 0.0025;
    }
    block9_wall1
    {
        type            calculated;
        value           uniform 0.0025;
    }
    block9_wall2
    {
        type            calculated;
        value           uniform 0.0025;
    }
    block9_wall3
    {
        type            calculated;
        value           uniform 0.0025;
    }
    block9_wall4
    {
        type            calculated;
        value           uniform 0.0025;
    }
    block10_out
    {
        type            calculated;
        value           uniform 0.0025;
    }
    block10_wall1
    {
        type            calculated;
        value           uniform 0.0025;
    }
    block10_wall2
    {
        type            calculated;
        value           uniform 0.0025;
    }
    block10_wall3
    {
        type            calculated;
        value           uniform 0.0025;
    }
    block10_wall4
    {
        type            calculated;
        value           uniform 0.0025;
    }
    interface_block1_out
    {
        type            cyclic;
    }
    interface_block2_in
    {
        type            cyclic;
    }
    interface_block2_out
    {
        type            cyclic;
    }
    interface_block3_in
    {
        type            cyclic;
    }
    interface_block3_out
    {
        type            cyclic;
    }
    interface_block4_in
    {
        type            cyclic;
    }
    interface_block4_out
    {
        type            cyclic;
    }
    interface_block5_in
    {
        type            cyclic;
    }
    interface_block5_out
    {
        type            cyclic;
    }
    interface_block6_in
    {
        type            cyclic;
    }
    interface_block6_out
    {
        type            cyclic;
    }
    interface_block7_in
    {
        type            cyclic;
    }
    interface_block7_out
    {
        type            cyclic;
    }
    interface_block8_in
    {
        type            cyclic;
    }
    interface_block8_out
    {
        type            cyclic;
    }
    interface_block9_in
    {
        type            cyclic;
    }
    interface_block9_out
    {
        type            cyclic;
    }
    interface_block10_in
    {
        type            cyclic;
    }
}


// ************************************************************************* //
