/*--------------------------------*- C++ -*----------------------------------*\
| =========                 |                                                 |
| \\      /  F ield         | OpenFOAM: The Open Source CFD Toolbox           |
|  \\    /   O peration     | Version:  v2106                                 |
|   \\  /    A nd           | Website:  www.openfoam.com                      |
|    \\/     M anipulation  |                                                 |
\*---------------------------------------------------------------------------*/
FoamFile
{
    version     2.0;
    format      ascii;
    arch        "LSB;label=32;scalar=64";
    class       volVectorField;
    location    "80";
    object      gradT;
}
// * * * * * * * * * * * * * * * * * * * * * * * * * * * * * * * * * * * * * //

dimensions      [0 -1 0 1 0 0 0];

internalField   nonuniform List<vector> 
20000
(
(6.7968604e-05 6.7968472e-05 1499.5173)
(-0.00015558587 4.362126e-06 1499.5176)
(-0.00067338866 -6.2860882e-05 1499.5165)
(-0.00084582575 -9.9299105e-05 1499.5148)
(-0.00058322942 -6.6100824e-05 1499.5132)
(-0.00024682475 -7.9863033e-05 1499.5126)
(-4.6518835e-05 -3.427823e-05 1499.5124)
(0.00026191802 3.8404153e-05 1499.5126)
(0.00022243353 2.3301633e-06 1499.5133)
(5.0452513e-06 -1.9007416e-05 1499.5134)
(4.3622586e-06 -0.00015558598 1499.5176)
(-0.0003518299 -0.00035182993 1499.5175)
(-0.0008288805 -0.00045573248 1499.5161)
(-0.00085068567 -0.00040328962 1499.5142)
(-0.00055407531 -0.00032980878 1499.5128)
(-0.00019909086 -0.00025094019 1499.5122)
(0.00013088194 -6.1134841e-05 1499.5122)
(0.00031683061 3.8974918e-05 1499.5128)
(0.00013631617 2.8475199e-05 1499.5133)
(-1.6292328e-05 7.7178782e-05 1499.5133)
(-6.2860693e-05 -0.00067338863 1499.5165)
(-0.00045573236 -0.00082888053 1499.5161)
(-0.00072484835 -0.00072484823 1499.5146)
(-0.00071990206 -0.00060827801 1499.5132)
(-0.00043087999 -0.00044660666 1499.5119)
(2.1849189e-05 -0.00020885145 1499.5117)
(0.00024339627 -6.592137e-05 1499.5121)
(0.00035152806 1.7981449e-05 1499.5127)
(0.00026063739 0.00013809563 1499.5134)
(3.7514307e-05 0.00020667247 1499.5136)
(-9.929901e-05 -0.00084582595 1499.5148)
(-0.0004032895 -0.00085068612 1499.5142)
(-0.00060827799 -0.00071990215 1499.5132)
(-0.00057244409 -0.00057244478 1499.5119)
(-0.00015464875 -0.00027458952 1499.5111)
(0.00018159443 -9.6492585e-05 1499.5113)
(0.00035771484 4.8573327e-05 1499.5119)
(0.00052084761 0.00013704658 1499.5128)
(0.00032500719 0.00019394864 1499.5138)
(2.9425564e-05 0.00017206389 1499.514)
(-6.6100805e-05 -0.00058322951 1499.5132)
(-0.00032980856 -0.00055407565 1499.5128)
(-0.000446607 -0.00043087999 1499.5119)
(-0.00027458944 -0.00015464903 1499.5111)
(4.5072198e-05 4.5071516e-05 1499.5109)
(0.00034501204 0.00022386888 1499.5113)
(0.00047693544 0.00037825112 1499.5123)
(0.00049690337 0.00034948886 1499.5132)
(0.0002956547 0.00028776975 1499.5141)
(2.2924477e-05 0.00025090941 1499.5143)
(-7.9863109e-05 -0.00024682464 1499.5126)
(-0.00025093999 -0.00019909103 1499.5122)
(-0.00020885136 2.1848763e-05 1499.5117)
(-9.6492585e-05 0.00018159474 1499.5113)
(0.00022386916 0.00034501198 1499.5113)
(0.00051477403 0.00051477386 1499.5122)
(0.00048333482 0.00054068147 1499.5132)
(0.00043036624 0.00049939882 1499.514)
(0.00022642774 0.00042639559 1499.5149)
(4.8520025e-06 0.00046548388 1499.515)
(-3.4278401e-05 -4.6518608e-05 1499.5124)
(-6.1135154e-05 0.0001308822 1499.5122)
(-6.5921228e-05 0.00024339585 1499.5121)
(4.8573781e-05 0.00035771495 1499.5119)
(0.00037825131 0.00047693541 1499.5123)
(0.00054068153 0.00048333501 1499.5132)
(0.0004615604 0.00046156021 1499.5142)
(0.00038261749 0.00046083883 1499.5151)
(0.00026173976 0.00053371198 1499.5158)
(4.8983338e-05 0.0005832606 1499.5161)
(3.8404096e-05 0.0002619181 1499.5126)
(3.8974463e-05 0.00031683123 1499.5128)
(1.7981392e-05 0.00035152846 1499.5127)
(0.00013704698 0.00052084781 1499.5128)
(0.00034948923 0.00049690325 1499.5132)
(0.00049939882 0.00043036655 1499.514)
(0.00046083863 0.00038261757 1499.5151)
(0.00050251802 0.00050251811 1499.516)
(0.00034884951 0.00054796914 1499.5169)
(3.7884414e-05 0.00043716952 1499.5171)
(2.3303529e-06 0.00022243344 1499.5133)
(2.8475199e-05 0.00013631626 1499.5133)
(0.00013809534 0.00026063788 1499.5134)
(0.00019394858 0.00032500722 1499.5138)
(0.00028777006 0.00029565462 1499.5141)
(0.00042639584 0.00022642755 1499.5149)
(0.00053371195 0.00026173979 1499.5158)
(0.00054796905 0.00034884937 1499.5169)
(0.00019639117 0.00019639111 1499.5177)
(-2.4883074e-05 0.00013835071 1499.5176)
(-1.9007359e-05 5.0452514e-06 1499.5134)
(7.7178896e-05 -1.6292461e-05 1499.5133)
(0.00020667235 3.7514383e-05 1499.5136)
(0.00017206372 2.9425545e-05 1499.514)
(0.00025090955 2.2924477e-05 1499.5143)
(0.00046548399 4.85187e-06 1499.515)
(0.00058326046 4.8983244e-05 1499.5161)
(0.00043716935 3.7884206e-05 1499.5171)
(0.00013835086 -2.4883226e-05 1499.5176)
(-8.0918491e-07 -8.0933649e-07 1499.5176)
(0.00011215258 0.00011215254 1499.5168)
(-0.00074967016 -0.00010027425 1499.5166)
(-0.0021265307 -0.00021527969 1499.5154)
(-0.0023228139 -0.00031264257 1499.5139)
(-0.0016341296 -0.00021902491 1499.5128)
(-0.00055404089 -0.00013990636 1499.5123)
(0.00015394045 -7.4541447e-05 1499.5125)
(0.0005545821 4.9022143e-05 1499.5127)
(0.00051593824 5.4381757e-05 1499.5129)
(9.959344e-05 1.4661377e-05 1499.5132)
(-0.00010027422 -0.00074967062 1499.5166)
(-0.0012408185 -0.0012408187 1499.5161)
(-0.0024450832 -0.001407226 1499.5147)
(-0.0023284317 -0.0012629133 1499.5133)
(-0.0013750252 -0.0009533442 1499.5124)
(-0.0003373157 -0.00063435186 1499.5121)
(0.0004373332 -0.00029690651 1499.5122)
(0.00074796691 -2.7492092e-05 1499.5126)
(0.00046439709 0.00011246135 1499.513)
(5.987306e-05 0.00014020983 1499.5132)
(-0.00021527946 -0.0021265309 1499.5154)
(-0.0014072255 -0.0024450835 1499.5147)
(-0.0021486253 -0.0021486259 1499.5135)
(-0.0018689321 -0.0016488548 1499.5123)
(-0.0010055682 -0.0012098843 1499.5116)
(0.0001023968 -0.00068255881 1499.5114)
(0.00076080022 -0.00031265222 1499.5118)
(0.00096394996 -4.6879619e-06 1499.5124)
(0.00068364017 0.0002491669 1499.5129)
(0.00011809243 0.00029034678 1499.5131)
(-0.00031264259 -0.0023228144 1499.5139)
(-0.0012629134 -0.0023284323 1499.5133)
(-0.0016488545 -0.0018689328 1499.5123)
(-0.0013896902 -0.0013896914 1499.5114)
(-0.00040872922 -0.0006994353 1499.5109)
(0.00055991643 -0.00020721609 1499.5111)
(0.001115204 0.00019818609 1499.5116)
(0.001309786 0.00042189268 1499.5124)
(0.00075943183 0.00043301054 1499.513)
(8.7326308e-05 0.00043354743 1499.5132)
(-0.00021902474 -0.0016341304 1499.5128)
(-0.00095334394 -0.001375026 1499.5124)
(-0.0012098844 -0.0010055683 1499.5116)
(-0.00069943462 -0.00040873005 1499.5109)
(0.00017690715 0.00017690613 1499.5108)
(0.0010000182 0.00064630908 1499.5112)
(0.001389909 0.00093599735 1499.5118)
(0.0011987744 0.00083179498 1499.5126)
(0.00069529492 0.00077010134 1499.5132)
(0.00011845035 0.00084952413 1499.5135)
(-0.00013990632 -0.00055404104 1499.5123)
(-0.00063435129 -0.00033731618 1499.5121)
(-0.00068255852 0.00010239665 1499.5114)
(-0.00020721581 0.00055991649 1499.5111)
(0.0006463099 0.0010000181 1499.5112)
(0.0013190077 0.0013190071 1499.5116)
(0.0013006899 0.001260307 1499.5123)
(0.00114389 0.0012621535 1499.5131)
(0.00077716098 0.0013124355 1499.5138)
(0.00014027484 0.0013522678 1499.5142)
(-7.4541504e-05 0.00015394099 1499.5125)
(-0.00029690625 0.00043733394 1499.5122)
(-0.00031265171 0.00076079993 1499.5118)
(0.00019818683 0.0011152044 1499.5116)
(0.0009359978 0.0013899092 1499.5118)
(0.0012603071 0.0013006901 1499.5123)
(0.0013330554 0.001333055 1499.513)
(0.0012509029 0.001485071 1499.5139)
(0.00078540913 0.0015067297 1499.5147)
(0.00014500521 0.0014334053 1499.515)
(4.9022314e-05 0.00055458258 1499.5127)
(-2.7492348e-05 0.00074796779 1499.5126)
(-4.6881041e-06 0.00096395016 1499.5124)
(0.00042189347 0.0013097862 1499.5124)
(0.00083179569 0.0011987741 1499.5126)
(0.0012621534 0.0011438906 1499.5131)
(0.0014850708 0.0012509031 1499.5139)
(0.0013175647 0.0013175646 1499.5149)
(0.0007254952 0.0012084316 1499.5154)
(9.1391883e-05 0.00097490326 1499.5156)
(5.4381966e-05 0.00051593818 1499.5129)
(0.00011246132 0.00046439695 1499.513)
(0.0002491667 0.00068364074 1499.5129)
(0.0004330108 0.0007594322 1499.513)
(0.00077010219 0.00069529489 1499.5132)
(0.001312436 0.00077716112 1499.5138)
(0.0015067294 0.00078540964 1499.5147)
(0.0012084315 0.00072549534 1499.5154)
(0.00044274776 0.00044274816 1499.5158)
(-1.0680367e-05 0.00024258145 1499.5158)
(1.4661491e-05 9.9593384e-05 1499.5132)
(0.0001402102 5.9872908e-05 1499.5132)
(0.00029034715 0.00011809264 1499.5131)
(0.00043354763 8.7326536e-05 1499.5132)
(0.00084952461 0.00011845052 1499.5135)
(0.0013522682 0.00014027482 1499.5142)
(0.0014334051 0.00014500531 1499.515)
(0.00097490323 9.1391901e-05 1499.5156)
(0.00024258131 -1.0680177e-05 1499.5158)
(-4.2052591e-05 -4.2052401e-05 1499.5158)
(-2.1317779e-05 -2.1317609e-05 1499.5156)
(-0.0015387677 -0.00037614681 1499.5151)
(-0.0033943804 -0.00049965687 1499.514)
(-0.0034129406 -0.00054373476 1499.513)
(-0.0021849599 -0.00037771711 1499.5125)
(-0.000621863 -0.00024077732 1499.5123)
(0.00033690927 -0.00020739236 1499.5124)
(0.00074889994 -3.896857e-05 1499.5126)
(0.00068643797 6.9133231e-05 1499.5128)
(0.00015780106 8.3531591e-06 1499.5129)
(-0.00037614698 -0.0015387678 1499.5151)
(-0.0022562766 -0.0022562762 1499.5143)
(-0.0036457623 -0.0023930816 1499.5133)
(-0.003230031 -0.0020468127 1499.5125)
(-0.0017305237 -0.0015474519 1499.5121)
(-0.00036637587 -0.0011620624 1499.512)
(0.00063962238 -0.00070637157 1499.512)
(0.0011636883 -0.00024400816 1499.5123)
(0.00075742057 2.3818558e-05 1499.5127)
(9.7020992e-05 3.3991739e-05 1499.5128)
(-0.0004996567 -0.0033943815 1499.514)
(-0.0023930814 -0.0036457631 1499.5133)
(-0.0031849169 -0.0031849173 1499.5124)
(-0.0025673109 -0.002465888 1499.5117)
(-0.0013002095 -0.0019503336 1499.5113)
(0.0002192173 -0.0012381552 1499.5112)
(0.0012549635 -0.00063488076 1499.5115)
(0.0014790901 -0.00022596103 1499.512)
(0.00096443787 4.7289291e-05 1499.5124)
(0.00016458318 0.00018316376 1499.5126)
(-0.00054373466 -0.0034129415 1499.513)
(-0.0020468124 -0.0032300323 1499.5125)
(-0.0024658873 -0.002567312 1499.5117)
(-0.0019954472 -0.0019954477 1499.511)
(-0.0005027909 -0.0011147809 1499.5107)
(0.00094907699 -0.00035838045 1499.5108)
(0.0016518165 6.7293684e-05 1499.5111)
(0.0018458584 0.00030219013 1499.5116)
(0.0011665454 0.00044530111 1499.5121)
(0.00018760397 0.00058977798 1499.5125)
(-0.00037771728 -0.0021849603 1499.5125)
(-0.0015474519 -0.0017305246 1499.5121)
(-0.0019503323 -0.0013002104 1499.5113)
(-0.0011147798 -0.00050279124 1499.5107)
(0.00033685777 0.00033685751 1499.5105)
(0.0014012919 0.00080263482 1499.5106)
(0.0019155341 0.0010896725 1499.5108)
(0.0018570975 0.0010632643 1499.5114)
(0.0012520257 0.0011583555 1499.5122)
(0.0002609011 0.0012789987 1499.5126)
(-0.0002407775 -0.00062186331 1499.5123)
(-0.0011620625 -0.00036637601 1499.512)
(-0.0012381539 0.00021921741 1499.5112)
(-0.00035837928 0.0009490764 1499.5108)
(0.00080263516 0.0014012917 1499.5106)
(0.001701892 0.0017018918 1499.5106)
(0.001912446 0.0017368305 1499.5109)
(0.0019145414 0.0018496825 1499.5117)
(0.0013822798 0.0019529384 1499.5125)
(0.00026803281 0.0018809152 1499.5129)
(-0.00020739242 0.00033690961 1499.5124)
(-0.00070637117 0.00063962321 1499.512)
(-0.00063487994 0.0012549642 1499.5115)
(6.729448e-05 0.0016518163 1499.5111)
(0.0010896732 0.0019155339 1499.5108)
(0.0017368307 0.0019124461 1499.5109)
(0.0020633248 0.0020633249 1499.5115)
(0.0020732054 0.0022692437 1499.5123)
(0.0012832585 0.0021220408 1499.513)
(0.00021288563 0.0019220711 1499.5132)
(-3.8968438e-05 0.00074890042 1499.5126)
(-0.00024400794 0.0011636891 1499.5123)
(-0.00022596089 0.0014790902 1499.512)
(0.00030219047 0.0018458586 1499.5116)
(0.001063265 0.0018570973 1499.5114)
(0.0018496829 0.0019145412 1499.5117)
(0.0022692436 0.0020732056 1499.5123)
(0.0019732573 0.0019732572 1499.5129)
(0.0010351073 0.0016166536 1499.5134)
(0.00013471972 0.0013226714 1499.5137)
(6.9133402e-05 0.00068643831 1499.5128)
(2.3818643e-05 0.00075742031 1499.5127)
(4.7289518e-05 0.00096443776 1499.5124)
(0.00044530151 0.0011665456 1499.5121)
(0.0011583558 0.0012520258 1499.5122)
(0.0019529391 0.0013822798 1499.5125)
(0.0021220407 0.0012832589 1499.513)
(0.0016166534 0.0010351071 1499.5134)
(0.00063267268 0.00063267271 1499.5138)
(1.6897502e-05 0.00035735076 1499.514)
(8.3528941e-06 0.00015780123 1499.5129)
(3.3991512e-05 9.7020726e-05 1499.5128)
(0.00018316436 0.00016458315 1499.5126)
(0.00058977849 0.00018760395 1499.5125)
(0.0012789992 0.00026090114 1499.5126)
(0.001880916 0.00026803292 1499.5129)
(0.0019220709 0.00021288578 1499.5132)
(0.0013226711 0.0001347197 1499.5137)
(0.0003573509 1.6897596e-05 1499.514)
(-4.882825e-05 -4.8828156e-05 1499.5141)
(-0.00023869702 -0.0002386973 1499.5142)
(-0.0023447619 -0.00062643831 1499.5136)
(-0.0042140197 -0.00068469673 1499.5129)
(-0.0038458931 -0.00063716914 1499.5125)
(-0.0022984282 -0.00050953391 1499.5125)
(-0.00067465223 -0.00036717017 1499.5124)
(0.00038009989 -0.00031931211 1499.5123)
(0.00096646127 -0.00012146933 1499.5124)
(0.00088917369 1.3268846e-05 1499.5127)
(0.00019841737 -6.1025105e-05 1499.5128)
(-0.00062643803 -0.0023447626 1499.5136)
(-0.003013761 -0.0030137617 1499.5131)
(-0.004230116 -0.002987235 1499.5126)
(-0.0035831489 -0.0025694766 1499.5123)
(-0.0018934298 -0.0021287743 1499.5121)
(-0.00038931952 -0.0017412306 1499.512)
(0.00074865116 -0.0011875674 1499.5119)
(0.0014653327 -0.00063314385 1499.5121)
(0.00097984002 -0.00030543765 1499.5124)
(0.00012412342 -0.00022358665 1499.5125)
(-0.00068469641 -0.0042140211 1499.5129)
(-0.0029872343 -0.0042301172 1499.5126)
(-0.0037697346 -0.0037697352 1499.5121)
(-0.0029874324 -0.0031443078 1499.5117)
(-0.0014701822 -0.00261445 1499.5114)
(0.00026655465 -0.0019194074 1499.5112)
(0.0014881866 -0.0012480853 1499.5112)
(0.001848591 -0.00075910029 1499.5115)
(0.0012987309 -0.00036510946 1499.5119)
(0.00025298471 -7.5980437e-05 1499.5122)
(-0.00063716881 -0.0038458943 1499.5125)
(-0.0025694751 -0.0035831503 1499.5123)
(-0.0031443065 -0.0029874336 1499.5117)
(-0.0024278637 -0.0024278644 1499.5111)
(-0.00066852937 -0.0015715811 1499.5107)
(0.00097704512 -0.00086579806 1499.5105)
(0.0019089582 -0.00047664511 1499.5104)
(0.0023483086 -0.00010772766 1499.5108)
(0.0016629599 0.00024148903 1499.5115)
(0.0003168761 0.00045813763 1499.5118)
(-0.00050953378 -0.0022984279 1499.5125)
(-0.0021287736 -0.0018934298 1499.5121)
(-0.0026144486 -0.0014701832 1499.5114)
(-0.0015715799 -0.00066852962 1499.5107)
(9.188409e-05 9.1883862e-05 1499.5102)
(0.0013614906 0.00046324399 1499.5098)
(0.002246257 0.00080170895 1499.5098)
(0.0025667252 0.0009918746 1499.5104)
(0.0018645962 0.0011688904 1499.5112)
(0.00039741711 0.0012600457 1499.5116)
(-0.00036717008 -0.00067465228 1499.5124)
(-0.0017412304 -0.00038931932 1499.512)
(-0.0019194063 0.00026655459 1499.5112)
(-0.00086579658 0.00097704498 1499.5105)
(0.00046324425 0.0013614904 1499.5098)
(0.0016868702 0.0016868702 1499.5095)
(0.0024375888 0.0019446256 1499.5097)
(0.00271549 0.0021047555 1499.5104)
(0.001931131 0.0020909907 1499.511)
(0.00037764632 0.0019784622 1499.5114)
(-0.0003193118 0.00038009964 1499.5123)
(-0.0011875667 0.00074865099 1499.5119)
(-0.0012480843 0.001488187 1499.5112)
(-0.00047664412 0.0019089584 1499.5104)
(0.00080170935 0.0022462569 1499.5098)
(0.0019446258 0.0024375889 1499.5097)
(0.0026641423 0.0026641423 1499.51)
(0.0027130903 0.002652946 1499.5105)
(0.0017383029 0.0024083179 1499.5111)
(0.00032239812 0.0022184263 1499.5115)
(-0.00012146918 0.00096646181 1499.5124)
(-0.00063314303 0.0014653332 1499.5121)
(-0.0007590989 0.0018485911 1499.5115)
(-0.00010772675 0.0023483085 1499.5108)
(0.00099187477 0.0025667252 1499.5104)
(0.0021047556 0.0027154894 1499.5104)
(0.0026529459 0.0027130903 1499.5105)
(0.0024596656 0.0024596658 1499.5109)
(0.0014966113 0.0020430539 1499.5115)
(0.00025105193 0.0017466623 1499.5118)
(1.326913e-05 0.00088917446 1499.5127)
(-0.00030543737 0.00097984076 1499.5124)
(-0.00036510906 0.0012987314 1499.5119)
(0.00024148991 0.0016629598 1499.5115)
(0.0011688903 0.001864596 1499.5112)
(0.002090991 0.0019311301 1499.511)
(0.0024083186 0.0017383028 1499.5111)
(0.0020430539 0.0014966111 1499.5115)
(0.0010252995 0.0010252995 1499.512)
(0.00012480376 0.00069533374 1499.5121)
(-6.1024972e-05 0.00019841768 1499.5128)
(-0.00022358606 0.00012412357 1499.5125)
(-7.597987e-05 0.00025298522 1499.5122)
(0.00045813778 0.00031687637 1499.5118)
(0.0012600451 0.00039741712 1499.5116)
(0.0019784624 0.00037764626 1499.5114)
(0.0022184269 0.00032239812 1499.5115)
(0.0017466623 0.0002510518 1499.5118)
(0.00069533391 0.00012480372 1499.5121)
(3.1074781e-05 3.1074744e-05 1499.5121)
(-0.00041079238 -0.00041079272 1499.5132)
(-0.0027878946 -0.00069282997 1499.513)
(-0.004439181 -0.00073824145 1499.5128)
(-0.0038803213 -0.0006828862 1499.5128)
(-0.0023479139 -0.00060773673 1499.5128)
(-0.00079761236 -0.00051383957 1499.5126)
(0.00033301978 -0.00044036968 1499.5124)
(0.0011203817 -0.00021376157 1499.5125)
(0.0010933172 -6.7580478e-05 1499.5127)
(0.0002456667 -0.0001539492 1499.5128)
(-0.00069282963 -0.0027878956 1499.513)
(-0.0032790677 -0.0032790687 1499.513)
(-0.0044242654 -0.0032656485 1499.5128)
(-0.0036845642 -0.0029347303 1499.5127)
(-0.0020943439 -0.0026395143 1499.5125)
(-0.00054656178 -0.0023528944 1499.5122)
(0.00078313678 -0.0017647202 1499.512)
(0.0016795655 -0.0011484383 1499.5122)
(0.0011830358 -0.00073378175 1499.5125)
(0.00015929798 -0.00058098894 1499.5125)
(-0.00073824113 -0.0044391822 1499.5128)
(-0.0032656476 -0.004424267 1499.5128)
(-0.0040948426 -0.0040948437 1499.5124)
(-0.003254187 -0.0037027019 1499.5122)
(-0.001766078 -0.0033307465 1499.5118)
(7.7181737e-05 -0.0027532528 1499.5114)
(0.0015374759 -0.0021300344 1499.5113)
(0.0021513202 -0.0015026752 1499.5115)
(0.0016607665 -0.00092450841 1499.5119)
(0.00034752857 -0.00053605382 1499.5121)
(-0.00068288616 -0.0038803224 1499.5128)
(-0.0029347292 -0.0036845655 1499.5127)
(-0.0037027002 -0.003254188 1499.5122)
(-0.002920467 -0.0029204681 1499.5116)
(-0.0011448949 -0.0023158016 1499.511)
(0.00065415034 -0.0017737121 1499.5105)
(0.0020337144 -0.0013216647 1499.5103)
(0.0028850915 -0.00072437004 1499.5107)
(0.0021496571 -0.00025735042 1499.5113)
(0.00041826771 -9.6360964e-06 1499.5115)
(-0.00060773658 -0.0023479138 1499.5128)
(-0.0026395132 -0.0020943436 1499.5125)
(-0.0033307452 -0.0017660782 1499.5118)
(-0.0023158007 -0.0011448955 1499.511)
(-0.00061932201 -0.00061932263 1499.5102)
(0.0010713187 -0.00020201278 1499.5096)
(0.002586818 0.00031258267 1499.5096)
(0.0032156345 0.00058324878 1499.5101)
(0.0023755005 0.00071928588 1499.5107)
(0.00051267146 0.00082127889 1499.511)
(-0.00051383936 -0.00079761182 1499.5126)
(-0.0023528936 -0.00054656155 1499.5122)
(-0.0027532522 7.718171e-05 1499.5114)
(-0.0017737114 0.00065415009 1499.5105)
(-0.00020201213 0.0010713185 1499.5096)
(0.0015860556 0.0015860555 1499.5092)
(0.002818976 0.0018685367 1499.5093)
(0.0032917947 0.0018984151 1499.5096)
(0.0023876873 0.0018481429 1499.5101)
(0.00048626305 0.0018238164 1499.5105)
(-0.00044036974 0.00033301996 1499.5124)
(-0.0017647197 0.00078313653 1499.512)
(-0.0021300335 0.0015374759 1499.5113)
(-0.0013216639 0.0020337145 1499.5103)
(0.00031258338 0.0025868179 1499.5096)
(0.0018685369 0.0028189762 1499.5093)
(0.0028991776 0.0028991773 1499.5092)
(0.0031952407 0.0028087248 1499.5095)
(0.0023009018 0.0026164253 1499.51)
(0.0004964538 0.0023805117 1499.5104)
(-0.00021376165 0.0011203824 1499.5125)
(-0.0011484377 0.0016795667 1499.5122)
(-0.0015026742 0.0021513207 1499.5115)
(-0.0007243695 0.0028850921 1499.5107)
(0.00058324957 0.003215635 1499.5101)
(0.0018984151 0.0032917953 1499.5096)
(0.0028087246 0.0031952404 1499.5095)
(0.0030090427 0.0030090423 1499.5098)
(0.0019594742 0.0025346031 1499.5102)
(0.00032898733 0.0019422561 1499.5103)
(-6.7580212e-05 0.0010933183 1499.5127)
(-0.00073378135 0.0011830365 1499.5125)
(-0.00092450807 0.0016607667 1499.5119)
(-0.0002573496 0.0021496571 1499.5113)
(0.00071928653 0.0023755006 1499.5107)
(0.0018481423 0.0023876868 1499.5101)
(0.0026164247 0.0023009024 1499.51)
(0.0025346034 0.0019594743 1499.5102)
(0.0012341156 0.001234115 1499.5104)
(0.00010155579 0.00062608797 1499.5103)
(-0.00015394949 0.00024566701 1499.5128)
(-0.00058098925 0.00015929773 1499.5125)
(-0.00053605359 0.0003475284 1499.5121)
(-9.6356132e-06 0.00041826739 1499.5115)
(0.00082127929 0.00051267106 1499.511)
(0.0018238169 0.00048626255 1499.5105)
(0.0023805121 0.00049645413 1499.5104)
(0.0019422553 0.00032898746 1499.5103)
(0.0006260878 0.00010155541 1499.5103)
(-7.6363998e-05 -7.6364377e-05 1499.5099)
(-0.00038311721 -0.00038311741 1499.513)
(-0.0027403024 -0.00064371001 1499.5133)
(-0.004385162 -0.00070702104 1499.5133)
(-0.0038752908 -0.00072212259 1499.5134)
(-0.0025274934 -0.00068828918 1499.5133)
(-0.001009536 -0.00062645628 1499.5129)
(0.00026965805 -0.000581162 1499.5128)
(0.00122562 -0.0003137935 1499.5129)
(0.0012374693 -0.00014550777 1499.513)
(0.00027953689 -0.00024926339 1499.5131)
(-0.00064370982 -0.0027403035 1499.5133)
(-0.0032261578 -0.0032261586 1499.5134)
(-0.0045027809 -0.0033445723 1499.5134)
(-0.003847193 -0.0031820737 1499.5133)
(-0.0023839939 -0.003088261 1499.513)
(-0.00084884519 -0.0029454685 1499.5127)
(0.0007386522 -0.0023739097 1499.5125)
(0.0018791013 -0.0016476415 1499.5127)
(0.0013342645 -0.0011420025 1499.5129)
(0.00017578126 -0.00097066689 1499.5129)
(-0.00070702058 -0.0043851631 1499.5133)
(-0.0033445712 -0.0045027819 1499.5134)
(-0.0043410771 -0.0043410781 1499.5132)
(-0.0036189794 -0.0042121905 1499.513)
(-0.0022908882 -0.0041128459 1499.5125)
(-0.00029518469 -0.0036463792 1499.512)
(0.0015674851 -0.0029611039 1499.5119)
(0.0024575272 -0.0022077746 1499.5121)
(0.0019144439 -0.0015490838 1499.5124)
(0.00039376063 -0.0010788183 1499.5125)
(-0.00072212233 -0.0038752914 1499.5134)
(-0.0031820728 -0.003847194 1499.5133)
(-0.0042121895 -0.0036189802 1499.513)
(-0.0036189608 -0.0036189618 1499.5124)
(-0.0018181826 -0.0031890166 1499.5118)
(0.00030289675 -0.0026634242 1499.5113)
(0.0021772568 -0.0020975911 1499.5112)
(0.0032911215 -0.0014337284 1499.5115)
(0.0024632209 -0.00095968664 1499.5117)
(0.00048929163 -0.00063011635 1499.5119)
(-0.00068828895 -0.0025274935 1499.5133)
(-0.0030882599 -0.0023839941 1499.513)
(-0.0041128449 -0.0022908885 1499.5125)
(-0.0031890159 -0.001818183 1499.5118)
(-0.0013353506 -0.0013353515 1499.5111)
(0.0007962409 -0.00083511523 1499.5107)
(0.0027971809 -0.00027177936 1499.5106)
(0.0035954316 -0.00010112177 1499.5108)
(0.002718056 2.0910221e-05 1499.511)
(0.00061347417 0.00023737269 1499.5113)
(-0.00062645608 -0.0010095354 1499.5129)
(-0.0029454678 -0.00084884499 1499.5127)
(-0.0036463783 -0.00029518475 1499.512)
(-0.0026634237 0.00030289675 1499.5113)
(-0.00083511483 0.00079624059 1499.5107)
(0.0013664689 0.0013664684 1499.5103)
(0.0029112502 0.001512853 1499.5101)
(0.003583811 0.0014512578 1499.5101)
(0.0028017153 0.0014376313 1499.5104)
(0.00063359994 0.0014100916 1499.5107)
(-0.000581162 0.00026965856 1499.5128)
(-0.0023739093 0.00073865274 1499.5125)
(-0.0029611032 0.0015674854 1499.5119)
(-0.0020975905 0.0021772568 1499.5112)
(-0.00027177899 0.0027971808 1499.5106)
(0.0015128533 0.0029112502 1499.5101)
(0.0028819703 0.0028819703 1499.5098)
(0.0035202099 0.0028489517 1499.5098)
(0.0026768898 0.0025271106 1499.51)
(0.00059511437 0.0020405957 1499.5101)
(-0.00031379329 0.0012256203 1499.5129)
(-0.001647641 0.0018791024 1499.5127)
(-0.0022077743 0.0024575278 1499.5121)
(-0.0014337283 0.0032911218 1499.5115)
(-0.00010112146 0.0035954318 1499.5108)
(0.0014512584 0.0035838115 1499.5101)
(0.0028489517 0.00352021 1499.5098)
(0.0032289514 0.0032289515 1499.5098)
(0.0019933594 0.0024757151 1499.5096)
(0.00030925668 0.0015882825 1499.5096)
(-0.00014550725 0.0012374705 1499.513)
(-0.0011420018 0.0013342652 1499.5129)
(-0.0015490838 0.0019144441 1499.5124)
(-0.00095968653 0.002463221 1499.5117)
(2.0910732e-05 0.0027180564 1499.511)
(0.0014376315 0.0028017155 1499.5104)
(0.0025271103 0.00267689 1499.51)
(0.002475715 0.0019933599 1499.5096)
(0.0010362208 0.0010362209 1499.5092)
(3.4926496e-06 0.00027235095 1499.5093)
(-0.00024926351 0.00027953761 1499.5131)
(-0.00097066748 0.00017578136 1499.5129)
(-0.0010788185 0.00039376048 1499.5125)
(-0.00063011595 0.00048929157 1499.5119)
(0.00023737303 0.0006134742 1499.5113)
(0.001410092 0.00063359977 1499.5107)
(0.0020405961 0.00059511456 1499.5101)
(0.0015882822 0.00030925696 1499.5096)
(0.00027235046 3.4927064e-06 1499.5093)
(-0.00019998996 -0.00019998991 1499.5095)
(-0.00026599023 -0.00026599025 1499.5132)
(-0.0025376427 -0.0005743068 1499.5135)
(-0.0043228843 -0.00063544597 1499.5136)
(-0.0039158718 -0.00071260685 1499.5137)
(-0.0027743946 -0.00075032532 1499.5136)
(-0.001243561 -0.00069457515 1499.5134)
(0.00025850781 -0.00064371528 1499.5133)
(0.0013446201 -0.00035404129 1499.5135)
(0.0013281935 -0.00017149637 1499.5136)
(0.0002952616 -0.0002957421 1499.5136)
(-0.00057430678 -0.0025376437 1499.5135)
(-0.0030918263 -0.0030918265 1499.5137)
(-0.0045303344 -0.0033411352 1499.5138)
(-0.0040881908 -0.0033248637 1499.5138)
(-0.002747347 -0.0033828588 1499.5135)
(-0.0010836459 -0.0032998756 1499.5133)
(0.0007693086 -0.0026800694 1499.5133)
(0.0020529485 -0.0018928141 1499.5135)
(0.0014156423 -0.0013906698 1499.5137)
(0.00017101587 -0.0012279806 1499.5136)
(-0.00063544547 -0.0043228858 1499.5136)
(-0.0033411342 -0.004530335 1499.5138)
(-0.0045559215 -0.0045559225 1499.5137)
(-0.0039575954 -0.0045834906 1499.5137)
(-0.0027494064 -0.004599322 1499.5134)
(-0.00054077165 -0.0041236515 1499.5132)
(0.0016655692 -0.0033803366 1499.5132)
(0.0026340197 -0.0026691329 1499.5134)
(0.001993027 -0.0020600659 1499.5134)
(0.0004037211 -0.0014955478 1499.5134)
(-0.00071260625 -0.0039158721 1499.5137)
(-0.003324863 -0.0040881911 1499.5138)
(-0.0045834901 -0.0039575957 1499.5137)
(-0.0041315903 -0.0041315914 1499.5135)
(-0.0022875079 -0.0037196419 1499.5132)
(0.00013533949 -0.003092101 1499.5131)
(0.0022238272 -0.0025759579 1499.5131)
(0.0033732192 -0.0020783055 1499.513)
(0.0025892273 -0.0015810287 1499.513)
(0.00054736122 -0.0011501298 1499.513)
(-0.00075032479 -0.0027743944 1499.5136)
(-0.0033828578 -0.0027473475 1499.5135)
(-0.0045993219 -0.0027494064 1499.5134)
(-0.0037196416 -0.0022875083 1499.5132)
(-0.001709916 -0.0017099164 1499.5131)
(0.00060291239 -0.0012318483 1499.5129)
(0.0026793647 -0.00086698299 1499.5127)
(0.0036289489 -0.00079646301 1499.5124)
(0.0029212027 -0.000633507 1499.5124)
(0.00069098703 -0.00036227476 1499.5124)
(-0.00069457495 -0.0012435605 1499.5134)
(-0.003299875 -0.0010836461 1499.5133)
(-0.0041236509 -0.00054077145 1499.5132)
(-0.0030921003 0.00013533966 1499.5131)
(-0.0012318479 0.00060291276 1499.5129)
(0.00097827291 0.00097827305 1499.5126)
(0.0026592125 0.00099927431 1499.5122)
(0.0036066951 0.0009563565 1499.5119)
(0.0030234155 0.00079616063 1499.5117)
(0.00072818271 0.00063511448 1499.5117)
(-0.00064371523 0.00025850923 1499.5133)
(-0.0026800688 0.00076930937 1499.5133)
(-0.0033803361 0.0016655701 1499.5132)
(-0.0025759574 0.0022238275 1499.5131)
(-0.00086698262 0.0026793648 1499.5127)
(0.00099927394 0.0026592124 1499.5122)
(0.0026574482 0.0026574487 1499.5117)
(0.0034258352 0.0024928722 1499.5113)
(0.0025999607 0.0018700512 1499.5109)
(0.00058362292 0.0012635803 1499.5107)
(-0.00035404152 0.0013446217 1499.5135)
(-0.0018928141 0.0020529498 1499.5135)
(-0.0026691328 0.0026340201 1499.5134)
(-0.0020783056 0.0033732194 1499.513)
(-0.00079646298 0.003628949 1499.5124)
(0.00095635684 0.0036066953 1499.5119)
(0.0024928723 0.0034258356 1499.5113)
(0.0028192976 0.002819298 1499.5105)
(0.0017941237 0.0017760821 1499.5101)
(0.00032386877 0.0010854174 1499.51)
(-0.0001714965 0.0013281942 1499.5136)
(-0.0013906704 0.0014156432 1499.5137)
(-0.0020600664 0.0019930272 1499.5134)
(-0.0015810285 0.0025892276 1499.513)
(-0.00063350672 0.0029212034 1499.5124)
(0.00079616058 0.0030234162 1499.5117)
(0.0018700508 0.0025999609 1499.5109)
(0.0017760817 0.0017941237 1499.5101)
(0.00086608014 0.00086607989 1499.5096)
(0.00012317978 0.00044943388 1499.5098)
(-0.00029574217 0.0002952616 1499.5136)
(-0.0012279811 0.00017101593 1499.5136)
(-0.0014955484 0.00040372114 1499.5134)
(-0.0011501294 0.00054736129 1499.513)
(-0.00036227436 0.00069098722 1499.5124)
(0.00063511428 0.00072818286 1499.5117)
(0.0012635797 0.00058362302 1499.5107)
(0.0010854166 0.00032386881 1499.51)
(0.00044943385 0.00012317963 1499.5098)
(4.6104769e-05 4.6104617e-05 1499.5103)
(-0.00014806949 -0.00014806975 1499.5129)
(-0.0023367882 -0.00053756461 1499.5131)
(-0.0042449833 -0.00057749897 1499.5132)
(-0.0038700721 -0.0006555522 1499.5135)
(-0.0028462259 -0.00071533941 1499.5137)
(-0.0012645438 -0.00064002088 1499.5137)
(0.00038365312 -0.00057970527 1499.5139)
(0.0014805567 -0.00027329188 1499.5141)
(0.0014149646 -9.3809604e-05 1499.5142)
(0.00031743448 -0.00027318354 1499.5142)
(-0.00053756435 -0.0023367889 1499.5131)
(-0.0029809321 -0.0029809326 1499.5132)
(-0.0044219647 -0.0031848265 1499.5135)
(-0.0040768328 -0.0031907094 1499.5138)
(-0.0028229289 -0.0032852949 1499.5139)
(-0.0010610925 -0.0031415999 1499.5141)
(0.00093374661 -0.0024793613 1499.5143)
(0.0022094002 -0.001750323 1499.5145)
(0.0014151271 -0.0013374334 1499.5145)
(0.00013806054 -0.0012633496 1499.5143)
(-0.00057749859 -0.0042449836 1499.5132)
(-0.0031848258 -0.0044219651 1499.5135)
(-0.0044547602 -0.0044547606 1499.5138)
(-0.0039705406 -0.0045017151 1499.5141)
(-0.0027971164 -0.0044428482 1499.5144)
(-0.00045861012 -0.0038876342 1499.5146)
(0.00177493 -0.0032248614 1499.5147)
(0.0026224846 -0.0027381008 1499.5147)
(0.001901938 -0.0022577918 1499.5145)
(0.00036682371 -0.0017200667 1499.5142)
(-0.00065555201 -0.0038700721 1499.5135)
(-0.0031907091 -0.0040768329 1499.5138)
(-0.0045017147 -0.0039705405 1499.5141)
(-0.0040649204 -0.0040649202 1499.5146)