/*--------------------------------*- C++ -*----------------------------------*\
| =========                 |                                                 |
| \\      /  F ield         | OpenFOAM: The Open Source CFD Toolbox           |
|  \\    /   O peration     | Version:  v2106                                 |
|   \\  /    A nd           | Website:  www.openfoam.com                      |
|    \\/     M anipulation  |                                                 |
\*---------------------------------------------------------------------------*/
FoamFile
{
    version     2.0;
    format      ascii;
    arch        "LSB;label=32;scalar=64";
    class       volVectorField;
    location    "20";
    object      flux;
}
// * * * * * * * * * * * * * * * * * * * * * * * * * * * * * * * * * * * * * //

dimensions      [0 1 -1 1 0 0 0];

internalField   nonuniform List<vector> 
4000
(
(-5.8394368e-07 -5.8394368e-07 0.46014492)
(1.5638849e-06 1.0578514e-06 0.46014186)
(2.1596865e-06 3.6953554e-07 0.46015257)
(-6.2263888e-07 2.8510316e-07 0.46015143)
(-5.7070139e-07 2.8934563e-07 0.46014977)
(-4.1710154e-07 3.0127824e-07 0.4601486)
(-3.9310409e-07 3.1277143e-07 0.46014761)
(-4.2965533e-07 3.0395641e-07 0.46014653)
(-3.7931489e-07 2.3145348e-07 0.46014532)
(-1.0255901e-07 1.1159376e-07 0.46014463)
(1.0578514e-06 1.5638849e-06 0.46014186)
(2.9941037e-06 2.9941037e-06 0.46014815)
(1.0005641e-06 1.7948743e-06 0.46015471)
(-7.4292375e-07 1.6518128e-06 0.46015302)
(-5.4643877e-07 1.6674402e-06 0.46015138)
(-3.8196284e-07 1.7082307e-06 0.46015029)
(-3.8908683e-07 1.7624709e-06 0.4601494)
(-5.5163226e-07 1.7829999e-06 0.46014823)
(-6.6785888e-07 1.624127e-06 0.46014638)
(-2.2241874e-07 1.1816388e-06 0.46014493)
(3.6953554e-07 2.1596865e-06 0.46015257)
(1.7948743e-06 1.0005641e-06 0.46015471)
(8.1739557e-07 8.1739557e-07 0.46016045)
(-7.5007294e-07 8.0285083e-07 0.46015863)
(-5.1428347e-07 8.2401056e-07 0.46015703)
(-3.2207083e-07 8.7048565e-07 0.46015607)
(-3.1833484e-07 9.4809721e-07 0.46015537)
(-5.6799925e-07 1.0483691e-06 0.46015437)
(-9.8067599e-07 1.0949394e-06 0.46015221)
(-3.9755111e-07 9.3859716e-07 0.46014942)
(2.8510316e-07 -6.2263888e-07 0.46015143)
(1.6518128e-06 -7.4292374e-07 0.46015302)
(8.0285083e-07 -7.5007294e-07 0.46015863)
(-7.3630876e-07 -7.3630877e-07 0.46015681)
(-4.7880395e-07 -7.0835554e-07 0.46015527)
(-2.5787618e-07 -6.6325873e-07 0.46015443)
(-2.1120342e-07 -5.93887e-07 0.46015394)
(-4.047901e-07 -4.8872509e-07 0.46015329)
(-7.7763076e-07 -3.4322695e-07 0.46015161)
(-3.2664687e-07 -1.8795567e-07 0.4601493)
(2.8934563e-07 -5.7070139e-07 0.46014977)
(1.6674402e-06 -5.4643876e-07 0.46015138)
(8.2401055e-07 -5.1428347e-07 0.46015703)
(-7.0835554e-07 -4.7880396e-07 0.46015527)
(-4.4123342e-07 -4.4123343e-07 0.46015381)
(-2.0760228e-07 -3.99442e-07 0.46015309)
(-1.438012e-07 -3.5091162e-07 0.46015275)
(-3.173392e-07 -2.928065e-07 0.46015231)
(-6.7990657e-07 -2.2566128e-07 0.46015088)
(-2.9403693e-07 -1.6306769e-07 0.46014882)
(3.0127824e-07 -4.1710154e-07 0.4601486)
(1.7082307e-06 -3.8196284e-07 0.46015029)
(8.7048564e-07 -3.2207082e-07 0.46015607)
(-6.6325872e-07 -2.5787618e-07 0.46015443)
(-3.9944199e-07 -2.0760228e-07 0.46015309)
(-1.6755437e-07 -1.6755437e-07 0.46015247)
(-1.0456792e-07 -1.3464204e-07 0.46015224)
(-2.7953976e-07 -1.080832e-07 0.4601519)
(-6.4789195e-07 -8.8155675e-08 0.46015056)
(-2.8491781e-07 -7.6700017e-08 0.46014858)
(3.1277143e-07 -3.9310409e-07 0.46014761)
(1.7624709e-06 -3.8908683e-07 0.4601494)
(9.4809721e-07 -3.1833483e-07 0.46015537)
(-5.93887e-07 -2.1120342e-07 0.46015394)
(-3.5091161e-07 -1.438012e-07 0.46015275)
(-1.3464205e-07 -1.0456792e-07 0.46015224)
(-8.4330032e-08 -8.4330033e-08 0.46015208)
(-2.7085283e-07 -8.0680022e-08 0.46015177)
(-6.4852338e-07 -9.1229109e-08 0.46015045)
(-2.8639982e-07 -1.0885558e-07 0.46014845)
(3.0395641e-07 -4.2965534e-07 0.46014653)
(1.783e-06 -5.5163226e-07 0.46014823)
(1.0483691e-06 -5.6799926e-07 0.46015437)
(-4.8872509e-07 -4.0479009e-07 0.46015329)
(-2.928065e-07 -3.1733921e-07 0.46015231)
(-1.080832e-07 -2.7953976e-07 0.4601519)
(-8.0680025e-08 -2.7085283e-07 0.46015177)
(-2.8643884e-07 -2.8643883e-07 0.46015144)
(-6.7606751e-07 -3.2207055e-07 0.46015005)
(-2.966688e-07 -3.6423518e-07 0.46014796)
(2.3145348e-07 -3.7931488e-07 0.46014532)
(1.624127e-06 -6.6785888e-07 0.46014638)
(1.0949394e-06 -9.8067599e-07 0.46015221)
(-3.4322695e-07 -7.7763076e-07 0.46015161)
(-2.2566128e-07 -6.7990657e-07 0.46015088)
(-8.815567e-08 -6.4789195e-07 0.46015056)
(-9.1229105e-08 -6.4852338e-07 0.46015045)
(-3.2207055e-07 -6.7606752e-07 0.46015005)
(-7.2631973e-07 -7.2631973e-07 0.46014852)
(-3.1450958e-07 -7.7769722e-07 0.46014628)
(1.1159375e-07 -1.0255901e-07 0.46014463)
(1.1816388e-06 -2.2241874e-07 0.46014493)
(9.3859717e-07 -3.9755111e-07 0.46014942)
(-1.8795567e-07 -3.2664687e-07 0.4601493)
(-1.6306769e-07 -2.9403692e-07 0.46014882)
(-7.670002e-08 -2.8491781e-07 0.46014858)
(-1.0885559e-07 -2.8639982e-07 0.46014845)
(-3.6423518e-07 -2.966688e-07 0.46014796)
(-7.7769722e-07 -3.1450958e-07 0.46014628)
(-3.3092046e-07 -3.3092046e-07 0.46014396)
(-1.3081422e-06 -1.3081422e-06 0.68628396)
(6.7885749e-06 3.1164919e-06 0.68628308)
(7.8883412e-06 1.0390339e-06 0.6862928)
(-2.3269765e-06 7.3031363e-07 0.68629162)
(-2.542472e-06 7.3837592e-07 0.68628957)
(-1.9959134e-06 7.9296573e-07 0.686288)
(-1.9345378e-06 8.496854e-07 0.68628662)
(-2.15118e-06 7.9121402e-07 0.68628494)
(-1.7048561e-06 3.6973586e-07 0.68628286)
(-3.8016259e-07 -3.6459152e-08 0.68628259)
(3.1164919e-06 6.7885749e-06 0.68628308)
(1.0309339e-05 1.0309339e-05 0.68628855)
(4.3090734e-06 6.4490296e-06 0.68629514)
(-2.7779635e-06 5.8536699e-06 0.68629345)
(-2.4484939e-06 5.8953896e-06 0.68629142)
(-1.8289492e-06 6.0889623e-06 0.68628999)
(-1.9371653e-06 6.3580473e-06 0.68628878)
(-2.8711043e-06 6.4274027e-06 0.68628696)
(-2.9463658e-06 5.4751065e-06 0.68628343)
(-7.863576e-07 3.645627e-06 0.68628178)
(1.0390339e-06 7.8883412e-06 0.6862928)
(6.4490296e-06 4.3090734e-06 0.68629514)
(3.4326713e-06 3.4326713e-06 0.68630081)
(-2.8806165e-06 3.2863057e-06 0.68629892)
(-2.3071796e-06 3.369953e-06 0.68629693)
(-1.5332557e-06 3.5982937e-06 0.68629569)
(-1.5960974e-06 3.983357e-06 0.68629481)
(-3.0341209e-06 4.4610969e-06 0.68629331)
(-4.4866318e-06 4.559385e-06 0.68628936)
(-1.5998156e-06 3.7395524e-06 0.68628606)
(7.3031363e-07 -2.3269765e-06 0.68629162)
(5.8536699e-06 -2.7779635e-06 0.68629345)
(3.2863057e-06 -2.8806165e-06 0.68629892)
(-2.8406819e-06 -2.8406819e-06 0.686297)
(-2.1365059e-06 -2.7078788e-06 0.68629511)
(-1.2155452e-06 -2.4847047e-06 0.68629405)
(-1.0743621e-06 -2.1409027e-06 0.68629349)
(-2.2950763e-06 -1.628623e-06 0.6862925)
(-3.6679103e-06 -9.7485302e-07 0.68628914)
(-1.3329126e-06 -3.4050451e-07 0.68628636)
(7.3837592e-07 -2.542472e-06 0.68628957)
(5.8953896e-06 -2.4484939e-06 0.68629142)
(3.369953e-06 -2.3071796e-06 0.68629693)
(-2.7078789e-06 -2.1365059e-06 0.68629511)
(-1.9512024e-06 -1.9512024e-06 0.68629334)
(-9.6627956e-07 -1.7446395e-06 0.68629245)
(-7.4001565e-07 -1.5044497e-06 0.68629211)
(-1.8680711e-06 -1.2162828e-06 0.68629143)
(-3.1985134e-06 -8.894725e-07 0.68628842)
(-1.1769166e-06 -5.835758e-07 0.68628598)
(7.9296574e-07 -1.9959134e-06 0.686288)
(6.0889623e-06 -1.8289492e-06 0.68628999)
(3.5982937e-06 -1.5332557e-06 0.68629569)
(-2.4847047e-06 -1.2155452e-06 0.68629405)
(-1.7446395e-06 -9.6627956e-07 0.68629245)
(-7.687925e-07 -7.687925e-07 0.68629172)
(-5.4600546e-07 -6.0775947e-07 0.68629153)
(-1.6800991e-06 -4.7832434e-07 0.686291)
(-3.0352033e-06 -3.8225117e-07 0.68628813)
(-1.1289815e-06 -3.2529566e-07 0.6862858)
(8.496854e-07 -1.9345378e-06 0.68628662)
(6.3580473e-06 -1.9371653e-06 0.68628878)
(3.983357e-06 -1.5960974e-06 0.68629481)
(-2.1409028e-06 -1.0743621e-06 0.68629349)
(-1.5044497e-06 -7.4001566e-07 0.68629211)
(-6.0775948e-07 -5.4600546e-07 0.68629153)
(-4.4954749e-07 -4.4954749e-07 0.68629145)
(-1.6425628e-06 -4.3875057e-07 0.68629095)
(-3.0454847e-06 -5.0292125e-07 0.68628808)
(-1.1389462e-06 -6.0935073e-07 0.6862857)
(7.9121403e-07 -2.15118e-06 0.68628494)
(6.4274027e-06 -2.8711043e-06 0.68628696)
(4.4610969e-06 -3.0341209e-06 0.68629331)
(-1.628623e-06 -2.2950763e-06 0.6862925)
(-1.2162828e-06 -1.8680711e-06 0.68629143)
(-4.7832434e-07 -1.6800991e-06 0.686291)
(-4.3875057e-07 -1.6425628e-06 0.68629095)
(-1.7334729e-06 -1.7334729e-06 0.6862904)
(-3.2058034e-06 -1.9320178e-06 0.68628737)
(-1.1999345e-06 -2.1709154e-06 0.68628477)
(3.6973587e-07 -1.7048561e-06 0.68628286)
(5.4751065e-06 -2.9463658e-06 0.68628343)
(4.559385e-06 -4.4866318e-06 0.68628936)
(-9.7485302e-07 -3.6679103e-06 0.68628914)
(-8.894725e-07 -3.1985134e-06 0.68628842)
(-3.8225117e-07 -3.0352033e-06 0.68628813)
(-5.0292126e-07 -3.0454847e-06 0.68628808)
(-1.9320178e-06 -3.2058034e-06 0.68628737)
(-3.4829273e-06 -3.4829273e-06 0.68628406)
(-1.2982113e-06 -3.6723369e-06 0.68628118)
(-3.6459151e-08 -3.8016257e-07 0.68628259)
(3.6456271e-06 -7.8635759e-07 0.68628178)
(3.7395524e-06 -1.5998155e-06 0.68628606)
(-3.4050453e-07 -1.3329126e-06 0.68628636)
(-5.8357582e-07 -1.1769166e-06 0.68628598)
(-3.2529568e-07 -1.1289815e-06 0.6862858)
(-6.0935073e-07 -1.1389462e-06 0.6862857)
(-2.1709154e-06 -1.1999345e-06 0.68628477)
(-3.6723369e-06 -1.2982113e-06 0.68628118)
(-1.3262076e-06 -1.3262076e-06 0.68627906)
(-1.1616312e-06 -1.1616312e-06 0.69092493)
(1.0401889e-05 4.7016476e-06 0.69092495)
(1.0688587e-05 1.9301917e-06 0.69093106)
(-3.8485091e-06 1.5014769e-06 0.69092984)
(-4.1968447e-06 1.5205318e-06 0.69092809)
(-3.3725416e-06 1.6279435e-06 0.69092676)
(-3.4455975e-06 1.7562985e-06 0.69092558)
(-4.1923084e-06 1.6493523e-06 0.69092386)
(-2.7276061e-06 6.1353605e-07 0.69092101)
(-2.7495994e-07 -4.3340471e-07 0.69092083)
(4.7016476e-06 1.0401889e-05 0.69092495)
(1.5039624e-05 1.5039624e-05 0.69092894)
(5.8883303e-06 9.7943046e-06 0.69093314)
(-4.4629989e-06 8.9388499e-06 0.69093161)
(-4.0071449e-06 9.0225298e-06 0.6909299)
(-3.0188915e-06 9.3923256e-06 0.69092875)
(-3.4134844e-06 9.9462515e-06 0.69092784)
(-5.9064521e-06 1.0149374e-05 0.69092608)
(-5.8517415e-06 8.1204926e-06 0.69092152)
(-1.3219007e-06 4.6393239e-06 0.6909197)
(1.9301917e-06 1.0688587e-05 0.69093106)
(9.7943046e-06 5.8883303e-06 0.69093314)
(4.5878123e-06 4.5878123e-06 0.69093674)
(-4.6202838e-06 4.3528904e-06 0.69093509)
(-3.743369e-06 4.5064317e-06 0.69093344)
(-2.4488199e-06 4.9257899e-06 0.69093249)
(-2.6885489e-06 5.6488279e-06 0.69093194)
(-6.0180673e-06 6.5822879e-06 0.69093061)
(-8.2376565e-06 6.8040457e-06 0.69092573)
(-2.5957391e-06 5.5136711e-06 0.69092256)
(1.5014769e-06 -3.8485091e-06 0.69092984)
(8.9388499e-06 -4.4629989e-06 0.69093161)
(4.3528904e-06 -4.6202838e-06 0.69093509)
(-4.5443795e-06 -4.5443795e-06 0.69093343)
(-3.4342454e-06 -4.303015e-06 0.69093188)
(-1.8764954e-06 -3.9007011e-06 0.69093112)
(-1.7569864e-06 -3.2841888e-06 0.6909309)
(-4.7512343e-06 -2.3754094e-06 0.69093006)
(-6.9203582e-06 -1.2747538e-06 0.6909257)
(-2.1821503e-06 -2.629812e-07 0.69092292)
(1.5205318e-06 -4.1968447e-06 0.69092809)
(9.0225299e-06 -4.0071449e-06 0.6909299)
(4.5064317e-06 -3.743369e-06 0.69093344)
(-4.303015e-06 -3.4342454e-06 0.69093188)
(-3.0996906e-06 -3.0996906e-06 0.69093047)
(-1.4299937e-06 -2.7289985e-06 0.69092988)
(-1.1632571e-06 -2.3014436e-06 0.69092987)
(-4.0086323e-06 -1.7936175e-06 0.69092933)
(-6.1252283e-06 -1.2337893e-06 0.69092529)
(-1.9212241e-06 -7.2111792e-07 0.6909228)
(1.6279435e-06 -3.3725416e-06 0.69092676)
(9.3923257e-06 -3.0188915e-06 0.69092875)
(4.9257899e-06 -2.4488199e-06 0.69093249)
(-3.9007011e-06 -1.8764954e-06 0.69093112)
(-2.7289985e-06 -1.4299937e-06 0.69092988)
(-1.0782483e-06 -1.0782483e-06 0.69092945)
(-8.2160548e-07 -7.9687808e-07 0.69092959)
(-3.68358e-06 -5.7949943e-07 0.69092918)
(-5.8478586e-06 -4.3258077e-07 0.69092526)
(-1.8403694e-06 -3.6116135e-07 0.69092286)
(1.7562985e-06 -3.4455975e-06 0.69092558)
(9.9462515e-06 -3.4134844e-06 0.69092784)
(5.6488279e-06 -2.6885489e-06 0.69093194)
(-3.2841888e-06 -1.7569864e-06 0.6909309)
(-2.3014436e-06 -1.1632571e-06 0.69092987)
(-7.9687808e-07 -8.2160548e-07 0.69092959)
(-6.6450821e-07 -6.6450821e-07 0.69092981)
(-3.644335e-06 -6.7909195e-07 0.69092942)
(-5.9068903e-06 -8.5453422e-07 0.69092545)
(-1.8736111e-06 -1.1351016e-06 0.69092295)
(1.6493523e-06 -4.1923084e-06 0.69092386)
(1.0149374e-05 -5.9064521e-06 0.69092608)
(6.582288e-06 -6.0180673e-06 0.69093061)
(-2.3754094e-06 -4.7512343e-06 0.69093006)
(-1.7936176e-06 -4.0086323e-06 0.69092933)
(-5.7949943e-07 -3.68358e-06 0.69092918)
(-6.7909195e-07 -3.644335e-06 0.69092942)
(-3.873606e-06 -3.873606e-06 0.69092892)
(-6.3038682e-06 -4.3428993e-06 0.69092469)
(-2.0274143e-06 -4.8888941e-06 0.69092183)
(6.1353606e-07 -2.727606e-06 0.69092101)
(8.1204926e-06 -5.8517415e-06 0.69092152)
(6.8040457e-06 -8.2376565e-06 0.69092573)
(-1.2747538e-06 -6.9203582e-06 0.6909257)
(-1.2337893e-06 -6.1252283e-06 0.69092529)
(-4.3258077e-07 -5.8478586e-06 0.69092526)
(-8.5453422e-07 -5.9068903e-06 0.69092545)
(-4.3428993e-06 -6.3038682e-06 0.69092469)
(-6.9221783e-06 -6.9221783e-06 0.69092)
(-2.2376076e-06 -6.4856709e-06 0.69091665)
(-4.3340472e-07 -2.7495993e-07 0.69092083)
(4.6393239e-06 -1.3219007e-06 0.6909197)
(5.5136711e-06 -2.5957391e-06 0.69092256)
(-2.6298122e-07 -2.1821503e-06 0.69092292)
(-7.2111792e-07 -1.9212241e-06 0.6909228)
(-3.6116134e-07 -1.8403694e-06 0.69092286)
(-1.1351016e-06 -1.8736111e-06 0.69092295)
(-4.8888941e-06 -2.0274143e-06 0.69092183)
(-6.4856709e-06 -2.2376076e-06 0.69091665)
(-1.7364094e-06 -1.7364094e-06 0.69091586)
(-1.2961901e-06 -1.2961901e-06 0.69814367)
(1.2915724e-05 5.7745536e-06 0.69814317)
(1.2777556e-05 2.4227206e-06 0.69814837)
(-5.2992681e-06 1.9082747e-06 0.69814711)
(-5.6195467e-06 1.9472925e-06 0.69814554)
(-4.496589e-06 2.1177825e-06 0.69814447)
(-4.8354958e-06 2.3494298e-06 0.69814359)
(-6.7243268e-06 2.2713641e-06 0.69814206)
(-4.7409705e-06 7.0740723e-07 0.69813879)
(-5.0552303e-07 -7.9008431e-07 0.69813799)
(5.7745536e-06 1.2915724e-05 0.69814317)
(1.8494091e-05 1.8494091e-05 0.69814616)
(6.9781364e-06 1.212728e-05 0.69814967)
(-6.0124102e-06 1.109781e-05 0.69814817)
(-5.305285e-06 1.1248708e-05 0.69814666)
(-3.8933831e-06 1.1816335e-05 0.69814579)
(-4.6051232e-06 1.2711683e-05 0.69814523)
(-9.1873609e-06 1.3177873e-05 0.6981438)
(-9.3331431e-06 1.018561e-05 0.69813898)
(-2.0030145e-06 5.3742162e-06 0.69813695)
(2.4227206e-06 1.2777556e-05 0.69814837)
(1.212728e-05 6.9781364e-06 0.69814967)
(5.3812747e-06 5.3812747e-06 0.6981527)
(-6.1778399e-06 5.1094375e-06 0.69815113)
(-4.9010218e-06 5.3520457e-06 0.69814971)
(-3.0336139e-06 5.9715973e-06 0.69814904)
(-3.4739578e-06 7.0421586e-06 0.69814886)
(-9.2504007e-06 8.4387321e-06 0.69814787)
(-1.2544628e-05 8.7345916e-06 0.6981427)
(-3.7131187e-06 6.9596346e-06 0.69813938)
(1.9082747e-06 -5.2992681e-06 0.69814711)
(1.109781e-05 -6.0124102e-06 0.69814817)
(5.1094375e-06 -6.1778399e-06 0.69815113)
(-6.0416391e-06 -6.0416391e-06 0.69814959)
(-4.4431252e-06 -5.6806663e-06 0.69814827)
(-2.2032704e-06 -5.0953734e-06 0.6981478)
(-2.1379886e-06 -4.2072354e-06 0.69814794)
(-7.4949279e-06 -2.9133127e-06 0.69814744)
(-1.081224e-05 -1.414778e-06 0.69814273)
(-3.186319e-06 -9.960477e-08 0.69813974)
(1.9472925e-06 -5.6195467e-06 0.69814554)
(1.1248708e-05 -5.305285e-06 0.69814666)
(5.3520457e-06 -4.9010218e-06 0.69814971)
(-5.6806663e-06 -4.4431252e-06 0.69814827)
(-3.9547561e-06 -3.9547561e-06 0.6981471)
(-1.5601831e-06 -3.4203156e-06 0.6981468)
(-1.2918971e-06 -2.8106289e-06 0.69814716)
(-6.4579431e-06 -2.0953921e-06 0.69814694)
(-9.7309196e-06 -1.3291238e-06 0.69814253)
(-2.8363366e-06 -6.4502349e-07 0.69813978)
(2.1177825e-06 -4.496589e-06 0.69814447)
(1.1816335e-05 -3.8933832e-06 0.69814579)
(5.9715973e-06 -3.0336139e-06 0.69814904)
(-5.0953734e-06 -2.2032704e-06 0.6981478)
(-3.4203156e-06 -1.5601831e-06 0.6981468)
(-1.0591432e-06 -1.0591432e-06 0.69814666)
(-8.1306513e-07 -6.6848667e-07 0.69814716)
(-6.0134227e-06 -3.8326783e-07 0.69814706)
(-9.3618717e-06 -2.1778915e-07 0.69814275)
(-2.7302522e-06 -1.688044e-07 0.69814007)
(2.3494298e-06 -4.8354958e-06 0.69814359)
(1.2711683e-05 -4.6051232e-06 0.69814523)
(7.0421586e-06 -3.4739578e-06 0.69814886)
(-4.2072354e-06 -2.1379886e-06 0.69814794)
(-2.8106289e-06 -1.2918971e-06 0.69814716)
(-6.6848667e-07 -8.1306513e-07 0.69814716)
(-6.1602171e-07 -6.160217e-07 0.69814772)
(-6.0072456e-06 -6.9829829e-07 0.69814762)
(-9.5164562e-06 -1.0634931e-06 0.69814322)
(-2.8036801e-06 -1.6298016e-06 0.69814041)
(2.2713641e-06 -6.7243268e-06 0.69814206)
(1.3177873e-05 -9.1873609e-06 0.6981438)
(8.4387321e-06 -9.2504007e-06 0.69814787)
(-2.9133127e-06 -7.4949279e-06 0.69814744)
(-2.0953921e-06 -6.4579431e-06 0.69814694)
(-3.8326782e-07 -6.0134227e-06 0.69814706)
(-6.982983e-07 -6.0072456e-06 0.69814762)
(-6.4608941e-06 -6.4608941e-06 0.69814736)
(-1.0293375e-05 -7.3833637e-06 0.69814261)
(-3.1077911e-06 -8.4780368e-06 0.69813929)
(7.0740724e-07 -4.7409705e-06 0.69813879)
(1.018561e-05 -9.3331431e-06 0.69813898)
(8.7345916e-06 -1.2544628e-05 0.6981427)
(-1.414778e-06 -1.081224e-05 0.69814273)
(-1.3291238e-06 -9.7309196e-06 0.69814253)
(-2.1778914e-07 -9.3618717e-06 0.69814275)
(-1.0634931e-06 -9.5164562e-06 0.69814322)
(-7.3833637e-06 -1.0293375e-05 0.69814261)
(-1.1533599e-05 -1.1533599e-05 0.69813718)
(-3.5334622e-06 -9.6469777e-06 0.69813305)
(-7.900843e-07 -5.0552303e-07 0.69813799)
(5.3742162e-06 -2.0030145e-06 0.69813695)
(6.9596346e-06 -3.7131187e-06 0.69813938)
(-9.960478e-08 -3.186319e-06 0.69813974)
(-6.4502348e-07 -2.8363366e-06 0.69813978)
(-1.688044e-07 -2.7302521e-06 0.69814007)
(-1.6298016e-06 -2.8036801e-06 0.69814041)
(-8.4780368e-06 -3.1077911e-06 0.69813929)
(-9.6469777e-06 -3.5334622e-06 0.69813305)
(-1.8500439e-06 -1.8500439e-06 0.69813276)
(-1.4960436e-06 -1.4960436e-06 0.70787379)
(1.5103385e-05 6.6969474e-06 0.70787318)
(1.4632528e-05 2.7923427e-06 0.70787798)
(-6.6769731e-06 2.2036367e-06 0.70787672)
(-6.8373261e-06 2.2668312e-06 0.70787529)
(-5.3221779e-06 2.5032241e-06 0.70787446)
(-5.8591003e-06 2.8450421e-06 0.7078739)
(-8.994691e-06 2.8131764e-06 0.70787275)
(-6.7927387e-06 7.4129761e-07 0.70786971)
(-8.0683314e-07 -1.1286096e-06 0.70786883)
(6.6969474e-06 1.5103385e-05 0.70787318)
(2.1535966e-05 2.1535966e-05 0.70787583)
(7.8925603e-06 1.4120961e-05 0.70787901)
(-7.4652403e-06 1.2952417e-05 0.70787753)
(-6.387945e-06 1.3185159e-05 0.70787618)
(-4.4548616e-06 1.3958777e-05 0.70787554)
(-5.3941718e-06 1.5208589e-05 0.70787532)
(-1.2150308e-05 1.5964435e-05 0.70787431)
(-1.2705418e-05 1.2025273e-05 0.70786977)
(-2.6767403e-06 6.0272541e-06 0.70786782)
(2.7923427e-06 1.4632528e-05 0.70787798)
(1.4120961e-05 7.8925603e-06 0.70787901)
(6.0489774e-06 6.0489774e-06 0.70788177)
(-7.6127753e-06 5.7698278e-06 0.70788024)
(-5.8309658e-06 6.116103e-06 0.70787899)
(-3.2987475e-06 6.9423619e-06 0.70787857)
(-3.8534421e-06 8.3630715e-06 0.70787872)
(-1.2178008e-05 1.0218312e-05 0.70787816)
(-1.672992e-05 1.0554947e-05 0.70787325)
(-4.8055124e-06 8.3007066e-06 0.70787008)
(2.2036367e-06 -6.6769731e-06 0.70787672)
(1.2952417e-05 -7.4652403e-06 0.70787753)
(5.7698278e-06 -7.6127753e-06 0.70788024)
(-7.3981147e-06 -7.3981147e-06 0.70787877)
(-5.215411e-06 -6.9079118e-06 0.70787763)
(-2.2078932e-06 -6.1363941e-06 0.70787741)
(-2.1182214e-06 -4.978459e-06 0.70787789)
(-9.9584324e-06 -3.3093975e-06 0.7078778)
(-1.4623023e-05 -1.4436256e-06 0.70787333)
(-4.179567e-06 1.3990831e-07 0.70787045)
(2.2668312e-06 -6.8373261e-06 0.70787529)
(1.3185159e-05 -6.387945e-06 0.70787618)
(6.116103e-06 -5.8309658e-06 0.70787899)
(-6.9079118e-06 -5.215411e-06 0.70787763)
(-4.5692452e-06 -4.5692452e-06 0.70787664)
(-1.3692947e-06 -3.8718655e-06 0.7078766)
(-1.0264455e-06 -3.0854274e-06 0.70787729)
(-8.643174e-06 -2.1737484e-06 0.70787747)
(-1.3280614e-05 -1.2206624e-06 0.70787328)
(-3.7498233e-06 -3.8705259e-07 0.70787062)
(2.5032241e-06 -5.3221779e-06 0.70787446)
(1.3958777e-05 -4.4548616e-06 0.70787554)
(6.9423619e-06 -3.2987475e-06 0.70787857)
(-6.1363941e-06 -2.2078932e-06 0.70787741)
(-3.8718655e-06 -1.3692947e-06 0.7078766)
(-7.2407548e-07 -7.2407548e-07 0.7078767)
(-4.2010422e-07 -2.3408123e-07 0.70787753)
(-8.0936673e-06 1.0300832e-07 0.70787782)
(-1.2836327e-05 2.6441803e-07 0.70787371)
(-3.6238272e-06 2.6780346e-07 0.70787111)
(2.8450421e-06 -5.8591003e-06 0.7078739)
(1.5208589e-05 -5.3941718e-06 0.70787532)
(8.3630715e-06 -3.8534421e-06 0.70787872)
(-4.978459e-06 -2.1182214e-06 0.70787789)
(-3.0854274e-06 -1.0264455e-06 0.70787729)
(-2.3408123e-07 -4.2010423e-07 0.70787753)
(-1.9936174e-07 -1.9936174e-07 0.70787841)
(-8.1446747e-06 -3.7834363e-07 0.70787868)
(-1.3115819e-05 -9.8398268e-07 0.70787447)
(-3.7475663e-06 -1.9097011e-06 0.70787171)
(2.8131764e-06 -8.994691e-06 0.70787275)
(1.5964435e-05 -1.2150308e-05 0.70787431)
(1.0218312e-05 -1.2178008e-05 0.70787816)
(-3.3093975e-06 -9.9584324e-06 0.7078778)
(-2.1737484e-06 -8.643174e-06 0.70787747)
(1.0300832e-07 -8.0936673e-06 0.70787782)
(-3.7834363e-07 -8.1446747e-06 0.70787868)
(-8.8782883e-06 -8.8782882e-06 0.70787876)
(-1.4367685e-05 -1.0381953e-05 0.70787415)
(-4.2409728e-06 -1.2246618e-05 0.7078708)
(7.4129761e-07 -6.7927387e-06 0.70786971)
(1.2025273e-05 -1.2705418e-05 0.70786977)
(1.0554947e-05 -1.672992e-05 0.70787325)
(-1.4436256e-06 -1.4623023e-05 0.70787333)
(-1.2206624e-06 -1.3280614e-05 0.70787328)
(2.6441802e-07 -1.2836327e-05 0.70787371)
(-9.8398267e-07 -1.3115819e-05 0.70787447)
(-1.0381953e-05 -1.4367685e-05 0.70787415)
(-1.6484149e-05 -1.6484149e-05 0.70786872)
(-4.9906758e-06 -1.3022745e-05 0.70786432)
(-1.1286096e-06 -8.0683313e-07 0.70786883)
(6.0272541e-06 -2.6767403e-06 0.70786782)
(8.3007066e-06 -4.8055124e-06 0.70787008)
(1.399083e-07 -4.179567e-06 0.70787045)
(-3.8705259e-07 -3.7498233e-06 0.70787062)
(2.6780346e-07 -3.6238272e-06 0.70787111)
(-1.9097011e-06 -3.7475663e-06 0.70787171)
(-1.2246618e-05 -4.2409728e-06 0.7078708)
(-1.3022745e-05 -4.9906758e-06 0.70786432)
(-1.9333705e-06 -1.9333705e-06 0.70786407)
(-1.707043e-06 -1.707043e-06 0.72003611)
(1.7104041e-05 7.5400159e-06 0.72003545)
(1.6317107e-05 3.1047739e-06 0.72003991)
(-7.9893487e-06 2.4483656e-06 0.72003864)
(-7.8803627e-06 2.5379136e-06 0.72003734)
(-5.8865772e-06 2.841054e-06 0.72003671)
(-6.5445821e-06 3.2947098e-06 0.72003643)
(-1.0917803e-05 3.3155666e-06 0.72003563)
(-8.6514372e-06 7.5089119e-07 0.72003292)
(-1.0867707e-06 -1.4638758e-06 0.72003215)
(7.5400159e-06 1.7104041e-05 0.72003545)
(2.4321769e-05 2.4321769e-05 0.72003786)
(8.67963e-06 1.5908806e-05 0.72004076)
(-8.8396392e-06 1.4620592e-05 0.7200393)
(-7.2913301e-06 1.494343e-05 0.72003808)
(-4.7513829e-06 1.5926484e-05 0.72003765)
(-5.8328131e-06 1.7534088e-05 0.72003771)
(-1.4733532e-05 1.8590153e-05 0.72003707)
(-1.5820601e-05 1.3730194e-05 0.72003292)
(-3.3015376e-06 6.6148829e-06 0.72003114)
(3.1047739e-06 1.6317107e-05 0.72003991)
(1.5908806e-05 8.67963e-06 0.72004076)
(6.6159292e-06 6.6159292e-06 0.72004327)
(-8.9547244e-06 6.3461761e-06 0.72004178)
(-6.5744698e-06 6.8051923e-06 0.72004066)
(-3.295919e-06 7.8418044e-06 0.72004045)
(-3.8809132e-06 9.6126879e-06 0.7200409)
(-1.4721697e-05 1.192339e-05 0.7200407)
(-2.0626708e-05 1.2294467e-05 0.7200362)
(-5.8303117e-06 9.5807793e-06 0.72003325)
(2.4483656e-06 -7.9893487e-06 0.72003864)
(1.4620592e-05 -8.8396392e-06 0.7200393)
(6.3461761e-06 -8.9547244e-06 0.72004178)
(-8.650376e-06 -8.650376e-06 0.72004035)
(-5.795702e-06 -8.0247039e-06 0.72003936)
(-1.9438876e-06 -7.0653903e-06 0.72003935)
(-1.7512278e-06 -5.6403026e-06 0.72004011)
(-1.2051753e-05 -3.6041786e-06 0.72004038)
(-1.8163211e-05 -1.3880932e-06 0.7200363)
(-5.1106623e-06 4.4812106e-07 0.72003364)
(2.5379136e-06 -7.8803627e-06 0.72003734)
(1.494343e-05 -7.2913301e-06 0.72003808)
(6.8051923e-06 -6.5744698e-06 0.72004066)
(-8.0247039e-06 -5.7957019e-06 0.72003936)
(-4.9894841e-06 -4.9894841e-06 0.72003851)
(-9.1151767e-07 -4.1305754e-06 0.72003868)
(-4.1970149e-07 -3.17238e-06 0.72003965)
(-1.0469488e-05 -2.0730306e-06 0.72004019)
(-1.6574408e-05 -9.4604812e-07 0.72003637)
(-4.606169e-06 2.4997838e-08 0.72003393)
(2.841054e-06 -5.8865772e-06 0.72003671)
(1.5926484e-05 -4.7513829e-06 0.72003765)
(7.8418044e-06 -3.295919e-06 0.72004045)
(-7.0653903e-06 -1.9438876e-06 0.72003935)
(-4.1305754e-06 -9.1151768e-07 0.72003868)
(-1.2678355e-07 -1.2678354e-07 0.72003899)
(3.0631705e-07 4.546212e-07 0.72004009)
(-9.8254205e-06 8.323426e-07 0.72004073)
(-1.6065183e-05 9.7609765e-07 0.72003699)
(-4.4632984e-06 9.2287675e-07 0.7200346)
(3.2947098e-06 -6.5445821e-06 0.72003643)
(1.7534088e-05 -5.8328132e-06 0.72003771)
(9.6126879e-06 -3.8809132e-06 0.7200409)
(-5.6403026e-06 -1.7512278e-06 0.72004011)
(-3.17238e-06 -4.1970149e-07 0.72003965)
(4.5462121e-07 3.0631704e-07 0.72004009)
(5.3942467e-07 5.3942467e-07 0.72004125)
(-9.9480114e-06 2.4674985e-07 0.72004185)
(-1.6483874e-05 -6.2438708e-07 0.720038)
(-4.6416496e-06 -1.9404955e-06 0.72003543)
(3.3155666e-06 -1.0917803e-05 0.72003563)
(1.8590153e-05 -1.4733532e-05 0.72003707)
(1.192339e-05 -1.4721697e-05 0.7200407)
(-3.6041786e-06 -1.2051753e-05 0.72004038)
(-2.0730306e-06 -1.0469488e-05 0.72004019)
(8.323426e-07 -9.8254205e-06 0.72004073)
(2.4674986e-07 -9.9480114e-06 0.72004185)
(-1.0989232e-05 -1.0989232e-05 0.72004225)
(-1.8252428e-05 -1.3132906e-05 0.72003797)
(-5.3407039e-06 -1.5868121e-05 0.72003479)
(7.5089119e-07 -8.6514372e-06 0.72003292)
(1.3730194e-05 -1.5820601e-05 0.72003292)
(1.2294467e-05 -2.0626708e-05 0.7200362)
(-1.3880932e-06 -1.8163211e-05 0.7200363)
(-9.4604812e-07 -1.6574408e-05 0.72003637)
(9.7609764e-07 -1.6065183e-05 0.72003699)
(-6.2438708e-07 -1.6483874e-05 0.720038)
(-1.3132906e-05 -1.8252428e-05 0.72003797)
(-2.1362762e-05 -2.1362762e-05 0.72003282)
(-6.4651258e-06 -1.6376018e-05 0.72002848)
(-1.4638758e-06 -1.0867707e-06 0.72003215)
(6.6148829e-06 -3.3015376e-06 0.72003114)
(9.5807793e-06 -5.8303117e-06 0.72003325)
(4.4812107e-07 -5.1106623e-06 0.72003364)
(2.4997838e-08 -4.606169e-06 0.72003393)
(9.2287673e-07 -4.4632984e-06 0.7200346)
(-1.9404955e-06 -4.6416496e-06 0.72003543)
(-1.5868121e-05 -5.3407039e-06 0.72003479)
(-1.6376018e-05 -6.4651258e-06 0.72002848)
(-2.0162081e-06 -2.0162081e-06 0.72002826)
(-1.9313994e-06 -1.9313994e-06 0.73453492)
(1.8903965e-05 8.3012552e-06 0.73453422)
(1.7818526e-05 3.3606775e-06 0.7345383)
(-9.2473009e-06 2.642365e-06 0.73453702)
(-8.7712751e-06 2.7596687e-06 0.73453583)
(-6.2244755e-06 3.129821e-06 0.73453538)
(-6.9348717e-06 3.6960172e-06 0.73453536)
(-1.2507574e-05 3.7754687e-06 0.73453487)
(-1.0270787e-05 7.3989199e-07 0.7345325)
(-1.3200858e-06 -1.7999784e-06 0.73453188)
(8.3012552e-06 1.8903965e-05 0.73453422)
(2.6842083e-05 2.6842083e-05 0.73453637)
(9.3301878e-06 1.7483648e-05 0.73453897)
(-1.0148814e-05 1.6090991e-05 0.73453752)
(-8.040091e-06 1.6509037e-05 0.73453641)
(-4.8199527e-06 1.7702759e-05 0.73453616)
(-5.9664e-06 1.9668833e-05 0.73453648)
(-1.6941762e-05 2.1035191e-05 0.73453617)
(-1.8633957e-05 1.5300867e-05 0.73453243)
(-3.859956e-06 7.1304062e-06 0.73453087)
(3.3606775e-06 1.7818526e-05 0.7345383)
(1.7483648e-05 9.3301878e-06 0.73453897)
(7.0674319e-06 7.0674319e-06 0.73454122)
(-1.0221913e-05 6.8181522e-06 0.73453975)
(-7.1595073e-06 7.3953403e-06 0.73453874)
(-3.0646791e-06 8.6435694e-06 0.73453872)
(-3.602439e-06 1.076275e-05 0.73453941)
(-1.687554e-05 1.3526516e-05 0.73453955)
(-2.4175572e-05 1.3940476e-05 0.73453549)
(-6.7670598e-06 1.079636e-05 0.73453283)
(2.642365e-06 -9.2473009e-06 0.73453702)
(1.6090991e-05 -1.0148814e-05 0.73453752)
(6.8181522e-06 -1.0221913e-05 0.73453975)
(-9.8209056e-06 -9.8209056e-06 0.73453834)
(-6.2146739e-06 -9.0562248e-06 0.73453747)
(-1.452543e-06 -7.9090729e-06 0.73453765)
(-1.0834543e-06 -6.220215e-06 0.73453865)
(-1.3764037e-05 -3.8241137e-06 0.73453925)
(-2.1364112e-05 -1.267664e-06 0.73453561)
(-5.9560325e-06 8.1314045e-07 0.73453323)
(2.7596687e-06 -8.771275e-06 0.73453583)
(1.6509037e-05 -8.040091e-06 0.73453641)
(7.3953403e-06 -7.1595073e-06 0.73453874)
(-9.0562248e-06 -6.2146739e-06 0.73453747)
(-5.2476747e-06 -5.2476747e-06 0.73453675)
(-2.286694e-07 -4.2290708e-06 0.7345371)
(4.8252026e-07 -3.1035173e-06 0.73453831)
(-1.1922988e-05 -1.8233035e-06 0.73453917)
(-1.9538318e-05 -5.3090743e-07 0.73453578)
(-5.379857e-06 5.7038564e-07 0.73453361)
(3.129821e-06 -6.2244755e-06 0.73453538)
(1.7702759e-05 -4.8199527e-06 0.73453616)
(8.6435694e-06 -3.0646791e-06 0.73453872)
(-7.9090729e-06 -1.452543e-06 0.73453765)
(-4.2290708e-06 -2.2866941e-07 0.7345371)
(6.9161435e-07 6.9161435e-07 0.73453759)
(1.3223131e-06 1.3586139e-06 0.73453893)
(-1.1191426e-05 1.7696792e-06 0.73453988)
(-1.8970423e-05 1.8882938e-06 0.73453657)
(-5.2218372e-06 1.7738302e-06 0.73453443)
(3.6960172e-06 -6.9348717e-06 0.73453536)
(1.9668833e-05 -5.9664e-06 0.73453648)
(1.076275e-05 -3.602439e-06 0.73453941)
(-6.2202151e-06 -1.0834543e-06 0.73453865)
(-3.1035173e-06 4.8252025e-07 0.73453831)
(1.3586139e-06 1.3223131e-06 0.73453893)
(1.5605852e-06 1.5605852e-06 0.73454031)
(-1.1393308e-05 1.1454163e-06 0.73454123)
(-1.9534167e-05 -1.4712308e-09 0.73453779)
(-5.4561661e-06 -1.7175062e-06 0.73453549)
(3.7754687e-06 -1.2507574e-05 0.73453487)
(2.1035191e-05 -1.6941762e-05 0.73453617)
(1.3526516e-05 -1.687554e-05 0.73453955)
(-3.8241137e-06 -1.3764037e-05 0.73453925)
(-1.8233035e-06 -1.1922988e-05 0.73453917)
(1.7696792e-06 -1.1191426e-05 0.73453988)
(1.1454163e-06 -1.1393308e-05 0.73454123)
(-1.2753483e-05 -1.2753483e-05 0.73454193)
(-2.1833346e-05 -1.5558685e-05 0.73453806)
(-6.3658604e-06 -1.9200621e-05 0.73453513)
(7.3989199e-07 -1.0270787e-05 0.7345325)
(1.5300867e-05 -1.8633957e-05 0.73453243)
(1.3940476e-05 -2.4175572e-05 0.73453549)
(-1.267664e-06 -2.1364112e-05 0.73453561)
(-5.3090744e-07 -1.9538318e-05 0.73453578)
(1.8882938e-06 -1.8970423e-05 0.73453657)
(-1.4712244e-09 -1.9534167e-05 0.73453779)
(-1.5558685e-05 -2.1833346e-05 0.73453806)
(-2.5981304e-05 -2.5981304e-05 0.7345333)
(-7.8841227e-06 -1.9545661e-05 0.73452918)
(-1.7999784e-06 -1.3200858e-06 0.73453188)
(7.1304062e-06 -3.859956e-06 0.73453087)