/*--------------------------------*- C++ -*----------------------------------*\
| =========                 |                                                 |
| \\      /  F ield         | OpenFOAM: The Open Source CFD Toolbox           |
|  \\    /   O peration     | Version:  v2106                                 |
|   \\  /    A nd           | Website:  www.openfoam.com                      |
|    \\/     M anipulation  |                                                 |
\*---------------------------------------------------------------------------*/
FoamFile
{
    version     2.0;
    format      ascii;
    arch        "LSB;label=32;scalar=64";
    class       volVectorField;
    location    "20";
    object      gradT;
}
// * * * * * * * * * * * * * * * * * * * * * * * * * * * * * * * * * * * * * //

dimensions      [0 -1 0 1 0 0 0];

internalField   nonuniform List<vector> 
4000
(
(-0.00045822223 -0.00045822223 361.077)
(0.0012271848 0.00083009898 361.0746)
(0.001694712 0.00028997556 361.08299)
(-0.00048858646 0.00022372124 361.0821)
(-0.00044783096 0.00022705032 361.0808)
(-0.00032730074 0.00023641387 361.07988)
(-0.00030846987 0.00024543261 361.07911)
(-0.00033715173 0.00023851544 361.07826)
(-0.00029764945 0.00018162219 361.07731)
(-8.047834e-05 8.756793e-05 361.07677)
(0.00083009898 0.0012271848 361.0746)
(0.0023494815 0.0023494815 361.07953)
(0.00078514539 0.0014084428 361.08467)
(-0.00058297432 0.0012961821 361.08335)
(-0.00042879202 0.001308445 361.08206)
(-0.0002997273 0.0013404534 361.08121)
(-0.00030531752 0.0013830158 361.08051)
(-0.00043286736 0.001399125 361.07959)
(-0.00052407072 0.001274457 361.07815)
(-0.0001745326 0.00092723529 361.07701)
(0.00028997556 0.001694712 361.08299)
(0.0014084428 0.00078514539 361.08467)
(0.00064141256 0.00064141255 361.08917)
(-0.0005885843 0.00062999925 361.08775)
(-0.00040355965 0.00064660336 361.08649)
(-0.00025272987 0.00068307249 361.08574)
(-0.00024979823 0.0007439745 361.08519)
(-0.00044571058 0.00082265809 361.0844)
(-0.00076953916 0.00085920196 361.08271)
(-0.00031195946 0.0007365198 361.08053)
(0.00022372124 -0.00048858645 361.0821)
(0.001296182 -0.00058297432 361.08335)
(0.00062999926 -0.0005885843 361.08775)
(-0.00057778352 -0.00057778352 361.08632)
(-0.00037571878 -0.00055584855 361.08511)
(-0.00020235615 -0.00052046096 361.08445)
(-0.00016573191 -0.00046602477 361.08407)
(-0.00031763991 -0.00038350393 361.08356)
(-0.00061020901 -0.00026933114 361.08224)
(-0.00025632071 -0.00014748933 361.08043)
(0.00022705032 -0.00044783096 361.0808)
(0.0013084449 -0.00042879201 361.08206)
(0.00064660335 -0.00040355966 361.08649)
(-0.00055584855 -0.00037571879 361.08511)
(-0.00034623709 -0.00034623709 361.08397)
(-0.00016290608 -0.00031344324 361.0834)
(-0.0001128412 -0.00027536132 361.08314)
(-0.00024901695 -0.00022976607 361.08279)
(-0.00053352457 -0.00017707703 361.08167)
(-0.00023073159 -0.00012795967 361.08006)
(0.00023641387 -0.00032730074 361.07988)
(0.0013404534 -0.0002997273 361.08121)
(0.00068307248 -0.00025272986 361.08574)
(-0.00052046095 -0.00020235615 361.08445)
(-0.00031344324 -0.00016290608 361.0834)
(-0.00013148038 -0.00013148038 361.08292)
(-8.205474e-05 -0.00010565398 361.08274)
(-0.00021935562 -8.4813189e-05 361.08247)
(-0.00050840261 -6.9176003e-05 361.08142)
(-0.0002235758 -6.0186716e-05 361.07987)
(0.00024543261 -0.00030846987 361.07911)
(0.0013830158 -0.00030531752 361.08051)
(0.0007439745 -0.00024979822 361.08519)
(-0.00046602477 -0.0001657319 361.08407)
(-0.00027536131 -0.0001128412 361.08314)
(-0.00010565399 -8.2054738e-05 361.08274)
(-6.617401e-05 -6.6174011e-05 361.08261)
(-0.00021253897 -6.3309837e-05 361.08237)
(-0.00050889809 -7.1587735e-05 361.08133)
(-0.00022473873 -8.541928e-05 361.07977)
(0.00023851544 -0.00033715174 361.07826)
(0.001399125 -0.00043286737 361.07959)
(0.0008226581 -0.00044571059 361.0844)
(-0.00038350393 -0.00031763991 361.08356)
(-0.00022976607 -0.00024901695 361.08279)
(-8.4813189e-05 -0.00021935562 361.08247)
(-6.3309839e-05 -0.00021253897 361.08237)
(-0.00022476935 -0.00022476935 361.08211)
(-0.00053051205 -0.00025272965 361.08102)
(-0.00023279683 -0.00028581636 361.07938)
(0.00018162219 -0.00029764944 361.07731)
(0.001274457 -0.00052407072 361.07815)
(0.00085920196 -0.00076953917 361.08271)
(-0.00026933114 -0.00061020901 361.08224)
(-0.00017707703 -0.00053352457 361.08167)
(-6.9175998e-05 -0.00050840261 361.08142)
(-7.1587732e-05 -0.0005088981 361.08133)
(-0.00025272965 -0.00053051205 361.08102)
(-0.00056994511 -0.00056994511 361.07982)
(-0.00024679654 -0.00061026117 361.07806)
(8.7567927e-05 -8.0478337e-05 361.07677)
(0.00092723529 -0.0001745326 361.07701)
(0.00073651981 -0.00031195946 361.08053)
(-0.00014748933 -0.0002563207 361.08043)
(-0.00012795967 -0.00023073159 361.08006)
(-6.0186719e-05 -0.0002235758 361.07987)
(-8.5419282e-05 -0.00022473874 361.07977)
(-0.00028581636 -0.00023279683 361.07938)
(-0.00061026117 -0.00024679654 361.07806)
(-0.00025967421 -0.00025967421 361.07625)
(-0.0010222027 -0.0010222027 536.27298)
(0.0053046983 0.0024352754 536.27231)
(0.0061640723 0.00081191724 536.27985)
(-0.0018183356 0.00057067841 536.27893)
(-0.0019867272 0.00057697842 536.27734)
(-0.0015596378 0.00061963576 536.27612)
(-0.0015116779 0.0006639574 536.27504)
(-0.0016809656 0.00061826696 536.27374)
(-0.0013322011 0.00028891736 536.27212)
(-0.00029706497 -2.848975e-05 536.27192)
(0.0024352754 0.0053046983 536.27231)
(0.0080558783 0.0080558783 536.27655)
(0.0033671767 0.0050393717 536.28167)
(-0.0021707438 0.0045741485 536.28035)
(-0.0019132911 0.004606749 536.27878)
(-0.0014291693 0.0047580098 536.27766)
(-0.0015137311 0.004968277 536.27673)
(-0.0022435256 0.0050224725 536.27531)
(-0.0023023362 0.0042783335 536.27256)
(-0.00061447208 0.0028487498 536.27128)
(0.00081191724 0.0061640723 536.27985)
(0.0050393717 0.0033671767 536.28167)
(0.0026823425 0.0026823425 536.28606)
(-0.0022509583 0.0025679701 536.28459)
(-0.0018028659 0.0026333335 536.28305)
(-0.0011981097 0.0028117624 536.28208)
(-0.0012472152 0.0031126569 536.2814)
(-0.0023709091 0.0034859703 536.28024)
(-0.0035059238 0.0035627743 536.27716)
(-0.0012501208 0.0029221444 536.2746)
(0.00057067841 -0.0018183356 536.27893)
(0.0045741485 -0.0021707438 536.28035)
(0.0025679701 -0.0022509583 536.28459)
(-0.0022197528 -0.0022197528 536.28311)
(-0.0016694989 -0.0021159785 536.28164)
(-0.00094984587 -0.0019415868 536.28081)
(-0.00083952323 -0.0016729346 536.28038)
(-0.0017934082 -0.0012726313 536.27961)
(-0.0028661621 -0.00076176529 536.277)
(-0.0010415587 -0.00026607552 536.27484)
(0.00057697842 -0.0019867272 536.27734)
(0.004606749 -0.0019132911 536.27878)
(0.0026333335 -0.0018028659 536.28305)
(-0.0021159785 -0.0016694989 536.28164)
(-0.0015246998 -0.0015246998 536.28026)
(-0.00075506585 -0.0013632884 536.27957)
(-0.00057825972 -0.0011756003 536.27931)
(-0.0014597398 -0.00095042228 536.27878)
(-0.002499368 -0.00069504764 536.27644)
(-0.00091966091 -0.00045601521 536.27454)
(0.00061963576 -0.0015596378 536.27612)
(0.0047580098 -0.0014291693 536.27766)
(0.0028117624 -0.0011981097 536.28208)
(-0.0019415868 -0.00094984587 536.28081)
(-0.0013632884 -0.00075506584 536.27957)
(-0.0006007464 -0.0006007464 536.279)
(-0.00042665714 -0.00047491269 536.27886)
(-0.0013128555 -0.00037377007 536.27844)
(-0.002371755 -0.00029869701 536.27622)
(-0.0008822037 -0.00025419109 536.2744)
(0.00066395739 -0.0015116779 536.27504)
(0.004968277 -0.0015137311 536.27673)
(0.0031126569 -0.0012472152 536.2814)
(-0.0016729346 -0.00083952322 536.28038)
(-0.0011756004 -0.00057825972 536.27931)
(-0.00047491269 -0.00042665714 536.27886)
(-0.00035128339 -0.00035128339 536.2788)
(-0.0012835241 -0.00034284651 536.27841)
(-0.0023797891 -0.00039299048 536.27617)
(-0.0008899903 -0.00047615615 536.27432)
(0.00061826697 -0.0016809656 536.27374)
(0.0050224725 -0.0022435256 536.27531)
(0.0034859703 -0.0023709091 536.28024)
(-0.0012726313 -0.0017934082 536.27961)
(-0.00095042229 -0.0014597398 536.27878)
(-0.00037377007 -0.0013128555 536.27844)
(-0.00034284651 -0.0012835241 536.27841)
(-0.0013545626 -0.0013545626 536.27798)
(-0.0025050647 -0.0015097087 536.27562)
(-0.00093764748 -0.0016963871 536.2736)
(0.00028891737 -0.0013322011 536.27212)
(0.0042783335 -0.0023023362 536.27256)
(0.0035627743 -0.0035059238 536.27716)
(-0.0007617653 -0.0028661621 536.277)
(-0.00069504764 -0.002499368 536.27644)
(-0.00029869701 -0.002371755 536.27622)
(-0.00039299049 -0.0023797891 536.27617)
(-0.0015097087 -0.0025050647 536.27562)
(-0.0027216136 -0.0027216136 536.27305)
(-0.0010144426 -0.0028696213 536.27081)
(-2.8489749e-05 -0.00029706496 536.27192)
(0.0028487498 -0.00061447208 536.27128)
(0.0029221444 -0.0012501208 536.2746)
(-0.00026607553 -0.0010415586 536.27484)
(-0.00045601522 -0.00091966091 536.27454)
(-0.0002541911 -0.0008822037 536.2744)
(-0.00047615614 -0.00088999031 536.27432)
(-0.0016963871 -0.00093764747 536.2736)
(-0.0028696213 -0.0010144426 536.27081)
(-0.0010363193 -0.0010363193 536.26917)
(-0.0009039275 -0.0009039275 537.64573)
(0.0080942678 0.0036586042 537.64575)
(0.0083173616 0.0015019854 537.65043)
(-0.0029947309 0.0011683796 537.64949)
(-0.0032657896 0.0011832072 537.64814)
(-0.0026243553 0.00126679 537.64712)
(-0.0026812041 0.00136667 537.64622)
(-0.0032622599 0.0012834494 537.64489)
(-0.0021224965 0.0004774253 537.64269)
(-0.00021396108 -0.00033725545 537.64255)
(0.0036586042 0.0080942678 537.64575)
(0.011703137 0.011703137 537.64881)
(0.0045820247 0.0076214723 537.65203)
(-0.0034728983 0.0069557974 537.65085)
(-0.0031181739 0.0070209134 537.64954)
(-0.0023491611 0.0073086715 537.64865)
(-0.002656215 0.007739711 537.64795)
(-0.0045961268 0.0078977718 537.6466)
(-0.0045535538 0.0063189907 537.64308)
(-0.0010286418 0.0036101068 537.64167)
(0.0015019854 0.0083173616 537.65043)
(0.0076214723 0.0045820247 537.65203)
(0.0035700218 0.0035700218 537.65479)
(-0.0035952898 0.0033872166 537.65352)
(-0.0029129155 0.0035066954 537.65225)
(-0.0019055577 0.0038330205 537.65152)
(-0.0020921037 0.0043956551 537.6511)
(-0.0046829802 0.0051220304 537.65008)
(-0.0064101616 0.0052945923 537.6463)
(-0.0020198837 0.0042904829 537.64386)
(0.0011683796 -0.0029947309 537.64949)
(0.0069557974 -0.0034728983 537.65085)
(0.0033872166 -0.0035952897 537.65352)
(-0.0035362247 -0.0035362247 537.65224)
(-0.00267237 -0.0033484061 537.65105)
(-0.0014602014 -0.0030353442 537.65047)
(-0.0013672051 -0.002555603 537.6503)
(-0.0036971897 -0.0018484331 537.64965)
(-0.0053851013 -0.0009919542 537.64628)
(-0.0016980481 -0.00020463976 537.64414)
(0.0011832072 -0.0032657896 537.64814)
(0.0070209134 -0.0031181739 537.64954)
(0.0035066954 -0.0029129155 537.65225)
(-0.0033484061 -0.00267237 537.65105)
(-0.0024120351 -0.0024120351 537.64997)
(-0.0011127546 -0.0021235798 537.64951)
(-0.00090519263 -0.0017908764 537.64951)
(-0.0031193313 -0.0013957098 537.64909)
(-0.0047663682 -0.00096007753 537.64597)
(-0.0014950074 -0.00056114049 537.64405)
(0.00126679 -0.0026243553 537.64712)
(0.0073086715 -0.0023491611 537.64865)
(0.0038330205 -0.0019055577 537.65152)
(-0.0030353442 -0.0014602014 537.65047)
(-0.0021235798 -0.0011127546 537.64951)
(-0.00083904275 -0.00083904275 537.64918)
(-0.0006393352 -0.00062009349 537.64929)
(-0.0028663908 -0.00045093953 537.64898)
(-0.004550532 -0.00033661427 537.64595)
(-0.0014320901 -0.000281039 537.6441)
(0.00136667 -0.0026812041 537.64622)
(0.007739711 -0.002656215 537.64795)
(0.0043956551 -0.0020921037 537.6511)
(-0.002555603 -0.0013672051 537.6503)
(-0.0017908764 -0.00090519263 537.64951)
(-0.00062009349 -0.0006393352 537.64929)
(-0.00051708941 -0.00051708941 537.64947)
(-0.0028358521 -0.0005284378 537.64917)
(-0.0045964677 -0.00066495884 537.6461)
(-0.0014579572 -0.00088328337 537.64417)
(0.0012834494 -0.0032622599 537.64489)
(0.0078977718 -0.0045961268 537.6466)
(0.0051220304 -0.0046829802 537.65008)
(-0.0018484331 -0.0036971897 537.64965)
(-0.0013957098 -0.0031193313 537.64909)
(-0.00045093953 -0.0028663908 537.64898)
(-0.0005284378 -0.0028358521 537.64917)
(-0.0030142602 -0.0030142602 537.64878)
(-0.0049053776 -0.0033794426 537.64552)
(-0.0015776397 -0.0038043105 537.64331)
(0.0004774253 -0.0021224965 537.64269)
(0.0063189907 -0.0045535538 537.64308)
(0.0052945923 -0.0064101616 537.6463)
(-0.00099195421 -0.0053851013 537.64628)
(-0.00096007753 -0.0047663682 537.64597)
(-0.00033661427 -0.004550532 537.64595)
(-0.00066495885 -0.0045964677 537.6461)
(-0.0033794426 -0.0049053775 537.64552)
(-0.005386518 -0.005386518 537.64189)
(-0.0017412025 -0.0050468484 537.6393)
(-0.00033725545 -0.00021396107 537.64255)
(0.0036101068 -0.0010286418 537.64167)
(0.0042904829 -0.0020198837 537.64386)
(-0.00020463977 -0.0016980481 537.64414)
(-0.00056114049 -0.0014950074 537.64405)
(-0.00028103899 -0.0014320901 537.6441)
(-0.00088328337 -0.0014579572 537.64417)
(-0.0038043105 -0.0015776397 537.64331)
(-0.0050468484 -0.0017412025 537.6393)
(-0.0013511933 -0.0013511933 537.6387)
(-0.0010044235 -0.0010044235 540.99464)
(0.010008452 0.0044747274 540.99427)
(0.0099013835 0.0018773767 540.9982)
(-0.004106426 0.0014787303 540.99724)
(-0.0043546114 0.0015089655 540.99604)
(-0.0034844267 0.001641079 540.99523)
(-0.0037470471 0.0018205835 540.99456)
(-0.0052107108 0.0017600902 540.99339)
(-0.0036737993 0.00054817304 540.99088)
(-0.00039173207 -0.00061223988 540.99027)
(0.0044747274 0.010008452 540.99427)
(0.014331152 0.014331152 540.99653)
(0.0054073879 0.0093974816 540.99918)
(-0.0046590427 0.0085997413 540.99804)
(-0.0041110884 0.0087166731 540.99689)
(-0.0030169996 0.0091565299 540.99623)
(-0.0035685302 0.0098503393 540.9958)
(-0.0071193265 0.010211592 540.99472)
(-0.0072322944 0.0078928746 540.99102)
(-0.001552145 0.0041645043 540.98947)
(0.0018773767 0.0099013835 540.9982)
(0.0093974816 0.0054073879 540.99918)
(0.0041699725 0.0041699725 541.00148)
(-0.0047872344 0.0039593249 541.00028)
(-0.0037978228 0.0041473231 540.9992)
(-0.0023507605 0.0046274164 540.99869)
(-0.0026919849 0.005456999 540.99856)
(-0.0071681755 0.00653921 540.99781)
(-0.009720887 0.0067684734 540.99384)
(-0.0028773122 0.0053930518 540.99131)
(0.0014787303 -0.004106426 540.99724)
(0.0085997413 -0.0046590427 540.99804)
(0.0039593249 -0.0047872344 541.00028)
(-0.004681692 -0.004681692 540.9991)
(-0.0034429969 -0.0044019728 540.99811)
(-0.0017073238 -0.0039484269 540.99775)
(-0.0016567366 -0.003260205 540.99786)
(-0.0058078522 -0.0022575387 540.99748)
(-0.0083784526 -0.0010963177 540.99388)
(-0.0024690927 -7.7184179e-05 540.99158)
(0.0015089655 -0.0043546114 540.99604)
(0.0087166731 -0.0041110884 540.99689)
(0.0041473231 -0.0037978228 540.9992)
(-0.0044019728 -0.0034429969 540.99811)
(-0.0030645576 -0.0030645577 540.99722)
(-0.0012089927 -0.0026504174 540.99699)
(-0.0010010967 -0.0021779686 540.99727)
(-0.0050042883 -0.0016237285 540.99711)
(-0.0075405325 -0.0010299439 540.99372)
(-0.0021978899 -0.00049983157 540.99162)
(0.001641079 -0.0034844267 540.99523)
(0.0091565299 -0.0030169997 540.99623)
(0.0046274164 -0.0023507605 540.99869)
(-0.0039484269 -0.0017073238 540.99775)
(-0.0026504174 -0.0012089927 540.99699)
(-0.00082073467 -0.00082073467 540.99689)
(-0.00063004771 -0.00051801323 540.99727)
(-0.0046598275 -0.00029699591 540.9972)
(-0.0072545557 -0.00016876577 540.99389)
(-0.0021156845 -0.00013080728 540.99185)
(0.0018205835 -0.0037470471 540.99456)
(0.0098503393 -0.0035685302 540.9958)
(0.005456999 -0.0026919849 540.99856)
(-0.003260205 -0.0016567366 540.99786)
(-0.0021779686 -0.0010010967 540.99727)
(-0.00051801323 -0.00063004771 540.99727)
(-0.00047735791 -0.0004773579 540.99771)
(-0.0046550408 -0.00054111439 540.99764)
(-0.0073743439 -0.00082410551 540.99426)
(-0.0021725842 -0.0012629405 540.99211)
(0.0017600902 -0.0052107108 540.99339)
(0.010211592 -0.0071193266 540.99472)
(0.00653921 -0.0071681755 540.99781)
(-0.0022575387 -0.0058078522 540.99748)
(-0.0016237285 -0.0050042883 540.99711)
(-0.0002969959 -0.0046598275 540.9972)
(-0.0005411144 -0.0046550408 540.99764)
(-0.0050065751 -0.0050065751 540.99744)
(-0.0079763818 -0.0057214011 540.9938)
(-0.0024082412 -0.0065696686 540.99126)
(0.00054817305 -0.0036737993 540.99088)
(0.0078928746 -0.0072322944 540.99102)
(0.0067684734 -0.009720887 540.99384)
(-0.0010963177 -0.0083784526 540.99388)
(-0.0010299439 -0.0075405325 540.99372)
(-0.00016876577 -0.0072545557 540.99389)
(-0.00082410552 -0.0073743439 540.99426)
(-0.0057214011 -0.0079763818 540.9938)
(-0.0089374374 -0.0089374374 540.98963)
(-0.0027380958 -0.0074754867 540.98647)
(-0.00061223988 -0.00039173207 540.99027)
(0.0041645044 -0.001552145 540.98947)
(0.0053930518 -0.0028773122 540.99131)
(-7.7184187e-05 -0.0024690927 540.99158)
(-0.00049983156 -0.0021978899 540.99162)
(-0.00013080728 -0.0021156845 540.99185)
(-0.0012629405 -0.0021725842 540.99211)
(-0.0065696686 -0.0024082412 540.99126)
(-0.0074754867 -0.0027380958 540.98647)
(-0.0014336074 -0.0014336074 540.98625)
(-0.0011544319 -0.0011544319 546.2355)
(0.011654628 0.005167744 546.23504)
(0.011291285 0.0021547293 546.23863)
(-0.0051523297 0.0017004506 546.23767)
(-0.0052760674 0.0017492151 546.2366)
(-0.0041068935 0.0019316293 546.23597)
(-0.0045212133 0.0021953955 546.23556)
(-0.0069408129 0.0021708062 546.23469)
(-0.0052416621 0.00057202725 546.23238)
(-0.00062259819 -0.00087089917 546.23172)
(0.005167744 0.011654628 546.23504)
(0.01661837 0.01661837 546.23702)
(0.006090345 0.010896531 546.23939)
(-0.005760601 0.0099948163 546.23828)
(-0.0049292993 0.010174414 546.23726)
(-0.003437623 0.010771382 546.23679)
(-0.004162448 0.011735808 546.23663)
(-0.0093758652 0.012319061 546.23587)
(-0.0098042202 0.009279382 546.23243)
(-0.0020655246 0.004650971 546.23095)
(0.0021547293 0.011291285 546.23863)
(0.010896531 0.006090345 546.23939)
(0.0046677318 0.0046677318 546.24146)
(-0.0058744467 0.0044523245 546.24031)
(-0.0044995022 0.0047195301 546.23937)
(-0.0025454998 0.0053571182 546.23905)
(-0.0029735335 0.0064534181 546.23918)
(-0.0093972384 0.007885027 546.23876)
(-0.012909753 0.0081447942 546.23504)
(-0.0037082055 0.0064052953 546.23264)
(0.0017004506 -0.0051523297 546.23767)
(0.0099948163 -0.005760601 546.23828)
(0.0044523245 -0.0058744467 546.24031)
(-0.0057088027 -0.0057088027 546.23919)
(-0.0040245056 -0.0053305347 546.23834)
(-0.0017037351 -0.0047351882 546.23818)
(-0.0016345393 -0.0038416601 546.23856)
(-0.007684489 -0.0025537181 546.2385)
(-0.011283952 -0.0011139831 546.2351)
(-0.0032251906 0.00010796117 546.23292)
(0.0017492151 -0.0052760674 546.2366)
(0.010174414 -0.0049292993 546.23726)
(0.0047195301 -0.0044995022 546.23937)
(-0.0053305347 -0.0040245056 546.23834)
(-0.0035258877 -0.0035258877 546.2376)
(-0.0010566251 -0.0029877502 546.23757)
(-0.00079206337 -0.0023808901 546.23811)
(-0.0066695614 -0.0016773871 546.23825)
(-0.010248073 -0.00094193213 546.23507)
(-0.002893576 -0.0002986717 546.23306)
(0.0019316293 -0.0041068935 546.23597)
(0.010771382 -0.003437623 546.23679)
(0.0053571182 -0.0025454998 546.23905)
(-0.0047351882 -0.0017037351 546.23818)
(-0.0029877502 -0.0010566251 546.23757)
(-0.00055873756 -0.00055873755 546.23766)
(-0.00032417615 -0.0001806303 546.2383)
(-0.006245531 7.9487041e-05 546.23853)
(-0.0099052365 0.00020403991 546.23541)
(-0.0027963503 0.00020665231 546.23344)
(0.0021953955 -0.0045212133 546.23556)
(0.011735808 -0.004162448 546.23663)
(0.0064534181 -0.0029735335 546.23918)
(-0.0038416601 -0.0016345393 546.23856)
(-0.0023808901 -0.00079206338 546.23811)
(-0.0001806303 -0.00032417616 546.2383)
(-0.00015383878 -0.00015383878 546.23898)
(-0.0062848912 -0.00029195132 546.23919)
(-0.010120908 -0.0007592967 546.23599)
(-0.0028918344 -0.0014736335 546.2339)
(0.0021708062 -0.0069408129 546.23469)
(0.012319061 -0.0093758652 546.23587)
(0.007885027 -0.0093972384 546.23876)
(-0.0025537181 -0.007684489 546.2385)
(-0.0016773871 -0.0066695614 546.23825)
(7.9487039e-05 -0.006245531 546.23853)
(-0.00029195132 -0.0062848912 546.23919)
(-0.0068509889 -0.0068509889 546.23926)
(-0.011086919 -0.0080113028 546.23575)
(-0.0032725748 -0.0094501841 546.23321)
(0.00057202725 -0.0052416621 546.23238)
(0.009279382 -0.0098042202 546.23243)
(0.0081447942 -0.012909753 546.23504)
(-0.0011139831 -0.011283952 546.2351)
(-0.00094193214 -0.010248073 546.23507)
(0.00020403991 -0.0099052365 546.23541)
(-0.00075929669 -0.010120908 546.23599)
(-0.0080113028 -0.011086919 546.23575)
(-0.012720103 -0.012720103 546.23162)
(-0.0038510886 -0.010049089 546.22827)
(-0.00087089917 -0.00062259818 546.23172)
(0.004650971 -0.0020655246 546.23095)
(0.0064052953 -0.0037082055 546.23264)
(0.00010796117 -0.0032251906 546.23292)
(-0.0002986717 -0.002893576 546.23306)
(0.00020665231 -0.0027963503 546.23344)
(-0.0014736335 -0.0028918344 546.2339)
(-0.0094501841 -0.0032725748 546.23321)
(-0.010049089 -0.0038510886 546.22827)
(-0.0014918984 -0.0014918984 546.2281)
(-0.001311691 -0.001311691 553.27538)
(0.013142737 0.0057937446 553.27489)
(0.012538055 0.0023857062 553.27819)
(-0.0061390105 0.0018813226 553.27723)
(-0.006055266 0.0019501313 553.27626)
(-0.0045232426 0.0021830643 553.2758)
(-0.0050288534 0.0025316532 553.27561)
(-0.0083892344 0.0025476797 553.27501)
(-0.0066477605 0.00057698446 553.27298)
(-0.00083507417 -0.0011248416 553.2724)
(0.0057937446 0.013142737 553.27489)
(0.018688833 0.018688833 553.27667)
(0.0066694215 0.012224315 553.27881)
(-0.0067923728 0.011234453 553.27772)
(-0.0056026535 0.011482522 553.27681)
(-0.0036509598 0.012237901 553.27649)
(-0.0044819302 0.013473183 553.27656)
(-0.011321238 0.014284663 553.27609)
(-0.012156542 0.010550275 553.27297)
(-0.0025369002 0.0050828733 553.27164)
(0.0023857062 0.012538055 553.27819)
(0.012224315 0.0066694215 553.27881)
(0.0050836746 0.0050836746 553.28067)
(-0.0068808033 0.0048763968 553.27955)
(-0.0050518178 0.0052291048 553.27872)
(-0.0025325818 0.0060256369 553.27857)
(-0.002982091 0.0073863826 553.27892)
(-0.011312142 0.0091619249 553.27879)
(-0.015849551 0.0094470614 553.27541)
(-0.0044800087 0.0073618661 553.2732)
(0.0018813226 -0.0061390105 553.27723)
(0.011234453 -0.0067923728 553.27772)
(0.0048763968 -0.0068808033 553.27955)
(-0.0066469426 -0.0066469426 553.27848)
(-0.0044534134 -0.0061661769 553.27774)
(-0.0014936819 -0.0054290411 553.27775)
(-0.0013456423 -0.0043340047 553.27834)
(-0.0092605587 -0.0027694485 553.27856)
(-0.013956601 -0.00106661 553.27549)
(-0.0039270304 0.000344336 553.27349)
(0.0019501313 -0.006055266 553.27626)
(0.011482522 -0.0056026535 553.27681)
(0.0052291048 -0.0050518178 553.27872)
(-0.0061661769 -0.0044534134 553.27774)
(-0.0038339163 -0.0038339163 553.27712)
(-0.00070040959 -0.0031739315 553.27726)
(-0.00032249835 -0.0024376547 553.278)
(-0.0080447477 -0.0015929154 553.27842)
(-0.012735766 -0.00072694285 553.27555)
(-0.003539378 1.9208326e-05 553.27372)
(0.0021830643 -0.0045232426 553.2758)
(0.012237901 -0.0036509598 553.27649)
(0.0060256369 -0.0025325818 553.27857)
(-0.0054290411 -0.001493682 553.27775)
(-0.0031739315 -0.0007004096 553.27726)
(-9.7420396e-05 -9.7420392e-05 553.2775)
(0.00023537382 0.00034933064 553.27834)
(-0.0075498468 0.00063957152 553.27884)
(-0.012344477 0.00075003289 553.27603)
(-0.0034295963 0.00070913804 553.27423)
(0.0025316532 -0.0050288534 553.27561)
(0.013473183 -0.0044819302 553.27656)
(0.0073863826 -0.002982091 553.27892)
(-0.0043340047 -0.0013456423 553.27834)
(-0.0024376547 -0.00032249835 553.278)
(0.00034933064 0.00023537382 553.27834)
(0.00041449356 0.00041449356 553.27922)
(-0.0076440455 0.00018960243 553.27969)
(-0.0126662 -0.00047977868 553.27679)
(-0.0035666412 -0.0014910758 553.27487)
(0.0025476797 -0.0083892344 553.27501)
(0.014284663 -0.011321238 553.27609)
(0.0091619249 -0.011312142 553.27879)
(-0.0027694485 -0.0092605587 553.27856)
(-0.0015929154 -0.0080447477 553.27842)
(0.00063957152 -0.0075498468 553.27884)
(0.00018960243 -0.0076440455 553.27969)
(-0.0084441191 -0.0084441191 553.28001)
(-0.014025156 -0.010091318 553.27678)
(-0.0041037944 -0.012193057 553.27439)
(0.00057698446 -0.0066477605 553.27298)
(0.010550275 -0.012156542 553.27297)
(0.0094470614 -0.015849551 553.27541)
(-0.00106661 -0.013956601 553.27549)
(-0.00072694285 -0.012735766 553.27555)
(0.00075003288 -0.012344477 553.27603)
(-0.00047977868 -0.0126662 553.27679)
(-0.010091318 -0.014025156 553.27678)
(-0.016415137 -0.016415137 553.2729)
(-0.0049678004 -0.012583326 553.26963)
(-0.0011248416 -0.00083507417 553.2724)
(0.0050828733 -0.0025369002 553.27164)
(0.0073618661 -0.0044800087 553.2732)
(0.00034433601 -0.0039270304 553.27349)
(1.9208326e-05 -0.003539378 553.27372)
(0.00070913802 -0.0034295963 553.27423)
(-0.0014910758 -0.0035666412 553.27487)
(-0.012193057 -0.0041037944 553.27439)
(-0.012583326 -0.0049678004 553.26963)
(-0.0015492537 -0.0015492536 553.26948)
(-0.0014777589 -0.0014777589 562.00986)
(0.014463867 0.0063514849 562.00934)
(0.013633368 0.0025713324 562.01232)
(-0.0070753251 0.0020217349 562.01137)
(-0.0067111071 0.0021114869 562.01049)
(-0.0047624915 0.0023946991 562.01017)
(-0.0053060324 0.0028279091 562.01017)
(-0.0095698373 0.0028886995 562.00982)
(-0.0078584203 0.00056610874 562.00807)
(-0.0010100286 -0.0013772058 562.00761)
(0.0063514849 0.014463867 562.00934)
(0.020537504 0.020537504 562.01091)
(0.007138743 0.013377145 562.0128)
(-0.0077650934 0.012311591 562.01172)
(-0.0061516608 0.012631448 562.01091)
(-0.0036878581 0.013544793 562.01074)
(-0.0045650318 0.015049083 562.01099)
(-0.012962538 0.016094516 562.01078)
(-0.014257278 0.011707053 562.00801)
(-0.0029533432 0.0054556415 562.00685)
(0.0025713324 0.013633368 562.01232)
(0.013377145 0.007138743 562.0128)
(0.0054074553 0.0054074553 562.01444)
(-0.0078210217 0.0052167259 562.01335)
(-0.0054779049 0.0056583462 562.01261)
(-0.0023448571 0.0066133954 562.01261)
(-0.0027563097 0.00823483 562.01314)
(-0.012911867 0.010349451 562.01327)
(-0.018497295 0.010666184 562.01025)
(-0.0051776361 0.0082605484 562.00829)
(0.0020217349 -0.0070753251 562.01137)
(0.012311591 -0.0077650934 562.01172)
(0.0052167259 -0.0078210217 562.01335)
(-0.0075142025 -0.0075142024 562.01231)
(-0.0047549912 -0.0069291278 562.01167)
(-0.0011113744 -0.0060514154 562.01182)
(-0.00082897603 -0.004759231 562.01259)
(-0.010531184 -0.0029259183 562.01305)
(-0.016346181 -0.00096991936 562.01035)
(-0.0045571 0.00062215281 562.00858)
(0.0021114869 -0.0067111071 562.01049)
(0.012631448 -0.0061516608 562.01091)
(0.0056583462 -0.0054779049 562.01261)
(-0.0069291278 -0.0047549912 562.01167)
(-0.0040151179 -0.0040151179 562.01115)
(-0.00017496027 -0.0032357605 562.01142)
(0.00036918747 -0.0023745733 562.01234)
(-0.0091225556 -0.0013950519 562.013)
(-0.014949224 -0.00040620968 562.01049)
(-0.0041162546 0.00043641542 562.00887)
(0.0023946991 -0.0047624915 562.01017)
(0.013544793 -0.0036878581 562.01074)
(0.0066133954 -0.0023448571 562.01261)
(-0.0060514154 -0.0011113744 562.01182)
(-0.0032357605 -0.00017496028 562.01142)
(0.00052917023 0.00052917023 562.0118)
(0.0010117325 0.0010395071 562.01281)
(-0.0085628206 0.0013540227 562.01354)
(-0.014514714 0.0014447777 562.01108)
(-0.00399535 0.001357199 562.0095)
(0.0028279091 -0.0053060324 562.01017)
(0.015049083 -0.0045650318 562.01099)
(0.00823483 -0.0027563097 562.01314)
(-0.004759231 -0.00082897603 562.01259)
(-0.0023745733 0.00036918747 562.01234)
(0.0010395071 0.0010117325 562.01281)
(0.00119404 0.00119404 562.01386)
(-0.008717285 0.00087638461 562.01456)
(-0.014946047 -1.1256731e-06 562.01201)
(-0.0041746404 -0.0013141042 562.0103)
(0.0028886995 -0.0095698373 562.00982)
(0.016094516 -0.012962538 562.01078)
(0.010349451 -0.012911867 562.01327)
(-0.0029259183 -0.010531184 562.01305)
(-0.0013950519 -0.0091225556 562.013)
(0.0013540227 -0.0085628206 562.01354)
(0.00087638461 -0.008717285 562.01456)
(-0.0097579863 -0.0097579863 562.01511)
(-0.016705203 -0.011904313 562.01223)
(-0.004870669 -0.014690845 562.01005)
(0.00056610874 -0.0078584203 562.00807)
(0.011707053 -0.014257278 562.00801)
(0.010666184 -0.018497295 562.01025)
(-0.00096991936 -0.016346181 562.01035)
(-0.00040620969 -0.014949224 562.01049)
(0.0014447777 -0.014514714 562.01108)
(-1.1256682e-06 -0.014946047 562.01201)
(-0.011904313 -0.016705203 562.01223)
(-0.019878906 -0.019878906 562.00868)
(-0.0060323283 -0.014954847 562.0056)
(-0.0013772058 -0.0010100286 562.00761)
(0.0054556415 -0.0029533432 562.00685)
(0.0082605484 -0.0051776361 562.00829)
(0.00062215282 -0.0045571001 562.00858)
(0.00043641541 -0.0041162546 562.00887)
(0.001357199 -0.00399535 562.0095)
(-0.0013141042 -0.0041746404 562.0103)
(-0.014690845 -0.004870669 562.01005)
(-0.014954847 -0.0060323282 562.0056)
(-0.0015879627 -0.0015879627 562.00554)
(-0.0016552959 -0.0016552959 572.32466)
(0.015601756 0.0068353295 572.32411)
(0.014563156 0.0027084448 572.32674)
(-0.0079675054 0.0021185223 572.3258)
(-0.0072560927 0.0022297636 572.325)
(-0.0048437917 0.0025626382 572.32481)
(-0.0053746602 0.0030797595 572.32498)
(-0.010492811 0.0031893495 572.32487)
(-0.00886357 0.00053844542 572.32339)
(-0.0011411728 -0.0016282748 572.32306)
(0.0068353295 0.015601756 572.32411)
(0.022147367 0.022147367 572.32545)
(0.0074879448 0.014341768 572.32708)
(-0.0086855272 0.013212085 572.32602)
(-0.0065899188 0.013605634 572.32529)
(-0.0035687979 0.014675137 572.32524)
(-0.0044345933 0.016444959 572.32567)
(-0.014304782 0.017729548 572.3257)
(-0.016090006 0.012739433 572.32328)
(-0.003307893 0.005763286 572.32231)
(0.0027084448 0.014563156 572.32674)
(0.014341768 0.0074879448 572.32708)
(0.0056278733 0.0056278733 572.32848)
(-0.0087036398 0.0054601967 572.32741)
(-0.0057930403 0.0059924327 572.32676)
(-0.0020044667 0.0071041548 572.32688)
(-0.0023202497 0.0089811294 572.32758)
(-0.014198337 0.011429344 572.32795)
(-0.020829832 0.011788425 572.32532)
(-0.0057919372 0.0090919345 572.32361)
(0.0021185223 -0.0079675054 572.3258)
(0.013212085 -0.0086855272 572.32602)
(0.0054601967 -0.0087036398 572.32741)
(-0.0083209677 -0.0083209677 572.3264)
(-0.0049459607 -0.007631166 572.32585)
(-0.00058010122 -0.0066149924 572.32612)
(-0.00010940414 -0.005130579 572.32705)
(-0.011497486 -0.0030363799 572.32774)
(-0.018427416 -0.0008352508 572.32542)
(-0.0051055535 0.00093192789 572.3239)