/*--------------------------------*- C++ -*----------------------------------*\
| =========                 |                                                 |
| \\      /  F ield         | OpenFOAM: The Open Source CFD Toolbox           |
|  \\    /   O peration     | Version:  v2106                                 |
|   \\  /    A nd           | Website:  www.openfoam.com                      |
|    \\/     M anipulation  |                                                 |
\*---------------------------------------------------------------------------*/
FoamFile
{
    version     2.0;
    format      ascii;
    arch        "LSB;label=32;scalar=64";
    class       volScalarField;
    location    "20";
    object      gradTx;
}
// * * * * * * * * * * * * * * * * * * * * * * * * * * * * * * * * * * * * * //

dimensions      [0 -1 0 1 0 0 0];

internalField   nonuniform List<scalar> 
4000
(
-0.00045822223
0.0012271848
0.001694712
-0.00048858646
-0.00044783096
-0.00032730074
-0.00030846987
-0.00033715173
-0.00029764945
-8.047834e-05
0.00083009898
0.0023494815
0.00078514539
-0.00058297432
-0.00042879202
-0.0002997273
-0.00030531752
-0.00043286736
-0.00052407072
-0.0001745326
0.00028997556
0.0014084428
0.00064141256
-0.0005885843
-0.00040355965
-0.00025272987
-0.00024979823
-0.00044571058
-0.00076953916
-0.00031195946
0.00022372124
0.001296182
0.00062999926
-0.00057778352
-0.00037571878
-0.00020235615
-0.00016573191
-0.00031763991
-0.00061020901
-0.00025632071
0.00022705032
0.0013084449
0.00064660335
-0.00055584855
-0.00034623709
-0.00016290608
-0.0001128412
-0.00024901695
-0.00053352457
-0.00023073159
0.00023641387
0.0013404534
0.00068307248
-0.00052046095
-0.00031344324
-0.00013148038
-8.205474e-05
-0.00021935562
-0.00050840261
-0.0002235758
0.00024543261
0.0013830158
0.0007439745
-0.00046602477
-0.00027536131
-0.00010565399
-6.617401e-05
-0.00021253897
-0.00050889809
-0.00022473873
0.00023851544
0.001399125
0.0008226581
-0.00038350393
-0.00022976607
-8.4813189e-05
-6.3309839e-05
-0.00022476935
-0.00053051205
-0.00023279683
0.00018162219
0.001274457
0.00085920196
-0.00026933114
-0.00017707703
-6.9175998e-05
-7.1587732e-05
-0.00025272965
-0.00056994511
-0.00024679654
8.7567927e-05
0.00092723529
0.00073651981
-0.00014748933
-0.00012795967
-6.0186719e-05
-8.5419282e-05
-0.00028581636
-0.00061026117
-0.00025967421
-0.0010222027
0.0053046983
0.0061640723
-0.0018183356
-0.0019867272
-0.0015596378
-0.0015116779
-0.0016809656
-0.0013322011
-0.00029706497
0.0024352754
0.0080558783
0.0033671767
-0.0021707438
-0.0019132911
-0.0014291693
-0.0015137311
-0.0022435256
-0.0023023362
-0.00061447208
0.00081191724
0.0050393717
0.0026823425
-0.0022509583
-0.0018028659
-0.0011981097
-0.0012472152
-0.0023709091
-0.0035059238
-0.0012501208
0.00057067841
0.0045741485
0.0025679701
-0.0022197528
-0.0016694989
-0.00094984587
-0.00083952323
-0.0017934082
-0.0028661621
-0.0010415587
0.00057697842
0.004606749
0.0026333335
-0.0021159785
-0.0015246998
-0.00075506585
-0.00057825972
-0.0014597398
-0.002499368
-0.00091966091
0.00061963576
0.0047580098
0.0028117624
-0.0019415868
-0.0013632884
-0.0006007464
-0.00042665714
-0.0013128555
-0.002371755
-0.0008822037
0.00066395739
0.004968277
0.0031126569
-0.0016729346
-0.0011756004
-0.00047491269
-0.00035128339
-0.0012835241
-0.0023797891
-0.0008899903
0.00061826697
0.0050224725
0.0034859703
-0.0012726313
-0.00095042229
-0.00037377007
-0.00034284651
-0.0013545626
-0.0025050647
-0.00093764748
0.00028891737
0.0042783335
0.0035627743
-0.0007617653
-0.00069504764
-0.00029869701
-0.00039299049
-0.0015097087
-0.0027216136
-0.0010144426
-2.8489749e-05
0.0028487498
0.0029221444
-0.00026607553
-0.00045601522
-0.0002541911
-0.00047615614
-0.0016963871
-0.0028696213
-0.0010363193
-0.0009039275
0.0080942678
0.0083173616
-0.0029947309
-0.0032657896
-0.0026243553
-0.0026812041
-0.0032622599
-0.0021224965
-0.00021396108
0.0036586042
0.011703137
0.0045820247
-0.0034728983
-0.0031181739
-0.0023491611
-0.002656215
-0.0045961268
-0.0045535538
-0.0010286418
0.0015019854
0.0076214723
0.0035700218
-0.0035952898
-0.0029129155
-0.0019055577
-0.0020921037
-0.0046829802
-0.0064101616
-0.0020198837
0.0011683796
0.0069557974
0.0033872166
-0.0035362247
-0.00267237
-0.0014602014
-0.0013672051
-0.0036971897
-0.0053851013
-0.0016980481
0.0011832072
0.0070209134
0.0035066954
-0.0033484061
-0.0024120351
-0.0011127546
-0.00090519263
-0.0031193313
-0.0047663682
-0.0014950074
0.00126679
0.0073086715
0.0038330205
-0.0030353442
-0.0021235798
-0.00083904275
-0.0006393352
-0.0028663908
-0.004550532
-0.0014320901
0.00136667
0.007739711
0.0043956551
-0.002555603
-0.0017908764
-0.00062009349
-0.00051708941
-0.0028358521
-0.0045964677
-0.0014579572
0.0012834494
0.0078977718
0.0051220304
-0.0018484331
-0.0013957098
-0.00045093953
-0.0005284378
-0.0030142602
-0.0049053776
-0.0015776397
0.0004774253
0.0063189907
0.0052945923
-0.00099195421
-0.00096007753
-0.00033661427
-0.00066495885
-0.0033794426
-0.005386518
-0.0017412025
-0.00033725545
0.0036101068
0.0042904829
-0.00020463977
-0.00056114049
-0.00028103899
-0.00088328337
-0.0038043105
-0.0050468484
-0.0013511933
-0.0010044235
0.010008452
0.0099013835
-0.004106426
-0.0043546114
-0.0034844267
-0.0037470471
-0.0052107108
-0.0036737993
-0.00039173207
0.0044747274
0.014331152
0.0054073879
-0.0046590427
-0.0041110884
-0.0030169996
-0.0035685302
-0.0071193265
-0.0072322944
-0.001552145
0.0018773767
0.0093974816
0.0041699725
-0.0047872344
-0.0037978228
-0.0023507605
-0.0026919849
-0.0071681755
-0.009720887
-0.0028773122
0.0014787303
0.0085997413
0.0039593249
-0.004681692
-0.0034429969
-0.0017073238
-0.0016567366
-0.0058078522
-0.0083784526
-0.0024690927
0.0015089655
0.0087166731
0.0041473231
-0.0044019728
-0.0030645576
-0.0012089927
-0.0010010967
-0.0050042883
-0.0075405325
-0.0021978899
0.001641079
0.0091565299
0.0046274164
-0.0039484269
-0.0026504174
-0.00082073467
-0.00063004771
-0.0046598275
-0.0072545557
-0.0021156845
0.0018205835
0.0098503393
0.005456999
-0.003260205
-0.0021779686
-0.00051801323
-0.00047735791
-0.0046550408
-0.0073743439
-0.0021725842
0.0017600902
0.010211592
0.00653921
-0.0022575387
-0.0016237285
-0.0002969959
-0.0005411144
-0.0050065751
-0.0079763818
-0.0024082412
0.00054817305
0.0078928746
0.0067684734
-0.0010963177
-0.0010299439
-0.00016876577
-0.00082410552
-0.0057214011
-0.0089374374
-0.0027380958
-0.00061223988
0.0041645044
0.0053930518
-7.7184187e-05
-0.00049983156
-0.00013080728
-0.0012629405
-0.0065696686
-0.0074754867
-0.0014336074
-0.0011544319
0.011654628
0.011291285
-0.0051523297
-0.0052760674
-0.0041068935
-0.0045212133
-0.0069408129
-0.0052416621
-0.00062259819
0.005167744
0.01661837
0.006090345
-0.005760601
-0.0049292993
-0.003437623
-0.004162448
-0.0093758652
-0.0098042202
-0.0020655246
0.0021547293
0.010896531
0.0046677318
-0.0058744467
-0.0044995022
-0.0025454998
-0.0029735335
-0.0093972384
-0.012909753
-0.0037082055
0.0017004506
0.0099948163
0.0044523245
-0.0057088027
-0.0040245056
-0.0017037351
-0.0016345393
-0.007684489
-0.011283952
-0.0032251906
0.0017492151
0.010174414
0.0047195301
-0.0053305347
-0.0035258877
-0.0010566251
-0.00079206337
-0.0066695614
-0.010248073
-0.002893576
0.0019316293
0.010771382
0.0053571182
-0.0047351882
-0.0029877502
-0.00055873756
-0.00032417615
-0.006245531
-0.0099052365
-0.0027963503
0.0021953955
0.011735808
0.0064534181
-0.0038416601
-0.0023808901
-0.0001806303
-0.00015383878
-0.0062848912
-0.010120908
-0.0028918344
0.0021708062
0.012319061
0.007885027
-0.0025537181
-0.0016773871
7.9487039e-05
-0.00029195132
-0.0068509889
-0.011086919
-0.0032725748
0.00057202725
0.009279382
0.0081447942
-0.0011139831
-0.00094193214
0.00020403991
-0.00075929669
-0.0080113028
-0.012720103
-0.0038510886
-0.00087089917
0.004650971
0.0064052953
0.00010796117
-0.0002986717
0.00020665231
-0.0014736335
-0.0094501841
-0.010049089
-0.0014918984
-0.001311691
0.013142737
0.012538055
-0.0061390105
-0.006055266
-0.0045232426
-0.0050288534
-0.0083892344
-0.0066477605
-0.00083507417
0.0057937446
0.018688833
0.0066694215
-0.0067923728
-0.0056026535
-0.0036509598
-0.0044819302
-0.011321238
-0.012156542
-0.0025369002
0.0023857062
0.012224315
0.0050836746
-0.0068808033
-0.0050518178
-0.0025325818
-0.002982091
-0.011312142
-0.015849551
-0.0044800087
0.0018813226
0.011234453
0.0048763968
-0.0066469426
-0.0044534134
-0.0014936819
-0.0013456423
-0.0092605587
-0.013956601
-0.0039270304
0.0019501313
0.011482522
0.0052291048
-0.0061661769
-0.0038339163
-0.00070040959
-0.00032249835
-0.0080447477
-0.012735766
-0.003539378
0.0021830643
0.012237901
0.0060256369
-0.0054290411
-0.0031739315
-9.7420396e-05
0.00023537382
-0.0075498468
-0.012344477
-0.0034295963
0.0025316532
0.013473183
0.0073863826
-0.0043340047
-0.0024376547
0.00034933064
0.00041449356
-0.0076440455
-0.0126662
-0.0035666412
0.0025476797
0.014284663
0.0091619249
-0.0027694485
-0.0015929154
0.00063957152
0.00018960243
-0.0084441191
-0.014025156
-0.0041037944
0.00057698446
0.010550275
0.0094470614
-0.00106661
-0.00072694285
0.00075003288
-0.00047977868
-0.010091318
-0.016415137
-0.0049678004
-0.0011248416
0.0050828733
0.0073618661
0.00034433601
1.9208326e-05
0.00070913802
-0.0014910758
-0.012193057
-0.012583326
-0.0015492537
-0.0014777589
0.014463867
0.013633368
-0.0070753251
-0.0067111071
-0.0047624915
-0.0053060324
-0.0095698373
-0.0078584203
-0.0010100286
0.0063514849
0.020537504
0.007138743
-0.0077650934
-0.0061516608
-0.0036878581
-0.0045650318
-0.012962538
-0.014257278
-0.0029533432
0.0025713324
0.013377145
0.0054074553
-0.0078210217
-0.0054779049
-0.0023448571
-0.0027563097
-0.012911867
-0.018497295
-0.0051776361
0.0020217349
0.012311591
0.0052167259
-0.0075142025
-0.0047549912
-0.0011113744
-0.00082897603
-0.010531184
-0.016346181
-0.0045571
0.0021114869
0.012631448
0.0056583462
-0.0069291278
-0.0040151179
-0.00017496027
0.00036918747
-0.0091225556
-0.014949224
-0.0041162546
0.0023946991
0.013544793
0.0066133954
-0.0060514154
-0.0032357605
0.00052917023
0.0010117325
-0.0085628206
-0.014514714
-0.00399535
0.0028279091
0.015049083
0.00823483
-0.004759231
-0.0023745733
0.0010395071
0.00119404
-0.008717285
-0.014946047
-0.0041746404
0.0028886995
0.016094516
0.010349451
-0.0029259183
-0.0013950519
0.0013540227
0.00087638461
-0.0097579863
-0.016705203
-0.004870669
0.00056610874
0.011707053
0.010666184
-0.00096991936
-0.00040620969
0.0014447777
-1.1256682e-06
-0.011904313
-0.019878906
-0.0060323283
-0.0013772058
0.0054556415
0.0082605484
0.00062215282
0.00043641541
0.001357199
-0.0013141042
-0.014690845
-0.014954847
-0.0015879627
-0.0016552959
0.015601756
0.014563156
-0.0079675054
-0.0072560927
-0.0048437917
-0.0053746602
-0.010492811
-0.00886357
-0.0011411728
0.0068353295
0.022147367
0.0074879448
-0.0086855272
-0.0065899188
-0.0035687979
-0.0044345933
-0.014304782
-0.016090006
-0.003307893
0.0027084448
0.014341768
0.0056278733
-0.0087036398
-0.0057930403
-0.0020044667
-0.0023202497
-0.014198337
-0.020829832
-0.0057919372
0.0021185223
0.013212085
0.0054601967
-0.0083209677
-0.0049459607
-0.00058010122
-0.00010940414
-0.011497486
-0.018427416
-0.0051055535
0.0022297636
0.013605634
0.0059924328
-0.007631166
-0.004087065
0.00049612029
0.0012583628
-0.0099030089
-0.016861524
-0.0046138181
0.0025626382
0.014675137
0.0071041548
-0.0066149924
-0.0031910046
0.0012979799
0.0019815474
-0.0092825687
-0.016387124
-0.0044826833
0.0030797595
0.016444959
0.0089811294
-0.005130579
-0.0022089839
0.0018683036
0.0021640318
-0.0094990996
-0.016927832
-0.0047037325
0.0031893495
0.017729548
0.011429344
-0.0030363799
-0.001100053
0.002203649
0.0017520338
-0.010779605
-0.019083482
-0.005556897
0.00053844542
0.012739433
0.011788425
-0.0008352508
5.9335918e-06
0.0022722129
0.00066699598
-0.013422417
-0.023041357
-0.007017541
-0.0016282748
0.005763286
0.0090919345
0.00093192788
0.0009402389
0.0021373412
-0.00094432459
-0.016893129
-0.01709545
-0.0015929592
-0.0018450821
0.016544603
0.015316364
-0.0088185167
-0.0076984611
-0.0047804929
-0.0052489606
-0.011163852
-0.0096594746
-0.0012265976
0.0072410265
0.023504796
0.0077095583
-0.0095568119
-0.0069265856
-0.0033084747
-0.0041060405
-0.01535046
-0.017645164
-0.003597161
0.0027950466
0.015108448
0.0057376125
-0.0095326882
-0.0060075553
-0.0015275893
-0.0016909634
-0.015173314
-0.022833376
-0.0063177127
0.0021698223
0.013926044
0.0055985991
-0.0090723398
-0.0050376765
8.2918969e-05
0.00079485568
-0.012161965
-0.020186635
-0.0055671874
0.0023028498
0.014394276
0.0062220847
-0.008278327
-0.0040617559
0.0012952674
0.0023267032
-0.010388411
-0.018458667
-0.0050267776
0.002684406
0.01561695
0.0074875082
-0.0071265405
-0.0030518614
0.0021918028
0.0031273624
-0.0097101735
-0.017946601
-0.0048860146
0.0032841953
0.01764718
0.0096134784
-0.0054554703
-0.0019528721
0.0028195781
0.0033089113
-0.0099880356
-0.018593978
-0.0051476131
0.0034463528
0.019174947
0.012388404
-0.0031088738
-0.00071935463
0.0031740109
0.0028040671
-0.011502761
-0.021136152
-0.0061538868
0.00049312317
0.013637719
0.012801973
-0.00067056791
0.00049891963
0.0032199537
0.0015163241
-0.014631038
-0.025865295
-0.0079096395
-0.0018774401
0.0060010461
0.0098469338
0.0012658346
0.0015206789
0.0030387006
-0.00038548426
-0.018774077
-0.01896946
-0.0015566638
-0.0020468996
0.017284534
0.015885849
-0.0096284209
-0.008043551
-0.0045828639
-0.0049400483
-0.011587393
-0.010245212
-0.0012661114
0.0075656187
0.024600266
0.0077997939
-0.010379064
-0.0071678185
-0.0029185048
-0.0035918862
-0.016101763
-0.018916981
-0.0038195981
0.0028302553
0.015671355
0.0057332984
-0.010308845
-0.0061285612
-0.00092726399
-0.00088282047
-0.015839289
-0.024499282
-0.0067519595
0.0021749156
0.014447716
0.005628047
-0.0097697374
-0.0050380965
0.00086360395
0.001868016
-0.012528583
-0.021616265
-0.0059392833
0.0023298264
0.014990931
0.0063426254
-0.0088727656
-0.0039477422
0.0022079331
0.003557998
-0.010583102
-0.019733432
-0.0053525386
0.0027587372
0.016362706
0.007757769
-0.0075889183
-0.002827188
0.0031961866
0.0044334058
-0.0098493209
-0.019185343
-0.005202602
0.0034393991
0.018646531
0.010124734
-0.0057375685
-0.0016151595
0.0038795062
0.0046141758
-0.010186036
-0.019934949
-0.0055030216
0.003657512
0.020419933
0.013217671
-0.0031480998
-0.00026179827
0.0042523643
0.0040201172
-0.011926101
-0.022849436
-0.0066568498
0.00042981931
0.014394635
0.013697914
-0.00048138181
0.0010641024
0.0042765723
0.0025373957
-0.015523308
-0.028328676
-0.0087007014
-0.0021236675
0.0061658632
0.010518387
0.0016177497
0.0021691244
0.0040508477
0.00035602388
-0.020319828
-0.020557828
-0.0014762849
-0.0022599315
0.017816989
0.016268181
-0.010394905
-0.008294701
-0.0042595348
-0.0044580225
-0.011768193
-0.010621634
-0.0012602867
0.0078072475
0.025428045
0.0077582936
-0.011150015
-0.0073177347
-0.0024088734
-0.0029037707
-0.01656181
-0.019902255
-0.0039746281
0.0028141057
0.016028151
0.0056150022
-0.011030305
-0.0061610605
-0.00021490602
9.0531055e-05
-0.016200218
-0.025822317
-0.007092938
0.0021339892
0.014774866
0.0055482133
-0.010411989
-0.0049530315
0.0017494384
0.0030948352
-0.012603121
-0.022712576
-0.0062205134
0.0023106992
0.01539275
0.0063530282
-0.0094139995
-0.0037514673
0.0032209923
0.0049363278
-0.010493601
-0.020682794
-0.0055899994
0.0027853001
0.016908507
0.0079129165
-0.0080023957
-0.0025238764
0.0042978487
0.0058838373
-0.0097062985
-0.0201001
-0.0054312888
0.0035444735
0.019437379
0.01051134
-0.0059781011
-0.0012030571
0.0050350578
0.0060647562
-0.01009821
-0.020946225
-0.005768401
0.0038214679
0.02145706
0.013911522
-0.003156599
0.00026512563
0.0054262772
0.0053865973
-0.012052281
-0.02421552
-0.0070630199
0.00034872848
0.015005354
0.01447003
-0.0002714842
0.001693765
0.0054304487
0.0037187734
-0.016097676
-0.030417393
-0.0093855831
-0.002365613
0.0062563772
0.011101202
0.0019829238
0.0028776018
0.0051628463
0.0012711768
-0.021523449
-0.021850136
-0.0013515149
-0.0024828738
0.0181405
0.016463381
-0.011113799
-0.0084539449
-0.0038183856
-0.0038130255
-0.011712158
-0.01079122
-0.0012101848
0.0079651
0.025986027
0.0075877966
-0.011865581
-0.0073791414
-0.0017888315
-0.0020535012
-0.016735389
-0.020600131
-0.0040623685
0.0027474774
0.016179734
0.0053858017
-0.011693452
-0.0061087448
0.00059877463
0.0012151705
-0.016262082
-0.026800259
-0.0073398604
0.0020480434
0.014908447
0.0053617747
-0.010996109
-0.004787006
0.0027285444
0.0044596833
-0.012393568
-0.023475048
-0.0064105636
0.0022462893
0.015600081
0.0062552737
-0.0098997566
-0.0034781612
0.0043218259
0.0064451991
-0.010128855
-0.021307133
-0.0057391226
0.0027645791
0.017253647
0.0079539101
-0.0083655254
-0.0021477401
0.0054838072
0.0074619766
-0.0092901117
-0.02069126
-0.0055720412
0.0035993253
0.020017242
0.01077265
-0.0061767054
-0.00072289842
0.0062732204
0.0076443857
-0.0097327706
-0.021627231
-0.0059433946
0.0039375953
0.022281843
0.014467095
-0.0031354968
0.00085455318
0.0066829938
0.0068882845
-0.011887573
-0.025231042
-0.007370989
0.00025050484
0.015467318
0.015114471
-4.3478235e-05
0.0023805579
0.0066693045
0.0050469243
-0.016356869
-0.032122621
-0.0099607907
-0.0026016789
0.0062728047
0.011592178
0.0023576286
0.0036383415
0.0063628965
0.0023485026
-0.022382963
-0.022841216
-0.0011833855
-0.0027139729
0.018256584
0.016474672
-0.011779529
-0.0085225639
-0.0032671617
-0.0030158812
-0.011426878
-0.010758231
-0.0011173193
0.008039401
0.02627564
0.0072938467
-0.01252035
-0.0073541031
-0.0010675092
-0.0010536763
-0.016629474
-0.021012257
-0.0040835968
0.0026320648
0.016130098
0.0050514374
-0.012293384
-0.005974586
0.001503162
0.0024763143
-0.016033341
-0.027434001
-0.0074928493
0.0019188512
0.014852406
0.0050740187
-0.011517866
-0.004543868
0.0037890812
0.0059459998
-0.011910485
-0.023906384
-0.0065100624
0.0021381842
0.015616244
0.006053922
-0.010326566
-0.0031324507
0.0054977486
0.0080670633
-0.009500511
-0.02161015
-0.0058008366
0.002697825
0.017400384
0.0078842537
-0.0086757304
-0.0017041011
0.0067408601
0.0091499015
-0.008612658
-0.020962678
-0.0056258283
0.0036046192
0.020386567
0.010910512
-0.0063319793
-0.00018067185
0.0075805602
0.0093353092
-0.0091010822
-0.021981069
-0.0060287044
0.0040059616
0.02289258
0.01488393
-0.0030849814
0.0014998006
0.008009106
0.0085081741
-0.011441734
-0.025896634
-0.0075805051
0.00013622199
0.015780105
0.015629501
0.00020085032
0.0031171551
0.007979989
0.0065062332
-0.016307495
-0.033439957
-0.010424123
-0.0028300555
0.0062168098
0.011989803
0.0027388694
0.0044435064
0.0076381873
0.0035742179
-0.022900622
-0.023529902
-0.00097380142
-0.0029510439
0.018169673
0.016308261
-0.012385503
-0.0085015177
-0.0026139155
-0.0020785222
-0.010921998
-0.010528931
-0.00098368766
0.0080314131
0.026301777
0.006884541
-0.013107973
-0.0072443739
-0.00025434923
8.1900473e-05
-0.016253613
-0.021143031
-0.00403979
0.0024703589
0.015886213
0.0046200368
-0.012824327
-0.0057612728
0.0024873131
0.0038579319
-0.015525287
-0.02772779
-0.0075529793
0.0017489331
0.014613553
0.0046925478
-0.011972202
-0.0042272251
0.0049188433
0.0075359488
-0.011167301
-0.02401269
-0.0065206078
0.0019887118
0.01544739
0.0057558083
-0.010690181
-0.0027187853
0.0067356364
0.0097830183
-0.0086231584
-0.021598995
-0.0057770482
0.002587029
0.017353797
0.0077096966
-0.0089297145
-0.0011981869
0.0080552577
0.010928211
-0.0076889011
-0.020921755
-0.0055946207
0.003561756
0.020548618
0.010929001
-0.0064418579
0.00041762917
0.0089429562
0.011118122
-0.0082177558
-0.02201454
-0.0060260762
0.0040273108
0.023290252
0.015163745
-0.0030046281
0.0021940749
0.0093903617
0.010227407
-0.010728008
-0.026216869
-0.007692436
7.3463544e-06
0.015945329
0.016015312
0.00046027102
0.0038960292
0.0093483588
0.0080790158
-0.015959933
-0.03436923
-0.010774586
-0.003048756
0.0060913919
0.012294086
0.0031241676
0.0052850099
0.0089748169
0.004932293
-0.023082698
-0.023918636
-0.00072537345
-0.0031914834
0.017887047
0.015973147
-0.012924425
-0.00839178
-0.0018673251
-0.0010142814
-0.010209495
-0.010111778
-0.0008118122
0.0079434331
0.026072714
0.006370302
-0.01362149
-0.0070517297
0.00064058601
0.001337944
-0.015620209
-0.020999826
-0.0039331743
0.0022656281
0.01545792
0.0041018745
-0.013279956
-0.0054715366
0.0035396669
0.0053424953
-0.014752308
-0.027689449
-0.0075223311
0.0015415363
0.014201441
0.0042270352
-0.012353564
-0.0038407607
0.0061049903
0.0092102015
-0.010180537
-0.023803669
-0.006444813
0.0018009185
0.015102389
0.0053698004
-0.010985902
-0.0022417358
0.008021683
0.011572627
-0.007514507
-0.021284424
-0.0056706784
0.0024349031
0.017121685
0.0074380042
-0.0091237632
-0.00063540412
0.0094124941
0.012775883
-0.0065370086
-0.020579559
-0.0054814186
0.0034728592
0.020509381
0.010834205
-0.0065038857
0.0010657679
0.010345435
0.01297168
-0.0071007394
-0.02173823
-0.0059383196
0.0040030534
0.023478462
0.015310262
-0.0028936314
0.0029302779
0.010811547
0.012025231
-0.0097631664
-0.026200315
-0.0077087838
-0.00013428318
0.015966568
0.016273877
0.00073391532
0.0047092961
0.010759203
0.0097455225
-0.015328341
-0.034914529
-0.011012403
-0.0032556453
0.00590079
0.012506419
0.0035113943
0.0061543877
0.010357741
0.0064044747
-0.022939465
-0.024013399
-0.00044136422
-0.0034322841
0.01741875
0.015480912
-0.013388581
-0.0081945991
-0.0010369184
0.00016191805
-0.0093038548
-0.0095175688
-0.00060477291
0.0077787801
0.025600017
0.0057636536
-0.014053605
-0.0067782221
0.0016064031
0.0026975135
-0.014744704
-0.020593154
-0.0037667661
0.0020218937
0.014857802
0.0035091438
-0.013653677
-0.0051083964
0.004647851
0.0069108307
-0.013732046
-0.027330542
-0.0074040356
0.0013006078
0.013628248
0.0036889988
-0.012656168
-0.0033884666
0.0073338739
0.010947815
-0.0089699358
-0.023292756
-0.0062863432
0.0015785444
0.014592707
0.004906581
-0.011208828
-0.0017062104
0.00934125
0.013413825
-0.0061954932
-0.020680916
-0.0054856933
0.0022448592
0.016714451
0.0070787543
-0.009253982
-2.1531156e-05
0.010797183
0.014670218
-0.0051784274
-0.019950919
-0.0052902766
0.0033407587
0.020277476
0.010634052
-0.0065154286
0.0017570992
0.011772079
0.014873068
-0.0057713664
-0.021166593
-0.0057693309
0.0039352562
0.023463364
0.015329056
-0.0027509875
0.0037008714
0.012256426
0.013878997
-0.0085675395
-0.025859608
-0.0076327078
-0.00028647432
0.015849285
0.01640882
0.0010211246
0.0055486076
0.012196206
0.011483956
-0.014430667
-0.035084278
-0.011139036
-0.0034484675
0.0056503909
0.012629455
0.003898638
0.0070427076
0.011770749
0.0079703087
-0.022485224
-0.023823723
-0.00012567144
-0.0036700509
0.016777474
0.014845502
-0.013770081
-0.0079117038
-0.00013322312
0.0014334582
-0.0082221685
-0.0087595181
-0.00036622693
0.0075417711
0.024898394
0.0050789864
-0.014396938
-0.0064263758
0.002631242
0.0041419271
-0.013645674
-0.019936765
-0.0035443964
0.0017438958
0.014101037
0.0028557223
-0.01393886
-0.0046753447
0.005798564
0.0085420582
-0.012485473
-0.02666646
-0.0072022987
0.001030761
0.012908615
0.0030915729
-0.012874231
-0.0028748144
0.008590939
0.012726199
-0.0075585084
-0.022497186
-0.0060499343
0.001325991
0.013932257
0.0043784291
-0.011354076
-0.0011176092
0.010678788
0.015282909
-0.0046902977
-0.019806721
-0.0052271178
0.0020209796
0.016144974
0.0066431343
-0.0093164957
0.00063714571
0.012193003
0.01658684
-0.0036378837
-0.019054463
-0.0050263143
0.0031689677
0.019864045
0.010338126
-0.0064738523
0.0024844551
0.013205988
0.016797626
-0.0042543397
-0.020317971
-0.0055241014
0.0038266256
0.023253574
0.015227406
-0.0025756451
0.0044977862
0.01370772
0.015764207
-0.0071649874
-0.025211481
-0.0074685367
-0.00044670281
0.01560074
0.016425292
0.0013213228
0.0064050798
0.013641946
0.013270522
-0.013288638
-0.034891288
-0.011157212
-0.0036248723
0.0053466324
0.012666985
0.0042840943
0.0079405097
0.01319647
0.0096071888
-0.021738304
-0.023362709
0.00021718259
-0.0039010255
0.015978411
0.014082979
-0.014061094
-0.0075454651
0.00083214577
0.0027819973
-0.0069841451
-0.0078532748
-0.00010041315
0.00723768
0.023985518
0.0043323017
-0.014644246
-0.0059993414
0.0037022033
0.0056507533
-0.012344827
-0.019047662
-0.003270718
0.0014370457
0.013205192
0.00215692
-0.014129064
-0.0041764878
0.0069775207
0.01021361
-0.011036861
-0.025716429
-0.006922404
0.00073722827
0.012059459
0.0024492643
-0.013002179
-0.002304882
0.0098606878
0.014521155
-0.0059724795
-0.021437975
-0.0057413891
0.0010482773
0.013137222
0.0037989875
-0.011416977
-0.00048193577
0.012017818
0.017154596
-0.0030262763
-0.018683818
-0.0049010274
0.0017679774
0.015428436
0.0061437236
-0.0093076267
0.0013337382
0.013582693
0.01849978
-0.0019432977
-0.017912564
-0.0046957064
0.002961649
0.019282597
0.009957472
-0.0063766801
0.0032400691
0.014629296
0.018719047
-0.0025776369
-0.019214547
-0.0052087071
0.0036804814
0.022860048
0.015014125
-0.0023666407
0.0053123636
0.015147144
0.017654611
-0.005582808
-0.024276723
-0.007221763
-0.00061213873
0.015229881
0.016329819
0.0016339048
0.0072692509
0.015077935
0.015079537
-0.011927674
-0.034352748
-0.01107093
-0.0037824436
0.0049968945
0.012623813
0.0046659696
0.0088377749
0.014616415
0.011290452
-0.020721009
-0.022647003
0.00058206714
-0.0041211179
0.015039055
0.013211244
-0.014254071
-0.0070990258
0.0018464497
0.0041875075
-0.0056120479
-0.0068168756
0.00018785888
0.0068726807
0.022881779
0.0035409271
-0.014788644
-0.005501015
0.0048053276
0.0072018731
-0.010866919
-0.017946051
-0.0029511924
0.0011073652
0.01218999
0.0014292022
-0.014218238
-0.0036166529
0.00816945
0.011901317
-0.0094136704
-0.024503421
-0.0065706922
0.00042580246
0.011099737
0.0017776854
-0.013034839
-0.0016844467
0.011126695
0.016306989
-0.0042411465
-0.02013981
-0.0053675508
0.00075098285
0.012225823
0.003183008
-0.011393253
0.00019412542
0.013340964
0.019002154
-0.0012337985
-0.017337804
-0.004514518
0.001491143
0.01458211
0.0055942537
-0.0092240604
0.002060694
0.0149481
0.020381621
-0.00012561154
-0.016551219
-0.0043056493
0.0027235681
0.018548823
0.0095043756
-0.0062217397
0.0040155302
0.016023233
0.020609527
-0.00077233196
-0.017882215
-0.0048302764
0.00350072
0.022295919
0.014699369
-0.0021232236
0.0061353261
0.016555473
0.019522371
-0.0038515594
-0.023080061
-0.0068990162
-0.00077967913
0.014747201
0.016130148
0.0019581322
0.0081310652
0.016484699
0.016883579
-0.010376728
-0.033490139
-0.010885447
-0.0039187305
0.0046093743
0.01250561
0.0050423934
0.0097239174
0.016011062
0.012993528
-0.019459484
-0.02169671
0.00096327014
-0.0043259496
0.013978958
0.012249713
-0.014341966
-0.0065764032
0.0028958344
0.005628374
-0.0041305561
-0.0056706354
0.00049323566
0.0064537698
0.021609996
0.0027232015
-0.014823815
-0.0049361311
0.0059256194
0.0087716047
-0.0092395879
-0.016655205
-0.0025920586
0.00076140917
0.011077012
0.00068988409
-0.014200923
-0.0030014672
0.0093581376
0.013579566
-0.0076463415
-0.023053988
-0.0061545176
0.00010276215
0.010050167
0.0010932605
-0.012967629
-0.0010200493
0.012371669
0.018056686
-0.0023966488
-0.018630859
-0.0049362514
0.00044017652
0.011218054
0.0025460697
-0.011279194
0.00090315876
0.014630028
0.020797594
0.00065399875
-0.015797677
-0.0040756505
0.0011962769
0.013625103
0.0050093422
-0.0090630031
0.0028097616
0.016270272
0.022203695
0.0017814686
-0.01499983
-0.0038643048
0.0024600332
0.017680358
0.0089921191
-0.0060073039
0.0048017619
0.017368225
0.022439977
0.0011276675
-0.016350362
-0.0043969336
0.003291764
0.021576295
0.014294423
-0.0018449747
0.0069567707
0.017912655
0.021338274
-0.0020048008
-0.021649957
-0.0065080116
-0.00094598806
0.014164572
0.015835058
0.0022930364
0.0089798794
0.017841893
0.018653708
-0.0086680427
-0.032329064
-0.01060724
-0.0040312823
0.0041929422
0.012318769
0.005411337
0.010587799
0.017359969
0.014688147
-0.017983503
-0.020535239
0.0013545385
-0.0045109074
0.012819439
0.011218962
-0.01431845
-0.0059825718
0.0039653749
0.0070815456
-0.0025665593
-0.0044369771
0.00080986177
0.0059886721
0.020195062
0.0018981289
-0.014744215
-0.0043103344
0.0070471083
0.010334883
-0.007493106
-0.015201258
-0.0022002811
0.00040617441
0.0098893642
-4.3201891e-05
-0.014072451
-0.0023374168
0.010526505
0.015221503
-0.0057680104
-0.021398008
-0.0056821803
-0.0002252166
0.0089328982
0.00041290534
-0.012796741
-0.00031903953
0.013577546
0.01974214
-0.00047365562
-0.01694249
-0.0044562372
0.00012233105
0.010135363
0.0019042719
-0.011071824
0.0016369873
0.015866102
0.022511916
0.0026015401
-0.01409555
-0.0035933726
0.00088960836
0.012578053
0.0044042002
-0.008822337
0.0035719735
0.017529579
0.023936348
0.0037418111
-0.013290908
-0.0033807198
0.00217682
0.016696493
0.0084347091
-0.0057322275
0.0055890208
0.018644031
0.024180294
0.0030859639
-0.014651571
-0.0039177191
0.0030585001
0.02071801
0.013811457
-0.0015319235
0.0077661819
0.019197956
0.023072005
-7.8751705e-05
-0.020018315
-0.006057475
-0.0011075444
0.013495042
0.015454159
0.002637323
0.0098044875
0.019128455
0.020359731
-0.0068368281
-0.030898993
-0.010243949
-0.0041176873
0.0037569792
0.012070225
0.0057705346
0.011417764
0.018641935
0.016344598
-0.016326173
-0.019189081
0.0017491325
-0.0046712095
0.011583242
0.010140338
-0.014178135
-0.0053235314
0.0050391479
0.0085227303
-0.00094889307
-0.0031402066
0.0011314363
0.0054857273
0.018663545
0.001085003
-0.014545288
-0.0036302375
0.0081529379
0.011865485
-0.0056600654
-0.013612934
-0.0017834808
4.8992545e-05
0.0086512922
-0.00075206581
-0.013829135
-0.0016318904
0.011656716
0.016799288
-0.0038141498
-0.019568352
-0.0051628369
-0.00055116272
0.0077711414
-0.00024631848
-0.012519321
0.00041039556
0.014725615
0.021334429
0.0014910181
-0.015108916
-0.003937072
-0.00019577621
0.0090002923
0.0012739016
-0.010769074
0.0023866578
0.017029706
0.024115396
0.004571211
-0.012266283
-0.0030774184
0.00057769988
0.011462782
0.0037943146
-0.0085007727
0.004337646
0.018705866
0.02554924
0.0057172685
-0.011459693
-0.0028647246
0.0018800838
0.01561786
0.0078465783
-0.0053960838
0.0063669093
0.019829907
0.025799666
0.0050640849
-0.012821242
-0.0034024872
0.0028062033
0.01973934
0.013263258
-0.0011846645
0.0085524576
0.020390136
0.024692461
0.0018881216
-0.018220117
-0.0055570453
-0.0012606977
0.012752604
0.014997662
0.0029892771
0.01059316
0.020322781
0.021970519
-0.0049208571
-0.029232926
-0.0098042907
-0.0041756149
0.003311194
0.011767275