/*--------------------------------*- C++ -*----------------------------------*\
| =========                 |                                                 |
| \\      /  F ield         | OpenFOAM: The Open Source CFD Toolbox           |
|  \\    /   O peration     | Version:  v2106                                 |
|   \\  /    A nd           | Website:  www.openfoam.com                      |
|    \\/     M anipulation  |                                                 |
\*---------------------------------------------------------------------------*/
FoamFile
{
    version     2.0;
    format      ascii;
    arch        "LSB;label=32;scalar=64";
    class       volScalarField;
    location    "20";
    object      T;
}
// * * * * * * * * * * * * * * * * * * * * * * * * * * * * * * * * * * * * * //

dimensions      [0 0 0 1 0 0 0];

internalField   nonuniform List<scalar> 
4000
(
274.36785
274.36784
274.36787
274.36787
274.36787
274.36786
274.36786
274.36786
274.36785
274.36785
274.36784
274.36786
274.36788
274.36788
274.36787
274.36787
274.36787
274.36786
274.36786
274.36785
274.36787
274.36788
274.3679
274.3679
274.36789
274.36789
274.36789
274.36788
274.36788
274.36787
274.36787
274.36788
274.3679
274.36789
274.36788
274.36788
274.36788
274.36788
274.36787
274.36787
274.36787
274.36787
274.36789
274.36788
274.36788
274.36788
274.36788
274.36788
274.36787
274.36786
274.36786
274.36787
274.36789
274.36788
274.36788
274.36788
274.36788
274.36787
274.36787
274.36786
274.36786
274.36787
274.36789
274.36788
274.36788
274.36788
274.36787
274.36787
274.36787
274.36786
274.36786
274.36786
274.36788
274.36788
274.36788
274.36787
274.36787
274.36787
274.36787
274.36786
274.36785
274.36786
274.36788
274.36787
274.36787
274.36787
274.36787
274.36787
274.36787
274.36786
274.36785
274.36785
274.36787
274.36787
274.36786
274.36786
274.36786
274.36786
274.36786
274.36785
279.72876
279.72873
279.72887
279.72885
279.72883
279.72881
279.7288
279.72878
279.72876
279.72876
279.72873
279.7288
279.72889
279.72887
279.72885
279.72883
279.72882
279.7288
279.72877
279.72875
279.72887
279.72889
279.72897
279.72894
279.72892
279.72891
279.7289
279.72888
279.72885
279.72881
279.72885
279.72887
279.72894
279.72892
279.7289
279.72889
279.72888
279.72887
279.72884
279.72881
279.72883
279.72885
279.72892
279.7289
279.72888
279.72887
279.72886
279.72886
279.72883
279.72881
279.72881
279.72883
279.72891
279.72889
279.72887
279.72886
279.72886
279.72885
279.72883
279.7288
279.7288
279.72882
279.7289
279.72888
279.72886
279.72886
279.72885
279.72885
279.72883
279.7288
279.72878
279.7288
279.72888
279.72887
279.72886
279.72885
279.72885
279.72884
279.72882
279.72879
279.72876
279.72877
279.72885
279.72884
279.72883
279.72883
279.72883
279.72882
279.7288
279.72877
279.72876
279.72875
279.72881
279.72881
279.72881
279.7288
279.7288
279.72879
279.72877
279.72874
285.09331
285.09328
285.09347
285.09345
285.09341
285.09338
285.09336
285.09333
285.09329
285.09329
285.09328
285.09339
285.09352
285.09348
285.09345
285.09342
285.0934
285.09337
285.09331
285.09328
285.09347
285.09352
285.09362
285.09359
285.09355
285.09353
285.09351
285.09349
285.09342
285.09336
285.09345
285.09348
285.09359
285.09355
285.09352
285.0935
285.09349
285.09347
285.09341
285.09336
285.09341
285.09345
285.09355
285.09352
285.09349
285.09347
285.09346
285.09345
285.0934
285.09336
285.09338
285.09342
285.09353
285.0935
285.09347
285.09346
285.09345
285.09344
285.0934
285.09335
285.09336
285.0934
285.09351
285.09349
285.09346
285.09345
285.09345
285.09344
285.09339
285.09335
285.09333
285.09337
285.09349
285.09347
285.09345
285.09344
285.09344
285.09343
285.09338
285.09333
285.09329
285.09331
285.09342
285.09341
285.0934
285.0934
285.09339
285.09338
285.09333
285.09327
285.09329
285.09328
285.09336
285.09336
285.09336
285.09335
285.09335
285.09333
285.09327
285.09323
290.48167
290.48164
290.48187
290.48184
290.48179
290.48175
290.48172
290.48168
290.48162
290.48161
290.48164
290.48178
290.48193
290.48189
290.48184
290.4818
290.48178
290.48173
290.48163
290.48159
290.48187
290.48193
290.48206
290.48201
290.48197
290.48194
290.48192
290.48188
290.48178
290.48169
290.48184
290.48189
290.48201
290.48197
290.48192
290.4819
290.48189
290.48186
290.48177
290.4817
290.48179
290.48184
290.48197
290.48192
290.48188
290.48186
290.48185
290.48184
290.48175
290.48169
290.48175
290.4818
290.48194
290.4819
290.48186
290.48184
290.48184
290.48183
290.48175
290.48169
290.48172
290.48178
290.48192
290.48189
290.48185
290.48184
290.48184
290.48183
290.48175
290.48169
290.48168
290.48173
290.48188
290.48186
290.48184
290.48183
290.48183
290.48182
290.48173
290.48166
290.48162
290.48163
290.48178
290.48177
290.48175
290.48175
290.48175
290.48173
290.48164
290.48155
290.48161
290.48159
290.48169
290.4817
290.48169
290.48169
290.48169
290.48166
290.48155
290.48151
295.9132
295.91317
295.91344
295.91339
295.91333
295.91329
295.91325
295.9132
295.91311
295.91309
295.91317
295.91332
295.9135
295.91344
295.91339
295.91335
295.91332
295.91326
295.91313
295.91307
295.91344
295.9135
295.91365
295.91359
295.91354
295.9135
295.91349
295.91344
295.9133
295.91319
295.91339
295.91344
295.91359
295.91353
295.91348
295.91345
295.91345
295.91342
295.91329
295.9132
295.91333
295.91339
295.91354
295.91348
295.91343
295.91341
295.91341
295.91339
295.91328
295.91319
295.91329
295.91335
295.9135
295.91345
295.91341
295.91339
295.9134
295.91339
295.91327
295.91319
295.91325
295.91332
295.91349
295.91345
295.91341
295.9134
295.9134
295.91339
295.91328
295.91319
295.9132
295.91326
295.91344
295.91342
295.91339
295.91339
295.91339
295.91338
295.91326
295.91316
295.91311
295.91313
295.9133
295.91329
295.91328
295.91327
295.91328
295.91326
295.91312
295.913
295.91309
295.91307
295.91319
295.9132
295.91319
295.91319
295.91319
295.91316
295.913
295.91296
301.40638
301.40634
301.40665
301.40659
301.40652
301.40647
301.40643
301.40637
301.40627
301.40624
301.40634
301.40652
301.40672
301.40665
301.40658
301.40654
301.40651
301.40645
301.40628
301.40621
301.40665
301.40672
301.40689
301.40682
301.40675
301.40672
301.4067
301.40666
301.40648
301.40634
301.40659
301.40665
301.40682
301.40675
301.40669
301.40666
301.40666
301.40663
301.40647
301.40635
301.40652
301.40658
301.40675
301.40669
301.40663
301.40661
301.40662
301.4066
301.40646
301.40635
301.40647
301.40654
301.40672
301.40666
301.40661
301.4066
301.40661
301.4066
301.40646
301.40635
301.40643
301.40651
301.4067
301.40666
301.40662
301.40661
301.40662
301.40662
301.40647
301.40636
301.40637
301.40645
301.40666
301.40663
301.4066
301.4066
301.40662
301.4066
301.40645
301.40632
301.40627
301.40628
301.40648
301.40647
301.40646
301.40646
301.40647
301.40645
301.40627
301.40612
301.40624
301.40621
301.40634
301.40635
301.40635
301.40635
301.40636
301.40632
301.40612
301.40607
306.97871
306.97867
306.979
306.97894
306.97886
306.9788
306.97876
306.9787
306.97857
306.97854
306.97867
306.97886
306.97908
306.979
306.97892
306.97888
306.97885
306.97878
306.97859
306.9785
306.979
306.97908
306.97927
306.97918
306.97911
306.97908
306.97906
306.97902
306.97881
306.97865
306.97894
306.979
306.97918
306.9791
306.97903
306.97901
306.97901
306.97899
306.9788
306.97866
306.97886
306.97892
306.97911
306.97903
306.97897
306.97895
306.97897
306.97896
306.97879
306.97866
306.9788
306.97888
306.97908
306.97901
306.97895
306.97894
306.97896
306.97896
306.97879
306.97867
306.97876
306.97885
306.97906
306.97901
306.97897
306.97896
306.97899
306.97899
306.97882
306.97869
306.9787
306.97878
306.97902
306.97899
306.97896
306.97896
306.97899
306.97898
306.97879
306.97865
306.97857
306.97859
306.97881
306.9788
306.97879
306.97879
306.97882
306.97879
306.97858
306.9784
306.97854
306.9785
306.97865
306.97866
306.97866
306.97867
306.97869
306.97865
306.9784
306.97835
312.64658
312.64653
312.64689
312.64682
312.64673
312.64668
312.64664
312.64657
312.64643
312.64639
312.64653
312.64674
312.64697
312.64689
312.6468
312.64675
312.64673
312.64667
312.64644
312.64634
312.64689
312.64697
312.64718
312.64709
312.64701
312.64697
312.64697
312.64692
312.64668
312.64651
312.64682
312.64689
312.64709
312.647
312.64692
312.6469
312.64691
312.64689
312.64668
312.64653
312.64673
312.6468
312.64701
312.64692
312.64685
312.64684
312.64686
312.64686
312.64666
312.64653
312.64668
312.64675
312.64697
312.6469
312.64684
312.64683
312.64686
312.64687
312.64668
312.64654
312.64664
312.64673
312.64697
312.64691
312.64686
312.64686
312.6469
312.64691
312.64671
312.64657
312.64657
312.64667
312.64692
312.64689
312.64686
312.64687
312.64691
312.64691
312.64669
312.64653
312.64643
312.64644
312.64668
312.64668
312.64666
312.64668
312.64671
312.64669
312.64644
312.64623
312.64639
312.64634
312.64651
312.64653
312.64653
312.64654
312.64657
312.64653
312.64623
312.64618
318.4252
318.42515
318.42553
318.42545
318.42536
318.4253
318.42526
318.4252
318.42504
318.425
318.42515
318.42537
318.42562
318.42552
318.42543
318.42538
318.42536
318.4253
318.42505
318.42495
318.42553
318.42562
318.42584
318.42573
318.42565
318.42561
318.42562
318.42558
318.42531
318.42512
318.42545
318.42552
318.42573
318.42563
318.42555
318.42553
318.42555
318.42555
318.42531
318.42514
318.42536
318.42543
318.42565
318.42555
318.42548
318.42547
318.42551
318.42552
318.4253
318.42515
318.4253
318.42538
318.42561
318.42553
318.42547
318.42547
318.42551
318.42553
318.42532
318.42517
318.42526
318.42536
318.42562
318.42555
318.42551
318.42551
318.42556
318.42558
318.42536
318.42521
318.4252
318.4253
318.42558
318.42555
318.42552
318.42553
318.42558
318.42559
318.42535
318.42517
318.42504
318.42505
318.42531
318.42531
318.4253
318.42532
318.42536
318.42535
318.42507
318.42483
318.425
318.42495
318.42512
318.42514
318.42515
318.42517
318.42521
318.42517
318.42483
318.42479
324.32851
324.32845
324.32886
324.32877
324.32866
324.32861
324.32857
324.32851
324.32834
324.3283
324.32845
324.32868
324.32894
324.32883
324.32873
324.32869
324.32868
324.32862
324.32835
324.32824
324.32886
324.32894
324.32917
324.32906
324.32896
324.32893
324.32895
324.32892
324.32863
324.32843
324.32877
324.32883
324.32906
324.32895
324.32886
324.32885
324.32888
324.32888
324.32863
324.32845
324.32866
324.32873
324.32896
324.32886
324.32879
324.32878
324.32883
324.32885
324.32862
324.32846
324.32861
324.32869
324.32893
324.32885
324.32878
324.32879
324.32885
324.32888
324.32865
324.32849
324.32857
324.32868
324.32895
324.32888
324.32883
324.32885
324.32891
324.32894
324.32871
324.32854
324.32851
324.32862
324.32892
324.32888
324.32885
324.32888
324.32894
324.32896
324.3287
324.3285
324.32834
324.32835
324.32863
324.32863
324.32862
324.32865
324.32871
324.3287
324.32839
324.32813
324.3283
324.32824
324.32843
324.32845
324.32846
324.32849
324.32854
324.3285
324.32813
324.32809
330.36909
330.36902
330.36944
330.36934
330.36923
330.36918
330.36915
330.36909
330.36891
330.36888
330.36902
330.36925
330.36953
330.36941
330.3693
330.36926
330.36926
330.3692
330.36892
330.3688
330.36944
330.36953
330.36976
330.36964
330.36954
330.36952
330.36954
330.36952
330.36921
330.369
330.36934
330.36941
330.36964
330.36952
330.36943
330.36942
330.36947
330.36948
330.36921
330.36903
330.36923
330.3693
330.36954
330.36943
330.36935
330.36936
330.36942
330.36945
330.36921
330.36904
330.36918
330.36926
330.36952
330.36942
330.36936
330.36937
330.36944
330.36949
330.36925
330.36908
330.36915
330.36926
330.36954
330.36947
330.36942
330.36944
330.36952
330.36956
330.36932
330.36914
330.36909
330.3692
330.36952
330.36948
330.36945
330.36949
330.36956
330.36959
330.36932
330.36911
330.36891
330.36892
330.36921
330.36921
330.36921
330.36925
330.36932
330.36932
330.36899
330.36871
330.36888
330.3688
330.369
330.36903
330.36904
330.36908
330.36914
330.36911
330.36871
330.36867
336.55808
336.55801
336.55845
336.55834
336.55822
336.55817
336.55815
336.55809
336.55791
336.55788
336.55801
336.55825
336.55853
336.5584
336.55829
336.55825
336.55826
336.55821
336.55792
336.5578
336.55845
336.55853
336.55877
336.55864
336.55854
336.55851
336.55855
336.55854
336.55822
336.558
336.55834
336.5584
336.55864
336.55851
336.55842
336.55841
336.55847
336.5585
336.55822
336.55803
336.55822
336.55829
336.55854
336.55842
336.55834
336.55835
336.55842
336.55848
336.55822
336.55805
336.55817
336.55825
336.55851
336.55841
336.55835
336.55837
336.55846
336.55852
336.55827
336.5581
336.55815
336.55826
336.55855
336.55847
336.55842
336.55846
336.55855
336.55861
336.55836
336.55818
336.55809
336.55821
336.55854
336.5585
336.55848
336.55852
336.55861
336.55866
336.55837
336.55815
336.55791
336.55792
336.55822
336.55822
336.55822
336.55827
336.55836
336.55837
336.55803
336.55773
336.55788
336.5578
336.558
336.55803
336.55805
336.5581
336.55818
336.55815
336.55773
336.55769
342.90519
342.90511
342.90555
342.90544
342.90532
342.90526
342.90525
342.9052
342.90502
342.90499
342.90511
342.90535
342.90563
342.90549
342.90538
342.90535
342.90536
342.90532
342.90503
342.9049
342.90555
342.90563
342.90587
342.90573
342.90563
342.90561
342.90566
342.90566
342.90534
342.90511
342.90544
342.90549
342.90573
342.90559
342.9055
342.9055
342.90558
342.90562
342.90534
342.90514
342.90532
342.90538
342.90563
342.9055
342.90542
342.90544
342.90553
342.9056
342.90534
342.90517
342.90526
342.90535
342.90561
342.9055
342.90544
342.90547
342.90557
342.90565
342.9054
342.90523
342.90525
342.90536
342.90566
342.90558
342.90553
342.90557
342.90568
342.90576
342.9055
342.90532
342.9052
342.90532
342.90566
342.90562
342.9056
342.90565
342.90576
342.90582
342.90553
342.9053
342.90502
342.90503
342.90534
342.90534
342.90534
342.9054
342.9055
342.90553
342.90518
342.90486
342.90499
342.9049
342.90511
342.90514
342.90517
342.90523
342.90532
342.9053
342.90486
342.90483
349.41855
349.41846
349.41891
349.41879
349.41867
349.41862
349.41861
349.41858
349.4184
349.41837
349.41846
349.4187
349.41899
349.41884
349.41873
349.4187
349.41872
349.4187
349.4184
349.41827
349.41891
349.41899
349.41923
349.41908
349.41898
349.41897
349.41903
349.41904
349.41871
349.41849
349.41879
349.41884
349.41908
349.41893
349.41884
349.41885
349.41894
349.419
349.41872
349.41852
349.41867
349.41873
349.41898
349.41884
349.41876
349.41879
349.4189
349.41898
349.41872
349.41855
349.41862
349.4187
349.41897
349.41885
349.41879
349.41883
349.41895
349.41904
349.41879
349.41863
349.41861
349.41872
349.41903
349.41894
349.4189
349.41895
349.41908
349.41917
349.41891
349.41873
349.41858
349.4187
349.41904
349.419
349.41898
349.41904
349.41917
349.41925
349.41896
349.41872
349.4184
349.4184
349.41871
349.41872
349.41872
349.41879
349.41891
349.41896
349.41859
349.41827
349.41837
349.41827
349.41849
349.41852
349.41855
349.41863
349.41873
349.41872
349.41827
349.41825
356.10477
356.10468
356.10513
356.105
356.10487
356.10483
356.10483
356.10481
356.10463
356.10461
356.10468
356.10491
356.1052
356.10504
356.10492
356.1049
356.10494
356.10493
356.10463
356.10451
356.10513
356.1052
356.10544
356.10528
356.10517
356.10517
356.10524
356.10528
356.10495
356.10472
356.105
356.10504
356.10528
356.10513
356.10503
356.10505
356.10515
356.10523
356.10495
356.10476
356.10487
356.10492
356.10517
356.10503
356.10495
356.10499
356.10511
356.10522
356.10496
356.10479
356.10483
356.1049
356.10517
356.10505
356.10499
356.10504
356.10518
356.10529
356.10505
356.10488
356.10483
356.10494
356.10524
356.10515
356.10511
356.10518
356.10532
356.10544
356.10518
356.105
356.10481
356.10493
356.10528
356.10523
356.10522
356.10529
356.10544
356.10553
356.10524
356.10501
356.10463
356.10463
356.10495
356.10495
356.10496
356.10505
356.10518
356.10524
356.10487
356.10454
356.10461
356.10451
356.10472
356.10476
356.10479
356.10488
356.105
356.10501
356.10454
356.10453
362.96887
362.96876
362.96922
362.96907
362.96895
362.96891
362.96893
362.96891
362.96874
362.96872
362.96876
362.969
362.96928
362.96911
362.969
362.96898
362.96903
362.96903
362.96873
362.96862
362.96922
362.96928
362.96951
362.96935
362.96924
362.96924
362.96933
362.96938
362.96906
362.96884
362.96907
362.96911
362.96935
362.96919
362.96909
362.96912
362.96924
362.96934
362.96906
362.96887
362.96895
362.969
362.96924
362.96909
362.96902
362.96906
362.9692
362.96933
362.96908
362.96891
362.96891
362.96898
362.96924
362.96912
362.96906
362.96912
362.96928
362.96941
362.96917
362.96901
362.96893
362.96903
362.96933
362.96924
362.9692
362.96928
362.96944
362.96957
362.96932
362.96915
362.96891
362.96903
362.96938
362.96934
362.96933
362.96941
362.96957
362.96969
362.9694
362.96917
362.96874
362.96873
362.96906
362.96906
362.96908
362.96917
362.96932
362.9694
362.96903
362.9687
362.96872
362.96862
362.96884
362.96887
362.96891
362.96901
362.96915
362.96917
362.9687
362.9687
370.01427
370.01416
370.01461
370.01446
370.01433
370.0143
370.01433
370.01433
370.01416
370.01415
370.01416
370.01439
370.01466
370.01449
370.01437
370.01436
370.01442
370.01444
370.01415
370.01404
370.01461
370.01466
370.01489
370.01472
370.01461
370.01462
370.01473
370.01479
370.01448
370.01426
370.01446
370.01449
370.01472
370.01455
370.01446
370.01449
370.01463
370.01475
370.01448
370.0143
370.01433
370.01437
370.01461
370.01446
370.01438
370.01444
370.0146
370.01474
370.0145
370.01435
370.0143
370.01436
370.01462
370.01449
370.01444
370.01451
370.01468
370.01484
370.01461
370.01446
370.01433
370.01442
370.01473
370.01463
370.0146
370.01468
370.01486
370.01502
370.01477
370.01461
370.01433
370.01444
370.01479
370.01475
370.01474
370.01484
370.01502
370.01515
370.01487
370.01465
370.01416
370.01415
370.01448
370.01448
370.0145
370.01461
370.01477
370.01487
370.01451
370.01417
370.01415
370.01404
370.01426
370.0143
370.01435
370.01446
370.01461
370.01465
370.01417
370.01418
377.24283
377.24271
377.24315
377.24299
377.24287
377.24284
377.24289
377.2429
377.24275
377.24274
377.24271
377.24293
377.24319
377.24302
377.2429
377.2429
377.24297
377.24301
377.24273
377.24263
377.24315
377.24319
377.24341
377.24324
377.24313
377.24315
377.24327
377.24336
377.24305
377.24284
377.24299
377.24302
377.24324
377.24307
377.24298
377.24302
377.24317
377.24331
377.24305
377.24288
377.24287
377.2429
377.24313
377.24298
377.2429
377.24297
377.24314
377.24331
377.24308
377.24294
377.24284
377.2429
377.24315
377.24302
377.24297
377.24305
377.24324
377.24342
377.2432
377.24306
377.24289
377.24297
377.24327
377.24317
377.24314
377.24324
377.24344
377.24361
377.24338
377.24323
377.2429
377.24301
377.24336
377.24331
377.24331
377.24342
377.24361
377.24377
377.2435
377.24328
377.24275
377.24273
377.24305
377.24305
377.24308
377.2432
377.24338
377.2435
377.24315
377.24281
377.24274
377.24263
377.24284
377.24288
377.24294
377.24306
377.24323
377.24328
377.24281
377.24283
384.65484
384.65471
384.65514
384.65498
384.65485
384.65484
384.65489
384.65492
384.65478
384.65478
384.65471
384.65492
384.65517
384.65499
384.65487
384.65488
384.65497
384.65502
384.65475
384.65467
384.65514
384.65517
384.65538
384.6552
384.6551
384.65513
384.65526
384.65536
384.65507
384.65487
384.65498
384.65499
384.6552
384.65503
384.65494
384.65499
384.65516
384.65532
384.65508
384.65492
384.65485
384.65487
384.6551
384.65494
384.65487
384.65494
384.65514
384.65532
384.65511
384.65498
384.65484
384.65488
384.65513
384.65499
384.65494
384.65503
384.65524
384.65544
384.65524
384.65511
384.65489
384.65497
384.65526
384.65516
384.65514
384.65524
384.65546
384.65565
384.65544
384.6553
384.65492
384.65502
384.65536
384.65532
384.65532
384.65544
384.65565
384.65583
384.65558
384.65537
384.65478
384.65475
384.65507
384.65508
384.65511
384.65524
384.65544
384.65558
384.65523
384.65491
384.65478
384.65467
384.65487
384.65492
384.65498
384.65511
384.6553
384.65537
384.65491
384.65494
392.24905
392.24892
392.24933
392.24917
392.24904
392.24903
392.2491
392.24915
392.24902
392.24903
392.24892
392.24911
392.24935
392.24917
392.24906
392.24907
392.24917
392.24925
392.24899
392.24891
392.24933
392.24935
392.24955
392.24937
392.24927
392.24931
392.24945
392.24958
392.2493
392.24912
392.24917
392.24917
392.24937
392.24919
392.24911
392.24917
392.24935
392.24953
392.24931
392.24916
392.24904
392.24906
392.24927
392.24911
392.24904
392.24913
392.24933
392.24954
392.24935
392.24923
392.24903
392.24907
392.24931
392.24917
392.24913
392.24923
392.24945
392.24967
392.24949
392.24937
392.2491
392.24917
392.24945
392.24935
392.24933
392.24945
392.24968
392.2499
392.2497
392.24957
392.24915
392.24925
392.24958
392.24953
392.24954
392.24967
392.2499
392.2501
392.24986
392.24966
392.24902
392.24899
392.2493
392.24931
392.24935
392.24949
392.2497
392.24986
392.24953
392.24921
392.24903
392.24891
392.24912
392.24916
392.24923
392.24937
392.24957
392.24966
392.24921
392.24925
400.02275
400.02261
400.02301
400.02284
400.02272
400.02272
400.0228
400.02286
400.02275
400.02277
400.02261
400.02279
400.02302
400.02283
400.02272
400.02274
400.02286
400.02295
400.02271
400.02265
400.02301
400.02302
400.0232
400.02302
400.02292
400.02297
400.02313
400.02327
400.02302
400.02285
400.02284
400.02283
400.02302
400.02284
400.02276
400.02283
400.02303
400.02323
400.02302
400.02289
400.02272
400.02272
400.02292
400.02276
400.0227
400.02279
400.02302
400.02324
400.02307
400.02296
400.02272
400.02274
400.02297
400.02283
400.02279
400.0229
400.02314
400.02338
400.02322
400.02312
400.0228
400.02286
400.02313
400.02303
400.02302
400.02314
400.02339
400.02363
400.02345
400.02333
400.02286
400.02295
400.02327
400.02323
400.02324
400.02338
400.02363
400.02384
400.02363
400.02344
400.02275
400.02271
400.02302
400.02302
400.02307
400.02322
400.02345
400.02363
400.02332
400.02301
400.02277
400.02265
400.02285
400.02289
400.02296
400.02312
400.02333
400.02344
400.02301
400.02306
407.97178
407.97164
407.97201
407.97185
407.97173
407.97174
407.97183
407.97191
407.97181
407.97185
407.97164
407.97181
407.97202
407.97183
407.97173
407.97176
407.97189
407.97199
407.97178
407.97172
407.97201
407.97202
407.97219
407.972
407.97191
407.97197
407.97214
407.9723
407.97207
407.97191
407.97185
407.97183
407.972
407.97182
407.97175
407.97183
407.97205
407.97226
407.97208
407.97196
407.97173
407.97173
407.97191
407.97175
407.9717
407.9718
407.97204
407.97228
407.97213
407.97204
407.97174
407.97176
407.97197
407.97183
407.9718
407.97192
407.97217
407.97243
407.97229
407.9722
407.97183
407.97189
407.97214
407.97205
407.97204
407.97217
407.97243
407.97269
407.97253
407.97243
407.97191
407.97199
407.9723
407.97226
407.97228
407.97243
407.97269
407.97292
407.97273
407.97256
407.97181
407.97178
407.97207
407.97208
407.97213
407.97229
407.97253
407.97273
407.97244
407.97214
407.97185
407.97172
407.97191
407.97196
407.97204
407.9722
407.97243
407.97256
407.97214
407.97221
416.09065
416.0905
416.09085
416.09068
416.09057
416.09059
416.0907
416.09079
416.09071
416.09075
416.0905
416.09065
416.09084
416.09066
416.09056
416.0906
416.09074
416.09087
416.09067
416.09063
416.09085
416.09084
416.091
416.09082
416.09073
416.0908
416.09099
416.09116
416.09095
416.09081
416.09068
416.09066
416.09082
416.09064
416.09057
416.09066
416.09089
416.09112
416.09096
416.09086
416.09057
416.09056
416.09073
416.09057
416.09052
416.09064
416.09089
416.09115
416.09102
416.09094
416.09059
416.0906
416.0908
416.09066
416.09064
416.09077
416.09103
416.09131
416.09118
416.09111
416.0907
416.09074
416.09099
416.09089
416.09089
416.09103
416.0913
416.09158
416.09144
416.09136
416.09079
416.09087
416.09116
416.09112
416.09115
416.09131
416.09158
416.09183
416.09165
416.0915
416.09071
416.09067
416.09095
416.09096
416.09102
416.09118
416.09144
416.09165
416.09139
416.09111
416.09075
416.09063
416.09081
416.09086
416.09094
416.09111
416.09136
416.0915
416.09111
416.09118
424.37255
424.37241
424.37273
424.37256
424.37246
424.37249
424.3726
424.37271
424.37265
424.3727
424.37241
424.37254
424.37271
424.37253
424.37244
424.37249
424.37264
424.37278
424.3726
424.37258
424.37273
424.37271
424.37285
424.37267
424.37259
424.37267
424.37287
424.37306
424.37287
424.37275
424.37256
424.37253
424.37267
424.3725
424.37244
424.37254
424.37277
424.37302
424.37288
424.3728
424.37246
424.37244
424.37259
424.37244
424.3724
424.37252
424.37278
424.37305
424.37295
424.37289
424.37249
424.37249
424.37267
424.37254
424.37252
424.37266
424.37293
424.37322
424.37312
424.37307
424.3726
424.37264
424.37287
424.37277
424.37278
424.37293
424.37322
424.3735
424.37339
424.37332
424.37271
424.37278
424.37306
424.37302
424.37305
424.37322
424.3735
424.37377
424.37362
424.37348
424.37265
424.3726
424.37287
424.37288
424.37295
424.37312
424.37339
424.37362
424.37337
424.37311
424.3727
424.37258
424.37275
424.3728
424.37289
424.37307
424.37332
424.37348
424.37311
424.3732
432.80952
432.80937
432.80967
432.80951
432.80941
432.80945
432.80957
432.8097
432.80965
432.80971
432.80937
432.80949
432.80964
432.80946
432.80938
432.80944
432.8096
432.80976
432.8096
432.80959
432.80967
432.80964
432.80977
432.80959
432.80952
432.8096
432.80981
432.81002
432.80986
432.80975
432.80951
432.80946
432.80959
432.80942
432.80937
432.80948
432.80972
432.80998
432.80987
432.8098
432.80941
432.80938
432.80952
432.80937
432.80934
432.80946
432.80973
432.81002
432.80994
432.8099
432.80945
432.80944
432.8096
432.80948
432.80946
432.80961
432.80989
432.8102
432.81012
432.81008
432.80957
432.8096
432.80981
432.80972
432.80973
432.80989
432.81019
432.81049
432.8104
432.81035
432.8097
432.80976
432.81002
432.80998
432.81002
432.8102
432.81049
432.81077
432.81064
432.81052
432.80965
432.8096
432.80986
432.80987
432.80994
432.81012
432.8104
432.81064
432.81042
432.81018
432.80971
432.80959
432.80975
432.8098
432.8099
432.81008
432.81035
432.81052
432.81018
432.81027
441.39247
441.39232
441.39259
441.39243
441.39235
441.39239
441.39253
441.39266
441.39263
441.3927
441.39232
441.39242
441.39256
441.39238
441.39231
441.39237
441.39255
441.39271
441.39258
441.39258
441.39259
441.39256
441.39267
441.3925
441.39243
441.39252
441.39274
441.39296
441.39282
441.39274
441.39243
441.39238
441.3925
441.39233
441.39229
441.3924
441.39266
441.39293
441.39284
441.39279
441.39235
441.39231
441.39243
441.39229
441.39226
441.3924
441.39267
441.39297
441.39291
441.39288
441.39239
441.39237
441.39252
441.3924
441.3924
441.39255
441.39284
441.39315
441.3931
441.39308
441.39253
441.39255
441.39274
441.39266
441.39267
441.39284
441.39314
441.39345
441.39338
441.39335
441.39266
441.39271
441.39296
441.39293
441.39297
441.39315
441.39345
441.39374
441.39363
441.39354
441.39263
441.39258
441.39282
441.39284
441.39291
441.3931
441.39338
441.39363
441.39344
441.39322
441.3927
441.39258
441.39274
441.39279
441.39288
441.39308
441.39335
441.39354
441.39322
441.39332
450.11131
450.11117
450.11142
450.11126
450.11118
450.11124
450.11138
450.11153
450.11152
450.1116
450.11117
450.11125
450.11137
450.11121
450.11114
450.11121
450.11139
450.11157
450.11146
450.11148
450.11142
450.11137
450.11147
450.1113
450.11125
450.11135
450.11157
450.1118
450.11169
450.11162
450.11126
450.11121
450.1113
450.11115
450.11111
450.11123
450.11149
450.11177
450.1117
450.11167
450.11118
450.11114
450.11125
450.11111
450.11109
450.11123
450.11152
450.11182
450.11178
450.11177
450.11124
450.11121
450.11135
450.11123
450.11123
450.11139
450.11169
450.11201
450.11197
450.11197
450.11138
450.11139
450.11157
450.11149
450.11152
450.11169
450.11199
450.11231
450.11227
450.11225
450.11153
450.11157
450.1118
450.11177
450.11182
450.11201
450.11231
450.11261
450.11252
450.11244
450.11152
450.11146
450.11169
450.1117
450.11178
450.11197
450.11227
450.11252
450.11236
450.11215
450.1116
450.11148
450.11162
450.11167
450.11177
450.11197
450.11225
450.11244
450.11215
450.11226
458.95509
458.95495
458.95517
458.95502
458.95495
458.95501
458.95517
458.95532
458.95533
458.95541
458.95495
458.95501
458.95512
458.95496
458.9549
458.95498
458.95517
458.95536
458.95527
458.9553
458.95517
458.95512
458.9552
458.95505
458.955
458.9551
458.95533
458.95557
458.95548
458.95543
458.95502
458.95496
458.95505
458.9549
458.95487
458.955
458.95526
458.95554
458.9555
458.95548
458.95495
458.9549
458.955
458.95487
458.95486
458.95501
458.95529
458.9556
458.95558
458.95558
458.95501
458.95498
458.9551
458.955
458.95501
458.95517
458.95546
458.95579
458.95578
458.95578
458.95517
458.95517
458.95533
458.95526
458.95529
458.95546
458.95577
458.95609
458.95607
458.95606
458.95532
458.95536
458.95557
458.95554
458.9556
458.95579
458.95609
458.95639
458.95633
458.95627
458.95533
458.95527
458.95548
458.9555
458.95558
458.95578
458.95607
458.95633
458.95619
458.956
458.95541
458.9553
458.95543
458.95548
458.95558
458.95578
458.95606
458.95627
458.956
458.95612
467.91203
467.91189
467.91209
467.91195
467.91189
467.91196
467.91212
467.91228
467.9123
467.91239
467.91189
467.91194
467.91203
467.91189
467.91184
467.91192
467.91212
467.91231
467.91225
467.91228
467.91209
467.91203
467.9121
467.91196
467.91192
467.91203
467.91226
467.91251
467.91244
467.9124
467.91195
467.91189
467.91196
467.91183
467.91181
467.91194
467.9122
467.91248
467.91246
467.91246
467.91189
467.91184
467.91192
467.91181
467.9118
467.91195
467.91223
467.91255
467.91254
467.91256
467.91196
467.91192
467.91203
467.91194
467.91195
467.91211
467.91241
467.91273
467.91274
467.91276
467.91212
467.91212
467.91226
467.9122
467.91223
467.91241
467.91271
467.91303
467.91303
467.91304
467.91228
467.91231
467.91251
467.91248
467.91255
467.91273
467.91303
467.91334
467.9133
467.91325
467.9123
467.91225
467.91244
467.91246
467.91254
467.91274
467.91303
467.9133
467.91318
467.91301
467.91239
467.91228
467.9124
467.91246
467.91256
467.91276
467.91304
467.91325
467.91301
467.91314
476.96971
476.96957
476.96974
476.96962
476.96957
476.96964
476.9698
476.96997
476.97
476.9701
476.96957
476.96961
476.96969
476.96955
476.96951
476.9696
476.9698
476.97
476.96995
476.96999
476.96974
476.96969
476.96974
476.96961
476.96959
476.9697
476.96993
476.97017
476.97012
476.97011
476.96962
476.96955
476.96961
476.96949
476.96948
476.96961
476.96987
476.97016
476.97015
476.97016
476.96957
476.96951
476.96959
476.96948