/*--------------------------------*- C++ -*----------------------------------*\
| =========                 |                                                 |
| \\      /  F ield         | OpenFOAM: The Open Source CFD Toolbox           |
|  \\    /   O peration     | Version:  v2106                                 |
|   \\  /    A nd           | Website:  www.openfoam.com                      |
|    \\/     M anipulation  |                                                 |
\*---------------------------------------------------------------------------*/
FoamFile
{
    version     2.0;
    format      ascii;
    arch        "LSB;label=32;scalar=64";
    class       volScalarField;
    location    "32.5";
    object      gradTz;
}
// * * * * * * * * * * * * * * * * * * * * * * * * * * * * * * * * * * * * * //

dimensions      [0 -1 0 1 0 0 0];

internalField   nonuniform List<scalar> 
4000
(
499.72397
499.72315
499.7261
499.72581
499.72537
499.72505
499.72478
499.72447
499.72413
499.72393
499.72315
499.72489
499.72671
499.72627
499.72583
499.72554
499.72529
499.72496
499.72444
499.72403
499.7261
499.72671
499.72831
499.72784
499.72741
499.72715
499.72695
499.72666
499.72606
499.72528
499.72581
499.72627
499.72784
499.72736
499.72695
499.72672
499.72658
499.72639
499.72591
499.72526
499.72537
499.72583
499.72741
499.72695
499.72656
499.72636
499.72626
499.72613
499.72572
499.72513
499.72505
499.72554
499.72715
499.72672
499.72636
499.72619
499.72613
499.72602
499.72563
499.72507
499.72478
499.72529
499.72695
499.72658
499.72626
499.72613
499.72607
499.72597
499.72559
499.72502
499.72447
499.72496
499.72666
499.72639
499.72613
499.72602
499.72597
499.72587
499.72546
499.72487
499.72413
499.72444
499.72606
499.72591
499.72572
499.72563
499.72559
499.72546
499.72502
499.72439
499.72393
499.72403
499.72528
499.72526
499.72513
499.72507
499.72502
499.72487
499.72439
499.72374
739.517
739.51681
739.51945
739.51916
739.51861
739.51819
739.51781
739.51735
739.51677
739.51668
739.51681
739.51831
739.52012
739.51968
739.51915
739.51876
739.51843
739.51792
739.51694
739.51648
739.51945
739.52012
739.52168
739.52119
739.52066
739.52033
739.52009
739.51966
739.51857
739.51765
739.51916
739.51968
739.52119
739.52069
739.52019
739.51991
739.51975
739.51946
739.51853
739.51775
739.51861
739.51915
739.52066
739.52019
739.51973
739.51949
739.51939
739.51918
739.51834
739.51765
739.51819
739.51876
739.52033
739.51991
739.51949
739.51929
739.51923
739.51907
739.51826
739.5176
739.51781
739.51843
739.52009
739.51975
739.51939
739.51923
739.5192
739.51905
739.51824
739.51756
739.51735
739.51792
739.51966
739.51946
739.51918
739.51907
739.51905
739.51887
739.51802
739.51729
739.51677
739.51694
739.51857
739.51853
739.51834
739.51826
739.51824
739.51802
739.51709
739.51629
739.51668
739.51648
739.51765
739.51775
739.51765
739.5176
739.51756
739.51729
739.51629
739.5157
736.52066
736.52071
736.52233
736.52202
736.52155
736.5212
736.52089
736.52041
736.51963
736.51957
736.52071
736.52179
736.52291
736.52251
736.52206
736.52176
736.52151
736.52103
736.51979
736.51928
736.52233
736.52291
736.52388
736.52345
736.52301
736.52276
736.52261
736.52224
736.52091
736.52004
736.52202
736.52251
736.52345
736.52301
736.52261
736.52241
736.52234
736.52211
736.52091
736.52014
736.52155
736.52206
736.52301
736.52261
736.52224
736.52208
736.52208
736.52192
736.52081
736.52012
736.5212
736.52176
736.52276
736.52241
736.52208
736.52197
736.522
736.52188
736.5208
736.52013
736.52089
736.52151
736.52261
736.52234
736.52208
736.522
736.52206
736.52194
736.52084
736.52015
736.52041
736.52103
736.52224
736.52211
736.52192
736.52188
736.52194
736.52179
736.52063
736.51984
736.51963
736.51979
736.52091
736.52091
736.52081
736.5208
736.52084
736.52063
736.51934
736.51842
736.51957
736.51928
736.52004
736.52014
736.52012
736.52013
736.52015
736.51984
736.51842
736.5182
734.25121
734.2511
734.25245
734.25211
734.2517
734.25142
734.25119
734.25078
734.2499
734.24967
734.2511
734.25189
734.25279
734.2524
734.252
734.25177
734.25163
734.25125
734.24996
734.2494
734.25245
734.25279
734.25358
734.25316
734.25279
734.25261
734.25257
734.25231
734.25092
734.25003
734.25211
734.2524
734.25316
734.25275
734.25241
734.25229
734.25233
734.25219
734.25093
734.25012
734.2517
734.252
734.25279
734.25241
734.2521
734.25203
734.25213
734.25206
734.25088
734.25014
734.25142
734.25177
734.25261
734.25229
734.25203
734.25199
734.25213
734.2521
734.25094
734.25022
734.25119
734.25163
734.25257
734.25233
734.25213
734.25213
734.25228
734.25225
734.25107
734.25031
734.25078
734.25125
734.25231
734.25219
734.25206
734.2521
734.25225
734.25218
734.25091
734.25001
734.2499
734.24996
734.25092
734.25093
734.25088
734.25094
734.25107
734.25091
734.24945
734.24833
734.24967
734.2494
734.25003
734.25012
734.25014
734.25022
734.25031
734.25001
734.24833
734.24825
732.67165
732.67151
732.67271
732.67236
732.67199
732.67178
732.67164
732.67135
732.67055
732.67031
732.67151
732.67218
732.67297
732.67257
732.67221
732.67205
732.67201
732.67175
732.67057
732.67005
732.67271
732.67297
732.67365
732.67324
732.67291
732.67281
732.67286
732.67273
732.67145
732.67061
732.67236
732.67257
732.67324
732.67284
732.67255
732.6725
732.67263
732.67262
732.67146
732.6707
732.67199
732.67221
732.67291
732.67255
732.67229
732.67229
732.67248
732.67254
732.67145
732.67075
732.67178
732.67205
732.67281
732.6725
732.67229
732.67232
732.67255
732.67264
732.67157
732.67089
732.67164
732.67201
732.67286
732.67263
732.67248
732.67255
732.67279
732.67288
732.67178
732.67106
732.67135
732.67175
732.67273
732.67262
732.67254
732.67264
732.67288
732.67291
732.67171
732.67083
732.67055
732.67057
732.67145
732.67146
732.67145
732.67157
732.67178
732.67171
732.67029
732.66912
732.67031
732.67005
732.67061
732.6707
732.67075
732.67089
732.67106
732.67083
732.66912
732.66906
731.74276
731.7426
731.74368
731.74333
731.74299
731.74283
731.74278
731.7426
731.74191
731.74171
731.7426
731.74319
731.74387
731.74348
731.74316
731.74306
731.74309
731.74296
731.7419
731.74145
731.74368
731.74387
731.74447
731.74406
731.74377
731.74373
731.74387
731.74385
731.74271
731.74196
731.74333
731.74348
731.74406
731.74368
731.74342
731.74343
731.74365
731.74375
731.74272
731.74205
731.74299
731.74316
731.74377
731.74342
731.7432
731.74326
731.74353
731.7437
731.74274
731.74212
731.74283
731.74306
731.74373
731.74343
731.74326
731.74335
731.74366
731.74386
731.74292
731.74231
731.74278
731.74309
731.74387
731.74365
731.74353
731.74366
731.74398
731.74417
731.7432
731.74255
731.7426
731.74296
731.74385
731.74375
731.7437
731.74386
731.74417
731.74431
731.74322
731.74241
731.74191
731.7419
731.74271
731.74272
731.74274
731.74292
731.7432
731.74322
731.74191
731.74079
731.74171
731.74145
731.74196
731.74205
731.74212
731.74231
731.74255
731.74241
731.74079
731.74075
731.42223
731.42205
731.423
731.42265
731.42234
731.42224
731.42226
731.42217
731.4216
731.42145
731.42205
731.42255
731.42314
731.42274
731.42246
731.42241
731.42252
731.42248
731.42157
731.42118
731.423
731.42314
731.42364
731.42324
731.42299
731.42299
731.4232
731.42328
731.4223
731.42164
731.42265
731.42274
731.42324
731.42286
731.42264
731.4227
731.42299
731.42319
731.42231
731.42173
731.42234
731.42246
731.42299
731.42264
731.42246
731.42256
731.42291
731.42318
731.42236
731.42183
731.42224
731.42241
731.42299
731.4227
731.42256
731.42271
731.42308
731.42338
731.42258
731.42206
731.42226
731.42252
731.4232
731.42299
731.42291
731.42308
731.42347
731.42376
731.42293
731.42237
731.42217
731.42248
731.42328
731.42319
731.42318
731.42338
731.42376
731.42398
731.42304
731.42232
731.4216
731.42157
731.4223
731.42231
731.42236
731.42258
731.42293
731.42304
731.42187
731.42083
731.42145
731.42118
731.42164
731.42173
731.42183
731.42206
731.42237
731.42232
731.42083
731.42082
731.66533
731.66514
731.66596
731.6656
731.66532
731.66527
731.66536
731.66536
731.6649
731.6648
731.66514
731.66555
731.66603
731.66564
731.66539
731.66538
731.66556
731.66562
731.66484
731.66454
731.66596
731.66603
731.66644
731.66605
731.66583
731.66588
731.66615
731.66633
731.6655
731.66495
731.6656
731.66564
731.66605
731.66568
731.66549
731.6656
731.66595
731.66624
731.66551
731.66503
731.66532
731.66539
731.66583
731.66549
731.66534
731.66549
731.66589
731.66625
731.66558
731.66515
731.66527
731.66538
731.66588
731.6656
731.66549
731.66568
731.66611
731.66649
731.66584
731.66543
731.66536
731.66556
731.66615
731.66595
731.66589
731.66611
731.66656
731.66693
731.66625
731.66579
731.66536
731.66562
731.66633
731.66624
731.66625
731.66649
731.66693
731.66725
731.66646
731.66583
731.6649
731.66484
731.6655
731.66551
731.66558
731.66584
731.66625
731.66646
731.66544
731.6645
731.6648
731.66454
731.66495
731.66503
731.66515
731.66543
731.66579
731.66583
731.6645
731.66454
732.42536
732.42514
732.42583
732.42547
732.42522
732.42521
732.42536
732.42545
732.4251
732.42506
732.42514
732.42546
732.42585
732.42546
732.42523
732.42527
732.42551
732.42566
732.42502
732.42479
732.42583
732.42585
732.42617
732.42578
732.42559
732.42568
732.42601
732.42628
732.42559
732.42515
732.42547
732.42546
732.42578
732.42542
732.42526
732.42541
732.42581
732.42619
732.42561
732.42523
732.42522
732.42523
732.42559
732.42526
732.42514
732.42533
732.42578
732.42622
732.4257
732.42537
732.42521
732.42527
732.42568
732.42541
732.42533
732.42555
732.42604
732.4265
732.426
732.42568
732.42536
732.42551
732.42601
732.42581
732.42578
732.42604
732.42654
732.42699
732.42646
732.4261
732.42545
732.42566
732.42628
732.42619
732.42622
732.4265
732.42699
732.42739
732.42675
732.42623
732.4251
732.42502
732.42559
732.42561
732.4257
732.426
732.42646
732.42675
732.42589
732.42507
732.42506
732.42479
732.42515
732.42523
732.42537
732.42568
732.4261
732.42623
732.42507
732.42515
733.65391
733.65368
733.65423
733.65388
733.65366
733.65369
733.6539
733.65406
733.65381
733.65383
733.65368
733.65391
733.65419
733.65381
733.65362
733.6537
733.65399
733.65422
733.65372
733.65357
733.65423
733.65419
733.65442
733.65405
733.65388
733.65402
733.6544
733.65474
733.65421
733.65387
733.65388
733.65381
733.65405
733.6537
733.65357
733.65375
733.6542
733.65465
733.65422
733.65394
733.65366
733.65362
733.65388
733.65357
733.65347
733.6537
733.6542
733.65471
733.65433
733.65411
733.65369
733.6537
733.65402
733.65375
733.6537
733.65396
733.65449
733.65502
733.65466
733.65444
733.6539
733.65399
733.6544
733.6542
733.6542
733.65449
733.65503
733.65555
733.65517
733.65491
733.65406
733.65422
733.65474
733.65465
733.65471
733.65502
733.65555
733.65603
733.65554
733.65513
733.65381
733.65372
733.65421
733.65422
733.65433
733.65466
733.65517
733.65554
733.65484
733.65414
733.65383
733.65357
733.65387
733.65394
733.65411
733.65444
733.65491
733.65513
733.65414
733.65427
735.30127
735.30102
735.30144
735.3011
735.30091
735.30098
735.30124
735.30147
735.30133
735.30139
735.30102
735.30116
735.30135
735.30099
735.30082
735.30094
735.30127
735.30158
735.30122
735.30114
735.30144
735.30135
735.30149
735.30113
735.301
735.30117
735.30159
735.302
735.30162
735.30138
735.3011
735.30099
735.30113
735.3008
735.3007
735.30091
735.30141
735.30192
735.30163
735.30146
735.30091
735.30082
735.301
735.3007
735.30063
735.30089
735.30143
735.302
735.30176
735.30163
735.30098
735.30094
735.30117
735.30091
735.30089
735.30118
735.30175
735.30234
735.30212
735.302
735.30124
735.30127
735.30159
735.30141
735.30143
735.30175
735.30232
735.30291
735.30266
735.3025
735.30147
735.30158
735.302
735.30192
735.302
735.30234
735.30291
735.30344
735.3031
735.30281
735.30133
735.30122
735.30162
735.30163
735.30176
735.30212
735.30266
735.3031
735.30256
735.30198
735.30139
735.30114
735.30138
735.30146
735.30163
735.302
735.3025
735.30281
735.30198
735.30217
737.31672
737.31646
737.31676
737.31642
737.31626
737.31637
737.31667
737.31697
737.31693
737.31704
737.31646
737.31652
737.31661
737.31626
737.31613
737.31628
737.31666
737.31703
737.3168
737.3168
737.31676
737.31661
737.31667
737.31633
737.31622
737.31642
737.31688
737.31736
737.31712
737.31698
737.31642
737.31626
737.31633
737.31601
737.31594
737.31619
737.31671
737.31728
737.31713
737.31705
737.31626
737.31613
737.31622
737.31594
737.31591
737.31619
737.31676
737.31738
737.31728
737.31724
737.31637
737.31628
737.31642
737.31619
737.31619
737.3165
737.3171
737.31774
737.31766
737.31763
737.31667
737.31666
737.31688
737.31671
737.31676
737.3171
737.3177
737.31834
737.31823
737.31817
737.31697
737.31703
737.31736
737.31728
737.31738
737.31774
737.31834
737.31893
737.31874
737.31855
737.31693
737.3168
737.31712
737.31713
737.31728
737.31766
737.31823
737.31874
737.31835
737.31789
737.31704
737.3168
737.31698
737.31705
737.31724
737.31763
737.31817
737.31855
737.31789
737.31812
739.64891
739.64865
739.64881
739.64849
739.64837
739.64851
739.64885
739.6492
739.64926
739.64941
739.64865
739.64862
739.64862
739.64829
739.64819
739.64837
739.64879
739.64921
739.64911
739.64918
739.64881
739.64862
739.6486
739.64828
739.64821
739.64844
739.64892
739.64945
739.64935
739.64931
739.64849
739.64829
739.64828
739.64799
739.64795
739.64822
739.64877
739.64938
739.64936
739.64938
739.64837
739.64819
739.64821
739.64795
739.64794
739.64824
739.64883
739.6495
739.64953
739.64958
739.64851
739.64837
739.64844
739.64822
739.64824
739.64858
739.64919
739.64988
739.64992
739.64998
739.64885
739.64879
739.64892
739.64877
739.64883
739.64919
739.64982
739.6505
739.65052
739.65055
739.6492
739.64921
739.64945
739.64938
739.6495
739.64988
739.6505
739.65114
739.65108
739.65099
739.64926
739.64911
739.64935
739.64936
739.64953
739.64992
739.65052
739.65108
739.65084
739.6505
739.64941
739.64918
739.64931
739.64938
739.64958
739.64998
739.65055
739.65099
739.6505
739.65077
742.24618
742.24591
742.24595
742.24565
742.24556
742.24573
742.24611
742.24652
742.24665
742.24685
742.24591
742.24581
742.24572
742.24542
742.24535
742.24556
742.246
742.24648
742.2465
742.24663
742.24595
742.24572
742.24562
742.24534
742.24529
742.24554
742.24605
742.24663
742.24666
742.24671
742.24565
742.24542
742.24534
742.24507
742.24506
742.24535
742.24591
742.24657
742.24667
742.24677
742.24556
742.24535
742.24529
742.24506
742.24508
742.2454
742.246
742.2467
742.24685
742.24698
742.24573
742.24556
742.24554
742.24535
742.2454
742.24575
742.24638
742.24709
742.24725
742.24739
742.24611
742.246
742.24605
742.24591
742.246
742.24638
742.24701
742.24772
742.24786
742.24798
742.24652
742.24648
742.24663
742.24657
742.2467
742.24709
742.24772
742.2484
742.24847
742.24848
742.24665
742.2465
742.24666
742.24667
742.24685
742.24725
742.24786
742.24847
742.24838
742.24815
742.24685
742.24663
742.24671
742.24677
742.24698
742.24739
742.24798
742.24848
742.24815
742.24845
745.05691
745.05665
745.05657
745.0563
745.05624
745.05644
745.05684
745.05729
745.05751
745.05774
745.05665
745.05647
745.05631
745.05604
745.056
745.05623
745.05669
745.05722
745.05735
745.05754
745.05657
745.05631
745.05614
745.05588
745.05587
745.05614
745.05667
745.05727
745.05743
745.05757
745.0563
745.05604
745.05588
745.05565
745.05567
745.05597
745.05655
745.05722
745.05744
745.05763
745.05624
745.056
745.05587
745.05567
745.05571
745.05605
745.05666
745.05737
745.05763
745.05784
745.05644
745.05623
745.05614
745.05597
745.05605
745.05641
745.05704
745.05777
745.05804
745.05826
745.05684
745.05669
745.05667
745.05655
745.05666
745.05704
745.05768
745.05841
745.05866
745.05886
745.05729
745.05722
745.05727
745.05722
745.05737
745.05777
745.05841
745.05911
745.0593
745.0594
745.05751
745.05735
745.05743
745.05744
745.05763
745.05804
745.05866
745.0593
745.05934
745.05923
745.05774
745.05754
745.05757
745.05763
745.05784
745.05826
745.05886
745.0594
745.05923
745.05956
748.02988
748.02962
748.02943
748.02919
748.02917
748.02939
748.02981
748.0303
748.03059
748.03085
748.02962
748.02938
748.02914
748.0289
748.0289
748.02916
748.02963
748.03019
748.03043
748.03067
748.02943
748.02914
748.02891
748.02869
748.02871
748.029
748.02953
748.03016
748.03043
748.03065
748.02919
748.0289
748.02869
748.02849
748.02854
748.02886
748.02943
748.03012
748.03045
748.0307
748.02917
748.0289
748.02871
748.02854
748.02861
748.02896
748.02956
748.03029
748.03064
748.03092
748.02939
748.02916
748.029
748.02886
748.02896
748.02932
748.02995
748.03069
748.03106
748.03134
748.02981
748.02963
748.02953
748.02943
748.02956
748.02995
748.03058
748.03132
748.03167
748.03194
748.0303
748.03019
748.03016
748.03012
748.03029
748.03069
748.03132
748.03203
748.03233
748.03251
748.03059
748.03043
748.03043
748.03045
748.03064
748.03106
748.03167
748.03233
748.0325
748.03249
748.03085
748.03067
748.03065
748.0307
748.03092
748.03134
748.03194
748.03251
748.03249
748.03285
751.11455
751.1143
751.11402
751.1138
751.11382
751.11406
751.1145
751.11501
751.11537
751.11565
751.1143
751.114
751.1137
751.1135
751.11353
751.1138
751.11429
751.11486
751.1152
751.11549
751.11402
751.1137
751.11342
751.11323
751.11329
751.11358
751.11411
751.11476
751.11513
751.11542
751.1138
751.1135
751.11323
751.11307
751.11315
751.11347
751.11404
751.11474
751.11516
751.11548
751.11382
751.11353
751.11329
751.11315
751.11324
751.11359
751.11419
751.11491
751.11536
751.1157
751.11406
751.1138
751.11358
751.11347
751.11359
751.11396
751.11457
751.11531
751.11577
751.11611
751.1145
751.11429
751.11411
751.11404
751.11419
751.11457
751.11519
751.11592
751.11637
751.1167
751.11501
751.11486
751.11476
751.11474
751.11491
751.11531
751.11592
751.11664
751.11704
751.1173
751.11537
751.1152
751.11513
751.11516
751.11536
751.11577
751.11637
751.11704
751.11733
751.11742
751.11565
751.11549
751.11542
751.11548
751.1157
751.11611
751.1167
751.1173
751.11742
751.1178
754.26142
754.26118
754.2608
754.26062
754.26067
754.26094
754.26138
754.26191
754.26233
754.26263
754.26118
754.26083
754.26047
754.26031
754.26038
754.26066
754.26114
754.26173
754.26216
754.26249
754.2608
754.26047
754.26014
754.26
754.26008
754.26039
754.26091
754.26156
754.26202
754.26238
754.26062
754.26031
754.26
754.25988
754.25998
754.26031
754.26086
754.26155
754.26205
754.26243
754.26067
754.26038
754.26008
754.25998
754.2601
754.26045
754.26102
754.26173
754.26226
754.26265
754.26094
754.26066
754.26039
754.26031
754.26045
754.26082
754.2614
754.26212
754.26265
754.26305
754.26138
754.26114
754.26091
754.26086
754.26102
754.2614
754.26199
754.26272
754.26324
754.26362
754.26191
754.26173
754.26156
754.26155
754.26173
754.26212
754.26272
754.26342
754.26391
754.26424
754.26233
754.26216
754.26202
754.26205
754.26226
754.26265
754.26324
754.26391
754.2643
754.26449
754.26263
754.26249
754.26238
754.26243
754.26265
754.26305
754.26362
754.26424
754.26449
754.26488
757.42227
757.42206
757.42159
757.42145
757.42154
757.42182
757.42226
757.4228
757.42326
757.42357
757.42206
757.42165
757.42125
757.42114
757.42123
757.42153
757.422
757.4226
757.4231
757.42346
757.42159
757.42125
757.42088
757.42078
757.4209
757.42121
757.42171
757.42235
757.4229
757.42331
757.42145
757.42114
757.42078
757.42071
757.42084
757.42117
757.42169
757.42236
757.42294
757.42337
757.42154
757.42123
757.4209
757.42084
757.42098
757.42133
757.42187
757.42256
757.42314
757.42358
757.42182
757.42153
757.42121
757.42117
757.42133
757.42168
757.42224
757.42293
757.42352
757.42397
757.42226
757.422
757.42171
757.42169
757.42187
757.42224
757.4228
757.42349
757.42408
757.42451
757.4228
757.4226
757.42235
757.42236
757.42256
757.42293
757.42349
757.42418
757.42474
757.42512
757.42326
757.4231
757.4229
757.42294
757.42314
757.42352
757.42408
757.42474
757.42523
757.42549
757.42357
757.42346
757.42331
757.42337
757.42358
757.42397
757.42451
757.42512
757.42549
757.42589
760.55051
760.55032
760.54977
760.54968
760.5498
760.55009
760.55053
760.55107
760.55157
760.55188
760.55032
760.54988
760.54943
760.54937
760.5495
760.54979
760.55026
760.55084
760.55141
760.5518
760.54977
760.54943
760.54902
760.54898
760.54912
760.54943
760.54992
760.55054
760.55115
760.55162
760.54968
760.54937
760.54898
760.54895
760.54911
760.54943
760.54992
760.55057
760.5512
760.55167
760.5498
760.5495
760.54912
760.54911
760.54927
760.54961
760.55011
760.55076
760.5514
760.55188
760.55009
760.54979
760.54943
760.54943
760.54961
760.54995
760.55046
760.55112
760.55176
760.55224
760.55053
760.55026
760.54992
760.54992
760.55011
760.55046
760.55098
760.55164
760.55228
760.55275
760.55107
760.55084
760.55054
760.55057
760.55076
760.55112
760.55164
760.55229
760.55291
760.55335
760.55157
760.55141
760.55115
760.5512
760.5514
760.55176
760.55228
760.55291
760.55348
760.55383
760.55188
760.5518
760.55162
760.55167
760.55188
760.55224
760.55275
760.55335
760.55383
760.55422
763.60136
763.6012
763.60059
763.60055
763.6007
763.60099
763.60142
763.60195
763.60247
763.60279
763.6012
763.60073
763.60025
763.60024
763.6004
763.6007
763.60114
763.60171
763.60233
763.60273
763.60059
763.60025
763.59982
763.59982
763.6
763.6003
763.60075
763.60135
763.60202
763.60252
763.60055
763.60024
763.59982
763.59984
763.60002
763.60034
763.60079
763.60139
763.60207
763.60257
763.6007
763.6004
763.6
763.60002
763.60021
763.60053
763.60099
763.6016
763.60227
763.60277
763.60099
763.6007
763.6003
763.60034
763.60053
763.60086
763.60132
763.60193
763.60261
763.6031
763.60142
763.60114
763.60075
763.60079
763.60099
763.60132
763.60179
763.6024
763.60307
763.60357
763.60195
763.60171
763.60135
763.60139
763.6016
763.60193
763.6024
763.603
763.60367
763.60415
763.60247
763.60233
763.60202
763.60207
763.60227
763.60261
763.60307
763.60367
763.60431
763.60473
763.60279
763.60273
763.60252
763.60257
763.60277
763.6031
763.60357
763.60415
763.60473
763.60511
766.53216
766.53203
766.53136
766.53136
766.53155
766.53184
766.53225
766.53276
766.5333
766.53361
766.53203
766.53153
766.53103
766.53107
766.53126
766.53155
766.53197
766.53251
766.53317
766.53359
766.53136
766.53103
766.53058
766.53064
766.53084
766.53113
766.53154
766.5321
766.53282
766.53335
766.53136
766.53107
766.53064
766.53071
766.53091
766.53121
766.53162
766.53217
766.53287
766.5334
766.53155
766.53126
766.53084
766.53091
766.53112
766.53142
766.53182
766.53237
766.53307
766.53359
766.53184
766.53155
766.53113
766.53121
766.53142
766.53172
766.53213
766.53267
766.53337
766.53388
766.53225
766.53197
766.53154
766.53162
766.53182
766.53213
766.53254
766.53308
766.53379
766.5343
766.53276
766.53251
766.5321
766.53217
766.53237
766.53267
766.53308
766.53363
766.53434
766.53485
766.5333
766.53317
766.53282
766.53287
766.53307
766.53337
766.53379
766.53434
766.53503
766.53551
766.53361
766.53359
766.53335
766.5334
766.53359
766.53388
766.5343
766.53485
766.53551
766.53587
769.3025
769.30241
769.30169
769.30175
769.30196
769.30226
769.30263
769.30312
769.30367
769.30397
769.30241
769.30189
769.30138
769.30147
769.30169
769.30198
769.30235
769.30287
769.30355
769.30397
769.30169
769.30138
769.30092
769.30103
769.30125
769.30154
769.3019
769.30241
769.30316
769.30371
769.30175
769.30147
769.30103
769.30115
769.30137
769.30165
769.30201
769.3025
769.30322
769.30376
769.30196
769.30169
769.30125
769.30137
769.3016
769.30187
769.30222
769.3027
769.30341
769.30393
769.30226
769.30198
769.30154
769.30165
769.30187
769.30215
769.30249
769.30297
769.30368
769.30419
769.30263
769.30235
769.3019
769.30201
769.30222
769.30249
769.30284
769.30331
769.30403
769.30455
769.30312
769.30287
769.30241
769.3025
769.3027
769.30297
769.30331
769.3038
769.30452
769.30505
769.30367
769.30355
769.30316
769.30322
769.30341
769.30368
769.30403
769.30452
769.30525
769.30578
769.30397
769.30397
769.30371
769.30376
769.30393
769.30419
769.30455
769.30505
769.30578
769.30612
771.87449
771.87444
771.87368
771.87379
771.87404
771.87432
771.87467
771.87511
771.87566
771.87594
771.87444
771.87392
771.87339
771.87354
771.87379
771.87406
771.8744
771.87486
771.87557
771.87598
771.87368
771.87339
771.87293
771.8731
771.87334
771.87361
771.87392
771.87437
771.87514
771.8757
771.87379
771.87354
771.8731
771.87327
771.87351
771.87377
771.87406
771.87448
771.87521
771.87574
771.87404
771.87379
771.87334
771.87351
771.87375
771.87399
771.87428
771.87468
771.87539
771.8759
771.87432
771.87406
771.87361
771.87377
771.87399
771.87423
771.87451
771.8749
771.87561
771.87612
771.87467
771.8744
771.87392
771.87406
771.87428
771.87451
771.87478
771.87518
771.87589
771.87641
771.87511
771.87486
771.87437
771.87448
771.87468
771.8749
771.87518
771.87558
771.87631
771.87686
771.87566
771.87557
771.87514
771.87521
771.87539
771.87561
771.87589
771.87631
771.87707
771.87764
771.87594
771.87598
771.8757
771.87574
771.8759
771.87612
771.87641
771.87686
771.87764
771.87795
774.21286
774.21286
774.21207
774.21223
774.2125
774.21278
774.21309
774.21349
774.21402
774.21427
774.21286
774.21233
774.21181
774.21201
774.21228
774.21254
774.21283
774.21324
774.21395
774.21435
774.21207
774.21181
774.21135
774.21157
774.21184
774.21208
774.21234
774.21272
774.21348
774.21405
774.21223
774.21201
774.21157
774.21179
774.21205
774.21228
774.21251
774.21285
774.21357
774.21409
774.2125
774.21228
774.21184
774.21205
774.2123
774.21251
774.21272
774.21304
774.21373
774.21423
774.21278
774.21254
774.21208
774.21228
774.21251
774.21272
774.21291
774.21322
774.2139
774.2144
774.21309
774.21283
774.21234
774.21251
774.21272
774.21291
774.21311
774.21341
774.21411
774.21461
774.21349
774.21324
774.21272
774.21285
774.21304
774.21322
774.21341
774.21373
774.21446
774.215
774.21402
774.21395
774.21348
774.21357
774.21373
774.2139
774.21411
774.21446
774.21523
774.21582
774.21427
774.21435
774.21405
774.21409
774.21423
774.2144
774.21461
774.215
774.21582
774.2161
776.28513
776.28517
776.28436
776.28458
776.28488
776.28514
776.2854
776.28574
776.28626
776.28648
776.28517
776.28466
776.28414
776.2844
776.28469
776.28493
776.28516
776.28551
776.28621
776.28659
776.28436
776.28414
776.28369
776.28397
776.28425
776.28447
776.28466
776.28496
776.28572
776.28627
776.28458
776.2844
776.28397
776.28424
776.28451
776.2847
776.28486
776.28511
776.28581
776.28632
776.28488
776.28469
776.28425
776.28451
776.28477
776.28494
776.28507
776.28529
776.28596
776.28643
776.28514
776.28493
776.28447
776.2847
776.28494
776.2851
776.28522
776.28542
776.28608
776.28654
776.2854
776.28516
776.28466
776.28486
776.28507
776.28522
776.28532
776.28553
776.28619
776.28668
776.28574
776.28551
776.28496
776.28511
776.28529
776.28542
776.28553
776.28575
776.28646
776.28699
776.28626
776.28621
776.28572
776.28581
776.28596
776.28608
776.28619
776.28646
776.28723
776.28784
776.28648
776.28659
776.28627
776.28632
776.28643
776.28654
776.28668
776.28699
776.28784
776.28807
778.06169
778.06179
778.06097
778.06124
778.06156
778.0618
778.062
778.06229
778.06277
778.06295
778.06179
778.06129
778.06078
778.06109
778.0614
778.06162
778.06179
778.06207
778.06275
778.0631
778.06097
778.06078
778.06036
778.06068
778.06098
778.06116
778.06128
778.0615
778.06224
778.06277
778.06124
778.06109
778.06068
778.061
778.06128
778.06144
778.06151
778.06167
778.06233
778.06281
778.06156
778.0614
778.06098
778.06128
778.06154
778.06167
778.06172
778.06183
778.06246
778.0629
778.0618
778.06162
778.06116
778.06144
778.06167
778.06179
778.06181
778.06191
778.06252
778.06296
778.062
778.06179
778.06128
778.06151
778.06172
778.06181
778.06183
778.06193
778.06255
778.063
778.06229
778.06207
778.0615
778.06167
778.06183
778.06191
778.06193
778.06205
778.06272
778.06323
778.06277
778.06275
778.06224
778.06233
778.06246
778.06252
778.06255
778.06272
778.06347
778.06409
778.06295
778.0631
778.06277
778.06281
778.0629
778.06296
778.063
778.06323
778.06409
778.06428
779.51593
779.51608
779.51525
779.51557
779.51591
779.51612
779.51627
779.51649
779.51693
779.51707
779.51608
779.5156
779.51511
779.51548
779.5158
779.51598
779.51608
779.51628
779.51694
779.51725
779.51525
779.51511
779.51471
779.51508
779.51539
779.51553
779.51558
779.51571
779.51641
779.51691
779.51557
779.51548
779.51508
779.51545
779.51573
779.51585
779.51584
779.51589
779.51651
779.51695
779.51591
779.5158
779.51539
779.51573
779.51599
779.51608
779.51603
779.51604
779.51661
779.51701
779.51612
779.51598
779.51553
779.51585
779.51608
779.51614
779.51607
779.51605
779.51661
779.517
779.51627
779.51608
779.51558
779.51584
779.51603
779.51607
779.51599
779.51597
779.51654
779.51695
779.51649
779.51628
779.51571
779.51589
779.51604
779.51605
779.51597
779.51598
779.51661
779.51709
779.51693
779.51694
779.51641
779.51651
779.51661
779.51661
779.51654
779.51661
779.51733
779.51795
779.51707
779.51725
779.51691
779.51695
779.51701
779.517
779.51695
779.51709
779.51795
779.51809
780.62424
780.62444
780.62362
780.62399
780.62433
780.62452
780.62461
780.62474
780.62513
780.62522
780.62444
780.62399
780.62352
780.62394
780.62427
780.62441
780.62444
780.62456
780.62517
780.62544
780.62362
780.62352
780.62315
780.62357
780.62388
780.62398
780.62394
780.62397
780.62463
780.6251
780.62399
780.62394
780.62357
780.62397
780.62426
780.62433
780.62423
780.62417
780.62473
780.62513
780.62433
780.62427
780.62388
780.62426
780.62452
780.62455
780.62441
780.6243
780.6248
780.62515
780.62452
780.62441
780.62398
780.62433
780.62455
780.62455
780.62438
780.62425
780.62474
780.62508
780.62461
780.62444
780.62394
780.62423
780.62441
780.62438
780.6242
780.62407
780.62457
780.62493
780.62474
780.62456
780.62397
780.62417
780.6243
780.62425
780.62407
780.62396
780.62452
780.62497
780.62513
780.62517
780.62463
780.62473
780.6248
780.62474
780.62457
780.62452
780.62521
780.62582
780.62522
780.62544
780.6251
780.62513
780.62515
780.62508
780.62493
780.62497
780.62582
780.62589
781.36609
781.36635
781.36554
781.36595
781.3663
781.36645
781.36646
781.36652
781.36685
781.36688
781.36635
781.36593
781.36549
781.36594
781.36628
781.36638
781.36633
781.36635
781.36691
781.36714
781.36554
781.36549
781.36514
781.3656
781.36591
781.36597
781.36584
781.36576
781.36636
781.36678
781.36595
781.36594
781.3656
781.36604
781.36633
781.36634
781.36614
781.36597
781.36646
781.36681
781.3663
781.36628
781.36591
781.36633