/*--------------------------------*- C++ -*----------------------------------*\
| =========                 |                                                 |
| \\      /  F ield         | OpenFOAM: The Open Source CFD Toolbox           |
|  \\    /   O peration     | Version:  v2106                                 |
|   \\  /    A nd           | Website:  www.openfoam.com                      |
|    \\/     M anipulation  |                                                 |
\*---------------------------------------------------------------------------*/
FoamFile
{
    version     2.0;
    format      ascii;
    arch        "LSB;label=32;scalar=64";
    class       volScalarField;
    location    "32.5";
    object      T;
}
// * * * * * * * * * * * * * * * * * * * * * * * * * * * * * * * * * * * * * //

dimensions      [0 0 0 1 0 0 0];

internalField   nonuniform List<scalar> 
4000
(
274.89493
274.89492
274.89493
274.89493
274.89493
274.89493
274.89493
274.89493
274.89493
274.89493
274.89492
274.89493
274.89494
274.89494
274.89493
274.89493
274.89493
274.89493
274.89493
274.89493
274.89493
274.89494
274.89494
274.89494
274.89494
274.89494
274.89494
274.89494
274.89494
274.89493
274.89493
274.89494
274.89494
274.89494
274.89494
274.89494
274.89494
274.89494
274.89493
274.89493
274.89493
274.89493
274.89494
274.89494
274.89494
274.89494
274.89494
274.89494
274.89493
274.89493
274.89493
274.89493
274.89494
274.89494
274.89494
274.89494
274.89494
274.89494
274.89493
274.89493
274.89493
274.89493
274.89494
274.89494
274.89494
274.89494
274.89494
274.89493
274.89493
274.89493
274.89493
274.89493
274.89494
274.89494
274.89494
274.89494
274.89493
274.89493
274.89493
274.89493
274.89493
274.89493
274.89494
274.89493
274.89493
274.89493
274.89493
274.89493
274.89493
274.89493
274.89493
274.89493
274.89493
274.89493
274.89493
274.89493
274.89493
274.89493
274.89493
274.89493
282.30694
282.30693
282.30698
282.30697
282.30697
282.30696
282.30696
282.30695
282.30694
282.30694
282.30693
282.30696
282.30699
282.30698
282.30697
282.30697
282.30696
282.30696
282.30695
282.30694
282.30698
282.30699
282.30701
282.30701
282.307
282.30699
282.30699
282.30699
282.30697
282.30696
282.30697
282.30698
282.30701
282.307
282.30699
282.30699
282.30699
282.30698
282.30697
282.30696
282.30697
282.30697
282.307
282.30699
282.30699
282.30698
282.30698
282.30698
282.30697
282.30696
282.30696
282.30697
282.30699
282.30699
282.30698
282.30698
282.30698
282.30698
282.30697
282.30696
282.30696
282.30696
282.30699
282.30699
282.30698
282.30698
282.30698
282.30697
282.30697
282.30696
282.30695
282.30696
282.30699
282.30698
282.30698
282.30698
282.30697
282.30697
282.30696
282.30695
282.30694
282.30695
282.30697
282.30697
282.30697
282.30697
282.30697
282.30696
282.30696
282.30694
282.30694
282.30694
282.30696
282.30696
282.30696
282.30696
282.30696
282.30695
282.30694
282.30693
289.68527
289.68526
289.68532
289.68532
289.6853
289.68529
289.68529
289.68528
289.68526
289.68526
289.68526
289.6853
289.68534
289.68533
289.68532
289.68531
289.6853
289.68529
289.68527
289.68526
289.68532
289.68534
289.68538
289.68537
289.68535
289.68535
289.68534
289.68533
289.68531
289.68529
289.68532
289.68533
289.68537
289.68535
289.68534
289.68534
289.68533
289.68533
289.68531
289.68529
289.6853
289.68532
289.68535
289.68534
289.68533
289.68533
289.68532
289.68532
289.6853
289.68528
289.68529
289.68531
289.68535
289.68534
289.68533
289.68532
289.68532
289.68532
289.6853
289.68528
289.68529
289.6853
289.68534
289.68533
289.68532
289.68532
289.68532
289.68532
289.6853
289.68528
289.68528
289.68529
289.68533
289.68533
289.68532
289.68532
289.68532
289.68531
289.68529
289.68528
289.68526
289.68527
289.68531
289.68531
289.6853
289.6853
289.6853
289.68529
289.68527
289.68525
289.68526
289.68526
289.68529
289.68529
289.68528
289.68528
289.68528
289.68528
289.68525
289.68524
297.03735
297.03734
297.03743
297.03741
297.0374
297.03738
297.03737
297.03736
297.03734
297.03733
297.03734
297.03739
297.03745
297.03743
297.03741
297.0374
297.03739
297.03738
297.03734
297.03733
297.03743
297.03745
297.03749
297.03748
297.03746
297.03745
297.03744
297.03743
297.03739
297.03736
297.03741
297.03743
297.03748
297.03746
297.03744
297.03744
297.03743
297.03742
297.03739
297.03736
297.0374
297.03741
297.03746
297.03744
297.03743
297.03742
297.03742
297.03742
297.03739
297.03736
297.03738
297.0374
297.03745
297.03744
297.03742
297.03742
297.03742
297.03741
297.03738
297.03736
297.03737
297.03739
297.03744
297.03743
297.03742
297.03742
297.03742
297.03741
297.03738
297.03736
297.03736
297.03738
297.03743
297.03742
297.03742
297.03741
297.03741
297.03741
297.03738
297.03735
297.03734
297.03734
297.03739
297.03739
297.03739
297.03738
297.03738
297.03738
297.03734
297.03731
297.03733
297.03733
297.03736
297.03736
297.03736
297.03736
297.03736
297.03735
297.03731
297.0373
304.37029
304.37028
304.37037
304.37036
304.37034
304.37032
304.37031
304.37029
304.37026
304.37025
304.37028
304.37033
304.3704
304.37038
304.37036
304.37034
304.37033
304.37031
304.37027
304.37024
304.37037
304.3704
304.37045
304.37043
304.37041
304.3704
304.37039
304.37038
304.37033
304.37029
304.37036
304.37038
304.37043
304.37041
304.37039
304.37038
304.37038
304.37037
304.37032
304.37029
304.37034
304.37036
304.37041
304.37039
304.37037
304.37037
304.37037
304.37036
304.37032
304.37029
304.37032
304.37034
304.3704
304.37038
304.37037
304.37036
304.37036
304.37036
304.37032
304.37029
304.37031
304.37033
304.37039
304.37038
304.37037
304.37036
304.37036
304.37036
304.37032
304.37029
304.37029
304.37031
304.37038
304.37037
304.37036
304.37036
304.37036
304.37036
304.37031
304.37028
304.37026
304.37027
304.37033
304.37032
304.37032
304.37032
304.37032
304.37031
304.37026
304.37022
304.37025
304.37024
304.37029
304.37029
304.37029
304.37029
304.37029
304.37028
304.37022
304.37021
311.69079
311.69077
311.69088
311.69086
311.69084
311.69082
311.69081
311.69079
311.69075
311.69074
311.69077
311.69084
311.69091
311.69088
311.69086
311.69084
311.69083
311.69081
311.69075
311.69073
311.69088
311.69091
311.69097
311.69094
311.69092
311.69091
311.6909
311.69089
311.69082
311.69077
311.69086
311.69088
311.69094
311.69092
311.6909
311.69089
311.69088
311.69088
311.69082
311.69078
311.69084
311.69086
311.69092
311.6909
311.69088
311.69087
311.69087
311.69087
311.69081
311.69078
311.69082
311.69084
311.69091
311.69089
311.69087
311.69086
311.69087
311.69087
311.69081
311.69078
311.69081
311.69083
311.6909
311.69088
311.69087
311.69087
311.69087
311.69087
311.69082
311.69078
311.69079
311.69081
311.69089
311.69088
311.69087
311.69087
311.69087
311.69087
311.69081
311.69077
311.69075
311.69075
311.69082
311.69082
311.69081
311.69081
311.69082
311.69081
311.69075
311.6907
311.69074
311.69073
311.69077
311.69078
311.69078
311.69078
311.69078
311.69077
311.6907
311.69068
319.00515
319.00513
319.00525
319.00523
319.0052
319.00518
319.00516
319.00514
319.0051
319.00509
319.00513
319.0052
319.00527
319.00525
319.00522
319.0052
319.0052
319.00517
319.0051
319.00507
319.00525
319.00527
319.00534
319.00531
319.00529
319.00527
319.00527
319.00525
319.00518
319.00513
319.00523
319.00525
319.00531
319.00528
319.00526
319.00525
319.00525
319.00524
319.00518
319.00513
319.0052
319.00522
319.00529
319.00526
319.00524
319.00523
319.00524
319.00523
319.00517
319.00513
319.00518
319.0052
319.00527
319.00525
319.00523
319.00523
319.00524
319.00524
319.00518
319.00513
319.00516
319.0052
319.00527
319.00525
319.00524
319.00524
319.00524
319.00524
319.00518
319.00514
319.00514
319.00517
319.00525
319.00524
319.00523
319.00524
319.00524
319.00524
319.00518
319.00512
319.0051
319.0051
319.00518
319.00518
319.00517
319.00518
319.00518
319.00518
319.0051
319.00504
319.00509
319.00507
319.00513
319.00513
319.00513
319.00513
319.00514
319.00512
319.00504
319.00502
326.31923
326.31922
326.31934
326.31931
326.31928
326.31926
326.31925
326.31923
326.31918
326.31917
326.31922
326.31929
326.31937
326.31934
326.31931
326.31929
326.31928
326.31926
326.31919
326.31915
326.31934
326.31937
326.31944
326.31941
326.31938
326.31937
326.31936
326.31935
326.31927
326.31921
326.31931
326.31934
326.31941
326.31937
326.31935
326.31934
326.31934
326.31934
326.31927
326.31921
326.31928
326.31931
326.31938
326.31935
326.31932
326.31932
326.31933
326.31933
326.31926
326.31921
326.31926
326.31929
326.31937
326.31934
326.31932
326.31932
326.31933
326.31933
326.31927
326.31922
326.31925
326.31928
326.31936
326.31934
326.31933
326.31933
326.31934
326.31935
326.31928
326.31923
326.31923
326.31926
326.31935
326.31934
326.31933
326.31933
326.31935
326.31935
326.31927
326.31921
326.31918
326.31919
326.31927
326.31927
326.31926
326.31927
326.31928
326.31927
326.31919
326.31911
326.31917
326.31915
326.31921
326.31921
326.31921
326.31922
326.31923
326.31921
326.31911
326.3191
333.63845
333.63843
333.63857
333.63854
333.6385
333.63848
333.63847
333.63845
333.6384
333.63838
333.63843
333.63851
333.63859
333.63856
333.63853
333.63851
333.63851
333.63849
333.6384
333.63836
333.63857
333.63859
333.63867
333.63863
333.6386
333.63859
333.63859
333.63858
333.63849
333.63842
333.63854
333.63856
333.63863
333.6386
333.63857
333.63856
333.63857
333.63857
333.63849
333.63843
333.6385
333.63853
333.6386
333.63857
333.63854
333.63854
333.63855
333.63856
333.63849
333.63843
333.63848
333.63851
333.63859
333.63856
333.63854
333.63854
333.63856
333.63857
333.63849
333.63844
333.63847
333.63851
333.63859
333.63857
333.63855
333.63856
333.63858
333.63858
333.63851
333.63846
333.63845
333.63849
333.63858
333.63857
333.63856
333.63857
333.63858
333.63859
333.63851
333.63844
333.6384
333.6384
333.63849
333.63849
333.63849
333.63849
333.63851
333.63851
333.63841
333.63833
333.63838
333.63836
333.63842
333.63843
333.63843
333.63844
333.63846
333.63844
333.63833
333.63831
340.96774
340.96772
340.96786
340.96782
340.96779
340.96777
340.96776
340.96774
340.96768
340.96767
340.96772
340.9678
340.96788
340.96785
340.96781
340.9678
340.96779
340.96778
340.96769
340.96765
340.96786
340.96788
340.96796
340.96792
340.96789
340.96788
340.96788
340.96788
340.96778
340.96771
340.96782
340.96785
340.96792
340.96788
340.96785
340.96785
340.96786
340.96786
340.96778
340.96772
340.96779
340.96781
340.96789
340.96785
340.96783
340.96783
340.96784
340.96785
340.96778
340.96772
340.96777
340.9678
340.96788
340.96785
340.96783
340.96783
340.96785
340.96786
340.96779
340.96773
340.96776
340.96779
340.96788
340.96786
340.96784
340.96785
340.96787
340.96789
340.96781
340.96775
340.96774
340.96778
340.96788
340.96786
340.96785
340.96786
340.96789
340.96789
340.96781
340.96774
340.96768
340.96769
340.96778
340.96778
340.96778
340.96779
340.96781
340.96781
340.9677
340.96761
340.96767
340.96765
340.96771
340.96772
340.96772
340.96773
340.96775
340.96774
340.96761
340.9676
348.31153
348.31151
348.31165
348.31161
348.31158
348.31156
348.31155
348.31153
348.31147
348.31146
348.31151
348.31159
348.31168
348.31164
348.3116
348.31159
348.31159
348.31157
348.31148
348.31144
348.31165
348.31168
348.31176
348.31171
348.31168
348.31167
348.31168
348.31168
348.31157
348.3115
348.31161
348.31164
348.31171
348.31167
348.31164
348.31164
348.31165
348.31166
348.31157
348.31151
348.31158
348.3116
348.31168
348.31164
348.31161
348.31162
348.31164
348.31165
348.31157
348.31152
348.31156
348.31159
348.31167
348.31164
348.31162
348.31162
348.31165
348.31167
348.31159
348.31153
348.31155
348.31159
348.31168
348.31165
348.31164
348.31165
348.31168
348.31169
348.31161
348.31155
348.31153
348.31157
348.31168
348.31166
348.31165
348.31167
348.31169
348.31171
348.31162
348.31154
348.31147
348.31148
348.31157
348.31157
348.31157
348.31159
348.31161
348.31162
348.31151
348.31141
348.31146
348.31144
348.3115
348.31151
348.31152
348.31153
348.31155
348.31154
348.31141
348.3114
355.67376
355.67374
355.67388
355.67385
355.67381
355.67379
355.67378
355.67377
355.67371
355.6737
355.67374
355.67382
355.67391
355.67387
355.67383
355.67382
355.67382
355.67381
355.67371
355.67367
355.67388
355.67391
355.67399
355.67394
355.67391
355.6739
355.67392
355.67392
355.67381
355.67374
355.67385
355.67387
355.67394
355.6739
355.67387
355.67387
355.67389
355.6739
355.67381
355.67375
355.67381
355.67383
355.67391
355.67387
355.67384
355.67384
355.67387
355.67389
355.67381
355.67375
355.67379
355.67382
355.6739
355.67387
355.67384
355.67385
355.67389
355.67391
355.67383
355.67377
355.67378
355.67382
355.67392
355.67389
355.67387
355.67389
355.67392
355.67394
355.67386
355.6738
355.67377
355.67381
355.67392
355.6739
355.67389
355.67391
355.67394
355.67396
355.67387
355.67379
355.67371
355.67371
355.67381
355.67381
355.67381
355.67383
355.67386
355.67387
355.67375
355.67365
355.6737
355.67367
355.67374
355.67375
355.67375
355.67377
355.6738
355.67379
355.67365
355.67364
363.05786
363.05784
363.05799
363.05794
363.0579
363.05789
363.05788
363.05787
363.05781
363.0578
363.05784
363.05792
363.05801
363.05796
363.05792
363.05791
363.05792
363.05791
363.05781
363.05777
363.05799
363.05801
363.05809
363.05804
363.058
363.058
363.05802
363.05802
363.05792
363.05784
363.05794
363.05796
363.05804
363.05799
363.05796
363.05796
363.05799
363.05801
363.05792
363.05785
363.0579
363.05792
363.058
363.05796
363.05793
363.05794
363.05797
363.058
363.05792
363.05786
363.05789
363.05791
363.058
363.05796
363.05794
363.05795
363.05799
363.05802
363.05794
363.05788
363.05788
363.05792
363.05802
363.05799
363.05797
363.05799
363.05803
363.05806
363.05798
363.05792
363.05787
363.05791
363.05802
363.05801
363.058
363.05802
363.05806
363.05809
363.05799
363.05792
363.05781
363.05781
363.05792
363.05792
363.05792
363.05794
363.05798
363.05799
363.05787
363.05777
363.0578
363.05777
363.05784
363.05785
363.05786
363.05788
363.05792
363.05792
363.05777
363.05776
370.46674
370.46671
370.46686
370.46682
370.46677
370.46676
370.46676
370.46675
370.46669
370.46668
370.46671
370.46679
370.46688
370.46683
370.46679
370.46678
370.4668
370.46679
370.46669
370.46665
370.46686
370.46688
370.46696
370.46691
370.46687
370.46687
370.4669
370.46691
370.4668
370.46672
370.46682
370.46683
370.46691
370.46686
370.46683
370.46683
370.46686
370.46689
370.4668
370.46673
370.46677
370.46679
370.46687
370.46683
370.4668
370.46681
370.46685
370.46688
370.4668
370.46674
370.46676
370.46678
370.46687
370.46683
370.46681
370.46682
370.46687
370.46691
370.46683
370.46677
370.46676
370.4668
370.4669
370.46686
370.46685
370.46687
370.46692
370.46695
370.46687
370.46681
370.46675
370.46679
370.46691
370.46689
370.46688
370.46691
370.46695
370.46699
370.46689
370.46681
370.46669
370.46669
370.4668
370.4668
370.4668
370.46683
370.46687
370.46689
370.46677
370.46666
370.46668
370.46665
370.46672
370.46673
370.46674
370.46677
370.46681
370.46681
370.46666
370.46666
377.90279
377.90276
377.9029
377.90286
377.90281
377.9028
377.90281
377.9028
377.90274
377.90274
377.90276
377.90283
377.90293
377.90287
377.90283
377.90282
377.90284
377.90284
377.90274
377.9027
377.9029
377.90293
377.903
377.90295
377.90291
377.90291
377.90294
377.90296
377.90285
377.90278
377.90286
377.90287
377.90295
377.90289
377.90286
377.90287
377.90291
377.90294
377.90285
377.90279
377.90281
377.90283
377.90291
377.90286
377.90283
377.90285
377.90289
377.90294
377.90285
377.9028
377.9028
377.90282
377.90291
377.90287
377.90285
377.90287
377.90292
377.90296
377.90288
377.90283
377.90281
377.90284
377.90294
377.90291
377.90289
377.90292
377.90297
377.90302
377.90293
377.90288
377.9028
377.90284
377.90296
377.90294
377.90294
377.90296
377.90302
377.90305
377.90296
377.90288
377.90274
377.90274
377.90285
377.90285
377.90285
377.90288
377.90293
377.90296
377.90284
377.90273
377.90274
377.9027
377.90278
377.90279
377.9028
377.90283
377.90288
377.90288
377.90273
377.90273
385.36788
385.36784
385.36799
385.36794
385.3679
385.36789
385.3679
385.3679
385.36784
385.36784
385.36784
385.36792
385.36801
385.36795
385.36791
385.36791
385.36793
385.36794
385.36784
385.3678
385.36799
385.36801
385.36809
385.36803
385.36799
385.36799
385.36803
385.36805
385.36795
385.36787
385.36794
385.36795
385.36803
385.36797
385.36794
385.36795
385.368
385.36803
385.36795
385.36789
385.3679
385.36791
385.36799
385.36794
385.36791
385.36793
385.36798
385.36803
385.36795
385.3679
385.36789
385.36791
385.36799
385.36795
385.36793
385.36795
385.36801
385.36806
385.36799
385.36794
385.3679
385.36793
385.36803
385.368
385.36798
385.36801
385.36807
385.36812
385.36804
385.36799
385.3679
385.36794
385.36805
385.36803
385.36803
385.36806
385.36812
385.36817
385.36808
385.368
385.36784
385.36784
385.36795
385.36795
385.36795
385.36799
385.36804
385.36808
385.36796
385.36785
385.36784
385.3678
385.36787
385.36789
385.3679
385.36794
385.36799
385.368
385.36785
385.36785
392.86339
392.86335
392.86349
392.86344
392.8634
392.86339
392.8634
392.86341
392.86336
392.86335
392.86335
392.86342
392.86351
392.86345
392.86341
392.86341
392.86343
392.86344
392.86335
392.86332
392.86349
392.86351
392.86358
392.86352
392.86348
392.86349
392.86353
392.86356
392.86346
392.86339
392.86344
392.86345
392.86352
392.86346
392.86343
392.86345
392.8635
392.86354
392.86346
392.8634
392.8634
392.86341
392.86348
392.86343
392.86341
392.86343
392.86349
392.86354
392.86347
392.86342
392.86339
392.86341
392.86349
392.86345
392.86343
392.86345
392.86352
392.86358
392.86351
392.86346
392.8634
392.86343
392.86353
392.8635
392.86349
392.86352
392.86358
392.86364
392.86357
392.86352
392.86341
392.86344
392.86356
392.86354
392.86354
392.86358
392.86364
392.86369
392.86361
392.86353
392.86336
392.86335
392.86346
392.86346
392.86347
392.86351
392.86357
392.86361
392.86349
392.86338
392.86335
392.86332
392.86339
392.8634
392.86342
392.86346
392.86352
392.86353
392.86338
392.86338
400.39017
400.39013
400.39027
400.39022
400.39018
400.39017
400.39019
400.3902
400.39015
400.39015
400.39013
400.3902
400.39028
400.39022
400.39018
400.39018
400.39021
400.39023
400.39014
400.39011
400.39027
400.39028
400.39035
400.39029
400.39026
400.39027
400.39031
400.39035
400.39025
400.39018
400.39022
400.39022
400.39029
400.39023
400.3902
400.39022
400.39028
400.39033
400.39025
400.3902
400.39018
400.39018
400.39026
400.3902
400.39018
400.3902
400.39027
400.39033
400.39026
400.39022
400.39017
400.39018
400.39027
400.39022
400.3902
400.39023
400.3903
400.39037
400.3903
400.39026
400.39019
400.39021
400.39031
400.39028
400.39027
400.3903
400.39037
400.39044
400.39037
400.39032
400.3902
400.39023
400.39035
400.39033
400.39033
400.39037
400.39044
400.3905
400.39042
400.39035
400.39015
400.39014
400.39025
400.39025
400.39026
400.3903
400.39037
400.39042
400.3903
400.3902
400.39015
400.39011
400.39018
400.3902
400.39022
400.39026
400.39032
400.39035
400.3902
400.3902
407.94861
407.94857
407.94871
407.94865
407.94861
407.94861
407.94863
407.94864
407.9486
407.94861
407.94857
407.94864
407.94872
407.94865
407.94862
407.94862
407.94865
407.94868
407.94859
407.94857
407.94871
407.94872
407.94878
407.94872
407.94869
407.9487
407.94875
407.94879
407.9487
407.94864
407.94865
407.94865
407.94872
407.94866
407.94863
407.94865
407.94871
407.94877
407.9487
407.94865
407.94861
407.94862
407.94869
407.94863
407.94861
407.94864
407.94871
407.94878
407.94871
407.94867
407.94861
407.94862
407.9487
407.94865
407.94864
407.94867
407.94874
407.94882
407.94876
407.94872
407.94863
407.94865
407.94875
407.94871
407.94871
407.94874
407.94882
407.9489
407.94883
407.94879
407.94864
407.94868
407.94879
407.94877
407.94878
407.94882
407.9489
407.94896
407.94889
407.94882
407.9486
407.94859
407.9487
407.9487
407.94871
407.94876
407.94883
407.94889
407.94878
407.94867
407.94861
407.94857
407.94864
407.94865
407.94867
407.94872
407.94879
407.94882
407.94867
407.94868
415.53862
415.53857
415.5387
415.53865
415.53861
415.53861
415.53863
415.53865
415.53862
415.53862
415.53857
415.53863
415.53871
415.53865
415.53861
415.53861
415.53865
415.53868
415.53861
415.53858
415.5387
415.53871
415.53877
415.53871
415.53867
415.53869
415.53874
415.53879
415.53871
415.53865
415.53865
415.53865
415.53871
415.53865
415.53862
415.53864
415.53871
415.53878
415.53871
415.53866
415.53861
415.53861
415.53867
415.53862
415.5386
415.53863
415.5387
415.53878
415.53872
415.53869
415.53861
415.53861
415.53869
415.53864
415.53863
415.53867
415.53875
415.53883
415.53877
415.53874
415.53863
415.53865
415.53874
415.53871
415.5387
415.53875
415.53883
415.53891
415.53885
415.53881
415.53865
415.53868
415.53879
415.53878
415.53878
415.53883
415.53891
415.53898
415.53891
415.53885
415.53862
415.53861
415.53871
415.53871
415.53872
415.53877
415.53885
415.53891
415.53881
415.53871
415.53862
415.53858
415.53865
415.53866
415.53869
415.53874
415.53881
415.53885
415.53871
415.53872
423.15962
423.15958
423.1597
423.15965
423.15961
423.15961
423.15964
423.15967
423.15963
423.15964
423.15958
423.15964
423.15971
423.15964
423.15961
423.15962
423.15966
423.1597
423.15962
423.1596
423.1597
423.15971
423.15976
423.1597
423.15967
423.15969
423.15975
423.1598
423.15972
423.15967
423.15965
423.15964
423.1597
423.15964
423.15961
423.15964
423.15971
423.15978
423.15972
423.15968
423.15961
423.15961
423.15967
423.15961
423.15959
423.15963
423.15971
423.15979
423.15974
423.15971
423.15961
423.15962
423.15969
423.15964
423.15963
423.15967
423.15975
423.15984
423.15979
423.15976
423.15964
423.15966
423.15975
423.15971
423.15971
423.15975
423.15984
423.15993
423.15988
423.15984
423.15967
423.1597
423.1598
423.15978
423.15979
423.15984
423.15993
423.16001
423.15994
423.15989
423.15963
423.15962
423.15972
423.15972
423.15974
423.15979
423.15988
423.15994
423.15985
423.15975
423.15964
423.1596
423.15967
423.15968
423.15971
423.15976
423.15984
423.15989
423.15975
423.15977
430.81064
430.8106
430.81072
430.81066
430.81062
430.81063
430.81066
430.81069
430.81066
430.81068
430.8106
430.81065
430.81071
430.81065
430.81062
430.81063
430.81068
430.81072
430.81065
430.81064
430.81072
430.81071
430.81077
430.8107
430.81067
430.8107
430.81076
430.81082
430.81075
430.8107
430.81066
430.81065
430.8107
430.81064
430.81062
430.81065
430.81073
430.8108
430.81075
430.81071
430.81062
430.81062
430.81067
430.81062
430.8106
430.81064
430.81072
430.81081
430.81077
430.81074
430.81063
430.81063
430.8107
430.81065
430.81064
430.81068
430.81077
430.81087
430.81083
430.8108
430.81066
430.81068
430.81076
430.81073
430.81072
430.81077
430.81087
430.81096
430.81091
430.81088
430.81069
430.81072
430.81082
430.8108
430.81081
430.81087
430.81096
430.81104
430.81099
430.81093
430.81066
430.81065
430.81075
430.81075
430.81077
430.81083
430.81091
430.81099
430.8109
430.8108
430.81068
430.81064
430.8107
430.81071
430.81074
430.8108
430.81088
430.81093
430.8108
430.81082
438.49027
438.49022
438.49033
438.49027
438.49024
438.49025
438.49028
438.49032
438.4903
438.49032
438.49022
438.49027
438.49033
438.49026
438.49023
438.49025
438.4903
438.49035
438.49029
438.49027
438.49033
438.49033
438.49038
438.49031
438.49028
438.49031
438.49038
438.49044
438.49038
438.49034
438.49027
438.49026
438.49031
438.49025
438.49023
438.49026
438.49034
438.49043
438.49038
438.49035
438.49024
438.49023
438.49028
438.49023
438.49022
438.49026
438.49034
438.49044
438.4904
438.49038
438.49025
438.49025
438.49031
438.49026
438.49026
438.4903
438.4904
438.49049
438.49046
438.49044
438.49028
438.4903
438.49038
438.49034
438.49034
438.4904
438.49049
438.49059
438.49055
438.49053
438.49032
438.49035
438.49044
438.49043
438.49044
438.49049
438.49059
438.49068
438.49063
438.49058
438.4903
438.49029
438.49038
438.49038
438.4904
438.49046
438.49055
438.49063
438.49055
438.49046
438.49032
438.49027
438.49034
438.49035
438.49038
438.49044
438.49053
438.49058
438.49046
438.49048
446.19669
446.19664
446.19675
446.19669
446.19666
446.19667
446.19671
446.19675
446.19674
446.19676
446.19664
446.19669
446.19674
446.19668
446.19665
446.19667
446.19672
446.19678
446.19672
446.19672
446.19675
446.19674
446.19679
446.19672
446.1967
446.19673
446.1968
446.19687
446.19681
446.19677
446.19669
446.19668
446.19672
446.19667
446.19665
446.19668
446.19677
446.19685
446.19681
446.19679
446.19666
446.19665
446.1967
446.19665
446.19663
446.19668
446.19677
446.19687
446.19684
446.19682
446.19667
446.19667
446.19673
446.19668
446.19668
446.19673
446.19682
446.19693
446.1969
446.19689
446.19671
446.19672
446.1968
446.19677
446.19677
446.19682
446.19692
446.19702
446.19699
446.19698
446.19675
446.19678
446.19687
446.19685
446.19687
446.19693
446.19702
446.19712
446.19708
446.19703
446.19674
446.19672
446.19681
446.19681
446.19684
446.1969
446.19699
446.19708
446.197
446.19692
446.19676
446.19672
446.19677
446.19679
446.19682
446.19689
446.19698
446.19703
446.19692
446.19695
453.92776
453.92771
453.92781
453.92775
453.92772
453.92773
453.92778
453.92782
453.92781
453.92784
453.92771
453.92774
453.92779
453.92773
453.92771
453.92773
453.92779
453.92784
453.9278
453.92779
453.92781
453.92779
453.92783
453.92777
453.92775
453.92778
453.92786
453.92793
453.92788
453.92785
453.92775
453.92773
453.92777
453.92772
453.9277
453.92774
453.92783
453.92792
453.92788
453.92787
453.92772
453.92771
453.92775
453.9277
453.92769
453.92774
453.92783
453.92793
453.92791
453.9279
453.92773
453.92773
453.92778
453.92774
453.92774
453.92779
453.92789
453.92799
453.92797
453.92796
453.92778
453.92779
453.92786
453.92783
453.92783
453.92789
453.92799
453.92809
453.92807
453.92806
453.92782
453.92784
453.92793
453.92792
453.92793
453.92799
453.92809
453.92819
453.92816
453.92812
453.92781
453.9278
453.92788
453.92788
453.92791
453.92797
453.92807
453.92816
453.92809
453.92801
453.92784
453.92779
453.92785
453.92787
453.9279
453.92796
453.92806
453.92812
453.92801
453.92804
461.68095
461.6809
461.68099
461.68094
461.68091
461.68093
461.68097
461.68102
461.68102
461.68104
461.6809
461.68093
461.68098
461.68092
461.6809
461.68092
461.68098
461.68104
461.681
461.681
461.68099
461.68098
461.68101
461.68096
461.68094
461.68097
461.68104
461.68112
461.68108
461.68105
461.68094
461.68092
461.68096
461.6809
461.68089
461.68093
461.68102
461.68111
461.68109
461.68107
461.68091
461.6809
461.68094
461.68089
461.68088
461.68093
461.68102
461.68113
461.68111
461.68111
461.68093
461.68092
461.68097
461.68093
461.68093
461.68098
461.68108
461.68119
461.68118
461.68117
461.68097
461.68098
461.68104
461.68102
461.68102
461.68108
461.68118
461.68129
461.68128
461.68127
461.68102
461.68104
461.68112
461.68111
461.68113
461.68119
461.68129
461.68139
461.68137
461.68133
461.68102
461.681
461.68108
461.68109
461.68111
461.68118
461.68128
461.68137
461.68131
461.68123
461.68104
461.681
461.68105
461.68107
461.68111
461.68117
461.68127
461.68133
461.68123
461.68127
469.45346
469.45341
469.45349
469.45344
469.45342
469.45343
469.45349
469.45354
469.45354
469.45357
469.45341
469.45344
469.45348
469.45342
469.4534
469.45343
469.45349
469.45355
469.45352
469.45353
469.45349
469.45348
469.45351
469.45345
469.45344
469.45347
469.45355
469.45363
469.45359
469.45357
469.45344
469.45342
469.45345
469.4534
469.45339
469.45343
469.45352
469.45362
469.4536
469.45359
469.45342
469.4534
469.45344
469.45339
469.45339
469.45343
469.45353
469.45364
469.45363
469.45363
469.45343
469.45343
469.45347
469.45343
469.45343
469.45349
469.45359
469.4537
469.4537
469.4537
469.45349
469.45349
469.45355
469.45352
469.45353
469.45359
469.45369
469.4538
469.4538
469.45379
469.45354
469.45355
469.45363
469.45362
469.45364
469.4537
469.4538
469.45391
469.45389
469.45386
469.45354
469.45352
469.45359
469.4536
469.45363
469.4537
469.4538
469.45389
469.45383
469.45377
469.45357
469.45353
469.45357
469.45359
469.45363
469.4537
469.45379
469.45386
469.45377
469.4538
477.24219
477.24214
477.24221
477.24216
477.24214
477.24216
477.24221
477.24227
477.24227
477.2423
477.24214
477.24216
477.24219
477.24214
477.24212
477.24215
477.24222
477.24228
477.24226
477.24227
477.24221
477.24219
477.24222
477.24217
477.24216
477.24219
477.24227
477.24235
477.24233
477.24231
477.24216
477.24214
477.24217
477.24212
477.24211
477.24216
477.24225
477.24234
477.24233
477.24233
477.24214
477.24212
477.24216
477.24211
477.24211
477.24216
477.24226
477.24236
477.24236
477.24236
477.24216
477.24215
477.24219
477.24216
477.24216
477.24222
477.24232
477.24243
477.24243
477.24243
477.24221
477.24222
477.24227
477.24225
477.24226
477.24232
477.24242
477.24253
477.24253
477.24253
477.24227
477.24228
477.24235
477.24234
477.24236
477.24243
477.24253
477.24264
477.24262
477.2426
477.24227
477.24226
477.24233
477.24233
477.24236
477.24243
477.24253
477.24262
477.24257
477.24251
477.2423
477.24227
477.24231
477.24233
477.24236
477.24243
477.24253
477.2426
477.24251
477.24255
485.04378
485.04373
485.0438
485.04375
485.04373
485.04376
485.04381
485.04387
485.04388
485.04391
485.04373
485.04375
485.04378
485.04373
485.04372
485.04375
485.04381
485.04388
485.04386
485.04387
485.0438
485.04378
485.0438
485.04376
485.04374
485.04378
485.04386
485.04394
485.04392
485.04391
485.04375
485.04373
485.04376
485.04371
485.04371
485.04375
485.04384
485.04394
485.04393
485.04393
485.04373
485.04372
485.04374
485.04371
485.04371
485.04376
485.04385
485.04396
485.04396
485.04397
485.04376
485.04375
485.04378
485.04375
485.04376
485.04381
485.04391
485.04402
485.04403
485.04404
485.04381
485.04381
485.04386
485.04384
485.04385
485.04391
485.04401
485.04412
485.04413
485.04413
485.04387
485.04388
485.04394
485.04394
485.04396
485.04402
485.04412
485.04423
485.04422
485.0442
485.04388
485.04386
485.04392
485.04393
485.04396
485.04403
485.04413
485.04422
485.04418
485.04413
485.04391
485.04387
485.04391
485.04393
485.04397
485.04404
485.04413
485.0442
485.04413
485.04417
492.85467
492.85463
492.85468
492.85464
492.85463
492.85465
492.85471
492.85476
492.85478
492.85481
492.85463
492.85464
492.85466
492.85462
492.85461
492.85464
492.85471
492.85477
492.85476
492.85477
492.85468
492.85466
492.85468
492.85464
492.85463
492.85467
492.85475
492.85483
492.85482
492.85481
492.85464
492.85462
492.85464
492.8546
492.8546
492.85464