/*--------------------------------*- C++ -*----------------------------------*\
| =========                 |                                                 |
| \\      /  F ield         | OpenFOAM: The Open Source CFD Toolbox           |
|  \\    /   O peration     | Version:  v2106                                 |
|   \\  /    A nd           | Website:  www.openfoam.com                      |
|    \\/     M anipulation  |                                                 |
\*---------------------------------------------------------------------------*/
FoamFile
{
    version     2.0;
    format      ascii;
    arch        "LSB;label=32;scalar=64";
    class       volVectorField;
    location    "45";
    object      flux;
}
// * * * * * * * * * * * * * * * * * * * * * * * * * * * * * * * * * * * * * //

dimensions      [0 1 -1 1 0 0 0];

internalField   nonuniform List<vector> 
4000
(
(9.8401889e-07 9.8401889e-07 0.69648183)
(5.532095e-07 1.8008475e-07 0.69648834)
(-1.2355108e-06 2.7090358e-07 0.6964841)
(-4.7585915e-07 2.7535979e-07 0.69648246)
(-2.0571864e-07 2.7900018e-07 0.69648161)
(1.0742208e-08 2.858964e-07 0.69648139)
(1.6195773e-07 2.9976031e-07 0.69648168)
(2.0304087e-07 3.2792133e-07 0.69648227)
(9.3432528e-08 3.7293485e-07 0.69648276)
(-6.2947439e-10 3.8383289e-07 0.69648261)
(1.8008475e-07 5.532095e-07 0.69648834)
(-5.1646349e-07 -5.1646349e-07 0.69648981)
(-1.0925982e-06 -3.6851275e-07 0.69648606)
(-4.6371424e-07 -3.5596729e-07 0.69648445)
(-1.8991373e-07 -3.4144397e-07 0.69648362)
(4.1882413e-08 -3.1734476e-07 0.69648346)
(2.2499513e-07 -2.7453812e-07 0.69648387)
(3.1280267e-07 -1.928797e-07 0.69648468)
(1.7729986e-07 -4.6805302e-08 0.69648554)
(1.0268557e-08 1.0805597e-07 0.6964853)
(2.7090358e-07 -1.2355107e-06 0.6964841)
(-3.6851275e-07 -1.0925982e-06 0.69648606)
(-1.0750145e-06 -1.0750145e-06 0.69648237)
(-4.4879036e-07 -1.0604629e-06 0.69648079)
(-1.6709612e-07 -1.039791e-06 0.69648002)
(7.7648051e-08 -1.0109275e-06 0.69647993)
(2.8642279e-07 -9.6916871e-07 0.69648045)
(4.3077369e-07 -9.0479001e-07 0.69648148)
(3.943682e-07 -7.9807049e-07 0.69648275)
(1.0261137e-07 -6.3647084e-07 0.69648322)
(2.7535979e-07 -4.7585914e-07 0.69648246)
(-3.5596729e-07 -4.6371424e-07 0.69648445)
(-1.0604629e-06 -4.4879036e-07 0.69648079)
(-4.2849069e-07 -4.284907e-07 0.69647926)
(-1.4037829e-07 -4.0362317e-07 0.69647855)
(1.1250471e-07 -3.7363913e-07 0.69647854)
(3.311326e-07 -3.3696523e-07 0.69647917)
(4.8390089e-07 -2.9309445e-07 0.69648032)
(4.4561903e-07 -2.4623288e-07 0.69648175)
(1.1800166e-07 -2.1065106e-07 0.69648236)
(2.7900018e-07 -2.0571865e-07 0.69648161)
(-3.4144397e-07 -1.8991373e-07 0.69648362)
(-1.039791e-06 -1.6709612e-07 0.69648002)
(-4.0362317e-07 -1.403783e-07 0.69647855)
(-1.1224455e-07 -1.1224456e-07 0.69647791)
(1.4430599e-07 -8.3291144e-08 0.69647798)
(3.6696747e-07 -5.3008012e-08 0.69647869)
(5.2150604e-07 -2.1702662e-08 0.69647995)
(4.7681158e-07 7.3648864e-09 0.69648148)
(1.2633259e-07 2.608477e-08 0.69648214)
(2.858964e-07 1.0742209e-08 0.69648139)
(-3.1734476e-07 4.1882415e-08 0.69648346)
(-1.0109275e-06 7.7648049e-08 0.69647993)
(-3.7363913e-07 1.1250471e-07 0.69647854)
(-8.3291138e-08 1.4430599e-07 0.69647798)
(1.7174125e-07 1.7174125e-07 0.69647813)
(3.9272108e-07 1.9532025e-07 0.69647891)
(5.4427379e-07 2.1486544e-07 0.69648023)
(4.9340646e-07 2.2924495e-07 0.69648181)
(1.3048158e-07 2.3682801e-07 0.69648251)
(2.9976032e-07 1.6195773e-07 0.69648168)
(-2.7453813e-07 2.2499512e-07 0.69648387)
(-9.6916871e-07 2.8642279e-07 0.69648045)
(-3.3696523e-07 3.3113261e-07 0.69647917)
(-5.3008015e-08 3.6696748e-07 0.69647869)
(1.9532025e-07 3.9272108e-07 0.69647891)
(4.1009166e-07 4.1009165e-07 0.69647974)
(5.5543074e-07 4.194551e-07 0.6964811)
(4.9877415e-07 4.21015e-07 0.69648271)
(1.3138795e-07 4.1783045e-07 0.69648341)
(3.2792133e-07 2.0304086e-07 0.69648227)
(-1.928797e-07 3.1280267e-07 0.69648468)
(-9.0478999e-07 4.3077369e-07 0.69648148)
(-2.9309445e-07 4.8390089e-07 0.69648032)
(-2.170267e-08 5.2150604e-07 0.69647995)
(2.1486543e-07 5.4427379e-07 0.69648023)
(4.194551e-07 5.5543075e-07 0.6964811)
(5.5519713e-07 5.5519712e-07 0.69648247)
(4.9178181e-07 5.426697e-07 0.69648406)
(1.2835855e-07 5.2322258e-07 0.69648474)
(3.7293485e-07 9.3432526e-08 0.69648276)
(-4.6805301e-08 1.7729987e-07 0.69648554)
(-7.9807049e-07 3.9436819e-07 0.69648275)
(-2.4623288e-07 4.4561902e-07 0.69648175)
(7.3648891e-09 4.7681158e-07 0.69648148)
(2.2924496e-07 4.9340646e-07 0.69648181)
(4.21015e-07 4.9877416e-07 0.69648271)
(5.4266969e-07 4.9178181e-07 0.69648406)
(4.6679962e-07 4.6679962e-07 0.69648559)
(1.1842321e-07 4.2283983e-07 0.69648618)
(3.8383289e-07 -6.2947511e-10 0.69648261)
(1.0805597e-07 1.0268559e-08 0.6964853)
(-6.3647085e-07 1.0261137e-07 0.69648322)
(-2.1065107e-07 1.1800166e-07 0.69648236)
(2.6084772e-08 1.2633258e-07 0.69648214)
(2.3682801e-07 1.3048158e-07 0.69648251)
(4.1783045e-07 1.3138795e-07 0.69648341)
(5.2322259e-07 1.2835855e-07 0.69648474)
(4.2283983e-07 1.1842321e-07 0.69648618)
(9.9052024e-08 9.9052026e-08 0.69648653)
(3.5686082e-06 3.5686082e-06 1.0362198)
(1.7494769e-06 9.2997767e-07 1.0362256)
(-5.134695e-06 1.148727e-06 1.0362209)
(-2.3200096e-06 1.1676923e-06 1.0362186)
(-9.8282954e-07 1.1860027e-06 1.0362174)
(8.6918394e-08 1.2198892e-06 1.0362172)
(8.3810861e-07 1.2888004e-06 1.0362178)
(1.0106409e-06 1.432539e-06 1.0362188)
(2.262591e-07 1.6619317e-06 1.0362196)
(-1.5151396e-07 1.5440194e-06 1.0362185)
(9.2997768e-07 1.7494769e-06 1.0362256)
(-1.8803451e-06 -1.8803451e-06 1.036227)
(-4.778123e-06 -1.4922483e-06 1.0362226)
(-2.264096e-06 -1.430623e-06 1.0362203)
(-9.0453417e-07 -1.3578754e-06 1.0362192)
(2.4111487e-07 -1.2392751e-06 1.036219)
(1.1570833e-06 -1.0273052e-06 1.0362198)
(1.5703379e-06 -6.1487754e-07 1.0362212)
(3.9347975e-07 1.3082261e-07 1.0362227)
(-2.6942628e-07 5.9947102e-07 1.0362214)
(1.148727e-06 -5.134695e-06 1.0362209)
(-1.4922483e-06 -4.778123e-06 1.0362226)
(-4.6849729e-06 -4.6849729e-06 1.0362182)
(-2.1856367e-06 -4.6077804e-06 1.036216)
(-7.9148168e-07 -4.5052279e-06 1.036215)
(4.1748861e-07 -4.3631876e-06 1.0362149)
(1.4625062e-06 -4.1575236e-06 1.0362158)
(2.1687686e-06 -3.8372405e-06 1.0362175)
(1.4406076e-06 -3.2894245e-06 1.0362197)
(1.609183e-07 -2.5126302e-06 1.0362194)
(1.1676923e-06 -2.3200096e-06 1.0362186)
(-1.430623e-06 -2.264096e-06 1.0362203)
(-4.6077804e-06 -2.1856367e-06 1.036216)
(-2.084351e-06 -2.084351e-06 1.0362139)
(-6.5994137e-07 -1.9618788e-06 1.0362129)
(5.8881914e-07 -1.8145155e-06 1.036213)
(1.6830303e-06 -1.6344365e-06 1.036214)
(2.4384371e-06 -1.4187591e-06 1.0362159)
(1.7180901e-06 -1.1818588e-06 1.0362184)
(2.4843664e-07 -9.9076354e-07 1.0362182)
(1.1860027e-06 -9.8282954e-07 1.0362174)
(-1.3578754e-06 -9.0453417e-07 1.0362192)
(-4.5052279e-06 -7.9148169e-07 1.036215)
(-1.9618788e-06 -6.5994138e-07 1.0362129)
(-5.2164611e-07 -5.2164612e-07 1.0362121)
(7.4493089e-07 -3.7935885e-07 1.0362122)
(1.8582625e-06 -2.3071565e-07 1.0362134)
(2.6213463e-06 -7.768946e-08 1.0362155)
(1.8686032e-06 6.3612189e-08 1.036218)
(2.8831515e-07 1.5294217e-07 1.036218)
(1.2198892e-06 8.6918398e-08 1.0362172)
(-1.2392751e-06 2.4111487e-07 1.036219)
(-4.3631876e-06 4.1748861e-07 1.0362149)
(-1.8145155e-06 5.8881914e-07 1.036213)
(-3.7935884e-07 7.4493089e-07 1.0362122)
(8.7974961e-07 8.797496e-07 1.0362125)
(1.9846997e-06 9.9548848e-07 1.0362138)
(2.7327649e-06 1.0911571e-06 1.036216)
(1.9487218e-06 1.1608829e-06 1.0362186)
(3.0798996e-07 1.1961143e-06 1.0362186)
(1.2888004e-06 8.3810861e-07 1.0362178)
(-1.0273052e-06 1.1570833e-06 1.0362198)
(-4.1575236e-06 1.4625062e-06 1.0362158)
(-1.6344365e-06 1.6830304e-06 1.036214)
(-2.3071565e-07 1.8582625e-06 1.0362134)
(9.9548848e-07 1.9846997e-06 1.0362138)
(2.06967e-06 2.0696699e-06 1.0362152)
(2.7867407e-06 2.1145451e-06 1.0362174)
(1.9735605e-06 2.1192347e-06 1.03622)
(3.1180273e-07 2.098027e-06 1.0362201)
(1.432539e-06 1.0106409e-06 1.0362188)
(-6.1487755e-07 1.5703379e-06 1.0362212)
(-3.8372405e-06 2.1687686e-06 1.0362175)
(-1.4187591e-06 2.4384371e-06 1.0362159)
(-7.7689465e-08 2.6213463e-06 1.0362155)
(1.0911571e-06 2.7327649e-06 1.036216)
(2.1145451e-06 2.7867407e-06 1.0362174)
(2.7823297e-06 2.7823297e-06 1.0362196)
(1.9322036e-06 2.7092385e-06 1.0362222)
(2.9385143e-07 2.5842992e-06 1.0362222)
(1.6619317e-06 2.262591e-07 1.0362196)
(1.3082261e-07 3.9347975e-07 1.0362227)
(-3.2894245e-06 1.4406076e-06 1.0362197)
(-1.1818588e-06 1.7180901e-06 1.0362184)
(6.3612187e-08 1.8686032e-06 1.036218)
(1.1608829e-06 1.9487218e-06 1.0362186)
(2.1192348e-06 1.9735605e-06 1.03622)
(2.7092385e-06 1.9322036e-06 1.0362222)
(1.77553e-06 1.77553e-06 1.0362247)
(2.2850985e-07 1.4272003e-06 1.0362244)
(1.5440194e-06 -1.5151396e-07 1.0362185)
(5.9947102e-07 -2.6942628e-07 1.0362214)
(-2.5126302e-06 1.609183e-07 1.0362194)
(-9.9076355e-07 2.4843664e-07 1.0362182)
(1.5294217e-07 2.8831516e-07 1.036218)
(1.1961143e-06 3.0798996e-07 1.0362186)
(2.098027e-06 3.1180273e-07 1.0362201)
(2.5842992e-06 2.9385143e-07 1.0362222)
(1.4272003e-06 2.2850986e-07 1.0362244)
(6.1631665e-08 6.1631669e-08 1.0362231)
(4.8224994e-06 4.8224994e-06 1.036738)
(1.6188833e-06 1.1170295e-06 1.0367415)
(-8.2241002e-06 1.3843515e-06 1.0367377)
(-3.9446693e-06 1.4129771e-06 1.0367357)
(-1.6119414e-06 1.4450823e-06 1.0367347)
(3.2101816e-07 1.5047416e-06 1.0367346)
(1.7369022e-06 1.628684e-06 1.0367353)
(2.0549269e-06 1.9077955e-06 1.0367367)
(-2.0686403e-07 2.4368716e-06 1.0367379)
(-7.4827546e-07 2.3429618e-06 1.0367363)
(1.1170295e-06 1.6188833e-06 1.0367415)
(-3.5383391e-06 -3.5383391e-06 1.036742)
(-7.780179e-06 -3.048113e-06 1.0367384)
(-3.8535731e-06 -2.9465674e-06 1.0367364)
(-1.4742946e-06 -2.8171805e-06 1.0367354)
(5.9642077e-07 -2.6063808e-06 1.0367354)
(2.3414831e-06 -2.2279383e-06 1.0367363)
(3.2672083e-06 -1.4651859e-06 1.036738)
(4.4588541e-07 3.5229888e-08 1.0367401)
(-8.4218527e-07 9.7176067e-07 1.0367385)
(1.3843515e-06 -8.2241002e-06 1.0367377)
(-3.048113e-06 -7.780179e-06 1.0367384)
(-7.6323286e-06 -7.6323286e-06 1.0367347)
(-3.7137368e-06 -7.4947231e-06 1.0367328)
(-1.2717549e-06 -7.3107863e-06 1.0367319)
(9.1026032e-07 -7.056171e-06 1.036732)
(2.8780971e-06 -6.6889859e-06 1.0367331)
(4.318095e-06 -6.1220179e-06 1.0367351)
(2.2300824e-06 -5.1461005e-06 1.0367378)
(-1.2392163e-07 -3.823861e-06 1.0367371)
(1.4129771e-06 -3.9446692e-06 1.0367357)
(-2.9465674e-06 -3.8535731e-06 1.0367364)
(-7.4947231e-06 -3.7137368e-06 1.0367328)
(-3.5320309e-06 -3.5320309e-06 1.0367309)
(-1.0357425e-06 -3.3125815e-06 1.0367301)
(1.2182212e-06 -3.0485011e-06 1.0367304)
(3.2756362e-06 -2.7254804e-06 1.0367316)
(4.8100937e-06 -2.3382504e-06 1.0367338)
(2.7440424e-06 -1.9073729e-06 1.0367367)
(3.9307756e-08 -1.5552994e-06 1.0367362)
(1.4450823e-06 -1.6119414e-06 1.0367347)
(-2.8171805e-06 -1.4742946e-06 1.0367354)
(-7.3107863e-06 -1.2717549e-06 1.0367319)
(-3.3125815e-06 -1.0357425e-06 1.0367301)
(-7.8822515e-07 -7.8822515e-07 1.0367294)
(1.4973613e-06 -5.3369754e-07 1.0367298)
(3.5883478e-06 -2.6811606e-07 1.0367311)
(5.1362026e-06 4.5527619e-09 1.0367335)
(3.0130335e-06 2.5604398e-07 1.0367366)
(1.1079405e-07 4.1504034e-07 1.0367361)
(1.5047416e-06 3.2101816e-07 1.0367346)
(-2.6063808e-06 5.9642077e-07 1.0367354)
(-7.056171e-06 9.1026032e-07 1.036732)
(-3.0485011e-06 1.2182212e-06 1.0367304)
(-5.3369754e-07 1.4973613e-06 1.0367298)
(1.7383303e-06 1.7383303e-06 1.0367302)
(3.8138865e-06 1.944742e-06 1.0367317)
(5.3342538e-06 2.1144581e-06 1.0367341)
(3.15453e-06 2.2365704e-06 1.0367373)
(1.4530533e-07 2.2962255e-06 1.0367369)
(1.628684e-06 1.7369022e-06 1.0367353)
(-2.2279384e-06 2.3414831e-06 1.0367363)
(-6.6889859e-06 2.8780971e-06 1.0367331)
(-2.7254804e-06 3.2756362e-06 1.0367316)
(-2.6811605e-07 3.5883478e-06 1.0367311)
(1.944742e-06 3.8138865e-06 1.0367317)
(3.9644756e-06 3.9644756e-06 1.0367332)
(5.428031e-06 4.0411611e-06 1.0367357)
(3.1948009e-06 4.0403999e-06 1.0367389)
(1.505641e-07 3.9860033e-06 1.0367385)
(1.9077955e-06 2.0549269e-06 1.0367367)
(-1.4651859e-06 3.2672083e-06 1.036738)
(-6.1220179e-06 4.318095e-06 1.0367351)
(-2.3382504e-06 4.8100937e-06 1.0367338)
(4.5527707e-09 5.1362026e-06 1.0367335)
(2.1144581e-06 5.3342538e-06 1.0367341)
(4.0411611e-06 5.428031e-06 1.0367357)
(5.4101781e-06 5.4101781e-06 1.0367382)
(3.0993722e-06 5.2409104e-06 1.0367414)
(1.090409e-07 4.905685e-06 1.0367409)
(2.4368716e-06 -2.0686404e-07 1.0367379)
(3.5229892e-08 4.4588541e-07 1.0367401)
(-5.1461005e-06 2.2300824e-06 1.0367378)
(-1.9073729e-06 2.7440424e-06 1.0367367)
(2.5604399e-07 3.0130335e-06 1.0367366)
(2.2365704e-06 3.15453e-06 1.0367373)
(4.0403999e-06 3.1948009e-06 1.0367389)
(5.2409104e-06 3.0993722e-06 1.0367414)
(2.6903078e-06 2.6903078e-06 1.0367444)
(-7.2919499e-08 1.3619068e-06 1.0367435)
(2.3429618e-06 -7.4827546e-07 1.0367363)
(9.7176068e-07 -8.4218527e-07 1.0367385)
(-3.823861e-06 -1.2392163e-07 1.0367371)
(-1.5552994e-06 3.9307758e-08 1.0367362)
(4.1504034e-07 1.1079405e-07 1.0367361)
(2.2962255e-06 1.4530532e-07 1.0367369)
(3.9860033e-06 1.505641e-07 1.0367385)
(4.9056851e-06 1.090409e-07 1.0367409)
(1.3619068e-06 -7.2919497e-08 1.0367435)
(-7.7655977e-07 -7.7655977e-07 1.0367407)
(5.8812641e-06 5.8812641e-06 1.0375403)
(1.4005801e-06 1.2843585e-06 1.0375434)
(-1.0980528e-05 1.602714e-06 1.0375398)
(-5.345247e-06 1.6416417e-06 1.037538)
(-2.0556176e-06 1.6875092e-06 1.0375372)
(7.5324856e-07 1.7719857e-06 1.0375373)
(2.9175984e-06 1.9470087e-06 1.0375383)
(3.5806825e-06 2.3502179e-06 1.0375399)
(-1.0082882e-07 3.1639363e-06 1.0375416)
(-1.1911627e-06 3.0250819e-06 1.0375404)
(1.2843585e-06 1.4005801e-06 1.0375434)
(-5.0172459e-06 -5.0172459e-06 1.0375438)
(-1.0444604e-05 -4.4213821e-06 1.0375405)
(-5.2180542e-06 -4.2787411e-06 1.0375387)
(-1.8601017e-06 -4.0928164e-06 1.0375379)
(1.1424978e-06 -3.7915588e-06 1.0375381)
(3.7849467e-06 -3.2532932e-06 1.0375392)
(5.4060739e-06 -2.1599901e-06 1.0375412)
(9.114673e-07 6.7353312e-08 1.0375437)
(-1.330017e-06 1.3271192e-06 1.0375424)
(1.602714e-06 -1.0980528e-05 1.0375398)
(-4.4213821e-06 -1.0444604e-05 1.0375405)
(-1.0242024e-05 -1.0242024e-05 1.0375372)
(-5.0166813e-06 -1.0043809e-05 1.0375355)
(-1.5684353e-06 -9.7788899e-06 1.0375348)
(1.5927717e-06 -9.4127173e-06 1.0375351)
(4.5491669e-06 -8.8858022e-06 1.0375363)
(6.9013288e-06 -8.076781e-06 1.0375386)
(3.3862804e-06 -6.6789518e-06 1.0375417)
(-3.513188e-07 -4.8566156e-06 1.0375412)
(1.6416417e-06 -5.345247e-06 1.037538)
(-4.2787411e-06 -5.2180542e-06 1.0375387)
(-1.0043809e-05 -5.0166813e-06 1.0375355)
(-4.7549204e-06 -4.7549204e-06 1.0375338)
(-1.2290103e-06 -4.4394269e-06 1.0375332)
(2.0355856e-06 -4.0601822e-06 1.0375336)
(5.1208831e-06 -3.5964249e-06 1.037535)
(7.6129244e-06 -3.0410216e-06 1.0375375)
(4.1316329e-06 -2.4186786e-06 1.0375409)
(-1.1512622e-07 -1.9107882e-06 1.0375405)
(1.6875092e-06 -2.0556176e-06 1.0375372)
(-4.0928164e-06 -1.8601017e-06 1.0375379)
(-9.7788899e-06 -1.5684353e-06 1.0375348)
(-4.4394269e-06 -1.2290102e-06 1.0375332)
(-8.7369706e-07 -8.7369707e-07 1.0375327)
(2.4357736e-06 -5.0873313e-07 1.0375332)
(5.5683275e-06 -1.284678e-07 1.0375348)
(8.0790752e-06 2.6091696e-07 1.0375374)
(4.5165138e-06 6.1974348e-07 1.0375409)
(-1.2725226e-08 8.465521e-07 1.0375406)
(1.7719857e-06 7.5324856e-07 1.0375373)
(-3.7915588e-06 1.1424978e-06 1.0375381)
(-9.4127173e-06 1.5927717e-06 1.0375351)
(-4.0601822e-06 2.0355856e-06 1.0375336)
(-5.0873314e-07 2.4357736e-06 1.0375332)
(2.7808149e-06 2.7808149e-06 1.0375338)
(5.8905332e-06 3.0755847e-06 1.0375355)
(8.3611357e-06 3.3167438e-06 1.0375382)
(4.7172681e-06 3.4888234e-06 1.0375418)
(3.6079527e-08 3.5717738e-06 1.0375415)
(1.9470087e-06 2.9175984e-06 1.0375383)
(-3.2532932e-06 3.7849467e-06 1.0375392)
(-8.8858022e-06 4.5491669e-06 1.0375363)
(-3.5964249e-06 5.1208831e-06 1.037535)
(-1.284678e-07 5.5683275e-06 1.0375348)
(3.0755848e-06 5.8905332e-06 1.0375355)
(6.1042564e-06 6.1042565e-06 1.0375372)
(8.4923139e-06 6.2102216e-06 1.0375399)
(4.7715438e-06 6.2020992e-06 1.0375436)
(4.257502e-08 6.1147355e-06 1.0375433)
(2.3502179e-06 3.5806825e-06 1.0375399)
(-2.1599901e-06 5.4060739e-06 1.0375412)
(-8.076781e-06 6.9013288e-06 1.0375386)
(-3.0410216e-06 7.6129244e-06 1.0375375)
(2.6091696e-07 8.0790752e-06 1.0375374)
(3.3167438e-06 8.3611357e-06 1.0375382)
(6.2102216e-06 8.4923139e-06 1.0375399)
(8.4589784e-06 8.4589784e-06 1.0375427)
(4.621782e-06 8.1899401e-06 1.0375463)
(-2.2162974e-08 7.621845e-06 1.037546)
(3.1639363e-06 -1.0082883e-07 1.0375416)
(6.7353322e-08 9.1146731e-07 1.0375437)
(-6.6789518e-06 3.3862804e-06 1.0375417)
(-2.4186786e-06 4.1316329e-06 1.0375409)
(6.1974348e-07 4.5165138e-06 1.0375409)
(3.4888234e-06 4.7172681e-06 1.0375418)
(6.2020992e-06 4.7715438e-06 1.0375436)
(8.1899401e-06 4.621782e-06 1.0375463)
(3.9344103e-06 3.9344103e-06 1.0375497)
(-3.3615509e-07 1.1820769e-06 1.037549)
(3.025082e-06 -1.1911627e-06 1.0375404)
(1.3271192e-06 -1.330017e-06 1.0375424)
(-4.8566156e-06 -3.513188e-07 1.0375412)
(-1.9107882e-06 -1.1512622e-07 1.0375405)
(8.4655209e-07 -1.2725219e-08 1.0375406)
(3.5717738e-06 3.6079527e-08 1.0375415)
(6.1147355e-06 4.2575017e-08 1.0375433)
(7.621845e-06 -2.2162979e-08 1.037546)
(1.1820769e-06 -3.3615508e-07 1.037549)
(-1.8570518e-06 -1.8570518e-06 1.0375457)
(6.8631252e-06 6.8631252e-06 1.0386207)
(1.1713826e-06 1.435707e-06 1.0386236)
(-1.3534915e-05 1.8104238e-06 1.0386203)
(-6.5585588e-06 1.8613358e-06 1.0386186)
(-2.32229e-06 1.9213296e-06 1.038618)
(1.3671381e-06 2.0304853e-06 1.0386182)
(4.3061121e-06 2.2557589e-06 1.0386194)
(5.3741603e-06 2.7796586e-06 1.0386212)
(3.2168244e-07 3.871167e-06 1.0386231)
(-1.5258962e-06 3.6647514e-06 1.0386222)
(1.435707e-06 1.1713826e-06 1.0386236)
(-6.4076707e-06 -6.4076707e-06 1.038624)
(-1.2896472e-05 -5.6940005e-06 1.0386208)
(-6.3922001e-06 -5.5062219e-06 1.0386192)
(-2.0685657e-06 -5.2631078e-06 1.0386186)
(1.8687821e-06 -4.8723707e-06 1.038619)
(5.4298721e-06 -4.1771638e-06 1.0386202)
(7.7972725e-06 -2.7619093e-06 1.0386224)
(1.6493218e-06 1.759736e-07 1.0386252)
(-1.7323118e-06 1.7008976e-06 1.0386241)
(1.8104238e-06 -1.3534915e-05 1.0386203)
(-5.6940005e-06 -1.2896472e-05 1.0386208)
(-1.2633466e-05 -1.2633466e-05 1.0386178)
(-6.1276662e-06 -1.2372669e-05 1.0386162)
(-1.6884389e-06 -1.2027011e-05 1.0386157)
(2.4530821e-06 -1.1551062e-05 1.0386161)
(6.4165733e-06 -1.0867731e-05 1.0386176)
(9.7272974e-06 -9.8227629e-06 1.03862)
(4.7844892e-06 -8.0118812e-06 1.0386234)
(-5.092803e-07 -5.7188741e-06 1.038623)
(1.8613358e-06 -6.5585588e-06 1.0386186)
(-5.5062219e-06 -6.3922001e-06 1.0386192)
(-1.2372669e-05 -6.1276662e-06 1.0386162)
(-5.785745e-06 -5.785745e-06 1.0386148)
(-1.2469585e-06 -5.3753075e-06 1.0386143)
(3.0280625e-06 -4.8830384e-06 1.0386149)
(7.1581707e-06 -4.2817453e-06 1.0386164)
(1.0653122e-05 -3.5627881e-06 1.0386191)
(5.7532109e-06 -2.7537443e-06 1.0386227)
(-2.036404e-07 -2.0970241e-06 1.0386225)
(1.9213296e-06 -2.32229e-06 1.038618)
(-5.2631078e-06 -2.0685657e-06 1.0386186)
(-1.2027011e-05 -1.6884389e-06 1.0386157)
(-5.3753075e-06 -1.2469585e-06 1.0386143)
(-7.8573225e-07 -7.8573224e-07 1.038614)
(3.5466443e-06 -3.1271885e-07 1.0386146)
(7.7368236e-06 1.7929446e-07 1.0386163)
(1.1255298e-05 6.8180104e-07 1.0386191)
(6.2502532e-06 1.1443987e-06 1.0386228)
(-7.1466819e-08 1.4362402e-06 1.0386228)
(2.0304853e-06 1.3671381e-06 1.0386182)
(-4.8723707e-06 1.8687821e-06 1.038619)
(-1.1551062e-05 2.4530821e-06 1.0386161)
(-4.8830384e-06 3.0280625e-06 1.0386149)
(-3.1271885e-07 3.5466443e-06 1.0386146)
(3.9930891e-06 3.9930892e-06 1.0386154)
(8.1526906e-06 4.3733738e-06 1.0386172)
(1.1618226e-05 4.6828638e-06 1.0386201)
(6.5076501e-06 4.9019209e-06 1.0386239)
(-9.0793703e-09 5.0062134e-06 1.0386238)
(2.2557589e-06 4.3061121e-06 1.0386194)
(-4.1771638e-06 5.4298721e-06 1.0386202)
(-1.0867731e-05 6.4165733e-06 1.0386176)
(-4.2817452e-06 7.1581707e-06 1.0386164)
(1.7929445e-07 7.7368236e-06 1.0386163)
(4.3733738e-06 8.1526906e-06 1.0386172)
(8.4265982e-06 8.4265982e-06 1.0386191)
(1.1783845e-05 8.5587548e-06 1.038622)
(6.5736029e-06 8.5408063e-06 1.0386258)
(-1.9384694e-09 8.4207048e-06 1.0386258)
(2.7796586e-06 5.3741603e-06 1.0386212)
(-2.7619093e-06 7.7972725e-06 1.0386224)
(-9.8227629e-06 9.7272974e-06 1.03862)
(-3.5627881e-06 1.0653122e-05 1.0386191)
(6.8180104e-07 1.1255298e-05 1.0386191)
(4.6828638e-06 1.1618226e-05 1.0386201)
(8.5587548e-06 1.1783845e-05 1.038622)
(1.1732434e-05 1.1732435e-05 1.0386249)
(6.3696002e-06 1.1364728e-05 1.0386287)
(-8.9147021e-08 1.0573639e-05 1.0386286)
(3.871167e-06 3.2168245e-07 1.0386231)
(1.7597361e-07 1.6493218e-06 1.0386252)
(-8.0118812e-06 4.7844892e-06 1.0386234)
(-2.7537443e-06 5.7532109e-06 1.0386227)
(1.1443987e-06 6.2502532e-06 1.0386228)
(4.9019209e-06 6.5076501e-06 1.0386239)
(8.5408063e-06 6.5736029e-06 1.0386258)
(1.1364728e-05 6.3696002e-06 1.0386287)
(5.4148077e-06 5.4148077e-06 1.0386323)
(-5.2933095e-07 1.1303151e-06 1.0386318)
(3.6647514e-06 -1.5258962e-06 1.0386222)
(1.7008976e-06 -1.7323118e-06 1.0386241)
(-5.7188741e-06 -5.0928031e-07 1.038623)
(-2.0970241e-06 -2.036404e-07 1.0386225)
(1.4362402e-06 -7.1466817e-08 1.0386228)
(5.0062134e-06 -9.0793753e-09 1.0386238)
(8.4207049e-06 -1.9384769e-09 1.0386258)
(1.0573639e-05 -8.9147021e-08 1.0386286)
(1.1303151e-06 -5.2933095e-07 1.0386318)
(-2.9454752e-06 -2.9454752e-06 1.0386286)
(7.7691481e-06 7.7691481e-06 1.0399689)
(9.1000331e-07 1.5573903e-06 1.0399715)
(-1.5929385e-05 1.99035e-06 1.0399683)
(-7.6158282e-06 2.0543342e-06 1.0399668)
(-2.4343068e-06 2.1286029e-06 1.0399663)
(2.1370085e-06 2.26197e-06 1.0399667)
(5.8576975e-06 2.5362473e-06 1.039968)
(7.3465683e-06 3.1777283e-06 1.03997)
(9.5481906e-07 4.5416003e-06 1.0399721)
(-1.7834695e-06 4.2695759e-06 1.0399714)
(1.5573903e-06 9.1000331e-07 1.0399715)
(-7.7581953e-06 -7.7581953e-06 1.0399718)
(-1.5183969e-05 -6.9209986e-06 1.0399688)
(-7.4084488e-06 -6.6852224e-06 1.0399674)
(-2.1228531e-06 -6.3847673e-06 1.0399669)
(2.7484751e-06 -5.9063393e-06 1.0399674)
(7.231335e-06 -5.058315e-06 1.0399688)
(1.0354598e-05 -3.3301535e-06 1.0399711)
(2.5925906e-06 3.0201833e-07 1.039974)
(-2.055494e-06 2.0791342e-06 1.0399731)
(1.99035e-06 -1.5929385e-05 1.0399683)
(-6.9209986e-06 -1.5183969e-05 1.0399688)
(-1.4856412e-05 -1.4856412e-05 1.0399659)
(-7.079597e-06 -1.4531502e-05 1.0399645)
(-1.6554238e-06 -1.4105711e-05 1.0399641)
(3.4634607e-06 -1.3522355e-05 1.0399647)
(8.433883e-06 -1.268693e-05 1.0399662)
(1.2706901e-05 -1.1413419e-05 1.0399688)
(6.3641067e-06 -9.2011429e-06 1.0399723)
(-5.9872568e-07 -6.4577911e-06 1.0399721)
(2.0543342e-06 -7.6158282e-06 1.0399668)
(-6.6852224e-06 -7.4084488e-06 1.0399674)
(-1.4531502e-05 -7.079597e-06 1.0399645)
(-6.6577483e-06 -6.6577483e-06 1.0399632)
(-1.1137059e-06 -6.1538758e-06 1.0399629)
(4.167257e-06 -5.5512508e-06 1.0399636)
(9.3402709e-06 -4.8162911e-06 1.0399653)
(1.3840385e-05 -3.939029e-06 1.039968)
(7.5482189e-06 -2.9490765e-06 1.0399717)
(-2.2659271e-07 -2.1497292e-06 1.0399718)
(2.1286029e-06 -2.4343068e-06 1.0399663)
(-6.3847673e-06 -2.1228531e-06 1.0399669)
(-1.4105711e-05 -1.6554238e-06 1.0399641)
(-6.1538758e-06 -1.1137059e-06 1.0399629)
(-5.4892637e-07 -5.4892636e-07 1.0399627)
(4.8010454e-06 2.9284896e-08 1.0399635)
(1.0046105e-05 6.2969065e-07 1.0399653)
(1.4574116e-05 1.2414724e-06 1.0399682)
(8.1534066e-06 1.8041175e-06 1.039972)
(-6.5827442e-08 2.1582372e-06 1.0399721)
(2.26197e-06 2.1370085e-06 1.0399667)
(-5.9063393e-06 2.7484751e-06 1.0399674)
(-1.3522355e-05 3.4634607e-06 1.0399647)
(-5.5512508e-06 4.167257e-06 1.0399636)
(2.9284891e-08 4.8010454e-06 1.0399635)
(5.3458741e-06 5.3458741e-06 1.0399644)
(1.0552458e-05 5.8087314e-06 1.0399663)
(1.5014811e-05 6.1836657e-06 1.0399693)
(8.4649838e-06 6.4471366e-06 1.0399732)
(9.4871008e-09 6.571015e-06 1.0399733)
(2.5362473e-06 5.8576975e-06 1.039968)
(-5.058315e-06 7.231335e-06 1.0399688)
(-1.268693e-05 8.433883e-06 1.0399662)
(-4.8162911e-06 9.3402709e-06 1.0399653)
(6.2969066e-07 1.0046105e-05 1.0399653)
(5.8087314e-06 1.0552458e-05 1.0399663)
(1.0883896e-05 1.0883896e-05 1.0399683)
(1.5212521e-05 1.1039924e-05 1.0399713)
(8.540756e-06 1.1010345e-05 1.0399752)
(1.6758131e-08 1.0856763e-05 1.0399754)
(3.1777283e-06 7.3465683e-06 1.03997)
(-3.3301535e-06 1.0354598e-05 1.0399711)
(-1.1413419e-05 1.2706901e-05 1.0399688)
(-3.939029e-06 1.3840385e-05 1.039968)
(1.2414724e-06 1.4574116e-05 1.0399682)
(6.1836657e-06 1.5014811e-05 1.0399693)
(1.1039924e-05 1.5212521e-05 1.0399713)
(1.514126e-05 1.514126e-05 1.0399743)
(8.2818227e-06 1.4675566e-05 1.0399782)
(-9.2900744e-08 1.3670424e-05 1.0399783)
(4.5416003e-06 9.5481907e-07 1.0399721)
(3.0201835e-07 2.5925906e-06 1.039974)
(-9.2011429e-06 6.3641067e-06 1.0399723)
(-2.9490765e-06 7.5482189e-06 1.0399717)
(1.8041175e-06 8.1534066e-06 1.039972)
(6.4471366e-06 8.4649838e-06 1.0399732)
(1.1010345e-05 8.5407559e-06 1.0399752)
(1.4675566e-05 8.2818227e-06 1.0399782)
(7.0699198e-06 7.0699198e-06 1.0399819)
(-6.5333651e-07 1.2529716e-06 1.0399816)
(4.2695759e-06 -1.7834695e-06 1.0399714)
(2.0791342e-06 -2.055494e-06 1.0399731)
(-6.457791e-06 -5.9872568e-07 1.0399721)
(-2.1497292e-06 -2.2659271e-07 1.0399718)
(2.1582372e-06 -6.5827447e-08 1.0399721)
(6.571015e-06 9.4870943e-09 1.0399733)
(1.0856763e-05 1.6758133e-08 1.0399754)
(1.3670424e-05 -9.2900738e-08 1.0399783)
(1.2529716e-06 -6.5333652e-07 1.0399816)
(-3.9708659e-06 -3.9708659e-06 1.0399787)
(8.5925855e-06 8.5925855e-06 1.0415726)
(6.0164444e-07 1.6437617e-06 1.041575)
(-1.817995e-05 2.1349386e-06 1.0415719)
(-8.5403526e-06 2.2125566e-06 1.0415706)
(-2.4173856e-06 2.3010487e-06 1.0415702)
(3.0309048e-06 2.4579711e-06 1.0415707)
(7.5296587e-06 2.7796417e-06 1.0415721)
(9.4423415e-06 3.5349365e-06 1.0415742)
(1.7490681e-06 5.1642669e-06 1.0415764)
(-1.9761785e-06 4.8350482e-06 1.0415759)
(1.6437617e-06 6.0164445e-07 1.041575)
(-9.0848277e-06 -9.0848277e-06 1.0415752)
(-1.7326757e-05 -8.1226647e-06 1.0415723)
(-8.2911873e-06 -7.8374331e-06 1.041571)
(-2.0492639e-06 -7.4801193e-06 1.0415707)
(3.7487944e-06 -6.9163695e-06 1.0415713)
(9.1451069e-06 -5.9205978e-06 1.0415728)
(1.3019279e-05 -3.890173e-06 1.0415752)
(3.699236e-06 4.1606644e-07 1.0415782)
(-2.3053972e-06 2.4438022e-06 1.0415775)
(2.1349385e-06 -1.817995e-05 1.0415719)
(-8.1226647e-06 -1.7326757e-05 1.0415723)
(-1.6932555e-05 -1.6932555e-05 1.0415696)
(-7.8978073e-06 -1.6543014e-05 1.0415683)
(-1.4963221e-06 -1.6038335e-05 1.041568)
(4.5904261e-06 -1.5350534e-05 1.0415687)
(1.0555855e-05 -1.4368064e-05 1.0415704)
(1.5779005e-05 -1.2874328e-05 1.041573)
(8.0830432e-06 -1.0274599e-05 1.0415766)
(-6.2435482e-07 -7.0991097e-06 1.0415766)
(2.2125566e-06 -8.5403526e-06 1.0415706)
(-7.8374331e-06 -8.2911873e-06 1.041571)
(-1.6543014e-05 -7.8978073e-06 1.0415683)
(-7.396967e-06 -7.396967e-06 1.0415671)
(-8.567844e-07 -6.8017452e-06 1.0415669)
(5.4190652e-06 -6.0919813e-06 1.0415677)
(1.1621313e-05 -5.2277896e-06 1.0415695)
(1.7112745e-05 -4.1979513e-06 1.0415724)
(9.474455e-06 -3.0335784e-06 1.0415761)
(-1.8840434e-07 -2.0973465e-06 1.0415763)
(2.3010487e-06 -2.4173856e-06 1.0415702)
(-7.4801193e-06 -2.0492639e-06 1.0415707)
(-1.6038335e-05 -1.4963222e-06 1.041568)
(-6.8017452e-06 -8.567844e-07 1.0415669)
(-1.9133647e-07 -1.9133648e-07 1.0415669)
(6.1643817e-06 4.8878223e-07 1.0415678)
(1.2449885e-05 1.193885e-06 1.0415697)
(1.7973216e-05 1.9109331e-06 1.0415726)
(1.0183648e-05 2.5698555e-06 1.0415765)
(-2.0021516e-10 2.9837114e-06 1.0415768)
(2.4579711e-06 3.0309048e-06 1.0415707)
(-6.9163695e-06 3.7487944e-06 1.0415713)
(-1.5350534e-05 4.5904261e-06 1.0415687)
(-6.0919813e-06 5.4190652e-06 1.0415677)
(4.8878223e-07 6.1643817e-06 1.0415678)
(6.8042867e-06 6.8042867e-06 1.0415687)
(1.3043464e-05 7.3467567e-06 1.0415707)
(1.8488715e-05 7.7845965e-06 1.0415738)
(1.0547233e-05 8.0906097e-06 1.0415777)
(8.7499629e-08 8.2330871e-06 1.041578)
(2.7796417e-06 7.5296587e-06 1.0415721)
(-5.9205978e-06 9.145107e-06 1.0415728)
(-1.4368064e-05 1.0555855e-05 1.0415704)
(-5.2277896e-06 1.1621313e-05 1.0415695)
(1.1938851e-06 1.2449885e-05 1.0415697)
(7.3467567e-06 1.3043464e-05 1.0415707)
(1.3430195e-05 1.3430195e-05 1.0415728)
(1.8717069e-05 1.3608916e-05 1.0415759)
(1.0632139e-05 1.3567737e-05 1.0415798)
(9.4784671e-08 1.3381502e-05 1.0415802)
(3.5349365e-06 9.4423415e-06 1.0415742)
(-3.890173e-06 1.3019279e-05 1.0415752)
(-1.2874328e-05 1.5779005e-05 1.041573)
(-4.1979513e-06 1.7112745e-05 1.0415724)
(1.9109331e-06 1.7973216e-05 1.0415726)
(7.7845965e-06 1.8488715e-05 1.0415738)
(1.3608916e-05 1.8717069e-05 1.0415759)
(1.8626257e-05 1.8626257e-05 1.041579)
(1.0319819e-05 1.8066025e-05 1.0415829)
(-3.6656884e-08 1.6856508e-05 1.0415831)
(5.1642669e-06 1.7490681e-06 1.0415764)
(4.1606643e-07 3.699236e-06 1.0415782)
(-1.0274599e-05 8.0830432e-06 1.0415766)
(-3.0335784e-06 9.474455e-06 1.0415761)
(2.5698555e-06 1.0183648e-05 1.0415765)
(8.0906098e-06 1.0547233e-05 1.0415777)
(1.3567737e-05 1.0632139e-05 1.0415798)
(1.8066025e-05 1.0319819e-05 1.0415829)
(8.8623894e-06 8.8623894e-06 1.0415867)
(-7.1156023e-07 1.548717e-06 1.0415866)
(4.8350483e-06 -1.9761785e-06 1.0415759)
(2.4438022e-06 -2.3053972e-06 1.0415775)
(-7.0991097e-06 -6.2435481e-07 1.0415766)
(-2.0973465e-06 -1.8840434e-07 1.0415763)
(2.9837114e-06 -2.0021613e-10 1.0415768)
(8.2330871e-06 8.7499628e-08 1.041578)
(1.3381502e-05 9.478467e-08 1.0415802)
(1.6856508e-05 -3.6656886e-08 1.0415831)
(1.548717e-06 -7.1156023e-07 1.0415866)
(-4.912438e-06 -4.912438e-06 1.0415839)
(9.3274044e-06 9.3274044e-06 1.0434184)
(2.3893135e-07 1.6925353e-06 1.0434205)
(-2.0291446e-05 2.2408996e-06 1.0434176)
(-9.3486816e-06 2.3323834e-06 1.0434164)
(-2.2948338e-06 2.4348779e-06 1.0434161)
(4.0183662e-06 2.6145408e-06 1.0434167)
(9.2838163e-06 2.9817102e-06 1.0434182)
(1.1618392e-05 3.8463758e-06 1.0434203)
(2.6725826e-06 5.7325061e-06 1.0434226)
(-2.1105217e-06 5.3559161e-06 1.0434222)
(1.6925353e-06 2.3893135e-07 1.0434205)
(-1.0390828e-05 -1.0390828e-05 1.0434206)
(-1.9331674e-05 -9.3046696e-06 1.0434179)
(-9.0577141e-06 -8.9695285e-06 1.0434167)
(-1.8715976e-06 -8.5564342e-06 1.0434165)
(4.8386147e-06 -7.9102823e-06 1.0434171)