/*--------------------------------*- C++ -*----------------------------------*\
| =========                 |                                                 |
| \\      /  F ield         | OpenFOAM: The Open Source CFD Toolbox           |
|  \\    /   O peration     | Version:  v2106                                 |
|   \\  /    A nd           | Website:  www.openfoam.com                      |
|    \\/     M anipulation  |                                                 |
\*---------------------------------------------------------------------------*/
FoamFile
{
    version     2.0;
    format      ascii;
    arch        "LSB;label=32;scalar=64";
    class       volScalarField;
    location    "45";
    object      gradTx;
}
// * * * * * * * * * * * * * * * * * * * * * * * * * * * * * * * * * * * * * //

dimensions      [0 -1 0 1 0 0 0];

internalField   nonuniform List<scalar> 
4000
(
0.00077173602
0.00043386534
-0.00096897341
-0.00037320182
-0.00016133886
8.4247866e-06
0.00012701851
0.00015923876
7.3276283e-05
-4.9367757e-07
0.00014123498
-0.00040504656
-0.00085689144
-0.00036367694
-0.00014894355
3.28471e-05
0.00017645682
0.0002453216
0.00013905088
8.053316e-06
0.00021246142
-0.00028901331
-0.00084310114
-0.0003519726
-0.00013104839
6.0897e-05
0.00022463266
0.00033784267
0.00030929095
8.047497e-05
0.00021595629
-0.00027917429
-0.00083168874
-0.00033605219
-0.00011009442
8.8234012e-05
0.00025969721
0.00037950872
0.00034948542
9.2545103e-05
0.00021881134
-0.00026778409
-0.00081547639
-0.00031654935
-8.8029982e-05
0.00011317479
0.00028780141
0.00040900129
0.00037394879
9.9078795e-05
0.00022421983
-0.00024888382
-0.00079283961
-0.00029303379
-6.5322701e-05
0.00013469143
0.00030799918
0.00042685734
0.00038696364
0.00010233273
0.00023509288
-0.00021531188
-0.00076008948
-0.00026427156
-4.1572571e-05
0.00015318372
0.00032162239
0.0004356074
0.00039117336
0.00010304357
0.0002571787
-0.00015126967
-0.00070959921
-0.00022986504
-1.7020743e-05
0.00016851241
0.00032896585
0.00043542418
0.00038568948
0.0001006677
0.00029248144
-3.6707971e-05
-0.00062590236
-0.00019311294
5.776058e-06
0.00017978983
0.00033018923
0.0004255993
0.00036609671
9.2875713e-05
0.00030102843
8.4745003e-05
-0.00049916468
-0.00016520721
2.0457492e-05
0.00018573699
0.00032769169
0.00041034752
0.00033162038
7.7683482e-05
0.0027810848
0.0013634009
-0.0040015663
-0.001808028
-0.00076593793
6.7737173e-05
0.00065315413
0.00078761182
0.00017632806
-0.00011807774
0.0007247494
-0.0014653889
-0.0037236828
-0.0017644534
-0.00070492083
0.00018790544
0.00090173718
0.0012237945
0.00030664631
-0.00020996906
0.00089522497
-0.0011629377
-0.0036510893
-0.0017033087
-0.00061681688
0.00032535689
0.0011397592
0.001690163
0.0011226932
0.00012540672
0.00091000503
-0.0011149119
-0.0035909317
-0.0016243748
-0.000514305
0.00045887807
0.0013116179
0.0019003208
0.0013389406
0.00019361144
0.00092427468
-0.0010582183
-0.0035110106
-0.0015289299
-0.00040652884
0.00058053897
0.0014481797
0.0020428655
0.0014562384
0.00022468953
0.0009506831
-0.00096579089
-0.0034003159
-0.0014140868
-0.00029564164
0.00068560579
0.0015467147
0.0021296962
0.0015186763
0.00024002249
0.0010043869
-0.00080059862
-0.003240038
-0.0012737478
-0.00017980114
0.00077580331
0.0016129336
0.0021717606
0.0015380335
0.00024299385
0.0011164051
-0.00047918586
-0.0029904352
-0.0011056663
-6.0544893e-05
0.00085035965
0.0016479056
0.0021683229
0.0015058033
0.00022900405
0.0012951753
0.00010195257
-0.0025635116
-0.00092104526
4.9574198e-05
0.00090469834
0.0016515603
0.0021113615
0.0013837045
0.00017808211
0.001203284
0.00046717926
-0.0019581409
-0.00077212105
0.00011919077
0.0009321548
0.0016350327
0.0020139939
0.0011122446
4.8030737e-05
0.0037348314
0.0012537597
-0.006369234
-0.0030549874
-0.0012483837
0.00024861563
0.0013451608
0.0015914581
-0.00016020785
-0.00057950919
0.00086509428
-0.0027403007
-0.0060254347
-0.002984437
-0.0011417818
0.00046190385
0.0018133843
0.0025303211
0.00034532026
-0.00065223852
0.0010721244
-0.0023606405
-0.0059109309
-0.0028761396
-0.00098492295
0.00070495996
0.0022289703
0.0033441906
0.001727109
-9.5972308e-05
0.0010942938
-0.0022819976
-0.0058043612
-0.0027354157
-0.00080214092
0.00094346329
0.0025368484
0.0037252239
0.0021251503
3.0442273e-05
0.001119158
-0.0021817928
-0.0056619096
-0.002565461
-0.00061044867
0.0011596461
0.002779031
0.0039777821
0.002333473
8.5805525e-05
0.0011653617
-0.0020185369
-0.0054647203
-0.0023609414
-0.00041332727
0.0013462669
0.0029537016
0.0041311647
0.0024430563
0.00011253312
0.0012613501
-0.0017254484
-0.0051803502
-0.0021107749
-0.00020764509
0.0015061244
0.0030703267
0.0042037913
0.0024742445
0.00011660583
0.0014775107
-0.0011347274
-0.0047412562
-0.0018108808
3.5259376e-06
0.0016375626
0.0031297165
0.0041899649
0.0024003387
8.4447776e-05
0.0018872588
2.728413e-05
-0.0039854474
-0.0014771835
0.00019829575
0.0017321337
0.0031291269
0.0040588737
0.0020835348
-5.6473209e-05
0.0018145295
0.00075258945
-0.0029614262
-0.0012045167
0.00032143202
0.0017783341
0.0030869988
0.0037992552
0.0010547418
-0.00060141421
0.0045267322
0.0010780081
-0.0084515693
-0.004114167
-0.0015821821
0.00057976562
0.0022456375
0.0027560046
-7.7606628e-05
-0.00091682238
0.00098855389
-0.0038617082
-0.0080390748
-0.0040162682
-0.001431696
0.0008793657
0.0029132241
0.0041609845
0.00070154445
-0.0010236967
0.001233588
-0.00340308
-0.0078831523
-0.0038612745
-0.0012072043
0.0012259357
0.0035014347
0.005311863
0.0026063758
-0.0002704055
0.0012635503
-0.0032932912
-0.0077305891
-0.0036598006
-0.00094595328
0.0015667639
0.0039414773
0.005859569
0.003180064
-8.8611148e-05
0.0012988539
-0.0031501875
-0.0075266847
-0.0034169694
-0.00067247333
0.0018747834
0.0042858695
0.0062183592
0.0034763018
-9.7944406e-06
0.0013638743
-0.0029183134
-0.0072448464
-0.0031250697
-0.00039156531
0.0021403572
0.004533867
0.0064354574
0.0036308197
2.7769942e-05
0.0014985873
-0.0025040174
-0.0068392865
-0.0027681216
-9.8879999e-05
0.0023672377
0.0046983669
0.0065364234
0.0036725949
3.2769437e-05
0.0018089321
-0.0016625162
-0.0062165932
-0.0023406348
0.00020082439
0.0025528546
0.0047799267
0.0065107653
0.0035573251
-1.7058551e-05
0.0024352405
5.184097e-05
-0.005140702
-0.0018616254
0.00047700848
0.0026853019
0.0047736748
0.0063036896
0.0030282639
-0.00025873416
0.0023283661
0.0010214663
-0.0037380736
-0.0014707088
0.00065158012
0.0027491477
0.004706432
0.0058664343
0.0009098291
-0.0014293484
0.0052502712
0.00089610421
-0.010354171
-0.005017279
-0.0017765454
0.0010458568
0.0032941636
0.0041112174
0.00024608615
-0.0011673063
0.0010983116
-0.0049018491
-0.0098657637
-0.0048900148
-0.0015824469
0.001429613
0.0041538367
0.005964891
0.0012617263
-0.0013252135
0.001384969
-0.0043558939
-0.0096645662
-0.0046876476
-0.0012916511
0.001876601
0.0049086608
0.0074413551
0.0036601205
-0.00038959798
0.0014239166
-0.0042122441
-0.0094650573
-0.0044260791
-0.00095391987
0.0023164595
0.0054759809
0.0081496088
0.00440119
-0.00015578433
0.0014698118
-0.0040262626
-0.0092006304
-0.0041120956
-0.00060108304
0.0027131733
0.0059186489
0.0086102719
0.004781426
-5.4671914e-05
0.0015533156
-0.0037273498
-0.0088365302
-0.003735511
-0.00023922907
0.0030547023
0.0062367859
0.0088879107
0.0049783338
-6.9456924e-06
0.0017256492
-0.0031955184
-0.0083137839
-0.0032755233
0.00013715976
0.003345619
0.0064463242
0.0090146084
0.0050287873
-1.4829235e-06
0.0021264309
-0.0021128526
-0.007514386
-0.0027255229
0.0005215759
0.0035823777
0.0065474232
0.0089752787
0.0048727255
-6.819721e-05
0.0029614317
0.0001346193
-0.0061290662
-0.0021066066
0.00087546172
0.0037499555
0.0065336922
0.0086939837
0.0041423117
-0.0004049366
0.0028035244
0.0013011817
-0.0043749224
-0.0016042175
0.0010987197
0.003829739
0.0064418149
0.0080888032
0.0008646877
-0.0022532799
0.0059075567
0.00069195431
-0.012112492
-0.0057909746
-0.0018510146
0.001624953
0.0044541154
0.0055862327
0.00072603167
-0.0013561265
0.0011842187
-0.0058992274
-0.011545687
-0.0056332859
-0.0016141893
0.002089904
0.0054986109
0.007873498
0.0019713711
-0.0015629701
0.0015134356
-0.0052626349
-0.011296619
-0.005383232
-0.0012587624
0.0026335698
0.006413013
0.0096621588
0.0048391818
-0.00045526302
0.0015620884
-0.0050833541
-0.011049562
-0.0050624641
-0.00084684731
0.0031687274
0.0071022188
0.010524045
0.0057395651
-0.00017229808
0.0016185614
-0.0048548922
-0.010725797
-0.0046793261
-0.00041739639
0.0036506517
0.0076389256
0.011081965
0.0061997418
-5.005431e-05
0.001719972
-0.0044911019
-0.01028222
-0.004221098
2.2267845e-05
0.0040649322
0.0080239501
0.011417064
0.0064366608
7.2138649e-06
0.0019285288
-0.0038462754
-0.0096469734
-0.0036622442
0.00047880847
0.0044168827
0.0082759708
0.011567399
0.0064942766
1.2742659e-05
0.0024163023
-0.0025322043
-0.0086786122
-0.0029951854
0.00094399916
0.0047019774
0.0083946117
0.011513212
0.0062973867
-7.0640478e-05
0.0034533723
0.0002296507
-0.0069964263
-0.0022424385
0.0013718269
0.0049023167
0.0083721191
0.011159103
0.0053758716
-0.00049678827
0.0032465286
0.0015809459
-0.0049104182
-0.0016346254
0.0016410948
0.0049965122
0.0082553376
0.010394807
0.00095274273
-0.003019393
0.0064947246
0.0004547542
-0.013741355
-0.0064552446
-0.0018271864
0.0022909162
0.0056913094
0.0071370146
0.0013220369
-0.0014936989
0.0012424407
-0.0068667857
-0.013096467
-0.0062669123
-0.0015489407
0.0028335346
0.0069123492
0.0098406503
0.0027960752
-0.0017425393
0.001613698
-0.0061395336
-0.01279851
-0.0059695759
-0.0011309986
0.0034696842
0.007978667
0.011926596
0.0061095856
-0.00047191994
0.0016723659
-0.0059239411
-0.012504075
-0.0055910149
-0.00064760252
0.0040960132
0.0087839967
0.012934707
0.0071612874
-0.00014240583
0.0017392529
-0.0056538649
-0.012122613
-0.0051411152
-0.00014462213
0.0046593625
0.0094102745
0.013585096
0.0076973327
-1.5133307e-07
0.001857863
-0.0052277533
-0.011602737
-0.0046046385
0.00036944721
0.0051430361
0.0098589326
0.013974737
0.0079721491
6.6136783e-05
0.0021009984
-0.0044750969
-0.010860134
-0.003951437
0.00090240081
0.0055530631
0.010151243
0.014147338
0.0080363245
7.1643193e-05
0.0026718895
-0.0029403957
-0.0097310896
-0.003173031
0.0014443831
0.0058840047
0.010286329
0.014078696
0.0078002563
-2.7707181e-05
0.0039034222
0.00031448468
-0.0077660776
-0.0022929368
0.0019424308
0.0061153048
0.010255203
0.013655242
0.0066986543
-0.0005378342
0.0036545818
0.0018471531
-0.0053658774
-0.0015852839
0.0022552448
0.0062229966
0.010114437
0.012741026
0.0011706008
-0.0037130762
0.0070085234
0.00017953073
-0.015246801
-0.0070245114
-0.0017243166
0.0030193626
0.0069757721
0.00872995
0.0020081531
-0.001585826
0.0012717548
-0.0078075683
-0.014525637
-0.0068058808
-0.0014063008
0.0036356895
0.0083641555
0.011830332
0.0037095343
-0.001868792
0.0016837907
-0.0069914404
-0.014178851
-0.0064622951
-0.00092840913
0.004359679
0.0095741089
0.014197228
0.0074434889
-0.00044476567
0.0017525309
-0.006739619
-0.013837887
-0.0060278684
-0.00037666396
0.0050726432
0.010489396
0.015343646
0.0086381819
-7.1319175e-05
0.0018295444
-0.0064292241
-0.013400839
-0.0055140192
0.00019640524
0.0057133245
0.011200522
0.016081504
0.009245912
8.9821076e-05
0.0019645414
-0.0059437116
-0.01280825
-0.004903054
0.00078119839
0.0062628633
0.011709508
0.016522822
0.0095566303
0.00016465265
0.002240429
-0.0050889076
-0.011963885
-0.0041603737
0.0013866254
0.006727998
0.012040124
0.016716747
0.0096273055
0.00017023294
0.0028901304
-0.0033453748
-0.01068301
-0.0032766413
0.0020013103
0.0071024662
0.012191107
0.016635066
0.0093550121
5.606664e-05
0.0043073505
0.00037837054
-0.0084505714
-0.0022760984
0.002565801
0.0073632418
0.012152368
0.016147345
0.008085764
-0.00053231442
0.0040243845
0.002089961
-0.0057543621
-0.0014742182
0.0029197588
0.0074838596
0.011989489
0.015093524
0.0015051154
-0.0043310324
0.0074470837
-0.00013430934
-0.016630122
-0.0075089716
-0.0015584332
0.0037891401
0.0082819184
0.010337496
0.0027643962
-0.001636647
0.0012724287
-0.0087196894
-0.015835461
-0.0072607834
-0.0012025985
0.0044748015
0.0098275254
0.013812613
0.0046899726
-0.0019459068
0.001723497
-0.0078176453
-0.015440642
-0.0068724806
-0.00066774036
0.0052815252
0.011172158
0.016442684
0.008816998
-0.00037870991
0.0018022032
-0.0075302093
-0.015054532
-0.0063845789
-5.1194862e-05
0.0060761642
0.01219077
0.01771891
0.010145788
3.5900301e-05
0.0018889559
-0.0071811542
-0.014564438
-0.0058099968
0.00058816225
0.0067897561
0.012981716
0.018538944
0.010820807
0.00021475449
0.0020394264
-0.0066395165
-0.013903128
-0.0051286763
0.0012397026
0.007401424
0.013547602
0.019029025
0.01116543
0.00029765951
0.0023460634
-0.0056887691
-0.012963075
-0.004301766
0.001913422
0.0079186112
0.01391461
0.019243533
0.011242795
0.00030349176
0.0030698311
-0.0037492768
-0.011539884
-0.0033191187
0.0025965341
0.008334318
0.014081212
0.019150749
0.010937922
0.00017590671
0.0046628084
0.00041641937
-0.0090567788
-0.0022055067
0.0032235373
0.0086232005
0.014036333
0.018604744
0.0095146366
-0.00048461084
0.0043535486
0.0023033249
-0.0060840682
-0.0013153101
0.0036161761
0.0087563064
0.013853704
0.01742259
0.0019411008
-0.0048731172
0.007809768
-0.0004843332
-0.017889841
-0.0079157104
-0.0013425656
0.0045822484
0.0095877967
0.011936051
0.0035737034
-0.0016496736
0.0012456959
-0.0095984961
-0.017025233
-0.0076390165
-0.00095113191
0.0053324692
0.011279609
0.015761593
0.0057182005
-0.0019777075
0.0017336594
-0.0086144228
-0.016583744
-0.0072079431
-0.00036267441
0.0062163634
0.012749269
0.018635649
0.010208748
-0.00027837212
0.0018221013
-0.0082923987
-0.016154311
-0.0066693676
0.00031472482
0.0070872867
0.013864074
0.020032554
0.011662087
0.00017443502
0.001918122
-0.0079066555
-0.015614095
-0.0060376522
0.0010162092
0.0078690201
0.014729463
0.020929126
0.012399719
0.00036976076
0.0020830571
-0.0073125076
-0.014888454
-0.005290484
0.0017302055
0.0085388309
0.01534863
0.021464917
0.012776167
0.00046025139
0.0024182691
-0.0062725405
-0.013859277
-0.0043849955
0.0024677534
0.0091048562
0.015750068
0.02169931
0.012860496
0.0004665425
0.0032109321
-0.0041510351
-0.012303989
-0.0033102901
0.0032147613
0.009559436
0.0159321
0.021597597
0.01252702
0.00032705518
0.0049686308
0.00042705705
-0.009588317
-0.0020915178
0.0039001172
0.0098750399
0.015882748
0.020999766
0.010964145
-0.00039913716
0.0046405969
0.0024840092
-0.0063601033
-0.0011193185
0.0043288418
0.010020212
0.015682954
0.019701246
0.0024632476
-0.0053402094
0.0080969466
-0.00086604887
-0.019022893
-0.0082495897
-0.0010872807
0.0053833624
0.010874336
0.013504796
0.0044206456
-0.0016281951
0.0011934506
-0.010437733
-0.018092571
-0.0079457135
-0.00066271367
0.0061929898
0.012700491
0.017654303
0.0067766066
-0.0019679053
0.001715824
-0.0093763329
-0.017606263
-0.0074741809
-2.4379605e-05
0.0071480508
0.014284852
0.020751816
0.011599082
-0.00014821688
0.0018136652
-0.0090211021
-0.017135716
-0.0068881064
0.00070954874
0.008089445
0.015488212
0.022259644
0.013166764
0.00033961716
0.0019184081
-0.008600924
-0.016548655
-0.00620322
0.0014686454
0.0089341946
0.016422299
0.023226743
0.01396203
0.00055009201
0.0020967099
-0.007958201
-0.015763454
-0.0053950814
0.0022404811
0.0096578831
0.017090889
0.023804994
0.014368086
0.00064764822
0.0024581597
-0.0068362357
-0.0146522
-0.0044170762
0.0030370835
0.01026932
0.017524669
0.024058515
0.01445964
0.0006546061
0.0033141465
-0.0045476852
-0.012975733
-0.0032576339
0.0038431578
0.010760253
0.017721908
0.023950118
0.014101679
0.0005047873
0.0052244973
0.00041078399
-0.010046859
-0.0019421493
0.0045824333
0.011101091
0.017669793
0.023307152
0.012414246
-0.00028034592
0.0048847871
0.0026307513
-0.0065855751
-0.00089468598
0.0050444799
0.011257862
0.017455502
0.021904724
0.0030564885
-0.0057337175
0.0083098245
-0.0012735593
-0.02002541
-0.0085139383
-0.00080123625
0.006179321
0.01212476
0.015025034
0.0052908402
-0.0015754444
0.0011180563
-0.011230244
-0.019034233
-0.0081844518
-0.00034622704
0.0070428552
0.014072623
0.019470078
0.0078486572
-0.0019202218
0.0016720346
-0.01009697
-0.018505404
-0.0076751056
0.00033793057
0.0080626675
0.015760733
0.02276931
0.012969626
7.3566753e-06
0.0017788409
-0.0097102381
-0.017996306
-0.0070450527
0.0011237069
0.0090683147
0.017044528
0.024377707
0.014640825
0.00052685642
0.0018916923
-0.0092581369
-0.017366005
-0.0063113001
0.0019355586
0.0099706031
0.018041196
0.025408943
0.015488436
0.00075107727
0.0020821804
-0.0085710713
-0.016526372
-0.0054474246
0.0027602923
0.010743612
0.018755088
0.026026176
0.015921722
0.00085513951
0.0024673818
-0.0073747903
-0.015340545
-0.0044033646
0.0036108563
0.011396791
0.019218944
0.026297947
0.016020693
0.00086295734
0.0033807558
-0.0049350983
-0.013554467
-0.0031669613
0.0044708527
0.01192136
0.019431061
0.026185081
0.015642395
0.00070439641
0.0054307445
0.00036948549
-0.010432917
-0.001763732
0.0052593253
0.012285796
0.019377849
0.025503767
0.013845833
-0.00013273987
0.0050859671
0.0027436871
-0.0067622993
-0.00064815107
0.00575175
0.012453616
0.019151734
0.024010221
0.0037060223
-0.0060554771
0.0084503124
-0.0017000188
-0.020893252
-0.008711073
-0.00049164996
0.0069586917
0.013324163
0.016479798
0.0061706677
-0.0014946669
0.0010222149
-0.01196844
-0.019846659
-0.0083577805
-9.0965671e-06
0.0078703214
0.015380416
0.021190197
0.0089186522
-0.0018384421
0.0016046982
-0.010769438
-0.019278028
-0.0078135772
0.00071652738
0.0089480942
0.017160761
0.024668338
0.01430307
0.00018397413
0.0017199436
-0.010353216
-0.018733267
-0.0071433877
0.0015491387
0.0100114
0.018516422
0.026366403
0.016066401
0.00073160673
0.0018402265
-0.0098719419
-0.018063635
-0.006365394
0.0024085646
0.010965414
0.0195692
0.027455028
0.016960779
0.00096809424
0.0020416459
-0.0091450384
-0.017175031
-0.0054513505
0.0032809423
0.011782898
0.020324006
0.028107529
0.017418744
0.0010780608
0.0024479797
-0.0078825395
-0.015922556
-0.0043480739
0.0041800623
0.012473898
0.020815466
0.028396519
0.017525223
0.0010869078
0.0034124811
-0.0053084405
-0.014039025
-0.0030429116
0.0050885263
0.013029165
0.02104198
0.028281303
0.017130697
0.00092118974
0.0055882459
0.00030600051
-0.01074635
-0.0015613835
0.0059211885
0.013415389
0.02098924
0.027568422
0.015240676
3.9129889e-05
0.0052444707
0.0028239621
-0.0068912766
-0.00038520335
0.0064408696
0.013593609
0.020753933
0.025996756
0.0043972979
-0.0063077287
0.0085209246
-0.0021379674
-0.021622391
-0.0088426885
-0.00016466835
0.0077114342
0.014459209
0.017853616
0.0070471372
-0.0013891469
0.00090886929
-0.012644623
-0.020526355
-0.0084676115
0.00034234465
0.0086650755
0.016609942
0.022797654
0.0099716149
-0.0017264301
0.0015164877
-0.011386683
-0.019921034
-0.0078917957
0.0011048015
0.0097936843
0.018470522
0.026430983
0.015583081
0.0003772753
0.0016395597
-0.010943266
-0.019343805
-0.0071856075
0.0019789319
0.010907715
0.019889079
0.028207336
0.017426671
0.00094935937
0.001766539
-0.01043579
-0.01863903
-0.0063682917
0.0028804526
0.011907331
0.020991169
0.029346274
0.018361972
0.0011965654
0.0019775683
-0.0096737961
-0.017707218
-0.0054099564
0.0037949285
0.012764169
0.021782241
0.030030098
0.018841899
0.0013117931
0.0024022999
-0.0083535399
-0.01639639
-0.0042546447
0.0047369059
0.01348882
0.022298627
0.030335099
0.018955855
0.0013218085
0.0034113904
-0.0056624839
-0.014428081
-0.0028893087
0.0056880903
0.014071627
0.022538883
0.03021952
0.018549121
0.0011504972
0.0056983254
0.00022382655
-0.010986709
-0.0013393528
0.0065596675
0.014477645
0.022488049
0.029481777
0.016581415
0.00023067721
0.0053610422
0.0028734598
-0.0069730243
-0.00011041759
0.0071033182
0.01466551
0.022246105
0.02784508
0.0051160152
-0.0064931029
0.008524695
-0.0025795887
-0.022209182
-0.0089101441
0.00017435691
0.0084286507
0.01551793
0.019132376
0.0079078303
-0.0012622107
0.00078112635
-0.013251232
-0.021070165
-0.0085155052
0.00070257958
0.0094179888
0.017748742
0.024277035
0.010993254
-0.0015881246
0.0014102664
-0.011941733
-0.020431634
-0.007911586
0.0014969905
0.010590022
0.019677147
0.028041083
0.016794266
0.00058292168
0.001540471
-0.011473684
-0.019825413
-0.0071738057
0.0024070537
0.011747546
0.021149288
0.029883937
0.018705836
0.0011756523
0.001673359
-0.010943175
-0.019089935
-0.0063223515
0.0033449222
0.012786363
0.022293602
0.031065824
0.019675988
0.0014319692
0.0018926194
-0.01015105
-0.018120939
-0.005325874
0.0042956875
0.013677181
0.023116052
0.031776808
0.020174999
0.0015517754
0.0023329177
-0.0087818035
-0.016760378
-0.0041260104
0.0052745575
0.014431082
0.023654474
0.032096436
0.020296271
0.0015630653
0.0033798271
-0.0059918339
-0.014720393
-0.0027094191
0.006262451
0.015038054
0.023907632
0.031982315
0.019881219
0.0013876895
0.0057626905
0.00012690327
-0.011153476
-0.0011012687
0.0071674287
0.015461693
0.023859982
0.031226275
0.017851587
0.0004373025
0.0054367765
0.0028946018
-0.0070078109
0.00017230257
0.0077316135
0.015658338
0.023613853
0.029537631
0.0058481523
-0.0066146001
0.008465102
-0.0030169163
-0.022650564
-0.0089146733
0.0005206663
0.009102408
0.016489584
0.02030324
0.0087408905
-0.0011172186
0.00064219239
-0.013781032
-0.021475464
-0.0085028792
0.0010667059
0.010120941
0.018785681
0.025614438
0.011969972
-0.0014275222
0.0012890249
-0.012427883
-0.020807543
-0.0078746047
0.0018879793
0.011328749
0.02076918
0.029484159
0.017922188
0.00079661413
0.0014255926
-0.011938011
-0.020176063
-0.007109878
0.0028281548
0.012522281
0.022285306
0.031381397
0.019889134
0.0014060888
0.0015635543
-0.011387815
-0.019414542
-0.0062297002
0.0037963918
0.01359366
0.023464509
0.032598627
0.020887871
0.0016698596
0.001789619
-0.010570698
-0.018414614
-0.0052014655
0.0047774082
0.014512864
0.024313234
0.033332414
0.021402947
0.0017935261
0.002242576
-0.0091614739
-0.017013201
-0.0039647888
0.0057869747
0.015291399
0.024870609
0.033665108
0.02153124
0.0018061615
0.0033203501
-0.0062911024
-0.014914988
-0.0025061365
0.0068053361
0.015918964
0.025135641
0.033554084
0.021111599
0.0016282029
0.0057833746
1.9445596e-05
-0.011246242
-0.00085032096
0.0077379922
0.016357879
0.025092279
0.032786121
0.019035664
0.00065442004
0.005473071
0.0028901947
-0.0069958257
0.00045954729
0.0083191482
0.016562332
0.024844294
0.031058509
0.0065800138
-0.0066755641
0.0083460011
-0.0034420034
-0.022944203
-0.0088575369
0.0008699459
0.0097256106
0.017364566
0.021354604
0.0095350401
-0.00095754874
0.00049531773
-0.014227265
-0.0217403
-0.0084311593
0.0014302908
0.010766692
0.019710865
0.026797435
0.012888891
-0.0012486538
0.001155827
-0.012838842
-0.021047117
-0.0077824892
0.0022731574
0.012002439
0.021736488
0.030747379
0.018953394
0.0010141169
0.0012979194
-0.012330179
-0.02039434
-0.0069956683
0.003237429
0.013224292
0.023286781
0.032686636
0.020962874
0.0016363622
0.0014400788
-0.011763795
-0.019611626
-0.0060923773
0.0042298612
0.014321398
0.024493336
0.033931408
0.021983782
0.0019058915
0.0016714827
-0.010926968
-0.018587202
-0.0050389645
0.005234899
0.015263204
0.025363052
0.034683474
0.022511775
0.0020326687
0.0021341331
-0.0094869658
-0.017154026
-0.0037734189
0.0062687723
0.016061575
0.025936113
0.0350275
0.022646658
0.0020466843
0.0032356821
-0.0065550451
-0.015011285
-0.0022821166
0.0073111695
0.016705981
0.026211807
0.034921015
0.022225971
0.0018675677
0.0057626876
-9.4190028e-05
-0.011264826
-0.00058939048
0.0082656107
0.017157668
0.026173654
0.034147268
0.020119118
0.00087748884
0.0054715826
0.0028633084
-0.0069373017
0.00074827142
0.0088600703
0.017368857
0.025926003
0.032393475
0.0072982935
-0.0066796488
0.0081715612
-0.0038470662
-0.023088595
-0.0087401329
0.0012182222
0.010291913
0.018134345
0.022276079
0.010279613
-0.00078657672
0.00034374772
-0.014583765
-0.021863498
-0.0083018887
0.0017892663
0.0113488
0.020515578
0.027815059
0.013737903
-0.0010555567
0.0010137621
-0.013168848
-0.021149456
-0.0076369648
0.0026483155
0.012604516
0.022570206
0.031819539
0.019875461
0.0012312848
0.0011604785
-0.012644627
-0.020479542
-0.0068330745
0.0036305124
0.013846851
0.02414469
0.033788284
0.02191448
0.0018622831
0.0013059249
-0.01206568
-0.019680642
-0.0059124381
0.004640813
0.014962695
0.02537091
0.035052655
0.022951034
0.0021358481
0.0015411746
-0.011214533
-0.018638296
-0.004840577
0.0056634916
0.015921168
0.02625618
0.035818335
0.023488696
0.00226496
0.0020105164
-0.0097530768
-0.017182591
-0.00355426
0.0067151301
0.016734424
0.026841504
0.036171803
0.023629604
0.0022803542
0.0031286631
-0.0067786726
-0.015009184
-0.0020398728
0.0077749816
0.017391762
0.027126469
0.036071088
0.023211202
0.0021014381
0.0057031698
-0.00020961633
-0.011209366
-0.0003211448
0.0087451816
0.017853572
0.027094258
0.035297424
0.021088476
0.0011020457
0.0054341898
0.002817176
-0.0068326066
0.0010357002
0.0093491968
0.018070332
0.026848975
0.033529961
0.0079901469
-0.0066307814
0.0079462048
-0.0042246074
-0.02308314
-0.0085640764
0.0015617864
0.010795656
0.01879143
0.023058485
0.010964594
-0.00060765272
0.00019067873
-0.014845062
-0.021844727
-0.0081168064
0.0021398544
0.011861553
0.021192244
0.028657789
0.014505718
-0.00085224492
0.00086590195
-0.013412765
-0.021114469
-0.0074399216
0.0030095714
0.013129188
0.023262693
0.032691054
0.020677046
0.0014440924
0.0010162873
-0.01287639
-0.020431745
-0.0066241239
0.0040034096
0.014384066
0.024851301
0.034676673
0.022732541
0.0020798084
0.0011640819
-0.01228861
-0.019621786
-0.0056920281
0.0050251412
0.015511553
0.0260894
0.035952609
0.023778152
0.0023556706
0.0014016659
-0.011428605
-0.01856819
-0.0046085541
0.0060589712
0.016480649
0.026984673
0.036727131
0.024322147
0.0024863197
0.0018746797
-0.0099550785
-0.017099273
-0.0033096628
0.0071217244
0.017303714
0.027578698
0.037088004
0.02446839
0.0025030548
0.003002208
-0.006957343
-0.014909132
-0.0017818471
0.0081923427
0.017969947
0.027871375
0.036994079
0.024055375
0.0023256237
0.0056075496
-0.00032250898
-0.01108039
-4.8107933e-05
0.0091721824
0.018439108
0.027845647
0.036226051
0.021931388
0.0013237391
0.0053629574
0.0027551087
-0.0066823097
0.0013192593
0.0097819494
0.018660185
0.027604603
0.034457078
0.0086432681
-0.0065331228
0.0076745509
-0.0045675231
-0.022928194
-0.0083312573
0.0018971381
0.011231822
0.019329336
0.023693848
0.011580666
-0.00042407758
3.9218404e-05
-0.015006457
-0.02168455
-0.0078779043
0.0024785107
0.012299924
0.021734393
0.029317555
0.01518192
-0.00064267757
0.00071526186
-0.013566158
-0.020942918
-0.0071934711
0.0033533148
0.0135714
0.023807501
0.033353953
0.021347929
0.0016486627
0.00086831416
-0.013021181
-0.020251849
-0.0063710282
0.0043524402
0.014830835
0.025400145
0.035343833
0.023406855
0.0022850696
0.0010174972
-0.012428372
-0.019436042
-0.0054334367
0.0053790979
0.015962815
0.026642283
0.036623262
0.024454913
0.0025614859
0.0012558959
-0.011565005
-0.018377919
-0.0043452451
0.0064175242
0.016936414
0.027541933
0.037401777
0.025001848
0.0026928592
0.0017295654
-0.010088793
-0.016905131
-0.0030420225
0.0074846765
0.017764128
0.028140986
0.037767885
0.025152611
0.0027108625
0.0028592675
-0.0070868396
-0.014712168
-0.0015104626
0.0085593126
0.018435117
0.028439663
0.037681555
0.02474784
0.0025361198
0.0054787033
-0.00042868789
-0.010878853
0.00022728676
0.0095426205
0.01890875
0.028420764
0.036924379
0.022636685
0.0015383623
0.0052601033
0.0026804226
-0.0064872325
0.0015965215
0.010154305
0.019132815
0.028185655
0.035165629
0.0092459678
-0.0063910252
0.0073613594
-0.0048691978
-0.022625095
-0.0080438842
0.0022209413
0.011595995
0.019742561
0.024175402
0.01211925
-0.00023907875
-0.00010765072
-0.01506409
-0.021384453
-0.0075874698
0.0028018812
0.012659536
0.022136642
0.029787725
0.015757014
-0.00043072867
0.00056476463
-0.01362536
-0.020636456
-0.0068999871
0.0036761638
0.0139268
0.024199352
0.03380187
0.021879061
0.0018412957
0.00071944358
-0.013075451
-0.019941604
-0.0060762244
0.004674195
0.015182812
0.025785982
0.035783477
0.023928476
0.0024744008
0.00086904083
-0.012481463
-0.01912521
-0.0051391382
0.0056992497
0.01631212
0.027024325
0.037058344
0.024972389
0.0027496351
0.0011067368
-0.011620229
-0.01806929
-0.0040531386
0.0067356955
0.017284073
0.027922685
0.037835958
0.025518832
0.0028809091
0.0015780677
-0.010150657
-0.016601934
-0.002753819
0.0078005109
0.018111222
0.028523006
0.038205018
0.02567319
0.002900074
0.0027027907
-0.0071634379
-0.01441995
-0.0012281648
0.0088723986
0.018782754
0.028825829
0.03812687
0.025279262
0.0027291366
0.0053196167
-0.00052418929
-0.010606182
0.0005026545
0.0098529917
0.019257897
0.028813918
0.037385399
0.023194437
0.0017418861
0.0051279668
0.0025963724
-0.0062484883
0.0018651636
0.010462754
0.019483555
0.028586259
0.035648117
0.0097872478
-0.0062089897
0.0070114784
-0.0051235895
-0.02217619
-0.0077045177
0.002529987
0.011884328
0.020026563
0.024497582
0.012572544
-5.5787281e-05
-0.00024710453
-0.015014996
-0.020946869
-0.0072481197
0.0031067638
0.012936619
0.022394658
0.030063104
0.016222474
-0.00022015762
0.00041720753
-0.013587524
-0.020197636
-0.0065621401
0.0039749262
0.014191697
0.024434102
0.034030028
0.022262599
0.0020184943
0.00057244282
-0.013036442
-0.019503633
-0.0057424086
0.0049654974
0.015436363
0.026004775
0.035990987
0.024289743
0.0026443642
0.0007214729
-0.012445146
-0.018691925
-0.0048118249
0.0059824397
0.016555871
0.027231541
0.037253302
0.025322984
0.0029166982
0.00095696066
-0.011591503
-0.0176449
-0.0037348951
0.0070103498
0.01752004
0.028122943
0.038025112
0.025865488
0.0030470451
0.0014229999
-0.010137777
-0.01619218
-0.0024476516
0.0080661166
0.018341394
0.028720713
0.038394747
0.026022412
0.0030672327
0.0025356911
-0.0071839633
-0.014034783
-0.0009374561
0.0091285173
0.019009212
0.029025704
0.038325153
0.02564166
0.0029011265
0.0051333477
-0.00060533096
-0.010264296
0.0007756225
0.010100241
0.019482839
0.029020754
0.037603853
0.023595996
0.0019304886
0.0049689774
0.0025060914
-0.0059675137
0.0021229284
0.010704263
0.019708641
0.028801876
0.035898737
0.01025687
-0.005991624
0.0066297918
-0.0053253065
-0.021584846
-0.0073161026
0.0028211547
0.012093502
0.020177726
0.02465601
0.012933556
0.00012278363
-0.00037650815
-0.014857147
-0.020375186
-0.0068628306
0.0033900704
0.013127977
0.022505132
0.030139902
0.016570774
-1.4581845e-05
0.00027523141
-0.01345067
-0.01962993
-0.0061829269
0.0042465613