/*--------------------------------*- C++ -*----------------------------------*\
| =========                 |                                                 |
| \\      /  F ield         | OpenFOAM: The Open Source CFD Toolbox           |
|  \\    /   O peration     | Version:  v2106                                 |
|   \\  /    A nd           | Website:  www.openfoam.com                      |
|    \\/     M anipulation  |                                                 |
\*---------------------------------------------------------------------------*/
FoamFile
{
    version     2.0;
    format      ascii;
    arch        "LSB;label=32;scalar=64";
    class       volScalarField;
    location    "45";
    object      gradTz;
}
// * * * * * * * * * * * * * * * * * * * * * * * * * * * * * * * * * * * * * //

dimensions      [0 -1 0 1 0 0 0];

internalField   nonuniform List<scalar> 
4000
(
546.22947
546.23456
546.23124
546.22996
546.22929
546.22912
546.22935
546.22981
546.2302
546.23008
546.23456
546.23571
546.23278
546.23152
546.23087
546.23075
546.23106
546.2317
546.23237
546.23218
546.23124
546.23278
546.22989
546.22866
546.22805
546.22798
546.22839
546.22919
546.23019
546.23056
546.22996
546.23152
546.22866
546.22746
546.2269
546.22689
546.22738
546.22829
546.22941
546.22988
546.22929
546.23087
546.22805
546.2269
546.2264
546.22645
546.22701
546.22799
546.22919
546.22971
546.22912
546.23075
546.22798
546.22689
546.22645
546.22657
546.22718
546.22821
546.22945
546.23
546.22935
546.23106
546.22839
546.22738
546.22701
546.22718
546.22784
546.2289
546.23015
546.23071
546.22981
546.2317
546.22919
546.22829
546.22799
546.22821
546.2289
546.22997
546.23122
546.23175
546.2302
546.23237
546.23019
546.22941
546.22919
546.22945
546.23015
546.23122
546.23241
546.23287
546.23008
546.23218
546.23056
546.22988
546.22971
546.23
546.23071
546.23175
546.23287
546.23315
807.54601
807.55046
807.54683
807.54505
807.54415
807.54397
807.54439
807.54519
807.54582
807.54495
807.55046
807.55154
807.54812
807.54637
807.5455
807.54538
807.54593
807.54702
807.54821
807.54722
807.54683
807.54812
807.54476
807.54305
807.54223
807.5422
807.54288
807.5442
807.54588
807.54562
807.54505
807.54637
807.54305
807.5414
807.54065
807.54071
807.54151
807.54298
807.54485
807.54476
807.54415
807.5455
807.54223
807.54065
807.53999
807.54013
807.54103
807.54262
807.5446
807.54458
807.54397
807.54538
807.5422
807.54071
807.54013
807.54036
807.54134
807.54301
807.54505
807.54506
807.54439
807.54593
807.54288
807.54151
807.54103
807.54134
807.54239
807.54409
807.54615
807.54617
807.54519
807.54702
807.5442
807.54298
807.54262
807.54301
807.54409
807.54581
807.54785
807.54782
807.54582
807.54821
807.54588
807.54485
807.5446
807.54505
807.54615
807.54785
807.54979
807.54956
807.54495
807.54722
807.54562
807.54476
807.54458
807.54506
807.54617
807.54782
807.54956
807.54854
802.91181
802.91443
802.91152
802.90998
802.90922
802.90916
802.90973
802.91075
802.9117
802.9105
802.91443
802.91482
802.91203
802.91051
802.90978
802.90978
802.91047
802.91179
802.91341
802.91219
802.91152
802.91203
802.90928
802.9078
802.90713
802.90721
802.90803
802.90957
802.91165
802.91106
802.90998
802.91051
802.9078
802.90637
802.90576
802.90594
802.90687
802.90857
802.91083
802.91041
802.90922
802.90978
802.90713
802.90576
802.90524
802.9055
802.90653
802.90834
802.91071
802.91036
802.90916
802.90978
802.90721
802.90594
802.9055
802.90584
802.90695
802.90883
802.91126
802.91094
802.90973
802.91047
802.90803
802.90687
802.90653
802.90695
802.90812
802.91004
802.91249
802.91217
802.91075
802.91179
802.90957
802.90857
802.90834
802.90883
802.91004
802.91196
802.91438
802.91401
802.9117
802.91341
802.91165
802.91083
802.91071
802.91126
802.91249
802.91438
802.91668
802.91603
802.9105
802.91219
802.91106
802.91041
802.91036
802.91094
802.91217
802.91401
802.91603
802.91381
798.58123
798.5835
798.58087
798.57951
798.57891
798.57899
798.5797
798.58094
798.58222
798.58134
798.5835
798.58385
798.58134
798.58001
798.57943
798.57957
798.5804
798.58191
798.58383
798.58283
798.58087
798.58134
798.57887
798.57758
798.57706
798.57728
798.57823
798.57996
798.58233
798.58189
798.57951
798.58001
798.57758
798.57635
798.57589
798.5762
798.57727
798.57914
798.58169
798.58141
798.57891
798.57943
798.57706
798.57589
798.57552
798.5759
798.57707
798.57904
798.5817
798.58149
798.57899
798.57957
798.57728
798.5762
798.5759
798.57637
798.57761
798.57965
798.58237
798.58219
798.5797
798.5804
798.57823
798.57727
798.57707
798.57761
798.57891
798.58099
798.58372
798.58354
798.58094
798.58191
798.57996
798.57914
798.57904
798.57965
798.58099
798.58307
798.58577
798.58554
798.58222
798.58383
798.58233
798.58169
798.5817
798.58237
798.58372
798.58577
798.58835
798.58783
798.58134
798.58283
798.58189
798.58141
798.58149
798.58219
798.58354
798.58554
798.58783
798.58535
794.54191
794.54398
794.54152
794.54032
794.53984
794.54005
794.54089
794.54226
794.54372
794.54306
794.54398
794.54427
794.54194
794.54077
794.54032
794.54058
794.54153
794.54317
794.54525
794.54444
794.54152
794.54194
794.53966
794.53853
794.53814
794.53848
794.53955
794.54139
794.5439
794.54362
794.54032
794.54077
794.53853
794.53745
794.53712
794.53755
794.53873
794.54071
794.54339
794.54327
794.53984
794.54032
794.53814
794.53712
794.53688
794.53738
794.53865
794.54073
794.54352
794.54346
794.54005
794.54058
794.53848
794.53755
794.53738
794.53796
794.5393
794.54145
794.54429
794.54426
794.54089
794.54153
794.53955
794.53873
794.53865
794.5393
794.5407
794.54288
794.54573
794.5457
794.54226
794.54317
794.54139
794.54071
794.54073
794.54145
794.54288
794.54506
794.54788
794.5478
794.54372
794.54525
794.5439
794.54339
794.54352
794.54429
794.54573
794.54788
794.55059
794.55023
794.54306
794.54444
794.54362
794.54327
794.54346
794.54426
794.5457
794.5478
794.55023
794.54785
790.77849
790.78036
790.77805
790.77697
790.77661
790.77692
790.77785
790.77931
790.78088
790.78039
790.78036
790.78057
790.77839
790.77734
790.77701
790.77737
790.77842
790.78013
790.78229
790.78167
790.77805
790.77839
790.77626
790.77526
790.77498
790.77542
790.77658
790.77849
790.78106
790.78094
790.77697
790.77734
790.77526
790.7743
790.77409
790.77461
790.77587
790.77792
790.78066
790.78068
790.77661
790.77701
790.77498
790.77409
790.77395
790.77455
790.7759
790.77804
790.78087
790.78096
790.77692
790.77737
790.77542
790.77461
790.77455
790.77522
790.77664
790.77884
790.78172
790.78183
790.77785
790.77842
790.77658
790.77587
790.7759
790.77664
790.77811
790.78034
790.78324
790.78335
790.77931
790.78013
790.77849
790.77792
790.77804
790.77884
790.78034
790.78258
790.78544
790.78551
790.78088
790.78229
790.78106
790.78066
790.78087
790.78172
790.78324
790.78544
790.7882
790.788
790.78039
790.78167
790.78094
790.78068
790.78096
790.78183
790.78335
790.78551
790.788
790.78581
787.27495
787.2766
787.27443
787.27346
787.2732
787.27359
787.2746
787.27611
787.27774
787.27739
787.2766
787.27673
787.27469
787.27375
787.27352
787.27396
787.27506
787.27682
787.27902
787.27856
787.27443
787.27469
787.27271
787.27181
787.27163
787.27214
787.27335
787.2753
787.27789
787.2779
787.27346
787.27375
787.27181
787.27096
787.27084
787.27143
787.27275
787.27482
787.27757
787.27772
787.2732
787.27352
787.27163
787.27084
787.27079
787.27146
787.27285
787.27502
787.27785
787.27806
787.27359
787.27396
787.27214
787.27143
787.27146
787.27219
787.27365
787.27588
787.27876
787.279
787.2746
787.27506
787.27335
787.27275
787.27285
787.27365
787.27517
787.27742
787.28032
787.28055
787.27611
787.27682
787.2753
787.27482
787.27502
787.27588
787.27742
787.27967
787.28254
787.28273
787.27774
787.27902
787.27789
787.27757
787.27785
787.27876
787.28032
787.28254
787.2853
787.28525
787.27739
787.27856
787.2779
787.27772
787.27806
787.279
787.28055
787.28273
787.28525
787.28328
784.01472
784.01615
784.01413
784.01326
784.01307
784.01353
784.01457
784.01612
784.01777
784.01756
784.01615
784.01619
784.01429
784.01345
784.0133
784.0138
784.01494
784.01671
784.01891
784.01861
784.01413
784.01429
784.01245
784.01165
784.01155
784.01211
784.01336
784.01531
784.01788
784.01802
784.01326
784.01345
784.01165
784.0109
784.01086
784.0115
784.01284
784.01491
784.01762
784.01789
784.01307
784.0133
784.01155
784.01086
784.01088
784.01159
784.01301
784.01516
784.01796
784.01829
784.01353
784.0138
784.01211
784.0115
784.01159
784.01237
784.01385
784.01606
784.0189
784.01925
784.01457
784.01494
784.01336
784.01284
784.01301
784.01385
784.01537
784.01761
784.02047
784.02082
784.01612
784.01671
784.01531
784.01491
784.01516
784.01606
784.01761
784.01985
784.02268
784.02299
784.01777
784.01891
784.01788
784.01762
784.01796
784.0189
784.02047
784.02268
784.02542
784.0255
784.01756
784.01861
784.01802
784.01789
784.01829
784.01925
784.02082
784.02299
784.0255
784.02376
780.98077
780.98197
780.98011
780.97933
780.97921
780.97971
780.98078
780.98232
780.98398
780.98389
780.98197
780.98193
780.98018
780.97943
780.97935
780.97989
780.98104
780.9828
780.98497
780.98481
780.98011
780.98018
780.97848
780.97778
780.97774
780.97834
780.97959
780.98152
780.98403
780.98428
780.97933
780.97943
780.97778
780.97712
780.97713
780.97781
780.97915
780.98118
780.98384
780.98421
780.97921
780.97935
780.97774
780.97713
780.97721
780.97795
780.97937
780.98148
780.98422
780.98464
780.97971
780.97989
780.97834
780.97781
780.97795
780.97876
780.98023
780.9824
780.98517
780.98561
780.98078
780.98104
780.97959
780.97915
780.97937
780.98023
780.98175
780.98394
780.98673
780.98717
780.98232
780.9828
780.98152
780.98118
780.98148
780.9824
780.98394
780.98614
780.9889
780.98931
780.98398
780.98497
780.98403
780.98384
780.98422
780.98517
780.98673
780.9889
780.99158
780.99178
780.98389
780.98481
780.98428
780.98421
780.98464
780.98561
780.98717
780.98931
780.99178
780.99027
778.15569
778.15667
778.15496
778.15427
778.15422
778.15475
778.15581
778.15734
778.15898
778.15899
778.15667
778.15655
778.15495
778.15429
778.15426
778.15483
778.15598
778.1577
778.15982
778.15979
778.15496
778.15495
778.1534
778.15278
778.1528
778.15343
778.15467
778.15654
778.15898
778.15932
778.15427
778.15429
778.15278
778.15221
778.15228
778.15297
778.15429
778.15627
778.15883
778.15929
778.15422
778.15426
778.1528
778.15228
778.15241
778.15316
778.15455
778.1566
778.15924
778.15974
778.15475
778.15483
778.15343
778.15297
778.15316
778.15397
778.15542
778.15752
778.16019
778.16072
778.15581
778.15598
778.15467
778.15429
778.15455
778.15542
778.1569
778.15903
778.16172
778.16224
778.15734
778.1577
778.15654
778.15627
778.1566
778.15752
778.15903
778.16116
778.16383
778.16432
778.15898
778.15982
778.15898
778.15883
778.15924
778.16019
778.16172
778.16383
778.16642
778.16673
778.15899
778.15979
778.15932
778.15929
778.15974
778.16072
778.16224
778.16432
778.16673
778.16544
775.5218
775.52255
775.52101
775.52042
775.52041
775.52096
775.52201
775.52349
775.5251
775.52521
775.52255
775.52236
775.52092
775.52035
775.52037
775.52096
775.52208
775.52375
775.52579
775.52588
775.52101
775.52092
775.51953
775.519
775.51906
775.5197
775.52091
775.52271
775.52504
775.52547
775.52042
775.52035
775.519
775.51851
775.51862
775.51932
775.5206
775.5225
775.52495
775.52548
775.52041
775.52037
775.51906
775.51862
775.51879
775.51954
775.52089
775.52285
775.52537
775.52594
775.52096
775.52096
775.5197
775.51932
775.51954
775.52035
775.52175
775.52375
775.52631
775.5269
775.52201
775.52208
775.52091
775.5206
775.52089
775.52175
775.52318
775.52522
775.52778
775.52838
775.52349
775.52375
775.52271
775.5225
775.52285
775.52375
775.52522
775.52725
775.5298
775.53037
775.5251
775.52579
775.52504
775.52495
775.52537
775.52631
775.52778
775.5298
775.53229
775.53268
775.52521
775.52588
775.52547
775.52548
775.52594
775.5269
775.52838
775.53037
775.53268
775.53161
773.06123
773.06176
773.06039
773.05989
773.05993
773.06048
773.06151
773.06293
773.06448
773.06468
773.06176
773.0615
773.06023
773.05975
773.05981
773.0604
773.06149
773.06308
773.06503
773.06522
773.06039
773.06023
773.059
773.05855
773.05866
773.05929
773.06046
773.06217
773.06438
773.06487
773.05989
773.05975
773.05855
773.05815
773.0583
773.05899
773.06022
773.06202
773.06433
773.06491
773.05993
773.05981
773.05866
773.0583
773.0585
773.05924
773.06053
773.06239
773.06476
773.06538
773.06048
773.0604
773.05929
773.05899
773.05924
773.06003
773.06136
773.06326
773.06567
773.06631
773.06151
773.06149
773.06046
773.06022
773.06053
773.06136
773.06273
773.06465
773.06707
773.06772
773.06293
773.06308
773.06217
773.06202
773.06239
773.06326
773.06465
773.06658
773.06899
773.06961
773.06448
773.06503
773.06438
773.06433
773.06476
773.06567
773.06707
773.06899
773.07133
773.07181
773.06468
773.06522
773.06487
773.06491
773.06538
773.06631
773.06772
773.06961
773.07181
773.07095
770.75601
770.75633
770.75515
770.75473
770.75482
770.75537
770.75635
770.7577
770.75918
770.75946
770.75633
770.75601
770.75491
770.75452
770.75463
770.75521
770.75625
770.75775
770.75958
770.75987
770.75515
770.75491
770.75386
770.7535
770.75364
770.75426
770.75537
770.75697
770.75903
770.75959
770.75473
770.75452
770.7535
770.75317
770.75336
770.75403
770.7552
770.75687
770.75903
770.75966
770.75482
770.75463
770.75364
770.75336
770.75358
770.7543
770.75552
770.75725
770.75946
770.76013
770.75537
770.75521
770.75426
770.75403
770.7543
770.75506
770.75632
770.75809
770.76033
770.76101
770.75635
770.75625
770.75537
770.7552
770.75552
770.75632
770.75761
770.7594
770.76165
770.76234
770.7577
770.75775
770.75697
770.75687
770.75725
770.75809
770.7594
770.7612
770.76344
770.76411
770.75918
770.75958
770.75903
770.75903
770.75946
770.76033
770.76165
770.76344
770.76563
770.76617
770.75946
770.75987
770.75959
770.75966
770.76013
770.76101
770.76234
770.76411
770.76617
770.76552
768.58821
768.58833
768.58734
768.58701
768.58714
768.58768
768.58861
768.58987
768.59126
768.59161
768.58833
768.58796
768.58704
768.58674
768.58689
768.58745
768.58843
768.58982
768.59152
768.5919
768.58734
768.58704
768.58616
768.58589
768.58607
768.58667
768.58771
768.58919
768.59108
768.59168
768.58701
768.58674
768.58589
768.58565
768.58586
768.58651
768.5876
768.58914
768.59111
768.59178
768.58714
768.58689
768.58607
768.58586
768.58611
768.5868
768.58793
768.58952
768.59154
768.59224
768.58768
768.58745
768.58667
768.58651
768.5868
768.58752
768.58869
768.59031
768.59236
768.59307
768.58861
768.58843
768.58771
768.5876
768.58793
768.58869
768.58989
768.59153
768.59359
768.5943
768.58987
768.58982
768.58919
768.58914
768.58952
768.59031
768.59153
768.59318
768.59523
768.59593
768.59126
768.59152
768.59108
768.59111
768.59154
768.59236
768.59359
768.59523
768.59724
768.59784
768.59161
768.5919
768.59168
768.59178
768.59224
768.59307
768.5943
768.59593
768.59784
768.59738
766.54
766.53992
766.53912
766.53889
766.53905
766.53957
766.54044
766.5416
766.54289
766.5433
766.53992
766.53952
766.53878
766.53857
766.53874
766.53929
766.5402
766.54147
766.54302
766.54346
766.53912
766.53878
766.53808
766.53789
766.5381
766.53868
766.53963
766.54097
766.54268
766.54331
766.53889
766.53857
766.53789
766.53773
766.53797
766.53858
766.53958
766.54098
766.54276
766.54344
766.53905
766.53874
766.5381
766.53797
766.53823
766.53888
766.53992
766.54136
766.54317
766.54388
766.53957
766.53929
766.53868
766.53858
766.53888
766.53957
766.54063
766.5421
766.54393
766.54466
766.54044
766.5402
766.53963
766.53958
766.53992
766.54063
766.54172
766.5432
766.54505
766.54578
766.5416
766.54147
766.54097
766.54098
766.54136
766.5421
766.5432
766.54469
766.54654
766.54726
766.54289
766.54302
766.54268
766.54276
766.54317
766.54393
766.54505
766.54654
766.54836
766.54899
766.5433
766.54346
766.54331
766.54344
766.54388
766.54466
766.54578
766.54726
766.54899
766.54872
764.59372
764.59345
764.59286
764.59272
764.59291
764.59342
764.59421
764.59526
764.59643
764.59689
764.59345
764.59303
764.59248
764.59236
764.59256
764.59308
764.59391
764.59505
764.59643
764.59694
764.59286
764.59248
764.59196
764.59186
764.59209
764.59264
764.5935
764.5947
764.59621
764.59686
764.59272
764.59236
764.59186
764.59179
764.59204
764.59262
764.59352
764.59475
764.59632
764.59701
764.59291
764.59256
764.59209
764.59204
764.59232
764.59293
764.59386
764.59513
764.59672
764.59743
764.59342
764.59308
764.59264
764.59262
764.59293
764.59356
764.59451
764.5958
764.59742
764.59814
764.59421
764.59391
764.5935
764.59352
764.59386
764.59451
764.59549
764.59679
764.59842
764.59914
764.59526
764.59505
764.5947
764.59475
764.59513
764.5958
764.59679
764.59811
764.59973
764.60045
764.59643
764.59643
764.59621
764.59632
764.59672
764.59742
764.59842
764.59973
764.60134
764.602
764.59689
764.59694
764.59686
764.59701
764.59743
764.59814
764.59914
764.60045
764.602
764.6019
762.73203
762.73159
762.7312
762.73115
762.73138
762.73185
762.73257
762.7335
762.73454
762.73504
762.73159
762.73114
762.73079
762.73076
762.73099
762.73148
762.73222
762.73321
762.73442
762.73498
762.7312
762.73079
762.73046
762.73045
762.7307
762.73121
762.73197
762.73301
762.73431
762.73496
762.73115
762.73076
762.73045
762.73045
762.73072
762.73126
762.73205
762.73311
762.73446
762.73514
762.73138
762.73099
762.7307
762.73072
762.73102
762.73157
762.73239
762.73348
762.73484
762.73554
762.73185
762.73148
762.73121
762.73126
762.73157
762.73214
762.73298
762.73408
762.73546
762.73617
762.73257
762.73222
762.73197
762.73205
762.73239
762.73298
762.73383
762.73495
762.73634
762.73705
762.7335
762.73321
762.73301
762.73311
762.73348
762.73408
762.73495
762.73608
762.73747
762.73817
762.73454
762.73442
762.73431
762.73446
762.73484
762.73546
762.73634
762.73747
762.73885
762.73952
762.73504
762.73498
762.73496
762.73514
762.73554
762.73617
762.73705
762.73817
762.73952
762.73959
760.93794
760.93734
760.93716
760.9372
760.93745
760.9379
760.93852
760.93932
760.94023
760.94075
760.93734
760.93689
760.93673
760.93678
760.93704
760.93749
760.93814
760.93897
760.94
760.94059
760.93716
760.93673
760.93659
760.93666
760.93693
760.9374
760.93806
760.93892
760.94
760.94064
760.9372
760.93678
760.93666
760.93675
760.93703
760.93751
760.93819
760.93908
760.94018
760.94085
760.93745
760.93704
760.93693
760.93703
760.93733
760.93783
760.93852
760.93942
760.94054
760.94122
760.9379
760.93749
760.9374
760.93751
760.93783
760.93834
760.93904
760.93996
760.94109
760.94177
760.93852
760.93814
760.93806
760.93819
760.93852
760.93904
760.93976
760.94069
760.94182
760.94251
760.93932
760.93897
760.93892
760.93908
760.93942
760.93996
760.94069
760.94162
760.94276
760.94345
760.94023
760.94
760.94
760.94018
760.94054
760.94109
760.94182
760.94276
760.9439
760.94457
760.94075
760.94059
760.94064
760.94085
760.94122
760.94177
760.94251
760.94345
760.94457
760.94479
759.19492
759.19418
759.1942
759.19434
759.19461
759.19502
759.19555
759.19621
759.19697
759.19751
759.19418
759.19372
759.19375
759.1939
759.19418
759.19459
759.19513
759.19581
759.19663
759.19725
759.1942
759.19375
759.1938
759.19396
759.19425
759.19467
759.19522
759.1959
759.19675
759.19738
759.19434
759.1939
759.19396
759.19413
759.19442
759.19485
759.19541
759.1961
759.19696
759.1976
759.19461
759.19418
759.19425
759.19442
759.19473
759.19516
759.19573
759.19643
759.1973
759.19794
759.19502
759.19459
759.19467
759.19485
759.19516
759.1956
759.19618
759.19689
759.19776
759.1984
759.19555
759.19513
759.19522
759.19541
759.19573
759.19618
759.19676
759.19748
759.19835
759.199
759.19621
759.19581
759.1959
759.1961
759.19643
759.19689
759.19748
759.1982
759.19909
759.19974
759.19697
759.19663
759.19675
759.19696
759.1973
759.19776
759.19835
759.19909
759.19998
759.20063
759.19751
759.19725
759.19738
759.1976
759.19794
759.1984
759.199
759.19974
759.20063
759.20099
757.48696
757.48608
757.48632
757.48654
757.48684
757.4872
757.48764
757.48815
757.48876
757.48931
757.48608
757.48564
757.48587
757.4861
757.4864
757.48676
757.48719
757.4877
757.48832
757.48896
757.48632
757.48587
757.4861
757.48634
757.48664
757.48701
757.48744
757.48795
757.48855
757.48915
757.48654
757.4861
757.48634
757.48659
757.48689
757.48726
757.48769
757.48819
757.4888
757.48939
757.48684
757.4864
757.48664
757.48689
757.4872
757.48757
757.488
757.4885
757.4891
757.4897
757.4872
757.48676
757.48701
757.48726
757.48757
757.48794
757.48837
757.48887
757.48948
757.49007
757.48764
757.48719
757.48744
757.48769
757.488
757.48837
757.48881
757.48931
757.48992
757.49052
757.48815
757.4877
757.48795
757.48819
757.4885
757.48887
757.48931
757.48983
757.49045
757.49105
757.48876
757.48832
757.48855
757.4888
757.4891
757.48948
757.48992
757.49045
757.49108
757.49171
757.48931
757.48896
757.48915
757.48939
757.4897
757.49007
757.49052
757.49105
757.49171
757.4922
755.79865
755.79766
755.7981
755.79841
755.79872
755.79904
755.79938
755.79974
755.80018
755.80073
755.79766
755.79723
755.79765
755.79797
755.79828
755.79859
755.79892
755.79925
755.79966
755.80029
755.7981
755.79765
755.79807
755.79839
755.79871
755.79902
755.79933
755.79964
755.8
755.80056
755.79841
755.79797
755.79839
755.79871
755.79902
755.79933
755.79963
755.79993
755.80028
755.80081
755.79872
755.79828
755.79871
755.79902
755.79933
755.79963
755.79992
755.80022
755.80055
755.80108
755.79904
755.79859
755.79902
755.79933
755.79963
755.79992
755.80021
755.8005
755.80083
755.80136
755.79938
755.79892
755.79933
755.79963
755.79992
755.80021
755.8005
755.80079
755.80112
755.80166
755.79974
755.79925
755.79964
755.79993
755.80022
755.8005
755.80079
755.80109
755.80143
755.80198
755.80018
755.79966
755.8
755.80028
755.80055
755.80083
755.80112
755.80143
755.8018
755.80239
755.80073
755.80029
755.80056
755.80081
755.80108
755.80136
755.80166
755.80198
755.80239
755.80299
754.11524
754.11415
754.11479
754.11519
754.11551
754.11579
754.11601
754.11622
754.11649
754.11704
754.11415
754.11374
754.11435
754.11475
754.11508
754.11534
754.11555
754.11571
754.1159
754.11652
754.11479
754.11435
754.11496
754.11536
754.11568
754.11593
754.11611
754.11624
754.11635
754.11685
754.11519
754.11475
754.11536
754.11575
754.11606
754.1163
754.11647
754.11657
754.11665
754.11712
754.11551
754.11508
754.11568
754.11606
754.11636
754.11659
754.11674
754.11683
754.11689
754.11735
754.11579
754.11534
754.11593
754.1163
754.11659
754.1168
754.11695
754.11702
754.11708
754.11754
754.11601
754.11555
754.11611
754.11647
754.11674
754.11695
754.11708
754.11715
754.11721
754.11768
754.11622
754.11571
754.11624
754.11657
754.11683
754.11702
754.11715
754.11723
754.1173
754.11778
754.11649
754.1159
754.11635
754.11665
754.11689
754.11708
754.11721
754.1173
754.1174
754.11794
754.11704
754.11652
754.11685
754.11712
754.11735
754.11754
754.11768
754.11778
754.11794
754.11864
752.42271
752.42152
752.42236
752.42284
752.42318
752.4234
752.42352
752.42357
752.42367
752.42419
752.42152
752.42115
752.42195
752.42242
752.42276
752.42297
752.42305
752.42304
752.42301
752.42361
752.42236
752.42195
752.42273
752.42321
752.42353
752.42372
752.42378
752.42371
752.42356
752.42401
752.42284
752.42242
752.42321
752.42367
752.42398
752.42415
752.42418
752.42407
752.42389
752.42429
752.42318
752.42276
752.42353
752.42398
752.42427
752.42442
752.42443
752.4243
752.42409
752.42448
752.4234
752.42297
752.42372
752.42415
752.42442
752.42456
752.42455
752.42441
752.42418
752.42456
752.42352
752.42305
752.42378
752.42418
752.42443
752.42455
752.42453
752.42438
752.42416
752.42454
752.42357
752.42304
752.42371
752.42407
752.4243
752.42441
752.42438
752.42424
752.42403
752.42443
752.42367
752.42301
752.42356
752.42389
752.42409
752.42418
752.42416
752.42403
752.42386
752.42433
752.42419
752.42361
752.42401
752.42429
752.42448
752.42456
752.42454
752.42443
752.42433
752.42512
750.70779
750.70653
750.70756
750.70812
750.70847
750.70864
750.70864
750.70853
750.70845
750.70895
750.70653
750.7062
750.70717
750.70773
750.70807
750.70822
750.70818
750.70799
750.70773
750.70831
750.70756
750.70717
750.70813
750.70868
750.709
750.70913
750.70906
750.70879
750.70839
750.70876
750.70812
750.70773
750.70868
750.70921
750.70951
750.70961
750.7095
750.70919
750.70874
750.70906
750.70847
750.70807
750.709
750.70951
750.70979
750.70987
750.70973
750.70939
750.7089
750.70921
750.70864
750.70822
750.70913
750.70961
750.70987
750.70992
750.70976
750.7094
750.70889
750.70919
750.70864
750.70818
750.70906
750.7095
750.70973
750.70976
750.70959
750.70921
750.70871
750.70901
750.70853
750.70799
750.70879
750.70919
750.70939
750.7094
750.70921
750.70884
750.70836
750.70867
750.70845
750.70773
750.70839
750.70874
750.7089
750.70889
750.70871
750.70836
750.70791
750.70832
750.70895
750.70831
750.70876
750.70906
750.70921
750.70919
750.70901
750.70867
750.70832
750.70917
748.95805
748.95673
748.95795
748.95858
748.95894
748.95905
748.95894
748.95867
748.95841
748.95888
748.95673
748.95645
748.9576
748.95822
748.95856
748.95865
748.9585
748.95812
748.95764
748.95818
748.95795
748.9576
748.95872
748.95933
748.95966
748.95971
748.95951
748.95905
748.9584
748.95869
748.95858
748.95822
748.95933
748.95992
748.96022
748.96025
748.96
748.95948
748.95876
748.959
748.95894
748.95856
748.95966
748.96022
748.96049
748.96048
748.9602
748.95965
748.95889
748.9591
748.95905
748.95865
748.95971
748.96025
748.96048
748.96045
748.96014
748.95956
748.95878
748.95898
748.95894
748.9585
748.95951
748.96
748.9602
748.96014
748.95981
748.95922
748.95843
748.95863
748.95867
748.95812
748.95905
748.95948
748.95965
748.95956
748.95922
748.95862
748.95786
748.95808
748.95841
748.95764
748.9584
748.95876
748.95889
748.95878
748.95843
748.95786
748.95714
748.95747
748.95888
748.95818
748.95869
748.959
748.9591
748.95898
748.95863
748.95808
748.95747
748.95838
747.16193
747.16056
747.16195
747.16266
747.16301
747.16306
747.16284
747.1624
747.16197
747.16239
747.16056
747.16033
747.16164
747.16233
747.16267
747.1627
747.16242
747.16186
747.16116
747.16165
747.16195
747.16164
747.16292
747.1636
747.16391
747.1639
747.16357
747.16291
747.16201
747.16222
747.16266
747.16233
747.1636
747.16424
747.16453
747.16448
747.16409
747.16337
747.16239
747.16253
747.16301
747.16267
747.16391
747.16453
747.16478
747.16469
747.16427
747.1635
747.16247
747.16258
747.16306
747.1627
747.1639
747.16448
747.16469
747.16457
747.16411
747.16331
747.16226
747.16236
747.16284
747.16242
747.16357
747.16409
747.16427
747.16411
747.16362
747.16281
747.16175
747.16185
747.1624
747.16186
747.16291
747.16337
747.1635
747.16331
747.16281
747.162
747.16096
747.16108
747.16197
747.16116
747.16201
747.16239
747.16247
747.16226
747.16175
747.16096
747.15997
747.16021
747.16239
747.16165
747.16222
747.16253
747.16258
747.16236
747.16185
747.16108
747.16021
747.16117
745.30873
745.30734
745.3089
745.30966
745.31001
745.31
745.30966
745.30906
745.30846
745.30883
745.30734
745.30716
745.30863
745.30938
745.30971
745.30967
745.30927
745.30853
745.30761
745.30804
745.3089
745.30863
745.31006
745.31078
745.31109
745.31101
745.31054
745.30969
745.30855
745.30867
745.30966
745.30938
745.31078
745.31148
745.31175
745.31163
745.3111
745.31018
745.30894
745.30898
745.31001
745.30971
745.31109
745.31175
745.31199
745.31181
745.31124
745.31027
745.30897
745.30898
745.31
745.30967
745.31101
745.31163
745.31181
745.3116
745.31099
745.30998
745.30866
745.30865
745.30966
745.30927
745.31054
745.3111
745.31124
745.31099
745.31035
745.30932
745.30799
745.30798
745.30906
745.30853
745.30969
745.31018
745.31027
745.30998
745.30932
745.30829
745.30698
745.307
745.30846
745.30761
745.30855
745.30894
745.30897
745.30866
745.30799
745.30698
745.30573
745.30587
745.30883
745.30804
745.30867
745.30898
745.30898
745.30865
745.30798
745.307
745.30587
745.30686
743.38872
743.38731
743.38902
743.38984
743.39019
743.39011
743.38965
743.38889
743.38811
743.38842
743.38731
743.38719
743.3888
743.3896
743.38992
743.38982
743.38929
743.38837
743.38724
743.3876
743.38902
743.3888
743.39037
743.39114
743.39143
743.39128
743.39068
743.38964
743.38825
743.38828
743.38984
743.3896
743.39114
743.39188
743.39213
743.39193
743.39126
743.39014
743.38865
743.38859
743.39019
743.38992
743.39143
743.39213
743.39234
743.39209
743.39137
743.39019
743.38864
743.38853
743.39011
743.38982
743.39128
743.39193
743.39209
743.39178
743.39102
743.3898
743.38822
743.3881
743.38965
743.38929
743.39068
743.39126
743.39137
743.39102
743.39023
743.38899
743.3874
743.38727
743.38889
743.38837
743.38964
743.39014
743.39019
743.3898
743.38899
743.38774
743.38617
743.38607
743.38811
743.38724
743.38825
743.38865
743.38864
743.38822
743.3874
743.38617
743.38465
743.3847
743.38842
743.3876
743.38828
743.38859
743.38853
743.3881
743.38727
743.38607
743.3847
743.3857
741.39308
741.39166
741.39351
741.39438
741.39471
741.39457
741.39399
741.39308
741.39212
741.39237
741.39166
741.39161
741.39334
741.39419
741.3945
741.39432
741.39367
741.39258
741.39123
741.39153
741.39351
741.39334
741.39504
741.39585
741.39612
741.39589
741.39516
741.39394
741.39231
741.39224
741.39438
741.39419
741.39585
741.39663
741.39686
741.39657
741.39577
741.39445
741.39272
741.39254
741.39471
741.3945
741.39612
741.39686
741.39704
741.39669
741.39583
741.39445
741.39265
741.39243
741.39457
741.39432
741.39589
741.39657
741.39669
741.3963
741.39539
741.39397
741.39213
741.39189
741.39399
741.39367
741.39516
741.39577
741.39583
741.39539
741.39444
741.393
741.39115
741.39091
741.39308
741.39258
741.39394
741.39445
741.39445
741.39397
741.393
741.39154
741.38971
741.3895
741.39212
741.39123
741.39231
741.39272
741.39265
741.39213
741.39115
741.38971
741.38794
741.38788
741.39237
741.39153
741.39224
741.39254
741.39243
741.39189
741.39091
741.3895
741.38788
741.38889
739.31398
739.31256
739.31454
739.31544
739.31575
739.31554
739.31484
739.31377
739.31264
739.31282
739.31256
739.31257
739.31442
739.3153
739.31559
739.31533
739.31456
739.31329
739.31174
739.31196
739.31454
739.31442
739.31622
739.31707
739.31732
739.317
739.31614
739.31474
739.31288
739.31271
739.31544
739.3153
739.31707
739.31787
739.31807
739.3177
739.31676
739.31526
739.31328
739.313
739.31575
739.31559
739.31732
739.31807
739.31821