/*--------------------------------*- C++ -*----------------------------------*\
| =========                 |                                                 |
| \\      /  F ield         | OpenFOAM: The Open Source CFD Toolbox           |
|  \\    /   O peration     | Version:  v2106                                 |
|   \\  /    A nd           | Website:  www.openfoam.com                      |
|    \\/     M anipulation  |                                                 |
\*---------------------------------------------------------------------------*/
FoamFile
{
    version     2.0;
    format      ascii;
    arch        "LSB;label=32;scalar=64";
    class       volVectorField;
    location    "45";
    object      gradT;
}
// * * * * * * * * * * * * * * * * * * * * * * * * * * * * * * * * * * * * * //

dimensions      [0 -1 0 1 0 0 0];

internalField   nonuniform List<vector> 
4000
(
(0.00077173602 0.00077173602 546.22947)
(0.00043386534 0.00014123498 546.23456)
(-0.00096897341 0.00021246141 546.23124)
(-0.00037320182 0.00021595629 546.22996)
(-0.00016133886 0.00021881134 546.22929)
(8.4247866e-06 0.00022421983 546.22912)
(0.00012701851 0.00023509288 546.22935)
(0.00015923876 0.0002571787 546.22981)
(7.3276283e-05 0.00029248144 546.2302)
(-4.9367757e-07 0.00030102843 546.23008)
(0.00014123498 0.00043386534 546.23456)
(-0.00040504656 -0.00040504656 546.23571)
(-0.00085689144 -0.00028901331 546.23278)
(-0.00036367694 -0.00027917429 546.23152)
(-0.00014894355 -0.00026778409 546.23087)
(3.28471e-05 -0.00024888382 546.23075)
(0.00017645682 -0.00021531188 546.23106)
(0.0002453216 -0.00015126967 546.2317)
(0.00013905088 -3.6707972e-05 546.23237)
(8.053316e-06 8.4745e-05 546.23218)
(0.00021246142 -0.00096897341 546.23124)
(-0.00028901331 -0.00085689144 546.23278)
(-0.00084310114 -0.00084310114 546.22989)
(-0.0003519726 -0.00083168874 546.22866)
(-0.00013104839 -0.00081547639 546.22805)
(6.0897e-05 -0.00079283961 546.22798)
(0.00022463266 -0.00076008947 546.22839)
(0.00033784267 -0.00070959922 546.22919)
(0.00030929095 -0.00062590236 546.23019)
(8.047497e-05 -0.00049916468 546.23056)
(0.00021595629 -0.00037320182 546.22996)
(-0.00027917429 -0.00036367694 546.23152)
(-0.00083168874 -0.0003519726 546.22866)
(-0.00033605219 -0.00033605219 546.22746)
(-0.00011009442 -0.00031654935 546.2269)
(8.8234012e-05 -0.00029303378 546.22689)
(0.00025969721 -0.00026427156 546.22738)
(0.00037950872 -0.00022986504 546.22829)
(0.00034948542 -0.00019311294 546.22941)
(9.2545103e-05 -0.00016520721 546.22988)
(0.00021881134 -0.00016133886 546.22929)
(-0.00026778409 -0.00014894355 546.23087)
(-0.00081547639 -0.00013104839 546.22805)
(-0.00031654935 -0.00011009442 546.2269)
(-8.8029982e-05 -8.8029987e-05 546.2264)
(0.00011317479 -6.5322706e-05 546.22645)
(0.00028780141 -4.1572568e-05 546.22701)
(0.00040900129 -1.7020737e-05 546.22799)
(0.00037394879 5.7760559e-06 546.22919)
(9.9078795e-05 2.045749e-05 546.22971)
(0.00022421983 8.4247872e-06 546.22912)
(-0.00024888382 3.2847101e-05 546.23075)
(-0.00079283961 6.0896998e-05 546.22798)
(-0.00029303379 8.8234014e-05 546.22689)
(-6.5322701e-05 0.00011317479 546.22645)
(0.00013469143 0.00013469142 546.22657)
(0.00030799918 0.00015318372 546.22718)
(0.00042685734 0.00016851241 546.22821)
(0.00038696364 0.00017978983 546.22945)
(0.00010233273 0.00018573699 546.23)
(0.00023509288 0.00012701851 546.22935)
(-0.00021531188 0.00017645682 546.23106)
(-0.00076008948 0.00022463267 546.22839)
(-0.00026427156 0.00025969722 546.22738)
(-4.1572571e-05 0.00028780141 546.22701)
(0.00015318372 0.00030799917 546.22718)
(0.00032162239 0.00032162239 546.22784)
(0.0004356074 0.00032896585 546.2289)
(0.00039117336 0.00033018923 546.23015)
(0.00010304357 0.00032769168 546.23071)
(0.0002571787 0.00015923876 546.22981)
(-0.00015126967 0.0002453216 546.2317)
(-0.00070959921 0.00033784267 546.22919)
(-0.00022986504 0.00037950871 546.22829)
(-1.7020743e-05 0.00040900129 546.22799)
(0.00016851241 0.00042685734 546.22821)
(0.00032896585 0.00043560741 546.2289)
(0.00043542418 0.00043542418 546.22997)
(0.00038568948 0.0004255993 546.23122)
(0.0001006677 0.00041034752 546.23175)
(0.00029248144 7.3276282e-05 546.2302)
(-3.6707971e-05 0.00013905088 546.23237)
(-0.00062590236 0.00030929095 546.23019)
(-0.00019311294 0.00034948541 546.22941)
(5.776058e-06 0.00037394879 546.22919)
(0.00017978983 0.00038696364 546.22945)
(0.00033018923 0.00039117337 546.23015)
(0.0004255993 0.00038568948 546.23122)
(0.00036609671 0.00036609671 546.23241)
(9.2875713e-05 0.00033162038 546.23287)
(0.00030102843 -4.9367814e-07 546.23008)
(8.4745003e-05 8.0533178e-06 546.23218)
(-0.00049916468 8.0474971e-05 546.23056)
(-0.00016520721 9.2545103e-05 546.22988)
(2.0457492e-05 9.9078794e-05 546.22971)
(0.00018573699 0.00010233273 546.23)
(0.00032769169 0.00010304356 546.23071)
(0.00041034752 0.0001006677 546.23175)
(0.00033162038 9.2875714e-05 546.23287)
(7.7683482e-05 7.7683483e-05 546.23315)
(0.0027810848 0.0027810848 807.54601)
(0.0013634009 0.0007247494 807.55046)
(-0.0040015663 0.00089522497 807.54683)
(-0.001808028 0.00091000503 807.54505)
(-0.00076593793 0.00092427468 807.54415)
(6.7737173e-05 0.0009506831 807.54397)
(0.00065315413 0.0010043869 807.54439)
(0.00078761182 0.0011164051 807.54519)
(0.00017632806 0.0012951753 807.54582)
(-0.00011807774 0.001203284 807.54495)
(0.0007247494 0.0013634009 807.55046)
(-0.0014653889 -0.0014653889 807.55154)
(-0.0037236828 -0.0011629377 807.54812)
(-0.0017644534 -0.0011149119 807.54637)
(-0.00070492083 -0.0010582183 807.5455)
(0.00018790544 -0.00096579088 807.54538)
(0.00090173718 -0.00080059862 807.54593)
(0.0012237945 -0.00047918586 807.54702)
(0.00030664631 0.00010195256 807.54821)
(-0.00020996906 0.00046717926 807.54722)
(0.00089522497 -0.0040015663 807.54683)
(-0.0011629377 -0.0037236828 807.54812)
(-0.0036510893 -0.0036510893 807.54476)
(-0.0017033087 -0.0035909317 807.54305)
(-0.00061681688 -0.0035110106 807.54223)
(0.00032535689 -0.0034003159 807.5422)
(0.0011397592 -0.003240038 807.54288)
(0.001690163 -0.0029904352 807.5442)
(0.0011226932 -0.0025635116 807.54588)
(0.00012540672 -0.0019581409 807.54562)
(0.00091000503 -0.001808028 807.54505)
(-0.0011149119 -0.0017644534 807.54637)
(-0.0035909317 -0.0017033087 807.54305)
(-0.0016243748 -0.0016243748 807.5414)
(-0.000514305 -0.0015289299 807.54065)
(0.00045887807 -0.0014140868 807.54071)
(0.0013116179 -0.0012737478 807.54151)
(0.0019003208 -0.0011056663 807.54298)
(0.0013389406 -0.00092104526 807.54485)
(0.00019361144 -0.00077212104 807.54476)
(0.00092427468 -0.00076593793 807.54415)
(-0.0010582183 -0.00070492083 807.5455)
(-0.0035110106 -0.00061681688 807.54223)
(-0.0015289299 -0.00051430501 807.54065)
(-0.00040652884 -0.00040652885 807.53999)
(0.00058053897 -0.00029564164 807.54013)
(0.0014481797 -0.00017980114 807.54103)
(0.0020428655 -6.0544888e-05 807.54262)
(0.0014562384 4.95742e-05 807.5446)
(0.00022468953 0.00011919077 807.54458)
(0.0009506831 6.7737176e-05 807.54397)
(-0.00096579089 0.00018790544 807.54538)
(-0.0034003159 0.00032535689 807.5422)
(-0.0014140868 0.00045887808 807.54071)
(-0.00029564164 0.00058053897 807.54013)
(0.00068560579 0.00068560578 807.54036)
(0.0015467147 0.00077580331 807.54134)
(0.0021296962 0.00085035965 807.54301)
(0.0015186763 0.00090469833 807.54505)
(0.00024002249 0.0009321548 807.54506)
(0.0010043869 0.00065315413 807.54439)
(-0.00080059862 0.00090173718 807.54593)
(-0.003240038 0.0011397592 807.54288)
(-0.0012737478 0.0013116179 807.54151)
(-0.00017980114 0.0014481797 807.54103)
(0.00077580331 0.0015467146 807.54134)
(0.0016129336 0.0016129336 807.54239)
(0.0021717606 0.0016479056 807.54409)
(0.0015380335 0.0016515603 807.54615)
(0.00024299385 0.0016350327 807.54617)
(0.0011164051 0.00078761182 807.54519)
(-0.00047918586 0.0012237945 807.54702)
(-0.0029904352 0.001690163 807.5442)
(-0.0011056663 0.0019003208 807.54298)
(-6.0544893e-05 0.0020428655 807.54262)
(0.00085035965 0.0021296962 807.54301)
(0.0016479056 0.0021717606 807.54409)
(0.0021683229 0.0021683229 807.54581)
(0.0015058033 0.0021113615 807.54785)
(0.00022900405 0.0020139939 807.54782)
(0.0012951753 0.00017632806 807.54582)
(0.00010195257 0.00030664631 807.54821)
(-0.0025635116 0.0011226932 807.54588)
(-0.00092104526 0.0013389406 807.54485)
(4.9574198e-05 0.0014562384 807.5446)
(0.00090469834 0.0015186763 807.54505)
(0.0016515603 0.0015380335 807.54615)
(0.0021113615 0.0015058033 807.54785)
(0.0013837045 0.0013837045 807.54979)
(0.00017808211 0.0011122445 807.54956)
(0.001203284 -0.00011807774 807.54495)
(0.00046717926 -0.00020996906 807.54722)
(-0.0019581409 0.00012540672 807.54562)
(-0.00077212105 0.00019361144 807.54476)
(0.00011919077 0.00022468953 807.54458)
(0.0009321548 0.00024002249 807.54506)
(0.0016350327 0.00024299385 807.54617)
(0.0020139939 0.00022900405 807.54782)
(0.0011122446 0.00017808211 807.54956)
(4.8030737e-05 4.803074e-05 807.54854)
(0.0037348314 0.0037348314 802.91181)
(0.0012537597 0.00086509428 802.91443)
(-0.006369234 0.0010721244 802.91152)
(-0.0030549874 0.0010942938 802.90998)
(-0.0012483837 0.001119158 802.90922)
(0.00024861563 0.0011653617 802.90916)
(0.0013451608 0.0012613501 802.90973)
(0.0015914581 0.0014775107 802.91075)
(-0.00016020785 0.0018872588 802.9117)
(-0.00057950919 0.0018145295 802.9105)
(0.00086509428 0.0012537597 802.91443)
(-0.0027403007 -0.0027403007 802.91482)
(-0.0060254347 -0.0023606405 802.91203)
(-0.002984437 -0.0022819976 802.91051)
(-0.0011417818 -0.0021817928 802.90978)
(0.00046190385 -0.0020185369 802.90978)
(0.0018133843 -0.0017254484 802.91047)
(0.0025303211 -0.0011347274 802.91179)
(0.00034532026 2.7284127e-05 802.91341)
(-0.00065223852 0.00075258944 802.91219)
(0.0010721244 -0.006369234 802.91152)
(-0.0023606405 -0.0060254347 802.91203)
(-0.0059109309 -0.0059109309 802.90928)
(-0.0028761396 -0.0058043612 802.9078)
(-0.00098492295 -0.0056619096 802.90713)
(0.00070495996 -0.0054647203 802.90721)
(0.0022289703 -0.0051803502 802.90803)
(0.0033441906 -0.0047412562 802.90957)
(0.001727109 -0.0039854474 802.91165)
(-9.5972308e-05 -0.0029614262 802.91106)
(0.0010942938 -0.0030549874 802.90998)
(-0.0022819976 -0.002984437 802.91051)
(-0.0058043612 -0.0028761396 802.9078)
(-0.0027354157 -0.0027354157 802.90637)
(-0.00080214092 -0.002565461 802.90576)
(0.00094346329 -0.0023609414 802.90594)
(0.0025368484 -0.0021107749 802.90687)
(0.0037252239 -0.0018108808 802.90857)
(0.0021251503 -0.0014771835 802.91083)
(3.0442273e-05 -0.0012045167 802.91041)
(0.001119158 -0.0012483837 802.90922)
(-0.0021817928 -0.0011417818 802.90978)
(-0.0056619096 -0.00098492296 802.90713)
(-0.002565461 -0.00080214092 802.90576)
(-0.00061044867 -0.00061044867 802.90524)
(0.0011596461 -0.00041332727 802.9055)
(0.002779031 -0.0002076451 802.90653)
(0.0039777821 3.5259308e-06 802.90834)
(0.002333473 0.00019829575 802.91071)
(8.5805525e-05 0.00032143202 802.91036)
(0.0011653617 0.00024861563 802.90916)
(-0.0020185369 0.00046190384 802.90978)
(-0.0054647203 0.00070495997 802.90721)
(-0.0023609414 0.00094346328 802.90594)
(-0.00041332727 0.0011596461 802.9055)
(0.0013462669 0.0013462669 802.90584)
(0.0029537016 0.0015061244 802.90695)
(0.0041311647 0.0016375626 802.90883)
(0.0024430563 0.0017321337 802.91126)
(0.00011253312 0.0017783341 802.91094)
(0.0012613501 0.0013451608 802.90973)
(-0.0017254484 0.0018133843 802.91047)
(-0.0051803502 0.0022289703 802.90803)
(-0.0021107749 0.0025368484 802.90687)
(-0.00020764509 0.002779031 802.90653)
(0.0015061244 0.0029537016 802.90695)
(0.0030703267 0.0030703267 802.90812)
(0.0042037913 0.0031297165 802.91004)
(0.0024742445 0.0031291269 802.91249)
(0.00011660583 0.0030869988 802.91217)
(0.0014775107 0.0015914581 802.91075)
(-0.0011347274 0.0025303211 802.91179)
(-0.0047412562 0.0033441906 802.90957)
(-0.0018108808 0.0037252239 802.90857)
(3.5259376e-06 0.0039777821 802.90834)
(0.0016375626 0.0041311647 802.90883)
(0.0031297165 0.0042037913 802.91004)
(0.0041899649 0.0041899649 802.91196)
(0.0024003387 0.0040588737 802.91438)
(8.4447776e-05 0.0037992552 802.91401)
(0.0018872588 -0.00016020786 802.9117)
(2.728413e-05 0.00034532026 802.91341)
(-0.0039854474 0.001727109 802.91165)
(-0.0014771835 0.0021251503 802.91083)
(0.00019829575 0.002333473 802.91071)
(0.0017321337 0.0024430563 802.91126)
(0.0031291269 0.0024742445 802.91249)
(0.0040588737 0.0024003387 802.91438)
(0.0020835348 0.0020835348 802.91668)
(-5.6473209e-05 0.0010547418 802.91603)
(0.0018145295 -0.00057950919 802.9105)
(0.00075258945 -0.00065223853 802.91219)
(-0.0029614262 -9.5972306e-05 802.91106)
(-0.0012045167 3.0442274e-05 802.91041)
(0.00032143202 8.5805525e-05 802.91036)
(0.0017783341 0.00011253312 802.91094)
(0.0030869988 0.00011660583 802.91217)
(0.0037992552 8.4447778e-05 802.91401)
(0.0010547418 -5.6473207e-05 802.91603)
(-0.00060141421 -0.0006014142 802.91381)
(0.0045267322 0.0045267322 798.58123)
(0.0010780081 0.00098855389 798.5835)
(-0.0084515693 0.001233588 798.58087)
(-0.004114167 0.0012635503 798.57951)
(-0.0015821821 0.0012988539 798.57891)
(0.00057976562 0.0013638743 798.57899)
(0.0022456375 0.0014985873 798.5797)
(0.0027560046 0.0018089321 798.58094)
(-7.7606628e-05 0.0024352405 798.58222)
(-0.00091682238 0.0023283661 798.58134)
(0.00098855389 0.0010780081 798.5835)
(-0.0038617082 -0.0038617082 798.58385)
(-0.0080390748 -0.00340308 798.58134)
(-0.0040162682 -0.0032932912 798.58001)
(-0.001431696 -0.0031501875 798.57943)
(0.0008793657 -0.0029183134 798.57957)
(0.0029132241 -0.0025040174 798.5804)
(0.0041609845 -0.0016625162 798.58191)
(0.00070154445 5.1840963e-05 798.58383)
(-0.0010236967 0.0010214663 798.58283)
(0.001233588 -0.0084515693 798.58087)
(-0.00340308 -0.0080390747 798.58134)
(-0.0078831523 -0.0078831523 798.57887)
(-0.0038612745 -0.0077305891 798.57758)
(-0.0012072043 -0.0075266847 798.57706)
(0.0012259357 -0.0072448464 798.57728)
(0.0035014347 -0.0068392865 798.57823)
(0.005311863 -0.0062165932 798.57996)
(0.0026063758 -0.005140702 798.58233)
(-0.0002704055 -0.0037380736 798.58189)
(0.0012635503 -0.004114167 798.57951)
(-0.0032932912 -0.0040162682 798.58001)
(-0.0077305891 -0.0038612745 798.57758)
(-0.0036598006 -0.0036598006 798.57635)
(-0.00094595328 -0.0034169694 798.57589)
(0.0015667639 -0.0031250697 798.5762)
(0.0039414773 -0.0027681216 798.57727)
(0.005859569 -0.0023406348 798.57914)
(0.003180064 -0.0018616254 798.58169)
(-8.8611148e-05 -0.0014707088 798.58141)
(0.0012988539 -0.0015821821 798.57891)
(-0.0031501875 -0.001431696 798.57943)
(-0.0075266847 -0.0012072043 798.57706)
(-0.0034169694 -0.00094595327 798.57589)
(-0.00067247333 -0.00067247333 798.57552)
(0.0018747834 -0.00039156531 798.5759)
(0.0042858695 -9.8880001e-05 798.57707)
(0.0062183592 0.0002008244 798.57904)
(0.0034763018 0.00047700848 798.5817)
(-9.7944406e-06 0.00065158012 798.58149)
(0.0013638743 0.00057976562 798.57899)
(-0.0029183134 0.00087936569 798.57957)
(-0.0072448464 0.0012259357 798.57728)
(-0.0031250697 0.0015667639 798.5762)
(-0.00039156531 0.0018747834 798.5759)
(0.0021403572 0.0021403572 798.57637)
(0.004533867 0.0023672377 798.57761)
(0.0064354574 0.0025528546 798.57965)
(0.0036308197 0.0026853019 798.58237)
(2.7769942e-05 0.0027491477 798.58219)
(0.0014985873 0.0022456375 798.5797)
(-0.0025040174 0.0029132241 798.5804)
(-0.0068392865 0.0035014347 798.57823)
(-0.0027681216 0.0039414773 798.57727)
(-9.8879999e-05 0.0042858695 798.57707)
(0.0023672377 0.004533867 798.57761)
(0.0046983669 0.0046983669 798.57891)
(0.0065364234 0.0047799267 798.58099)
(0.0036725949 0.0047736748 798.58372)
(3.2769437e-05 0.004706432 798.58354)
(0.0018089321 0.0027560046 798.58094)
(-0.0016625162 0.0041609845 798.58191)
(-0.0062165932 0.005311863 798.57996)
(-0.0023406348 0.005859569 798.57914)
(0.00020082439 0.0062183592 798.57904)
(0.0025528546 0.0064354574 798.57965)
(0.0047799267 0.0065364234 798.58099)
(0.0065107653 0.0065107653 798.58307)
(0.0035573251 0.0063036896 798.58577)
(-1.7058551e-05 0.0058664342 798.58554)
(0.0024352405 -7.7606633e-05 798.58222)
(5.184097e-05 0.00070154445 798.58383)
(-0.005140702 0.0026063758 798.58233)
(-0.0018616254 0.003180064 798.58169)
(0.00047700848 0.0034763018 798.5817)
(0.0026853019 0.0036308197 798.58237)
(0.0047736748 0.0036725949 798.58372)
(0.0063036896 0.0035573251 798.58577)
(0.0030282639 0.0030282639 798.58835)
(-0.00025873416 0.0009098291 798.58783)
(0.0023283661 -0.00091682238 798.58134)
(0.0010214663 -0.0010236967 798.58283)
(-0.0037380736 -0.0002704055 798.58189)
(-0.0014707088 -8.861115e-05 798.58141)
(0.00065158012 -9.7944352e-06 798.58149)
(0.0027491477 2.7769941e-05 798.58219)
(0.004706432 3.2769434e-05 798.58354)
(0.0058664343 -1.7058555e-05 798.58554)
(0.0009098291 -0.00025873415 798.58783)
(-0.0014293484 -0.0014293484 798.58535)
(0.0052502712 0.0052502712 794.54191)
(0.00089610421 0.0010983116 794.54398)
(-0.010354171 0.001384969 794.54152)
(-0.005017279 0.0014239166 794.54032)
(-0.0017765454 0.0014698118 794.53984)
(0.0010458568 0.0015533156 794.54005)
(0.0032941636 0.0017256492 794.54089)
(0.0041112174 0.0021264309 794.54226)
(0.00024608615 0.0029614317 794.54372)
(-0.0011673063 0.0028035244 794.54306)
(0.0010983116 0.00089610421 794.54398)
(-0.0049018491 -0.0049018491 794.54427)
(-0.0098657637 -0.0043558939 794.54194)
(-0.0048900148 -0.0042122441 794.54077)
(-0.0015824469 -0.0040262626 794.54032)
(0.001429613 -0.0037273498 794.54058)
(0.0041538367 -0.0031955184 794.54153)
(0.005964891 -0.0021128526 794.54317)
(0.0012617263 0.00013461929 794.54525)
(-0.0013252135 0.0013011817 794.54444)
(0.001384969 -0.010354171 794.54152)
(-0.0043558939 -0.0098657637 794.54194)
(-0.0096645662 -0.0096645662 794.53966)
(-0.0046876476 -0.0094650573 794.53853)
(-0.0012916511 -0.0092006304 794.53814)
(0.001876601 -0.0088365302 794.53848)
(0.0049086608 -0.0083137839 794.53955)
(0.0074413551 -0.007514386 794.54139)
(0.0036601205 -0.0061290662 794.5439)
(-0.00038959798 -0.0043749224 794.54362)
(0.0014239166 -0.005017279 794.54032)
(-0.0042122441 -0.0048900148 794.54077)
(-0.0094650573 -0.0046876476 794.53853)
(-0.0044260791 -0.0044260791 794.53745)
(-0.00095391987 -0.0041120956 794.53712)
(0.0023164595 -0.003735511 794.53755)
(0.0054759809 -0.0032755233 794.53873)
(0.0081496088 -0.0027255229 794.54071)
(0.00440119 -0.0021066066 794.54339)
(-0.00015578433 -0.0016042175 794.54327)
(0.0014698118 -0.0017765454 794.53984)
(-0.0040262626 -0.0015824469 794.54032)
(-0.0092006304 -0.0012916511 794.53814)
(-0.0041120956 -0.00095391986 794.53712)
(-0.00060108304 -0.00060108304 794.53688)
(0.0027131733 -0.00023922907 794.53738)
(0.0059186489 0.00013715977 794.53865)
(0.0086102719 0.0005215759 794.54073)
(0.004781426 0.00087546173 794.54352)
(-5.4671914e-05 0.0010987197 794.54346)
(0.0015533156 0.0010458568 794.54005)
(-0.0037273498 0.001429613 794.54058)
(-0.0088365302 0.001876601 794.53848)
(-0.003735511 0.0023164595 794.53755)
(-0.00023922907 0.0027131733 794.53738)
(0.0030547023 0.0030547023 794.53796)
(0.0062367859 0.003345619 794.5393)
(0.0088879107 0.0035823777 794.54145)
(0.0049783338 0.0037499555 794.54429)
(-6.9456924e-06 0.003829739 794.54426)
(0.0017256492 0.0032941636 794.54089)
(-0.0031955184 0.0041538367 794.54153)
(-0.0083137839 0.0049086608 794.53955)
(-0.0032755233 0.0054759809 794.53873)
(0.00013715976 0.0059186489 794.53865)
(0.003345619 0.0062367859 794.5393)
(0.0064463242 0.0064463242 794.5407)
(0.0090146084 0.0065474232 794.54288)
(0.0050287873 0.0065336922 794.54573)
(-1.4829235e-06 0.0064418149 794.5457)
(0.0021264309 0.0041112174 794.54226)
(-0.0021128526 0.005964891 794.54317)
(-0.007514386 0.0074413551 794.54139)
(-0.0027255229 0.0081496088 794.54071)
(0.0005215759 0.0086102719 794.54073)
(0.0035823777 0.0088879107 794.54145)
(0.0065474232 0.0090146084 794.54288)
(0.0089752787 0.0089752787 794.54506)
(0.0048727255 0.0086939837 794.54788)
(-6.819721e-05 0.0080888032 794.5478)
(0.0029614317 0.00024608615 794.54372)
(0.0001346193 0.0012617263 794.54525)
(-0.0061290662 0.0036601205 794.5439)
(-0.0021066066 0.00440119 794.54339)
(0.00087546172 0.004781426 794.54352)
(0.0037499555 0.0049783338 794.54429)
(0.0065336922 0.0050287872 794.54573)
(0.0086939837 0.0048727255 794.54788)
(0.0041423117 0.0041423117 794.55059)
(-0.0004049366 0.00086468771 794.55023)
(0.0028035244 -0.0011673063 794.54306)
(0.0013011817 -0.0013252135 794.54444)
(-0.0043749224 -0.00038959798 794.54362)
(-0.0016042175 -0.00015578433 794.54327)
(0.0010987197 -5.4671912e-05 794.54346)
(0.003829739 -6.9456962e-06 794.54426)
(0.0064418149 -1.4829292e-06 794.5457)
(0.0080888032 -6.819721e-05 794.5478)
(0.0008646877 -0.0004049366 794.55023)
(-0.0022532799 -0.0022532799 794.54785)
(0.0059075567 0.0059075567 790.77849)
(0.00069195431 0.0011842187 790.78036)
(-0.012112492 0.0015134356 790.77805)
(-0.0057909746 0.0015620884 790.77697)
(-0.0018510146 0.0016185614 790.77661)
(0.001624953 0.001719972 790.77692)
(0.0044541154 0.0019285288 790.77785)
(0.0055862327 0.0024163023 790.77931)
(0.00072603167 0.0034533723 790.78088)
(-0.0013561265 0.0032465286 790.78039)
(0.0011842187 0.00069195431 790.78036)
(-0.0058992274 -0.0058992274 790.78057)
(-0.011545687 -0.0052626349 790.77839)
(-0.0056332859 -0.0050833541 790.77734)
(-0.0016141893 -0.0048548922 790.77701)
(0.002089904 -0.0044911019 790.77737)
(0.0054986109 -0.0038462754 790.77842)
(0.007873498 -0.0025322043 790.78013)
(0.0019713711 0.00022965069 790.78229)
(-0.0015629701 0.0015809459 790.78167)
(0.0015134356 -0.012112492 790.77805)
(-0.0052626349 -0.011545687 790.77839)
(-0.011296619 -0.011296619 790.77626)
(-0.005383232 -0.011049562 790.77526)
(-0.0012587624 -0.010725797 790.77498)
(0.0026335698 -0.01028222 790.77542)
(0.006413013 -0.0096469734 790.77658)
(0.0096621588 -0.0086786122 790.77849)
(0.0048391818 -0.0069964263 790.78106)
(-0.00045526302 -0.0049104182 790.78094)
(0.0015620884 -0.0057909746 790.77697)
(-0.0050833541 -0.0056332859 790.77734)
(-0.011049562 -0.0053832319 790.77526)
(-0.0050624641 -0.0050624641 790.7743)
(-0.00084684731 -0.0046793261 790.77409)
(0.0031687274 -0.004221098 790.77461)
(0.0071022188 -0.0036622442 790.77587)
(0.010524045 -0.0029951854 790.77792)
(0.0057395651 -0.0022424385 790.78066)
(-0.00017229808 -0.0016346254 790.78068)
(0.0016185614 -0.0018510146 790.77661)
(-0.0048548922 -0.0016141893 790.77701)
(-0.010725797 -0.0012587624 790.77498)
(-0.0046793261 -0.0008468473 790.77409)
(-0.00041739639 -0.00041739639 790.77395)
(0.0036506517 2.2267849e-05 790.77455)
(0.0076389256 0.00047880847 790.7759)
(0.011081965 0.00094399916 790.77804)
(0.0061997418 0.0013718269 790.78087)
(-5.005431e-05 0.0016410948 790.78096)
(0.001719972 0.001624953 790.77692)
(-0.0044911019 0.002089904 790.77737)
(-0.01028222 0.0026335698 790.77542)
(-0.004221098 0.0031687274 790.77461)
(2.2267845e-05 0.0036506517 790.77455)
(0.0040649322 0.0040649323 790.77522)
(0.0080239501 0.0044168827 790.77664)
(0.011417064 0.0047019774 790.77884)
(0.0064366608 0.0049023167 790.78172)
(7.2138649e-06 0.0049965122 790.78183)
(0.0019285288 0.0044541154 790.77785)
(-0.0038462754 0.0054986109 790.77842)
(-0.0096469734 0.006413013 790.77658)
(-0.0036622442 0.0071022188 790.77587)
(0.00047880847 0.0076389256 790.7759)
(0.0044168827 0.0080239501 790.77664)
(0.0082759708 0.0082759708 790.77811)
(0.011567399 0.0083946117 790.78034)
(0.0064942766 0.0083721191 790.78324)
(1.2742659e-05 0.0082553376 790.78335)
(0.0024163023 0.0055862327 790.77931)
(-0.0025322043 0.007873498 790.78013)
(-0.0086786122 0.0096621588 790.77849)
(-0.0029951854 0.010524045 790.77792)
(0.00094399916 0.011081965 790.77804)
(0.0047019774 0.011417064 790.77884)
(0.0083946117 0.011567399 790.78034)
(0.011513212 0.011513212 790.78258)
(0.0062973867 0.011159103 790.78544)
(-7.0640478e-05 0.010394807 790.78551)
(0.0034533723 0.00072603168 790.78088)
(0.0002296507 0.0019713711 790.78229)
(-0.0069964263 0.0048391818 790.78106)
(-0.0022424385 0.0057395651 790.78066)
(0.0013718269 0.0061997418 790.78087)
(0.0049023167 0.0064366608 790.78172)
(0.0083721191 0.0064942766 790.78324)
(0.011159103 0.0062973867 790.78544)
(0.0053758716 0.0053758716 790.7882)
(-0.00049678827 0.00095274273 790.788)
(0.0032465286 -0.0013561265 790.78039)
(0.0015809459 -0.0015629701 790.78167)
(-0.0049104182 -0.00045526302 790.78094)
(-0.0016346254 -0.00017229808 790.78068)
(0.0016410948 -5.0054314e-05 790.78096)
(0.0049965122 7.21386e-06 790.78183)
(0.0082553376 1.274266e-05 790.78335)
(0.010394807 -7.0640474e-05 790.78551)
(0.00095274273 -0.00049678827 790.788)
(-0.003019393 -0.003019393 790.78581)
(0.0064947246 0.0064947246 787.27495)
(0.0004547542 0.0012424407 787.2766)
(-0.013741355 0.001613698 787.27443)
(-0.0064552446 0.0016723659 787.27346)
(-0.0018271864 0.0017392529 787.2732)
(0.0022909162 0.001857863 787.27359)
(0.0056913094 0.0021009984 787.2746)
(0.0071370146 0.0026718895 787.27611)
(0.0013220369 0.0039034222 787.27774)
(-0.0014936989 0.0036545818 787.27739)
(0.0012424407 0.00045475421 787.2766)
(-0.0068667857 -0.0068667857 787.27673)
(-0.013096467 -0.0061395336 787.27469)
(-0.0062669123 -0.0059239411 787.27375)
(-0.0015489407 -0.0056538649 787.27352)
(0.0028335346 -0.0052277533 787.27396)
(0.0069123492 -0.0044750969 787.27506)
(0.0098406503 -0.0029403956 787.27682)
(0.0027960752 0.00031448469 787.27902)
(-0.0017425393 0.0018471531 787.27856)
(0.001613698 -0.013741355 787.27443)
(-0.0061395336 -0.013096467 787.27469)
(-0.01279851 -0.01279851 787.27271)
(-0.0059695759 -0.012504075 787.27181)
(-0.0011309986 -0.012122613 787.27163)
(0.0034696842 -0.011602737 787.27214)
(0.007978667 -0.010860134 787.27335)
(0.011926596 -0.0097310896 787.2753)
(0.0061095856 -0.0077660776 787.27789)
(-0.00047191994 -0.0053658774 787.2779)
(0.0016723659 -0.0064552446 787.27346)
(-0.0059239411 -0.0062669123 787.27375)
(-0.012504075 -0.0059695759 787.27181)
(-0.0055910149 -0.0055910149 787.27096)
(-0.00064760252 -0.0051411152 787.27084)
(0.0040960132 -0.0046046385 787.27143)
(0.0087839967 -0.003951437 787.27275)
(0.012934707 -0.003173031 787.27482)
(0.0071612874 -0.0022929368 787.27757)
(-0.00014240583 -0.0015852839 787.27772)
(0.0017392529 -0.0018271864 787.2732)
(-0.0056538649 -0.0015489407 787.27352)
(-0.012122613 -0.0011309986 787.27163)
(-0.0051411152 -0.00064760252 787.27084)
(-0.00014462213 -0.00014462213 787.27079)
(0.0046593625 0.00036944721 787.27146)
(0.0094102745 0.0009024008 787.27285)
(0.013585096 0.0014443831 787.27502)
(0.0076973327 0.0019424309 787.27785)
(-1.5133307e-07 0.0022552448 787.27806)
(0.001857863 0.0022909162 787.27359)
(-0.0052277533 0.0028335346 787.27396)
(-0.011602737 0.0034696842 787.27214)
(-0.0046046385 0.0040960132 787.27143)
(0.00036944721 0.0046593625 787.27146)
(0.0051430361 0.0051430361 787.27219)
(0.0098589326 0.0055530631 787.27365)
(0.013974737 0.0058840047 787.27588)
(0.0079721491 0.0061153048 787.27876)
(6.6136783e-05 0.0062229966 787.279)
(0.0021009984 0.0056913094 787.2746)
(-0.0044750969 0.0069123492 787.27506)
(-0.010860134 0.007978667 787.27335)
(-0.003951437 0.0087839967 787.27275)
(0.00090240081 0.0094102745 787.27285)
(0.0055530631 0.0098589326 787.27365)
(0.010151243 0.010151243 787.27517)
(0.014147338 0.010286329 787.27742)
(0.0080363245 0.010255203 787.28032)
(7.1643193e-05 0.010114437 787.28055)
(0.0026718895 0.0071370146 787.27611)
(-0.0029403957 0.0098406503 787.27682)
(-0.0097310896 0.011926596 787.2753)
(-0.003173031 0.012934707 787.27482)
(0.0014443831 0.013585096 787.27502)
(0.0058840047 0.013974737 787.27588)
(0.010286329 0.014147338 787.27742)
(0.014078696 0.014078696 787.27967)
(0.0078002563 0.013655242 787.28254)
(-2.7707181e-05 0.012741026 787.28273)
(0.0039034222 0.0013220369 787.27774)
(0.00031448468 0.0027960752 787.27902)
(-0.0077660776 0.0061095856 787.27789)
(-0.0022929368 0.0071612874 787.27757)
(0.0019424308 0.0076973326 787.27785)
(0.0061153048 0.0079721491 787.27876)
(0.010255203 0.0080363245 787.28032)
(0.013655242 0.0078002563 787.28254)
(0.0066986543 0.0066986543 787.2853)
(-0.0005378342 0.0011706008 787.28525)
(0.0036545818 -0.0014936989 787.27739)
(0.0018471531 -0.0017425393 787.27856)
(-0.0053658774 -0.00047191993 787.2779)
(-0.0015852839 -0.00014240583 787.27772)
(0.0022552448 -1.513338e-07 787.27806)
(0.0062229966 6.6136782e-05 787.279)
(0.010114437 7.1643192e-05 787.28055)
(0.012741026 -2.7707182e-05 787.28273)
(0.0011706008 -0.0005378342 787.28525)
(-0.0037130762 -0.0037130762 787.28328)
(0.0070085234 0.0070085234 784.01472)
(0.00017953073 0.0012717548 784.01615)
(-0.015246801 0.0016837907 784.01413)
(-0.0070245114 0.0017525309 784.01326)
(-0.0017243166 0.0018295444 784.01307)
(0.0030193626 0.0019645414 784.01353)
(0.0069757721 0.002240429 784.01457)
(0.00872995 0.0028901304 784.01612)
(0.0020081531 0.0043073505 784.01777)
(-0.001585826 0.0040243845 784.01756)
(0.0012717548 0.00017953073 784.01615)
(-0.0078075683 -0.0078075683 784.01619)
(-0.014525637 -0.0069914404 784.01429)
(-0.0068058808 -0.006739619 784.01345)
(-0.0014063008 -0.0064292241 784.0133)
(0.0036356895 -0.0059437116 784.0138)
(0.0083641555 -0.0050889077 784.01494)
(0.011830332 -0.0033453748 784.01671)
(0.0037095343 0.00037837054 784.01891)
(-0.001868792 0.002089961 784.01861)
(0.0016837907 -0.015246801 784.01413)
(-0.0069914404 -0.014525637 784.01429)
(-0.014178851 -0.014178851 784.01245)
(-0.0064622951 -0.013837887 784.01165)
(-0.00092840913 -0.013400839 784.01155)
(0.004359679 -0.01280825 784.01211)
(0.0095741089 -0.011963885 784.01336)
(0.014197228 -0.01068301 784.01531)
(0.0074434889 -0.0084505714 784.01788)
(-0.00044476567 -0.0057543621 784.01802)
(0.0017525309 -0.0070245114 784.01326)
(-0.006739619 -0.0068058809 784.01345)
(-0.013837887 -0.0064622951 784.01165)
(-0.0060278684 -0.0060278684 784.0109)
(-0.00037666396 -0.0055140192 784.01086)
(0.0050726432 -0.004903054 784.0115)
(0.010489396 -0.0041603737 784.01284)
(0.015343646 -0.0032766413 784.01491)
(0.0086381819 -0.0022760984 784.01762)
(-7.1319175e-05 -0.0014742182 784.01789)
(0.0018295444 -0.0017243166 784.01307)
(-0.0064292241 -0.0014063008 784.0133)
(-0.013400839 -0.00092840913 784.01155)
(-0.0055140192 -0.00037666396 784.01086)
(0.00019640524 0.00019640525 784.01088)