/*--------------------------------*- C++ -*----------------------------------*\
| =========                 |                                                 |
| \\      /  F ield         | OpenFOAM: The Open Source CFD Toolbox           |
|  \\    /   O peration     | Version:  v2106                                 |
|   \\  /    A nd           | Website:  www.openfoam.com                      |
|    \\/     M anipulation  |                                                 |
\*---------------------------------------------------------------------------*/
FoamFile
{
    version     2.0;
    format      ascii;
    arch        "LSB;label=32;scalar=64";
    class       volScalarField;
    location    "45";
    object      laplacianT;
}
// * * * * * * * * * * * * * * * * * * * * * * * * * * * * * * * * * * * * * //

dimensions      [0 -2 0 1 0 0 0];

internalField   nonuniform List<scalar> 
4000
(
39557.077
39556.42
39556.786
39556.623
39556.574
39556.561
39556.577
39556.608
39556.632
39556.615
39556.42
39556.513
39556.594
39556.452
39556.404
39556.395
39556.415
39556.454
39556.479
39556.448
39556.786
39556.594
39556.716
39556.578
39556.534
39556.528
39556.557
39556.609
39556.653
39556.59
39556.623
39556.452
39556.578
39556.443
39556.402
39556.401
39556.435
39556.496
39556.555
39556.515
39556.574
39556.404
39556.534
39556.402
39556.365
39556.368
39556.407
39556.473
39556.536
39556.499
39556.561
39556.395
39556.528
39556.401
39556.368
39556.376
39556.418
39556.488
39556.555
39556.519
39556.577
39556.415
39556.557
39556.435
39556.407
39556.418
39556.464
39556.536
39556.604
39556.568
39556.608
39556.454
39556.609
39556.496
39556.473
39556.488
39556.536
39556.608
39556.675
39556.638
39556.632
39556.479
39556.653
39556.555
39556.536
39556.555
39556.604
39556.675
39556.739
39556.696
39556.615
39556.448
39556.59
39556.515
39556.499
39556.519
39556.568
39556.638
39556.696
39556.641
-477.1751
-480.33898
-478.46004
-478.63872
-478.64405
-478.64377
-478.64535
-478.65107
-478.67217
-478.66135
-480.33898
-480.74924
-479.6968
-479.83379
-479.83707
-479.83789
-479.84562
-479.88108
-480.02182
-479.71061
-478.46004
-479.6968
-478.57216
-478.70247
-478.70516
-478.70492
-478.70847
-478.73614
-478.92295
-478.97132
-478.63872
-479.83379
-478.70247
-478.83215
-478.83501
-478.8352
-478.83868
-478.86041
-479.02141
-479.01828
-478.64405
-479.83707
-478.70516
-478.83501
-478.83805
-478.83854
-478.8429
-478.86664
-479.0301
-479.02514
-478.64377
-479.83789
-478.70492
-478.8352
-478.83854
-478.83913
-478.84359
-478.86756
-479.03162
-479.02717
-478.64535
-479.84562
-478.70847
-478.83868
-478.8429
-478.84359
-478.84818
-478.87229
-479.03662
-479.0327
-478.65107
-479.88108
-478.73614
-478.86041
-478.86664
-478.86756
-478.87229
-478.89668
-479.06183
-479.05972
-478.67217
-480.02182
-478.92295
-479.02141
-479.0301
-479.03162
-479.03662
-479.06183
-479.22984
-479.23304
-478.66135
-479.71061
-478.97132
-479.01828
-479.02514
-479.02717
-479.0327
-479.05972
-479.23304
-479.20074
-445.75544
-449.77551
-447.22237
-447.46223
-447.47223
-447.4731
-447.47961
-447.50781
-447.61929
-447.11436
-449.77551
-450.18419
-448.7195
-448.9072
-448.91399
-448.91555
-448.92978
-449.01535
-449.47034
-448.60432
-447.22237
-448.7195
-447.16781
-447.34655
-447.35251
-447.35246
-447.35832
-447.41911
-447.92861
-447.61169
-447.46223
-448.9072
-447.34655
-447.52432
-447.5305
-447.53127
-447.53767
-447.58953
-448.05917
-447.66961
-447.47223
-448.91399
-447.35251
-447.5305
-447.53688
-447.53802
-447.54572
-447.60045
-448.07304
-447.67917
-447.4731
-448.91555
-447.35246
-447.53127
-447.53802
-447.53927
-447.54712
-447.60224
-448.07582
-447.68247
-447.47961
-448.92978
-447.35832
-447.53767
-447.54572
-447.54712
-447.55516
-447.61059
-448.08493
-447.69314
-447.50781
-449.01535
-447.41911
-447.58953
-447.60045
-447.60224
-447.61059
-447.66693
-448.14418
-447.75983
-447.61929
-449.47034
-447.92861
-448.05917
-448.07304
-448.07582
-448.08493
-448.14418
-448.6322
-448.27618
-447.11436
-448.60432
-447.61169
-447.66961
-447.67917
-447.68247
-447.69314
-447.75983
-448.27618
-447.41402
-415.40439
-420.34481
-417.15706
-417.45296
-417.46735
-417.46899
-417.47965
-417.53696
-417.82932
-417.02572
-420.34481
-420.87599
-419.01545
-419.24988
-419.26006
-419.26195
-419.27955
-419.40689
-420.23716
-418.89649
-417.15706
-419.01545
-417.05422
-417.27757
-417.28674
-417.28684
-417.29347
-417.38253
-418.28493
-417.67516
-417.45296
-419.24988
-417.27757
-417.49965
-417.50907
-417.51026
-417.51795
-417.59474
-418.44411
-417.74368
-417.46735
-419.26006
-417.28674
-417.50907
-417.51869
-417.52034
-417.52976
-417.61015
-418.46274
-417.75583
-417.46899
-419.26195
-417.28684
-417.51026
-417.52034
-417.5221
-417.53171
-417.61263
-418.46655
-417.76014
-417.47965
-419.27955
-417.29347
-417.51795
-417.52976
-417.53171
-417.54156
-417.62293
-418.47815
-417.7747
-417.53696
-419.40689
-417.38253
-417.59474
-417.61015
-417.61263
-417.62293
-417.70599
-418.56733
-417.88296
-417.82932
-420.23716
-418.28493
-418.44411
-418.46274
-418.46655
-418.47815
-418.56733
-419.45618
-418.87953
-417.02572
-418.89649
-417.67516
-417.74368
-417.75583
-417.76014
-417.7747
-417.88296
-418.87953
-417.05876
-386.59317
-392.40465
-388.6114
-388.96068
-388.9793
-388.98155
-388.99476
-389.07358
-389.53651
-388.46559
-392.40465
-393.04907
-390.81024
-391.08923
-391.10276
-391.10519
-391.12567
-391.28796
-392.48302
-390.69079
-388.6114
-390.81024
-388.45771
-388.72359
-388.7359
-388.73628
-388.7433
-388.85423
-390.14147
-389.25329
-388.96068
-391.08923
-388.72359
-388.9879
-389.00049
-389.00222
-389.01077
-389.10598
-390.32782
-389.33199
-388.9793
-391.10276
-388.7359
-389.00049
-389.0133
-389.01558
-389.02628
-389.12575
-390.35102
-389.3467
-388.98155
-391.10519
-388.73628
-389.00222
-389.01558
-389.01795
-389.02889
-389.12902
-390.35588
-389.35198
-388.99476
-391.12567
-388.7433
-389.01077
-389.02628
-389.02889
-389.04008
-389.14073
-390.36919
-389.36921
-389.07358
-391.28796
-388.85423
-389.10598
-389.12575
-389.12902
-389.14073
-389.24348
-390.48052
-389.51099
-389.5365
-392.48302
-390.14147
-390.32782
-390.35102
-390.35588
-390.36919
-390.48052
-391.7614
-391.00567
-388.46559
-390.69079
-389.25329
-389.33199
-389.3467
-389.35198
-389.36921
-389.51099
-391.00567
-388.23293
-359.39582
-366.01227
-361.64768
-362.04782
-362.07057
-362.0736
-362.08957
-362.18866
-362.81542
-361.49638
-366.01227
-366.75045
-364.15493
-364.4764
-364.49319
-364.49628
-364.51985
-364.71527
-366.26327
-364.0505
-361.64768
-364.15493
-361.43341
-361.73983
-361.75521
-361.75598
-361.76366
-361.89482
-363.55471
-362.40986
-362.04782
-364.4764
-361.73983
-362.04439
-362.06008
-362.06246
-362.07214
-362.18419
-363.76695
-362.49826
-362.07057
-364.49319
-361.75521
-362.06008
-362.07601
-362.079
-362.09124
-362.20817
-363.79457
-362.51548
-362.0736
-364.49628
-361.75598
-362.06246
-362.079
-362.08209
-362.09462
-362.21231
-363.80057
-362.52182
-362.08957
-364.51985
-361.76366
-362.07214
-362.09124
-362.09462
-362.10743
-362.2257
-363.81581
-362.5417
-362.18866
-364.71527
-361.89482
-362.18419
-362.20817
-362.21231
-362.2257
-362.34643
-363.94706
-362.71322
-362.81542
-366.26327
-363.55471
-363.76695
-363.79457
-363.80057
-363.81581
-363.94706
-365.60569
-364.6971
-361.49638
-364.0505
-362.40986
-362.49826
-362.51548
-362.52182
-362.5417
-362.71322
-364.6971
-361.01059
-333.87121
-341.22321
-336.32488
-336.77311
-336.79982
-336.80364
-336.82235
-336.94091
-337.72532
-336.17761
-341.22321
-342.03637
-339.10794
-339.46959
-339.48953
-339.49327
-339.51985
-339.74671
-341.63346
-339.03412
-336.32488
-339.10794
-336.04199
-336.38676
-336.40509
-336.40628
-336.41462
-336.56473
-338.58194
-337.20448
-336.77311
-339.46959
-336.38676
-336.72941
-336.74808
-336.75111
-336.76193
-336.88965
-338.81865
-337.30204
-336.79982
-339.48953
-336.40509
-336.74808
-336.767
-336.77071
-336.7845
-336.91767
-338.85051
-337.32168
-336.80364
-339.49327
-336.40628
-336.75111
-336.77071
-336.77452
-336.78863
-336.92269
-338.85764
-337.32909
-336.82235
-339.51985
-336.41462
-336.76193
-336.7845
-336.78863
-336.80307
-336.93777
-338.87484
-337.35161
-336.94091
-339.74671
-336.56473
-336.88965
-336.91767
-336.92269
-336.93777
-337.07531
-339.02472
-337.55071
-337.72532
-341.63346
-338.58194
-338.81865
-338.85051
-338.85764
-338.87484
-339.02472
-341.04513
-340.00691
-336.17761
-339.03412
-337.20448
-337.30204
-337.32168
-337.32909
-337.35161
-337.55071
-340.00691
-335.45573
-310.07268
-318.08805
-312.69644
-313.18966
-313.22017
-313.22476
-313.24609
-313.38319
-314.31829
-312.56191
-318.08805
-318.95809
-315.72224
-316.12153
-316.14447
-316.14886
-316.17825
-316.43469
-318.64383
-315.69317
-312.69644
-315.72224
-312.33822
-312.7189
-312.74007
-312.74168
-312.75064
-312.91835
-315.27514
-313.68966
-313.18966
-316.12153
-312.7189
-313.09722
-313.11875
-313.12243
-313.13434
-313.27657
-315.53473
-313.79576
-313.22017
-316.14447
-312.74007
-313.11875
-313.14055
-313.14496
-313.16022
-313.30844
-315.57064
-313.8177
-313.22476
-316.14886
-312.74168
-313.12243
-313.14496
-313.14947
-313.1651
-313.31431
-315.57886
-313.82615
-313.24609
-316.17825
-312.75064
-313.13434
-313.16022
-313.1651
-313.18107
-313.33101
-315.59793
-313.8512
-313.38319
-316.43469
-312.91835
-313.27657
-313.30844
-313.31431
-313.33101
-313.48412
-315.76515
-314.07606
-314.31829
-318.64383
-315.27514
-315.53473
-315.57064
-315.57886
-315.59793
-315.76515
-318.1294
-316.98361
-312.56191
-315.69317
-313.68966
-313.79576
-313.8177
-313.82615
-313.8512
-314.07606
-316.98361
-311.62228
-288.0437
-296.64809
-290.80618
-291.34105
-291.37512
-291.38048
-291.40429
-291.55885
-292.6368
-290.69237
-296.64809
-297.55772
-294.04143
-294.47559
-294.50137
-294.50639
-294.53839
-294.82237
-297.3356
-294.06976
-290.80618
-294.04143
-290.36724
-290.7812
-290.80506
-290.80708
-290.81661
-291.0005
-293.67712
-291.90837
-291.34105
-294.47559
-290.7812
-291.19256
-291.2168
-291.22112
-291.23404
-291.38956
-293.95785
-292.02234
-291.37512
-294.50137
-290.80506
-291.2168
-291.24131
-291.24642
-291.26305
-291.42506
-293.99757
-292.04645
-291.38048
-294.50639
-290.80708
-291.22112
-291.24642
-291.25161
-291.26865
-291.43175
-294.00683
-292.05589
-291.40429
-294.53839
-290.81661
-291.23404
-291.26305
-291.26865
-291.28606
-291.44995
-294.02765
-292.08332
-291.55885
-294.82237
-291.0005
-291.38956
-291.42506
-291.43175
-291.44995
-291.61736
-294.21084
-292.33206
-292.6368
-297.3356
-293.67712
-293.95785
-293.99757
-294.00683
-294.02765
-294.21084
-296.89906
-295.66705
-290.69237
-294.06976
-291.90837
-292.02234
-292.04645
-292.05589
-292.08332
-292.33206
-295.66705
-289.55397
-267.81744
-276.93497
-270.68792
-271.26079
-271.2982
-271.30429
-271.33041
-271.50125
-272.71338
-270.602
-276.93497
-277.86784
-274.09935
-274.56539
-274.59383
-274.59945
-274.63382
-274.94315
-277.74045
-274.19618
-270.68792
-274.09935
-270.16423
-270.60862
-270.635
-270.63743
-270.64745
-270.84601
-273.82089
-271.89362
-271.26079
-274.56539
-270.60862
-271.05018
-271.07695
-271.08189
-271.09574
-271.26327
-274.12091
-272.01473
-271.2982
-274.59383
-270.635
-271.07695
-271.104
-271.10978
-271.12768
-271.30217
-274.16416
-272.04086
-271.30429
-274.59945
-270.63743
-271.08189
-271.10978
-271.11564
-271.13398
-271.30964
-274.17443
-272.05124
-271.33041
-274.63382
-270.64745
-271.09574
-271.12768
-271.13398
-271.1527
-271.32922
-274.19685
-272.08087
-271.50125
-274.94315
-270.84601
-271.26327
-271.30217
-271.30964
-271.32922
-271.50957
-274.39453
-272.35151
-272.71338
-277.74045
-273.82089
-274.12091
-274.16416
-274.17443
-274.19685
-274.39453
-277.38504
-276.08746
-270.602
-274.19618
-271.89362
-272.01473
-272.04086
-272.05124
-272.08087
-272.35151
-276.08746
-269.28422
-249.41677
-258.97057
-252.36534
-252.97237
-253.01286
-253.01964
-253.0479
-253.23373
-254.57062
-252.31365
-258.97057
-259.91141
-255.92
-256.41474
-256.44565
-256.45183
-256.48833
-256.82068
-259.88042
-256.0948
-252.36534
-255.92
-251.75429
-252.22607
-252.25478
-252.25762
-252.26805
-252.47973
-255.72966
-253.66838
-252.97237
-256.41474
-252.22607
-252.69483
-252.72394
-252.72948
-252.74415
-252.92236
-256.04697
-253.79586
-253.01286
-256.44565
-252.25478
-252.72394
-252.75335
-252.75976
-252.7788
-252.96438
-256.09348
-253.82384
-253.01964
-256.45183
-252.25762
-252.72948
-252.75976
-252.76625
-252.78576
-252.9726
-256.10468
-253.8351
-253.0479
-256.48833
-252.26805
-252.74415
-252.7788
-252.78576
-252.80568
-252.99343
-256.12856
-253.86672
-253.23373
-256.82068
-252.47973
-252.92236
-252.96438
-252.9726
-252.99343
-253.18529
-256.33919
-254.15719
-254.57062
-259.88042
-255.72966
-256.04697
-256.09348
-256.10468
-256.12856
-256.33919
-259.60866
-258.26532
-252.31365
-256.0948
-253.66838
-253.79586
-253.82384
-253.8351
-253.86672
-254.15719
-258.26532
-250.83615
-232.8543
-242.7671
-235.85214
-236.48927
-236.53255
-236.53999
-236.57019
-236.76965
-238.22117
-235.84012
-242.7671
-243.70181
-239.51758
-240.03768
-240.07084
-240.07755
-240.11592
-240.46883
-243.76799
-239.77813
-235.85214
-239.51758
-235.1525
-235.64848
-235.67932
-235.68255
-235.69332
-235.91649
-239.41683
-237.24564
-236.48927
-240.03768
-235.64848
-236.14125
-236.17251
-236.17861
-236.19402
-236.38153
-239.74934
-237.37867
-236.53255
-240.07084
-235.67932
-236.17251
-236.20406
-236.21108
-236.23113
-236.42638
-239.7988
-237.40832
-236.53999
-240.07755
-235.68255
-236.17861
-236.21108
-236.21816
-236.2387
-236.4353
-239.81087
-237.4204
-236.57019
-240.11592
-235.69332
-236.19402
-236.23113
-236.2387
-236.25968
-236.45723
-239.83603
-237.45379
-236.76965
-240.46883
-235.91649
-236.38153
-236.42638
-236.4353
-236.45723
-236.65915
-240.05801
-237.76191
-238.22117
-243.76799
-239.41683
-239.74934
-239.7988
-239.81087
-239.83603
-240.05801
-243.58164
-242.21141
-235.84012
-239.77813
-237.24564
-237.37867
-237.40832
-237.4204
-237.45379
-237.76191
-242.21141
-234.2226
-218.13252
-228.3272
-221.15205
-221.81506
-221.86084
-221.86889
-221.90082
-222.11247
-223.66788
-221.18426
-228.3272
-229.24296
-224.8966
-225.43859
-225.47376
-225.48096
-225.52094
-225.89186
-229.40619
-225.24893
-221.15205
-224.8966
-220.36399
-220.88085
-220.91361
-220.91722
-220.92825
-221.16123
-224.88611
-222.6285
-221.81506
-225.43859
-220.88085
-221.39434
-221.42753
-221.43416
-221.45019
-221.64559
-225.23163
-222.76624
-221.86084
-225.47376
-220.91361
-221.42753
-221.46102
-221.46859
-221.48951
-221.69298
-225.28372
-222.79737
-221.86889
-225.48096
-220.91722
-221.43416
-221.46859
-221.47621
-221.49766
-221.70253
-225.29658
-222.81018
-221.90082
-225.52094
-220.92825
-221.45019
-221.48951
-221.49766
-221.51955
-221.72542
-225.32286
-222.84512
-222.11247
-225.89186
-221.16123
-221.64559
-221.69298
-221.70253
-221.72542
-221.93589
-225.55454
-223.16862
-223.66788
-229.40619
-224.88611
-225.23163
-225.28372
-225.29658
-225.32286
-225.55454
-229.30626
-227.92688
-221.18426
-225.24893
-222.6285
-222.76624
-222.79737
-222.81018
-222.84512
-223.16862
-227.92688
-219.44634
-205.24404
-215.64413
-208.25912
-208.94363
-208.9916
-209.0002
-209.03365
-209.25599
-210.90403
-208.33913
-215.64413
-216.52945
-212.05206
-212.61232
-212.64928
-212.65692
-212.69823
-213.08453
-216.78874
-212.50044
-208.25912
-212.05206
-207.38417
-207.91848
-207.95294
-207.9569
-207.96811
-208.20921
-212.13169
-209.8104
-208.94363
-212.61232
-207.91848
-208.44928
-208.48418
-208.49129
-208.50784
-208.70969
-212.48798
-209.95197
-208.9916
-212.64928
-207.95294
-208.48418
-208.51936
-208.52744
-208.5491
-208.7593
-212.54235
-209.98438
-209.0002
-212.65692
-207.9569
-208.49129
-208.52744
-208.53556
-208.55777
-208.76943
-212.55591
-209.99784
-209.03365
-212.69823
-207.96811
-208.50784
-208.5491
-208.55777
-208.58043
-208.79312
-212.58314
-210.03408
-209.25599
-213.08453
-208.20921
-208.70969
-208.7593
-208.76943
-208.79312
-209.0106
-212.82285
-210.37066
-210.90403
-216.78874
-212.13169
-212.48798
-212.54235
-212.55591
-212.58314
-212.82285
-216.77552
-215.40351
-208.33913
-212.50044
-209.8104
-209.95197
-209.98438
-209.99784
-210.03408
-210.37066
-215.40351
-206.50021
-194.1718
-204.70203
-197.15787
-197.85941
-197.90926
-197.91836
-197.95309
-198.18457
-199.91353
-197.28833
-204.70203
-205.54683
-200.96964
-201.54451
-201.58299
-201.59103
-201.63338
-202.03237
-205.90031
-201.51657
-197.15787
-200.96964
-196.19893
-196.74717
-196.7831
-196.78739
-196.7987
-197.0462
-201.1385
-198.77535
-197.85941
-201.54451
-196.74717
-197.2918
-197.32816
-197.33571
-197.35267
-197.55954
-201.50324
-198.91984
-197.90926
-201.58299
-196.7831
-197.32816
-197.36481
-197.37335
-197.3956
-197.61103
-201.55954
-198.95332
-197.91836
-201.59103
-196.78739
-197.33571
-197.37335
-197.38191
-197.40472
-197.62167
-201.57373
-198.96735
-197.95309
-201.63338
-196.7987
-197.35267
-197.3956
-197.40472
-197.428
-197.64601
-201.60171
-199.00466
-198.18457
-202.03237
-197.0462
-197.55954
-197.61103
-197.62167
-197.64601
-197.86896
-201.84775
-199.35193
-199.91353
-205.90031
-201.1385
-201.50324
-201.55954
-201.57373
-201.60171
-201.84775
-205.97336
-204.62392
-197.28833
-201.51657
-198.77535
-198.91984
-198.95332
-198.96735
-199.00466
-199.35193
-204.62392
-195.36742
-184.8895
-195.4762
-187.82369
-188.53773
-188.58911
-188.59864
-188.63443
-188.87346
-190.67129
-188.0063
-195.4762
-196.27184
-191.62606
-192.21178
-192.25154
-192.25991
-192.30303
-192.71198
-196.71685
-192.27227
-187.82369
-191.62606
-186.78496
-187.34356
-187.38071
-187.3853
-187.39664
-187.64881
-191.8825
-189.49827
-188.53773
-192.21178
-187.34356
-187.89845
-187.93604
-187.94399
-187.96124
-188.17167
-192.25336
-189.64477
-188.58911
-192.25154
-187.38071
-187.93604
-187.97392
-187.98285
-188.00555
-188.22471
-192.31121
-189.6791
-188.59864
-192.25991
-187.3853
-187.94399
-187.98285
-187.99181
-188.01507
-188.23579
-192.32593
-189.69361
-188.63443
-192.30303
-187.39664
-187.96124
-188.00555
-188.01507
-188.03881
-188.26061
-192.35448
-189.73173
-188.87346
-192.71198
-187.64881
-188.17167
-188.22471
-188.23579
-188.26061
-188.48748
-192.60515
-190.0873
-190.67129
-196.71685
-191.8825
-192.25336
-192.31121
-192.32593
-192.35448
-192.60515
-196.87501
-195.56193
-188.0063
-192.27227
-189.49827
-189.64477
-189.6791
-189.69361
-189.73173
-190.0873
-195.56193
-186.02186
-177.36191
-187.93352
-180.2232
-180.94511
-180.9977
-181.00761
-181.04421
-181.28917
-183.14354
-180.45868
-187.93352
-188.67281
-183.98939
-184.58219
-184.62296
-184.63162
-184.6752
-185.09137
-189.20588
-184.73388
-180.2232
-183.98939
-179.1101
-179.67545
-179.71358
-179.71844
-179.72973
-179.98486
-184.33105
-181.94534
-180.94511
-184.58219
-179.67545
-180.23702
-180.27559
-180.28387
-180.30131
-180.51386
-184.70564
-182.09292
-180.9977
-184.62296
-179.71358
-180.27559
-180.31443
-180.32371
-180.3467
-180.56811
-184.76469
-182.12788
-181.00761
-184.63162
-179.71844
-180.28387
-180.32371
-180.333
-180.35657
-180.57955
-184.77984
-182.14277
-181.04421
-184.6752
-179.72973
-180.30131
-180.3467
-180.35657
-180.38061
-180.60469
-184.80878
-182.18146
-181.28917
-185.09137
-179.98486
-180.51386
-180.56811
-180.57955
-180.60469
-180.83394
-185.06237
-182.54292
-183.14354
-189.20588
-184.33105
-184.70564
-184.76469
-184.77984
-184.80878
-185.06237
-189.44734
-188.18293
-180.45868
-184.73388
-181.94534
-182.09292
-182.12788
-182.14277
-182.18146
-182.54292
-188.18293
-178.42856
-171.54535
-182.03279
-174.31461
-175.0398
-175.09325
-175.10347
-175.14064
-175.3899
-177.2883
-174.60276
-182.03279
-182.71002
-178.0195
-178.61557
-178.65709
-178.66597
-178.70974
-179.13036
-183.32695
-178.85956
-174.31461
-178.0195
-173.13376
-173.70224
-173.7411
-173.7462
-173.75736
-174.01375
-178.44332
-176.07444
-175.0398
-178.61557
-173.70224
-174.26689
-174.30619
-174.31476
-174.33226
-174.54552
-178.81926
-176.22217
-175.09325
-178.65709
-173.7411
-174.30619
-174.34575
-174.35531
-174.37845
-174.60062
-178.87912
-176.25755
-175.10347
-178.66597
-173.7462
-174.31476
-174.35531
-174.36487
-174.38859
-174.61235
-178.8946
-176.27272
-175.14064
-178.70974
-173.75736
-174.33226
-174.37845
-174.38859
-174.41278
-174.63766
-178.92374
-176.31172
-175.3899
-179.13036
-174.01375
-174.54552
-174.60062
-174.61235
-174.63766
-174.86776
-179.17856
-176.67667
-177.2883
-183.32695
-178.44332
-178.81926
-178.87912
-178.8946
-178.92374
-179.17856
-183.64923
-182.44427
-174.60276
-178.85956
-176.07444
-176.22217
-176.25755
-176.27272
-176.31172
-176.67667
-182.44427
-172.54405
-167.3882
-177.72526
-170.04829
-170.77215
-170.82613
-170.83658
-170.87408
-171.126
-173.05582
-170.38799
-177.72526
-178.33617
-173.66844
-174.264
-174.30601
-174.31505
-174.35874
-174.78106
-179.03206
-174.59974
-170.04829
-173.66844
-168.80739
-169.37539
-169.41474
-169.42004
-169.431
-169.68697
-174.17073
-171.83566
-170.77215
-174.264
-169.37539
-169.93954
-169.97932
-169.98811
-170.00557
-170.21814
-174.54565
-171.9826
-170.82613
-174.30601
-169.41474
-169.97932
-170.01934
-170.02912
-170.05225
-170.27373
-174.60593
-172.01817
-170.83658
-174.31505
-169.42004
-169.98811
-170.02912
-170.03888
-170.0626
-170.28569
-174.62165
-172.03353
-170.87408
-174.35874
-169.431
-170.00557
-170.05225
-170.0626
-170.08679
-170.31099
-174.6508
-172.07259
-171.126
-174.78106
-169.68697
-170.21814
-170.27373
-170.28569
-170.31099
-170.54044
-174.90519
-172.43862
-173.05582
-179.03206
-174.17073
-174.54565
-174.60593
-174.62165
-174.6508
-174.90519
-179.43206
-178.29577
-170.38799
-174.59974
-171.83566
-171.9826
-172.01817
-172.03353
-172.07259
-172.43862
-178.29577
-168.31691
-164.83141
-174.95507
-167.36721
-168.08519
-168.13934
-168.14997
-168.18755
-168.44049
-170.38911
-167.75646
-174.95507
-175.49687
-170.88103
-171.47234
-171.51456
-171.52371
-171.56702
-171.98834
-176.26616
-171.89767
-167.36721
-170.88103
-166.07498
-166.63892
-166.6785
-166.68398
-166.69467
-166.94859
-171.45747
-169.17174
-168.08519
-171.47234
-166.63892
-167.19903
-167.23902
-167.24799
-167.26529
-167.47582
-171.82902
-169.31698
-168.13934
-171.51456
-166.6785
-167.23902
-167.27926
-167.28919
-167.31217
-167.53156
-171.88934
-169.35251
-168.14997
-171.52371
-166.68398
-167.24799
-167.28919
-167.2991
-167.32267
-167.54365
-171.90519
-169.36796
-168.18755
-171.56702
-166.69467
-167.26529
-167.31217
-167.32267
-167.3467
-167.56879
-171.93417
-169.40683
-168.44049
-171.98834
-166.94859
-167.47582
-167.53156
-167.54365
-167.56879
-167.79612
-172.18651
-169.7716
-170.38911
-176.26616
-171.45747
-171.82902
-171.88934
-171.90519
-171.93417
-172.18651
-176.74021
-175.68022
-167.75646
-171.89767
-169.17174
-169.31698
-169.35251
-169.36796
-169.40683
-169.7716
-175.68022
-165.68831
-163.80907
-173.65985
-166.20753
-166.91514
-166.96912
-166.97985
-167.01728
-167.26963
-169.22449
-166.64348
-173.65985
-174.13113
-169.59533
-170.17869
-170.22086
-170.23006
-170.27273
-170.69038
-174.96768
-170.68993
-166.20753
-169.59533
-164.8736
-165.42997
-165.46954
-165.47514
-165.48551
-165.73578
-170.24103
-168.01869
-166.91514
-170.17869
-165.42997
-165.98253
-166.0225
-166.03158
-166.04861
-166.25578
-170.60689
-168.16132
-166.96912
-170.22086
-165.46954
-166.0225
-166.06269
-166.07271
-166.0954
-166.31131
-170.66687
-168.19658
-166.97985
-170.23006
-165.47514
-166.03158
-166.07271
-166.0827
-166.10597
-166.32347
-170.68276
-168.21202
-167.01728
-170.27273
-165.48551
-166.04861
-166.0954
-166.10597
-166.1297
-166.34828
-170.71139
-168.25046
-167.26963
-170.69038
-165.73578
-166.25578
-166.31131
-166.32347
-166.34828
-166.57208
-170.96008
-168.61166
-169.22449
-174.96768
-170.24103
-170.60689
-170.66687
-170.68276
-170.71139
-170.96008
-175.51155
-174.53392
-166.64348
-170.68993
-168.01869
-168.16132
-168.19658
-168.21202
-168.25046
-168.61166
-174.53392
-164.59252
-164.24904
-173.7712
-166.49914
-167.192
-167.24549
-167.25625
-167.29328
-167.54344
-169.49214
-166.97815
-173.7712
-174.17192
-169.74318
-170.315
-170.35685
-170.36604
-170.4078
-170.8192
-175.06905
-170.90701
-166.49914
-169.74318
-165.13397
-165.67933
-165.71863
-165.72433
-165.7343
-165.97941
-170.45276
-168.30633
-167.192
-170.315
-165.67933
-166.22093
-166.26062
-166.26975
-166.28642
-166.48896
-170.81066
-168.44547
-167.24549
-170.35685
-165.71863
-166.26062
-166.30052
-166.31057
-166.33282
-166.54394
-170.86994
-168.48024
-167.25625
-170.36604
-165.72433
-166.26975
-166.31057
-166.32056
-166.34339
-166.55608
-170.88576
-168.49557
-167.29328
-170.4078
-165.7343
-166.28642
-166.33282
-166.34339
-166.36667
-166.58042
-170.91385
-168.53334
-167.54344
-170.8192
-165.97941
-166.48896
-166.54394
-166.55608
-166.58042
-166.79931
-171.15738
-168.88872
-169.49214
-175.06905
-170.45276
-170.81066
-170.86994
-170.88576
-170.91385
-171.15738
-175.67803
-174.78726
-166.97815
-170.90701
-168.30633
-168.44547
-168.48024
-168.49557
-168.53334
-168.88872
-174.78726
-164.95759
-166.07351
-175.21536
-168.16632
-168.84016
-168.89283
-168.90355
-168.93995
-169.18637
-171.11672
-168.684
-175.21536
-175.54678
-171.25086
-171.80763
-171.84891
-171.85803
-171.89863
-172.30125
-176.49732
-172.4739
-168.16632
-171.25086
-166.78106
-167.31207
-167.35087
-167.35662
-167.36614
-167.60461
-172.01846
-169.95892
-168.84016
-171.80763
-167.31207
-167.83939
-167.87856
-167.88768
-167.90388
-168.10058
-172.3662
-170.09369
-168.89283
-171.84891
-167.35087
-167.87856
-167.91792
-167.92793
-167.94962
-168.15468
-172.4244
-170.12776
-168.90355
-171.85803
-167.35662
-167.88768
-167.92793
-167.93787
-167.96012
-168.16673
-172.44005
-170.14288
-168.93995
-171.89863
-167.36614
-167.90388
-167.94962
-167.96012
-167.9828
-168.19044
-172.46744
-170.17975
-169.18637
-172.30125
-167.60461
-168.10058
-168.15468
-168.16673
-168.19044
-168.40312
-172.70434
-170.52713
-171.11672
-176.49732
-172.01846
-172.3662
-172.4244
-172.44005
-172.46744
-172.70434
-177.16622
-176.36528
-168.684
-172.4739
-169.95892
-170.09369
-170.12776
-170.14288
-170.17975
-170.52713
-176.36528
-166.70591
-169.19971
-177.91372
-171.1283
-171.77902
-171.83054
-171.84115
-171.8767
-172.11786
-174.01797
-171.67958
-177.91372
-178.17833
-174.03963
-174.57797
-174.61843
-174.62742
-174.66661
-175.05803
-179.17472
-175.31072
-171.1283
-174.03963
-169.73469
-170.24813
-170.28619
-170.29196
-170.30098
-170.53142
-174.85897
-172.89573
-171.77902
-174.57797
-170.24813
-170.75798
-170.79639
-170.80544
-170.82108
-171.0108
-175.19442
-173.0253
-171.83054
-174.61843
-170.28619
-170.79639
-170.83497
-170.84488
-170.86586
-171.06367
-175.25119
-173.05846
-171.84115
-174.62742
-170.29196
-170.80544
-170.84488
-170.8547
-170.87624
-171.07555
-175.26657
-173.07328
-171.8767
-174.66661
-170.30098
-170.82108
-170.86586
-170.87624
-170.89819
-171.0985
-175.29309
-173.10901
-172.11786
-175.05803
-170.53142
-171.0108
-171.06367
-171.07555
-171.0985
-171.30371
-175.52196
-173.44633
-174.01797
-179.17472
-174.85897
-175.19442
-175.25119
-175.26657
-175.29309
-175.52196
-179.89796
-179.18831
-171.67958
-175.31072
-172.89573
-173.0253
-173.05846
-173.07328
-173.10901
-173.44633
-179.18831
-169.75486
-173.5405
-181.78352
-175.29992
-175.92358
-175.97365
-175.98408
-176.01856
-176.25301
-178.11134
-175.87912
-181.78352
-181.98493
-178.02633
-178.54302
-178.58242
-178.59121
-178.62876
-179.00668
-183.01927
-179.33332
-175.29992
-178.02633
-173.91018
-174.40297
-174.44006
-174.44581
-174.45428
-174.67537
-178.89079
-177.03173
-175.92358
-178.54302
-174.40297
-174.89229
-174.9297
-174.93863
-174.9536
-175.13527
-179.21193
-177.15531
-175.97365
-178.58242
-174.44006
-174.9297
-174.96728
-174.97701
-174.99717
-175.1866
-179.26691
-177.18734
-175.98408
-178.59121
-174.44581
-174.93863
-174.97701
-174.98666
-175.00735
-175.19823
-179.28193
-177.20176
-176.01856
-178.62876
-174.45428
-174.9536
-174.99717
-175.00735
-175.02843
-175.22028
-179.30742
-177.23615
-176.25301
-179.00668
-174.67537
-175.13527
-175.1866
-175.19823
-175.22028
-175.41685
-179.52694
-177.56142
-178.11134
-183.01927
-178.89079
-179.21193
-179.26691
-179.28193
-179.30742
-179.52694
-183.7909
-183.17257
-175.87912
-179.33332
-177.03173
-177.15531
-177.18734
-177.20176
-177.23615
-177.56142
-183.17257
-174.01748
-179.00504
-186.73839
-180.59227
-181.18513
-181.23344
-181.24363
-181.27682
-181.50316
-183.30862
-181.19315
-186.73839
-186.88129
-183.12408
-183.61603
-183.65413
-183.66268
-183.69837
-184.06058
-187.94536
-184.45393
-180.59227
-183.12408
-179.21897
-179.68817
-179.72407
-179.72976
-179.73763
-179.94815
-184.02672
-182.27817
-181.18513
-183.61603
-179.68817
-180.15405
-180.19025
-180.19899
-180.21322
-180.38582
-184.33161
-182.39499
-181.23344
-183.65413
-179.72407
-180.19025
-180.22659
-180.23609
-180.2553
-180.43531
-184.38447
-182.4257
-181.24363
-183.66268
-179.72976
-180.19899
-180.23609
-180.2455
-180.26522
-180.44661
-184.39902
-182.43964
-181.27682
-183.69837
-179.73763
-180.21322
-180.2553
-180.26522
-180.28531
-180.46763
-184.42333
-182.47248
-181.50316
-184.06058
-179.94815
-180.38582
-180.43531
-180.44661
-180.46763
-180.65447
-184.63228
-182.78381
-183.30862
-187.94536
-184.02672
-184.33161
-184.38447
-184.39902
-184.42333
-184.63228
-188.75914
-188.2308
-181.19315
-184.45393
-182.27817
-182.39499
-182.4257
-182.43964
-182.47248
-182.78381
-188.2308
-179.40309
-185.49944
-192.689
-186.91329
-187.47184
-187.51812
-187.52799
-187.55969
-187.77659
-189.51857
-187.52914
-192.689
-192.77904
-189.2428
-189.70713
-189.7437
-189.75195
-189.78557
-190.13
-193.86443
-190.58174
-186.91329
-189.2428
-185.56923
-186.0121
-186.0466
-186.05218
-186.05942
-186.25821
-190.17644
-188.54326
-187.47184
-189.70713
-186.0121
-186.4518
-186.48657
-186.49506
-186.50845
-186.67107
-190.46326
-188.65261
-187.51812
-189.7437
-186.0466
-186.48657
-186.52146
-186.53066
-186.54881
-186.71842
-190.51368
-188.6818
-187.52799
-189.75195
-186.05218
-186.49506
-186.53066
-186.53976
-186.5584
-186.72933
-190.52768
-188.69516
-187.55969
-189.78557
-186.05942
-186.50845
-186.54881
-186.5584
-186.57739
-186.74918
-190.55066
-188.72626
-187.77659
-190.13
-186.25821
-186.67107
-186.71842
-186.72933
-186.74918
-186.92529
-190.74789
-189.0219
-189.51857