/*--------------------------------*- C++ -*----------------------------------*\
| =========                 |                                                 |
| \\      /  F ield         | OpenFOAM: The Open Source CFD Toolbox           |
|  \\    /   O peration     | Version:  v2106                                 |
|   \\  /    A nd           | Website:  www.openfoam.com                      |
|    \\/     M anipulation  |                                                 |
\*---------------------------------------------------------------------------*/
FoamFile
{
    version     2.0;
    format      ascii;
    arch        "LSB;label=32;scalar=64";
    class       volScalarField;
    location    "45";
    object      T;
}
// * * * * * * * * * * * * * * * * * * * * * * * * * * * * * * * * * * * * * //

dimensions      [0 0 0 1 0 0 0];

internalField   nonuniform List<scalar> 
4000
(
275.07187
275.07189
275.07188
275.07187
275.07187
275.07187
275.07187
275.07187
275.07187
275.07187
275.07189
275.0719
275.07189
275.07188
275.07188
275.07188
275.07188
275.07188
275.07188
275.07188
275.07188
275.07189
275.07187
275.07187
275.07187
275.07187
275.07187
275.07187
275.07187
275.07188
275.07187
275.07188
275.07187
275.07186
275.07186
275.07186
275.07186
275.07187
275.07187
275.07187
275.07187
275.07188
275.07187
275.07186
275.07186
275.07186
275.07186
275.07187
275.07187
275.07187
275.07187
275.07188
275.07187
275.07186
275.07186
275.07186
275.07186
275.07187
275.07187
275.07187
275.07187
275.07188
275.07187
275.07186
275.07186
275.07186
275.07187
275.07187
275.07187
275.07188
275.07187
275.07188
275.07187
275.07187
275.07187
275.07187
275.07187
275.07187
275.07188
275.07188
275.07187
275.07188
275.07187
275.07187
275.07187
275.07187
275.07187
275.07188
275.07188
275.07189
275.07187
275.07188
275.07188
275.07187
275.07187
275.07187
275.07188
275.07188
275.07189
275.07189
283.17127
283.17136
283.1713
283.17128
283.17126
283.17126
283.17127
283.17127
283.17128
283.17128
283.17136
283.17138
283.17133
283.1713
283.17129
283.17129
283.1713
283.17131
283.17132
283.17131
283.1713
283.17133
283.17128
283.17125
283.17124
283.17124
283.17125
283.17126
283.17128
283.17129
283.17128
283.1713
283.17125
283.17123
283.17122
283.17122
283.17123
283.17125
283.17127
283.17127
283.17126
283.17129
283.17124
283.17122
283.17121
283.17121
283.17122
283.17124
283.17126
283.17127
283.17126
283.17129
283.17124
283.17122
283.17121
283.17122
283.17123
283.17125
283.17127
283.17128
283.17127
283.1713
283.17125
283.17123
283.17122
283.17123
283.17124
283.17126
283.17128
283.17129
283.17127
283.17131
283.17126
283.17125
283.17124
283.17125
283.17126
283.17128
283.1713
283.17131
283.17128
283.17132
283.17128
283.17127
283.17126
283.17127
283.17128
283.1713
283.17132
283.17133
283.17128
283.17131
283.17129
283.17127
283.17127
283.17128
283.17129
283.17131
283.17133
283.17133
291.22279
291.2229
291.22282
291.22278
291.22275
291.22275
291.22276
291.22278
291.22279
291.22277
291.2229
291.22293
291.22285
291.22281
291.22279
291.22279
291.2228
291.22282
291.22285
291.22283
291.22282
291.22285
291.22277
291.22273
291.22271
291.22271
291.22273
291.22275
291.22279
291.22279
291.22278
291.22281
291.22273
291.22269
291.22267
291.22268
291.22269
291.22273
291.22277
291.22277
291.22275
291.22279
291.22271
291.22267
291.22266
291.22266
291.22268
291.22272
291.22276
291.22276
291.22275
291.22279
291.22271
291.22268
291.22266
291.22267
291.22269
291.22273
291.22277
291.22278
291.22276
291.2228
291.22273
291.22269
291.22268
291.22269
291.22271
291.22275
291.2228
291.2228
291.22278
291.22282
291.22275
291.22273
291.22272
291.22273
291.22275
291.22279
291.22283
291.22284
291.22279
291.22285
291.22279
291.22277
291.22276
291.22277
291.2228
291.22283
291.22288
291.22288
291.22277
291.22283
291.22279
291.22277
291.22276
291.22278
291.2228
291.22284
291.22288
291.22286
299.22951
299.22964
299.22953
299.22948
299.22945
299.22944
299.22946
299.22949
299.22951
299.22949
299.22964
299.22967
299.22957
299.22951
299.22949
299.22948
299.2295
299.22954
299.22959
299.22956
299.22953
299.22957
299.22946
299.22941
299.22939
299.22939
299.22941
299.22946
299.22952
299.22951
299.22948
299.22951
299.22941
299.22936
299.22934
299.22934
299.22937
299.22942
299.22949
299.22948
299.22945
299.22949
299.22939
299.22934
299.22932
299.22932
299.22935
299.22941
299.22948
299.22948
299.22944
299.22948
299.22939
299.22934
299.22932
299.22933
299.22937
299.22942
299.22949
299.2295
299.22946
299.2295
299.22941
299.22937
299.22935
299.22937
299.2294
299.22946
299.22953
299.22953
299.22949
299.22954
299.22946
299.22942
299.22941
299.22942
299.22946
299.22952
299.22959
299.22959
299.22951
299.22959
299.22952
299.22949
299.22948
299.22949
299.22953
299.22959
299.22966
299.22965
299.22949
299.22956
299.22951
299.22948
299.22948
299.2295
299.22953
299.22959
299.22965
299.22961
307.19442
307.19457
307.19443
307.19437
307.19433
307.19433
307.19435
307.1944
307.19444
307.1944
307.19457
307.19461
307.19447
307.19441
307.19438
307.19438
307.19441
307.19446
307.19452
307.19448
307.19443
307.19447
307.19435
307.19428
307.19425
307.19426
307.19429
307.19435
307.19444
307.19443
307.19437
307.19441
307.19428
307.19422
307.19419
307.1942
307.19424
307.19431
307.1944
307.1944
307.19433
307.19438
307.19425
307.19419
307.19417
307.19418
307.19422
307.1943
307.1944
307.19439
307.19433
307.19438
307.19426
307.1942
307.19418
307.1942
307.19424
307.19432
307.19442
307.19442
307.19435
307.19441
307.19429
307.19424
307.19422
307.19424
307.19429
307.19437
307.19447
307.19447
307.1944
307.19446
307.19435
307.19431
307.1943
307.19432
307.19437
307.19445
307.19455
307.19455
307.19444
307.19452
307.19444
307.1944
307.1944
307.19442
307.19447
307.19455
307.19465
307.19463
307.1944
307.19448
307.19443
307.1944
307.19439
307.19442
307.19447
307.19455
307.19463
307.19457
315.12035
315.12052
315.12036
315.12028
315.12025
315.12025
315.12028
315.12033
315.12039
315.12035
315.12052
315.12056
315.12041
315.12033
315.12029
315.1203
315.12034
315.12041
315.12049
315.12045
315.12036
315.12041
315.12026
315.12018
315.12015
315.12016
315.1202
315.12028
315.12039
315.12038
315.12028
315.12033
315.12018
315.12011
315.12008
315.12009
315.12014
315.12023
315.12035
315.12035
315.12025
315.12029
315.12015
315.12008
315.12005
315.12007
315.12013
315.12022
315.12035
315.12035
315.12025
315.1203
315.12016
315.12009
315.12007
315.12009
315.12015
315.12025
315.12038
315.12038
315.12028
315.12034
315.1202
315.12014
315.12013
315.12015
315.12022
315.12032
315.12045
315.12045
315.12033
315.12041
315.12028
315.12023
315.12022
315.12025
315.12032
315.12042
315.12055
315.12055
315.12039
315.12049
315.12039
315.12035
315.12035
315.12038
315.12045
315.12055
315.12067
315.12066
315.12035
315.12045
315.12038
315.12035
315.12035
315.12038
315.12045
315.12055
315.12066
315.12056
323.00998
323.01018
323.00999
323.0099
323.00986
323.00987
323.00991
323.00998
323.01005
323.01001
323.01018
323.01022
323.01004
323.00996
323.00992
323.00992
323.00997
323.01006
323.01017
323.01012
323.00999
323.01004
323.00987
323.00979
323.00975
323.00976
323.00982
323.00992
323.01006
323.01005
323.0099
323.00996
323.00979
323.00971
323.00967
323.00969
323.00976
323.00987
323.01002
323.01001
323.00986
323.00992
323.00975
323.00967
323.00965
323.00967
323.00974
323.00986
323.01001
323.01001
323.00987
323.00992
323.00976
323.00969
323.00967
323.0097
323.00977
323.0099
323.01005
323.01006
323.00991
323.00997
323.00982
323.00976
323.00974
323.00977
323.00985
323.00998
323.01014
323.01014
323.00998
323.01006
323.00992
323.00987
323.00986
323.0099
323.00998
323.0101
323.01026
323.01026
323.01005
323.01017
323.01006
323.01002
323.01001
323.01005
323.01014
323.01026
323.01041
323.01039
323.01001
323.01012
323.01005
323.01001
323.01001
323.01006
323.01014
323.01026
323.01039
323.01028
330.86585
330.86606
330.86585
330.86575
330.86571
330.86572
330.86577
330.86586
330.86594
330.8659
330.86606
330.86609
330.8659
330.8658
330.86576
330.86578
330.86584
330.86594
330.86607
330.86602
330.86585
330.8659
330.86571
330.86562
330.86558
330.8656
330.86567
330.86579
330.86595
330.86594
330.86575
330.8658
330.86562
330.86553
330.8655
330.86552
330.8656
330.86573
330.8659
330.8659
330.86571
330.86576
330.86558
330.8655
330.86547
330.8655
330.86558
330.86572
330.86591
330.86591
330.86572
330.86578
330.8656
330.86552
330.8655
330.86554
330.86563
330.86577
330.86596
330.86596
330.86577
330.86584
330.86567
330.8656
330.86558
330.86563
330.86572
330.86587
330.86605
330.86606
330.86586
330.86594
330.86579
330.86573
330.86572
330.86577
330.86587
330.86601
330.8662
330.8662
330.86594
330.86607
330.86595
330.8659
330.86591
330.86596
330.86605
330.8662
330.86638
330.86636
330.8659
330.86602
330.86594
330.8659
330.86591
330.86596
330.86606
330.8662
330.86636
330.86623
338.69028
338.6905
338.69028
338.69017
338.69013
338.69014
338.6902
338.6903
338.69041
338.69036
338.6905
338.69054
338.69033
338.69022
338.69018
338.6902
338.69027
338.6904
338.69055
338.69049
338.69028
338.69033
338.69012
338.69002
338.68998
338.69001
338.69009
338.69023
338.69042
338.69041
338.69017
338.69022
338.69002
338.68992
338.68989
338.68992
338.69001
338.69017
338.69037
338.69037
338.69013
338.69018
338.68998
338.68989
338.68987
338.6899
338.69
338.69016
338.69037
338.69038
338.69014
338.6902
338.69001
338.68992
338.6899
338.68995
338.69005
338.69022
338.69043
338.69044
338.6902
338.69027
338.69009
338.69001
338.69
338.69005
338.69016
338.69033
338.69055
338.69055
338.6903
338.6904
338.69023
338.69017
338.69016
338.69022
338.69033
338.6905
338.69071
338.69072
338.69041
338.69055
338.69042
338.69037
338.69037
338.69043
338.69055
338.69071
338.69092
338.6909
338.69036
338.69049
338.69041
338.69037
338.69038
338.69044
338.69055
338.69072
338.6909
338.69076
346.48546
346.4857
346.48545
346.48534
346.48529
346.48531
346.48539
346.4855
346.48562
346.48557
346.4857
346.48573
346.4855
346.48539
346.48535
346.48537
346.48546
346.4856
346.48577
346.48571
346.48545
346.4855
346.48528
346.48517
346.48514
346.48516
346.48526
346.48542
346.48563
346.48562
346.48534
346.48539
346.48517
346.48507
346.48504
346.48508
346.48518
346.48535
346.48558
346.48559
346.48529
346.48535
346.48514
346.48504
346.48501
346.48506
346.48517
346.48535
346.48559
346.4856
346.48531
346.48537
346.48516
346.48508
346.48506
346.48511
346.48523
346.48542
346.48566
346.48567
346.48539
346.48546
346.48526
346.48518
346.48517
346.48523
346.48535
346.48554
346.48579
346.4858
346.4855
346.4856
346.48542
346.48535
346.48535
346.48542
346.48554
346.48574
346.48598
346.48599
346.48562
346.48577
346.48563
346.48558
346.48559
346.48566
346.48579
346.48598
346.48621
346.4862
346.48557
346.48571
346.48562
346.48559
346.4856
346.48567
346.4858
346.48599
346.4862
346.48604
354.25339
354.25364
354.25338
354.25326
354.25321
354.25323
354.25332
354.25345
354.25359
354.25354
354.25364
354.25367
354.25343
354.25331
354.25327
354.2533
354.25339
354.25355
354.25375
354.25369
354.25338
354.25343
354.25319
354.25308
354.25304
354.25307
354.25318
354.25336
354.2536
354.25359
354.25326
354.25331
354.25308
354.25297
354.25294
354.25298
354.2531
354.25329
354.25354
354.25355
354.25321
354.25327
354.25304
354.25294
354.25291
354.25297
354.25309
354.2533
354.25356
354.25357
354.25323
354.2533
354.25307
354.25298
354.25297
354.25303
354.25316
354.25337
354.25364
354.25366
354.25332
354.25339
354.25318
354.2531
354.25309
354.25316
354.2533
354.25351
354.25378
354.2538
354.25345
354.25355
354.25336
354.25329
354.2533
354.25337
354.25351
354.25372
354.25399
354.254
354.25359
354.25375
354.2536
354.25354
354.25356
354.25364
354.25378
354.25399
354.25425
354.25424
354.25354
354.25369
354.25359
354.25355
354.25357
354.25366
354.2538
354.254
354.25424
354.25407
361.9959
361.99615
361.99587
361.99575
361.9957
361.99573
361.99583
361.99597
361.99613
361.99608
361.99615
361.99618
361.99592
361.9958
361.99576
361.99579
361.9959
361.99607
361.99629
361.99623
361.99587
361.99592
361.99567
361.99555
361.99552
361.99556
361.99568
361.99587
361.99613
361.99613
361.99575
361.9958
361.99555
361.99544
361.99541
361.99546
361.99559
361.9958
361.99608
361.9961
361.9957
361.99576
361.99552
361.99541
361.99539
361.99545
361.99559
361.99581
361.9961
361.99612
361.99573
361.99579
361.99556
361.99546
361.99545
361.99552
361.99566
361.99589
361.99619
361.99621
361.99583
361.9959
361.99568
361.99559
361.99559
361.99566
361.99582
361.99605
361.99634
361.99637
361.99597
361.99607
361.99587
361.9958
361.99581
361.99589
361.99605
361.99628
361.99657
361.99659
361.99613
361.99629
361.99613
361.99608
361.9961
361.99619
361.99634
361.99657
361.99685
361.99685
361.99608
361.99623
361.99613
361.9961
361.99612
361.99621
361.99637
361.99659
361.99685
361.99667
369.71462
369.71487
369.71458
369.71445
369.71441
369.71444
369.71455
369.71471
369.71488
369.71483
369.71487
369.7149
369.71463
369.7145
369.71446
369.7145
369.71462
369.71481
369.71505
369.71499
369.71458
369.71463
369.71437
369.71425
369.71421
369.71426
369.71439
369.7146
369.71488
369.71489
369.71445
369.7145
369.71425
369.71413
369.7141
369.71416
369.7143
369.71453
369.71483
369.71485
369.71441
369.71446
369.71421
369.7141
369.71408
369.71415
369.7143
369.71454
369.71485
369.71488
369.71444
369.7145
369.71426
369.71416
369.71415
369.71423
369.71439
369.71463
369.71495
369.71498
369.71455
369.71462
369.71439
369.7143
369.7143
369.71439
369.71455
369.7148
369.71512
369.71515
369.71471
369.71481
369.7146
369.71453
369.71454
369.71463
369.7148
369.71505
369.71537
369.7154
369.71488
369.71505
369.71488
369.71483
369.71485
369.71495
369.71512
369.71537
369.71567
369.71567
369.71483
369.71499
369.71489
369.71485
369.71488
369.71498
369.71515
369.7154
369.71567
369.71548
377.41102
377.41127
377.41097
377.41084
377.4108
377.41084
377.41095
377.41113
377.41131
377.41127
377.41127
377.4113
377.41102
377.41089
377.41085
377.4109
377.41102
377.41123
377.41148
377.41143
377.41097
377.41102
377.41075
377.41062
377.41059
377.41064
377.41079
377.41101
377.41131
377.41133
377.41084
377.41089
377.41062
377.4105
377.41048
377.41054
377.4107
377.41094
377.41126
377.41129
377.4108
377.41085
377.41059
377.41048
377.41046
377.41054
377.4107
377.41096
377.41129
377.41132
377.41084
377.4109
377.41064
377.41054
377.41054
377.41062
377.41079
377.41105
377.41139
377.41143
377.41095
377.41102
377.41079
377.4107
377.4107
377.41079
377.41097
377.41124
377.41158
377.41162
377.41113
377.41123
377.41101
377.41094
377.41096
377.41105
377.41124
377.41151
377.41184
377.41188
377.41131
377.41148
377.41131
377.41126
377.41129
377.41139
377.41158
377.41184
377.41217
377.41217
377.41127
377.41143
377.41133
377.41129
377.41132
377.41143
377.41162
377.41188
377.41217
377.41198
385.08638
385.08664
385.08633
385.08619
385.08615
385.0862
385.08632
385.08651
385.0867
385.08667
385.08664
385.08666
385.08637
385.08624
385.0862
385.08625
385.08639
385.08661
385.08688
385.08683
385.08633
385.08637
385.08609
385.08596
385.08593
385.08599
385.08615
385.08639
385.08671
385.08672
385.08619
385.08624
385.08596
385.08584
385.08582
385.08589
385.08606
385.08631
385.08665
385.08669
385.08615
385.0862
385.08593
385.08582
385.08581
385.08589
385.08606
385.08633
385.08668
385.08673
385.0862
385.08625
385.08599
385.08589
385.08589
385.08598
385.08616
385.08644
385.0868
385.08684
385.08632
385.08639
385.08615
385.08606
385.08606
385.08616
385.08635
385.08663
385.08699
385.08704
385.08651
385.08661
385.08639
385.08631
385.08633
385.08644
385.08663
385.08692
385.08727
385.08732
385.0867
385.08688
385.08671
385.08665
385.08668
385.0868
385.08699
385.08727
385.08762
385.08763
385.08667
385.08683
385.08672
385.08669
385.08673
385.08684
385.08704
385.08732
385.08763
385.08743
392.74182
392.74207
392.74176
392.74162
392.74158
392.74163
392.74176
392.74196
392.74217
392.74213
392.74207
392.74209
392.7418
392.74166
392.74163
392.74168
392.74183
392.74206
392.74234
392.7423
392.74176
392.7418
392.74151
392.74138
392.74135
392.74142
392.74158
392.74183
392.74217
392.74219
392.74162
392.74166
392.74138
392.74126
392.74124
392.74131
392.74149
392.74176
392.74212
392.74216
392.74158
392.74163
392.74135
392.74124
392.74123
392.74131
392.7415
392.74178
392.74215
392.7422
392.74163
392.74168
392.74142
392.74131
392.74131
392.74141
392.7416
392.7419
392.74227
392.74232
392.74176
392.74183
392.74158
392.74149
392.7415
392.7416
392.7418
392.7421
392.74248
392.74253
392.74196
392.74206
392.74183
392.74176
392.74178
392.7419
392.7421
392.7424
392.74277
392.74282
392.74217
392.74234
392.74217
392.74212
392.74215
392.74227
392.74248
392.74277
392.74313
392.74315
392.74213
392.7423
392.74219
392.74216
392.7422
392.74232
392.74253
392.74282
392.74315
392.74295
400.37826
400.37851
400.37819
400.37805
400.37801
400.37807
400.3782
400.37841
400.37863
400.3786
400.37851
400.37852
400.37822
400.37809
400.37805
400.37812
400.37827
400.37851
400.3788
400.37877
400.37819
400.37822
400.37793
400.3778
400.37778
400.37785
400.37802
400.37828
400.37863
400.37866
400.37805
400.37809
400.3778
400.37768
400.37766
400.37774
400.37793
400.37821
400.37858
400.37863
400.37801
400.37805
400.37778
400.37766
400.37765
400.37775
400.37794
400.37824
400.37862
400.37868
400.37807
400.37812
400.37785
400.37774
400.37775
400.37785
400.37805
400.37836
400.37874
400.37881
400.3782
400.37827
400.37802
400.37793
400.37794
400.37805
400.37826
400.37857
400.37896
400.37902
400.37841
400.37851
400.37828
400.37821
400.37824
400.37836
400.37857
400.37888
400.37927
400.37932
400.37863
400.3788
400.37863
400.37858
400.37862
400.37874
400.37896
400.37927
400.37964
400.37967
400.3786
400.37877
400.37866
400.37863
400.37868
400.37881
400.37902
400.37932
400.37967
400.37947
407.99646
407.9967
407.99638
407.99624
407.99621
407.99627
407.99641
407.99663
407.99686
407.99683
407.9967
407.99671
407.99641
407.99628
407.99625
407.99631
407.99647
407.99672
407.99703
407.997
407.99638
407.99641
407.99612
407.99599
407.99597
407.99604
407.99622
407.99649
407.99685
407.99689
407.99624
407.99628
407.99599
407.99587
407.99585
407.99594
407.99613
407.99642
407.9968
407.99686
407.99621
407.99625
407.99597
407.99585
407.99585
407.99594
407.99615
407.99645
407.99685
407.99691
407.99627
407.99631
407.99604
407.99594
407.99594
407.99605
407.99626
407.99658
407.99698
407.99705
407.99641
407.99647
407.99622
407.99613
407.99615
407.99626
407.99648
407.9968
407.9972
407.99727
407.99663
407.99672
407.99649
407.99642
407.99645
407.99658
407.9968
407.99712
407.99752
407.99758
407.99686
407.99703
407.99685
407.9968
407.99685
407.99698
407.9972
407.99752
407.99791
407.99794
407.99683
407.997
407.99689
407.99686
407.99691
407.99705
407.99727
407.99758
407.99794
407.99774
415.59702
415.59725
415.59693
415.59679
415.59676
415.59682
415.59698
415.5972
415.59744
415.59742
415.59725
415.59726
415.59696
415.59682
415.59679
415.59687
415.59703
415.59729
415.5976
415.59758
415.59693
415.59696
415.59666
415.59653
415.59651
415.59659
415.59678
415.59706
415.59743
415.59747
415.59679
415.59682
415.59653
415.59641
415.5964
415.59649
415.59669
415.59699
415.59738
415.59745
415.59676
415.59679
415.59651
415.5964
415.5964
415.5965
415.59671
415.59702
415.59743
415.5975
415.59682
415.59687
415.59659
415.59649
415.5965
415.59662
415.59683
415.59715
415.59757
415.59764
415.59698
415.59703
415.59678
415.59669
415.59671
415.59683
415.59706
415.59738
415.5978
415.59787
415.5972
415.59729
415.59706
415.59699
415.59702
415.59715
415.59738
415.59771
415.59812
415.59819
415.59744
415.5976
415.59743
415.59738
415.59743
415.59757
415.5978
415.59812
415.59852
415.59856
415.59742
415.59758
415.59747
415.59745
415.5975
415.59764
415.59787
415.59819
415.59856
415.59837
423.18036
423.18059
423.18027
423.18013
423.1801
423.18017
423.18032
423.18055
423.1808
423.18078
423.18059
423.18059
423.18029
423.18015
423.18013
423.1802
423.18038
423.18064
423.18096
423.18094
423.18027
423.18029
423.17999
423.17987
423.17985
423.17994
423.18012
423.18041
423.18079
423.18084
423.18013
423.18015
423.17987
423.17975
423.17974
423.17984
423.18004
423.18034
423.18074
423.18081
423.1801
423.18013
423.17985
423.17974
423.17974
423.17985
423.18006
423.18038
423.18079
423.18087
423.18017
423.1802
423.17994
423.17984
423.17985
423.17996
423.18019
423.18052
423.18093
423.18102
423.18032
423.18038
423.18012
423.18004
423.18006
423.18019
423.18042
423.18075
423.18117
423.18125
423.18055
423.18064
423.18041
423.18034
423.18038
423.18052
423.18075
423.18108
423.1815
423.18158
423.1808
423.18096
423.18079
423.18074
423.18079
423.18093
423.18117
423.1815
423.18191
423.18196
423.18078
423.18094
423.18084
423.18081
423.18087
423.18102
423.18125
423.18158
423.18196
423.18176
430.74675
430.74698
430.74666
430.74652
430.7465
430.74657
430.74673
430.74696
430.74721
430.7472
430.74698
430.74697
430.74667
430.74654
430.74652
430.7466
430.74678
430.74704
430.74737
430.74736
430.74666
430.74667
430.74638
430.74626
430.74625
430.74633
430.74653
430.74682
430.7472
430.74726
430.74652
430.74654
430.74626
430.74615
430.74614
430.74624
430.74644
430.74675
430.74716
430.74723
430.7465
430.74652
430.74625
430.74614
430.74614
430.74625
430.74647
430.74679
430.74721
430.74729
430.74657
430.7466
430.74633
430.74624
430.74625
430.74637
430.7466
430.74693
430.74736
430.74744
430.74673
430.74678
430.74653
430.74644
430.74647
430.7466
430.74683
430.74717
430.7476
430.74768
430.74696
430.74704
430.74682
430.74675
430.74679
430.74693
430.74717
430.74751
430.74793
430.74801
430.74721
430.74737
430.7472
430.74716
430.74721
430.74736
430.7476
430.74793
430.74834
430.7484
430.7472
430.74736
430.74726
430.74723
430.74729
430.74744
430.74768
430.74801
430.7484
430.74821
438.29633
438.29654
438.29623
438.2961
438.29607
438.29615
438.29631
438.29655
438.2968
438.2968
438.29654
438.29653
438.29624
438.29611
438.29609
438.29618
438.29635
438.29662
438.29695
438.29695
438.29623
438.29624
438.29596
438.29584
438.29582
438.29592
438.29611
438.2964
438.29679
438.29685
438.2961
438.29611
438.29584
438.29572
438.29572
438.29582
438.29603
438.29634
438.29675
438.29683
438.29607
438.29609
438.29582
438.29572
438.29573
438.29584
438.29606
438.29639
438.2968
438.29689
438.29615
438.29618
438.29592
438.29582
438.29584
438.29596
438.29619
438.29653
438.29695
438.29704
438.29631
438.29635
438.29611
438.29603
438.29606
438.29619
438.29643
438.29677
438.29719
438.29729
438.29655
438.29662
438.2964
438.29634
438.29639
438.29653
438.29677
438.29711
438.29753
438.29762
438.2968
438.29695
438.29679
438.29675
438.2968
438.29695
438.29719
438.29753
438.29795
438.298
438.2968
438.29695
438.29685
438.29683
438.29689
438.29704
438.29729
438.29762
438.298
438.29782
445.82906
445.82926
445.82895
445.82883
445.82881
445.82888
445.82905
445.82929
445.82954
445.82955
445.82926
445.82925
445.82896
445.82884
445.82882
445.82891
445.82909
445.82936
445.82969
445.82969
445.82895
445.82896
445.82868
445.82857
445.82856
445.82865
445.82885
445.82914
445.82953
445.82959
445.82883
445.82884
445.82857
445.82846
445.82846
445.82857
445.82877
445.82909
445.82949
445.82958
445.82881
445.82882
445.82856
445.82846
445.82847
445.82859
445.8288
445.82913
445.82955
445.82964
445.82888
445.82891
445.82865
445.82857
445.82859
445.82871
445.82894
445.82927
445.8297
445.82979
445.82905
445.82909
445.82885
445.82877
445.8288
445.82894
445.82917
445.82951
445.82994
445.83004
445.82929
445.82936
445.82914
445.82909
445.82913
445.82927
445.82951
445.82985
445.83028
445.83037
445.82954
445.82969
445.82953
445.82949
445.82955
445.8297
445.82994
445.83028
445.83069
445.83076
445.82955
445.82969
445.82959
445.82958
445.82964
445.82979
445.83004
445.83037
445.83076
445.83058
453.34478
453.34497
453.34467
453.34455
453.34454
453.34462
453.34478
453.34502
453.34527
453.34528
453.34497
453.34496
453.34468
453.34456
453.34455
453.34464
453.34481
453.34508
453.34541
453.34542
453.34467
453.34468
453.34441
453.3443
453.34429
453.34439
453.34458
453.34488
453.34526
453.34533
453.34455
453.34456
453.3443
453.3442
453.3442
453.34431
453.34451
453.34482
453.34523
453.34531
453.34454
453.34455
453.34429
453.3442
453.34421
453.34433
453.34455
453.34487
453.34529
453.34538
453.34462
453.34464
453.34439
453.34431
453.34433
453.34445
453.34468
453.34501
453.34544
453.34553
453.34478
453.34481
453.34458
453.34451
453.34455
453.34468
453.34492
453.34525
453.34568
453.34578
453.34502
453.34508
453.34488
453.34482
453.34487
453.34501
453.34525
453.34559
453.34601
453.34611
453.34527
453.34541
453.34526
453.34523
453.34529
453.34544
453.34568
453.34601
453.34642
453.34649
453.34528
453.34542
453.34533
453.34531
453.34538
453.34553
453.34578
453.34611
453.34649
453.34633
460.84322
460.84339
460.8431
460.84299
460.84298
460.84306
460.84322
460.84346
460.84371
460.84372
460.84339
460.84337
460.8431
460.84299
460.84299
460.84307
460.84325
460.84352
460.84384
460.84385
460.8431
460.8431
460.84285
460.84274
460.84274
460.84284
460.84303
460.84332
460.8437
460.84377
460.84299
460.84299
460.84274
460.84264
460.84265
460.84276
460.84296
460.84327
460.84367
460.84376
460.84298
460.84299
460.84274
460.84265
460.84267
460.84278
460.843
460.84332
460.84373
460.84382
460.84306
460.84307
460.84284
460.84276
460.84278
460.84291
460.84313
460.84346
460.84388
460.84398
460.84322
460.84325
460.84303
460.84296
460.843
460.84313
460.84337
460.8437
460.84411
460.84422
460.84346
460.84352
460.84332
460.84327
460.84332
460.84346
460.8437
460.84403
460.84445
460.84454
460.84371
460.84384
460.8437
460.84367
460.84373
460.84388
460.84411
460.84445
460.84485
460.84492
460.84372
460.84385
460.84377
460.84376
460.84382
460.84398
460.84422
460.84454
460.84492
460.84477
468.32394
468.32411
468.32383
468.32373
468.32372
468.3238
468.32396
468.32419
468.32444
468.32446
468.32411
468.32408
468.32383
468.32373
468.32372
468.32381
468.32398
468.32425
468.32457
468.32458
468.32383
468.32383
468.32358
468.32349
468.32349
468.32358
468.32377
468.32406
468.32443
468.3245
468.32373
468.32373
468.32349
468.3234
468.3234
468.32351
468.32371
468.32401
468.3244
468.32449
468.32372
468.32372
468.32349
468.3234
468.32342
468.32354
468.32375
468.32406
468.32446
468.32456
468.3238
468.32381
468.32358
468.32351
468.32354
468.32366
468.32388
468.3242
468.32461
468.32471
468.32396
468.32398
468.32377
468.32371
468.32375
468.32388
468.32411
468.32444
468.32485
468.32495
468.32419
468.32425
468.32406
468.32401
468.32406
468.3242
468.32444
468.32476
468.32517
468.32527
468.32444
468.32457
468.32443
468.3244
468.32446
468.32461
468.32485
468.32517
468.32557
468.32564
468.32446
468.32458
468.3245
468.32449
468.32456
468.32471
468.32495
468.32527
468.32564
468.32549
475.78645
475.7866
475.78634
475.78624
475.78624
475.78632
475.78648
475.78671
475.78695
475.78697
475.7866
475.78658
475.78634
475.78624
475.78624
475.78633
475.7865
475.78675
475.78707
475.78709
475.78634
475.78634
475.78611
475.78601
475.78602
475.78611
475.7863
475.78658
475.78694
475.78701
475.78624
475.78624
475.78601
475.78593
475.78594
475.78605
475.78624
475.78654
475.78691
475.78701
475.78624
475.78624
475.78602
475.78594
475.78596
475.78608
475.78628
475.78659
475.78698
475.78708
475.78632
475.78633
475.78611
475.78605
475.78608
475.7862
475.78642
475.78673
475.78712
475.78722
475.78648
475.7865
475.7863
475.78624
475.78628
475.78642
475.78664
475.78695
475.78735
475.78745
475.78671
475.78675
475.78658
475.78654
475.78659
475.78673
475.78695
475.78727
475.78766
475.78777
475.78695
475.78707
475.78694
475.78691
475.78698
475.78712
475.78735
475.78766
475.78805
475.78813
475.78697
475.78709
475.78701
475.78701
475.78708
475.78722
475.78745
475.78777
475.78813
475.78799
483.23012
483.23025
483.23001
483.22992
483.22992
483.23
483.23015
483.23037
483.23061
483.23064
483.23025
483.23023
483.23
483.22991
483.22992
483.23
483.23017
483.23042
483.23072
483.23074
483.23001
483.23
483.22979
483.2297
483.22971
483.2298
483.22998
483.23025
483.2306
483.23068
483.22992
483.22991
483.2297
483.22963
483.22964
483.22974
483.22994
483.23022
483.23058
483.23067
483.22992
483.22992
483.22971
483.22964
483.22966
483.22978
483.22998
483.23027
483.23064
483.23074
483.23
483.23
483.2298
483.22974
483.22978
483.2299
483.2301
483.2304
483.23078
483.23089
483.23015
483.23017
483.22998
483.22994
483.22998
483.2301
483.23032
483.23062
483.23101
483.23111
483.23037
483.23042
483.23025
483.23022
483.23027
483.2304
483.23062
483.23093
483.23131
483.23141
483.23061
483.23072
483.2306
483.23058
483.23064
483.23078
483.23101
483.23131
483.23168
483.23176
483.23064
483.23074
483.23068
483.23067
483.23074
483.23089
483.23111
483.23141
483.23176
483.23163
490.65423
490.65435
490.65412
490.65404
490.65404
490.65412
490.65427
490.65448
490.65471
490.65474
490.65435
490.65432
490.65411
490.65403
490.65404
490.65412
490.65428
490.65452
490.65481
490.65484
490.65412
490.65411
490.65391
490.65384
490.65385
490.65394
490.65411
490.65437
490.6547
490.65478
490.65404
490.65403
490.65384
490.65377
490.65378
490.65389
490.65407
490.65434
490.65469
490.65478
490.65404
490.65404
490.65385
490.65378
490.65381
490.65392
490.65411
490.65439
490.65475
490.65485
490.65412
490.65412
490.65394
490.65389
490.65392
490.65404
490.65424
490.65452
490.65489
490.65499
490.65427
490.65428
490.65411
490.65407
490.65411
490.65424
490.65444
490.65473
490.6551
490.6552
490.65448
490.65452
490.65437
490.65434
490.65439
490.65452
490.65473
490.65503
490.65539
490.65549
490.65471
490.65481
490.6547
490.65469
490.65475
490.65489
490.6551
490.65539
490.65574
490.65582
490.65474
490.65484
490.65478
490.65478
490.65485
490.65499
490.6552
490.65549
490.65582
490.6557
498.05798
498.05809
498.05788
498.05781
498.05781
498.05789
498.05803
498.05824
498.05845
498.05848
498.05809
498.05806
498.05787
498.0578
498.05781
498.05789
498.05804
498.05827
498.05854
498.05858
498.05788
498.05787
498.05769
498.05762
498.05763
498.05772
498.05789
498.05813
498.05845
498.05852
498.05781
498.0578
498.05762
498.05756
498.05758
498.05767
498.05785
498.05811
498.05844
498.05853
498.05781
498.05781
498.05763