/*--------------------------------*- C++ -*----------------------------------*\
| =========                 |                                                 |
| \\      /  F ield         | OpenFOAM: The Open Source CFD Toolbox           |
|  \\    /   O peration     | Version:  v2106                                 |
|   \\  /    A nd           | Website:  www.openfoam.com                      |
|    \\/     M anipulation  |                                                 |
\*---------------------------------------------------------------------------*/
FoamFile
{
    version     2.0;
    format      ascii;
    arch        "LSB;label=32;scalar=64";
    class       volScalarField;
    location    "27.5";
    object      calFieldValue;
}
// * * * * * * * * * * * * * * * * * * * * * * * * * * * * * * * * * * * * * //

dimensions      [0 0 0 1 0 0 0];

internalField   nonuniform List<scalar> 
4000
(
273.41385
273.41385
273.41385
273.41385
273.41385
273.41385
273.41385
273.41385
273.41385
273.41385
273.41385
273.41385
273.41385
273.41385
273.41385
273.41385
273.41385
273.41385
273.41385
273.41385
273.41385
273.41385
273.41385
273.41385
273.41384
273.41385
273.41385
273.41385
273.41385
273.41385
273.41385
273.41385
273.41385
273.41384
273.41384
273.41384
273.41385
273.41385
273.41385
273.41385
273.41385
273.41385
273.41384
273.41384
273.41384
273.41384
273.41385
273.41385
273.41385
273.41385
273.41385
273.41385
273.41385
273.41384
273.41384
273.41384
273.41385
273.41385
273.41385
273.41385
273.41385
273.41385
273.41385
273.41385
273.41385
273.41385
273.41385
273.41385
273.41385
273.41385
273.41385
273.41385
273.41385
273.41385
273.41385
273.41385
273.41385
273.41385
273.41385
273.41385
273.41385
273.41385
273.41385
273.41385
273.41385
273.41385
273.41385
273.41385
273.41385
273.41385
273.41385
273.41385
273.41385
273.41385
273.41385
273.41385
273.41385
273.41385
273.41385
273.41385
280.55439
280.55439
280.55439
280.55438
280.55438
280.55436
280.55436
280.55439
280.55439
280.55439
280.55439
280.55439
280.55438
280.55438
280.55438
280.55436
280.55436
280.55436
280.55439
280.55439
280.55439
280.55438
280.55438
280.55438
280.55435
280.55435
280.55436
280.55436
280.55439
280.55439
280.55438
280.55438
280.55438
280.55435
280.55435
280.55435
280.55435
280.55435
280.55438
280.55438
280.55438
280.55438
280.55435
280.55435
280.55435
280.55435
280.55435
280.55435
280.55435
280.55438
280.55436
280.55436
280.55435
280.55435
280.55435
280.55435
280.55435
280.55435
280.55438
280.55438
280.55436
280.55436
280.55436
280.55435
280.55435
280.55435
280.55435
280.55438
280.55438
280.55438
280.55439
280.55436
280.55436
280.55435
280.55435
280.55435
280.55438
280.55438
280.55438
280.55441
280.55439
280.55439
280.55439
280.55438
280.55435
280.55438
280.55438
280.55438
280.55441
280.55441
280.55439
280.55439
280.55439
280.55438
280.55438
280.55438
280.55438
280.55441
280.55441
280.55441
287.69814
287.69814
287.69814
287.69813
287.69811
287.69811
287.69811
287.69812
287.69812
287.69812
287.69814
287.69814
287.69814
287.69813
287.69811
287.69811
287.69811
287.69812
287.69812
287.69815
287.69814
287.69814
287.69813
287.6981
287.6981
287.69808
287.69811
287.69811
287.69812
287.69812
287.69813
287.69813
287.6981
287.6981
287.69807
287.69807
287.69808
287.69811
287.69811
287.69811
287.69811
287.69811
287.6981
287.69807
287.69807
287.69807
287.69808
287.69811
287.69811
287.69811
287.69811
287.69811
287.69808
287.69807
287.69807
287.69808
287.69808
287.69811
287.69811
287.69814
287.69811
287.69811
287.69811
287.69808
287.69808
287.69808
287.6981
287.69811
287.69814
287.69814
287.69812
287.69812
287.69811
287.69811
287.69811
287.69811
287.69811
287.69814
287.69817
287.69817
287.69812
287.69812
287.69812
287.69811
287.69811
287.69811
287.69814
287.69817
287.69817
287.69817
287.69812
287.69815
287.69812
287.69811
287.69811
287.69814
287.69814
287.69817
287.69817
287.6982
294.84724
294.84723
294.84721
294.8472
294.84717
294.84717
294.84718
294.84718
294.84721
294.84722
294.84723
294.84723
294.8472
294.84719
294.84717
294.84717
294.84718
294.84718
294.84721
294.84721
294.84721
294.8472
294.8472
294.84716
294.84714
294.84714
294.84715
294.84718
294.84718
294.84721
294.8472
294.84719
294.84716
294.84716
294.84713
294.84713
294.84714
294.84717
294.84718
294.8472
294.84717
294.84717
294.84714
294.84713
294.8471
294.84711
294.84714
294.84717
294.84717
294.8472
294.84717
294.84717
294.84714
294.84713
294.84711
294.84711
294.84714
294.84717
294.8472
294.8472
294.84718
294.84718
294.84715
294.84714
294.84714
294.84714
294.84717
294.8472
294.84723
294.84723
294.84718
294.84718
294.84718
294.84717
294.84717
294.84717
294.8472
294.84723
294.84726
294.84726
294.84721
294.84721
294.84718
294.84718
294.84717
294.8472
294.84723
294.84726
294.84726
294.84729
294.84722
294.84721
294.84721
294.8472
294.8472
294.8472
294.84723
294.84726
294.84729
294.84729
302.00367
302.00367
302.00364
302.00363
302.0036
302.00361
302.00362
302.00362
302.00365
302.00366
302.00367
302.00364
302.00364
302.0036
302.00358
302.00358
302.00359
302.00362
302.00365
302.00365
302.00364
302.00364
302.0036
302.0036
302.00357
302.00358
302.00358
302.00362
302.00362
302.00365
302.00363
302.0036
302.0036
302.00356
302.00354
302.00354
302.00357
302.00361
302.00361
302.00364
302.0036
302.00358
302.00357
302.00354
302.00354
302.00354
302.00357
302.0036
302.00364
302.00364
302.00361
302.00358
302.00358
302.00354
302.00354
302.00354
302.00357
302.0036
302.00363
302.00366
302.00362
302.00359
302.00358
302.00357
302.00357
302.00357
302.0036
302.00363
302.00366
302.00369
302.00362
302.00362
302.00362
302.00361
302.0036
302.0036
302.00363
302.00369
302.00369
302.00372
302.00365
302.00365
302.00362
302.00361
302.00364
302.00363
302.00366
302.00369
302.00373
302.00375
302.00366
302.00365
302.00365
302.00364
302.00364
302.00366
302.00369
302.00372
302.00375
302.00376
309.16942
309.16942
309.16939
309.16937
309.16935
309.16935
309.16936
309.16939
309.1694
309.1694
309.16942
309.16942
309.16938
309.16934
309.16932
309.16932
309.16936
309.16936
309.1694
309.16943
309.16939
309.16938
309.16935
309.16934
309.16931
309.16932
309.16932
309.16936
309.16939
309.16939
309.16937
309.16934
309.16934
309.1693
309.16928
309.16928
309.16931
309.16935
309.16938
309.16941
309.16935
309.16932
309.16931
309.16928
309.16925
309.16928
309.16931
309.16934
309.16938
309.16941
309.16935
309.16932
309.16932
309.16928
309.16928
309.16928
309.16933
309.16937
309.1694
309.16943
309.16936
309.16936
309.16932
309.16931
309.16931
309.16933
309.16936
309.16939
309.16945
309.16946
309.16939
309.16936
309.16936
309.16935
309.16934
309.16937
309.16939
309.16946
309.16949
309.16952
309.1694
309.1694
309.16939
309.16938
309.16938
309.1694
309.16945
309.16949
309.16952
309.16955
309.1694
309.16943
309.16939
309.16941
309.16941
309.16943
309.16946
309.16952
309.16955
309.16955
316.34633
316.34633
316.3463
316.34629
316.34626
316.34624
316.34627
316.34631
316.34631
316.34634
316.34633
316.3463
316.34629
316.34625
316.34623
316.34623
316.34624
316.34628
316.34631
316.34634
316.3463
316.34629
316.34626
316.34622
316.34619
316.3462
316.34623
316.34627
316.34631
316.34633
316.34629
316.34625
316.34622
316.34618
316.34618
316.34619
316.34622
316.34626
316.34629
316.34632
316.34626
316.34623
316.34619
316.34618
316.34616
316.34616
316.34621
316.34625
316.34631
316.34634
316.34624
316.34623
316.3462
316.34619
316.34616
316.34618
316.34624
316.3463
316.34634
316.34636
316.34627
316.34624
316.34623
316.34622
316.34621
316.34624
316.34629
316.34633
316.34639
316.34642
316.34631
316.34628
316.34627
316.34626
316.34625
316.3463
316.34633
316.34639
316.34643
316.34646
316.34631
316.34631
316.34631
316.34629
316.34631
316.34634
316.34639
316.34643
316.34649
316.34649
316.34634
316.34634
316.34633
316.34632
316.34634
316.34636
316.34642
316.34646
316.34649
316.34652
323.53611
323.53611
323.53608
323.53604
323.53601
323.53601
323.53605
323.53608
323.53612
323.53612
323.53611
323.53608
323.53607
323.53603
323.536
323.53601
323.53602
323.53608
323.53612
323.53614
323.53608
323.53607
323.53603
323.536
323.53597
323.53597
323.53601
323.53605
323.53611
323.53611
323.53604
323.53603
323.536
323.53596
323.53593
323.53596
323.53599
323.53606
323.53609
323.53612
323.53601
323.536
323.53597
323.53593
323.53593
323.53593
323.53599
323.53605
323.53611
323.53614
323.53601
323.53601
323.53597
323.53596
323.53593
323.53595
323.53601
323.53607
323.53613
323.53616
323.53605
323.53602
323.53601
323.53599
323.53599
323.53601
323.53606
323.53615
323.53619
323.53622
323.53608
323.53608
323.53605
323.53606
323.53605
323.53607
323.53615
323.53622
323.53625
323.53628
323.53612
323.53612
323.53611
323.53609
323.53611
323.53613
323.53619
323.53625
323.53629
323.53632
323.53612
323.53614
323.53611
323.53612
323.53614
323.53616
323.53622
323.53628
323.53632
323.53635
330.74032
330.74028
330.74025
330.74024
330.74021
330.74021
330.74025
330.74029
330.74032
330.74035
330.74028
330.74028
330.74025
330.7402
330.74018
330.74018
330.74022
330.74028
330.74032
330.74035
330.74025
330.74025
330.74021
330.74017
330.74014
330.74017
330.74021
330.74027
330.74031
330.74034
330.74024
330.7402
330.74017
330.74013
330.74013
330.74013
330.74019
330.74026
330.74029
330.74032
330.74021
330.74018
330.74014
330.74013
330.74009
330.74012
330.74018
330.74024
330.74031
330.74034
330.74021
330.74018
330.74017
330.74013
330.74012
330.74015
330.74023
330.74029
330.74035
330.74039
330.74025
330.74022
330.74021
330.74019
330.74018
330.74023
330.74028
330.74037
330.74041
330.74047
330.74029
330.74028
330.74027
330.74026
330.74024
330.74029
330.74037
330.74044
330.7405
330.74051
330.74032
330.74032
330.74031
330.74029
330.74031
330.74035
330.74041
330.7405
330.74054
330.74057
330.74035
330.74035
330.74034
330.74032
330.74034
330.74039
330.74047
330.74051
330.74057
330.74057
337.96027
337.96027
337.96023
337.96022
337.96019
337.96019
337.96023
337.96027
337.96033
337.96033
337.96027
337.96027
337.96023
337.96018
337.96015
337.96016
337.96022
337.96026
337.96032
337.96035
337.96023
337.96023
337.96019
337.96015
337.96012
337.96015
337.96018
337.96025
337.96031
337.96034
337.96022
337.96018
337.96015
337.96011
337.96008
337.9601
337.96016
337.96023
337.9603
337.96033
337.96019
337.96015
337.96012
337.96008
337.96007
337.9601
337.96018
337.96025
337.96031
337.96034
337.96019
337.96016
337.96015
337.9601
337.9601
337.96015
337.9602
337.96029
337.96036
337.96041
337.96023
337.96022
337.96018
337.96016
337.96018
337.9602
337.96028
337.96037
337.96044
337.96047
337.96027
337.96026
337.96025
337.96023
337.96025
337.96029
337.96037
337.96046
337.9605
337.96054
337.96033
337.96032
337.96031
337.9603
337.96031
337.96036
337.96044
337.9605
337.96057
337.9606
337.96033
337.96035
337.96034
337.96033
337.96034
337.96041
337.96047
337.96054
337.9606
337.9606
345.19722
345.19722
345.19719
345.19714
345.19713
345.19714
345.19718
345.19724
345.19728
345.19731
345.19722
345.19719
345.19715
345.19713
345.1971
345.19711
345.19717
345.19721
345.19727
345.1973
345.19719
345.19715
345.19711
345.1971
345.19707
345.19707
345.19713
345.1972
345.19726
345.19729
345.19714
345.19713
345.1971
345.19705
345.19702
345.19705
345.19714
345.1972
345.19727
345.1973
345.19713
345.1971
345.19707
345.19702
345.19701
345.19704
345.19712
345.19722
345.19728
345.19731
345.19714
345.19711
345.19707
345.19705
345.19704
345.19709
345.19717
345.19726
345.19733
345.19738
345.19718
345.19717
345.19713
345.19714
345.19712
345.19717
345.19725
345.19734
345.19743
345.19747
345.19724
345.19721
345.1972
345.1972
345.19722
345.19726
345.19734
345.19743
345.1975
345.19754
345.19728
345.19727
345.19726
345.19727
345.19728
345.19733
345.19743
345.1975
345.19757
345.1976
345.19731
345.1973
345.19729
345.1973
345.19731
345.19738
345.19747
345.19754
345.1976
345.1976
352.45211
352.45208
352.45204
352.45202
352.45199
352.45199
352.45206
352.45212
352.45216
352.45219
352.45208
352.45207
352.45203
352.45199
352.45195
352.45199
352.45205
352.45212
352.45218
352.45221
352.45204
352.45203
352.45199
352.45195
352.45192
352.45195
352.45201
352.4521
352.45217
352.4522
352.45202
352.45199
352.45195
352.4519
352.4519
352.45192
352.45201
352.45208
352.45215
352.4522
352.45199
352.45195
352.45192
352.4519
352.45189
352.45191
352.45199
352.45209
352.45218
352.45221
352.45199
352.45199
352.45195
352.45192
352.45191
352.45196
352.45207
352.45216
352.45225
352.45228
352.45206
352.45205
352.45201
352.45201
352.45199
352.45207
352.45215
352.45226
352.45233
352.45237
352.45212
352.45212
352.4521
352.45208
352.45209
352.45216
352.45226
352.45236
352.45243
352.45246
352.45216
352.45218
352.45217
352.45215
352.45218
352.45225
352.45233
352.45243
352.4525
352.45253
352.45219
352.45221
352.4522
352.4522
352.45221
352.45228
352.45237
352.45246
352.45253
352.45253
359.72564
359.72561
359.72557
359.72555
359.72551
359.72555
359.72558
359.72565
359.72571
359.72574
359.72561
359.7256
359.72556
359.72551
359.72548
359.72551
359.72558
359.72564
359.72571
359.72576
359.72557
359.72556
359.72552
359.72547
359.72544
359.72547
359.72556
359.72563
359.72569
359.72575
359.72555
359.72551
359.72547
359.72543
359.72542
359.72545
359.72553
359.72563
359.72572
359.72575
359.72551
359.72548
359.72544
359.72542
359.72541
359.72546
359.72554
359.72566
359.72573
359.72579
359.72555
359.72551
359.72547
359.72545
359.72546
359.7255
359.72561
359.7257
359.7258
359.72586
359.72558
359.72558
359.72556
359.72553
359.72554
359.72561
359.72572
359.72581
359.7259
359.72594
359.72565
359.72564
359.72563
359.72563
359.72566
359.7257
359.72581
359.72593
359.726
359.72604
359.72571
359.72571
359.72569
359.72572
359.72573
359.7258
359.7259
359.726
359.72607
359.7261
359.72574
359.72576
359.72575
359.72575
359.72579
359.72586
359.72594
359.72604
359.7261
359.72613
367.01832
367.01831
367.01828
367.01825
367.01822
367.01822
367.01828
367.01835
367.01841
367.01845
367.01831
367.01828
367.01824
367.01822
367.01818
367.01821
367.01828
367.01834
367.01843
367.01846
367.01828
367.01824
367.0182
367.01815
367.01814
367.01817
367.01826
367.01833
367.01842
367.01845
367.01825
367.01822
367.01815
367.01813
367.01812
367.01814
367.01823
367.01833
367.01842
367.01845
367.01822
367.01818
367.01814
367.01812
367.0181
367.01815
367.01824
367.01836
367.01845
367.01851
367.01822
367.01821
367.01817
367.01814
367.01815
367.0182
367.0183
367.01842
367.01852
367.01858
367.01828
367.01828
367.01826
367.01823
367.01824
367.0183
367.01841
367.01853
367.01863
367.01869
367.01835
367.01834
367.01833
367.01833
367.01836
367.01842
367.01853
367.01865
367.01872
367.01876
367.01841
367.01843
367.01842
367.01842
367.01845
367.01852
367.01863
367.01872
367.0188
367.01882
367.01845
367.01846
367.01845
367.01845
367.01851
367.01858
367.01869
367.01876
367.01882
367.01885
374.33042
374.33039
374.33038
374.33033
374.33032
374.33032
374.33039
374.33048
374.33054
374.33058
374.33039
374.33039
374.33035
374.33029
374.33029
374.33032
374.33038
374.33047
374.33054
374.33059
374.33038
374.33035
374.3303
374.33025
374.33024
374.33027
374.33036
374.33046
374.33052
374.33058
374.33033
374.33029
374.33025
374.33023
374.33022
374.33024
374.33036
374.33045
374.33055
374.33058
374.33032
374.33029
374.33024
374.33022
374.3302
374.33025
374.33036
374.33048
374.33058
374.33064
374.33032
374.33032
374.33027
374.33024
374.33025
374.33032
374.33043
374.33055
374.33064
374.3307
374.33039
374.33038
374.33036
374.33036
374.33036
374.33043
374.33056
374.33068
374.33078
374.33081
374.33048
374.33047
374.33046
374.33045
374.33048
374.33055
374.33068
374.33078
374.33087
374.33091
374.33054
374.33054
374.33052
374.33055
374.33058
374.33064
374.33078
374.33087
374.33095
374.33097
374.33058
374.33059
374.33058
374.33058
374.33064
374.3307
374.33081
374.33091
374.33097
374.33101
381.66195
381.66191
381.6619
381.66185
381.66184
381.66187
381.66193
381.66202
381.66209
381.66212
381.66191
381.66191
381.66186
381.66181
381.6618
381.66183
381.66192
381.66199
381.66208
381.66211
381.6619
381.66186
381.66182
381.66177
381.66176
381.66181
381.6619
381.662
381.66206
381.66212
381.66185
381.66181
381.66177
381.66175
381.66173
381.66178
381.66189
381.66199
381.66209
381.66212
381.66184
381.6618
381.66176
381.66173
381.66171
381.66179
381.6619
381.66202
381.66211
381.66217
381.66187
381.66183
381.66181
381.66178
381.66179
381.66185
381.66196
381.66208
381.6622
381.66226
381.66193
381.66192
381.6619
381.66189
381.6619
381.66196
381.66209
381.66221
381.66231
381.66237
381.66202
381.66199
381.662
381.66199
381.66202
381.66208
381.66221
381.66234
381.66244
381.66247
381.66209
381.66208
381.66206
381.66209
381.66211
381.6622
381.66231
381.66244
381.66251
381.66254
381.66212
381.66211
381.66212
381.66212
381.66217
381.66226
381.66237
381.66247
381.66254
381.66257
389.01263
389.01262
389.01258
389.01256
389.01254
389.01257
389.01264
389.01273
389.01279
389.01283
389.01262
389.01259
389.01257
389.01252
389.01251
389.01254
389.01263
389.01272
389.01281
389.01284
389.01258
389.01257
389.01253
389.01248
389.01246
389.01252
389.0126
389.0127
389.01279
389.01285
389.01256
389.01252
389.01248
389.01245
389.01244
389.01248
389.0126
389.01272
389.01282
389.01285
389.01254
389.01251
389.01246
389.01244
389.01244
389.01249
389.01262
389.01275
389.01284
389.0129
389.01257
389.01254
389.01252
389.01248
389.01249
389.01255
389.01269
389.01283
389.01293
389.01299
389.01264
389.01263
389.0126
389.0126
389.01262
389.01269
389.01282
389.01297
389.01306
389.0131
389.01273
389.01272
389.0127
389.01272
389.01275
389.01283
389.01297
389.01309
389.01316
389.01323
389.01279
389.01281
389.01279
389.01282
389.01284
389.01293
389.01306
389.01316
389.01326
389.01329
389.01283
389.01284
389.01285
389.01285
389.0129
389.01299
389.0131
389.01323
389.01329
389.01332
396.38207
396.38206
396.38202
396.382
396.38198
396.38201
396.38207
396.38216
396.38226
396.38229
396.38206
396.38203
396.38201
396.38196
396.38194
396.38197
396.38206
396.38216
396.38225
396.3823
396.38202
396.38201
396.38197
396.38191
396.3819
396.38195
396.38204
396.38216
396.38225
396.38228
396.382
396.38196
396.38191
396.38189
396.38187
396.38192
396.38206
396.38215
396.38225
396.38231
396.38198
396.38194
396.3819
396.38187
396.38187
396.38194
396.38205
396.3822
396.3823
396.38236
396.38201
396.38197
396.38195
396.38192
396.38194
396.38201
396.38214
396.38229
396.38238
396.38245
396.38207
396.38206
396.38204
396.38206
396.38205
396.38214
396.38227
396.38242
396.38252
396.38258
396.38216
396.38216
396.38216
396.38215
396.3822
396.38229
396.38242
396.38254
396.38265
396.38268
396.38226
396.38225
396.38225
396.38225
396.3823
396.38238
396.38252
396.38265
396.38272
396.38275
396.38229
396.3823
396.38228
396.38231
396.38236
396.38245
396.38258
396.38268
396.38275
396.38278
403.76956
403.76955
403.76951
403.76949
403.76947
403.76949
403.76958
403.76968
403.76974
403.76977
403.76955
403.76952
403.76947
403.76945
403.76943
403.76945
403.76957
403.76967
403.76976
403.76979
403.76951
403.76947
403.76945
403.7694
403.76938
403.76943
403.76955
403.76964
403.76974
403.76979
403.76949
403.76945
403.7694
403.76937
403.76935
403.76942
403.76954
403.76966
403.76976
403.76981
403.76947
403.76943
403.76938
403.76935
403.76935
403.76942
403.76956
403.76968
403.7698
403.76986
403.76949
403.76945
403.76943
403.76942
403.76942
403.76951
403.76964
403.76979
403.76989
403.76995
403.76958
403.76957
403.76955
403.76954
403.76956
403.76964
403.76977
403.76992
403.77002
403.77009
403.76968
403.76967
403.76964
403.76966
403.76968
403.76979
403.76992
403.77005
403.77015
403.77019
403.76974
403.76976
403.76974
403.76976
403.7698
403.76989
403.77002
403.77015
403.77022
403.77028
403.76977
403.76979
403.76979
403.76981
403.76986
403.76995
403.77009
403.77019
403.77028
403.77031
411.17424
411.17423
411.17419
411.17416
411.17414
411.17419
411.17426
411.17438
411.17444
411.17447
411.17423
411.1742
411.17418
411.17412
411.1741
411.17416
411.17424
411.17437
411.17446
411.17449
411.17419
411.17418
411.17413
411.1741
411.17408
411.17413
411.17425
411.17434
411.17444
411.17449
411.17416
411.17412
411.1741
411.17405
411.17405
411.17412
411.17424
411.17436
411.17445
411.17451
411.17414
411.1741
411.17408
411.17405
411.17405
411.17412
411.17425
411.1744
411.1745
411.17456
411.17419
411.17416
411.17413
411.17412
411.17412
411.17421
411.17434
411.17449
411.17461
411.17467
411.17426
411.17424
411.17425
411.17424
411.17425
411.17434
411.17449
411.17462
411.17474
411.17481
411.17438
411.17437
411.17434
411.17436
411.1744
411.17449
411.17462
411.17477
411.17487
411.17491
411.17444
411.17446
411.17444
411.17445
411.1745
411.17461
411.17474
411.17487
411.17495
411.17497
411.17447
411.17449
411.17449
411.17451
411.17456
411.17467
411.17481
411.17491
411.17497
411.17501
418.59515
418.59514
418.5951
418.59507
418.59505
418.5951
418.59518
418.59528
418.59537
418.5954
418.59514
418.59511
418.59508
418.59503
418.59503
418.59506
418.59517
418.59527
418.59536
418.59542
418.5951
418.59508
418.59503
418.595
418.59498
418.59503
418.59515
418.59527
418.59536
418.59542
418.59507
418.59503
418.595
418.59497
418.59495
418.59502
418.59516
418.59528
418.59538
418.59544
418.59505
418.59503
418.59498
418.59495
418.59498
418.59504
418.59518
418.5953
418.59542
418.59548
418.5951
418.59506
418.59503
418.59502
418.59504
418.59513
418.59526
418.59541
418.59553
418.59559
418.59518
418.59517
418.59515
418.59516
418.59518
418.59526
418.59539
418.59554
418.59566
418.59573
418.59528
418.59527
418.59527
418.59528
418.5953
418.59541
418.59554
418.59569
418.59579
418.59583
418.59537
418.59536
418.59536
418.59538
418.59542
418.59553
418.59566
418.59579
418.59587
418.5959
418.5954
418.59542
418.59542
418.59544
418.59548
418.59559
418.59573
418.59583
418.5959
418.59593
426.03118
426.03118
426.03113
426.0311
426.03111
426.03113
426.03122
426.03134
426.0314
426.03143
426.03118
426.03114
426.03112
426.03109
426.03107
426.03112
426.0312
426.03133
426.03142
426.03145
426.03113
426.03112
426.03107
426.03104
426.03102
426.03109
426.0312
426.0313
426.03142
426.03145
426.0311
426.03109
426.03104
426.03101
426.03101
426.03108
426.03119
426.03131
426.03143
426.03149
426.03111
426.03107
426.03102
426.03101
426.03101
426.0311
426.03123
426.03135
426.03147
426.03154
426.03113
426.03112
426.03109
426.03108
426.0311
426.03118
426.03131
426.03146
426.03158
426.03165
426.03122
426.0312
426.0312
426.03119
426.03123
426.03131
426.03147
426.03159
426.03172
426.03178
426.03134
426.03133
426.0313
426.03131
426.03135
426.03146
426.03159
426.03174
426.03185
426.03188
426.0314
426.03142
426.03142
426.03143
426.03147
426.03158
426.03172
426.03185
426.03192
426.03198
426.03143
426.03145
426.03145
426.03149
426.03154
426.03165
426.03178
426.03188
426.03198
426.03198
433.48126
433.48125
433.48123
433.4812
433.48118
433.48123
433.48131
433.48143
433.4815
433.48153
433.48125
433.48124
433.48119
433.48116
433.48116
433.48121
433.4813
433.48142
433.48151
433.48154
433.48123
433.48119
433.48117
433.48114
433.48111
433.48118
433.4813
433.48142
433.48151
433.48157
433.4812
433.48116
433.48114
433.48111
433.4811
433.48117
433.48128
433.48143
433.48153
433.48158
433.48118
433.48116
433.48111
433.4811
433.4811
433.48119
433.48132
433.48147
433.48157
433.48163
433.48123
433.48121
433.48118
433.48117
433.48119
433.48127
433.4814
433.48155
433.48167
433.48174
433.48131
433.4813
433.4813
433.48128
433.48132
433.4814
433.48156
433.48171
433.48181
433.48187
433.48143
433.48142
433.48142
433.48143
433.48147
433.48155
433.48171
433.48183
433.48194
433.48197
433.4815
433.48151
433.48151
433.48153
433.48157
433.48167
433.48181
433.48194
433.48203
433.48207
433.48153
433.48154
433.48157
433.48158
433.48163
433.48174
433.48187
433.48197
433.48207
433.4821
440.94438
440.94438
440.94433
440.9443
440.9443
440.94435
440.94443
440.94453
440.94462
440.94465
440.94438
440.94434
440.94432
440.94429
440.94426
440.94433
440.94442
440.94454
440.94463
440.94466
440.94433
440.94432
440.94427
440.94424
440.94424
440.94431
440.94442
440.94451
440.9446
440.94466
440.9443
440.94429
440.94424
440.94423
440.94423
440.94429
440.9444
440.94455
440.94464
440.9447
440.9443
440.94426
440.94424
440.94423
440.94422
440.94431
440.94444
440.94459
440.94468
440.94474
440.94435
440.94433
440.94431
440.94429
440.94431
440.94439
440.94452
440.94467
440.94479
440.94485
440.94443
440.94442
440.94442
440.9444
440.94444
440.94452
440.94467
440.94482
440.94492
440.94499
440.94453
440.94454
440.94451
440.94455
440.94459
440.94467
440.94482
440.94495
440.94505
440.94509
440.94462
440.94463
440.9446
440.94464
440.94468
440.94479
440.94492
440.94505
440.94515
440.94518
440.94465
440.94466
440.94466
440.9447
440.94474
440.94485
440.94499
440.94509
440.94518
440.94522
448.41963
448.41962
448.4196
448.41958
448.41958
448.41962
448.4197
448.4198
448.41989
448.41991
448.41962
448.41959
448.41957
448.41953
448.41953
448.41958
448.41969
448.41978
448.41987
448.41993
448.4196
448.41957
448.41954
448.41951
448.41951
448.41958
448.41969
448.41978
448.41987
448.41993
448.41958
448.41953
448.41951
448.41947
448.4195
448.41956
448.41967
448.41982
448.41991
448.41997
448.41958
448.41953
448.41951
448.4195
448.41949
448.41957
448.41971
448.41986
448.41995
448.42001
448.41962
448.41958
448.41958
448.41956
448.41957
448.41966
448.41981
448.41993
448.42006
448.42012
448.4197
448.41969
448.41969
448.41967
448.41971
448.41981
448.41994
448.42009
448.42019
448.42026
448.4198
448.41978
448.41978
448.41982
448.41986
448.41993
448.42009
448.42022
448.42032
448.42036
448.41989
448.41987
448.41987
448.41991
448.41995
448.42006
448.42019
448.42032
448.42039
448.42045
448.41991
448.41993
448.41993
448.41997
448.42001
448.42012
448.42026
448.42036
448.42045
448.42045
455.90645
455.90644
455.9064
455.9064
455.9064
455.90644
455.90652
455.90661
455.9067
455.90673
455.90644
455.90641
455.90639
455.90635
455.90635
455.90642
455.90651
455.90663
455.90672
455.90675
455.9064
455.90639
455.90636
455.90633
455.90633
455.90639
455.90651
455.90663
455.90671
455.90674
455.9064
455.90635
455.90633
455.90632
455.90632
455.90638
455.90652
455.90664
455.90673
455.90679
455.9064
455.90635
455.90633
455.90632
455.90633
455.90642
455.90655
455.90667
455.90679
455.90685
455.90644
455.90642
455.90639
455.90638
455.90642
455.9065
455.90663
455.90678
455.90687
455.90694
455.90652
455.90651
455.90651
455.90652
455.90655
455.90663
455.90678
455.9069
455.907
455.90707
455.90661
455.90663
455.90663
455.90664
455.90667
455.90678
455.9069
455.90706
455.90713
455.90717
455.9067
455.90672
455.90671
455.90673
455.90679
455.90687
455.907
455.90713
455.90723
455.90726
455.90673
455.90675
455.90674
455.90679
455.90685
455.90694
455.90707
455.90717
455.90726
455.90727
463.40462
463.40462
463.4046
463.40457
463.40457
463.40461
463.40469
463.40481
463.40487
463.40492
463.40462
463.40461
463.40456
463.40455
463.40455
463.40459
463.4047
463.40479
463.40488
463.40494
463.4046
463.40456
463.40453
463.40453
463.40452
463.40459
463.4047
463.40479
463.40488
463.40494
463.40457
463.40455
463.40453
463.40449
463.40451
463.40458
463.40468
463.4048
463.40492
463.40495
463.40457
463.40455
463.40452
463.40451
463.40453
463.40459
463.40472
463.40487
463.40496
463.40502
463.40461
463.40459
463.40459
463.40458
463.40459
463.40467
463.40482
463.40494
463.40506
463.40513
463.40469
463.4047
463.4047
463.40468
463.40472
463.40482
463.40495
463.4051
463.4052
463.40524
463.40481
463.40479
463.40479
463.4048
463.40487
463.40494
463.4051
463.40522
463.4053
463.40534
463.40487
463.40488
463.40488
463.40492
463.40496
463.40506
463.4052
463.4053
463.4054
463.40543
463.40492
463.40494
463.40494
463.40495
463.40502
463.40513
463.40524
463.40534
463.40543
463.40543
470.91446
470.91446
470.91444
470.91444
470.91443
470.91447
470.91455
470.91464
470.91473
470.91476
470.91446
470.91445
470.91443
470.91439
470.91439
470.91446
470.91454
470.91466
470.91475
470.91478
470.91444
470.91443
470.9144
470.91437
470.91439
470.91443
470.91454
470.91466
470.91474
470.91477
470.91444
470.91439
470.91437
470.91436
470.91438
470.91444
470.91455
470.91467
470.91476
470.91481
470.91443
470.91439
470.91439
470.91438
470.91439
470.91445
470.91458
470.9147
470.91482
470.91485
470.91447
470.91446
470.91443
470.91444
470.91445
470.91453
470.91466
470.91481
470.9149
470.91496
470.91455
470.91454
470.91454
470.91455
470.91458
470.91466
470.91481
470.91494
470.91503
470.9151
470.91464
470.91466
470.91466
470.91467
470.9147
470.91481
470.91494
470.91506
470.91516
470.9152
470.91473
470.91475
470.91474
470.91476
470.91482
470.9149
470.91503
470.91516
470.91523
470.91526
470.91476
470.91478
470.91477
470.91481
470.91485
470.91496
470.9151
470.9152
470.91526
470.91527
478.43697
478.43696
478.43694
478.43691
478.43691
478.43695
478.43706
478.43714
478.43721
478.43723
478.43696
478.43692
478.4369
478.4369
478.43689
478.43693
478.43704
478.43713
478.43722
478.43725
478.43694
478.4369
478.43688
478.43687
478.43687
478.43693
478.43704
478.43713
478.43722
478.43727
478.43691
478.4369
478.43687
478.43686
478.43686
478.43694
478.43705
478.43717
478.43723
478.43729
478.43691
478.43689
478.43687
478.43686
478.43687
478.43695
478.43709
478.4372
478.4373
478.43736
478.43695
478.43693
478.43693
478.43694
478.43695
478.43703
478.43716
478.43728
478.43737
478.43744
478.43706
478.43704
478.43704
478.43705
478.43709
478.43716
478.43729
478.43741
478.43751
478.43755
478.43714
478.43713
478.43713
478.43717
478.4372
478.43728
478.43741
478.43754
478.43761
478.43765
478.43721
478.43722
478.43722
478.43723
478.4373
478.43737
478.43751
478.43761
478.43768
478.43771
478.43723
478.43725
478.43727
478.43729
478.43736
478.43744
478.43755
478.43765
478.43771
478.43774
485.97374
485.97374
485.97372
485.97372
485.97372
485.97375
485.97383
485.97392
485.97401
485.97403
485.97374
485.97373
485.97371
485.9737
485.9737
485.97374
485.97385
485.97393
485.97399
485.97405
485.97372
485.97371
485.97368
485.97368
485.97367
485.97374
485.97385
485.97393
485.97402
485.97405
485.97372
485.9737
485.97368
485.97365
485.97366
485.97373
485.97386