/*--------------------------------*- C++ -*----------------------------------*\
| =========                 |                                                 |
| \\      /  F ield         | OpenFOAM: The Open Source CFD Toolbox           |
|  \\    /   O peration     | Version:  v2106                                 |
|   \\  /    A nd           | Website:  www.openfoam.com                      |
|    \\/     M anipulation  |                                                 |
\*---------------------------------------------------------------------------*/
FoamFile
{
    version     2.0;
    format      ascii;
    arch        "LSB;label=32;scalar=64";
    class       volVectorField;
    location    "27.5";
    object      flux;
}
// * * * * * * * * * * * * * * * * * * * * * * * * * * * * * * * * * * * * * //

dimensions      [0 1 -1 1 0 0 0];

internalField   nonuniform List<vector> 
4000
(
(-3.6340522e-07 -3.6340522e-07 1.8200695)
(1.0400564e-06 7.5311238e-07 1.8200677)
(8.0619453e-07 7.7412712e-08 1.8200729)
(-1.3624497e-06 1.1714765e-09 1.82007)
(-7.5716103e-07 3.4817554e-08 1.8200678)
(-1.2007492e-07 6.5990608e-08 1.8200672)
(1.9245882e-07 9.6844483e-08 1.8200674)
(2.5767067e-07 1.1655267e-07 1.820068)
(1.8252454e-07 7.9879206e-08 1.8200685)
(4.2471086e-08 -8.7239713e-09 1.8200688)
(7.5311238e-07 1.0400564e-06 1.8200677)
(1.7012833e-06 1.7012833e-06 1.8200712)
(-3.2171684e-07 5.396431e-07 1.8200731)
(-1.4263425e-06 4.5502968e-07 1.8200698)
(-6.5993233e-07 5.461119e-07 1.8200678)
(-2.7034526e-08 6.3738204e-07 1.8200673)
(2.6830191e-07 7.4919245e-07 1.8200677)
(2.3222276e-07 8.6181353e-07 1.8200684)
(-5.3904213e-09 8.3680184e-07 1.8200686)
(-4.6132091e-08 5.535905e-07 1.8200684)
(7.7412715e-08 8.0619454e-07 1.8200729)
(5.3964311e-07 -3.2171683e-07 1.8200731)
(-4.4005907e-07 -4.4005908e-07 1.8200745)
(-1.3559809e-06 -3.730638e-07 1.8200713)
(-5.7480866e-07 -2.9908109e-07 1.8200694)
(8.3005627e-08 -2.1570024e-07 1.8200691)
(4.1689031e-07 -9.2065243e-08 1.8200698)
(3.4528007e-07 8.3457778e-08 1.8200708)
(-1.2569848e-07 2.4408682e-07 1.8200711)
(-1.4633647e-07 2.3428952e-07 1.8200703)
(1.1714688e-09 -1.3624497e-06 1.82007)
(4.5502965e-07 -1.4263425e-06 1.8200698)
(-3.730638e-07 -1.3559809e-06 1.8200713)
(-1.2853645e-06 -1.2853645e-06 1.8200682)
(-5.0256877e-07 -1.2214143e-06 1.8200665)
(1.7998132e-07 -1.150019e-06 1.8200663)
(5.6745992e-07 -1.0528235e-06 1.8200672)
(5.6837482e-07 -9.0948164e-07 1.8200686)
(1.4544132e-07 -7.1504209e-07 1.8200694)
(-5.2663623e-08 -5.0999606e-07 1.8200692)
(3.4817548e-08 -7.5716104e-07 1.8200678)
(5.461119e-07 -6.5993234e-07 1.8200678)
(-2.990811e-07 -5.7480866e-07 1.8200694)
(-1.2214143e-06 -5.0256878e-07 1.8200665)
(-4.3946313e-07 -4.3946315e-07 1.8200649)
(2.5159643e-07 -3.7782202e-07 1.8200648)
(6.5742764e-07 -3.1148155e-07 1.8200659)
(6.830615e-07 -2.353258e-07 1.8200675)
(2.7378709e-07 -1.4932774e-07 1.8200686)
(-9.6391185e-09 -6.9338353e-08 1.8200686)
(6.59906e-08 -1.2007493e-07 1.8200672)
(6.3738203e-07 -2.7034536e-08 1.8200673)
(-2.1570024e-07 8.3005607e-08 1.8200691)
(-1.150019e-06 1.7998132e-07 1.8200663)
(-3.7782201e-07 2.5159643e-07 1.8200648)
(3.0796292e-07 3.0796291e-07 1.8200649)
(7.0995615e-07 3.554791e-07 1.8200661)
(7.3052863e-07 3.9355245e-07 1.8200678)
(3.1142877e-07 4.2015508e-07 1.820069)
(6.6263489e-10 4.3299113e-07 1.8200691)
(9.6844475e-08 1.924588e-07 1.8200674)
(7.4919243e-07 2.6830192e-07 1.8200677)
(-9.2065245e-08 4.1689031e-07 1.8200698)
(-1.0528235e-06 5.6745991e-07 1.8200672)
(-3.1148154e-07 6.5742763e-07 1.8200659)
(3.554791e-07 7.0995614e-07 1.8200661)
(7.4301718e-07 7.4301717e-07 1.8200674)
(7.4773749e-07 7.5710476e-07 1.8200691)
(3.1322577e-07 7.5057311e-07 1.8200703)
(-1.0817539e-09 7.2942881e-07 1.8200704)
(1.1655268e-07 2.5767067e-07 1.820068)
(8.6181353e-07 2.3222277e-07 1.8200684)
(8.3457759e-08 3.4528008e-07 1.8200708)
(-9.0948164e-07 5.6837483e-07 1.8200686)
(-2.3532578e-07 6.8306151e-07 1.8200675)
(3.9355246e-07 7.3052865e-07 1.8200678)
(7.5710477e-07 7.4773749e-07 1.8200691)
(7.3808457e-07 7.3808457e-07 1.8200709)
(2.8375281e-07 6.9905061e-07 1.820072)
(-1.3433564e-08 6.42169e-07 1.820072)
(7.9879213e-08 1.8252455e-07 1.8200685)
(8.3680185e-07 -5.3904234e-09 1.8200686)
(2.4408681e-07 -1.2569849e-07 1.8200711)
(-7.1504208e-07 1.4544134e-07 1.8200694)
(-1.4932773e-07 2.737871e-07 1.8200686)
(4.2015507e-07 3.1142875e-07 1.820069)
(7.505731e-07 3.1322578e-07 1.8200703)
(6.9905061e-07 2.8375282e-07 1.820072)
(2.173102e-07 2.1731021e-07 1.820073)
(-3.9002825e-08 1.3282506e-07 1.8200728)
(-8.7239727e-09 4.2471089e-08 1.8200688)
(5.5359049e-07 -4.6132096e-08 1.8200684)
(2.3428952e-07 -1.4633648e-07 1.8200703)
(-5.0999605e-07 -5.2663623e-08 1.8200692)
(-6.9338363e-08 -9.6391263e-09 1.8200686)
(4.3299114e-07 6.6262068e-10 1.8200691)
(7.2942883e-07 -1.0817509e-09 1.8200704)
(6.42169e-07 -1.3433564e-08 1.820072)
(1.3282506e-07 -3.9002822e-08 1.8200728)
(-6.9756993e-08 -6.975699e-08 1.8200724)
(-7.1111723e-07 -7.1111723e-07 1.8204376)
(2.0952056e-06 1.2866914e-06 1.8204367)
(1.1410258e-06 -6.2799453e-08 1.8204389)
(-3.5622389e-06 -2.1663993e-07 1.8204365)
(-2.0063728e-06 -1.3808116e-07 1.8204348)
(-2.7558531e-07 -5.2338059e-08 1.8204343)
(6.2213677e-07 4.2619905e-08 1.8204347)
(7.852771e-07 9.4434824e-08 1.8204353)
(6.8883396e-07 -7.5352075e-08 1.8204357)
(2.2419287e-07 -3.3450057e-07 1.8204364)
(1.2866914e-06 2.0952056e-06 1.8204367)
(3.0676823e-06 3.0676823e-06 1.820438)
(-1.1139712e-06 6.7802736e-07 1.8204385)
(-3.6751615e-06 4.9310183e-07 1.820436)
(-1.75992e-06 7.1371452e-07 1.8204345)
(-4.5337128e-09 9.7344801e-07 1.8204342)
(8.422961e-07 1.3151117e-06 1.8204347)
(6.0831913e-07 1.6436627e-06 1.8204355)
(4.5430873e-08 1.4545092e-06 1.8204353)
(-3.4955619e-08 6.4533283e-07 1.8204354)
(-6.2799457e-08 1.1410258e-06 1.8204389)
(6.7802736e-07 -1.1139711e-06 1.8204385)
(-1.4335547e-06 -1.4335547e-06 1.8204388)
(-3.5265517e-06 -1.3002907e-06 1.8204363)
(-1.5260266e-06 -1.1034264e-06 1.8204349)
(3.2581188e-07 -8.5589583e-07 1.8204347)
(1.2923515e-06 -4.8165303e-07 1.8204356)
(9.2467457e-07 4.366516e-08 1.8204367)
(-3.0949593e-07 4.7443823e-07 1.8204366)
(-3.1525803e-07 4.2071266e-07 1.8204362)
(-2.1663993e-07 -3.5622389e-06 1.8204365)
(4.9310182e-07 -3.6751614e-06 1.820436)
(-1.3002907e-06 -3.5265517e-06 1.8204363)
(-3.3450332e-06 -3.3450332e-06 1.820434)
(-1.3155251e-06 -3.1598759e-06 1.8204326)
(6.1723964e-07 -2.9454635e-06 1.8204326)
(1.7418571e-06 -2.6523172e-06 1.8204337)
(1.5644104e-06 -2.2240063e-06 1.8204352)
(4.2247838e-07 -1.6697237e-06 1.8204356)
(-7.0772665e-08 -1.1120896e-06 1.8204356)
(-1.3808115e-07 -2.0063729e-06 1.8204348)
(7.1371452e-07 -1.7599201e-06 1.8204345)
(-1.1034264e-06 -1.5260267e-06 1.8204349)
(-3.1598759e-06 -1.3155252e-06 1.8204326)
(-1.126457e-06 -1.126457e-06 1.8204314)
(8.3337056e-07 -9.4074178e-07 1.8204315)
(2.0138087e-06 -7.4031988e-07 1.8204328)
(1.9072682e-06 -5.0892829e-07 1.8204344)
(8.0242076e-07 -2.5053669e-07 1.8204351)
(5.6498045e-08 -7.8343468e-09 1.8204353)
(-5.233806e-08 -2.7558531e-07 1.8204343)
(9.7344801e-07 -4.5337245e-09 1.8204342)
(-8.5589583e-07 3.2581188e-07 1.8204347)
(-2.9454635e-06 6.1723964e-07 1.8204326)
(-9.4074176e-07 8.3337056e-07 1.8204315)
(1.0033768e-06 1.0033768e-06 1.8204318)
(2.1736706e-06 1.1458476e-06 1.8204331)
(2.0541936e-06 1.2604705e-06 1.8204349)
(9.2357232e-07 1.3406946e-06 1.8204356)
(9.1028899e-08 1.3807006e-06 1.8204359)
(4.2619901e-08 6.2213677e-07 1.8204347)
(1.3151117e-06 8.4229609e-07 1.8204347)
(-4.8165303e-07 1.2923515e-06 1.8204356)
(-2.6523172e-06 1.7418571e-06 1.8204337)
(-7.4031988e-07 2.0138087e-06 1.8204328)
(1.1458476e-06 2.1736706e-06 1.8204331)
(2.2709025e-06 2.2709025e-06 1.8204346)
(2.1021152e-06 2.3067074e-06 1.8204364)
(9.2265081e-07 2.2739249e-06 1.8204371)
(8.3168702e-08 2.185848e-06 1.8204374)
(9.443482e-08 7.8527709e-07 1.8204353)
(1.6436627e-06 6.0831913e-07 1.8204355)
(4.3665167e-08 9.2467457e-07 1.8204367)
(-2.2240062e-06 1.5644104e-06 1.8204352)
(-5.0892826e-07 1.9072681e-06 1.8204344)
(1.2604705e-06 2.0541936e-06 1.8204349)
(2.3067074e-06 2.1021152e-06 1.8204364)
(2.057216e-06 2.057216e-06 1.8204382)
(8.0271283e-07 1.9076807e-06 1.8204388)
(3.2310904e-08 1.6833249e-06 1.8204389)
(-7.5352077e-08 6.8883398e-07 1.8204357)
(1.4545092e-06 4.5430878e-08 1.8204353)
(4.7443824e-07 -3.0949595e-07 1.8204366)
(-1.6697237e-06 4.2247837e-07 1.8204356)
(-2.5053668e-07 8.0242076e-07 1.8204351)
(1.3406946e-06 9.235723e-07 1.8204356)
(2.273925e-06 9.2265081e-07 1.8204371)
(1.9076807e-06 8.0271284e-07 1.8204388)
(5.4875974e-07 5.4875976e-07 1.8204393)
(-6.6401774e-08 3.0521944e-07 1.8204391)
(-3.3450058e-07 2.2419288e-07 1.8204364)
(6.4533281e-07 -3.4955621e-08 1.8204354)
(4.2071266e-07 -3.1525803e-07 1.8204362)
(-1.1120895e-06 -7.0772671e-08 1.8204356)
(-7.834328e-09 5.6498052e-08 1.8204353)
(1.3807006e-06 9.1028899e-08 1.8204359)
(2.185848e-06 8.31687e-08 1.8204374)
(1.683325e-06 3.2310909e-08 1.8204389)
(3.0521943e-07 -6.6401766e-08 1.8204391)
(-1.3004931e-07 -1.300493e-07 1.8204392)
(-9.5916348e-07 -9.5916347e-07 1.8211125)
(2.2817915e-06 1.5854105e-06 1.8211116)
(6.0893784e-07 -1.2473729e-07 1.8211127)
(-5.4071085e-06 -3.1236377e-07 1.8211106)
(-2.9314247e-06 -1.9770254e-07 1.8211093)
(-2.1813779e-07 -5.7654977e-08 1.821109)
(1.1811697e-06 1.1625585e-07 1.8211096)
(1.2422744e-06 2.1615694e-07 1.8211104)
(1.2724568e-06 -1.6316237e-07 1.8211105)
(5.2904994e-07 -7.1462535e-07 1.8211112)
(1.5854105e-06 2.2817915e-06 1.8211116)
(3.5334307e-06 3.5334308e-06 1.8211123)
(-2.2377235e-06 4.8720243e-07 1.8211123)
(-5.5165564e-06 2.6995501e-07 1.8211102)
(-2.5493615e-06 5.9872604e-07 1.8211089)
(2.527998e-07 1.0235577e-06 1.8211089)
(1.5918875e-06 1.6242795e-06 1.8211097)
(8.2314704e-07 2.2186869e-06 1.8211106)
(-1.2371663e-07 1.7829819e-06 1.8211102)
(-2.2413046e-08 3.3675175e-07 1.8211102)
(-1.2473728e-07 6.0893783e-07 1.8211127)
(4.8720243e-07 -2.2377235e-06 1.8211123)
(-2.6545379e-06 -2.6545379e-06 1.8211121)
(-5.2955849e-06 -2.4595935e-06 1.8211101)
(-2.177822e-06 -2.1525901e-06 1.8211089)
(8.0741572e-07 -1.7470721e-06 1.821109)
(2.3762989e-06 -1.1185978e-06 1.8211101)
(1.4009767e-06 -2.2367202e-07 1.8211114)
(-6.0947839e-07 4.8577682e-07 1.8211111)
(-4.3510351e-07 4.2061307e-07 1.8211107)
(-3.1236376e-07 -5.4071085e-06 1.8211106)
(2.69955e-07 -5.5165564e-06 1.8211102)
(-2.4595935e-06 -5.2955849e-06 1.8211101)
(-5.0146086e-06 -5.0146086e-06 1.8211081)
(-1.8368401e-06 -4.7148088e-06 1.821107)
(1.2867921e-06 -4.3619984e-06 1.8211073)
(3.1152876e-06 -3.8782107e-06 1.8211086)
(2.4275217e-06 -3.1747165e-06 1.8211103)
(5.2056846e-07 -2.293932e-06 1.8211103)
(-6.5855545e-08 -1.4365027e-06 1.8211103)
(-1.9770253e-07 -2.9314247e-06 1.8211093)
(5.9872602e-07 -2.5493615e-06 1.8211089)
(-2.1525901e-06 -2.177822e-06 1.8211089)
(-4.7148088e-06 -1.8368401e-06 1.821107)
(-1.5252118e-06 -1.5252118e-06 1.8211061)
(1.6440138e-06 -1.2173966e-06 1.8211065)
(3.5635808e-06 -8.8549749e-07 1.821108)
(2.9852554e-06 -5.0325719e-07 1.8211098)
(1.1287354e-06 -8.3844159e-08 1.8211101)
(1.3651602e-07 3.0684196e-07 1.8211102)
(-5.7654983e-08 -2.181378e-07 1.821109)
(1.0235577e-06 2.5279976e-07 1.8211089)
(-1.7470721e-06 8.0741572e-07 1.821109)
(-4.3619984e-06 1.2867921e-06 1.8211073)
(-1.2173966e-06 1.6440138e-06 1.8211065)
(1.9265064e-06 1.9265064e-06 1.821107)
(3.8294271e-06 2.1618733e-06 1.8211086)
(3.229175e-06 2.34881e-06 1.8211105)
(1.3306676e-06 2.4739029e-06 1.8211109)
(1.9460187e-07 2.5296806e-06 1.8211111)
(1.1625584e-07 1.1811697e-06 1.8211096)
(1.6242795e-06 1.5918875e-06 1.8211097)
(-1.1185978e-06 2.3762989e-06 1.8211101)
(-3.8782107e-06 3.1152876e-06 1.8211086)
(-8.8549747e-07 3.5635808e-06 1.821108)
(2.1618733e-06 3.8294271e-06 1.8211086)
(3.9858844e-06 3.9858844e-06 1.8211102)
(3.2972851e-06 4.0286181e-06 1.8211122)
(1.3096061e-06 3.9369897e-06 1.8211126)
(1.7370114e-07 3.7263242e-06 1.8211127)
(2.1615694e-07 1.2422744e-06 1.8211104)
(2.2186869e-06 8.2314705e-07 1.8211106)
(-2.2367202e-07 1.4009767e-06 1.8211114)
(-3.1747165e-06 2.4275216e-06 1.8211103)
(-5.0325717e-07 2.9852554e-06 1.8211098)
(2.34881e-06 3.229175e-06 1.8211105)
(4.0286181e-06 3.2972851e-06 1.8211122)
(3.1802804e-06 3.1802804e-06 1.8211142)
(1.0283736e-06 2.8402898e-06 1.8211144)
(5.4158147e-08 2.3385716e-06 1.8211143)
(-1.6316237e-07 1.2724568e-06 1.8211105)
(1.7829819e-06 -1.2371665e-07 1.8211102)
(4.857768e-07 -6.0947839e-07 1.8211111)
(-2.293932e-06 5.2056846e-07 1.8211103)
(-8.3844135e-08 1.1287354e-06 1.8211101)
(2.4739029e-06 1.3306676e-06 1.8211109)
(3.9369897e-06 1.309606e-06 1.8211126)
(2.8402898e-06 1.0283736e-06 1.8211144)
(4.6789726e-07 4.6789723e-07 1.8211143)
(-1.607777e-07 4.0018145e-07 1.8211137)
(-7.1462535e-07 5.2904993e-07 1.8211112)
(3.3675175e-07 -2.2413047e-08 1.8211102)
(4.2061308e-07 -4.351035e-07 1.8211107)
(-1.4365027e-06 -6.5855532e-08 1.8211103)
(3.0684198e-07 1.3651603e-07 1.8211102)
(2.5296806e-06 1.9460188e-07 1.8211111)
(3.7263241e-06 1.7370115e-07 1.8211127)
(2.3385716e-06 5.4158152e-08 1.8211143)
(4.0018146e-07 -1.6077771e-07 1.8211137)
(9.014294e-09 9.0142893e-09 1.8211142)
(-1.3139991e-06 -1.3139991e-06 1.8221187)
(2.2153268e-06 1.7310155e-06 1.8221177)
(1.2906153e-07 -2.8928922e-07 1.8221187)
(-6.9604337e-06 -5.0147585e-07 1.8221169)
(-3.589065e-06 -3.5246542e-07 1.8221158)
(7.6704453e-08 -1.5775634e-07 1.8221158)
(1.9336714e-06 1.0539501e-07 1.8221166)
(1.6621327e-06 2.830604e-07 1.8221176)
(1.5531764e-06 -2.6748494e-07 1.8221177)
(7.0807695e-07 -1.0280975e-06 1.8221182)
(1.7310155e-06 2.2153269e-06 1.8221177)
(3.7523917e-06 3.7523917e-06 1.8221181)
(-3.2196755e-06 1.5659941e-07 1.8221182)
(-7.055198e-06 -7.3130451e-08 1.8221164)
(-3.0734857e-06 3.5948629e-07 1.8221154)
(7.634951e-07 9.4698268e-07 1.8221155)
(2.5948965e-06 1.8197429e-06 1.8221166)
(1.1028127e-06 2.7200892e-06 1.8221178)
(-4.1356042e-07 2.0732503e-06 1.8221174)
(-5.2535629e-08 1.0921878e-07 1.8221173)
(-2.8928922e-07 1.2906153e-07 1.8221187)
(1.565994e-07 -3.2196755e-06 1.8221182)
(-3.6964607e-06 -3.6964607e-06 1.8221181)
(-6.7575468e-06 -3.4333104e-06 1.8221163)
(-2.5689518e-06 -3.0193413e-06 1.8221154)
(1.5369611e-06 -2.4612123e-06 1.8221158)
(3.7067779e-06 -1.5843897e-06 1.8221171)
(1.91564e-06 -3.3183211e-07 1.8221187)
(-1.057694e-06 6.1195298e-07 1.8221183)
(-6.0127739e-07 4.9623379e-07 1.8221178)
(-5.0147584e-07 -6.9604337e-06 1.8221169)
(-7.3130444e-08 -7.055198e-06 1.8221164)
(-3.4333104e-06 -6.7575468e-06 1.8221163)
(-6.3780786e-06 -6.3780786e-06 1.8221146)
(-2.1013876e-06 -5.9664987e-06 1.8221139)
(2.1984467e-06 -5.4792895e-06 1.8221143)
(4.7242767e-06 -4.8101625e-06 1.8221159)
(3.2991554e-06 -3.8421421e-06 1.8221178)
(4.1450547e-07 -2.665112e-06 1.8221178)
(-1.2968176e-07 -1.5541691e-06 1.8221176)
(-3.5246541e-07 -3.5890649e-06 1.8221158)
(3.5948631e-07 -3.0734857e-06 1.8221154)
(-3.0193413e-06 -2.5689518e-06 1.8221154)
(-5.9664988e-06 -2.1013875e-06 1.8221139)
(-1.6701627e-06 -1.6701627e-06 1.8221132)
(2.6932974e-06 -1.243376e-06 1.8221138)
(5.3439252e-06 -7.835008e-07 1.8221155)
(4.0606905e-06 -2.5533688e-07 1.8221175)
(1.2302791e-06 3.1446846e-07 1.8221178)
(1.3935124e-07 8.380454e-07 1.8221178)
(-1.5775635e-07 7.6704469e-08 1.8221158)
(9.4698268e-07 7.6349509e-07 1.8221155)
(-2.4612123e-06 1.5369611e-06 1.8221158)
(-5.4792895e-06 2.1984467e-06 1.8221143)
(-1.243376e-06 2.6932973e-06 1.8221138)
(3.0851085e-06 3.0851085e-06 1.8221145)
(5.7123158e-06 3.4093749e-06 1.8221163)
(4.3971247e-06 3.6627072e-06 1.8221184)
(1.5078878e-06 3.8225716e-06 1.8221188)
(2.1936953e-07 3.881798e-06 1.8221188)
(1.05395e-07 1.9336714e-06 1.8221166)
(1.8197429e-06 2.5948965e-06 1.8221166)
(-1.5843897e-06 3.7067779e-06 1.8221171)
(-4.8101625e-06 4.7242767e-06 1.8221159)
(-7.8350081e-07 5.3439252e-06 1.8221155)
(3.4093749e-06 5.7123158e-06 1.8221163)
(5.921524e-06 5.9215239e-06 1.8221182)
(4.4738872e-06 5.9552033e-06 1.8221204)
(1.4493698e-06 5.7685404e-06 1.8221206)
(1.7883552e-07 5.3744154e-06 1.8221207)
(2.830604e-07 1.6621327e-06 1.8221176)
(2.7200892e-06 1.1028127e-06 1.8221178)
(-3.3183212e-07 1.91564e-06 1.8221187)
(-3.8421422e-06 3.2991554e-06 1.8221178)
(-2.5533688e-07 4.0606905e-06 1.8221175)
(3.6627072e-06 4.3971247e-06 1.8221184)
(5.9552033e-06 4.4738872e-06 1.8221204)
(4.2441412e-06 4.2441412e-06 1.8221225)
(9.2709986e-07 3.609665e-06 1.8221226)
(-4.3380477e-08 2.6665253e-06 1.8221223)
(-2.6748494e-07 1.5531764e-06 1.8221177)
(2.0732503e-06 -4.1356041e-07 1.8221174)
(6.1195299e-07 -1.057694e-06 1.8221183)
(-2.665112e-06 4.1450546e-07 1.8221178)
(3.1446847e-07 1.2302791e-06 1.8221178)
(3.8225716e-06 1.5078878e-06 1.8221188)
(5.7685404e-06 1.4493698e-06 1.8221206)
(3.609665e-06 9.2709984e-07 1.8221226)
(-1.2824602e-07 -1.2824603e-07 1.8221222)
(-4.4992424e-07 2.4086753e-07 1.8221212)
(-1.0280975e-06 7.0807695e-07 1.8221182)
(1.0921879e-07 -5.2535611e-08 1.8221173)
(4.9623375e-07 -6.0127738e-07 1.8221178)
(-1.5541691e-06 -1.2968177e-07 1.8221176)
(8.3804543e-07 1.3935123e-07 1.8221178)
(3.881798e-06 2.1936954e-07 1.8221188)
(5.3744154e-06 1.788355e-07 1.8221207)
(2.6665254e-06 -4.3380486e-08 1.8221223)
(2.4086755e-07 -4.4992424e-07 1.8221212)
(2.0269523e-07 2.0269523e-07 1.8221218)
(-1.6338993e-06 -1.6338993e-06 1.8234504)
(2.249481e-06 1.8818523e-06 1.8234495)
(-1.7528681e-07 -4.349086e-07 1.8234506)
(-8.2661735e-06 -6.7000562e-07 1.823449)
(-4.0184089e-06 -4.88405e-07 1.8234481)
(5.9360664e-07 -2.4122676e-07 1.8234483)
(2.9220536e-06 1.1018545e-07 1.8234493)
(2.2747248e-06 3.6755839e-07 1.8234505)
(1.8811994e-06 -3.5172301e-07 1.8234507)
(8.713795e-07 -1.2917503e-06 1.8234512)
(1.8818523e-06 2.249481e-06 1.8234495)
(4.0479671e-06 4.0479671e-06 1.82345)
(-4.0030736e-06 -6.8641363e-08 1.8234502)
(-8.3464181e-06 -3.067967e-07 1.8234486)
(-3.3752406e-06 2.2566961e-07 1.8234478)
(1.4914923e-06 9.6952816e-07 1.8234481)
(3.8352313e-06 2.1082292e-06 1.8234494)
(1.5818621e-06 3.3088635e-06 1.8234508)
(-6.0776365e-07 2.4362238e-06 1.8234505)
(-6.8647765e-08 -1.6920413e-09 1.8234505)
(-4.3490859e-07 -1.7528679e-07 1.8234506)
(-6.8641358e-08 -4.0030737e-06 1.8234502)
(-4.5300506e-06 -4.5300506e-06 1.8234502)
(-7.9718625e-06 -4.19707e-06 1.8234487)
(-2.742084e-06 -3.6787112e-06 1.823448)
(2.4761663e-06 -2.9732374e-06 1.8234485)
(5.2613889e-06 -1.8561939e-06 1.82345)
(2.6027193e-06 -2.6146588e-07 1.8234517)
(-1.4293561e-06 8.8288269e-07 1.8234515)
(-7.5389771e-07 6.9820444e-07 1.8234511)
(-6.7000563e-07 -8.2661734e-06 1.823449)
(-3.0679672e-07 -8.3464181e-06 1.8234486)
(-4.19707e-06 -7.9718625e-06 1.8234487)
(-7.4950786e-06 -7.4950786e-06 1.8234472)
(-2.151408e-06 -6.9744815e-06 1.8234466)
(3.3140096e-06 -6.3571193e-06 1.8234473)
(6.5470028e-06 -5.5085506e-06 1.823449)
(4.3209387e-06 -4.2863745e-06 1.8234511)
(3.5190668e-07 -2.8349147e-06 1.8234512)
(-1.9176659e-07 -1.496627e-06 1.823451)
(-4.8840501e-07 -4.0184089e-06 1.8234481)
(2.256696e-07 -3.3752406e-06 1.8234478)
(-3.6787112e-06 -2.742084e-06 1.823448)
(-6.9744815e-06 -2.151408e-06 1.8234466)
(-1.6041247e-06 -1.6041247e-06 1.8234462)
(3.9420972e-06 -1.0624666e-06 1.8234469)
(7.3321336e-06 -4.7914151e-07 1.8234488)
(5.2763553e-06 1.8940773e-07 1.823451)
(1.3603914e-06 9.0095386e-07 1.8234513)
(1.3829407e-07 1.5473305e-06 1.8234513)
(-2.4122676e-07 5.9360664e-07 1.8234483)
(9.6952816e-07 1.4914923e-06 1.8234481)
(-2.9732374e-06 2.4761663e-06 1.8234485)
(-6.3571193e-06 3.3140096e-06 1.8234473)
(-1.0624666e-06 3.9420971e-06 1.8234469)
(4.4389928e-06 4.4389928e-06 1.8234478)
(7.7988772e-06 4.8478942e-06 1.8234498)
(5.701034e-06 5.1632041e-06 1.8234521)
(1.7098295e-06 5.3524511e-06 1.8234525)
(2.391512e-07 5.4097111e-06 1.8234525)
(1.1018544e-07 2.9220536e-06 1.8234493)
(2.1082292e-06 3.8352313e-06 1.8234494)
(-1.8561939e-06 5.2613889e-06 1.82345)
(-5.5085507e-06 6.5470028e-06 1.823449)
(-4.7914152e-07 7.3321336e-06 1.8234488)
(4.8478943e-06 7.7988771e-06 1.8234498)
(8.0563449e-06 8.0563449e-06 1.8234518)
(5.7809121e-06 8.0731789e-06 1.8234542)
(1.6068984e-06 7.7739125e-06 1.8234545)
(1.7646739e-07 7.1632362e-06 1.8234545)
(3.675584e-07 2.2747247e-06 1.8234505)
(3.3088635e-06 1.5818621e-06 1.8234508)
(-2.6146589e-07 2.6027193e-06 1.8234517)
(-4.2863746e-06 4.3209387e-06 1.8234511)
(1.8940771e-07 5.2763553e-06 1.823451)
(5.1632041e-06 5.701034e-06 1.8234521)
(8.0731789e-06 5.780912e-06 1.8234542)
(5.4186017e-06 5.4186017e-06 1.8234564)
(7.9988678e-07 4.4296758e-06 1.8234566)
(-1.6796638e-07 2.9296013e-06 1.8234562)
(-3.5172298e-07 1.8811993e-06 1.8234507)
(2.4362238e-06 -6.0776365e-07 1.8234505)
(8.8288265e-07 -1.4293562e-06 1.8234515)
(-2.8349147e-06 3.5190667e-07 1.8234512)
(9.0095387e-07 1.3603914e-06 1.8234513)
(5.352451e-06 1.7098295e-06 1.8234525)
(7.7739125e-06 1.6068983e-06 1.8234545)
(4.4296759e-06 7.9988676e-07 1.8234566)
(-8.8210199e-07 -8.8210202e-07 1.8234562)
(-8.2358228e-07 -6.3052515e-08 1.8234551)
(-1.2917503e-06 8.7137951e-07 1.8234512)
(-1.6920342e-09 -6.8647776e-08 1.8234505)
(6.9820443e-07 -7.5389771e-07 1.8234511)
(-1.496627e-06 -1.9176658e-07 1.823451)
(1.5473305e-06 1.3829407e-07 1.8234513)
(5.409711e-06 2.391512e-07 1.8234525)
(7.1632361e-06 1.764674e-07 1.8234545)
(2.9296013e-06 -1.6796639e-07 1.8234562)
(-6.3052489e-08 -8.2358229e-07 1.8234551)
(3.7806662e-07 3.7806661e-07 1.8234556)
(-1.9074311e-06 -1.9074311e-06 1.8251002)
(2.3902267e-06 2.0518211e-06 1.8250995)
(-3.3712568e-07 -5.4839713e-07 1.8251006)
(-9.3675379e-06 -8.0532104e-07 1.8250992)
(-4.2641504e-06 -5.9275829e-07 1.8250986)
(1.2759845e-06 -2.9556776e-07 1.8250989)
(4.0742583e-06 1.4097452e-07 1.8251)
(3.0374015e-06 4.754787e-07 1.8251013)
(2.2855165e-06 -4.1199896e-07 1.8251016)
(1.0408515e-06 -1.5220758e-06 1.8251022)
(2.0518211e-06 2.3902267e-06 1.8250995)
(4.4287777e-06 4.4287777e-06 1.8251)
(-4.6228388e-06 -1.8489091e-07 1.8251003)
(-9.4340796e-06 -4.3007904e-07 1.8250989)
(-3.4995205e-06 1.9815347e-07 1.8250983)
(2.3765838e-06 1.091815e-06 1.8250988)
(5.230828e-06 2.48704e-06 1.8251001)
(2.2079413e-06 3.9765852e-06 1.8251016)
(-7.1081527e-07 2.869801e-06 1.8251015)
(-6.9225386e-08 -2.4657488e-08 1.8251015)
(-5.4839713e-07 -3.3712566e-07 1.8251006)
(-1.8489091e-07 -4.6228388e-06 1.8251003)
(-5.1959824e-06 -5.1959824e-06 1.8251004)
(-8.9844935e-06 -4.7943695e-06 1.8250991)
(-2.7422564e-06 -4.1749048e-06 1.8250986)
(3.5648711e-06 -3.3274497e-06 1.8250992)
(6.9590285e-06 -1.9787129e-06 1.8251008)
(3.4201625e-06 -5.5839983e-08 1.8251027)
(-1.7157262e-06 1.2691688e-06 1.8251026)
(-8.8878754e-07 1.0084327e-06 1.8251022)
(-8.0532105e-07 -9.3675379e-06 1.8250992)
(-4.3007905e-07 -9.4340796e-06 1.8250989)
(-4.7943695e-06 -8.9844935e-06 1.8250991)
(-8.413002e-06 -8.413002e-06 1.8250978)
(-2.0326007e-06 -7.7869923e-06 1.8250974)
(4.5727756e-06 -7.0443703e-06 1.8250982)
(8.5024377e-06 -6.02307e-06 1.8251)
(5.455823e-06 -4.5570931e-06 1.8251022)
(3.5345744e-07 -2.8473746e-06 1.8251023)
(-2.4304943e-07 -1.297882e-06 1.8251022)
(-5.927583e-07 -4.2641504e-06 1.8250986)
(1.9815347e-07 -3.4995205e-06 1.8250983)
(-4.1749048e-06 -2.7422563e-06 1.8250986)
(-7.7869923e-06 -2.0326007e-06 1.8250974)
(-1.3736247e-06 -1.3736247e-06 1.8250971)
(5.3287935e-06 -7.2200358e-07 1.825098)
(9.4463057e-06 -2.0643467e-08 1.8251)
(6.5958578e-06 7.8208845e-07 1.8251023)
(1.543485e-06 1.6278972e-06 1.8251027)
(1.4420756e-07 2.3902638e-06 1.8251027)
(-2.9556775e-07 1.2759845e-06 1.8250989)
(1.091815e-06 2.3765838e-06 1.8250988)
(-3.3274498e-06 3.5648711e-06 1.8250992)
(-7.0443703e-06 4.5727756e-06 1.8250982)
(-7.2200359e-07 5.3287935e-06 1.825098)
(5.9257568e-06 5.9257568e-06 1.825099)
(1.000653e-05 6.4145999e-06 1.825101)
(7.1043636e-06 6.7878826e-06 1.8251034)
(1.9616328e-06 7.0034569e-06 1.8251039)
(2.6519497e-07 7.057674e-06 1.825104)
(1.4097452e-07 4.0742583e-06 1.8251)
(2.48704e-06 5.230828e-06 1.8251001)
(-1.9787129e-06 6.9590285e-06 1.8251008)
(-6.0230699e-06 8.5024378e-06 1.8251)
(-2.0643479e-08 9.4463057e-06 1.8251)
(6.4145999e-06 1.000653e-05 1.825101)
(1.0308431e-05 1.0308431e-05 1.8251032)
(7.1847148e-06 1.0304944e-05 1.8251056)
(1.8132764e-06 9.8875735e-06 1.825106)
(1.8035231e-07 9.0501569e-06 1.825106)
(4.7547872e-07 3.0374015e-06 1.8251013)
(3.9765852e-06 2.2079413e-06 1.8251016)
(-5.583999e-08 3.4201625e-06 1.8251027)
(-4.5570931e-06 5.455823e-06 1.8251022)
(7.8208846e-07 6.5958578e-06 1.8251023)
(6.7878826e-06 7.1043636e-06 1.8251034)
(1.0304944e-05 7.1847148e-06 1.8251056)
(6.6835057e-06 6.6835057e-06 1.825108)
(7.0684593e-07 5.3178564e-06 1.8251082)
(-2.9308276e-07 3.2153132e-06 1.8251078)
(-4.1199895e-07 2.2855165e-06 1.8251016)
(2.869801e-06 -7.1081529e-07 1.8251015)
(1.2691688e-06 -1.7157262e-06 1.8251026)
(-2.8473746e-06 3.5345743e-07 1.8251023)
(1.6278972e-06 1.5434849e-06 1.8251027)
(7.0034569e-06 1.9616328e-06 1.8251039)
(9.8875735e-06 1.8132764e-06 1.825106)
(5.3178564e-06 7.0684592e-07 1.8251082)
(-1.6549161e-06 -1.6549161e-06 1.8251078)
(-1.2213431e-06 -4.1422897e-07 1.8251067)
(-1.5220758e-06 1.0408515e-06 1.8251022)
(-2.4657465e-08 -6.9225387e-08 1.8251015)
(1.0084327e-06 -8.8878753e-07 1.8251022)
(-1.297882e-06 -2.4304943e-07 1.8251022)
(2.3902638e-06 1.4420756e-07 1.8251027)
(7.057674e-06 2.6519497e-07 1.825104)
(9.0501569e-06 1.8035231e-07 1.825106)
(3.2153132e-06 -2.9308276e-07 1.8251078)
(-4.1422896e-07 -1.2213431e-06 1.8251067)
(5.3404201e-07 5.34042e-07 1.8251071)
(-2.1484128e-06 -2.1484128e-06 1.8270581)
(2.5923123e-06 2.2282671e-06 1.8270574)
(-3.9771484e-07 -6.3986498e-07 1.8270585)
(-1.0298076e-05 -9.1715783e-07 1.8270574)
(-4.3639445e-06 -6.7508457e-07 1.8270568)
(2.0737221e-06 -3.3006273e-07 1.8270573)
(5.3246805e-06 1.8845748e-07 1.8270585)
(3.8890428e-06 5.9749815e-07 1.8270598)
(2.7398284e-06 -4.5426441e-07 1.8270602)
(1.215486e-06 -1.7275155e-06 1.8270608)
(2.2282671e-06 2.5923123e-06 1.8270574)
(4.8551341e-06 4.8551341e-06 1.8270579)
(-5.1158522e-06 -2.2799303e-07 1.8270583)
(-1.0350905e-05 -4.7883773e-07 1.8270571)
(-3.4833018e-06 2.409992e-07 1.8270566)
(3.3690351e-06 1.2781317e-06 1.8270572)
(6.7160218e-06 2.9201188e-06 1.8270586)
(2.92496e-06 4.6875361e-06 1.8270602)
(-7.4769203e-07 3.3481947e-06 1.8270601)
(-5.7765045e-08 1.3684961e-08 1.8270602)
(-6.3986499e-07 -3.9771483e-07 1.8270585)
(-2.2799304e-07 -5.1158522e-06 1.8270583)
(-5.7316867e-06 -5.7316867e-06 1.8270585)
(-9.8290837e-06 -5.2638491e-06 1.8270573)
(-2.606975e-06 -4.5473572e-06 1.8270569)
(4.7528417e-06 -3.5638447e-06 1.8270577)
(8.7340849e-06 -1.9927431e-06 1.8270594)
(4.3171187e-06 2.44396e-07 1.8270613)
(-1.9340227e-06 1.7368671e-06 1.8270612)
(-1.0075205e-06 1.3983014e-06 1.8270609)
(-9.1715783e-07 -1.0298076e-05 1.8270574)
(-4.7883774e-07 -1.0350905e-05 1.8270571)
(-5.2638491e-06 -9.8290837e-06 1.8270573)
(-9.1665758e-06 -9.1665758e-06 1.8270562)
(-1.7832975e-06 -8.4395983e-06 1.8270559)
(5.9236493e-06 -7.5773225e-06 1.8270568)
(1.0524263e-05 -6.3908929e-06 1.8270587)
(6.6545702e-06 -4.6920489e-06 1.8270609)
(4.0621334e-07 -2.7380607e-06 1.8270611)
(-2.8347554e-07 -9.9011431e-07 1.827061)
(-6.7508455e-07 -4.3639445e-06 1.8270568)
(2.4099918e-07 -3.4833018e-06 1.8270566)
(-4.5473572e-06 -2.606975e-06 1.8270569)
(-8.4395983e-06 -1.7832975e-06 1.8270559)
(-1.0177217e-06 -1.0177218e-06 1.8270558)
(6.801547e-06 -2.6165213e-07 1.8270568)
(1.1619358e-05 5.5165841e-07 1.8270588)
(7.9699509e-06 1.4817337e-06 1.8270611)
(1.7679118e-06 2.4545473e-06 1.8270615)
(1.5777711e-07 3.3269564e-06 1.8270616)
(-3.3006272e-07 2.0737221e-06 1.8270573)
(1.2781317e-06 3.3690351e-06 1.8270572)
(-3.5638447e-06 4.7528417e-06 1.8270577)
(-7.5773225e-06 5.9236493e-06 1.8270568)
(-2.6165214e-07 6.801547e-06 1.8270568)
(7.4930294e-06 7.4930294e-06 1.8270578)
(1.2267648e-05 8.0567091e-06 1.8270599)
(8.557459e-06 8.4837745e-06 1.8270624)
(2.251436e-06 8.7231465e-06 1.8270628)
(2.9813052e-07 8.7743669e-06 1.827063)
(1.8845748e-07 5.3246805e-06 1.8270585)
(2.9201188e-06 6.7160218e-06 1.8270586)
(-1.9927431e-06 8.7340849e-06 1.8270594)
(-6.3908929e-06 1.0524263e-05 1.8270587)
(5.516584e-07 1.1619359e-05 1.8270588)
(8.0567091e-06 1.2267648e-05 1.8270599)
(1.2610104e-05 1.2610104e-05 1.8270621)
(8.6363884e-06 1.2584336e-05 1.8270645)
(2.0585043e-06 1.2048789e-05 1.827065)
(1.9192401e-07 1.0985525e-05 1.8270651)
(5.9749817e-07 3.8890428e-06 1.8270598)
(4.6875362e-06 2.92496e-06 1.8270602)
(2.4439603e-07 4.3171187e-06 1.8270613)
(-4.6920489e-06 6.6545702e-06 1.8270609)
(1.4817337e-06 7.969951e-06 1.8270611)
(8.4837745e-06 8.5574591e-06 1.8270624)
(1.2584336e-05 8.6363884e-06 1.8270645)
(7.9961441e-06 7.9961441e-06 1.8270669)
(6.526257e-07 6.2513341e-06 1.8270672)
(-4.1071158e-07 3.5383281e-06 1.8270668)
(-4.542644e-07 2.7398285e-06 1.8270602)
(3.3481947e-06 -7.4769202e-07 1.8270601)
(1.7368671e-06 -1.9340228e-06 1.8270612)
(-2.7380607e-06 4.062133e-07 1.8270611)
(2.4545473e-06 1.7679118e-06 1.8270615)
(8.7231465e-06 2.251436e-06 1.8270628)
(1.2048789e-05 2.0585043e-06 1.827065)
(6.2513341e-06 6.5262569e-07 1.8270672)
(-2.3993117e-06 -2.3993118e-06 1.8270669)
(-1.6167467e-06 -7.6159822e-07 1.8270657)
(-1.7275155e-06 1.215486e-06 1.8270608)
(1.3684956e-08 -5.7765045e-08 1.8270602)
(1.3983014e-06 -1.0075205e-06 1.8270609)
(-9.9011431e-07 -2.8347556e-07 1.827061)
(3.3269564e-06 1.577771e-07 1.8270616)
(8.7743669e-06 2.9813051e-07 1.827063)
(1.0985525e-05 1.9192402e-07 1.8270651)
(3.5383281e-06 -4.1071157e-07 1.8270668)
(-7.6159822e-07 -1.6167467e-06 1.8270657)
(6.8109745e-07 6.8109744e-07 1.8270662)
(-2.3643075e-06 -2.3643075e-06 1.8293117)
(2.826814e-06 2.4025269e-06 1.8293111)
(-3.8576107e-07 -7.1594628e-07 1.8293122)
(-1.1081368e-05 -1.0119244e-06 1.8293112)
(-4.3465495e-06 -7.4186581e-07 1.8293108)
(2.949908e-06 -3.5125236e-07 1.8293113)
(6.6290442e-06 2.4588068e-07 1.8293126)
(4.7896342e-06 7.2675019e-07 1.829314)
(3.2228323e-06 -4.832728e-07 1.8293144)
(1.3920776e-06 -1.9120168e-06 1.8293149)
(2.4025269e-06 2.826814e-06 1.8293111)
(5.2993559e-06 5.2993559e-06 1.8293116)
(-5.5074381e-06 -2.2213676e-07 1.829312)
(-1.1120247e-05 -4.7718607e-07 1.8293109)
(-3.3555414e-06 3.2964937e-07 1.8293106)
(4.4315277e-06 1.5034652e-06 1.8293113)
(8.2460481e-06 3.3815369e-06 1.8293128)
(3.695904e-06 5.4151596e-06 1.8293144)