/*--------------------------------*- C++ -*----------------------------------*\
| =========                 |                                                 |
| \\      /  F ield         | OpenFOAM: The Open Source CFD Toolbox           |
|  \\    /   O peration     | Version:  v2106                                 |
|   \\  /    A nd           | Website:  www.openfoam.com                      |
|    \\/     M anipulation  |                                                 |
\*---------------------------------------------------------------------------*/
FoamFile
{
    version     2.0;
    format      ascii;
    arch        "LSB;label=32;scalar=64";
    class       volScalarField;
    location    "27.5";
    object      gradTy;
}
// * * * * * * * * * * * * * * * * * * * * * * * * * * * * * * * * * * * * * //

dimensions      [0 -1 0 1 0 0 0];

internalField   nonuniform List<scalar> 
4000
(
-0.00014536209
0.00030124495
3.0965085e-05
4.6859062e-07
1.3927022e-05
2.6396243e-05
3.8737793e-05
4.6621068e-05
3.1951682e-05
-3.4895885e-06
0.00041602255
0.00068051331
0.00021585724
0.00018201187
0.00021844476
0.00025495281
0.00029967698
0.00034472541
0.00033472074
0.0002214362
0.00032247781
-0.00012868673
-0.00017602363
-0.00014922552
-0.00011963244
-8.6280095e-05
-3.6826097e-05
3.3383111e-05
9.7634728e-05
9.3715809e-05
-0.00054497989
-0.00057053699
-0.00054239237
-0.0005141458
-0.00048856573
-0.00046000759
-0.00042112941
-0.00036379265
-0.00028601684
-0.00020399842
-0.00030286441
-0.00026397294
-0.00022992347
-0.00020102751
-0.00017578526
-0.00015112881
-0.00012459262
-9.4130318e-05
-5.9731096e-05
-2.7735341e-05
-4.8029971e-05
-1.0813814e-05
3.3202243e-05
7.1992527e-05
0.00010063857
0.00012318516
0.00014219164
0.00015742098
0.00016806203
0.00017319645
7.6983521e-05
0.00010732077
0.00016675612
0.00022698397
0.00026297105
0.00028398246
0.00029720687
0.00030284191
0.00030022924
0.00029177152
0.00010306827
9.288911e-05
0.00013811203
0.00022734993
0.0002732246
0.00029221146
0.00029909499
0.00029523383
0.00027962024
0.0002568676
7.300982e-05
-2.1561693e-06
-5.0279398e-05
5.8176536e-05
0.00010951484
0.0001245715
0.00012529031
0.00011350113
8.6924084e-05
5.3130026e-05
1.6988436e-05
-1.8452838e-05
-5.8534593e-05
-2.1065449e-05
-3.8556505e-06
2.6504827e-07
-4.3270036e-07
-5.3734254e-06
-1.5601129e-05
-2.7902796e-05
-0.00028444689
0.00051467654
-2.5119781e-05
-8.6655971e-05
-5.5232465e-05
-2.0935223e-05
1.7047962e-05
3.777393e-05
-3.014083e-05
-0.00013380023
0.00083808224
0.0012270729
0.00027121094
0.00019724073
0.00028548581
0.0003893792
0.00052604468
0.00065746509
0.00058180367
0.00025813313
0.00045641031
-0.00044558846
-0.00057342187
-0.00052011628
-0.00044137055
-0.00034235833
-0.00019266121
1.7466064e-05
0.00018977529
0.00016828507
-0.0014248956
-0.0014700646
-0.0014106207
-0.0013380133
-0.0012639504
-0.0011781854
-0.0010609269
-0.0008896025
-0.00066788946
-0.00044483582
-0.00080254914
-0.00070396802
-0.00061041066
-0.00052621006
-0.0004505828
-0.00037629671
-0.00029612795
-0.00020357131
-0.00010021468
-3.1337387e-06
-0.00011023412
-1.8134898e-06
0.00013032475
0.00024689585
0.00033334822
0.0004013507
0.00045833902
0.00050418822
0.00053627784
0.00055228024
0.00024885471
0.00033691843
0.0005169406
0.00069674283
0.00080552349
0.00086946823
0.00090836101
0.00092268298
0.00090956998
0.00087433918
0.00031411084
0.00024332765
0.00036986983
0.00062576416
0.00076290726
0.00082167744
0.00084084608
0.00082288641
0.00076307226
0.00067332998
0.00027553359
1.8172351e-05
-0.00012379838
0.00016899135
0.0003209683
0.00036942892
0.00036906032
0.00032108514
0.0002195039
0.00012208778
8.9677153e-05
-1.3982248e-05
-0.00012610321
-2.8309069e-05
2.2599221e-05
3.641156e-05
3.326748e-05
1.2924364e-05
-2.6560707e-05
-5.201972e-05
-0.00038366539
0.00063416418
-4.9894917e-05
-0.00012494551
-7.9081016e-05
-2.3061991e-05
4.650234e-05
8.6462775e-05
-6.5264947e-05
-0.00028585014
0.00091271659
0.0014133723
0.00019488097
0.000107982
0.00023949042
0.00040942308
0.00064971182
0.00088747477
0.00071319277
0.0001347007
0.00024357513
-0.0008950894
-0.0010618152
-0.00098383739
-0.00086103603
-0.00069882885
-0.00044743912
-8.9468806e-05
0.00019431073
0.00016824523
-0.0021628434
-0.0022066226
-0.002118234
-0.0020058434
-0.0018859235
-0.0017447994
-0.0015512843
-0.0012698866
-0.00091757281
-0.00057460109
-0.0011725699
-0.0010197446
-0.00087112879
-0.00073473605
-0.00061008473
-0.00048695865
-0.00035419899
-0.00020130287
-3.3537664e-05
0.00012273678
-8.725512e-05
0.0001011199
0.00032296629
0.00051471683
0.00065760551
0.00077060257
0.00086474932
0.000939524
0.00098956118
0.0010118722
0.00047246787
0.00063675502
0.00095051956
0.0012461151
0.0014254323
0.0015317708
0.0015943538
0.0016114473
0.0015747959
0.0014905297
0.00049690975
0.00032925882
0.00056039069
0.00097100866
0.0011941022
0.00129167
0.001318914
0.0012721121
0.0011361159
0.00093542863
0.00050898271
-4.9486658e-05
-0.00024379136
0.00020822738
0.00045149417
0.00053226704
0.00052384242
0.00041134945
0.00018715889
0.00016007258
0.00021161997
-8.965219e-06
-0.0001740414
-2.6342213e-05
5.4606412e-05
7.7840751e-05
6.9480459e-05
2.1663261e-05
-6.4311083e-05
3.6057157e-06
-0.00052559966
0.0006924062
-0.00011571569
-0.00020059034
-0.00014098617
-6.3102536e-05
4.2158006e-05
0.00011322416
-0.00010699397
-0.000411239
0.00088613074
0.0015009567
6.2639762e-05
-2.925218e-05
0.00014379452
0.00037879307
0.00072789717
0.0010880357
0.00082930011
4.3687512e-05
5.1624612e-05
-0.0012878702
-0.0014785843
-0.0013733242
-0.0012077365
-0.00098448492
-0.00063375588
-0.00013273284
0.00024478119
0.00019849351
-0.0027841735
-0.0028220792
-0.0027030187
-0.0025512314
-0.0023865995
-0.0021917158
-0.001924065
-0.0015368569
-0.0010660448
-0.00062166763
-0.001435626
-0.0012293943
-0.0010275807
-0.00084055502
-0.00066806506
-0.00049735039
-0.00031340032
-0.00010213475
0.00012578738
0.00033521816
3.0681788e-05
0.00030539803
0.00061478444
0.00087937867
0.0010773189
0.0012340434
0.00136375
0.0014650829
0.0015290286
0.0015527192
0.00077346854
0.0010379586
0.0014827112
0.0018897107
0.0021375701
0.0022849263
0.0023686096
0.0023820813
0.0023074162
0.0021497662
0.00066485306
0.0004411251
0.000766256
0.0013196622
0.0016242762
0.0017588499
0.0017895549
0.0016976565
0.001443866
0.0010666101
0.00062127058
-0.00016542416
-0.00042307759
0.00016580218
0.00049211163
0.00060315511
0.00057974792
0.00037083994
-5.1298412e-05
9.6347011e-05
0.00028323078
-2.1014245e-05
-0.00024051095
-5.1872708e-05
5.5740492e-05
8.7747816e-05
7.1534202e-05
-1.7352194e-05
-0.0001799697
8.107809e-05
-0.00065355973
0.00075274091
-0.00017396344
-0.00026800225
-0.000195362
-9.6490704e-05
4.407418e-05
0.00014702336
-0.0001406892
-0.00051670011
0.00089979241
0.0016191868
-2.7456545e-05
-0.00012271868
9.0267843e-05
0.00038781126
0.00084329169
0.0013235454
0.00097448951
-6.7681652e-07
-7.0114716e-05
-0.0016012295
-0.0018120203
-0.001678828
-0.0014714845
-0.001189295
-0.00074247756
-0.00010458635
0.00035315307
0.00027928178
-0.0033064694
-0.0033385672
-0.003188745
-0.0029980314
-0.0027897926
-0.0025428477
-0.0022034203
-0.0017145498
-0.0011339659
-0.00059865082
-0.0016073636
-0.0013500962
-0.0010968336
-0.00086056319
-0.00064164989
-0.00042498665
-0.0001916566
7.5763091e-05
0.00036038154
0.00061893222
0.00023744266
0.00059659693
0.00099046651
0.0013256038
0.0015768389
0.0017755971
0.0019391577
0.0020652816
0.0021409804
0.0021638844
0.0011688214
0.0015340925
0.0021045555
0.0026188011
0.0029328534
0.0031195509
0.0032225379
0.0032292715
0.003109565
0.0028652945
0.0009098899
0.00063274484
0.0010410877
0.0017283755
0.0021105421
0.0022804136
0.0023123648
0.0021674407
0.0017718703
0.0011718405
0.00075247974
-0.00024310546
-0.00057174246
0.00014076267
0.00054415656
0.0006839318
0.00064275933
0.0003199547
-0.00035284081
-2.5221006e-05
0.0003485518
-2.745911e-05
-0.00030155908
-7.6706633e-05
5.5317627e-05
9.5660482e-05
7.0586958e-05
-6.7186555e-05
-0.00032943291
0.00015122665
-0.00076297245
0.00082072843
-0.00021935885
-0.00032212842
-0.00023710332
-0.0001182271
5.6389808e-05
0.00019019148
-0.00016479958
-0.00060883032
0.00095609068
0.0017715111
-7.3956362e-05
-0.00017203161
7.9261388e-05
0.00043672601
0.000994816
0.0015906341
0.0011479204
-9.8629954e-06
-0.00013485026
-0.0018491355
-0.002078393
-0.0019177478
-0.0016699619
-0.0013309799
-0.00079148517
-2.2335993e-05
0.00050766752
0.00040337309
-0.0037470151
-0.0037736319
-0.0035937974
-0.0033652008
-0.0031147969
-0.0028177481
-0.002409228
-0.0018228373
-0.0011389499
-0.00051915279
-0.0017056602
-0.0013998082
-0.0010969025
-0.00081304028
-0.00054944986
-0.00028880143
-8.2573866e-06
0.00031283538
0.00065115887
0.00095610552
0.00051039382
0.0009506335
0.0014259484
0.0018291103
0.0021315174
0.0023703027
0.00256584
0.002715153
0.0028013827
0.0028230696
0.0016297033
0.0020923312
0.0027836114
0.0034009751
0.0037785223
0.0040026119
0.0041233726
0.0041219775
0.0039550294
0.0036200628
0.0012149606
0.0008831765
0.001368065
0.0021823292
0.0026383431
0.0028417455
0.0028738859
0.0026734023
0.0021271425
0.0012861253
0.00091420659
-0.00028432612
-0.00068629048
0.00014138297
0.00061739398
0.0007846531
0.00072531055
0.00028273837
-0.00066196645
-0.00016569159
0.00041634058
-2.7690155e-05
-0.00035551501
-9.7219772e-05
5.7683022e-05
0.00010607799
7.2140924e-05
-0.0001172331
-0.00048853724
0.0002136168
-0.00085936514
0.00089130684
-0.00025594599
-0.00036686313
-0.00027003383
-0.00013202509
7.5382992e-05
0.00023899926
-0.00018170576
-0.0006910062
0.0010369249
0.0019420536
-9.1197213e-05
-0.00019153509
9.6399679e-05
0.00051125269
0.0011680475
0.0018750145
0.0013392779
5.4739843e-06
-0.00015908593
-0.0020463409
-0.0022926747
-0.0021055396
-0.0018189429
-0.0014255379
-0.00079709723
9.7758401e-05
0.00069474684
0.00055932055
-0.0041192304
-0.0041403621
-0.0039316335
-0.0036666303
-0.0033758393
-0.003030929
-0.0025563572
-0.0018768196
-0.0010952243
-0.00039604573
-0.0017455778
-0.0013933207
-0.00104279
-0.00071331899
-0.0004070887
-0.00010466085
0.00022066336
0.00059269348
0.00098181892
0.0013307826
0.00082948883
0.001347614
0.0019011367
0.0023694597
0.0027206188
0.0029972118
0.0032226836
0.0033935098
0.0034892586
0.0035097468
0.0021298722
0.0026864087
0.003493634
0.004209705
0.0046477434
0.0049070594
0.0050440414
0.0050337343
0.0048195155
0.0043942102
0.0015556171
0.001169984
0.0017268475
0.0026618281
0.0031879804
0.0034229836
0.0034545554
0.0031984576
0.0025005336
0.0014153312
0.0010959314
-0.00029907681
-0.0007736091
0.00016248532
0.00070716473
0.0009005744
0.00082340171
0.00026105028
-0.00095972471
-0.00030463929
0.00048619442
-2.3106018e-05
-0.00040300819
-0.00011339022
6.3110838e-05
0.0001192522
7.6769608e-05
-0.00016428463
-0.00064669867
0.00027243898
-0.00094572301
0.00096101077
-0.00028637851
-0.00040476976
-0.00029674632
-0.00014050095
9.835227e-05
0.00029070008
-0.00019330912
-0.00076480671
0.0011307256
0.0021197424
-8.8854706e-05
-0.00019087443
0.00013185975
0.00060138606
0.0013526148
0.0021660638
0.0015399226
3.7983454e-05
-0.00015430443
-0.0022029752
-0.0024649212
-0.0022525183
-0.0019290172
-0.0014838482
-0.00077063582
0.00024397118
0.00090347589
0.00073719762
-0.0044325471
-0.0044480988
-0.0042118327
-0.0039121948
-0.0035830536
-0.0031927656
-0.0026555025
-0.0018875374
-0.0010137563
-0.00024007788
-0.0017386198
-0.0013422166
-0.0009463593
-0.00057354651
-0.00022693002
0.00011491382
0.00048242376
0.00090247538
0.0013394177
0.0017299294
0.0011799632
0.0017726111
0.0024007182
0.0029309925
0.0033282692
0.0036403462
0.0038936546
0.0040842708
0.0041885065
0.0042077162
0.0026516177
0.0032984192
0.0042162955
0.0050262387
0.0055215237
0.0058138002
0.0059654482
0.0059456616
0.005684979
0.0051714936
0.0019158537
0.0014783616
0.0021031616
0.0031524733
0.0037449078
0.0040094673
0.0040397597
0.0037289981
0.0028821272
0.0015564974
0.0012891329
-0.00029412726
-0.00083894747
0.00019909917
0.00080851201
0.0010265532
0.00093195748
0.00025238519
-0.0012405432
-0.0004340668
0.00055683102
-1.4666572e-05
-0.00044446178
-0.00012551875
7.1323862e-05
0.00013482234
8.4130378e-05
-0.00020750129
-0.00079962283
0.00033014965
-0.0010231372
0.0010278952
-0.0003119516
-0.00043709483
-0.00031855469
-0.00014506042
0.00012373047
0.00034358806
-0.00020079929
-0.00083100362
0.0012309081
0.0022976865
-7.2682453e-05
-0.0001758
0.00017967538
0.0007008685
0.001541756
0.0024565058
0.0017435724
8.2606133e-05
-0.00012831367
-0.0023257987
-0.0026018002
-0.002365528
-0.002007254
-0.0015132579
-0.0007199006
0.00040793132
0.0011255385
0.00092918991
-0.0046936807
-0.0047035853
-0.0044413229
-0.0041090391
-0.0037437872
-0.0033108088
-0.0027144968
-0.0018632028
-0.00090301269
-5.9890296e-05
-0.0016938124
-0.0012557608
-0.00081714387
-0.00040349062
-1.8913549e-05
0.00035986454
0.00076685854
0.0012318872
0.0017135453
0.0021429662
0.0015503842
0.002213812
0.0029124648
0.0035011653
0.0039417552
0.0042869374
0.0045659969
0.0047747141
0.0048864202
0.0049041616
0.0031822103
0.0039151831
0.0049378477
0.0058363723
0.0063854536
0.0067083949
0.0068732303
0.0068435925
0.0065377084
0.0059390499
0.0022849372
0.0017981426
0.0024867536
0.0036435816
0.0042982378
0.0045902683
0.0046186611
0.0042547465
0.003263531
0.0017046734
0.0014876291
-0.00027425844
-0.00088627061
0.00024700015
0.00091704192
0.0011580791
0.0010464894
0.00025353648
-0.0015035836
-0.00055210218
0.00062697247
-3.2318632e-06
-0.00048033838
-0.0001341309
8.1743213e-05
0.00015214971
9.3570826e-05
-0.00024695595
-0.00094566756
0.00038736504
-0.0010920234
0.0010906624
-0.00033338887
-0.00046452193
-0.00033620878
-0.00014655426
0.00015049311
0.00039648103
-0.00020495368
-0.00088999471
0.0013331184
0.0024710702
-4.6489834e-05
-0.00015011558
0.00023584513
0.00080540424
0.0017306622
0.0027409649
0.00194552
0.00013569582
-8.6734589e-05
-0.0024195112
-0.0027079204
-0.0024493174
-0.0020585936
-0.0015189635
-0.00065052094
0.0005834054
0.0013545125
0.0011291865
-0.0049074873
-0.0049117172
-0.0046251524
-0.0042623904
-0.0038634439
-0.0033906508
-0.0027392004
-0.0018100681
-0.00076961543
0.00013759908
-0.001618345
-0.0011413935
-0.00066282519
-0.00021103961
0.0002089144
0.00062202764
0.0010656972
0.0015725306
0.0020956692
0.0025611941
0.0019314864
0.0026615392
0.0034263035
0.0040696119
0.004550547
0.0049263947
0.0052291311
0.0054543115
0.0055725273
0.0055885889
0.0037116714
0.0045262243
0.0056472321
0.0066285932
0.0072278148
0.0075790961
0.0077557316
0.0077160787
0.0073666335
0.0066864004
0.0026548742
0.002121704
0.002869732
0.0041267374
0.004839317
0.0051567094
0.0051827132
0.0047676114
0.0036378805
0.0018550831
0.0016866115
-0.00024310211
-0.00091865762
0.00030267903
0.0010290096
0.0012913426
0.001163287
0.00026166431
-0.0017492412
-0.00065914838
0.00069545099
1.0409955e-05
-0.00051109849
-0.00013980732
9.3711184e-05
0.0001705426
0.00010441892
-0.00028294616
-0.0010841126
0.00044378242
-0.0011525592
0.0011483215
-0.00035116118
-0.00048748429
-0.00035020054
-0.00014556955
0.00017788603
0.00044847117
-0.0002063174
-0.00094198
0.0014341259
0.0026362229
-1.3034491e-05
-0.00011656891
0.00029744529
0.00091179358
0.0019156441
0.0030151984
0.0021420819
0.00019452004
-3.3772907e-05
-0.0024874816
-0.0027865648
-0.002507291
-0.0020866141
-0.0015047841
-0.00056672844
0.0007655683
0.0015853192
0.0013323428
-0.0050774728
-0.0050760319
-0.0047669931
-0.0043760812
-0.0039460207
-0.0034364739
-0.0027340613
-0.0017329768
-0.00061881194
0.00034681574
-0.0015179296
-0.0010050575
-0.0004895671
-2.5506386e-06
0.00045004017
0.00089476096
0.0013721724
0.0019174894
0.0024787179
0.002977377
0.0023156568
0.0031077866
0.0039338556
0.0046276723
0.005145815
0.0055498045
0.0058741229
0.0061141538
0.0062379718
0.0062521692
0.0042318419
0.0051229029
0.0063352467
0.0073932553
0.0080387438
0.0084159838
0.008603093
0.0085534444
0.0081624276
0.0074047456
0.0030193362
0.002443031
0.003245774
0.0045950786
0.0053610233
0.0057016241
0.0057248722
0.0052609587
0.0039995272
0.0020036639
0.0018822374
-0.00020343934
-0.00093844094
0.00036333509
0.0011413516
0.0014232227
0.001279367
0.0002745238
-0.0019779277
-0.00075612896
0.0007612613
2.55987e-05
-0.0005371133
-0.00014305226
0.0001066385
0.00018938718
0.00011610342
-0.0003157342
-0.0012144721
0.00049879832
-0.0012048064
0.0012000817
-0.0003655927
-0.00050627217
-0.00036087294
-0.00014253751
0.00020532064
0.00049882379
-0.00020529072
-0.00098704433
0.0015314268
0.0027902473
2.5604415e-05
-7.7230685e-05
0.00036224542
0.0010175488
0.0020937526
0.0032757314
0.0023302872
0.0002569728
2.7358385e-05
-0.0025321724
-0.0028401196
-0.0025419464
-0.002093974
-0.0014736067
-0.00047180174
0.00095057501
0.0018138536
0.0015347506
-0.0052061665
-0.0051990869
-0.0048695255
-0.0044529413
-0.0039945047
-0.0034514468
-0.0027025098
-0.0016357473
-0.00045482237
0.00056321587
-0.0013971116
-0.00085150958
-0.00030233214
0.00021683011
0.00069916234
0.0011726268
0.0016807068
0.0022610211
0.0028567776
0.0033854365
0.0026965957
0.0035458861
0.0044281029
0.0051680583
0.0057200977
0.0061496028
0.0064933582
0.0067466198
0.0068751651
0.0068873518
0.0047359157
0.0056979576
0.0069940983
0.0081221393
0.0088097978
0.0092105335
0.0094068149
0.0093473366
0.0089170533
0.0080865447
0.003373154
0.002757237
0.0036096887
0.0050428923
0.0058573761
0.0062189631
0.006239183
0.0057292015
0.0043437585
0.0021470825
0.0020713999
-0.00015740228
-0.00094735875
0.00042677331
0.0012516044
0.0015511888
0.0013923363
0.0002903969
-0.0021897827
-0.00084387647
0.00082356185
4.180825e-05
-0.00055864775
-0.00014426039
0.00012004441
0.00020817887
0.00012816884
-0.00034549349
-0.0013362819
0.00055177734
-0.0012487601
0.001245307
-0.00037690996
-0.00052108349
-0.00036847146
-0.00013778492
0.00023232351
0.00054692798
-0.00020217715
-0.0010252052
0.0016230478
0.002930823
6.7823584e-05
-3.3700332e-05
0.00042850021
0.0011206863
0.0022625745
0.0035196594
0.0025076915
0.00032139342
9.4163663e-05
-0.0025554221
-0.0028703597
-0.0025551611
-0.0020827004
-0.0014276725
-0.00036834875
0.0011352886
0.0020367335
0.0017332031
-0.0052954202
-0.0052827624
-0.0049347435
-0.0044951031
-0.0040111771
-0.0034380251
-0.0026472527
-0.0015214551
-0.00028110268
0.00078304033
-0.0012595524
-0.00068460457
-0.00010516581
0.00044288408
0.00095191212
0.0014511195
0.0019866507
0.0025983054
0.0032248546
0.003780218
0.0030690367
0.0039702292
0.004903111
0.0056845808
0.0062670353
0.0067193193
0.0070802999
0.0073451439
0.0074775556
0.0074876189
0.0052181334
0.0062452028
0.0076171066
0.0088081639
0.0095336766
0.0099553498
0.010159501
0.010090474
0.0096235115
0.008725264
0.0037120166
0.0030602656
0.0039571336
0.0054653478
0.0063232837
0.0067035518
0.0067205394
0.0061675621
0.0046665959
0.0022826223
0.0022515514
-0.00010664845
-0.0009467146
0.00049126598
0.0013577808
0.0016731786
0.0015002558
0.00030796857
-0.002384684
-0.00092299462
0.00088164996
5.8621886e-05
-0.0005758821
-0.0001437317
0.00013354658
0.00022651056
0.00014025542
-0.00037232112
-0.0014490603
0.00060213849
-0.0012843819
0.0012834868
-0.0003852741
-0.00053205636
-0.00037317681
-0.00013156639
0.00025850543
0.00059226696
-0.00019721406
-0.0010564444
0.0017074159
0.0030560777
0.0001123615
1.2759014e-05
0.00049481493
0.0012195942
0.0024201043
0.0037445244
0.002672256
0.00038644465
0.00016467023
-0.0025586445
-0.0028786484
-0.0025483929
-0.002054388
-0.0013687733
-0.00025849783
0.0013170972
0.0022511256
0.0019250256
-0.0053466397
-0.0053284938
-0.0049641863
-0.0045042334
-0.0039978429
-0.0033981769
-0.0025704917
-0.0013926427
-0.00010054264
0.0010031265
-0.0011082622
-0.00050752725
9.8572954e-05
0.00067209241
0.0012046294
0.0017264474
0.0022860728
0.0029252465
0.0035786868
0.0041573091
0.0034285212
0.0043760446
0.0053538106
0.0061719347
0.0067811618
0.0072533781
0.007629299
0.0079040384
0.0080394583
0.008047313
0.0056735646
0.0067593146
0.0081984948
0.0094451851
0.010204029
0.010643984
0.010854689
0.010776486
0.010275683
0.0093152135
0.0040322717
0.0033486925
0.0042844234
0.0058583159
0.0067543725
0.00715093
0.0071645317
0.0065719237
0.0049646556
0.0024080655
0.0024205715
-5.2495631e-05
-0.00093750831
0.00055543275
0.0014582608
0.0017874953
0.0016015354
0.0003262227
-0.0025623228
-0.00099387471
0.00093493472
7.5704338e-05
-0.00058893952
-0.00014169567
0.00014683987
0.00024405248
0.00015207635
-0.00039626058
-0.001552317
0.00064937147
-0.0013116234
0.0013142146
-0.00039080367
-0.00053929217
-0.00037512767
-0.00012408629
0.00028354064
0.00063439848
-0.00019059346
-0.0010807301
0.0017832671
0.0031644967
0.00015820471
6.1126861e-05
0.00056005275
0.0013129419
0.0025646575
0.0039482342
0.0028222657
0.00045102808
0.00023728856
-0.0025429716
-0.0028660813
-0.0025228223
-0.0020103403
-0.0012983894
-0.00014403121
0.0014937862
0.0024546235
0.0021079557
-0.0053609598
-0.0053374458
-0.0049591118
-0.0044817049
-0.0039559999
-0.0033335479
-0.0024740839
-0.0012514731
8.4387574e-05
0.0012207671
-0.00094577881
-0.00032296998
0.00030603625
0.00090146295
0.0014541932
0.0019953689
0.0025756021
0.0032383218
0.0039146002
0.0045129005
0.0037712278
0.0047592303
0.0057758326
0.0066255393
0.0072577486
0.0077469482
0.0081354538
0.0084183605
0.0085559277
0.0085615112
0.0060979508
0.007235678
0.0087332431
0.010027854
0.010815318
0.011270807
0.01148673
0.0113998
0.01086822
0.0098514366
0.0043307904
0.0036195892
0.0045883986
0.006218244
0.0071468701
0.0075572421
0.007567344
0.0069387317
0.0052350507
0.0025215961
0.0025766747
3.9818306e-06
-0.00092053141
0.00061815133
0.0015517087
0.00189273
0.0016948594
0.00034436623
-0.0027222762
-0.0010567465
0.00098291648
9.2779866e-05
-0.00059790861
-0.00013833203
0.00015967771
0.00026053488
0.00016340008
-0.00041732063
-0.0016455697
0.00069303247
-0.0013304437
0.0013371741
-0.00039359094
-0.00054287191
-0.00037443661
-0.00011551426
0.00030715245
0.00067294148
-0.00018247664
-0.0010980324
0.0018495806
0.0032548597
0.00020452112
0.00011055899
0.00062326985
0.0013996172
0.0026948114
0.0041290057
0.0029562724
0.00051422417
0.00031071113
-0.0025093579
-0.0028335895
-0.0024794552
-0.00195167
-0.0012177881
-2.6479774e-05
0.0016634486
0.0026451607
0.0022800567
-0.0053393735
-0.005310642
-0.0049206248
-0.0044287224
-0.0038869628
-0.0032455829
-0.0023596592
-0.0010998422
0.00027152968
0.0014336063
-0.00077430121
-0.00013326473
0.00051475702
0.0011284024
0.0016978966
0.0022550699
0.0028523102
0.0035344695
0.004229401
0.0048436825
0.0040938465
0.0051162301
0.006165388
0.0070414203
0.0076926916
0.0081958339
0.0085945046
0.0088838127
0.0090226629
0.0090259321
0.0064875949
0.0076702785
0.0092169833
0.010551515
0.011362724
0.011830915
0.012050703
0.011955562
0.011396466
0.010329629
0.0046048733
0.0038704297
0.0048663344
0.0065420701
0.0074975233
0.0079191609
0.0079256816
0.0072649238
0.0054753213
0.0026217249
0.0027183462
6.1885399e-05
-0.00089643525
0.00067849351
0.0016370132
0.0019877065
0.0017791327
0.00036177414
-0.0028640662
-0.0011117278
0.0010251724
0.00010961667
-0.00060285973
-0.00013378599
0.00017185802
0.00027573502
0.00017403751
-0.0004354892
-0.0017283601
0.00073273643
-0.0013408222
0.0013521283
-0.0003937137
-0.00054286789
-0.00037120161
-0.00010599609
0.00032910308
0.00070756683
-0.00017300459
-0.0011083354
0.0019055319
0.0033261947
0.00025061213
0.00016034007
0.00068366884
0.0014786815
0.0028093625
0.0042853267
0.0030730545
0.00057524918
0.00038383862
-0.0024586556
-0.002782016
-0.0024191975
-0.0018793725
-0.0011280946
9.2808946e-05
0.0018244204
0.002820948
0.0024396552
-0.0052828275
-0.0052490593
-0.0048497708
-0.0043464159
-0.0037919539
-0.0031356137
-0.0022287055
-0.00093946114
0.00045895851
0.0016395632
-0.00059578802
5.9519684e-05
0.00072255345
0.0013506225
0.0019333556
0.002503076
0.0031136263
0.0038110061
0.0045202965
0.0051467667
0.004393487
0.005443944
0.0065191807
0.0074161255
0.008082429
0.0085963962
0.0090027583
0.0092966705
0.0094359375
0.0094368667
0.0068392813
0.0080596257
0.0096459264
0.011012141
0.011842079
0.012320071
0.012542353
0.012439575
0.011856401
0.010746084
0.0048521849
0.0040990234
0.0051158769
0.0068271625
0.007803541
0.0082338327
0.0082367201
0.0075478801
0.0056833818
0.0027072329
0.0028442978
0.00012044444
-0.00086577963
0.00073567933
0.0017132447
0.0020714399
0.001853441
0.00037794879
-0.0029872063
-0.0011588653
0.0010613467
0.00012601588
-0.00060385684
-0.00012817928
0.00018321295
0.00028946752
0.00018383248
-0.00045074389
-0.0018002668
0.00076815007
-0.0013427681
0.001358912
-0.00039124378
-0.00053935235
-0.00036551436
-9.5661703e-05
0.00034918648
0.00073799082
-0.00016230561
-0.0011116453
0.001950458
0.0033777446
0.00029587759
0.0002098489
0.0007405652
0.0015493375
0.0029072972
0.0044159278
0.0031715879
0.0006334237
0.00045572555
-0.002391671
-0.0027121701
-0.0023429094
-0.0017943792
-0.0010303438
0.00021262112
0.001975234
0.002980429
0.002585296
-0.005192293
-0.0051536988
-0.0047476054
-0.0042359079
-0.00367217
-0.0030049248
-0.0020826319
-0.00077191605
0.00064492428
0.0018367754
-0.0004120297
0.00025350626
0.00092745886
0.0015660719
0.002158442
0.0027371872
0.0033572735
0.0040655659
0.004784836
0.0054196293
0.0046676121
0.0057396634
0.0068343441
0.0077466637
0.0084238822
0.0089454953
0.0093570336
0.0096537291
0.0097925479
0.0097911281
0.0071502193
0.0084006981
0.01001681
0.011406276
0.012249818
0.012734655
0.012958052
0.012848262
0.012244599
0.011097644
0.0050707064
0.0043034683
0.0053349972
0.0070712762
0.0080625534
0.0084988387
0.0084980676
0.0077853858
0.0058574822
0.002777127
0.0029534357
0.00017898157
-0.00082906837
0.00078904355
0.0017796231
0.0021431069
0.001917022
0.00039248882
-0.0030912368
-0.0011981672
0.0010911434
0.0001418037
-0.00060096611
-0.00012161831
0.00019360128
0.00030157719
0.00019265477
-0.00046305989
-0.0018609153
0.00079898652
-0.0013363268
0.0013574261
-0.00038625356
-0.00053240385
-0.00035746648
-8.4631013e-05
0.00036722298
0.00076397029
-0.00015050096
-0.0011079967
0.0019838321
0.0034089419
0.00033978971
0.00025853272
0.00079336202
0.0016109048
0.0029877684
0.0045197621
0.0032510245
0.000688149
0.0005255395
-0.0023092054
-0.0026248697
-0.0022514468
-0.001697597
-0.00092551889
0.00033184009
0.0021145839
0.0031222463
0.0027157076
-0.0050688182
-0.0050256375
-0.0046152459
-0.0040983648
-0.0035288316
-0.0028548006
-0.0019228145
-0.00059871277
0.00082780964
0.0020235572
-0.00022470227
0.00044695697
0.0011276699
0.0017728848
0.0023712341
0.0029554299
0.0035812232
0.004296056
0.0050208676
0.0056600682
0.0049139888
0.006001023
0.0071083952
0.00803046
0.0087144123
0.0092404491
0.0096546203
0.0099522646
0.010089775
0.010086013
0.0074180022
0.0086909041
0.010326859
0.011731007
0.012582947
0.013071633
0.013294763
0.013178632
0.0125582
0.011381675
0.0052587018
0.0044821159
0.0055219579
0.0072725221
0.008272582
0.0087121664
0.0087077371
0.0079756034
0.0059961776
0.002830606
0.0030448373
0.00023688685
-0.00078677576
0.00083801061
0.0018354942
0.0022020227
0.0019692429
0.00040506521
-0.0031757546
-0.0012296285
0.0011143213
0.00015682561
-0.00059426233
-0.00011420015
0.00020290273
0.00031193358
0.00020039463
-0.00047241622
-0.0019099865
0.00082500111
-0.0013215851
0.0013476325
-0.00037882087
-0.00052211206
-0.0003471542
-7.3018413e-05
0.00038305524
0.00078529917
-0.00013770917
-0.0010974578
0.0020052425
0.0034193888
0.00038187295
0.00030588741
0.00084153084
0.0016628022
0.0030500794
0.0045959896
0.0033106754
0.00073888899
0.00059252967
-0.0022120872
-0.0025209717
-0.0021456907
-0.0015899384
-0.0008145802
0.00044941837
0.0022412998
0.0032452154
0.0028297768
-0.0049135677
-0.0048660677
-0.0044539098
-0.0039350343
-0.0033632202
-0.0026865621
-0.001750632
-0.00042131048
0.0010060971
0.0021983679
-3.5407683e-05
0.00063823278
0.0013215071
0.0019693433
0.0025699793
0.0031560203
0.0037836589
0.0045006221
0.0052265041
0.00586617
0.005130651
0.0062259651
0.0073391996
0.0082653219
0.0089517878
0.0094790015
0.0098932484
0.010190003
0.010325356
0.010319274
0.0076405756
0.0089280519
0.010573763
0.011983932
0.012839015
0.013328534
0.013550016
0.013428259
0.012794879
0.011596038
0.0054146921
0.0046335455
0.0056752881
0.0074293425
0.0084320171
0.0088721877
0.0088641248
0.0081170507
0.0060983048
0.0028670325
0.0031177339
0.00029359834
-0.00073936676
0.00088207535
0.0018803116
0.0022476233
0.0020095819
0.00041540199
-0.0032404362
-0.0012532528
0.0011306906
0.0001709419
-0.00058383371
-0.00010601721
0.00021101354
0.00032042672
0.00020695853
-0.00047880079
-0.001947223
0.00084598819
-0.0012986754
0.00132955
-0.00036903287
-0.00050858167
-0.00033468215
-6.0936342e-05
0.00039654496
0.00080180541
-0.00012404949
-0.001080134
0.0020143764
0.0034088402
0.00042168777
0.0003514416
0.00088459601
0.0017045318
0.0030936688
0.0046439639
0.003349997
0.00078515533
0.00065600162
-0.0021011959
-0.002401397
-0.0020265726
-0.0014723453
-0.00069848848
0.00056435559
0.0023543261
0.0033483048
0.002926527
-0.0047278529
-0.0046763268
-0.0042649446
-0.003747275
-0.0031767069
-0.002501595
-0.0015674926
-0.00024114835
0.001178343
0.0023597859
0.00015429426
0.00082576225
0.0015073845
0.0021538464
0.0027530645
0.0033373358
0.0039629485
0.0046776203
0.0054000965
0.0060362834
0.0053158702
0.0064127109
0.007524943
0.0084494117
0.0091341573
0.0096592958
0.010071063
0.010365097
0.010497456
0.010489091
0.0078162131
0.0091103257
0.010755645
0.01216314
0.013016092
0.013503425
0.013721893
0.013595259
0.012952836
0.011739069
0.0055374346
0.0047565429
0.0057937627
0.0075404921
0.0085395983
0.00897764
0.008965992
0.0082085824
0.0061629619
0.0028859103
0.0031714955
0.00034858636
-0.00068731315
0.00092078731
0.0019136211
0.0022794504
0.0020376144
0.0004232601
-0.0032850577
-0.0012690686
0.0011401087
0.00018402418
-0.00056978575
-9.7161003e-05
0.00021784284
0.00032696361
0.00021226556
-0.00048221448
-0.0019724355
0.00086177828
-0.0012677787
0.0013032504
-0.00035698945
-0.00049193548
-0.00032016647
-4.8498401e-05
0.00040757002
0.00081334842
-0.00010964484
-0.0010561706
0.0020110048
0.0033771886
0.00045881663
0.00039474288
0.00092212114
0.0017356661
0.0031180984
0.0046632203
0.0033685783
0.00082649455
0.00071529519
-0.0019774836
-0.0022671506
-0.0018950938
-0.0013458085
-0.00057822435
0.00067567928
0.002452703
0.0034306165
0.0030051