/*--------------------------------*- C++ -*----------------------------------*\
| =========                 |                                                 |
| \\      /  F ield         | OpenFOAM: The Open Source CFD Toolbox           |
|  \\    /   O peration     | Version:  v2106                                 |
|   \\  /    A nd           | Website:  www.openfoam.com                      |
|    \\/     M anipulation  |                                                 |
\*---------------------------------------------------------------------------*/
FoamFile
{
    version     2.0;
    format      ascii;
    arch        "LSB;label=32;scalar=64";
    class       volScalarField;
    location    "27.5";
    object      gradTz;
}
// * * * * * * * * * * * * * * * * * * * * * * * * * * * * * * * * * * * * * //

dimensions      [0 -1 0 1 0 0 0];

internalField   nonuniform List<scalar> 
4000
(
728.02779
728.02706
728.02918
728.02801
728.02714
728.02687
728.02697
728.02719
728.02738
728.02752
728.02706
728.02848
728.02924
728.02793
728.02712
728.02693
728.0271
728.02737
728.02745
728.02738
728.02918
728.02924
728.02979
728.02851
728.02776
728.02764
728.02792
728.02832
728.02844
728.02814
728.02801
728.02793
728.02851
728.02728
728.02659
728.02653
728.0269
728.02745
728.02777
728.02768
728.02714
728.02712
728.02776
728.02659
728.02594
728.02594
728.02637
728.027
728.02742
728.02743
728.02687
728.02693
728.02764
728.02653
728.02594
728.02598
728.02645
728.02713
728.02758
728.02762
728.02697
728.0271
728.02792
728.0269
728.02637
728.02645
728.02696
728.02765
728.02812
728.02815
728.02719
728.02737
728.02832
728.02745
728.027
728.02713
728.02765
728.02835
728.02879
728.02879
728.02738
728.02745
728.02844
728.02777
728.02742
728.02758
728.02812
728.02879
728.02918
728.02911
728.02752
728.02738
728.02814
728.02768
728.02743
728.02762
728.02815
728.02879
728.02911
728.02897
728.17504
728.17469
728.17554
728.17461
728.17392
728.17374
728.17388
728.17413
728.17428
728.17457
728.17469
728.17519
728.17542
728.17442
728.17378
728.17366
728.17389
728.17419
728.17413
728.17415
728.17554
728.17542
728.17552
728.17453
728.17394
728.17389
728.17423
728.17468
728.17466
728.17448
728.17461
728.17442
728.17453
728.17358
728.17304
728.17305
728.17348
728.17407
728.17423
728.17422
728.17392
728.17378
728.17394
728.17304
728.17255
728.17261
728.1731
728.17377
728.17402
728.17411
728.17374
728.17366
728.17389
728.17305
728.17261
728.17272
728.17325
728.17396
728.17425
728.17437
728.17388
728.17389
728.17423
728.17348
728.1731
728.17325
728.17383
728.17455
728.17485
728.17495
728.17413
728.17419
728.17468
728.17407
728.17377
728.17396
728.17455
728.17527
728.17553
728.17557
728.17428
728.17413
728.17466
728.17423
728.17402
728.17425
728.17485
728.17553
728.1757
728.17563
728.17457
728.17415
728.17448
728.17422
728.17411
728.17437
728.17495
728.17557
728.17563
728.17568
728.44502
728.44466
728.44507
728.44425
728.44371
728.44362
728.44385
728.44414
728.4442
728.44449
728.44466
728.44492
728.44493
728.44408
728.44358
728.44356
728.44389
728.44426
728.44408
728.44407
728.44507
728.44493
728.44486
728.44403
728.44357
728.44361
728.44405
728.44457
728.44445
728.44427
728.44425
728.44408
728.44403
728.44323
728.44281
728.44291
728.44344
728.44411
728.44414
728.4441
728.44371
728.44358
728.44357
728.44281
728.44244
728.44259
728.44319
728.44393
728.44405
728.4441
728.44362
728.44356
728.44361
728.44291
728.44259
728.44279
728.44343
728.44421
728.44436
728.44444
728.44385
728.44389
728.44405
728.44344
728.44319
728.44343
728.44409
728.44489
728.44504
728.4451
728.44414
728.44426
728.44457
728.44411
728.44393
728.44421
728.44489
728.44567
728.44576
728.44572
728.4442
728.44408
728.44445
728.44414
728.44405
728.44436
728.44504
728.44576
728.44572
728.44549
728.44449
728.44407
728.44427
728.4441
728.4441
728.44444
728.4451
728.44572
728.44549
728.44569
728.84748
728.84708
728.84747
728.84676
728.84633
728.84633
728.84665
728.84703
728.84706
728.84727
728.84708
728.84726
728.84728
728.84655
728.84615
728.84622
728.84665
728.84712
728.84695
728.84692
728.84747
728.84728
728.84725
728.84653
728.84618
728.84631
728.84684
728.84746
728.84732
728.84713
728.84676
728.84655
728.84653
728.84585
728.84554
728.84573
728.84635
728.8471
728.84711
728.84703
728.84633
728.84615
728.84618
728.84554
728.84527
728.84551
728.84619
728.84702
728.84711
728.84711
728.84633
728.84622
728.84631
728.84573
728.84551
728.84579
728.84651
728.84738
728.8475
728.84753
728.84665
728.84665
728.84684
728.84635
728.84619
728.84651
728.84727
728.84814
728.84826
728.84826
728.84703
728.84712
728.84746
728.8471
728.84702
728.84738
728.84814
728.849
728.84904
728.8489
728.84706
728.84695
728.84732
728.84711
728.84711
728.8475
728.84826
728.84904
728.8489
728.8485
728.84727
728.84692
728.84713
728.84703
728.84711
728.84753
728.84826
728.8489
728.8485
728.84872
729.38015
729.3798
729.38022
729.37961
729.37926
729.37934
729.37974
729.3802
729.38029
729.38049
729.3798
729.37999
729.38007
729.37943
729.37911
729.37926
729.37976
729.38031
729.3802
729.38019
729.38022
729.38007
729.38009
729.37947
729.37919
729.3794
729.38001
729.3807
729.38061
729.38043
729.37961
729.37943
729.37947
729.37888
729.37865
729.37891
729.3796
729.38042
729.38046
729.3804
729.37926
729.37911
729.37919
729.37865
729.37847
729.37877
729.37952
729.38041
729.38053
729.38054
729.37934
729.37926
729.3794
729.37891
729.37877
729.37912
729.37991
729.38084
729.38099
729.38102
729.37974
729.37976
729.38001
729.3796
729.37952
729.37991
729.38072
729.38166
729.38181
729.38181
729.3802
729.38031
729.3807
729.38042
729.38041
729.38084
729.38166
729.38258
729.38264
729.38249
729.38029
729.3802
729.38061
729.38046
729.38053
729.38099
729.38181
729.38264
729.38249
729.38203
729.38049
729.38019
729.38043
729.3804
729.38054
729.38102
729.38181
729.38249
729.38203
729.38223
730.0401
730.03979
730.04023
730.0397
730.03942
730.03956
730.04001
730.04052
730.04066
730.04086
730.03979
730.04
730.04011
730.03955
730.03931
730.03951
730.04006
730.04066
730.0406
730.0406
730.04023
730.04011
730.04017
730.03963
730.03943
730.03968
730.04034
730.04107
730.04102
730.04087
730.0397
730.03955
730.03963
730.03912
730.03896
730.03927
730.04001
730.04086
730.04094
730.04088
730.03942
730.03931
730.03943
730.03896
730.03884
730.0392
730.03998
730.04091
730.04106
730.04107
730.03956
730.03951
730.03968
730.03927
730.0392
730.03959
730.04042
730.04138
730.04156
730.0416
730.04001
730.04006
730.04034
730.04001
730.03998
730.04042
730.04127
730.04224
730.04241
730.04242
730.04052
730.04066
730.04107
730.04086
730.04091
730.04138
730.04224
730.04318
730.04327
730.04312
730.04066
730.0406
730.04102
730.04094
730.04106
730.04156
730.04241
730.04327
730.04314
730.04266
730.04086
730.0406
730.04087
730.04088
730.04107
730.0416
730.04242
730.04312
730.04266
730.04284
730.82324
730.82296
730.82341
730.82294
730.82273
730.82291
730.8234
730.82393
730.8241
730.82431
730.82296
730.82317
730.82331
730.82282
730.82264
730.82288
730.82346
730.82408
730.82405
730.82407
730.82341
730.82331
730.8234
730.82293
730.82278
730.82308
730.82375
730.82451
730.82449
730.82436
730.82294
730.82282
730.82293
730.82249
730.82238
730.82273
730.82348
730.82435
730.82445
730.82441
730.82273
730.82264
730.82278
730.82238
730.82231
730.8227
730.82351
730.82444
730.82461
730.82464
730.82291
730.82288
730.82308
730.82273
730.8227
730.82313
730.82397
730.82494
730.82514
730.82518
730.8234
730.82346
730.82375
730.82348
730.82351
730.82397
730.82484
730.82581
730.826
730.82602
730.82393
730.82408
730.82451
730.82435
730.82444
730.82494
730.82581
730.82676
730.82687
730.82673
730.8241
730.82405
730.82449
730.82445
730.82461
730.82514
730.826
730.82687
730.82676
730.82629
730.82431
730.82407
730.82436
730.82441
730.82464
730.82518
730.82602
730.82673
730.82629
730.82647
731.7247
731.72445
731.72489
731.72448
731.72432
731.72453
731.72504
731.72559
731.72577
731.72598
731.72445
731.72466
731.72481
731.72438
731.72424
731.72451
731.72511
731.72574
731.72574
731.72577
731.72489
731.72481
731.72491
731.7245
731.7244
731.72472
731.72541
731.72617
731.72617
731.72605
731.72448
731.72438
731.7245
731.72412
731.72406
731.72443
731.72519
731.72605
731.72617
731.72614
731.72432
731.72424
731.7244
731.72406
731.72403
731.72444
731.72525
731.72618
731.72636
731.72639
731.72453
731.72451
731.72472
731.72443
731.72444
731.72489
731.72573
731.72669
731.7269
731.72695
731.72504
731.72511
731.72541
731.72519
731.72525
731.72573
731.7266
731.72756
731.72776
731.72779
731.72559
731.72574
731.72617
731.72605
731.72618
731.72669
731.72756
731.7285
731.72862
731.72849
731.72577
731.72574
731.72617
731.72617
731.72636
731.7269
731.72776
731.72862
731.72852
731.72807
731.72598
731.72577
731.72605
731.72614
731.72639
731.72695
731.72779
731.72849
731.72807
731.72825
732.73889
732.73867
732.73909
732.73873
732.73861
732.73885
732.73936
732.73991
732.7401
732.74031
732.73867
732.73886
732.73902
732.73864
732.73855
732.73884
732.73944
732.74007
732.74009
732.74012
732.73909
732.73902
732.73913
732.73877
732.73872
732.73906
732.73974
732.74049
732.74051
732.74041
732.73873
732.73864
732.73877
732.73845
732.73842
732.73881
732.73956
732.74041
732.74054
732.74052
732.73861
732.73855
732.73872
732.73842
732.73844
732.73886
732.73966
732.74057
732.74075
732.74079
732.73885
732.73884
732.73906
732.73881
732.73886
732.73932
732.74015
732.74108
732.74129
732.74135
732.73936
732.73944
732.73974
732.73956
732.73966
732.74015
732.74099
732.74194
732.74214
732.74217
732.73991
732.74007
732.74049
732.74041
732.74057
732.74108
732.74194
732.74285
732.74297
732.74286
732.7401
732.74009
732.74051
732.74054
732.74075
732.74129
732.74214
732.74297
732.74289
732.74247
732.74031
732.74012
732.74041
732.74052
732.74079
732.74135
732.74217
732.74286
732.74247
732.74264
733.85953
733.85934
733.85974
733.85943
733.85935
733.85961
733.86012
733.86066
733.86085
733.86105
733.85934
733.85952
733.85968
733.85936
733.85931
733.85961
733.8602
733.86082
733.86084
733.86089
733.85974
733.85968
733.8598
733.85949
733.85947
733.85982
733.86049
733.86122
733.86125
733.86117
733.85943
733.85936
733.85949
733.85922
733.85923
733.85962
733.86035
733.86117
733.8613
733.86129
733.85935
733.85931
733.85947
733.85923
733.85927
733.8597
733.86047
733.86135
733.86154
733.86157
733.85961
733.85961
733.85982
733.85962
733.8597
733.86015
733.86096
733.86186
733.86207
733.86213
733.86012
733.8602
733.86049
733.86035
733.86047
733.86096
733.86178
733.86269
733.86289
733.86292
733.86066
733.86082
733.86122
733.86117
733.86135
733.86186
733.86269
733.86357
733.86369
733.86359
733.86085
733.86084
733.86125
733.8613
733.86154
733.86207
733.86289
733.86369
733.86362
733.86322
733.86105
733.86089
733.86117
733.86129
733.86157
733.86213
733.86292
733.86359
733.86322
733.86339
735.07972
735.07955
735.07992
735.07967
735.07962
735.07989
735.08039
735.08091
735.08111
735.0813
735.07955
735.07972
735.07987
735.07961
735.07959
735.0799
735.08047
735.08107
735.08111
735.08115
735.07992
735.07987
735.07999
735.07974
735.07975
735.0801
735.08075
735.08145
735.08149
735.08142
735.07967
735.07961
735.07974
735.07951
735.07955
735.07994
735.08065
735.08143
735.08157
735.08156
735.07962
735.07959
735.07975
735.07955
735.07962
735.08004
735.08079
735.08162
735.08181
735.08185
735.07989
735.0799
735.0801
735.07994
735.08004
735.08049
735.08126
735.08212
735.08233
735.08238
735.08039
735.08047
735.08075
735.08065
735.08079
735.08126
735.08205
735.08292
735.08311
735.08314
735.08091
735.08107
735.08145
735.08143
735.08162
735.08212
735.08292
735.08375
735.08388
735.08378
735.08111
735.08111
735.08149
735.08157
735.08181
735.08233
735.08311
735.08388
735.08381
735.08344
735.0813
735.08115
735.08142
735.08156
735.08185
735.08238
735.08314
735.08378
735.08344
735.0836
736.39192
736.39178
736.39211
736.39191
736.39189
736.39217
736.39265
736.39315
736.39334
736.39352
736.39178
736.39192
736.39207
736.39186
736.39187
736.39218
736.39273
736.3933
736.39335
736.3934
736.39211
736.39207
736.39219
736.39199
736.39203
736.39237
736.39299
736.39366
736.39371
736.39365
736.39191
736.39186
736.39199
736.39181
736.39187
736.39225
736.39293
736.39367
736.3938
736.3938
736.39189
736.39187
736.39203
736.39187
736.39196
736.39237
736.39308
736.39387
736.39404
736.39408
736.39217
736.39218
736.39237
736.39225
736.39237
736.39281
736.39354
736.39435
736.39454
736.3946
736.39265
736.39273
736.39299
736.39293
736.39308
736.39354
736.39429
736.3951
736.39528
736.39532
736.39315
736.3933
736.39366
736.39367
736.39387
736.39435
736.3951
736.39589
736.39601
736.39592
736.39334
736.39335
736.39371
736.3938
736.39404
736.39454
736.39528
736.39601
736.39595
736.3956
736.39352
736.3934
736.39365
736.3938
736.39408
736.3946
736.39532
736.39592
736.3956
736.39575
737.78804
737.78792
737.78821
737.78806
737.78807
737.78835
737.78881
737.78928
737.78947
737.78963
737.78792
737.78804
737.78819
737.78802
737.78806
737.78836
737.78889
737.78942
737.78948
737.78953
737.78821
737.78819
737.7883
737.78815
737.78821
737.78855
737.78913
737.78975
737.78981
737.78976
737.78806
737.78802
737.78815
737.78801
737.7881
737.78847
737.7891
737.78979
737.78991
737.78992
737.78807
737.78806
737.78821
737.7881
737.7882
737.7886
737.78926
737.79
737.79016
737.7902
737.78835
737.78836
737.78855
737.78847
737.7886
737.78902
737.7897
737.79045
737.79064
737.79069
737.78881
737.78889
737.78913
737.7891
737.78926
737.7897
737.7904
737.79115
737.79133
737.79136
737.78928
737.78942
737.78975
737.78979
737.79
737.79045
737.79115
737.79188
737.792
737.79192
737.78947
737.78948
737.78981
737.78991
737.79016
737.79064
737.79133
737.792
737.79195
737.79162
737.78963
737.78953
737.78976
737.78992
737.7902
737.79069
737.79136
737.79192
737.79162
737.79177
739.25946
739.25936
739.25962
739.25951
739.25955
739.25982
739.26025
739.2607
739.26087
739.26102
739.25936
739.25947
739.2596
739.25948
739.25954
739.25984
739.26033
739.26083
739.26089
739.26094
739.25962
739.2596
739.25971
739.2596
739.25968
739.26001
739.26056
739.26113
739.26119
739.26115
739.25951
739.25948
739.2596
739.25951
739.25961
739.25997
739.26056
739.26119
739.26131
739.26132
739.25955
739.25954
739.25968
739.25961
739.25974
739.26012
739.26073
739.2614
739.26155
739.26159
739.25982
739.25984
739.26001
739.25997
739.26012
739.26051
739.26114
739.26183
739.262
739.26205
739.26025
739.26033
739.26056
739.26056
739.26073
739.26114
739.26178
739.26247
739.26263
739.26267
739.2607
739.26083
739.26113
739.26119
739.2614
739.26183
739.26247
739.26314
739.26324
739.26318
739.26087
739.26089
739.26119
739.26131
739.26155
739.262
739.26263
739.26324
739.2632
739.2629
739.26102
739.26094
739.26115
739.26132
739.26159
739.26205
739.26267
739.26318
739.2629
739.26304
740.7971
740.79704
740.79725
740.79718
740.79725
740.79752
740.79792
740.79833
740.79849
740.79863
740.79704
740.79712
740.79723
740.79717
740.79725
740.79754
740.79799
740.79845
740.79851
740.79856
740.79725
740.79723
740.79734
740.79728
740.79738
740.7977
740.79819
740.79871
740.79878
740.79875
740.79718
740.79717
740.79728
740.79723
740.79735
740.79769
740.79822
740.7988
740.79891
740.79892
740.79725
740.79725
740.79738
740.79735
740.79749
740.79785
740.7984
740.79901
740.79915
740.79919
740.79752
740.79754
740.7977
740.79769
740.79785
740.79822
740.79879
740.79941
740.79956
740.79961
740.79792
740.79799
740.79819
740.79822
740.7984
740.79879
740.79937
740.79999
740.80013
740.80016
740.79833
740.79845
740.79871
740.7988
740.79901
740.79941
740.79999
740.80058
740.80068
740.80062
740.79849
740.79851
740.79878
740.79891
740.79915
740.79956
740.80013
740.80068
740.80064
740.80038
740.79863
740.79856
740.79875
740.79892
740.79919
740.79961
740.80016
740.80062
740.80038
740.8005
742.3915
742.39145
742.39162
742.3916
742.3917
742.39195
742.39232
742.39269
742.39284
742.39296
742.39145
742.39151
742.39162
742.3916
742.3917
742.39198
742.39239
742.3928
742.39287
742.39292
742.39162
742.39162
742.39171
742.3917
742.39182
742.39212
742.39257
742.39303
742.39309
742.39308
742.3916
742.3916
742.3917
742.3917
742.39184
742.39215
742.39263
742.39313
742.39323
742.39325
742.3917
742.3917
742.39182
742.39184
742.39199
742.39231
742.39281
742.39334
742.39347
742.3935
742.39195
742.39198
742.39212
742.39215
742.39231
742.39266
742.39316
742.39371
742.39384
742.39388
742.39232
742.39239
742.39257
742.39263
742.39281
742.39316
742.39368
742.39422
742.39435
742.39438
742.39269
742.3928
742.39303
742.39313
742.39334
742.39371
742.39422
742.39474
742.39483
742.39478
742.39284
742.39287
742.39309
742.39323
742.39347
742.39384
742.39435
742.39483
742.3948
742.39456
742.39296
742.39292
742.39308
742.39325
742.3935
742.39388
742.39438
742.39478
742.39456
742.39468
744.03281
744.03279
744.03291
744.03293
744.03305
744.0333
744.03363
744.03396
744.03409
744.03419
744.03279
744.03282
744.03291
744.03294
744.03307
744.03333
744.03369
744.03406
744.03412
744.03417
744.03291
744.03291
744.033
744.03303
744.03317
744.03345
744.03384
744.03425
744.03431
744.03431
744.03293
744.03294
744.03303
744.03308
744.03323
744.03351
744.03393
744.03437
744.03446
744.03448
744.03305
744.03307
744.03317
744.03323
744.03339
744.03369
744.03412
744.03457
744.03468
744.03472
744.0333
744.03333
744.03345
744.03351
744.03369
744.03399
744.03444
744.0349
744.03502
744.03505
744.03363
744.03369
744.03384
744.03393
744.03412
744.03444
744.03488
744.03534
744.03545
744.03548
744.03396
744.03406
744.03425
744.03437
744.03457
744.0349
744.03534
744.03579
744.03586
744.03582
744.03409
744.03412
744.03431
744.03446
744.03468
744.03502
744.03545
744.03586
744.03584
744.03564
744.03419
744.03417
744.03431
744.03448
744.03472
744.03505
744.03548
744.03582
744.03564
744.03574
745.71091
745.71092
745.71099
745.71106
745.7112
745.71143
745.71172
745.71201
745.71213
745.71221
745.71092
745.71093
745.711
745.71107
745.71122
745.71146
745.71178
745.71209
745.71216
745.71221
745.71099
745.711
745.71108
745.71116
745.71131
745.71156
745.7119
745.71224
745.71231
745.71232
745.71106
745.71107
745.71116
745.71124
745.71141
745.71166
745.71202
745.71238
745.71247
745.71249
745.7112
745.71122
745.71131
745.71141
745.71158
745.71184
745.71221
745.71258
745.71268
745.71271
745.71143
745.71146
745.71156
745.71166
745.71184
745.71212
745.71249
745.71287
745.71297
745.713
745.71172
745.71178
745.7119
745.71202
745.71221
745.71249
745.71286
745.71324
745.71333
745.71336
745.71201
745.71209
745.71224
745.71238
745.71258
745.71287
745.71324
745.71361
745.71367
745.71363
745.71213
745.71216
745.71231
745.71247
745.71268
745.71297
745.71333
745.71367
745.71364
745.71348
745.71221
745.71221
745.71232
745.71249
745.71271
745.713
745.71336
745.71363
745.71348
745.71356
747.41546
747.41549
747.41552
747.41563
747.4158
747.41601
747.41626
747.4165
747.4166
747.41666
747.41549
747.41548
747.41554
747.41566
747.41582
747.41604
747.41631
747.41657
747.41664
747.41668
747.41552
747.41554
747.4156
747.41573
747.4159
747.41612
747.4164
747.41668
747.41674
747.41677
747.41563
747.41566
747.41573
747.41585
747.41603
747.41626
747.41655
747.41684
747.4169
747.41693
747.4158
747.41582
747.4159
747.41603
747.41621
747.41644
747.41673
747.41703
747.4171
747.41713
747.41601
747.41604
747.41612
747.41626
747.41644
747.41668
747.41697
747.41727
747.41735
747.41737
747.41626
747.41631
747.4164
747.41655
747.41673
747.41697
747.41727
747.41757
747.41764
747.41766
747.4165
747.41657
747.41668
747.41684
747.41703
747.41727
747.41757
747.41785
747.4179
747.41787
747.4166
747.41664
747.41674
747.4169
747.4171
747.41735
747.41764
747.4179
747.41788
747.41775
747.41666
747.41668
747.41677
747.41693
747.41713
747.41737
747.41766
747.41787
747.41775
747.41782
749.13595
749.13601
749.13598
749.13614
749.13632
749.13652
749.13673
749.13692
749.13701
749.13704
749.13601
749.13597
749.13601
749.13618
749.13636
749.13655
749.13677
749.13697
749.13705
749.13709
749.13598
749.13601
749.13607
749.13623
749.13642
749.13661
749.13683
749.13704
749.1371
749.13714
749.13614
749.13618
749.13623
749.1364
749.13658
749.13678
749.137
749.13721
749.13727
749.1373
749.13632
749.13636
749.13642
749.13658
749.13677
749.13697
749.13719
749.1374
749.13746
749.13748
749.13652
749.13655
749.13661
749.13678
749.13697
749.13716
749.13739
749.1376
749.13765
749.13767
749.13673
749.13677
749.13683
749.137
749.13719
749.13739
749.1376
749.13781
749.13786
749.13788
749.13692
749.13697
749.13704
749.13721
749.1374
749.1376
749.13781
749.13801
749.13805
749.13803
749.13701
749.13705
749.1371
749.13727
749.13746
749.13765
749.13786
749.13805
749.13803
749.13794
749.13704
749.13709
749.13714
749.1373
749.13748
749.13767
749.13788
749.13803
749.13794
749.13799
750.86178
750.86186
750.86178
750.86198
750.86218
750.86236
750.86252
750.86266
750.86273
750.86275
750.86186
750.86179
750.86181
750.86202
750.86222
750.86239
750.86256
750.8627
750.86277
750.86281
750.86178
750.86181
750.86186
750.86207
750.86226
750.86243
750.86259
750.86273
750.86279
750.86284
750.86198
750.86202
750.86207
750.86227
750.86247
750.86263
750.86278
750.86291
750.86296
750.86299
750.86218
750.86222
750.86226
750.86247
750.86265
750.86282
750.86296
750.86309
750.86313
750.86314
750.86236
750.86239
750.86243
750.86263
750.86282
750.86297
750.86312
750.86324
750.86327
750.86329
750.86252
750.86256
750.86259
750.86278
750.86296
750.86312
750.86326
750.86337
750.8634
750.86342
750.86266
750.8627
750.86273
750.86291
750.86309
750.86324
750.86337
750.86349
750.86351
750.8635
750.86273
750.86277
750.86279
750.86296
750.86313
750.86327
750.8634
750.86351
750.8635
750.86344
750.86275
750.86281
750.86284
750.86299
750.86314
750.86329
750.86342
750.8635
750.86344
750.86348
752.58229
752.58239
752.58227
752.58251
752.58273
752.58288
752.583
752.58309
752.58314
752.58313
752.58239
752.5823
752.58231
752.58256
752.58277
752.58292
752.58302
752.58311
752.58318
752.58322
752.58227
752.58231
752.58234
752.58259
752.58279
752.58293
752.58302
752.5831
752.58315
752.58321
752.58251
752.58256
752.58259
752.58283
752.58303
752.58316
752.58324
752.58329
752.58332
752.58335
752.58273
752.58277
752.58279
752.58303
752.58322
752.58335
752.58342
752.58346
752.58347
752.58349
752.58288
752.58292
752.58293
752.58316
752.58335
752.58346
752.58353
752.58356
752.58357
752.58358
752.583
752.58302
752.58302
752.58324
752.58342
752.58353
752.58359
752.58361
752.58362
752.58363
752.58309
752.58311
752.5831
752.58329
752.58346
752.58356
752.58361
752.58364
752.58365
752.58365
752.58314
752.58318
752.58315
752.58332
752.58347
752.58357
752.58362
752.58365
752.58364
752.58362
752.58313
752.58322
752.58321
752.58335
752.58349
752.58358
752.58363
752.58365
752.58362
752.58364
754.28688
754.28701
754.28684
754.28711
754.28735
754.28748
754.28755
754.28759
754.28762
754.2876
754.28701
754.2869
754.28689
754.28718
754.2874
754.28752
754.28757
754.2876
754.28767
754.2877
754.28684
754.28689
754.2869
754.28719
754.28741
754.28751
754.28754
754.28754
754.28759
754.28766
754.28711
754.28718
754.28719
754.28747
754.28768
754.28777
754.28778
754.28775
754.28777
754.2878
754.28735
754.2874
754.28741
754.28768
754.28787
754.28795
754.28795
754.2879
754.2879
754.28791
754.28748
754.28752
754.28751
754.28777
754.28795
754.28802
754.28801
754.28795
754.28794
754.28794
754.28755
754.28757
754.28754
754.28778
754.28795
754.28801
754.28799
754.28793
754.28791
754.28792
754.28759
754.2876
754.28754
754.28775
754.2879
754.28795
754.28793
754.28786
754.28785
754.28786
754.28762
754.28767
754.28759
754.28777
754.2879
754.28794
754.28791
754.28785
754.28785
754.28786
754.2876
754.2877
754.28766
754.2878
754.28791
754.28794
754.28792
754.28786
754.28786
754.28787
755.96506
755.9652
755.96498
755.9653
755.96554
755.96565
755.96567
755.96566
755.96567
755.96562
755.9652
755.96507
755.96504
755.96537
755.9656
755.96569
755.96568
755.96565
755.96572
755.96574
755.96498
755.96504
755.96504
755.96537
755.96559
755.96566
755.96562
755.96555
755.9656
755.96568
755.9653
755.96537
755.96537
755.96568
755.96589
755.96594
755.96588
755.96577
755.96577
755.9658
755.96554
755.9656
755.96559
755.96589
755.96608
755.96612
755.96604
755.96591
755.96588
755.96589
755.96565
755.96569
755.96566
755.96594
755.96612
755.96615
755.96605
755.96591
755.96587
755.96587
755.96567
755.96568
755.96562
755.96588
755.96604
755.96605
755.96595
755.9658
755.96576
755.96577
755.96566
755.96565
755.96555
755.96577
755.96591
755.96591
755.9658
755.96565
755.96562
755.96564
755.96567
755.96572
755.9656
755.96577
755.96588
755.96587
755.96576
755.96562
755.96562
755.96568
755.96562
755.96574
755.96568
755.9658
755.96589
755.96587
755.96577
755.96564
755.96568
755.96567
757.60645
757.60662
757.60636
757.6067
757.60696
757.60705
757.60702
757.60695
757.60694
757.60687
757.60662
757.60646
757.60642
757.60678
757.60702
757.60708
757.60702
757.60693
757.60699
757.60701
757.60636
757.60642
757.60641
757.60677
757.60699
757.60703
757.60693
757.60678
757.60683
757.60692
757.6067
757.60678
757.60677
757.60711
757.60732
757.60734
757.6072
757.60701
757.607
757.60703
757.60696
757.60702
757.60699
757.60732
757.60751
757.60751
757.60735
757.60713
757.60709
757.60709
757.60705
757.60708
757.60703
757.60734
757.60751
757.60749
757.60732
757.60708
757.60702
757.60702
757.60702
757.60702
757.60693
757.6072
757.60735
757.60732
757.60713
757.60689
757.60683
757.60683
757.60695
757.60693
757.60678
757.60701
757.60713
757.60708
757.60689
757.60665
757.60661
757.60664
757.60694
757.60699
757.60683
757.607
757.60709
757.60702
757.60683
757.60661
757.60662
757.6067
757.60687
757.60701
757.60692
757.60703
757.60709
757.60702
757.60683
757.60664
757.6067
757.60668
759.20096
759.20115
759.20084
759.20122
759.20148
759.20154
759.20146
759.20134
759.20131
759.20123
759.20115
759.20097
759.2009
759.2013
759.20155
759.20158
759.20146
759.20131
759.20136
759.20138
759.20084
759.2009
759.20088
759.20127
759.2015
759.2015
759.20133
759.20112
759.20116
759.20125
759.20122
759.2013
759.20127
759.20165
759.20185
759.20183
759.20162
759.20135
759.20132
759.20135
759.20148
759.20155
759.2015
759.20185
759.20204
759.202
759.20176
759.20145
759.20139
759.20138
759.20154
759.20158
759.2015
759.20183
759.202
759.20193
759.20168
759.20136
759.20127
759.20126
759.20146
759.20146
759.20133
759.20162
759.20176
759.20168
759.20141
759.20108
759.201
759.20099
759.20134
759.20131
759.20112
759.20135
759.20145
759.20136
759.20108
759.20076
759.2007
759.20074
759.20131
759.20136
759.20116
759.20132
759.20139
759.20127
759.201
759.2007
759.20071
759.20083
759.20123
759.20138
759.20125
759.20135
759.20138
759.20126
759.20099
759.20074
759.20083
759.20079
760.73875
760.73896
760.73861
760.73901
760.73928
760.73931
760.73918
760.73901
760.73896
760.73885
760.73896
760.73876
760.73867
760.7391
760.73935
760.73935
760.73917
760.73896
760.73901
760.73902
760.73861
760.73867
760.73863
760.73905
760.73928
760.73925
760.73901
760.73873
760.73876
760.73886
760.73901
760.7391
760.73905
760.73945
760.73966
760.73959
760.73931
760.73896
760.73892
760.73895
760.73928
760.73935
760.73928
760.73966
760.73984
760.73975
760.73944
760.73905
760.73896
760.73895
760.73931
760.73935
760.73925
760.73959
760.73975
760.73964
760.73931
760.7389
760.73879
760.73877
760.73918
760.73917
760.73901
760.73931
760.73944
760.73931
760.73896
760.73854
760.73844
760.73843
760.73901
760.73896
760.73873
760.73896
760.73905
760.7389
760.73854
760.73813
760.73806
760.7381
760.73896
760.73901
760.73876
760.73892
760.73896
760.73879
760.73844
760.73806
760.73807
760.73822
760.73885
760.73902
760.73886
760.73895
760.73895
760.73877
760.73843
760.7381
760.73822
760.73816
762.21035
762.21057
762.21017
762.2106
762.21087
762.21088
762.21069
762.21047
762.2104
762.21027
762.21057
762.21034
762.21024
762.21069
762.21094
762.21091
762.21067
762.2104
762.21044
762.21045
762.21017
762.21024
762.21019
762.21063
762.21085
762.21079
762.21048
762.21013
762.21016
762.21026
762.2106
762.21069
762.21063
762.21105
762.21125
762.21115
762.2108
762.21036
762.2103
762.21034
762.21087
762.21094
762.21085
762.21125
762.21142
762.21129
762.2109
762.21043
762.21032
762.21031
762.21088
762.21091
762.21079
762.21115
762.21129
762.21113
762.21072
762.21023
762.2101
762.21007
762.21069
762.21067
762.21048
762.2108
762.2109
762.21072
762.2103
762.20979
762.20967
762.20965
762.21047
762.2104
762.21013
762.21036
762.21043
762.21023
762.20979
762.2093
762.20921
762.20926
762.2104
762.21044
762.21016
762.2103
762.21032
762.2101
762.20967
762.20921
762.20922
762.20941
762.21027
762.21045
762.21026
762.21034
762.21031
762.21007
762.20965
762.20926
762.20941
762.20933
763.60667
763.60691
763.60647
763.60691
763.60719
763.60716
763.60693
763.60665
763.60655
763.6064
763.60691
763.60666
763.60654
763.60701
763.60726
763.60719
763.60689
763.60656
763.6066
763.6066
763.60647
763.60654
763.60647
763.60693
763.60715
763.60704
763.60668
763.60625
763.60627
763.60638
763.60691
763.60701
763.60693
763.60737
763.60756
763.60742
763.60699
763.60648
763.60641
763.60644
763.60719
763.60726
763.60715
763.60756
763.60772
763.60755
763.60708
763.60653
763.6064
763.60637
763.60716
763.60719
763.60704
763.60742
763.60755
763.60734
763.60685
763.60627
763.60612
763.60608
763.60693
763.60689
763.60668
763.60699
763.60708
763.60685
763.60635
763.60576
763.60561
763.60559
763.60665
763.60656
763.60625
763.60648
763.60653
763.60627
763.60576
763.60518
763.60508
763.60513
763.60655
763.6066
763.60627
763.60641
763.6064
763.60612
763.60561
763.60508
763.60509
763.60531
763.6064
763.6066
763.60638
763.60644
763.60637
763.60608
763.60559
763.60513
763.60531
763.60521
764.91912
764.91937
764.91889
764.91935
764.91962
764.91956
764.91927
764.91894
764.91882
764.91865
764.91937
764.91911
764.91896
764.91945
764.91969
764.91959
764.91923
764.91884
764.91886
764.91886
764.91889
764.91896
764.91888
764.91935
764.91956
764.91941
764.91898
764.91849
764.9185
764.91861
764.91935
764.91945
764.91935
764.91981
764.91998
764.91979
764.9193
764.91871
764.91862
764.91865
764.91962