/*--------------------------------*- C++ -*----------------------------------*\
| =========                 |                                                 |
| \\      /  F ield         | OpenFOAM: The Open Source CFD Toolbox           |
|  \\    /   O peration     | Version:  v2106                                 |
|   \\  /    A nd           | Website:  www.openfoam.com                      |
|    \\/     M anipulation  |                                                 |
\*---------------------------------------------------------------------------*/
FoamFile
{
    version     2.0;
    format      ascii;
    arch        "LSB;label=32;scalar=64";
    class       volVectorField;
    location    "20";
    object      U;
}
// * * * * * * * * * * * * * * * * * * * * * * * * * * * * * * * * * * * * * //

dimensions      [0 1 -1 0 0 0 0];

internalField   nonuniform List<vector> 
16
(
(-4.2122e-08 -4.2122e-08 0.822617)
(-4.2122e-08 2.37578e-08 0.822617)
(2.37578e-08 -4.2122e-08 0.822617)
(2.37577e-08 2.37577e-08 0.822617)
(2.12565e-07 2.12565e-07 0.970317)
(2.12566e-07 3.2214e-07 0.970318)
(3.2214e-07 2.12566e-07 0.970318)
(3.22141e-07 3.22141e-07 0.970318)
(2.45362e-07 2.45362e-07 1.01546)
(2.45362e-07 3.09569e-07 1.01546)
(3.09569e-07 2.45362e-07 1.01546)
(3.0957e-07 3.0957e-07 1.01546)
(6.26981e-08 6.26981e-08 1.00402)
(6.26982e-08 5.00287e-08 1.00402)
(5.00287e-08 6.26982e-08 1.00402)
(5.00288e-08 5.00288e-08 1.00402)
)
;

boundaryField
{
    fixedWalls
    {
        type            noSlip;
    }
    inlet
    {
        type            fixedValue;
        value           uniform (0 0 1);
    }
    outlet
    {
        type            zeroGradient;
    }
}


// ************************************************************************* //
