/*--------------------------------*- C++ -*----------------------------------*\
| =========                 |                                                 |
| \\      /  F ield         | OpenFOAM: The Open Source CFD Toolbox           |
|  \\    /   O peration     | Version:  v2106                                 |
|   \\  /    A nd           | Website:  www.openfoam.com                      |
|    \\/     M anipulation  |                                                 |
\*---------------------------------------------------------------------------*/
FoamFile
{
    version     2.0;
    format      ascii;
    arch        "LSB;label=32;scalar=64";
    class       volScalarField;
    location    "10";
    object      DT;
}
// * * * * * * * * * * * * * * * * * * * * * * * * * * * * * * * * * * * * * //

dimensions      [0 2 -1 0 0 0 0];

internalField   nonuniform List<scalar> 
4000
(
0.00055189622
0.00055189632
0.00055189623
0.00055189621
0.00055189621
0.00055189621
0.00055189622
0.00055189623
0.00055189624
0.00055189624
0.00055189632
0.00055189631
0.00055189624
0.00055189623
0.00055189622
0.00055189623
0.00055189623
0.00055189625
0.00055189627
0.00055189627
0.00055189623
0.00055189624
0.00055189618
0.00055189616
0.00055189616
0.00055189616
0.00055189617
0.00055189619
0.00055189621
0.00055189623
0.00055189621
0.00055189623
0.00055189616
0.00055189615
0.00055189614
0.00055189615
0.00055189616
0.00055189618
0.0005518962
0.00055189622
0.00055189621
0.00055189622
0.00055189616
0.00055189614
0.00055189614
0.00055189614
0.00055189616
0.00055189617
0.0005518962
0.00055189622
0.00055189621
0.00055189623
0.00055189616
0.00055189615
0.00055189614
0.00055189615
0.00055189616
0.00055189618
0.0005518962
0.00055189622
0.00055189622
0.00055189623
0.00055189617
0.00055189616
0.00055189616
0.00055189616
0.00055189617
0.00055189619
0.00055189621
0.00055189623
0.00055189623
0.00055189625
0.00055189619
0.00055189618
0.00055189617
0.00055189618
0.00055189619
0.00055189621
0.00055189623
0.00055189625
0.00055189624
0.00055189627
0.00055189621
0.0005518962
0.0005518962
0.0005518962
0.00055189621
0.00055189623
0.00055189626
0.00055189627
0.00055189624
0.00055189627
0.00055189623
0.00055189622
0.00055189622
0.00055189622
0.00055189623
0.00055189625
0.00055189627
0.00055189629
0.00060289703
0.00060289759
0.00060289696
0.00060289678
0.00060289673
0.00060289675
0.00060289683
0.00060289694
0.00060289704
0.00060289704
0.00060289759
0.0006028976
0.00060289706
0.0006028969
0.00060289685
0.00060289687
0.00060289696
0.0006028971
0.00060289725
0.00060289722
0.00060289696
0.00060289706
0.00060289654
0.00060289639
0.00060289634
0.00060289637
0.00060289647
0.00060289663
0.00060289685
0.00060289694
0.00060289678
0.0006028969
0.00060289639
0.00060289624
0.0006028962
0.00060289624
0.00060289634
0.00060289651
0.00060289674
0.00060289684
0.00060289673
0.00060289685
0.00060289634
0.0006028962
0.00060289617
0.0006028962
0.00060289631
0.00060289648
0.00060289671
0.00060289682
0.00060289675
0.00060289687
0.00060289637
0.00060289624
0.0006028962
0.00060289624
0.00060289635
0.00060289653
0.00060289676
0.00060289686
0.00060289683
0.00060289696
0.00060289647
0.00060289634
0.00060289631
0.00060289635
0.00060289646
0.00060289664
0.00060289687
0.00060289697
0.00060289694
0.0006028971
0.00060289663
0.00060289651
0.00060289648
0.00060289653
0.00060289664
0.00060289681
0.00060289704
0.00060289714
0.00060289704
0.00060289725
0.00060289685
0.00060289674
0.00060289671
0.00060289676
0.00060289687
0.00060289704
0.00060289727
0.00060289736
0.00060289704
0.00060289722
0.00060289694
0.00060289684
0.00060289682
0.00060289686
0.00060289697
0.00060289714
0.00060289736
0.00060289742
0.00064948308
0.00064948363
0.00064948267
0.00064948239
0.00064948231
0.00064948235
0.0006494825
0.00064948272
0.00064948293
0.00064948284
0.00064948363
0.00064948348
0.00064948264
0.00064948238
0.00064948231
0.00064948236
0.00064948253
0.0006494828
0.00064948314
0.00064948306
0.00064948267
0.00064948264
0.00064948184
0.0006494816
0.00064948153
0.00064948159
0.00064948177
0.00064948208
0.00064948253
0.00064948264
0.00064948239
0.00064948238
0.0006494816
0.00064948136
0.00064948131
0.00064948137
0.00064948156
0.00064948187
0.00064948234
0.00064948247
0.00064948231
0.00064948231
0.00064948153
0.00064948131
0.00064948126
0.00064948133
0.00064948151
0.00064948184
0.00064948231
0.00064948244
0.00064948235
0.00064948236
0.00064948159
0.00064948137
0.00064948133
0.0006494814
0.00064948159
0.00064948192
0.00064948239
0.00064948253
0.0006494825
0.00064948253
0.00064948177
0.00064948156
0.00064948151
0.00064948159
0.00064948179
0.00064948211
0.00064948259
0.00064948272
0.00064948272
0.0006494828
0.00064948208
0.00064948187
0.00064948184
0.00064948192
0.00064948211
0.00064948244
0.00064948292
0.00064948304
0.00064948293
0.00064948314
0.00064948253
0.00064948234
0.00064948231
0.00064948239
0.00064948259
0.00064948292
0.00064948338
0.00064948348
0.00064948284
0.00064948306
0.00064948264
0.00064948247
0.00064948244
0.00064948253
0.00064948272
0.00064948304
0.00064948348
0.00064948346
0.00069225751
0.000692258
0.00069225679
0.00069225644
0.00069225636
0.00069225644
0.00069225666
0.000692257
0.00069225737
0.00069225729
0.000692258
0.00069225768
0.00069225663
0.00069225632
0.00069225624
0.00069225633
0.00069225657
0.00069225698
0.00069225755
0.00069225751
0.00069225679
0.00069225663
0.00069225563
0.00069225534
0.00069225528
0.00069225537
0.00069225562
0.00069225607
0.00069225679
0.00069225699
0.00069225644
0.00069225632
0.00069225534
0.00069225506
0.00069225501
0.00069225511
0.00069225536
0.00069225582
0.00069225656
0.00069225679
0.00069225636
0.00069225624
0.00069225528
0.00069225501
0.00069225496
0.00069225506
0.00069225532
0.00069225579
0.00069225653
0.00069225676
0.00069225644
0.00069225633
0.00069225537
0.00069225511
0.00069225506
0.00069225517
0.00069225544
0.0006922559
0.00069225665
0.00069225688
0.00069225666
0.00069225657
0.00069225562
0.00069225536
0.00069225532
0.00069225544
0.0006922557
0.00069225617
0.00069225692
0.00069225715
0.000692257
0.00069225698
0.00069225607
0.00069225582
0.00069225579
0.0006922559
0.00069225617
0.00069225664
0.00069225739
0.00069225762
0.00069225737
0.00069225755
0.00069225679
0.00069225656
0.00069225653
0.00069225665
0.00069225692
0.00069225739
0.00069225813
0.00069225832
0.00069225729
0.00069225751
0.00069225699
0.00069225679
0.00069225676
0.00069225688
0.00069225715
0.00069225762
0.00069225832
0.00069225822
0.00073166146
0.00073166187
0.00073166047
0.00073166011
0.00073166004
0.00073166016
0.00073166044
0.00073166089
0.00073166143
0.00073166141
0.00073166187
0.00073166141
0.00073166021
0.00073165989
0.00073165983
0.00073165995
0.00073166025
0.00073166078
0.00073166158
0.00073166163
0.00073166047
0.00073166021
0.00073165908
0.00073165878
0.00073165873
0.00073165886
0.00073165917
0.00073165974
0.00073166071
0.00073166104
0.00073166011
0.00073165989
0.00073165878
0.00073165849
0.00073165846
0.00073165859
0.0007316589
0.00073165947
0.00073166047
0.00073166082
0.00073166004
0.00073165983
0.00073165873
0.00073165846
0.00073165842
0.00073165856
0.00073165888
0.00073165945
0.00073166044
0.0007316608
0.00073166016
0.00073165995
0.00073165886
0.00073165859
0.00073165856
0.0007316587
0.00073165902
0.0007316596
0.00073166059
0.00073166094
0.00073166044
0.00073166025
0.00073165917
0.0007316589
0.00073165888
0.00073165902
0.00073165934
0.00073165992
0.00073166092
0.00073166128
0.00073166089
0.00073166078
0.00073165974
0.00073165947
0.00073165945
0.0007316596
0.00073165992
0.00073166051
0.00073166151
0.00073166187
0.00073166143
0.00073166158
0.00073166071
0.00073166047
0.00073166044
0.00073166059
0.00073166092
0.00073166151
0.00073166251
0.00073166284
0.00073166141
0.00073166163
0.00073166104
0.00073166082
0.0007316608
0.00073166094
0.00073166128
0.00073166187
0.00073166284
0.00073166271
0.00076803328
0.00076803362
0.00076803211
0.00076803176
0.00076803172
0.00076803187
0.00076803221
0.00076803275
0.00076803344
0.00076803349
0.00076803362
0.00076803305
0.00076803177
0.00076803146
0.00076803143
0.00076803159
0.00076803194
0.00076803256
0.00076803355
0.0007680337
0.00076803211
0.00076803177
0.00076803056
0.00076803028
0.00076803026
0.00076803042
0.00076803078
0.00076803143
0.00076803261
0.00076803307
0.00076803176
0.00076803146
0.00076803028
0.00076803002
0.00076803001
0.00076803017
0.00076803052
0.00076803117
0.00076803237
0.00076803284
0.00076803172
0.00076803143
0.00076803026
0.00076803001
0.00076803
0.00076803017
0.00076803052
0.00076803117
0.00076803236
0.00076803283
0.00076803187
0.00076803159
0.00076803042
0.00076803017
0.00076803017
0.00076803033
0.00076803068
0.00076803133
0.00076803253
0.000768033
0.00076803221
0.00076803194
0.00076803078
0.00076803052
0.00076803052
0.00076803068
0.00076803104
0.00076803169
0.00076803289
0.00076803337
0.00076803275
0.00076803256
0.00076803143
0.00076803117
0.00076803117
0.00076803133
0.00076803169
0.00076803236
0.00076803357
0.00076803406
0.00076803344
0.00076803355
0.00076803261
0.00076803237
0.00076803236
0.00076803253
0.00076803289
0.00076803357
0.00076803479
0.00076803526
0.00076803349
0.0007680337
0.00076803307
0.00076803284
0.00076803283
0.000768033
0.00076803337
0.00076803406
0.00076803526
0.00076803514
0.00080164303
0.00080164331
0.00080164173
0.00080164142
0.00080164142
0.00080164161
0.00080164198
0.00080164259
0.00080164339
0.0008016435
0.00080164331
0.00080164267
0.00080164135
0.00080164108
0.0008016411
0.00080164128
0.00080164166
0.00080164234
0.00080164348
0.00080164372
0.00080164173
0.00080164135
0.00080164011
0.00080163988
0.0008016399
0.00080164008
0.00080164046
0.00080164116
0.0008016425
0.00080164306
0.00080164142
0.00080164108
0.00080163988
0.00080163966
0.00080163968
0.00080163987
0.00080164023
0.00080164092
0.00080164226
0.00080164284
0.00080164142
0.0008016411
0.0008016399
0.00080163968
0.00080163971
0.00080163989
0.00080164026
0.00080164094
0.00080164227
0.00080164284
0.00080164161
0.00080164128
0.00080164008
0.00080163987
0.00080163989
0.00080164007
0.00080164044
0.00080164112
0.00080164245
0.00080164302
0.00080164198
0.00080164166
0.00080164046
0.00080164023
0.00080164026
0.00080164044
0.0008016408
0.00080164149
0.00080164283
0.00080164341
0.00080164259
0.00080164234
0.00080164116
0.00080164092
0.00080164094
0.00080164112
0.00080164149
0.00080164219
0.00080164355
0.00080164416
0.00080164339
0.00080164348
0.0008016425
0.00080164226
0.00080164227
0.00080164245
0.00080164283
0.00080164355
0.00080164494
0.00080164555
0.0008016435
0.00080164372
0.00080164306
0.00080164284
0.00080164284
0.00080164302
0.00080164341
0.00080164416
0.00080164555
0.00080164545
0.00083271348
0.00083271373
0.00083271213
0.00083271187
0.00083271192
0.00083271214
0.00083271253
0.00083271316
0.00083271404
0.0008327142
0.00083271373
0.00083271304
0.00083271173
0.00083271153
0.00083271158
0.00083271179
0.00083271218
0.00083271288
0.00083271412
0.00083271443
0.00083271213
0.00083271173
0.00083271051
0.00083271033
0.00083271039
0.0008327106
0.00083271097
0.00083271169
0.00083271312
0.00083271377
0.00083271187
0.00083271153
0.00083271033
0.00083271017
0.00083271024
0.00083271043
0.00083271079
0.00083271148
0.00083271291
0.00083271356
0.00083271192
0.00083271158
0.00083271039
0.00083271024
0.0008327103
0.00083271049
0.00083271084
0.00083271152
0.00083271293
0.00083271357
0.00083271214
0.00083271179
0.0008327106
0.00083271043
0.00083271049
0.00083271068
0.00083271102
0.00083271169
0.00083271311
0.00083271375
0.00083271253
0.00083271218
0.00083271097
0.00083271079
0.00083271084
0.00083271102
0.00083271137
0.00083271205
0.00083271348
0.00083271413
0.00083271316
0.00083271288
0.00083271169
0.00083271148
0.00083271152
0.00083271169
0.00083271205
0.00083271275
0.0008327142
0.0008327149
0.00083271404
0.00083271412
0.00083271312
0.00083271291
0.00083271293
0.00083271311
0.00083271348
0.0008327142
0.00083271571
0.00083271642
0.0008327142
0.00083271443
0.00083271377
0.00083271356
0.00083271357
0.00083271375
0.00083271413
0.0008327149
0.00083271642
0.00083271635
0.00086143367
0.00086143391
0.00086143233
0.00086143214
0.00086143224
0.00086143247
0.00086143286
0.00086143349
0.00086143441
0.0008614346
0.00086143391
0.00086143321
0.00086143194
0.00086143181
0.00086143191
0.00086143213
0.00086143251
0.0008614332
0.00086143449
0.00086143484
0.00086143233
0.00086143194
0.00086143076
0.00086143066
0.00086143076
0.00086143097
0.00086143133
0.00086143202
0.0008614335
0.00086143419
0.00086143214
0.00086143181
0.00086143066
0.00086143057
0.00086143067
0.00086143086
0.0008614312
0.00086143185
0.00086143331
0.000861434
0.00086143224
0.00086143191
0.00086143076
0.00086143067
0.00086143076
0.00086143095
0.00086143127
0.0008614319
0.00086143334
0.00086143402
0.00086143247
0.00086143213
0.00086143097
0.00086143086
0.00086143095
0.00086143113
0.00086143144
0.00086143207
0.00086143351
0.00086143418
0.00086143286
0.00086143251
0.00086143133
0.0008614312
0.00086143127
0.00086143144
0.00086143175
0.00086143239
0.00086143384
0.00086143453
0.00086143349
0.0008614332
0.00086143202
0.00086143185
0.0008614319
0.00086143207
0.00086143239
0.00086143305
0.00086143454
0.00086143529
0.00086143441
0.00086143449
0.0008614335
0.00086143331
0.00086143334
0.00086143351
0.00086143384
0.00086143454
0.0008614361
0.00086143689
0.0008614346
0.00086143484
0.00086143419
0.000861434
0.00086143402
0.00086143418
0.00086143453
0.00086143529
0.00086143689
0.00086143683
0.00088796789
0.00088796813
0.0008879666
0.00088796649
0.00088796662
0.00088796687
0.00088796724
0.00088796785
0.00088796876
0.00088796896
0.00088796813
0.00088796745
0.00088796624
0.00088796618
0.00088796632
0.00088796655
0.0008879669
0.00088796755
0.00088796886
0.00088796923
0.0008879666
0.00088796624
0.00088796513
0.0008879651
0.00088796524
0.00088796545
0.00088796577
0.00088796641
0.00088796789
0.0008879686
0.00088796649
0.00088796618
0.0008879651
0.00088796508
0.00088796522
0.00088796541
0.0008879657
0.00088796628
0.00088796773
0.00088796843
0.00088796662
0.00088796632
0.00088796524
0.00088796522
0.00088796534
0.00088796552
0.00088796579
0.00088796635
0.00088796777
0.00088796845
0.00088796687
0.00088796655
0.00088796545
0.00088796541
0.00088796552
0.00088796568
0.00088796594
0.00088796649
0.00088796791
0.00088796858
0.00088796724
0.0008879669
0.00088796577
0.0008879657
0.00088796579
0.00088796594
0.0008879662
0.00088796676
0.00088796819
0.00088796889
0.00088796785
0.00088796755
0.00088796641
0.00088796628
0.00088796635
0.00088796649
0.00088796676
0.00088796735
0.00088796883
0.00088796959
0.00088796876
0.00088796886
0.00088796789
0.00088796773
0.00088796777
0.00088796791
0.00088796819
0.00088796883
0.0008879704
0.00088797124
0.00088796896
0.00088796923
0.0008879686
0.00088796843
0.00088796845
0.00088796858
0.00088796889
0.00088796959
0.00088797124
0.00088797118
0.00091246183
0.00091246209
0.00091246063
0.0009124606
0.00091246078
0.00091246102
0.00091246136
0.00091246192
0.00091246281
0.000912463
0.00091246209
0.00091246145
0.00091246032
0.00091246034
0.00091246052
0.00091246074
0.00091246105
0.00091246164
0.00091246292
0.00091246328
0.00091246063
0.00091246032
0.0009124593
0.00091245934
0.00091245952
0.00091245971
0.00091245998
0.00091246054
0.00091246198
0.00091246268
0.0009124606
0.00091246034
0.00091245934
0.0009124594
0.00091245956
0.00091245973
0.00091245996
0.00091246046
0.00091246186
0.00091246254
0.00091246078
0.00091246052
0.00091245952
0.00091245956
0.00091245971
0.00091245987
0.00091246007
0.00091246053
0.0009124619
0.00091246255
0.00091246102
0.00091246074
0.00091245971
0.00091245973
0.00091245987
0.00091246
0.00091246019
0.00091246065
0.000912462
0.00091246265
0.00091246136
0.00091246105
0.00091245998
0.00091245996
0.00091246007
0.00091246019
0.00091246038
0.00091246084
0.00091246222
0.00091246289
0.00091246192
0.00091246164
0.00091246054
0.00091246046
0.00091246053
0.00091246065
0.00091246084
0.00091246134
0.00091246277
0.00091246352
0.00091246281
0.00091246292
0.00091246198
0.00091246186
0.0009124619
0.000912462
0.00091246222
0.00091246277
0.00091246431
0.00091246517
0.000912463
0.00091246328
0.00091246268
0.00091246254
0.00091246255
0.00091246265
0.00091246289
0.00091246352
0.00091246517
0.00091246509
0.00093504699
0.00093504727
0.0009350459
0.00093504594
0.00093504615
0.00093504638
0.00093504668
0.00093504717
0.00093504801
0.00093504818
0.00093504727
0.00093504668
0.00093504565
0.00093504574
0.00093504595
0.00093504616
0.00093504641
0.00093504692
0.00093504814
0.00093504848
0.0009350459
0.00093504565
0.00093504471
0.00093504483
0.00093504503
0.00093504521
0.00093504541
0.00093504588
0.00093504725
0.00093504792
0.00093504594
0.00093504574
0.00093504483
0.00093504495
0.00093504514
0.00093504529
0.00093504545
0.00093504584
0.00093504716
0.00093504779
0.00093504615
0.00093504595
0.00093504503
0.00093504514
0.00093504531
0.00093504543
0.00093504556
0.00093504592
0.00093504719
0.0009350478
0.00093504638
0.00093504616
0.00093504521
0.00093504529
0.00093504543
0.00093504554
0.00093504565
0.00093504599
0.00093504726
0.00093504786
0.00093504668
0.00093504641
0.00093504541
0.00093504545
0.00093504556
0.00093504565
0.00093504575
0.0009350461
0.00093504739
0.00093504802
0.00093504717
0.00093504692
0.00093504588
0.00093504584
0.00093504592
0.00093504599
0.0009350461
0.00093504649
0.00093504784
0.00093504856
0.00093504801
0.00093504814
0.00093504725
0.00093504716
0.00093504719
0.00093504726
0.00093504739
0.00093504784
0.00093504932
0.00093505017
0.00093504818
0.00093504848
0.00093504792
0.00093504779
0.0009350478
0.00093504786
0.00093504802
0.00093504856
0.00093505017
0.00093505006
0.00095584371
0.00095584403
0.00095584275
0.00095584286
0.0009558431
0.00095584331
0.00095584356
0.00095584397
0.00095584474
0.00095584487
0.00095584403
0.00095584349
0.00095584256
0.00095584272
0.00095584296
0.00095584314
0.00095584334
0.00095584376
0.00095584489
0.0009558452
0.00095584275
0.00095584256
0.00095584173
0.00095584191
0.00095584213
0.00095584228
0.00095584242
0.00095584278
0.00095584405
0.00095584467
0.00095584286
0.00095584272
0.00095584191
0.00095584209
0.0009558423
0.00095584241
0.00095584249
0.00095584278
0.00095584399
0.00095584456
0.0009558431
0.00095584296
0.00095584213
0.0009558423
0.00095584248
0.00095584257
0.00095584261
0.00095584285
0.00095584401
0.00095584456
0.00095584331
0.00095584314
0.00095584228
0.00095584241
0.00095584257
0.00095584263
0.00095584266
0.00095584288
0.00095584403
0.00095584457
0.00095584356
0.00095584334
0.00095584242
0.00095584249
0.00095584261
0.00095584266
0.00095584267
0.0009558429
0.00095584408
0.00095584465
0.00095584397
0.00095584376
0.00095584278
0.00095584278
0.00095584285
0.00095584288
0.0009558429
0.00095584317
0.00095584442
0.00095584509
0.00095584474
0.00095584489
0.00095584405
0.00095584399
0.00095584401
0.00095584403
0.00095584408
0.00095584442
0.0009558458
0.00095584662
0.00095584487
0.0009558452
0.00095584467
0.00095584456
0.00095584456
0.00095584457
0.00095584465
0.00095584509
0.00095584662
0.00095584649
0.00097496352
0.00097496388
0.0009749627
0.00097496287
0.00097496313
0.00097496332
0.00097496351
0.00097496384
0.00097496453
0.00097496461
0.00097496388
0.00097496341
0.00097496258
0.0009749628
0.00097496305
0.00097496321
0.00097496334
0.00097496366
0.0009749647
0.00097496496
0.0009749627
0.00097496258
0.00097496185
0.00097496209
0.00097496232
0.00097496244
0.0009749625
0.00097496275
0.00097496392
0.00097496447
0.00097496287
0.0009749628
0.00097496209
0.00097496232
0.00097496253
0.00097496262
0.00097496262
0.00097496278
0.00097496387
0.00097496438
0.00097496313
0.00097496305
0.00097496232
0.00097496253
0.00097496272
0.00097496277
0.00097496273
0.00097496284
0.00097496388
0.00097496435
0.00097496332
0.00097496321
0.00097496244
0.00097496262
0.00097496277
0.00097496279
0.00097496273
0.00097496282
0.00097496385
0.00097496431
0.00097496351
0.00097496334
0.0009749625
0.00097496262
0.00097496273
0.00097496273
0.00097496266
0.00097496276
0.00097496381
0.00097496431
0.00097496384
0.00097496366
0.00097496275
0.00097496278
0.00097496284
0.00097496282
0.00097496276
0.00097496291
0.00097496404
0.00097496464
0.00097496453
0.0009749647
0.00097496392
0.00097496387
0.00097496388
0.00097496385
0.00097496381
0.00097496404
0.00097496531
0.00097496609
0.00097496461
0.00097496496
0.00097496447
0.00097496438
0.00097496435
0.00097496431
0.00097496431
0.00097496464
0.00097496609
0.00097496591
0.00099251079
0.00099251117
0.0009925101
0.00099251033
0.0009925106
0.00099251076
0.00099251088
0.00099251112
0.00099251172
0.00099251176
0.00099251117
0.00099251077
0.00099251005
0.00099251032
0.00099251057
0.0009925107
0.00099251076
0.00099251099
0.00099251192
0.00099251212
0.0009925101
0.00099251005
0.00099250941
0.00099250969
0.00099250993
0.00099251002
0.00099251
0.00099251015
0.00099251119
0.00099251167
0.00099251033
0.00099251032
0.00099250969
0.00099250998
0.00099251019
0.00099251023
0.00099251015
0.0009925102
0.00099251116
0.00099251159
0.0009925106
0.00099251057
0.00099250993
0.00099251019
0.00099251037
0.00099251038
0.00099251026
0.00099251025
0.00099251116
0.00099251155
0.00099251076
0.0009925107
0.00099251002
0.00099251023
0.00099251038
0.00099251036
0.00099251021
0.00099251019
0.00099251108
0.00099251146
0.00099251088
0.00099251076
0.00099251
0.00099251015
0.00099251026
0.00099251021
0.00099251005
0.00099251004
0.00099251095
0.00099251137
0.00099251112
0.00099251099
0.00099251015
0.0009925102
0.00099251025
0.00099251019
0.00099251004
0.00099251006
0.00099251106
0.00099251158
0.00099251172
0.00099251192
0.00099251119
0.00099251116
0.00099251116
0.00099251108
0.00099251095
0.00099251106
0.00099251222
0.00099251294
0.00099251176
0.00099251212
0.00099251167
0.00099251159
0.00099251155
0.00099251146
0.00099251137
0.00099251158
0.00099251294
0.00099251272
0.0010085839
0.0010085843
0.0010085834
0.0010085836
0.0010085839
0.001008584
0.0010085841
0.0010085843
0.0010085848
0.0010085847
0.0010085843
0.001008584
0.0010085834
0.0010085837
0.0010085839
0.001008584
0.001008584
0.0010085842
0.001008585
0.0010085851
0.0010085834
0.0010085834
0.0010085828
0.0010085831
0.0010085834
0.0010085834
0.0010085833
0.0010085834
0.0010085843
0.0010085847
0.0010085836
0.0010085837
0.0010085831
0.0010085835
0.0010085837
0.0010085837
0.0010085835
0.0010085835
0.0010085843
0.0010085846
0.0010085839
0.0010085839
0.0010085834
0.0010085837
0.0010085838
0.0010085838
0.0010085836
0.0010085835
0.0010085843
0.0010085846
0.001008584
0.001008584
0.0010085834
0.0010085837
0.0010085838
0.0010085837
0.0010085835
0.0010085834
0.0010085841
0.0010085844
0.0010085841
0.001008584
0.0010085833
0.0010085835
0.0010085836
0.0010085835
0.0010085833
0.0010085831
0.0010085839
0.0010085843
0.0010085843
0.0010085842
0.0010085834
0.0010085835
0.0010085835
0.0010085834
0.0010085831
0.001008583
0.0010085839
0.0010085844
0.0010085848
0.001008585
0.0010085843
0.0010085843
0.0010085843
0.0010085841
0.0010085839
0.0010085839
0.001008585
0.0010085856
0.0010085847
0.0010085851
0.0010085847
0.0010085846
0.0010085846
0.0010085844
0.0010085843
0.0010085844
0.0010085856
0.0010085853
0.0010232763
0.0010232767
0.0010232759
0.0010232762
0.0010232764
0.0010232765
0.0010232765
0.0010232766
0.001023277
0.001023277
0.0010232767
0.0010232765
0.0010232759
0.0010232763
0.0010232765
0.0010232766
0.0010232765
0.0010232766
0.0010232773
0.0010232773
0.0010232759
0.0010232759
0.0010232755
0.0010232758
0.0010232761
0.0010232761
0.0010232759
0.0010232758
0.0010232766
0.001023277
0.0010232762
0.0010232763
0.0010232758
0.0010232762
0.0010232764
0.0010232763
0.0010232761
0.0010232759
0.0010232766
0.0010232769
0.0010232764
0.0010232765
0.0010232761
0.0010232764
0.0010232765
0.0010232765
0.0010232762
0.001023276
0.0010232766
0.0010232768
0.0010232765
0.0010232766
0.0010232761
0.0010232763
0.0010232765
0.0010232764
0.001023276
0.0010232758
0.0010232764
0.0010232766
0.0010232765
0.0010232765
0.0010232759
0.0010232761
0.0010232762
0.001023276
0.0010232757
0.0010232755
0.0010232761
0.0010232764
0.0010232766
0.0010232766
0.0010232758
0.0010232759
0.001023276
0.0010232758
0.0010232755
0.0010232753
0.001023276
0.0010232764
0.001023277
0.0010232773
0.0010232766
0.0010232766
0.0010232766
0.0010232764
0.0010232761
0.001023276
0.0010232769
0.0010232775
0.001023277
0.0010232773
0.001023277
0.0010232769
0.0010232768
0.0010232766
0.0010232764
0.0010232764
0.0010232775
0.0010232772
0.001036677
0.0010366775
0.0010366767
0.001036677
0.0010366773
0.0010366773
0.0010366773
0.0010366773
0.0010366776
0.0010366775
0.0010366775
0.0010366773
0.0010366768
0.0010366772
0.0010366774
0.0010366774
0.0010366773
0.0010366772
0.0010366779
0.0010366779
0.0010366767
0.0010366768
0.0010366764
0.0010366768
0.001036677
0.001036677
0.0010366768
0.0010366766
0.0010366773
0.0010366775
0.001036677
0.0010366772
0.0010366768
0.0010366771
0.0010366773
0.0010366773
0.001036677
0.0010366767
0.0010366773
0.0010366775
0.0010366773
0.0010366774
0.001036677
0.0010366773
0.0010366775
0.0010366774
0.001036677
0.0010366767
0.0010366772
0.0010366774
0.0010366773
0.0010366774
0.001036677
0.0010366773
0.0010366774
0.0010366772
0.0010366768
0.0010366765
0.001036677
0.0010366771
0.0010366773
0.0010366773
0.0010366768
0.001036677
0.001036677
0.0010366768
0.0010366765
0.0010366761
0.0010366766
0.0010366768
0.0010366773
0.0010366772
0.0010366766
0.0010366767
0.0010366767
0.0010366765
0.0010366761
0.0010366758
0.0010366764
0.0010366767
0.0010366776
0.0010366779
0.0010366773
0.0010366773
0.0010366772
0.001036677
0.0010366766
0.0010366764
0.0010366772
0.0010366777
0.0010366775
0.0010366779
0.0010366775
0.0010366775
0.0010366774
0.0010366771
0.0010366768
0.0010366767
0.0010366777
0.0010366774
0.0010488712
0.0010488717
0.001048871
0.0010488713
0.0010488716
0.0010488716
0.0010488715
0.0010488714
0.0010488717
0.0010488715
0.0010488717
0.0010488715
0.0010488711
0.0010488715
0.0010488718
0.0010488718
0.0010488716
0.0010488714
0.0010488719
0.0010488719
0.001048871
0.0010488711
0.0010488708
0.0010488712
0.0010488714
0.0010488714
0.0010488711
0.0010488709
0.0010488714
0.0010488716
0.0010488713
0.0010488715
0.0010488712
0.0010488716
0.0010488718
0.0010488716
0.0010488713
0.001048871
0.0010488714
0.0010488715
0.0010488716
0.0010488718
0.0010488714
0.0010488718
0.0010488719
0.0010488717
0.0010488713
0.0010488709
0.0010488713
0.0010488714
0.0010488716
0.0010488718
0.0010488714
0.0010488716
0.0010488717
0.0010488716
0.0010488711
0.0010488707
0.0010488711
0.0010488711
0.0010488715
0.0010488716
0.0010488711
0.0010488713
0.0010488713
0.0010488711
0.0010488707
0.0010488703
0.0010488707
0.0010488708
0.0010488714
0.0010488714
0.0010488709
0.001048871
0.0010488709
0.0010488707
0.0010488703
0.0010488699
0.0010488704
0.0010488706
0.0010488717
0.0010488719
0.0010488714
0.0010488714
0.0010488713
0.0010488711
0.0010488707
0.0010488704
0.001048871
0.0010488715
0.0010488715
0.0010488719
0.0010488716
0.0010488715
0.0010488714
0.0010488711
0.0010488708
0.0010488706
0.0010488715
0.0010488711
0.0010599407
0.0010599411
0.0010599405
0.0010599409
0.0010599411
0.0010599411
0.001059941
0.0010599408
0.001059941
0.0010599408
0.0010599411
0.001059941
0.0010599407
0.0010599411
0.0010599413
0.0010599413
0.0010599411
0.0010599409
0.0010599413
0.0010599412
0.0010599405
0.0010599407
0.0010599405
0.0010599408
0.001059941
0.001059941
0.0010599406
0.0010599403
0.0010599408
0.0010599409
0.0010599409
0.0010599411
0.0010599408
0.0010599412
0.0010599414
0.0010599412
0.0010599408
0.0010599404
0.0010599408
0.0010599408
0.0010599411
0.0010599413
0.001059941
0.0010599414
0.0010599415
0.0010599413
0.0010599409
0.0010599404
0.0010599407
0.0010599407
0.0010599411
0.0010599413
0.001059941
0.0010599412
0.0010599413
0.0010599411
0.0010599406
0.0010599401
0.0010599404
0.0010599404
0.001059941
0.0010599411
0.0010599406
0.0010599408
0.0010599409
0.0010599406
0.0010599401
0.0010599396
0.0010599399
0.00105994
0.0010599408
0.0010599409
0.0010599403
0.0010599404
0.0010599404
0.0010599401
0.0010599396
0.0010599392
0.0010599396
0.0010599397
0.001059941
0.0010599413
0.0010599408
0.0010599408
0.0010599407
0.0010599404
0.0010599399
0.0010599396
0.0010599401
0.0010599405
0.0010599408
0.0010599412
0.0010599409
0.0010599408
0.0010599407
0.0010599404
0.00105994
0.0010599397
0.0010599405
0.0010599401
0.0010699638
0.0010699643
0.0010699638
0.0010699642
0.0010699644
0.0010699644
0.0010699642
0.001069964
0.0010699641
0.0010699638
0.0010699643
0.0010699643
0.001069964
0.0010699644
0.0010699646
0.0010699645
0.0010699643
0.001069964
0.0010699643
0.0010699642
0.0010699638
0.001069964
0.0010699638
0.0010699642
0.0010699644
0.0010699642
0.0010699639
0.0010699635
0.0010699639
0.0010699639
0.0010699642
0.0010699644
0.0010699642
0.0010699645
0.0010699647
0.0010699645
0.0010699641
0.0010699636
0.0010699639
0.0010699639
0.0010699644
0.0010699646
0.0010699644
0.0010699647
0.0010699648
0.0010699646
0.0010699641
0.0010699636
0.0010699638
0.0010699637
0.0010699644
0.0010699645
0.0010699642
0.0010699645
0.0010699646
0.0010699643
0.0010699638
0.0010699633
0.0010699635
0.0010699634
0.0010699642
0.0010699643
0.0010699639
0.0010699641
0.0010699641
0.0010699638
0.0010699633
0.0010699627
0.001069963
0.0010699629
0.001069964
0.001069964
0.0010699635
0.0010699636
0.0010699636
0.0010699633
0.0010699627
0.0010699622
0.0010699625
0.0010699626
0.0010699641
0.0010699643
0.0010699639
0.0010699639
0.0010699638
0.0010699635
0.001069963
0.0010699625
0.001069963
0.0010699633
0.0010699638
0.0010699642
0.0010699639
0.0010699639
0.0010699637
0.0010699634
0.0010699629
0.0010699626
0.0010699633
0.0010699629
0.0010790162
0.0010790167
0.0010790162
0.0010790166
0.0010790168
0.0010790167
0.0010790165
0.0010790163
0.0010790163
0.0010790161
0.0010790167
0.0010790167
0.0010790165
0.0010790168
0.001079017
0.0010790169
0.0010790166
0.0010790163
0.0010790166
0.0010790164
0.0010790162
0.0010790165
0.0010790163
0.0010790167
0.0010790168
0.0010790167
0.0010790163
0.0010790159
0.0010790162
0.0010790162
0.0010790166
0.0010790168
0.0010790167
0.001079017
0.0010790171
0.0010790169
0.0010790165
0.001079016
0.0010790162