/*--------------------------------*- C++ -*----------------------------------*\
| =========                 |                                                 |
| \\      /  F ield         | OpenFOAM: The Open Source CFD Toolbox           |
|  \\    /   O peration     | Version:  v2106                                 |
|   \\  /    A nd           | Website:  www.openfoam.com                      |
|    \\/     M anipulation  |                                                 |
\*---------------------------------------------------------------------------*/
FoamFile
{
    version     2.0;
    format      ascii;
    arch        "LSB;label=32;scalar=64";
    class       volVectorField;
    location    "10";
    object      flux;
}
// * * * * * * * * * * * * * * * * * * * * * * * * * * * * * * * * * * * * * //

dimensions      [0 1 -1 1 0 0 0];

internalField   nonuniform List<vector> 
4000
(
(8.8092879e-07 8.8092879e-07 0.68605935)
(1.3177341e-07 -1.7732789e-08 0.68606721)
(-1.4414918e-06 1.3558981e-07 0.68605896)
(-3.2698836e-07 1.5601128e-07 0.68605679)
(-4.4953954e-08 1.6055235e-07 0.68605615)
(1.4517337e-07 1.6490143e-07 0.6860564)
(2.8187942e-07 1.7458629e-07 0.68605736)
(3.1400696e-07 1.992158e-07 0.68605875)
(1.6871524e-07 2.4546351e-07 0.68605998)
(1.4384478e-08 2.5149031e-07 0.68606003)
(-1.7732788e-08 1.3177341e-07 0.68606721)
(-9.8623525e-07 -9.8623525e-07 0.68606728)
(-1.1808758e-06 -7.1816895e-07 0.68606028)
(-2.8954455e-07 -6.7524356e-07 0.68605832)
(-3.1618729e-08 -6.6075572e-07 0.68605774)
(1.6622428e-07 -6.4635257e-07 0.68605805)
(3.3335097e-07 -6.1751866e-07 0.68605912)
(4.2032279e-07 -5.4382565e-07 0.68606083)
(2.4712702e-07 -3.7476563e-07 0.68606265)
(2.0411282e-08 -1.6796308e-07 0.68606245)
(1.3558981e-07 -1.4414918e-06 0.68605896)
(-7.1816895e-07 -1.1808758e-06 0.68606028)
(-1.1305002e-06 -1.1305002e-06 0.68605357)
(-2.6957514e-07 -1.1092155e-06 0.68605173)
(-1.6062972e-08 -1.0945669e-06 0.68605121)
(1.8841043e-07 -1.0803656e-06 0.68605158)
(3.8440633e-07 -1.0586788e-06 0.68605278)
(5.5675996e-07 -1.0120054e-06 0.68605478)
(5.4457778e-07 -8.9926436e-07 0.68605744)
(1.5225284e-07 -6.9057432e-07 0.68605873)
(1.5601128e-07 -3.2698836e-07 0.68605679)
(-6.7524356e-07 -2.8954456e-07 0.68605832)
(-1.1092155e-06 -2.6957514e-07 0.68605173)
(-2.5361129e-07 -2.5361129e-07 0.68604997)
(-2.7688317e-09 -2.4089325e-07 0.68604951)
(2.0211245e-07 -2.2961326e-07 0.68604993)
(4.0171122e-07 -2.1734766e-07 0.68605118)
(5.797372e-07 -2.0230542e-07 0.68605327)
(5.685581e-07 -1.8462408e-07 0.68605605)
(1.5953799e-07 -1.7207231e-07 0.68605747)
(1.6055235e-07 -4.4953956e-08 0.68605615)
(-6.6075572e-07 -3.1618725e-08 0.68605774)
(-1.0945669e-06 -1.6062969e-08 0.68605121)
(-2.4089325e-07 -2.7688306e-09 0.68604951)
(7.9350567e-09 7.9350551e-09 0.68604909)
(2.1195602e-07 1.6812727e-08 0.68604955)
(4.1171418e-07 2.5007403e-08 0.68605084)
(5.8948354e-07 3.3010478e-08 0.68605297)
(5.7481089e-07 3.9843976e-08 0.6860558)
(1.6062069e-07 4.2364773e-08 0.68605723)
(1.6490143e-07 1.4517337e-07 0.6860564)
(-6.4635257e-07 1.6622428e-07 0.68605805)
(-1.0803656e-06 1.8841043e-07 0.68605158)
(-2.2961327e-07 2.0211245e-07 0.68604993)
(1.6812726e-08 2.1195602e-07 0.68604955)
(2.191848e-07 2.191848e-07 0.68605005)
(4.1790898e-07 2.246895e-07 0.68605136)
(5.9457378e-07 2.2880291e-07 0.68605352)
(5.7791239e-07 2.3125726e-07 0.68605636)
(1.6121852e-07 2.3184972e-07 0.6860578)
(1.7458629e-07 2.8187942e-07 0.68605736)
(-6.1751866e-07 3.3335096e-07 0.68605912)
(-1.0586788e-06 3.8440633e-07 0.68605278)
(-2.1734766e-07 4.0171123e-07 0.68605118)
(2.5007406e-08 4.1171418e-07 0.68605084)
(2.246895e-07 4.1790897e-07 0.68605136)
(4.2133229e-07 4.2133229e-07 0.6860527)
(5.9605129e-07 4.2199856e-07 0.68605486)
(5.778577e-07 4.195634e-07 0.6860577)
(1.6101566e-07 4.1587868e-07 0.68605915)
(1.9921579e-07 3.1400696e-07 0.68605875)
(-5.4382565e-07 4.2032279e-07 0.68606083)
(-1.0120054e-06 5.5675996e-07 0.68605478)
(-2.0230542e-07 5.797372e-07 0.68605327)
(3.3010475e-08 5.8948354e-07 0.68605297)
(2.2880291e-07 5.9457377e-07 0.68605352)
(4.2199856e-07 5.9605129e-07 0.68605486)
(5.9280488e-07 5.9280488e-07 0.68605702)
(5.7179251e-07 5.8229801e-07 0.68605984)
(1.5876204e-07 5.6694878e-07 0.68606125)
(2.4546351e-07 1.6871524e-07 0.68605998)
(-3.7476563e-07 2.4712702e-07 0.68606265)
(-8.9926437e-07 5.4457778e-07 0.68605744)
(-1.8462408e-07 5.685581e-07 0.68605605)
(3.9843975e-08 5.7481089e-07 0.6860558)
(2.3125726e-07 5.7791239e-07 0.68605636)
(4.195634e-07 5.778577e-07 0.6860577)
(5.8229802e-07 5.7179251e-07 0.68605984)
(5.5200159e-07 5.520016e-07 0.6860626)
(1.5078284e-07 5.1265492e-07 0.6860639)
(2.5149031e-07 1.4384479e-08 0.68606003)
(-1.6796308e-07 2.0411281e-08 0.68606245)
(-6.9057432e-07 1.5225284e-07 0.68605873)
(-1.7207231e-07 1.5953799e-07 0.68605747)
(4.2364772e-08 1.6062069e-07 0.68605723)
(2.3184972e-07 1.6121852e-07 0.6860578)
(4.1587868e-07 1.6101566e-07 0.68605915)
(5.6694878e-07 1.5876204e-07 0.68606125)
(5.1265492e-07 1.5078284e-07 0.6860639)
(1.3253092e-07 1.3253092e-07 0.68606491)
(5.5706929e-06 5.5706929e-06 1.4708707)
(-1.0931341e-06 1.3898636e-07 1.470879)
(-1.2137877e-05 9.7652554e-07 1.4708642)
(-3.4810892e-06 1.1412058e-06 1.4708598)
(-4.8107744e-07 1.1879081e-06 1.4708585)
(1.4846965e-06 1.2314958e-06 1.4708592)
(2.8826503e-06 1.329193e-06 1.4708615)
(3.2122729e-06 1.5867217e-06 1.470865)
(1.5173991e-06 2.0778464e-06 1.4708681)
(9.5913752e-09 1.7803147e-06 1.4708668)
(1.3898636e-07 -1.0931341e-06 1.470879)
(-7.9843915e-06 -7.9843915e-06 1.4708768)
(-1.0634548e-05 -6.3629923e-06 1.4708638)
(-3.1640153e-06 -5.9752512e-06 1.4708597)
(-3.4564254e-07 -5.8251848e-06 1.4708586)
(1.6966239e-06 -5.6822399e-06 1.4708594)
(3.4154893e-06 -5.3952161e-06 1.470862)
(4.3352532e-06 -4.638374e-06 1.4708662)
(1.8077887e-06 -2.8655449e-06 1.4708714)
(-2.8794043e-07 -1.546674e-06 1.4708701)
(9.7652554e-07 -1.2137877e-05 1.4708642)
(-6.3629923e-06 -1.0634548e-05 1.4708638)
(-1.0128738e-05 -1.0128738e-05 1.4708515)
(-2.943282e-06 -9.8923636e-06 1.4708476)
(-1.8806626e-07 -9.7423188e-06 1.4708466)
(1.9146649e-06 -9.6028671e-06 1.4708476)
(3.9265155e-06 -9.3908934e-06 1.4708503)
(5.7419424e-06 -8.9210897e-06 1.4708551)
(4.6090976e-06 -7.7259874e-06 1.4708621)
(8.8883809e-07 -5.7871976e-06 1.4708637)
(1.1412058e-06 -3.4810892e-06 1.4708598)
(-5.9752512e-06 -3.1640153e-06 1.4708597)
(-9.8923636e-06 -2.943282e-06 1.4708476)
(-2.7775957e-06 -2.7775957e-06 1.470844)
(-5.6146002e-08 -2.6507759e-06 1.4708431)
(2.0480495e-06 -2.540339e-06 1.4708441)
(4.0972669e-06 -2.42148e-06 1.470847)
(6.0001599e-06 -2.2728671e-06 1.4708519)
(4.9416828e-06 -2.066035e-06 1.4708592)
(1.0045868e-06 -1.8706919e-06 1.4708611)
(1.1879081e-06 -4.8107744e-07 1.4708585)
(-5.8251848e-06 -3.4564254e-07 1.4708586)
(-9.7423188e-06 -1.8806625e-07 1.4708466)
(-2.6507759e-06 -5.6146003e-08 1.4708431)
(4.9190442e-08 4.9190441e-08 1.4708423)
(2.1439609e-06 1.3612086e-07 1.4708434)
(4.1939875e-06 2.1582662e-07 1.4708463)
(6.0973874e-06 2.9320132e-07 1.4708513)
(5.0112728e-06 3.6253391e-07 1.4708587)
(1.0190668e-06 3.9254362e-07 1.4708606)
(1.2314958e-06 1.4846965e-06 1.4708592)
(-5.6822399e-06 1.6966239e-06 1.4708594)
(-9.6028671e-06 1.9146649e-06 1.4708476)
(-2.540339e-06 2.0480495e-06 1.4708441)
(1.3612086e-07 2.1439609e-06 1.4708434)
(2.2146857e-06 2.2146857e-06 1.4708446)
(4.2543474e-06 2.268749e-06 1.4708475)
(6.1468672e-06 2.309144e-06 1.4708526)
(5.0410251e-06 2.3334087e-06 1.47086)
(1.0245933e-06 2.3390568e-06 1.4708619)
(1.329193e-06 2.8826503e-06 1.4708615)
(-5.395216e-06 3.4154892e-06 1.470862)
(-9.3908934e-06 3.9265155e-06 1.4708503)
(-2.42148e-06 4.0972669e-06 1.470847)
(2.1582662e-07 4.1939875e-06 1.4708463)
(2.268749e-06 4.2543474e-06 1.4708475)
(4.2884458e-06 4.2884458e-06 1.4708505)
(6.1620472e-06 4.2958147e-06 1.4708556)
(5.0411855e-06 4.2720916e-06 1.470863)
(1.0228322e-06 4.2353654e-06 1.470865)
(1.5867217e-06 3.2122729e-06 1.470865)
(-4.638374e-06 4.3352532e-06 1.4708662)
(-8.9210897e-06 5.7419424e-06 1.4708551)
(-2.2728671e-06 6.0001599e-06 1.4708519)
(2.9320133e-07 6.0973874e-06 1.4708513)
(2.309144e-06 6.1468672e-06 1.4708526)
(4.2958147e-06 6.1620472e-06 1.4708556)
(6.130513e-06 6.130513e-06 1.4708607)
(4.9805757e-06 6.0215583e-06 1.4708681)
(1.0001091e-06 5.8499343e-06 1.47087)
(2.0778464e-06 1.5173991e-06 1.4708681)
(-2.8655449e-06 1.8077887e-06 1.4708714)
(-7.7259874e-06 4.6090975e-06 1.4708621)
(-2.066035e-06 4.9416828e-06 1.4708592)
(3.6253391e-07 5.0112728e-06 1.4708587)
(2.3334087e-06 5.0410251e-06 1.47086)
(4.2720916e-06 5.0411855e-06 1.470863)
(6.0215583e-06 4.9805757e-06 1.4708681)
(4.7606068e-06 4.7606068e-06 1.4708752)
(9.084161e-07 4.2311262e-06 1.4708768)
(1.7803147e-06 9.5913727e-09 1.4708668)
(-1.546674e-06 -2.8794043e-07 1.4708701)
(-5.7871976e-06 8.8883809e-07 1.4708637)
(-1.8706919e-06 1.0045868e-06 1.4708611)
(3.9254362e-07 1.0190668e-06 1.4708606)
(2.3390568e-06 1.0245933e-06 1.4708619)
(4.2353654e-06 1.0228322e-06 1.470865)
(5.8499343e-06 1.0001091e-06 1.47087)
(4.2311262e-06 9.084161e-07 1.4708768)
(6.4712205e-07 6.4712205e-07 1.4708763)
(6.0336983e-06 6.0336983e-06 1.4509529)
(-6.5563072e-06 -1.6266202e-06 1.4509531)
(-2.0231572e-05 -3.211745e-07 1.4509415)
(-5.9176679e-06 -4.9904217e-08 1.4509381)
(-5.6073045e-07 2.9154983e-08 1.4509375)
(3.1276842e-06 1.0034028e-07 1.4509385)
(5.9799121e-06 2.7625524e-07 1.4509411)
(6.9043975e-06 8.3849416e-07 1.4509453)
(1.9577878e-06 2.2702175e-06 1.4509501)
(-9.0811667e-07 2.3591249e-06 1.4509487)
(-1.6266202e-06 -6.5563072e-06 1.4509531)
(-1.6088621e-05 -1.6088621e-05 1.4509474)
(-1.78665e-05 -1.3503221e-05 1.4509373)
(-5.3921738e-06 -1.2842947e-05 1.4509343)
(-3.3536373e-07 -1.2584982e-05 1.4509337)
(3.4983345e-06 -1.235444e-05 1.4509348)
(7.0871427e-06 -1.1874828e-05 1.4509376)
(9.8953409e-06 -1.0427985e-05 1.4509426)
(4.2387353e-06 -6.4200703e-06 1.4509502)
(-8.1920929e-07 -3.2756798e-06 1.4509499)
(-3.2117449e-07 -2.0231572e-05 1.4509415)
(-1.3503221e-05 -1.78665e-05 1.4509373)
(-1.6985902e-05 -1.6985902e-05 1.4509277)
(-4.999429e-06 -1.6560074e-05 1.4509249)
(-7.2223676e-08 -1.629906e-05 1.4509244)
(3.8378373e-06 -1.6074561e-05 1.4509256)
(7.9063663e-06 -1.5750502e-05 1.4509284)
(1.2359151e-05 -1.4999586e-05 1.4509338)
(9.1100897e-06 -1.286281e-05 1.450943)
(1.1881421e-06 -9.5363927e-06 1.4509451)
(-4.9904219e-08 -5.9176679e-06 1.4509381)
(-1.2842947e-05 -5.3921738e-06 1.4509343)
(-1.6560074e-05 -4.999429e-06 1.4509249)
(-4.7053313e-06 -4.7053313e-06 1.4509223)
(1.5014892e-07 -4.4870766e-06 1.4509218)
(4.0468927e-06 -4.3065593e-06 1.450923)
(8.1621191e-06 -4.1236714e-06 1.450926)
(1.2783034e-05 -3.9014027e-06 1.4509314)
(9.7019335e-06 -3.5487401e-06 1.4509408)
(1.398404e-06 -3.1991304e-06 1.4509431)
(2.9154979e-08 -5.6073045e-07 1.4509375)
(-1.2584982e-05 -3.3536372e-07 1.4509337)
(-1.629906e-05 -7.2223676e-08 1.4509244)
(-4.4870766e-06 1.5014892e-07 1.4509218)
(3.2654835e-07 3.2654835e-07 1.4509215)
(4.2012425e-06 4.694137e-07 1.4509227)
(8.311523e-06 5.9707928e-07 1.4509257)
(1.2934082e-05 7.1791715e-07 1.4509311)
(9.8123623e-06 8.3025795e-07 1.4509405)
(1.4212153e-06 8.7854522e-07 1.4509429)
(1.0034028e-07 3.1276842e-06 1.4509385)
(-1.235444e-05 3.4983345e-06 1.4509348)
(-1.6074561e-05 3.8378373e-06 1.4509256)
(-4.3065593e-06 4.0468927e-06 1.450923)
(4.694137e-07 4.2012425e-06 1.4509227)
(4.3174237e-06 4.3174237e-06 1.450924)
(8.4106226e-06 4.4086087e-06 1.450927)
(1.3016213e-05 4.4793696e-06 1.4509325)
(9.8625617e-06 4.5257075e-06 1.4509419)
(1.4305955e-06 4.5418947e-06 1.4509442)
(2.7625524e-07 5.9799121e-06 1.4509411)
(-1.1874828e-05 7.0871427e-06 1.4509376)
(-1.5750502e-05 7.9063663e-06 1.4509284)
(-4.1236714e-06 8.1621191e-06 1.450926)
(5.9707928e-07 8.311523e-06 1.4509257)
(4.4086087e-06 8.4106226e-06 1.450927)
(8.4734689e-06 8.4734689e-06 1.45093)
(1.3051181e-05 8.4967336e-06 1.4509355)
(9.8748875e-06 8.4660989e-06 1.450945)
(1.4320068e-06 8.4088165e-06 1.4509473)
(8.3849417e-07 6.9043975e-06 1.4509453)
(-1.0427985e-05 9.8953409e-06 1.4509426)
(-1.4999586e-05 1.2359151e-05 1.4509338)
(-3.9014027e-06 1.2783034e-05 1.4509314)
(7.1791716e-07 1.2934082e-05 1.4509311)
(4.4793696e-06 1.3016213e-05 1.4509325)
(8.4967336e-06 1.3051181e-05 1.4509355)
(1.3008843e-05 1.3008843e-05 1.450941)
(9.7746446e-06 1.2791088e-05 1.4509505)
(1.3924072e-06 1.2325905e-05 1.4509529)
(2.2702175e-06 1.9577878e-06 1.4509501)
(-6.4200703e-06 4.2387353e-06 1.4509502)
(-1.286281e-05 9.1100897e-06 1.450943)
(-3.5487401e-06 9.7019336e-06 1.4509408)
(8.3025795e-07 9.8123623e-06 1.4509405)
(4.5257075e-06 9.8625617e-06 1.4509419)
(8.4660989e-06 9.8748875e-06 1.450945)
(1.2791088e-05 9.7746446e-06 1.4509505)
(9.1919497e-06 9.1919497e-06 1.4509599)
(1.1218849e-06 6.6960328e-06 1.4509617)
(2.3591249e-06 -9.0811667e-07 1.4509487)
(-3.2756798e-06 -8.1920929e-07 1.4509499)
(-9.5363927e-06 1.1881421e-06 1.4509451)
(-3.1991304e-06 1.398404e-06 1.4509431)
(8.7854522e-07 1.4212153e-06 1.4509429)
(4.5418947e-06 1.4305955e-06 1.4509442)
(8.4088165e-06 1.4320068e-06 1.4509473)
(1.2325905e-05 1.3924072e-06 1.4509529)
(6.6960328e-06 1.1218849e-06 1.4509617)
(-2.7153742e-07 -2.7153742e-07 1.450959)
(5.6469858e-06 5.6469858e-06 1.422215)
(-1.2470693e-05 -3.6333638e-06 1.4222135)
(-2.6895161e-05 -1.8045874e-06 1.4222035)
(-7.39982e-06 -1.4293163e-06 1.4222014)
(-9.9745315e-08 -1.3283584e-06 1.4222015)
(5.141746e-06 -1.2507388e-06 1.4222029)
(9.6987903e-06 -1.043063e-06 1.4222057)
(1.228344e-05 -2.5664966e-07 1.4222104)
(5.0670931e-06 2.0940556e-06 1.4222169)
(-8.7549771e-07 2.5641424e-06 1.4222179)
(-3.6333638e-06 -1.2470693e-05 1.4222135)
(-2.3648053e-05 -2.3648053e-05 1.4222075)
(-2.3589095e-05 -2.0009438e-05 1.4221992)
(-6.6854769e-06 -1.9091731e-05 1.4221974)
(1.6812084e-07 -1.8760132e-05 1.4221975)
(5.5696891e-06 -1.8505672e-05 1.4221989)
(1.1189923e-05 -1.7962763e-05 1.4222017)
(1.6989116e-05 -1.6046902e-05 1.422207)
(9.2982842e-06 -9.9348789e-06 1.4222162)
(-4.0541077e-07 -5.125525e-06 1.4222183)
(-1.8045874e-06 -2.6895161e-05 1.4222035)
(-2.0009438e-05 -2.3589095e-05 1.4221992)
(-2.2338845e-05 -2.2338845e-05 1.4221914)
(-6.150515e-06 -2.1749591e-05 1.4221898)
(4.8631253e-07 -2.1414902e-05 1.42219)
(5.9391138e-06 -2.1163612e-05 1.4221913)
(1.2157559e-05 -2.0827826e-05 1.4221942)
(2.0311316e-05 -1.9956432e-05 1.4221996)
(1.5988467e-05 -1.7037846e-05 1.4222101)
(2.3307359e-06 -1.2531504e-05 1.4222143)
(-1.4293163e-06 -7.3998199e-06 1.4222014)
(-1.9091731e-05 -6.6854769e-06 1.4221974)
(-2.1749591e-05 -6.150515e-06 1.4221898)
(-5.7615331e-06 -5.7615331e-06 1.4221884)
(7.541001e-07 -5.4893074e-06 1.4221886)
(6.1567652e-06 -5.2854955e-06 1.4221899)
(1.2397104e-05 -5.1040847e-06 1.4221927)
(2.0779098e-05 -4.8988414e-06 1.4221981)
(1.6723221e-05 -4.4905744e-06 1.4222086)
(2.59882e-06 -4.0626356e-06 1.4222129)
(-1.3283584e-06 -9.9745313e-08 1.4222015)
(-1.8760132e-05 1.6812085e-07 1.4221975)
(-2.1414902e-05 4.8631253e-07 1.42219)
(-5.4893074e-06 7.541001e-07 1.4221886)
(9.6235017e-07 9.6235017e-07 1.4221888)
(6.3243364e-06 1.1243954e-06 1.4221901)
(1.2544213e-05 1.2616983e-06 1.4221929)
(2.0924826e-05 1.3845796e-06 1.4221982)
(1.6824673e-05 1.5039102e-06 1.4222087)
(2.6160286e-06 1.5470828e-06 1.422213)
(-1.2507388e-06 5.141746e-06 1.4222029)
(-1.8505672e-05 5.5696891e-06 1.4221989)
(-2.1163612e-05 5.9391138e-06 1.4221913)
(-5.2854955e-06 6.1567652e-06 1.4221899)
(1.1243954e-06 6.3243364e-06 1.4221901)
(6.4561133e-06 6.4561133e-06 1.4221915)
(1.2657289e-05 6.5663095e-06 1.4221943)
(2.102131e-05 6.660772e-06 1.4221996)
(1.6885724e-05 6.7360569e-06 1.4222101)
(2.6276018e-06 6.7796979e-06 1.4222144)
(-1.043063e-06 9.6987903e-06 1.4222057)
(-1.7962763e-05 1.1189923e-05 1.4222017)
(-2.0827826e-05 1.2157559e-05 1.4221942)
(-5.1040847e-06 1.2397104e-05 1.4221927)
(1.2616983e-06 1.2544213e-05 1.4221929)
(6.5663095e-06 1.2657289e-05 1.4221943)
(1.2748871e-05 1.2748871e-05 1.422197)
(2.1094573e-05 1.2815363e-05 1.4222024)
(1.6943599e-05 1.2836621e-05 1.422213)
(2.6451226e-06 1.2839776e-05 1.4222173)
(-2.5664966e-07 1.228344e-05 1.4222104)
(-1.6046902e-05 1.6989116e-05 1.422207)
(-1.9956432e-05 2.0311316e-05 1.4221996)
(-4.8988414e-06 2.0779098e-05 1.4221981)
(1.3845796e-06 2.0924826e-05 1.4221982)
(6.660772e-06 2.102131e-05 1.4221996)
(1.2815363e-05 2.1094573e-05 1.4222024)
(2.110906e-05 2.110906e-05 1.4222078)
(1.6910138e-05 2.090867e-05 1.4222185)
(2.6297049e-06 2.0263683e-05 1.422223)
(2.0940556e-06 5.0670931e-06 1.4222169)
(-9.9348789e-06 9.2982842e-06 1.4222162)
(-1.7037846e-05 1.5988467e-05 1.4222101)
(-4.4905744e-06 1.6723221e-05 1.4222086)
(1.5039102e-06 1.6824673e-05 1.4222087)
(6.7360569e-06 1.6885724e-05 1.4222101)
(1.2836621e-05 1.6943599e-05 1.422213)
(2.090867e-05 1.6910138e-05 1.4222185)
(1.6098221e-05 1.6098222e-05 1.4222293)
(2.2151309e-06 1.0419069e-05 1.4222336)
(2.5641424e-06 -8.7549771e-07 1.4222179)
(-5.125525e-06 -4.0541076e-07 1.4222183)
(-1.2531504e-05 2.3307359e-06 1.4222143)
(-4.0626356e-06 2.59882e-06 1.4222129)
(1.5470828e-06 2.6160286e-06 1.422213)
(6.7796979e-06 2.6276018e-06 1.4222144)
(1.2839776e-05 2.6451226e-06 1.4222173)
(2.0263683e-05 2.6297049e-06 1.422223)
(1.0419069e-05 2.2151309e-06 1.4222336)
(-1.1563971e-06 -1.1563971e-06 1.4222317)
(4.9988198e-06 4.9988198e-06 1.3860554)
(-1.7977579e-05 -5.5856152e-06 1.3860534)
(-3.2132711e-05 -3.193264e-06 1.3860452)
(-7.8937701e-06 -2.7146183e-06 1.3860443)
(8.7090699e-07 -2.6018614e-06 1.3860451)
(7.3222479e-06 -2.5381986e-06 1.3860467)
(1.3479152e-05 -2.3411831e-06 1.3860494)
(1.8102658e-05 -1.4068526e-06 1.3860539)
(9.4742448e-06 1.792185e-06 1.3860607)
(-2.4251977e-07 2.6649213e-06 1.386063)
(-5.5856152e-06 -1.7977579e-05 1.3860534)
(-3.0265699e-05 -3.0265699e-05 1.3860478)
(-2.7826223e-05 -2.5504654e-05 1.3860413)
(-7.0066669e-06 -2.4341144e-05 1.3860408)
(1.1355364e-06 -2.397162e-05 1.3860416)
(7.7132651e-06 -2.3758467e-05 1.3860431)
(1.517617e-05 -2.3277989e-05 1.3860457)
(2.4302707e-05 -2.1112552e-05 1.3860506)
(1.558191e-05 -1.3133413e-05 1.3860598)
(6.3021669e-07 -6.7671479e-06 1.3860633)
(-3.193264e-06 -3.2132711e-05 1.3860452)
(-2.5504654e-05 -2.7826223e-05 1.3860413)
(-2.6208164e-05 -2.6208164e-05 1.3860354)
(-6.3607367e-06 -2.5483164e-05 1.386035)
(1.4535838e-06 -2.5117576e-05 1.3860358)
(8.0158776e-06 -2.4904649e-05 1.3860372)
(1.6125064e-05 -2.4664748e-05 1.3860397)
(2.8247223e-05 -2.3844496e-05 1.3860445)
(2.3819646e-05 -2.035041e-05 1.3860548)
(4.001654e-06 -1.4869376e-05 1.38606)
(-2.7146183e-06 -7.8937701e-06 1.3860443)
(-2.4341144e-05 -7.0066669e-06 1.3860408)
(-2.5483164e-05 -6.3607367e-06 1.386035)
(-5.9160784e-06 -5.9160784e-06 1.3860347)
(1.7140515e-06 -5.6348995e-06 1.3860355)
(8.1660942e-06 -5.4630068e-06 1.3860369)
(1.6236323e-05 -5.3577509e-06 1.3860392)
(2.8617046e-05 -5.2711349e-06 1.3860438)
(2.4557042e-05 -4.9177674e-06 1.386054)
(4.2842435e-06 -4.502815e-06 1.3860592)
(-2.6018614e-06 8.7090699e-07 1.3860451)
(-2.397162e-05 1.1355364e-06 1.3860416)
(-2.5117576e-05 1.4535838e-06 1.3860358)
(-5.6348995e-06 1.7140515e-06 1.3860355)
(1.9066554e-06 1.9066554e-06 1.3860362)
(8.2930263e-06 2.0432087e-06 1.3860376)
(1.6316936e-05 2.1444308e-06 1.3860398)
(2.8687207e-05 2.220826e-06 1.3860443)
(2.4587967e-05 2.302996e-06 1.3860544)
(4.2782892e-06 2.3108838e-06 1.3860595)
(-2.5381986e-06 7.3222479e-06 1.3860467)
(-2.3758467e-05 7.7132651e-06 1.3860431)
(-2.4904649e-05 8.0158776e-06 1.3860372)
(-5.4630068e-06 8.1660942e-06 1.3860369)
(2.0432087e-06 8.2930263e-06 1.3860376)
(8.4038696e-06 8.4038696e-06 1.3860389)
(1.6413941e-05 8.5107855e-06 1.3860411)
(2.8775611e-05 8.6208478e-06 1.3860455)
(2.4647099e-05 8.7329899e-06 1.3860556)
(4.289502e-06 8.8228634e-06 1.3860607)
(-2.3411831e-06 1.3479152e-05 1.3860494)
(-2.3277989e-05 1.517617e-05 1.3860457)
(-2.4664748e-05 1.6125064e-05 1.3860397)
(-5.3577509e-06 1.6236323e-05 1.3860392)
(2.1444308e-06 1.6316936e-05 1.3860398)
(8.5107855e-06 1.6413941e-05 1.3860411)
(1.6533914e-05 1.6533914e-05 1.3860433)
(2.8909411e-05 1.6677418e-05 1.3860478)
(2.4789983e-05 1.6826012e-05 1.3860579)
(4.3382049e-06 1.6997068e-05 1.3860632)
(-1.4068526e-06 1.8102658e-05 1.3860539)
(-2.1112552e-05 2.4302707e-05 1.3860506)
(-2.3844496e-05 2.8247223e-05 1.3860445)
(-5.2711349e-06 2.8617046e-05 1.3860438)
(2.220826e-06 2.8687207e-05 1.3860443)
(8.6208478e-06 2.8775611e-05 1.3860455)
(1.6677418e-05 2.8909411e-05 1.3860478)
(2.9067709e-05 2.9067709e-05 1.3860524)
(2.496675e-05 2.9075466e-05 1.3860628)
(4.4035393e-06 2.8545107e-05 1.3860684)
(1.792185e-06 9.4742448e-06 1.3860607)
(-1.3133413e-05 1.558191e-05 1.3860598)
(-2.035041e-05 2.3819646e-05 1.3860548)
(-4.9177674e-06 2.4557042e-05 1.386054)
(2.302996e-06 2.4587967e-05 1.3860544)
(8.7329899e-06 2.4647099e-05 1.3860556)
(1.6826012e-05 2.4789983e-05 1.3860579)
(2.9075466e-05 2.496675e-05 1.3860628)
(2.4267381e-05 2.4267381e-05 1.3860735)
(3.984632e-06 1.5362948e-05 1.3860793)
(2.6649212e-06 -2.4251976e-07 1.386063)
(-6.7671479e-06 6.3021669e-07 1.3860633)
(-1.4869376e-05 4.001654e-06 1.38606)
(-4.502815e-06 4.2842435e-06 1.3860592)
(2.3108838e-06 4.2782892e-06 1.3860595)
(8.8228634e-06 4.289502e-06 1.3860607)
(1.6997068e-05 4.3382049e-06 1.3860632)
(2.8545107e-05 4.4035393e-06 1.3860684)
(1.5362948e-05 3.984632e-06 1.3860793)
(-1.5327501e-06 -1.5327501e-06 1.3860787)
(4.3310294e-06 4.3310294e-06 1.3437044)
(-2.2590208e-05 -7.2963888e-06 1.3437026)
(-3.5832931e-05 -4.3360979e-06 1.3436963)
(-7.4531871e-06 -3.760775e-06 1.3436967)
(2.2301901e-06 -3.6468698e-06 1.343698)
(9.4357208e-06 -3.6161109e-06 1.3436996)
(1.6879917e-05 -3.4685278e-06 1.343702)
(2.3548948e-05 -2.4611108e-06 1.3437058)
(1.4125111e-05 1.484123e-06 1.343712)
(6.3833233e-07 2.7712215e-06 1.3437147)
(-7.2963888e-06 -2.2590208e-05 1.3437026)
(-3.5590888e-05 -3.5590888e-05 1.343698)
(-3.0529521e-05 -2.9709325e-05 1.3436934)
(-6.4193459e-06 -2.8325709e-05 1.343694)
(2.4471862e-06 -2.7956077e-05 1.3436953)
(9.7032337e-06 -2.7846437e-05 1.3436968)
(1.8612415e-05 -2.7545309e-05 1.343699)
(3.0977918e-05 -2.53449e-05 1.3437029)
(2.1973616e-05 -1.5802776e-05 1.3437112)
(1.9254313e-06 -8.0111193e-06 1.3437151)
(-4.3360978e-06 -3.5832931e-05 1.3436963)
(-2.9709325e-05 -3.0529521e-05 1.3436934)
(-2.8567763e-05 -2.8567763e-05 1.3436893)
(-5.6999409e-06 -2.7742297e-05 1.3436901)
(2.7094622e-06 -2.7391294e-05 1.3436913)
(9.846489e-06 -2.7281335e-05 1.3436927)
(1.9381452e-05 -2.7240291e-05 1.3436946)
(3.5291465e-05 -2.663728e-05 1.3436983)
(3.1458889e-05 -2.2794872e-05 1.3437073)
(5.8327677e-06 -1.655163e-05 1.3437127)
(-3.760775e-06 -7.4531871e-06 1.3436967)
(-2.8325709e-05 -6.4193459e-06 1.343694)
(-2.7742297e-05 -5.6999409e-06 1.3436901)
(-5.2428766e-06 -5.2428766e-06 1.3436909)
(2.9081489e-06 -5.0005136e-06 1.3436921)
(9.8542369e-06 -4.9170357e-06 1.3436933)
(1.9256471e-05 -4.9616802e-06 1.343695)
(3.5423338e-05 -5.0922331e-06 1.3436983)
(3.2059279e-05 -4.9055842e-06 1.3437071)
(6.0875985e-06 -4.5931987e-06 1.3437123)
(-3.6468698e-06 2.2301901e-06 1.343698)
(-2.7956077e-05 2.4471862e-06 1.3436953)
(-2.7391294e-05 2.7094622e-06 1.3436913)
(-5.0005136e-06 2.9081489e-06 1.3436921)
(3.0353031e-06 3.0353031e-06 1.3436932)
(9.8853225e-06 3.0996189e-06 1.3436944)
(1.9206255e-05 3.1177318e-06 1.3436959)
(3.5347561e-05 3.0985628e-06 1.3436991)
(3.1957924e-05 3.0980807e-06 1.3437077)
(6.0410249e-06 3.0396351e-06 1.3437127)
(-3.6161108e-06 9.4357208e-06 1.3436996)
(-2.7846437e-05 9.7032337e-06 1.3436968)
(-2.7281335e-05 9.846489e-06 1.3436927)
(-4.9170357e-06 9.8542369e-06 1.3436933)
(3.0996189e-06 9.8853225e-06 1.3436944)
(9.9366656e-06 9.9366657e-06 1.3436955)
(1.9255415e-05 1.0016014e-05 1.3436969)
(3.5403687e-05 1.0131543e-05 1.3437)
(3.2000352e-05 1.0285488e-05 1.3437086)
(6.0486347e-06 1.0435931e-05 1.3437136)
(-3.4685278e-06 1.6879917e-05 1.343702)
(-2.7545309e-05 1.8612415e-05 1.343699)
(-2.7240291e-05 1.9381452e-05 1.3436946)
(-4.9616802e-06 1.9256471e-05 1.343695)
(3.1177318e-06 1.9206255e-05 1.3436959)
(1.0016014e-05 1.9255415e-05 1.3436969)
(1.9401132e-05 1.9401132e-05 1.3436983)
(3.5617035e-05 1.9652065e-05 1.3437015)
(3.2262313e-05 1.9996963e-05 1.3437102)
(6.1413206e-06 2.0429939e-05 1.3437154)
(-2.4611108e-06 2.3548948e-05 1.3437058)
(-2.53449e-05 3.0977918e-05 1.3437029)
(-2.663728e-05 3.5291465e-05 1.3436983)
(-5.0922331e-06 3.5423338e-05 1.3436983)
(3.0985627e-06 3.5347561e-05 1.3436991)
(1.0131543e-05 3.5403687e-05 1.3437)
(1.9652065e-05 3.5617035e-05 1.3437015)
(3.5999518e-05 3.5999518e-05 1.3437048)
(3.2778226e-05 3.6393152e-05 1.3437139)
(6.3372857e-06 3.6257361e-05 1.3437195)
(1.484123e-06 1.4125111e-05 1.343712)
(-1.5802776e-05 2.1973616e-05 1.3437112)
(-2.2794872e-05 3.1458889e-05 1.3437073)
(-4.9055842e-06 3.2059279e-05 1.3437071)
(3.0980807e-06 3.1957924e-05 1.3437077)
(1.0285488e-05 3.2000352e-05 1.3437086)
(1.9996963e-05 3.2262313e-05 1.3437102)
(3.6393152e-05 3.2778226e-05 1.3437139)
(3.2520156e-05 3.2520156e-05 1.3437235)
(6.0507927e-06 2.0760772e-05 1.3437297)
(2.7712215e-06 6.3833233e-07 1.3437147)
(-8.0111193e-06 1.9254313e-06 1.3437151)
(-1.655163e-05 5.8327677e-06 1.3437127)
(-4.5931987e-06 6.0875985e-06 1.3437123)
(3.0396351e-06 6.0410249e-06 1.3437127)
(1.0435931e-05 6.0486347e-06 1.3437136)
(2.0429939e-05 6.1413206e-06 1.3437154)
(3.6257361e-05 6.3372857e-06 1.3437195)
(2.0760772e-05 6.0507927e-06 1.3437297)
(-1.5023065e-06 -1.5023065e-06 1.34373)
(3.7979805e-06 3.7979805e-06 1.2962607)
(-2.6012403e-05 -8.6376016e-06 1.2962594)
(-3.7983935e-05 -5.1328757e-06 1.2962551)
(-6.2009694e-06 -4.4729384e-06 1.2962565)
(3.8196979e-06 -4.3686602e-06 1.2962583)
(1.1265465e-05 -4.3874578e-06 1.2962598)
(1.9567731e-05 -4.3231531e-06 1.2962615)
(2.8083397e-05 -3.3135644e-06 1.2962643)
(1.8321764e-05 1.2553743e-06 1.2962694)
(1.5244478e-06 2.9354525e-06 1.2962718)
(-8.6376016e-06 -2.6012403e-05 1.2962594)
(-3.9408673e-05 -3.9408673e-05 1.296256)
(-3.1736953e-05 -3.2465855e-05 1.2962533)
(-5.054647e-06 -3.0900516e-05 1.2962549)
(3.9479188e-06 -3.0568778e-05 1.2962566)
(1.1333726e-05 -3.0617975e-05 1.296258)
(2.1178569e-05 -3.0597917e-05 1.2962594)
(3.645118e-05 -2.8560303e-05 1.2962621)
(2.7695297e-05 -1.7792301e-05 1.2962689)
(3.2045267e-06 -8.7647483e-06 1.2962724)
(-5.1328757e-06 -3.7983935e-05 1.2962551)
(-3.2465855e-05 -3.1736953e-05 1.2962533)
(-2.9475789e-05 -2.9475789e-05 1.296251)
(-4.3038932e-06 -2.8591484e-05 1.2962527)
(4.1022387e-06 -2.8300146e-05 1.2962543)
(1.1236325e-05 -2.8351857e-05 1.2962555)
(2.1625401e-05 -2.8599512e-05 1.2962566)
(4.0888997e-05 -2.8360159e-05 1.2962589)
(3.8117317e-05 -2.4391261e-05 1.2962661)
(7.5428137e-06 -1.7599776e-05 1.2962708)
(-4.4729383e-06 -6.2009694e-06 1.2962565)
(-3.0900516e-05 -5.054647e-06 1.2962549)
(-2.8591484e-05 -4.3038932e-06 1.2962527)
(-3.8790035e-06 -3.8790035e-06 1.2962544)
(4.1875455e-06 -3.7219812e-06 1.296256)
(1.103436e-05 -3.7794419e-06 1.296257)
(2.1170268e-05 -4.0398738e-06 1.2962577)
(4.0659431e-05 -4.4737072e-06 1.2962596)
(3.8455694e-05 -4.5541306e-06 1.2962664)
(7.7321899e-06 -4.4237984e-06 1.2962709)
(-4.3686602e-06 3.8196979e-06 1.2962583)
(-3.0568778e-05 3.9479188e-06 1.2962566)
(-2.8300146e-05 4.1022387e-06 1.2962543)
(-3.7219812e-06 4.1875455e-06 1.296256)
(4.2018003e-06 4.2018003e-06 1.2962574)
(1.0918433e-05 4.149598e-06 1.2962582)
(2.0931136e-05 4.0407877e-06 1.2962588)
(4.037474e-05 3.8811254e-06 1.2962604)
(3.8167226e-05 3.7560752e-06 1.296267)
(7.6297019e-06 3.6030765e-06 1.2962713)
(-4.3874578e-06 1.1265465e-05 1.2962598)
(-3.0617975e-05 1.1333726e-05 1.296258)
(-2.8351857e-05 1.1236325e-05 1.2962555)
(-3.7794419e-06 1.103436e-05 1.296257)
(4.149598e-06 1.0918433e-05 1.2962582)
(1.0873347e-05 1.0873347e-05 1.2962589)
(2.0901796e-05 1.090075e-05 1.2962594)
(4.0374719e-05 1.1009695e-05 1.2962609)
(3.8177645e-05 1.1206091e-05 1.2962675)
(7.6301907e-06 1.1425799e-05 1.2962718)
(-4.3231531e-06 1.9567731e-05 1.2962615)
(-3.0597917e-05 2.1178569e-05 1.2962594)
(-2.8599512e-05 2.1625401e-05 1.2962566)
(-4.0398738e-06 2.1170268e-05 1.2962577)
(4.0407877e-06 2.0931136e-05 1.2962588)
(1.090075e-05 2.0901796e-05 1.2962594)
(2.1067483e-05 2.1067483e-05 1.2962599)
(4.068008e-05 2.1447897e-05 1.2962614)
(3.8583331e-05 2.2042663e-05 1.2962682)
(7.7761743e-06 2.2809907e-05 1.2962726)
(-3.3135644e-06 2.8083397e-05 1.2962643)
(-2.8560303e-05 3.645118e-05 1.2962621)
(-2.8360159e-05 4.0888997e-05 1.2962589)
(-4.4737072e-06 4.0659431e-05 1.2962596)
(3.8811254e-06 4.037474e-05 1.2962604)
(1.1009695e-05 4.0374719e-05 1.2962609)
(2.1447897e-05 4.068008e-05 1.2962614)
(4.1349898e-05 4.1349899e-05 1.2962633)
(3.9539656e-05 4.2272996e-05 1.2962704)
(8.1416876e-06 4.2763042e-05 1.2962753)
(1.2553743e-06 1.8321764e-05 1.2962694)
(-1.7792301e-05 2.7695297e-05 1.2962689)
(-2.4391261e-05 3.8117317e-05 1.2962661)
(-4.5541306e-06 3.8455694e-05 1.2962664)
(3.7560752e-06 3.8167226e-05 1.296267)
(1.1206091e-05 3.8177645e-05 1.2962675)
(2.2042663e-05 3.8583331e-05 1.2962682)
(4.2272996e-05 3.9539656e-05 1.2962704)
(3.9996476e-05 3.9996476e-05 1.2962782)
(8.102872e-06 2.5868891e-05 1.2962841)
(2.9354525e-06 1.5244478e-06 1.2962718)
(-8.7647483e-06 3.2045267e-06 1.2962724)
(-1.7599776e-05 7.5428137e-06 1.2962708)
(-4.4237984e-06 7.7321899e-06 1.2962709)
(3.6030765e-06 7.6297019e-06 1.2962713)
(1.1425799e-05 7.6301907e-06 1.2962718)
(2.2809907e-05 7.7761743e-06 1.2962726)
(4.2763042e-05 8.1416876e-06 1.2962753)
(2.5868891e-05 8.102872e-06 1.2962841)
(-1.2767079e-06 -1.2767079e-06 1.2962848)
(3.4816772e-06 3.4816772e-06 1.2447119)
(-2.8134544e-05 -9.5498e-06 1.2447113)
(-3.8686256e-05 -5.5443128e-06 1.2447088)
(-4.3074868e-06 -4.8151487e-06 1.2447111)
(5.4773098e-06 -4.7305555e-06 1.2447131)
(1.2642834e-05 -4.8124126e-06 1.2447143)
(2.1326868e-05 -4.8587266e-06 1.2447153)
(3.137848e-05 -3.9097308e-06 1.2447169)
(2.162703e-05 1.1531084e-06 1.2447205)
(2.2587407e-06 3.1781608e-06 1.2447224)
(-9.5498e-06 -2.8134544e-05 1.2447113)
(-4.1673512e-05 -4.1673512e-05 1.2447092)
(-3.1584294e-05 -3.3769269e-05 1.2447081)
(-3.0868516e-06 -3.2067919e-05 1.2447106)
(5.481414e-06 -3.1809408e-05 1.2447125)
(1.2450578e-05 -3.2062793e-05 1.2447136)
(2.2680889e-05 -3.2405226e-05 1.2447141)