/*--------------------------------*- C++ -*----------------------------------*\
| =========                 |                                                 |
| \\      /  F ield         | OpenFOAM: The Open Source CFD Toolbox           |
|  \\    /   O peration     | Version:  v2106                                 |
|   \\  /    A nd           | Website:  www.openfoam.com                      |
|    \\/     M anipulation  |                                                 |
\*---------------------------------------------------------------------------*/
FoamFile
{
    version     2.0;
    format      ascii;
    arch        "LSB;label=32;scalar=64";
    class       volVectorField;
    location    "10";
    object      flux;
}
// * * * * * * * * * * * * * * * * * * * * * * * * * * * * * * * * * * * * * //

dimensions      [0 1 -1 1 0 0 0];

internalField   nonuniform List<vector> 
4000
(
(7.0868076e-08 7.086807e-08 1.337268)
(7.2708028e-07 6.0499153e-07 1.3372685)
(-4.2961602e-07 -7.9998404e-08 1.3372707)
(-1.1910473e-06 5.8787118e-08 1.337266)
(-3.8339897e-08 1.1020329e-07 1.3372652)
(2.6156161e-07 1.2296399e-07 1.3372657)
(3.3301436e-07 1.3228232e-07 1.3372666)
(3.2341135e-07 1.4559487e-07 1.3372675)
(2.3426058e-07 1.4061901e-07 1.3372683)
(5.6410157e-08 8.2222558e-08 1.3372688)
(6.0499154e-07 7.2708028e-07 1.3372685)
(5.0078057e-07 5.0078056e-07 1.3372715)
(-1.2489226e-06 -3.5242347e-07 1.3372697)
(-9.0574479e-07 -5.2878929e-08 1.3372659)
(5.7925409e-08 5.0129819e-08 1.3372655)
(2.9468016e-07 7.8798543e-08 1.3372661)
(3.6696068e-07 1.1419805e-07 1.337267)
(3.3591637e-07 1.9002219e-07 1.337268)
(1.3920211e-07 2.5238497e-07 1.3372687)
(-1.9862927e-09 1.349166e-07 1.3372688)
(-7.9998405e-08 -4.2961601e-07 1.3372707)
(-3.5242347e-07 -1.2489227e-06 1.3372697)
(-9.8327551e-07 -9.8327551e-07 1.3372686)
(-7.8849405e-07 -8.6015694e-07 1.3372651)
(9.3337574e-08 -8.2743124e-07 1.3372649)
(3.2562984e-07 -8.19328e-07 1.3372655)
(4.4423801e-07 -7.9407337e-07 1.3372665)
(4.6159827e-07 -7.0230199e-07 1.3372678)
(1.7915498e-07 -5.271004e-07 1.3372689)
(-2.1902093e-08 -4.0238179e-07 1.3372688)
(5.8787115e-08 -1.1910473e-06 1.337266)
(-5.2878931e-08 -9.0574479e-07 1.3372659)
(-8.6015694e-07 -7.8849405e-07 1.3372651)
(-7.4990052e-07 -7.4990053e-07 1.3372618)
(9.8754356e-08 -7.4540794e-07 1.3372616)
(3.2803803e-07 -7.5441459e-07 1.3372622)
(4.8398668e-07 -7.6261815e-07 1.3372633)
(6.0288935e-07 -7.4076885e-07 1.3372648)
(4.3912231e-07 -6.4467924e-07 1.3372664)
(8.1159447e-08 -4.9279865e-07 1.337267)
(1.1020329e-07 -3.8339899e-08 1.3372652)
(5.0129814e-08 5.7925422e-08 1.3372655)
(-8.2743124e-07 9.3337572e-08 1.3372649)
(-7.4540793e-07 9.8754354e-08 1.3372616)
(8.8823515e-08 8.8823515e-08 1.3372613)
(3.0841963e-07 7.2758075e-08 1.3372619)
(4.5788375e-07 5.096362e-08 1.3372629)
(5.7953718e-07 2.522559e-08 1.3372644)
(4.2712518e-07 2.7652716e-09 1.3372659)
(7.9351634e-08 -1.3199271e-08 1.3372665)
(1.22964e-07 2.6156161e-07 1.3372657)
(7.8798541e-08 2.9468016e-07 1.3372661)
(-8.1932801e-07 3.2562984e-07 1.3372655)
(-7.5441458e-07 3.2803804e-07 1.3372622)
(7.2758077e-08 3.0841964e-07 1.3372619)
(2.9017814e-07 2.9017815e-07 1.3372625)
(4.364542e-07 2.7329585e-07 1.3372634)
(5.54691e-07 2.5598283e-07 1.3372648)
(4.0069745e-07 2.3806222e-07 1.3372663)
(7.0516419e-08 2.2137204e-07 1.3372669)
(1.3228232e-07 3.3301437e-07 1.3372666)
(1.1419805e-07 3.6696067e-07 1.337267)
(-7.9407336e-07 4.4423801e-07 1.3372665)
(-7.6261814e-07 4.8398669e-07 1.3372633)
(5.0963623e-08 4.5788375e-07 1.3372629)
(2.7329584e-07 4.364542e-07 1.3372634)
(4.2368844e-07 4.2368844e-07 1.3372643)
(5.4430355e-07 4.1592543e-07 1.3372657)
(3.9251439e-07 4.1033926e-07 1.3372671)
(6.8224843e-08 4.0701111e-07 1.3372677)
(1.4559487e-07 3.2341134e-07 1.3372675)
(1.9002219e-07 3.3591638e-07 1.337268)
(-7.0230199e-07 4.6159827e-07 1.3372678)
(-7.4076885e-07 6.0288934e-07 1.3372648)
(2.5225588e-08 5.7953717e-07 1.3372644)
(2.5598283e-07 5.54691e-07 1.3372648)
(4.1592543e-07 5.4430356e-07 1.3372657)
(5.4134182e-07 5.4134182e-07 1.337267)
(3.9178313e-07 5.3757228e-07 1.3372685)
(6.8297654e-08 5.3034115e-07 1.337269)
(1.4061901e-07 2.3426058e-07 1.3372683)
(2.5238497e-07 1.3920211e-07 1.3372687)
(-5.271004e-07 1.7915498e-07 1.3372689)
(-6.4467925e-07 4.3912231e-07 1.3372664)
(2.765277e-09 4.2712518e-07 1.3372659)
(2.3806224e-07 4.0069746e-07 1.3372663)
(4.1033926e-07 3.9251439e-07 1.3372671)
(5.3757227e-07 3.9178313e-07 1.3372685)
(3.8151372e-07 3.8151372e-07 1.3372699)
(6.3404092e-08 3.5189007e-07 1.3372704)
(8.2222558e-08 5.6410161e-08 1.3372688)
(1.3491659e-07 -1.986288e-09 1.3372688)
(-4.0238179e-07 -2.1902094e-08 1.3372688)
(-4.9279865e-07 8.1159447e-08 1.337267)
(-1.3199266e-08 7.935164e-08 1.3372665)
(2.2137203e-07 7.0516418e-08 1.3372669)
(4.0701111e-07 6.8224837e-08 1.3372677)
(5.3034115e-07 6.8297652e-08 1.337269)
(3.5189007e-07 6.3404093e-08 1.3372704)
(4.854855e-08 4.8548551e-08 1.3372707)
(2.7926995e-07 2.7926995e-07 1.9847081)
(1.7663656e-06 1.1338698e-06 1.9847075)
(-2.559895e-06 -6.8186721e-07 1.9847076)
(-4.5807677e-06 -2.5471214e-07 1.9847029)
(-2.3591308e-07 -7.7963451e-08 1.9847021)
(1.2056194e-06 -2.6537194e-08 1.9847028)
(1.6343266e-06 2.2833911e-08 1.984704)
(1.618322e-06 9.060347e-08 1.9847055)
(1.2308806e-06 2.6095644e-08 1.9847067)
(3.1917669e-07 -2.3552225e-07 1.9847077)
(1.1338698e-06 1.7663656e-06 1.9847075)
(3.246599e-07 3.2465991e-07 1.9847082)
(-4.6427679e-06 -2.0489316e-06 1.984706)
(-3.6749121e-06 -1.1015966e-06 1.9847019)
(1.0634933e-07 -7.2623745e-07 1.9847014)
(1.3568154e-06 -6.0147843e-07 1.9847022)
(1.8100376e-06 -4.1659196e-07 1.9847036)
(1.6232146e-06 -3.0261849e-08 1.9847052)
(7.4169207e-07 1.6726277e-07 1.9847061)
(5.7558793e-08 -3.9869155e-07 1.9847063)
(-6.8186722e-07 -2.559895e-06 1.9847076)
(-2.0489316e-06 -4.6427679e-06 1.984706)
(-3.9861514e-06 -3.9861514e-06 1.984704)
(-3.2580735e-06 -3.5456112e-06 1.9847003)
(2.6420509e-07 -3.4001449e-06 1.9846999)
(1.5152648e-06 -3.3576761e-06 1.9847007)
(2.2055432e-06 -3.2248634e-06 1.9847023)
(2.2021767e-06 -2.756753e-06 1.9847045)
(8.6245095e-07 -1.984646e-06 1.9847059)
(-5.8126192e-08 -1.5431622e-06 1.984706)
(-2.5471214e-07 -4.5807677e-06 1.9847029)
(-1.1015966e-06 -3.6749121e-06 1.9847019)
(-3.5456112e-06 -3.2580736e-06 1.9847003)
(-3.0889056e-06 -3.0889055e-06 1.9846968)
(2.9428446e-07 -3.0628355e-06 1.9846964)
(1.5320969e-06 -3.1042697e-06 1.9846973)
(2.4109607e-06 -3.1379294e-06 1.9846988)
(2.8634319e-06 -3.0072952e-06 1.9847013)
(1.9552828e-06 -2.5401673e-06 1.9847034)
(3.5188128e-07 -1.8960395e-06 1.9847042)
(-7.7963456e-08 -2.3591309e-07 1.9847021)
(-7.2623746e-07 1.0634933e-07 1.9847014)
(-3.4001449e-06 2.6420509e-07 1.9846999)
(-3.0628354e-06 2.9428446e-07 1.9846964)
(2.4884095e-07 2.4884096e-07 1.984696)
(1.4401709e-06 1.7068066e-07 1.9846968)
(2.3025177e-06 6.7408139e-08 1.9846983)
(2.7999387e-06 -3.9002612e-08 1.9847007)
(1.9737066e-06 -1.0378062e-07 1.9847028)
(3.7129234e-07 -1.2225492e-07 1.9847036)
(-2.6537195e-08 1.2056193e-06 1.9847028)
(-6.0147843e-07 1.3568154e-06 1.9847022)
(-3.3576761e-06 1.5152648e-06 1.9847007)
(-3.1042697e-06 1.5320969e-06 1.9846973)
(1.7068067e-07 1.4401709e-06 1.9846968)
(1.3506641e-06 1.3506641e-06 1.9846975)
(2.2012774e-06 1.2684136e-06 1.9846989)
(2.6922432e-06 1.1884174e-06 1.9847012)
(1.8720305e-06 1.113885e-06 1.9847032)
(3.3956508e-07 1.0548546e-06 1.984704)
(2.2833909e-08 1.6343266e-06 1.984704)
(-4.1659196e-07 1.8100376e-06 1.9847036)
(-3.2248634e-06 2.2055432e-06 1.9847023)
(-3.1379294e-06 2.4109607e-06 1.9846988)
(6.7408135e-08 2.3025177e-06 1.9846983)
(1.2684136e-06 2.2012774e-06 1.9846989)
(2.140271e-06 2.140271e-06 1.9847002)
(2.6454101e-06 2.1044827e-06 1.9847025)
(1.8401438e-06 2.0795139e-06 1.9847045)
(3.3193878e-07 2.0668883e-06 1.9847053)
(9.0603468e-08 1.618322e-06 1.9847055)
(-3.0261851e-08 1.6232146e-06 1.9847052)
(-2.756753e-06 2.2021767e-06 1.9847045)
(-3.0072952e-06 2.8634319e-06 1.9847013)
(-3.9002612e-08 2.7999387e-06 1.9847007)
(1.1884174e-06 2.6922432e-06 1.9847012)
(2.1044827e-06 2.6454101e-06 1.9847025)
(2.631486e-06 2.631486e-06 1.9847048)
(1.8344361e-06 2.602772e-06 1.9847068)
(3.3114803e-07 2.5370622e-06 1.9847076)
(2.6095641e-08 1.2308806e-06 1.9847067)
(1.6726276e-07 7.4169207e-07 1.9847061)
(-1.984646e-06 8.6245095e-07 1.9847059)
(-2.5401673e-06 1.9552828e-06 1.9847034)
(-1.037806e-07 1.9737066e-06 1.9847028)
(1.113885e-06 1.8720305e-06 1.9847032)
(2.0795139e-06 1.8401438e-06 1.9847045)
(2.602772e-06 1.8344361e-06 1.9847068)
(1.74572e-06 1.74572e-06 1.9847087)
(2.8813228e-07 1.5032383e-06 1.9847093)
(-2.3552225e-07 3.1917668e-07 1.9847077)
(-3.9869155e-07 5.7558792e-08 1.9847063)
(-1.5431622e-06 -5.8126191e-08 1.984706)
(-1.8960395e-06 3.5188128e-07 1.9847042)
(-1.2225491e-07 3.7129234e-07 1.9847036)
(1.0548546e-06 3.3956508e-07 1.984704)
(2.0668883e-06 3.3193878e-07 1.9847053)
(2.5370622e-06 3.3114802e-07 1.9847076)
(1.5032383e-06 2.8813228e-07 1.9847093)
(1.694936e-07 1.694936e-07 1.9847096)
(-3.2371227e-07 -3.2371227e-07 1.9713005)
(2.1387734e-07 1.0216028e-06 1.9712987)
(-5.0450948e-06 -1.2065786e-06 1.9712976)
(-6.7319859e-06 -6.1023074e-07 1.9712943)
(-2.017343e-07 -3.632045e-07 1.9712938)
(2.1921845e-06 -2.8621645e-07 1.9712945)
(3.0314296e-06 -1.8052412e-07 1.9712959)
(2.9841778e-06 -1.5055137e-08 1.9712975)
(2.5008995e-06 -2.4624382e-07 1.9712986)
(7.611188e-07 -8.6049317e-07 1.9712998)
(1.0216028e-06 2.1387736e-07 1.9712987)
(-1.1104221e-06 -1.1104221e-06 1.9712982)
(-7.492845e-06 -3.9870423e-06 1.9712959)
(-5.4669248e-06 -2.6578196e-06 1.9712931)
(2.8428712e-07 -2.1294523e-06 1.9712928)
(2.466205e-06 -1.9498107e-06 1.9712936)
(3.4381716e-06 -1.5954322e-06 1.9712951)
(2.8855983e-06 -7.6363034e-07 1.9712971)
(1.2327424e-06 -4.84004e-07 1.9712979)
(1.4686945e-07 -1.6020629e-06 1.9712982)
(-1.2065786e-06 -5.0450948e-06 1.9712976)
(-3.9870423e-06 -7.492845e-06 1.9712959)
(-6.5924922e-06 -6.5924922e-06 1.9712939)
(-4.8743959e-06 -5.9597972e-06 1.9712913)
(5.0627459e-07 -5.7546993e-06 1.9712911)
(2.7262046e-06 -5.7150746e-06 1.9712919)
(4.21761e-06 -5.5053164e-06 1.9712935)
(4.095606e-06 -4.6292247e-06 1.9712961)
(1.6624669e-06 -3.2443466e-06 1.9712975)
(1.5746158e-08 -2.5314043e-06 1.9712977)
(-6.1023075e-07 -6.7319859e-06 1.9712943)
(-2.6578196e-06 -5.4669248e-06 1.9712931)
(-5.9597972e-06 -4.8743959e-06 1.9712913)
(-4.6291319e-06 -4.6291319e-06 1.9712888)
(5.2900973e-07 -4.6043615e-06 1.9712886)
(2.7155879e-06 -4.6981627e-06 1.9712894)
(4.5240215e-06 -4.7864982e-06 1.971291)
(5.1465681e-06 -4.5820665e-06 1.9712938)
(3.3305628e-06 -3.8305427e-06 1.9712957)
(6.2216429e-07 -2.8658793e-06 1.9712964)
(-3.632045e-07 -2.017343e-07 1.9712938)
(-2.1294523e-06 2.8428712e-07 1.9712928)
(-5.7546993e-06 5.0627459e-07 1.9712911)
(-4.6043615e-06 5.2900972e-07 1.9712886)
(4.372438e-07 4.372438e-07 1.9712884)
(2.5440679e-06 2.912821e-07 1.971289)
(4.3337062e-06 1.0461557e-07 1.9712906)
(5.0515615e-06 -7.2637063e-08 1.9712933)
(3.3786541e-06 -1.6147403e-07 1.9712952)
(6.5885517e-07 -1.7008478e-07 1.9712959)
(-2.8621646e-07 2.1921845e-06 1.9712945)
(-1.9498107e-06 2.466205e-06 1.9712936)
(-5.7150746e-06 2.7262046e-06 1.9712919)
(-4.6981627e-06 2.7155879e-06 1.9712894)
(2.9128211e-07 2.5440679e-06 1.971289)
(2.3829597e-06 2.3829597e-06 1.9712896)
(4.1601024e-06 2.2403337e-06 1.9712911)
(4.8804785e-06 2.1116223e-06 1.9712938)
(3.233115e-06 2.0056351e-06 1.9712956)
(6.1642379e-07 1.9422337e-06 1.9712963)
(-1.8052412e-07 3.0314296e-06 1.9712959)
(-1.5954322e-06 3.4381716e-06 1.9712951)
(-5.5053164e-06 4.21761e-06 1.9712935)
(-4.7864982e-06 4.5240215e-06 1.971291)
(1.0461556e-07 4.3337062e-06 1.9712906)
(2.2403337e-06 4.1601024e-06 1.9712911)
(4.0623689e-06 4.0623689e-06 1.9712925)
(4.8168629e-06 4.0140734e-06 1.9712951)
(3.2092655e-06 3.9839366e-06 1.971297)
(6.165876e-07 3.9764878e-06 1.9712978)
(-1.5055132e-08 2.9841778e-06 1.9712975)
(-7.6363034e-07 2.8855983e-06 1.9712971)
(-4.6292247e-06 4.095606e-06 1.9712961)
(-4.5820665e-06 5.1465681e-06 1.9712938)
(-7.2637061e-08 5.0515615e-06 1.9712933)
(2.1116223e-06 4.8804785e-06 1.9712938)
(4.0140734e-06 4.8168629e-06 1.9712951)
(4.8020462e-06 4.8020462e-06 1.9712978)
(3.1955294e-06 4.7111149e-06 1.9712996)
(6.1145788e-07 4.4691033e-06 1.9713004)
(-2.4624382e-07 2.5008995e-06 1.9712986)
(-4.84004e-07 1.2327424e-06 1.9712979)
(-3.2443466e-06 1.6624668e-06 1.9712975)
(-3.8305428e-06 3.3305628e-06 1.9712957)
(-1.6147402e-07 3.3786541e-06 1.9712952)
(2.0056351e-06 3.233115e-06 1.9712956)
(3.9839366e-06 3.2092655e-06 1.971297)
(4.7111149e-06 3.1955294e-06 1.9712996)
(2.8763226e-06 2.8763226e-06 1.9713013)
(4.5524652e-07 2.3703468e-06 1.9713015)
(-8.6049318e-07 7.611188e-07 1.9712998)
(-1.602063e-06 1.4686945e-07 1.9712982)
(-2.5314043e-06 1.5746155e-08 1.9712977)
(-2.8658793e-06 6.2216429e-07 1.9712964)
(-1.7008478e-07 6.5885517e-07 1.9712959)
(1.9422337e-06 6.1642378e-07 1.9712963)
(3.9764878e-06 6.165876e-07 1.9712978)
(4.4691032e-06 6.1145788e-07 1.9713004)
(2.3703468e-06 4.5524651e-07 1.9713015)
(2.7414073e-07 2.7414073e-07 1.9713019)
(-9.2227219e-07 -9.2227218e-07 1.9506747)
(-1.193638e-06 7.6832573e-07 1.9506732)
(-7.0027407e-06 -1.7754602e-06 1.9506723)
(-8.3534991e-06 -1.0334662e-06 1.9506697)
(1.1478909e-08 -7.364827e-07 1.9506694)
(3.2729405e-06 -6.4665105e-07 1.9506702)
(4.5829329e-06 -4.7582143e-07 1.9506716)
(4.3471688e-06 -1.3327794e-07 1.9506735)
(3.5965218e-06 -4.4286641e-07 1.9506747)
(1.154542e-06 -1.3448369e-06 1.9506759)
(7.6832572e-07 -1.193638e-06 1.9506732)
(-2.4734201e-06 -2.4734201e-06 1.9506725)
(-9.7054284e-06 -5.6989582e-06 1.9506708)
(-6.795033e-06 -4.0496058e-06 1.9506686)
(5.9170155e-07 -3.4219652e-06 1.9506684)
(3.6639324e-06 -3.2310258e-06 1.9506693)
(5.3529926e-06 -2.7257453e-06 1.9506708)
(4.3966014e-06 -1.3555422e-06 1.9506732)
(1.7791834e-06 -9.2744856e-07 1.9506741)
(2.5257159e-07 -2.572139e-06 1.9506745)
(-1.7754602e-06 -7.0027407e-06 1.9506723)
(-5.6989582e-06 -9.7054284e-06 1.9506708)
(-8.5789264e-06 -8.5789264e-06 1.9506693)
(-6.0765063e-06 -7.8015253e-06 1.9506673)
(8.3005896e-07 -7.5749511e-06 1.9506672)
(3.9691604e-06 -7.5760908e-06 1.9506679)
(6.4584165e-06 -7.3366151e-06 1.9506696)
(6.1454656e-06 -6.0928224e-06 1.9506725)
(2.379925e-06 -4.1996586e-06 1.9506739)
(5.8081721e-08 -3.3515227e-06 1.9506741)
(-1.0334662e-06 -8.3534991e-06 1.9506697)
(-4.0496058e-06 -6.795033e-06 1.9506686)
(-7.8015253e-06 -6.0765063e-06 1.9506673)
(-5.7910578e-06 -5.7910578e-06 1.9506653)
(8.1713607e-07 -5.7920637e-06 1.9506652)
(3.9022683e-06 -5.9584838e-06 1.9506659)
(6.8362609e-06 -6.1216598e-06 1.9506675)
(7.5335579e-06 -5.8567146e-06 1.9506705)
(4.5204831e-06 -4.8572898e-06 1.9506724)
(8.1799551e-07 -3.6376852e-06 1.950673)
(-7.3648269e-07 1.1478899e-08 1.9506694)
(-3.4219652e-06 5.9170155e-07 1.9506684)
(-7.5749511e-06 8.3005896e-07 1.9506672)
(-5.7920637e-06 8.1713608e-07 1.9506652)
(6.6263293e-07 6.6263294e-07 1.950665)
(3.6395643e-06 4.3898907e-07 1.9506656)
(6.5601857e-06 1.6456707e-07 1.9506671)
(7.4098356e-06 -7.7008437e-08 1.9506701)
(4.5989544e-06 -1.767015e-07 1.950672)
(8.7115144e-07 -1.6090797e-07 1.9506727)
(-6.4665104e-07 3.2729405e-06 1.9506702)
(-3.2310258e-06 3.6639323e-06 1.9506693)
(-7.5760908e-06 3.9691604e-06 1.9506679)
(-5.9584838e-06 3.9022683e-06 1.9506659)
(4.3898906e-07 3.6395643e-06 1.9506656)
(3.4042025e-06 3.4042025e-06 1.9506662)
(6.3202634e-06 3.2065273e-06 1.9506676)
(7.1922893e-06 3.0447874e-06 1.9506705)
(4.4365836e-06 2.9332985e-06 1.9506724)
(8.2852453e-07 2.9014004e-06 1.9506731)
(-4.7582143e-07 4.5829329e-06 1.9506716)
(-2.7257453e-06 5.3529926e-06 1.9506708)
(-7.3366151e-06 6.4584164e-06 1.9506696)
(-6.1216598e-06 6.8362609e-06 1.9506675)
(1.6456706e-07 6.5601857e-06 1.9506671)
(3.2065273e-06 6.3202634e-06 1.9506676)
(6.2007706e-06 6.2007706e-06 1.950669)
(7.1366068e-06 6.1614169e-06 1.9506719)
(4.4555674e-06 6.140884e-06 1.9506738)
(8.4988607e-07 6.1373182e-06 1.9506746)
(-1.3327794e-07 4.3471688e-06 1.9506735)
(-1.3555422e-06 4.3966014e-06 1.9506732)
(-6.0928225e-06 6.1454656e-06 1.9506725)
(-5.8567146e-06 7.5335579e-06 1.9506705)
(-7.7008415e-08 7.4098356e-06 1.9506701)
(3.0447874e-06 7.1922893e-06 1.9506705)
(6.1614169e-06 7.1366068e-06 1.9506719)
(7.1324026e-06 7.1324026e-06 1.9506749)
(4.4124849e-06 6.8998726e-06 1.9506768)
(8.2614735e-07 6.2382738e-06 1.9506776)
(-4.4286641e-07 3.5965217e-06 1.9506747)
(-9.2744856e-07 1.7791834e-06 1.9506741)
(-4.1996586e-06 2.379925e-06 1.9506739)
(-4.8572898e-06 4.5204832e-06 1.9506724)
(-1.7670148e-07 4.5989544e-06 1.950672)
(2.9332985e-06 4.4365836e-06 1.9506724)
(6.1408839e-06 4.4555674e-06 1.9506738)
(6.8998726e-06 4.4124849e-06 1.9506768)
(3.5614385e-06 3.5614385e-06 1.9506784)
(4.0882015e-07 2.9973933e-06 1.9506782)
(-1.3448369e-06 1.154542e-06 1.9506759)
(-2.572139e-06 2.5257158e-07 1.9506745)
(-3.3515227e-06 5.8081714e-08 1.9506741)
(-3.6376852e-06 8.1799551e-07 1.950673)
(-1.6090797e-07 8.7115144e-07 1.9506727)
(2.9014004e-06 8.2852452e-07 1.9506731)
(6.1373182e-06 8.4988607e-07 1.9506746)
(6.2382738e-06 8.2614735e-07 1.9506776)
(2.9973933e-06 4.0882014e-07 1.9506782)
(4.5011719e-07 4.5011719e-07 1.9506787)
(-1.3268396e-06 -1.3268396e-06 1.9232239)
(-2.1143732e-06 6.173649e-07 1.9232229)
(-8.5258931e-06 -2.220016e-06 1.9232223)
(-9.6384004e-06 -1.3443263e-06 1.9232201)
(3.4400921e-07 -1.0097305e-06 1.92322)
(4.4076007e-06 -9.2358002e-07 1.9232208)
(6.30644e-06 -7.1122337e-07 1.9232222)
(6.0147291e-06 -2.058919e-07 1.9232242)
(4.8782501e-06 -5.9800659e-07 1.9232256)
(1.5619944e-06 -1.743958e-06 1.9232268)
(6.1736489e-07 -2.1143732e-06 1.9232229)
(-3.4541379e-06 -3.4541379e-06 1.9232225)
(-1.146843e-05 -7.0021841e-06 1.9232211)
(-7.8229723e-06 -5.0656253e-06 1.9232193)
(9.7512856e-07 -4.3720817e-06 1.9232193)
(4.8553613e-06 -4.2115819e-06 1.9232201)
(7.3829721e-06 -3.6139101e-06 1.9232216)
(6.1845543e-06 -1.7525686e-06 1.923224)
(2.571151e-06 -1.2289818e-06 1.9232251)
(4.1604295e-07 -3.3505369e-06 1.9232257)
(-2.220016e-06 -8.5258931e-06 1.9232223)
(-7.0021841e-06 -1.146843e-05 1.9232211)
(-1.013738e-05 -1.013738e-05 1.92322)
(-7.0082982e-06 -9.2441189e-06 1.9232183)
(1.1980525e-06 -9.0228407e-06 1.9232183)
(5.1657723e-06 -9.0931012e-06 1.9232191)
(8.7654532e-06 -8.8595449e-06 1.9232206)
(8.3996573e-06 -7.2864471e-06 1.9232235)
(3.2802817e-06 -4.9582273e-06 1.923225)
(1.4762423e-07 -4.0211421e-06 1.9232253)
(-1.3443263e-06 -9.6384004e-06 1.9232201)
(-5.0656253e-06 -7.8229723e-06 1.9232193)
(-9.2441189e-06 -7.0082982e-06 1.9232183)
(-6.7084328e-06 -6.7084328e-06 1.9232167)
(1.1261463e-06 -6.7562099e-06 1.9232167)
(5.0186572e-06 -7.0136474e-06 1.9232173)
(9.1896261e-06 -7.2693655e-06 1.9232187)
(1.0085872e-05 -6.9579928e-06 1.9232218)
(5.8364559e-06 -5.7383987e-06 1.9232237)
(1.0407664e-06 -4.29638e-06 1.9232244)
(-1.0097304e-06 3.4400921e-07 1.92322)
(-4.3720817e-06 9.7512856e-07 1.9232193)
(-9.0228407e-06 1.1980525e-06 1.9232183)
(-6.7562099e-06 1.1261463e-06 1.9232167)
(8.9283791e-07 8.9283791e-07 1.9232166)
(4.6526167e-06 5.8099135e-07 1.9232171)
(8.8211079e-06 2.1361013e-07 1.9232184)
(9.9306242e-06 -8.9044697e-08 1.9232214)
(5.9418946e-06 -1.9137809e-07 1.9232234)
(1.1089701e-06 -1.4090569e-07 1.9232241)
(-9.2358002e-07 4.4076007e-06 1.9232208)
(-4.2115819e-06 4.8553613e-06 1.9232201)
(-9.0931012e-06 5.1657723e-06 1.9232191)
(-7.0136474e-06 5.0186572e-06 1.9232173)
(5.8099135e-07 4.6526167e-06 1.9232171)
(4.3394294e-06 4.3394294e-06 1.9232175)
(8.5195901e-06 4.092076e-06 1.9232188)
(9.6808835e-06 3.9144922e-06 1.9232217)
(5.7845949e-06 3.8268473e-06 1.9232237)
(1.0744147e-06 3.8644646e-06 1.9232244)
(-7.1122337e-07 6.30644e-06 1.9232222)
(-3.6139101e-06 7.3829721e-06 1.9232216)
(-8.8595449e-06 8.7654532e-06 1.9232206)
(-7.2693655e-06 9.1896261e-06 1.9232187)
(2.1361012e-07 8.8211079e-06 1.9232184)
(4.092076e-06 8.5195901e-06 1.9232188)
(8.3961707e-06 8.3961707e-06 1.92322)
(9.6653955e-06 8.3995162e-06 1.923223)
(5.891867e-06 8.4309454e-06 1.923225)
(1.1340483e-06 8.4639981e-06 1.9232259)
(-2.0589189e-07 6.014729e-06 1.9232242)
(-1.7525686e-06 6.1845543e-06 1.923224)
(-7.2864471e-06 8.3996573e-06 1.9232235)
(-6.9579928e-06 1.0085872e-05 1.9232218)
(-8.9044687e-08 9.9306242e-06 1.9232214)
(3.9144922e-06 9.6808835e-06 1.9232217)
(8.3995162e-06 9.6653955e-06 1.923223)
(9.7156583e-06 9.7156583e-06 1.9232261)
(5.8490768e-06 9.328368e-06 1.9232282)
(1.0964498e-06 8.039189e-06 1.923229)
(-5.9800659e-07 4.8782501e-06 1.9232256)
(-1.2289818e-06 2.571151e-06 1.9232251)
(-4.9582273e-06 3.2802817e-06 1.923225)
(-5.7383987e-06 5.8364559e-06 1.9232237)
(-1.9137808e-07 5.9418946e-06 1.9232234)
(3.8268473e-06 5.7845949e-06 1.9232237)
(8.4309454e-06 5.891867e-06 1.923225)
(9.328368e-06 5.8490768e-06 1.9232282)
(4.2153977e-06 4.2153977e-06 1.9232299)
(2.7459563e-07 3.5069071e-06 1.9232295)
(-1.743958e-06 1.5619944e-06 1.9232268)
(-3.3505369e-06 4.1604295e-07 1.9232257)
(-4.0211421e-06 1.4762423e-07 1.9232253)
(-4.29638e-06 1.0407664e-06 1.9232244)
(-1.4090568e-07 1.1089701e-06 1.9232241)
(3.8644646e-06 1.0744147e-06 1.9232244)
(8.4639981e-06 1.1340483e-06 1.9232259)
(8.039189e-06 1.0964498e-06 1.923229)
(3.5069071e-06 2.7459562e-07 1.9232295)
(6.2412272e-07 6.2412271e-07 1.92323)
(-1.6410075e-06 -1.6410075e-06 1.8893931)
(-2.785544e-06 5.2063077e-07 1.8893922)
(-9.7496451e-06 -2.5826981e-06 1.8893919)
(-1.0669833e-05 -1.5820498e-06 1.88939)
(7.3033824e-07 -1.2177342e-06 1.88939)
(5.477159e-06 -1.1449842e-06 1.8893908)
(7.9581007e-06 -9.0652636e-07 1.889392)
(7.6970975e-06 -2.547888e-07 1.8893939)
(6.1875724e-06 -7.3450913e-07 1.8893952)
(1.9639843e-06 -2.1014622e-06 1.8893964)
(5.2063077e-07 -2.785544e-06 1.8893922)
(-4.1980801e-06 -4.1980801e-06 1.8893919)
(-1.2903666e-05 -8.0347691e-06 1.8893909)
(-8.6223871e-06 -5.8358586e-06 1.8893893)
(1.3859367e-06 -5.099241e-06 1.8893894)
(5.9439707e-06 -4.9963026e-06 1.8893902)
(9.2933937e-06 -4.3470949e-06 1.8893915)
(7.9551234e-06 -2.0424126e-06 1.8893938)
(3.4175625e-06 -1.458784e-06 1.8893949)
(5.9703128e-07 -4.0208342e-06 1.8893954)
(-2.5826981e-06 -9.7496451e-06 1.8893919)
(-8.0347691e-06 -1.2903666e-05 1.8893909)
(-1.1387423e-05 -1.1387423e-05 1.88939)
(-7.7343048e-06 -1.040075e-05 1.8893886)
(1.5698943e-06 -1.0205346e-05 1.8893887)
(6.2293051e-06 -1.0366839e-05 1.8893893)
(1.0911991e-05 -1.0168204e-05 1.8893907)
(1.0585408e-05 -8.3034116e-06 1.8893934)
(4.2091508e-06 -5.5914752e-06 1.8893948)
(2.5595077e-07 -4.584578e-06 1.8893952)
(-1.5820498e-06 -1.0669833e-05 1.88939)
(-5.8358586e-06 -8.6223871e-06 1.8893893)
(-1.040075e-05 -7.7343048e-06 1.8893886)
(-7.4403092e-06 -7.4403092e-06 1.8893873)
(1.419847e-06 -7.5522619e-06 1.8893873)
(5.9811124e-06 -7.9166455e-06 1.8893878)
(1.1356821e-05 -8.281379e-06 1.889389)
(1.2531852e-05 -7.9415311e-06 1.8893919)
(7.136396e-06 -6.5291664e-06 1.8893937)
(1.268296e-06 -4.889002e-06 1.8893943)
(-1.2177342e-06 7.3033825e-07 1.88939)
(-5.099241e-06 1.3859367e-06 1.8893894)
(-1.0205346e-05 1.5698943e-06 1.8893887)
(-7.5522619e-06 1.419847e-06 1.8893873)
(1.093558e-06 1.093558e-06 1.8893873)
(5.500188e-06 6.8353856e-07 1.8893877)
(1.0887105e-05 2.1716227e-07 1.8893888)
(1.2337621e-05 -1.4755138e-07 1.8893915)
(7.2616802e-06 -2.5056526e-07 1.8893933)
(1.3493938e-06 -1.6080869e-07 1.889394)
(-1.1449842e-06 5.477159e-06 1.8893908)
(-4.9963026e-06 5.9439707e-06 1.8893902)
(-1.0366839e-05 6.2293051e-06 1.8893893)
(-7.9166455e-06 5.9811124e-06 1.8893878)
(6.8353855e-07 5.500188e-06 1.8893877)
(5.1047167e-06 5.1047167e-06 1.889388)
(1.0525731e-05 4.810578e-06 1.889389)
(1.2064124e-05 4.6294272e-06 1.8893917)
(7.1231387e-06 4.5881957e-06 1.8893935)
(1.3281338e-06 4.7257354e-06 1.8893942)
(-9.0652636e-07 7.9581007e-06 1.889392)
(-4.3470948e-06 9.2933937e-06 1.8893915)
(-1.0168204e-05 1.0911991e-05 1.8893907)
(-8.2813791e-06 1.1356821e-05 1.889389)
(2.1716227e-07 1.0887105e-05 1.8893888)
(4.810578e-06 1.0525731e-05 1.889389)
(1.0411815e-05 1.0411815e-05 1.88939)
(1.2115239e-05 1.048751e-05 1.8893927)
(7.3579884e-06 1.0618352e-05 1.8893947)
(1.4410869e-06 1.0745148e-05 1.8893956)
(-2.5478879e-07 7.6970975e-06 1.8893939)
(-2.0424126e-06 7.9551234e-06 1.8893938)
(-8.3034117e-06 1.0585408e-05 1.8893934)
(-7.9415311e-06 1.2531852e-05 1.8893919)
(-1.4755138e-07 1.2337621e-05 1.8893915)
(4.6294271e-06 1.2064124e-05 1.8893917)
(1.048751e-05 1.2115239e-05 1.8893927)
(1.2270661e-05 1.2270661e-05 1.8893956)
(7.3807773e-06 1.1781851e-05 1.8893976)
(1.4126648e-06 9.8326762e-06 1.8893986)
(-7.3450913e-07 6.1875724e-06 1.8893952)
(-1.458784e-06 3.4175625e-06 1.8893949)
(-5.5914752e-06 4.2091508e-06 1.8893948)
(-6.5291664e-06 7.136396e-06 1.8893937)
(-2.5056525e-07 7.2616802e-06 1.8893933)
(4.5881957e-06 7.1231387e-06 1.8893935)
(1.0618352e-05 7.3579884e-06 1.8893947)
(1.1781851e-05 7.3807773e-06 1.8893976)
(4.9200038e-06 4.9200038e-06 1.8893994)
(1.4163709e-07 4.002704e-06 1.889399)
(-2.1014622e-06 1.9639843e-06 1.8893964)
(-4.0208342e-06 5.9703129e-07 1.8893954)
(-4.584578e-06 2.5595077e-07 1.8893952)
(-4.889002e-06 1.2682961e-06 1.8893943)
(-1.6080869e-07 1.3493938e-06 1.889394)
(4.7257354e-06 1.3281338e-06 1.8893942)
(1.0745148e-05 1.4410869e-06 1.8893956)
(9.8326761e-06 1.4126648e-06 1.8893986)
(4.002704e-06 1.4163709e-07 1.889399)
(8.0113163e-07 8.0113163e-07 1.8893996)
(-1.9080453e-06 -1.9080453e-06 1.8496693)
(-3.3102285e-06 4.5081808e-07 1.8496685)
(-1.0732272e-05 -2.8851669e-06 1.8496684)
(-1.1485938e-05 -1.7679236e-06 1.8496668)
(1.1333854e-06 -1.3803515e-06 1.8496669)
(6.4269566e-06 -1.3278464e-06 1.8496676)
(9.4274438e-06 -1.0746248e-06 1.8496687)
(9.2345811e-06 -2.9116607e-07 1.8496703)
(7.4131568e-06 -8.5761772e-07 1.8496715)
(2.3428504e-06 -2.428692e-06 1.8496726)
(4.5081809e-07 -3.3102285e-06 1.8496685)
(-4.775911e-06 -4.775911e-06 1.8496684)
(-1.4060384e-05 -8.8580468e-06 1.8496675)
(-9.2287148e-06 -6.4197243e-06 1.8496663)
(1.7935012e-06 -5.6586514e-06 1.8496665)
(6.8855467e-06 -5.633664e-06 1.8496671)
(1.0982464e-05 -4.9657835e-06 1.8496682)
(9.5600917e-06 -2.2647686e-06 1.8496702)
(4.2068681e-06 -1.6419656e-06 1.8496712)
(7.7177613e-07 -4.6153908e-06 1.8496717)
(-2.8851669e-06 -1.0732272e-05 1.8496684)
(-8.8580468e-06 -1.4060384e-05 1.8496675)
(-1.2376085e-05 -1.2376085e-05 1.8496669)
(-8.2865424e-06 -1.1315349e-05 1.8496658)
(1.9194457e-06 -1.1162559e-05 1.8496659)
(7.1198245e-06 -1.1433313e-05 1.8496664)
(1.2796339e-05 -1.1295736e-05 1.8496675)
(1.2558399e-05 -9.1804201e-06 1.8496699)
(5.0625346e-06 -6.1308469e-06 1.8496712)
(3.6056684e-07 -5.0710449e-06 1.8496715)
(-1.7679236e-06 -1.1485938e-05 1.8496668)
(-6.4197243e-06 -9.2287148e-06 1.8496663)
(-1.1315349e-05 -8.2865424e-06 1.8496658)
(-8.0151883e-06 -8.0151883e-06 1.8496647)
(1.6755378e-06 -8.2056003e-06 1.8496648)
(6.7523695e-06 -8.6902259e-06 1.8496652)
(1.3235357e-05 -9.1790178e-06 1.8496661)
(1.4724981e-05 -8.8315283e-06 1.8496686)
(8.3162433e-06 -7.2557861e-06 1.8496702)
(1.4783107e-06 -5.4427293e-06 1.8496708)
(-1.3803515e-06 1.1333854e-06 1.8496669)
(-5.6586514e-06 1.7935012e-06 1.8496665)
(-1.1162559e-05 1.9194457e-06 1.8496659)
(-8.2056003e-06 1.6755378e-06 1.8496648)
(1.2444081e-06 1.2444081e-06 1.8496648)
(6.146407e-06 7.2752064e-07 1.849665)
(1.2655037e-05 1.5610307e-07 1.8496658)
(1.4481631e-05 -2.7443966e-07 1.8496682)
(8.4513339e-06 -3.8089133e-07 1.8496698)
(1.5692715e-06 -2.5265097e-07 1.8496704)
(-1.3278464e-06 6.4269566e-06 1.8496676)
(-5.633664e-06 6.8855467e-06 1.8496671)
(-1.1433313e-05 7.1198245e-06 1.8496664)
(-8.6902259e-06 6.7523695e-06 1.8496652)
(7.2752064e-07 6.146407e-06 1.849665)
(5.6640645e-06 5.6640645e-06 1.8496652)
(1.2233396e-05 5.323982e-06 1.8496659)
(1.4187986e-05 5.1463439e-06 1.8496682)
(8.3380319e-06 5.164978e-06 1.8496698)
(1.5638043e-06 5.4199945e-06 1.8496705)
(-1.0746248e-06 9.4274438e-06 1.8496687)
(-4.9657835e-06 1.0982464e-05 1.8496682)
(-1.1295736e-05 1.2796339e-05 1.8496675)
(-9.1790178e-06 1.3235357e-05 1.8496661)
(1.5610306e-07 1.2655037e-05 1.8496658)
(5.323982e-06 1.2233396e-05 1.8496659)
(1.2137316e-05 1.2137316e-05 1.8496666)
(1.4322627e-05 1.2305355e-05 1.849669)
(8.7249845e-06 1.2569689e-05 1.8496707)
(1.7392824e-06 1.2834748e-05 1.8496716)
(-2.9116607e-07 9.2345811e-06 1.8496703)
(-2.2647686e-06 9.5600917e-06 1.8496702)
(-9.1804202e-06 1.2558399e-05 1.8496699)
(-8.8315283e-06 1.4724981e-05 1.8496686)
(-2.7443965e-07 1.4481631e-05 1.8496682)
(5.1463439e-06 1.4187986e-05 1.8496682)
(1.2305355e-05 1.4322627e-05 1.849669)
(1.462036e-05 1.462036e-05 1.8496715)
(8.8674251e-06 1.4086923e-05 1.8496734)
(1.74051e-06 1.1517715e-05 1.8496744)
(-8.5761772e-07 7.4131568e-06 1.8496715)
(-1.6419657e-06 4.2068681e-06 1.8496712)
(-6.1308469e-06 5.0625346e-06 1.8496712)
(-7.2557861e-06 8.3162433e-06 1.8496702)
(-3.8089132e-07 8.4513339e-06 1.8496698)
(5.1649781e-06 8.3380319e-06 1.8496698)
(1.2569689e-05 8.7249845e-06 1.8496707)
(1.4086923e-05 8.8674251e-06 1.8496734)
(5.6223393e-06 5.6223393e-06 1.8496751)
(2.6476545e-08 4.4864325e-06 1.8496748)
(-2.428692e-06 2.3428504e-06 1.8496726)
(-4.6153908e-06 7.7177613e-07 1.8496717)
(-5.0710449e-06 3.6056684e-07 1.8496715)
(-5.4427293e-06 1.4783107e-06 1.8496708)
(-2.5265098e-07 1.5692715e-06 1.8496704)
(5.4199945e-06 1.5638043e-06 1.8496705)
(1.2834748e-05 1.7392824e-06 1.8496716)
(1.1517715e-05 1.74051e-06 1.8496744)
(4.4864325e-06 2.6476546e-08 1.8496748)
(9.8323886e-07 9.8323886e-07 1.8496753)
(-2.1340301e-06 -2.1340301e-06 1.8045752)
(-3.7103531e-06 4.038918e-07 1.8045745)
(-1.14958e-05 -3.12949e-06 1.8045745)
(-1.2109774e-05 -1.9048402e-06 1.8045732)
(1.5259106e-06 -1.5000048e-06 1.8045734)
(7.2259765e-06 -1.4732796e-06 1.804574)
(1.0664103e-05 -1.2152693e-06 1.8045748)
(1.0553505e-05 -3.1536554e-07 1.8045762)
(8.4934393e-06 -9.6596178e-07 1.8045772)
(2.6848366e-06 -2.7258235e-06 1.8045782)
(4.038918e-07 -3.7103531e-06 1.8045745)
(-5.2035432e-06 -5.2035432e-06 1.8045744)
(-1.4958897e-05 -9.4854156e-06 1.8045738)
(-9.6655465e-06 -6.8314478e-06 1.8045729)
(2.1732514e-06 -6.0624818e-06 1.8045731)
(7.6530798e-06 -6.1320454e-06 1.8045736)
(1.2400974e-05 -5.4750909e-06 1.8045744)
(1.0927467e-05 -2.4276773e-06 1.8045761)
(4.8777526e-06 -1.7839926e-06 1.8045769)