/*--------------------------------*- C++ -*----------------------------------*\
| =========                 |                                                 |
| \\      /  F ield         | OpenFOAM: The Open Source CFD Toolbox           |
|  \\    /   O peration     | Version:  v2106                                 |
|   \\  /    A nd           | Website:  www.openfoam.com                      |
|    \\/     M anipulation  |                                                 |
\*---------------------------------------------------------------------------*/
FoamFile
{
    version     2.0;
    format      ascii;
    arch        "LSB;label=32;scalar=64";
    class       volScalarField;
    location    "10";
    object      gradTx;
}
// * * * * * * * * * * * * * * * * * * * * * * * * * * * * * * * * * * * * * //

dimensions      [0 -1 0 1 0 0 0];

internalField   nonuniform List<scalar> 
4000
(
5.5496498e-05
0.00056937357
-0.00033643053
-0.00093270426
-3.0023816e-05
0.00020482782
0.00026078217
0.00025326209
0.00018344849
4.4174561e-05
0.00047376638
0.0003921592
-0.00097802616
-0.00070928501
4.5361149e-05
0.00023076282
0.0002873654
0.00026305473
0.0001090086
-1.5554576e-06
-6.2646421e-05
-0.00027598136
-0.00076999899
-0.00061746644
7.3092269e-05
0.00025499939
0.00034788096
0.0003614757
0.00014029552
-1.7151439e-05
4.6035947e-05
-4.1409272e-05
-0.00067358535
-0.00058724401
7.733413e-05
0.00025688523
0.00037900798
0.00047212016
0.00034387487
6.3555628e-05
8.6299741e-05
3.925645e-05
-0.000647958
-0.00058372589
6.9557329e-05
0.00024152214
0.00035856688
0.00045383318
0.00033447997
6.2139937e-05
9.6292598e-05
6.1706812e-05
-0.00064161238
-0.00059077895
5.697655e-05
0.0002272373
0.00034178549
0.00043437623
0.00031378452
5.5221116e-05
0.00010358974
8.9428018e-05
-0.00062183558
-0.00059720312
3.9909403e-05
0.00021401685
0.00033178867
0.00042624187
0.0003073764
5.3426593e-05
0.00011401474
0.00014880559
-0.00054996979
-0.00058009303
1.9754054e-05
0.0002004591
0.00032570949
0.00042392254
0.00030680376
5.3483611e-05
0.00011011816
0.00019764163
-0.00041277014
-0.00050484566
2.165477e-06
0.00018642556
0.00032133498
0.00042097062
0.00029876182
4.9651482e-05
6.4388146e-05
0.00010565263
-0.00031510352
-0.00038590859
-1.0336291e-05
0.00017335553
0.00031872872
0.00041530797
0.00027556366
3.8018169e-05
0.00021607499
0.0013666613
-0.0019806258
-0.0035442029
-0.00018252919
0.00093280425
0.0012645009
0.0012521179
0.00095234924
0.00024695138
0.00087729061
0.00025119381
-0.0035921731
-0.0028433299
8.2283941e-05
0.0010497867
0.0014004509
0.0012559034
0.00057385733
4.4534028e-05
-0.00052757001
-0.0015852865
-0.00308414
-0.0025208163
0.00020441911
0.0011723812
0.001706459
0.0017038543
0.00066729013
-4.4973032e-05
-0.00019707428
-0.00085232043
-0.0027432881
-0.0023899288
0.00022769194
0.0011854045
0.0018653934
0.0022154766
0.0015128292
0.00027225537
-6.0321397e-05
-0.0005618999
-0.0026307388
-0.002369758
0.00019253167
0.0011142801
0.0017814896
0.0021663511
0.0015270839
0.00028727398
-2.0532192e-05
-0.00046537212
-0.0025978801
-0.0024018162
0.00013205799
0.0010450274
0.0017031586
0.0020830255
0.0014484157
0.00026272616
1.7666909e-05
-0.00032232292
-0.0024951211
-0.0024278591
5.2154601e-05
0.00098138907
0.0016559571
0.0020467901
0.0014237445
0.00025682559
7.0101146e-05
-2.341401e-05
-0.0021329376
-0.0023267856
-3.0176857e-05
0.0009194949
0.0016282672
0.0020360169
0.0014193284
0.00025621377
2.0190555e-05
0.00012941349
-0.0015355478
-0.0019653623
-8.0296477e-05
0.0008618281
0.0016089484
0.0020138003
0.0013506875
0.00022293189
-0.00018222679
-0.00030847312
-0.0011939658
-0.0014669918
-9.45903e-05
0.0008161555
0.0015991798
0.0019629598
0.0011630761
0.00013113952
-0.00024754421
0.00016355295
-0.0038580064
-0.0051479798
-0.00015426713
0.0016763733
0.0023181478
0.0022820141
0.001912449
0.00058203093
0.0007812242
-0.0008491447
-0.005729812
-0.004180582
0.00021739565
0.0018859181
0.0026291852
0.0022066299
0.00094268363
0.00011231172
-0.00092267598
-0.003048909
-0.0050413083
-0.0037274726
0.00038715047
0.0020847409
0.0032252253
0.0031319283
0.0012712958
1.2041158e-05
-0.00046664619
-0.0020324466
-0.0045574839
-0.0035399183
0.00040453615
0.0020766224
0.0034595398
0.0039356038
0.0025468963
0.00047577182
-0.00027774412
-0.0016284018
-0.0044006446
-0.0035209762
0.00033436233
0.0019454603
0.0033140048
0.0038629519
0.002583672
0.0005038295
-0.00021887102
-0.001491029
-0.0043703434
-0.0035927064
0.00022274476
0.0018222601
0.0031812491
0.0037321239
0.0024723776
0.00047138204
-0.0001380476
-0.0012200342
-0.0042099402
-0.0036602569
7.9999995e-05
0.0017131933
0.0031065118
0.0036834767
0.0024541397
0.00047150729
-1.1512726e-05
-0.00058395153
-0.0035399888
-0.0035039269
-5.5545888e-05
0.0016147671
0.00306958
0.0036721462
0.0024436356
0.00046758456
-0.00018830374
-0.00037012002
-0.0024809663
-0.0029292332
-0.00012347991
0.0015337181
0.0030465342
0.0036026105
0.0021995366
0.00034812903
-0.00065802296
-0.0012251047
-0.0019357762
-0.0021915507
-0.00013006459
0.0014852348
0.003040838
0.0034175431
0.0018126147
0.00020963663
-0.0006973086
-0.00090248201
-0.0052946098
-0.0063158875
8.6789377e-06
0.0024745946
0.0034650495
0.0032867936
0.0027192467
0.00087292244
0.00058091325
-0.0018700955
-0.0073380495
-0.0051375674
0.00044737187
0.0027702145
0.0040472738
0.0033241684
0.0013451993
0.00019096352
-0.0013423843
-0.0043088503
-0.0064863277
-0.004594306
0.00062758841
0.0030009905
0.0048830593
0.0046464442
0.0017994061
4.3914243e-05
-0.00078137986
-0.0030618134
-0.0058985531
-0.0043784853
0.00061781775
0.0029504151
0.0051687391
0.005695949
0.0034178327
0.00061846746
-0.00055683753
-0.0025872688
-0.0057272456
-0.0043792458
0.00050100149
0.0027517907
0.004960005
0.0056024055
0.003477163
0.00065865744
-0.0004889179
-0.0024429039
-0.0057281072
-0.0045050722
0.00033190951
0.002573839
0.0047786053
0.0054379237
0.0033543982
0.00062642821
-0.00035975757
-0.0020608729
-0.005547045
-0.0046284457
0.00012442536
0.0024243813
0.0046882594
0.0053958233
0.0033687513
0.00064257916
-0.00010076836
-0.0010248941
-0.004606642
-0.0044281265
-5.8224283e-05
0.0023020934
0.0046585048
0.0053926444
0.0033361774
0.00062463084
-0.00033484102
-0.00070122236
-0.0031752645
-0.0036724844
-0.0001335999
0.0022177991
0.0046429801
0.0052168336
0.002692721
0.00030909942
-0.0010167999
-0.0019447347
-0.0025340086
-0.0027503696
-0.00012165879
0.0021936817
0.0046402841
0.004716614
0.0022662594
0.00034032315
-0.00099225811
-0.001581204
-0.0063759681
-0.0072079416
0.00025726243
0.0032961619
0.0047161819
0.0044980298
0.00364813
0.0011681153
0.00046168757
-0.0025831279
-0.0085765026
-0.0058502994
0.00072923614
0.0036310134
0.0055212513
0.0046250312
0.0019227988
0.00031113181
-0.0016602074
-0.0052364841
-0.0075810965
-0.0052410571
0.00089594671
0.00386315
0.0065551204
0.0062815647
0.0024531121
0.00011039868
-0.0010053354
-0.0037882564
-0.0069130841
-0.0050168073
0.0008421727
0.0037531323
0.0068723326
0.0075425768
0.0043647109
0.00077832239
-0.00075511266
-0.0032695996
-0.0067476044
-0.0050525368
0.00066769631
0.0034793941
0.0065967415
0.0074264772
0.0044435618
0.00082932756
-0.00069068626
-0.0031495721
-0.0068001475
-0.0052450577
0.00043448623
0.0032451813
0.0063712555
0.0072397121
0.0043259274
0.00080348578
-0.00053187833
-0.0027026115
-0.0066254855
-0.0054362927
0.00015974533
0.0030602015
0.0062789579
0.0072281293
0.0044061492
0.00084808191
-0.00015397333
-0.0013106336
-0.0054490662
-0.0052034366
-6.6590813e-05
0.0029273977
0.0062814594
0.0072657172
0.0043741489
0.00081996434
-0.00044721073
-0.00091907661
-0.0037079399
-0.0042913802
-0.00014311939
0.0028618536
0.006304963
0.0069760873
0.0031524251
0.00020535243
-0.0013041942
-0.0025056515
-0.003007154
-0.0032129869
-0.00010537432
0.0028899851
0.0063296808
0.006011993
0.0026225905
0.00046674127
-0.0012143179
-0.0020612558
-0.0072145735
-0.0078954978
0.00054043809
0.004053006
0.0058888611
0.0056957229
0.0045786995
0.0014533153
0.00038525802
-0.0031065087
-0.0095484961
-0.0063804223
0.00102557
0.004398439
0.0068769557
0.0058866577
0.0025289387
0.00044179311
-0.0019111532
-0.0059455943
-0.0084265027
-0.0057232566
0.0011616956
0.0046095818
0.0080746905
0.0078330246
0.0031147008
0.00018939927
-0.0011706904
-0.0043184378
-0.0076963811
-0.0055057051
0.0010506632
0.0044259237
0.0084038584
0.0092733608
0.0052808134
0.00093851778
-0.00090110293
-0.0037733531
-0.0075517855
-0.0055885483
0.00080921477
0.0040700476
0.0080562763
0.0091296334
0.0053735216
0.00099852877
-0.00084726912
-0.0036971804
-0.007671288
-0.005858186
0.00050580716
0.0037774054
0.0077888657
0.0089272503
0.0052710032
0.00098279669
-0.00067081431
-0.0032167774
-0.0075243007
-0.0061280824
0.00016069646
0.0035597475
0.0077045696
0.0089650738
0.0054447878
0.0010663801
-0.00018853943
-0.001511351
-0.0061443853
-0.0058766002
-0.00010918555
0.0034256986
0.0077605814
0.0090800826
0.0054616508
0.0010453481
-0.0005435244
-0.0010794756
-0.0041375977
-0.0048314736
-0.00018541408
0.0033951879
0.0078574019
0.008718371
0.0036407197
0.00010480906
-0.0015550466
-0.0029753497
-0.0033925107
-0.0036177794
-0.00011899573
0.0034969649
0.007951229
0.0072760144
0.0029619333
0.00059282387
-0.0013976773
-0.0024248017
-0.0078615818
-0.0084136562
0.0008302252
0.0047078614
0.006905772
0.0067644962
0.0054302701
0.0017161798
0.00033023233
-0.0034984404
-0.010299484
-0.0067602
0.0013137719
0.005043787
0.0080448525
0.0070029386
0.0030816062
0.00056533983
-0.0021134365
-0.0064886784
-0.0090657053
-0.006070042
0.0014060286
0.0052153999
0.0093735488
0.0091992527
0.0037083973
0.00026412166
-0.0012950359
-0.0047025638
-0.0082886978
-0.0058712706
0.0012273618
0.0049462329
0.0096951379
0.010786313
0.0060917975
0.0010828891
-0.0010111323
-0.0041450642
-0.0081767759
-0.0060107509
0.00091155147
0.0045023545
0.0092700431
0.010608055
0.0061907539
0.0011495195
-0.0009726714
-0.0041267604
-0.0083751079
-0.0063657478
0.00053292204
0.0041490298
0.0089611839
0.010392955
0.0061077581
0.0011455147
-0.00078718194
-0.0036375257
-0.00827433
-0.0067237964
0.00011434831
0.003899913
0.0088908029
0.010491582
0.0063912076
0.0012740555
-0.00021328436
-0.0016589836
-0.0067248225
-0.0064692535
-0.00020103199
0.0037697895
0.0090138936
0.010709675
0.0064955473
0.0012749546
-0.00062822033
-0.0012027693
-0.0044909551
-0.0053149936
-0.00027900974
0.0037834392
0.0092075229
0.010318923
0.0041184637
1.9394541e-05
-0.0017790603
-0.0033808564
-0.0037146312
-0.0039868968
-0.00018507138
0.0039702432
0.0094016828
0.0084369316
0.0032863917
0.00072023997
-0.0015481033
-0.0026916256
-0.008339473
-0.0087848734
0.0011069514
0.0052419879
0.0077361302
0.0076558981
0.0061614508
0.0019476784
0.00029299786
-0.0037748403
-0.010851731
-0.0070117415
0.0015765562
0.0055518244
0.0089961201
0.0079271835
0.0035384997
0.00067101058
-0.0022702464
-0.0068810674
-0.0095204152
-0.0063017525
0.0016143237
0.0056681031
0.010423415
0.010333556
0.0041920526
0.00032344462
-0.0013818408
-0.0049557825
-0.0087101432
-0.0061316579
0.0013601136
0.0053039411
0.010718882
0.012034576
0.0067551328
0.0012000984
-0.0010881585
-0.0043979465
-0.0086403316
-0.0063350685
0.00096447491
0.004767717
0.010211379
0.011814537
0.0068519513
0.0012706646
-0.001068771
-0.0044484103
-0.0089265859
-0.0067815066
0.00050692083
0.0043518772
0.0098608385
0.011587588
0.0067897812
0.0012788334
-0.00088160079
-0.0039718313
-0.0088882148
-0.0072354547
1.2411042e-05
0.0040717016
0.0098076435
0.011753366
0.0071911349
0.0014551946
-0.00022877768
-0.0017611258
-0.0072038238
-0.0069935426
-0.00035112287
0.003948142
0.010005968
0.012091237
0.0074097422
0.001488591
-0.00070074392
-0.0012941733
-0.0047808224
-0.0057544739
-0.00043457702
0.0040105307
0.010311292
0.011706996
0.0045372016
-5.7933896e-05
-0.0019774117
-0.003730524
-0.0039871908
-0.0043336439
-0.00031647446
0.0042873256
0.010625929
0.0094373033
0.0035677374
0.00084228155
-0.0016650502
-0.0028664803
-0.0086630425
-0.0090277961
0.0013549169
0.0056440984
0.0083661128
0.0083480765
0.0067489767
0.0021409934
0.00027393968
-0.003941844
-0.011221941
-0.0071539879
0.0017998706
0.005913696
0.0097180906
0.0086376924
0.0038756844
0.00075137147
-0.0023819593
-0.0071306149
-0.0098076333
-0.0064361345
0.0017747786
0.0059614911
0.011212968
0.01121418
0.0045413854
0.00035975906
-0.0014319928
-0.0050864349
-0.0089767005
-0.0063028571
0.0014393699
0.0054953747
0.011465686
0.012997267
0.007246751
0.0012825118
-0.0011327538
-0.0045389533
-0.0089565025
-0.0065754934
0.00096033594
0.0048642148
0.010872199
0.012728888
0.0073332493
0.0013543302
-0.0011353571
-0.0046665732
-0.0093372011
-0.0071172997
0.00042163204
0.0043847827
0.010479687
0.012490021
0.0072916153
0.0013745111
-0.00095302209
-0.0042215606
-0.0093748238
-0.0076727697
-0.0001502561
0.0040736645
0.010445209
0.012725943
0.007814211
0.0015996861
-0.00023403854
-0.0018197178
-0.0075896054
-0.0074580687
-0.00056436753
0.0039577922
0.010723158
0.01319404
0.0081655557
0.0016730913
-0.00075994481
-0.0013554576
-0.0050152494
-0.0061580615
-0.0006575021
0.00407072
0.011149228
0.012845154
0.0048616366
-0.00013610592
-0.0021495667
-0.0040273091
-0.0042185388
-0.0046662048
-0.00051950315
0.0044387538
0.011597098
0.010241466
0.0037776414
0.00095042783
-0.0017479206
-0.0029534443
-0.0088465042
-0.0091598641
0.0015617568
0.0059085491
0.008791587
0.0088330559
0.0071811642
0.0022918842
0.00027320096
-0.00400606
-0.011426876
-0.0072046388
0.0019728762
0.0061260997
0.0102082
0.0091270094
0.0040813574
0.00080196597
-0.0024496644
-0.007246434
-0.0099445668
-0.0064898571
0.0018786566
0.0060950071
0.011741795
0.011834546
0.0047449054
0.00036868728
-0.001447047
-0.0051041227
-0.0091047274
-0.006399962
0.0014585396
0.0055225982
0.011937655
0.013669635
0.0075563153
0.0013260424
-0.0011461809
-0.004576427
-0.00913989
-0.0067452417
0.00089442605
0.0047958029
0.011256346
0.013347699
0.0076251797
0.0013966383
-0.0011729674
-0.0047872228
-0.009619064
-0.0073841925
0.00027392758
0.0042526941
0.010821949
0.013096576
0.0076030124
0.0014283456
-0.0010011472
-0.004389969
-0.0097433915
-0.0080444459
-0.00037547801
0.0039108549
0.010806583
0.013403249
0.0082467866
0.0017020601
-0.00022855843
-0.0018370151
-0.0078896096
-0.0078696414
-0.00084177848
0.0038029314
0.011165754
0.014007306
0.0087432719
0.0018208129
-0.0008051781
-0.0013884785
-0.0052007663
-0.0065312936
-0.00094853618
0.0039664055
0.011717313
0.013717112
0.005071408
-0.000221396
-0.0022950963
-0.0042732739
-0.0044146516
-0.0049893671
-0.00079508136
0.0044245382
0.012306014
0.010831928
0.0038971216
0.0010379554
-0.0017972189
-0.0029587932
-0.008905007
-0.0091976955
0.0017184638
0.0060349753
0.0090160456
0.009112458
0.0074550681
0.0023985317
0.00028993766
-0.0039764618
-0.011484367
-0.0071803309
0.0020881088
0.0061910709
0.01047199
0.0093978403
0.0041528518
0.00082091396
-0.0024756647
-0.0072402291
-0.0099493367
-0.006478513
0.001920531
0.0060734883
0.01201813
0.012199113
0.0048009109
0.00034858588
-0.0014296358
-0.0050207915
-0.0091114727
-0.0064370529
0.0014142686
0.0053930861
0.012145864
0.014058619
0.0076840269
0.0013295815
-0.0011307549
-0.0045210465
-0.0092060588
-0.0068565872
0.00076524642
0.0045718961
0.011376831
0.013679602
0.0077291933
0.00139681
-0.0011832058
-0.0048187243
-0.0097853129
-0.0075923375
6.3935908e-05
0.0039661646
0.010901285
0.013416011
0.0077250825
0.0014393784
-0.0010266911
-0.0044825334
-0.010004044
-0.0083581794
-0.00066167507
0.0035941944
0.010904705
0.013792247
0.0084873432
0.0017603765
-0.00021257642
-0.0018166403
-0.0081114384
-0.0082336362
-0.001180643
0.0034940392
0.011344513
0.014534128
0.0091364153
0.0019280609
-0.00083643627
-0.0013958789
-0.0053432646
-0.00687769
-0.0013042829
0.0037068394
0.012022822
0.01432115
0.0051580502
-0.00031716679
-0.002414054
-0.0044707976
-0.0045802633
-0.0053053538
-0.0011395875
0.0042521892
0.012755846
0.011204835
0.0039170116
0.0011007018
-0.0018145613
-0.0028910318
-0.0088545037
-0.009156891
0.0018193238
0.0060277896
0.0090493182
0.00919528
0.0075745347
0.0024611229
0.0003223844
-0.0038641584
-0.011413005
-0.0070963982
0.0021414181
0.0061154449
0.010521688
0.0094606957
0.0040945018
0.00080839701
-0.0024633124
-0.0071258541
-0.009840563
-0.0064163255
0.0018982294
0.005906555
0.012057226
0.01232078
0.0047151629
0.00029995415
-0.0013832831
-0.0048502177
-0.0090145953
-0.0064268671
0.001306375
0.0051190305
0.01210853
0.014180008
0.0076380621
0.0012943289
-0.0010896505
-0.0043852886
-0.0091710319
-0.0069205279
0.0005744124
0.0042065977
0.01125385
0.013742219
0.0076548955
0.0013564331
-0.0011685536
-0.0047713121
-0.0098496384
-0.0077506841
-0.00020511301
0.0035404958
0.010738681
0.013466287
0.0076673314
0.0014090962
-0.0010312136
-0.0045065232
-0.010167446
-0.0086204852
-0.0010041224
0.0031395103
0.010760118
0.013909498
0.0085432269
0.0017753042
-0.0001869737
-0.001763404
-0.0082627967
-0.0085540609
-0.0015749614
0.0030467647
0.011278217
0.014787746
0.009347977
0.0019939527
-0.00085426976
-0.0013810227
-0.0054481341
-0.0071990467
-0.001717843
0.0033067895
0.012081577
0.014666091
0.0051218661
-0.00042449951
-0.0025069957
-0.0046227758
-0.0047192363
-0.0056143282
-0.0015456922
0.0039350961
0.012958862
0.011366385
0.0038361086
0.0011367811
-0.0018024723
-0.00276034
-0.0087112443
-0.0090517724
0.0018616807
0.0058954499
0.0089063122
0.009096212
0.0075486625
0.0024814354
0.0003680685
-0.0036817408
-0.011231551
-0.0069666256
0.002131702
0.0059100591
0.010374823
0.0093320613
0.0039159703
0.00076619523
-0.0024167395
-0.0069185629
-0.0096367633
-0.0063159037
0.0018125404
0.0056077337
0.011879801
0.012218863
0.0044990434
0.00022492154
-0.0013121361
-0.0046072598
-0.0088315592
-0.0063805602
0.0011375246
0.0047163913
0.011849306
0.014056205
0.0074325413
0.0012232212
-0.0010266417
-0.0041826941
-0.0090506979
-0.0069465705
0.00032628791
0.0037176799
0.010912971
0.013559791
0.0074178845
0.0012788514
-0.0011321219
-0.0046564
-0.0098257367
-0.0078668127
-0.00052731116
0.0029946465
0.010360544
0.01327209
0.0074453913
0.0013407874
-0.0010169022
-0.0044704104
-0.010244366
-0.0088366243
-0.0013954569
0.0025663619
0.010398974
0.013778575
0.0084282575
0.0017494356
-0.00015311472
-0.0016829111
-0.0083512536
-0.0088336429
-0.0020160735
0.0024806499
0.010991578
0.01478884
0.0093878547
0.0020196652
-0.00085966938
-0.0013477595
-0.0055202217
-0.0074956966
-0.0021795726
0.0027851467
0.011915724
0.014768491
0.0049695558
-0.0005427996
-0.0025749095
-0.0047325303
-0.0048346827
-0.0059148018
-0.0020032234
0.0034910229
0.012934041
0.011330138
0.0036592252
0.0011461115
-0.0017641501
-0.0025779361
-0.008491247
-0.0088951854
0.0018455853
0.005649621
0.008605755
0.0088341621
0.0073905041
0.0024624737
0.0004240391
-0.0034425948
-0.01095837
-0.0068030845
0.0020605182
0.0055888492
0.010052848
0.0090327977
0.0036308557
0.00069729495
-0.0023405892
-0.0066342725
-0.0093558043
-0.0061881043
0.0016667882
0.0051934854
0.01151053
0.011917318
0.0041680299
0.00012682218
-0.0012207098
-0.004307152
-0.0085791083
-0.0063075942
0.00091276804
0.0042038603
0.011395678
0.013714324
0.0070858595
0.0011204629
-0.0009458553
-0.0039271914
-0.0088603139
-0.0069426492
2.7481354e-05
0.0031254913
0.01038345
0.013161174
0.0070379964
0.001168671
-0.0010774213
-0.0044859492
-0.0097268584
-0.007946901
-0.00089462763
0.002350082
0.0097969463
0.012862754
0.0070792065
0.0012390324
-0.00098636986
-0.0043833271
-0.010245303
-0.0090106433
-0.0018262969
0.0018968276
0.0098512193
0.013427929
0.0081608653
0.0016867628
-0.00011269264
-0.0015811739
-0.008384028
-0.0090739812
-0.0024933597
0.0018178513
0.010513366
0.01456335
0.0092709555
0.0020078988
-0.00085394612
-0.0013001708
-0.0055637762
-0.0077667879
-0.0026778668
0.0021635825
0.011551815
0.014650458
0.0047124363
-0.00067026191
-0.0026191249
-0.0048036481
-0.0049290242
-0.0062040147
-0.0025000126
0.0029407203
0.012705115
0.011114921
0.0033955723
0.0011299894
-0.0017032374
-0.0023554763
-0.0082098381
-0.0086983842
0.0017733842
0.0053043217
0.0081689927
0.0084309206
0.0071159214
0.0024081482
0.0004870824
-0.0031602747
-0.010610947
-0.0066160595
0.0019316372
0.0051679429
0.0095798427
0.0085867023
0.0032554742
0.00060554623
-0.0022397697
-0.0062889114
-0.0090144596
-0.006041992
0.0014663508
0.0046822415
0.010976648
0.011443178
0.0037403745
9.8287082e-06
-0.0011136571
-0.0039648962
-0.0082728578
-0.0062157267
0.00063902511
0.0036018493
0.010777482
0.013184502
0.0066192549
0.00099112647
-0.00085155317
-0.0036325191
-0.0086141268
-0.0069151477
-0.00031370662
0.0024519001
0.0096966916
0.012578095
0.0065378166
0.0010313444
-0.0010081551
-0.0042719296
-0.0095654699
-0.0079957841
-0.0012975012
0.0016296737
0.0090800471
0.012270475
0.0065915091
0.0011092781
-0.00094247235
-0.0042545993
-0.01018022
-0.0091454891
-0.0022858822
0.0011543601
0.0091489685
0.012889059
0.0077625454
0.0015922478
-6.7588442e-05
-0.0014642743
-0.0083678309
-0.0092757405
-0.0029949358
0.0010819506
0.0098747494
0.014140641
0.0090156607
0.0019624562
-0.00083861788
-0.0012423419
-0.0055824206
-0.0080105719
-0.0031999091
0.0014653243
0.011019134
0.014337843
0.0043650212
-0.00080423647
-0.0026412199
-0.0048398212
-0.0050040502
-0.0064782984
-0.0030226816
0.0023066794
0.012298901
0.010743116
0.0030574365
0.001090733
-0.0016236118
-0.0021045284
-0.0078812878
-0.0084709942
0.0016492834
0.0048751134
0.0076188889
0.0079099605
0.0067425633
0.0023229859
0.00055391309
-0.0028479688
-0.010205516
-0.0064140539
0.0017505775
0.0046648066
0.0089813323
0.0080192235
0.00280778
0.00049535758
-0.0021192387
-0.0058978718
-0.008628081
-0.0058848781
0.0012181668
0.0040935092
0.010306684
0.01082515
0.0032359413
-0.0001213706
-0.00099557218
-0.003594762
-0.0079270003
-0.0061110785
0.00032456386
0.0029315598
0.010025582
0.012498422
0.0060555579
0.00084080281
-0.00074794518
-0.0033117557
-0.0083251057
-0.0068689912
-0.00068783013
0.0017193344
0.0088848957
0.011843631
0.0059413922
0.00087281058
-0.00092804272
-0.0040258786
-0.009353014
-0.0080170754
-0.0017254161
0.00085670869
0.008242702
0.011528753
0.0060065078
0.00095747214
-0.00088814972
-0.0040933599
-0.010058352
-0.009243166
-0.0027626812
0.00036276483
0.0083250914
0.012194947
0.0072565338
0.0014714541
-1.9747119e-05
-0.0013380833
-0.0083087642
-0.0094388639
-0.0035082962
0.00029690437
0.009107861
0.013551917
0.0086425208
0.0018878845
-0.00081530772
-0.0011781707
-0.0055791541
-0.0082246847
-0.0037323503
0.00071408064
0.010348255
0.013858692
0.0039438288
-0.00094153279
-0.002642936
-0.0048447054
-0.0050609863
-0.0067334129
-0.0035573463
0.0016120459
0.011743874
0.010239212
0.0026590692
0.0010313781
-0.001529201
-0.0018361349
-0.0075185445
-0.0082210396
0.0014789135
0.0043783601
0.0069788483
0.0072953839
0.0062889619
0.002211872
0.00062133611
-0.0025180667
-0.0097567917
-0.0062038608
0.0015241481
0.0040974757
0.0082832468
0.0073563385
0.0023064172
0.00037142534
-0.0019838223
-0.0054755736
-0.0082103771
-0.0057224212
0.00093025759
0.0034470731
0.0095293627
0.010092407
0.0026751926
-0.00026185509
-0.00087082864
-0.0032098993
-0.0075541159
-0.0059982555
-2.1493631e-05
0.0022141652
0.0091707379
0.011688039
0.0054181093
0.00067529681
-0.00063903645
-0.0029769553
-0.0080047718
-0.0068077865
-0.0010848092
0.0009499472
0.0079798987
0.010990909
0.005273126
0.00069918322
-0.00084067224
-0.0037585552
-0.0090997576
-0.0080133223
-0.0021674305
5.4036312e-05
0.0073172865
0.010671079
0.0053487685
0.00078974716
-0.00082629275
-0.0039082423
-0.0098880823
-0.0093049124
-0.0032449381
-0.00045467301
0.0074120133
0.011378714
0.0066666758
0.0013302287
2.8926759e-05
-0.0012080408
-0.0082122665
-0.0095627864
-0.0040208819
-0.00051384912
0.0082445802
0.012828887
0.0081731371
0.0017891652
-0.00078565637
-0.0011112194
-0.0055563816
-0.0084064105
-0.0042618982
-6.6867509e-05
0.0095698216
0.013241941
0.0034663672
-0.0010786797
-0.0026261031
-0.00482181
-0.0051005744
-0.006964853
-0.0040902227
0.00087970068
0.011068949
0.0096285788
0.0022157422
0.00095541523
-0.0014238294
-0.0015604724
-0.0071330627
-0.007955024
0.0012689139
0.0038305776
0.0062719823
0.0066110245
0.0057737528
0.0020798243
0.00068637597
-0.002181832
-0.0092778075
-0.0059906836
0.0012600167
0.0034838865
0.0075110392
0.0066236024
0.0017699104
0.00023849958
-0.0018380691
-0.0050351391
-0.0077732891
-0.0055587714
0.00061128536
0.0027623138
0.008672676
0.009273567
0.0020783305
-0.00040671421
-0.00074345387
-0.0028220584
-0.0071650751
-0.0058805082
-0.00038962168
0.0014701218
0.0082426543
0.010784518
0.0047298482
0.00050036804
-0.00052850887
-0.0026388864
-0.0076631136
-0.0067339897
-0.0014943869
0.00016492137
0.0070122201
0.010052031
0.0045568519
0.00051648772
-0.00074938534
-0.0034796869
-0.0088147135
-0.0079861804
-0.0026126405
-0.00075663574
0.0063347326
0.0097298504
0.0046422798
0.00061215538
-0.00075963623
-0.0037071502
-0.0096768784
-0.0093313821
-0.0037211444
-0.0012759039
0.0064407378
0.010472527
0.0060164782
0.001174432
7.6652604e-05
-0.0010789931
-0.0080830984
-0.0096466364
-0.0045205622
-0.001328118
0.007315541
0.01200265
0.007629216
0.0016714483
-0.00075125092
-0.0010446076
-0.0055159633
-0.0085529179
-0.0047758116
-0.00085540804
0.0087135378
0.012516317
0.0029502784
-0.0012121455
-0.0025925757
-0.0047744154
-0.0051231606
-0.007168115
-0.0046081306
0.0001315083
0.010302477
0.0089364506
0.0017429509
0.00086656328
-0.0013110945
-0.0012866048
-0.0067347144
-0.0076780496
0.0010265485
0.003247882
0.0055204219
0.0058797114
0.0052150266
0.0019318013
0.00074637344
-0.0018491762
-0.0087798324
-0.0057782906
0.00096631769
0.0028413184
0.0066889651
0.0058453749
0.0012159993
0.000101189
-0.001686142
-0.0045881717
-0.0073269501
-0.0053967431
0.00027015787
0.0020576466
0.0077631373
0.0083958659
0.0014645951
-0.000551247
-0.00061703858
-0.0024414119
-0.0067690191
-0.0057599126
-0.00077028523
0.00071861199
0.0072692295
0.0098173743
0.0040125721
0.00032151843
-0.00041963606
-0.0023068652
-0.0073085721
-0.0066490894
-0.0019065219
-0.00061608273
0.0060103129
0.0090572225
0.0038150912
0.00033044734
-0.00065719244
-0.0031978025
-0.008505622
-0.0079365923
-0.0030505711
-0.001555294
0.0053237766
0.0087355084
0.0039097034
0.00043045252
-0.00069067844
-0.0034971006
-0.0094312784
-0.0093228187
-0.0041804279
-0.0020806711
0.0054400848
0.0095067204
0.0053283435
0.0010097162
0.00012183636
-0.00095508715
-0.0079253577
-0.0096894167
-0.0049960239
-0.0021255222
0.0063493545
0.011102804
0.0070317953
0.0015398296
-0.0007135695
-0.00098094616
-0.005459279
-0.0086614621
-0.0052622938
-0.0016311732
0.0078073807
0.011709452
0.0024126369
-0.0013385201
-0.0025441818
-0.0047055186
-0.0051287849
-0.0073389206
-0.0050988926
-0.00061226984
0.0094714464
0.0081870977
0.0012557599
0.00076857832
-0.0011942762
-0.0010223258
-0.0063317715
-0.007393961
0.00075936413
0.0026455434
0.0047447806
0.0051226949
0.0046298131
0.0017725469
0.00079905085
-0.0015285243
-0.0082723661
-0.0055691922
0.00065130765
0.002185949
0.0058395252
0.005044221
0.00066111918
-3.6194158e-05
-0.0015317419
-0.0041446296
-0.0068797132
-0.0052380044
-8.4311094e-05
0.0013500853
0.0068252089
0.0074845205
0.00085172286
-0.00069111815
-0.00049467888
-0.002076466
-0.0063734034
-0.0056375615
-0.001154271
-2.287851e-05
0.0062759894
0.0088138299
0.003286368
0.0001438271
-0.0003152294
-0.001988673
-0.0069480825
-0.0065537911
-0.0023117106
-0.0013753382
0.0050000104
0.0080341849
0.0030684869
0.00014631847
-0.00056671654
-0.0029201412
-0.0081789821
-0.007864961
-0.0034714892
-0.0023240242
0.0043104095
0.0077158981
0.0031718056
0.00024993158
-0.00062162573
-0.0032841312
-0.0091569099
-0.0092792147
-0.0046128563
-0.0028509148
0.0044361333
0.0085091424
0.0046229825
0.00084135277
0.00016311319
-0.00083971299
-0.0077425179
-0.0096901594
-0.0054370691
-0.0028879014
0.0053720355
0.010156769
0.0064006375
0.0013991735
-0.00067394167
-0.00092230561
-0.005387301
-0.0087295503
-0.0057107881
-0.0023759573
0.0068770045
0.010847203
0.0018694009
-0.0014546576
-0.0024826828
-0.0046178032
-0.0051172691
-0.0074733953
-0.0055516314
-0.0013334058
0.0086008674
0.0074031877
0.00076828821
0.00066509839
-0.0010762738
-0.00077407804
-0.0059309463
-0.0071055021
0.00047489847
0.0020376438
0.0039637606
0.0043592274
0.0040336943
0.0016064702
0.00084254929
-0.0012267616
-0.0077631914
-0.0053648252
0.0003230758
0.0015325222
0.0049830625
0.0042404818
0.00012002198
-0.00016974968
-0.0013780629
-0.0037127797
-0.0064382328
-0.0050832682
-0.00044368037
0.00065492607
0.0058808979
0.0065622757
0.00025555626
-0.00082247151
-0.0003789475
-0.0017340481
-0.0059840892
-0.0055137516
-0.0015329519
-0.00073885565
0.0052856985
0.0077983512
0.002569206
-2.8169194e-05
-0.00021761155
-0.0016905458
-0.0065871592
-0.0064481933
-0.0027012365
-0.0020973284
0.0040041561
0.0070076574
0.0023354062
-3.1227125e-05
-0.00048016262
-0.002652627
-0.0078401169
-0.0077713077
-0.0038666382
-0.0030472765
0.0033175147
0.0066958294
0.0024470586
7.5304056e-05
-0.00055435928
-0.0030732635
-0.0088585371
-0.0092004478
-0.0050096574
-0.0035710322
0.0034518548
0.0075047026
0.0039189948
0.0006741048
0.000199372
-0.00073548972
-0.007537481
-0.0096480495
-0.0058348219
-0.0035995778
0.0044066192
0.009189309
0.0057537835
0.0012539772
-0.00063352299
-0.00087021519
-0.0053006677
-0.0087550661
-0.0061121792
-0.0030739871
0.0059453344
0.009953152
0.0013350077
-0.0015577819
-0.0024097429
-0.0045136278
-0.005088297
-0.0075681995
-0.0059569693
-0.0020159892
0.0077133441
0.0066053219
0.0002933266
0.00055952312
-0.00095956945
-0.00054693975
-0.0055374731
-0.0068144751
0.0001804422
0.0014368361
0.0031938956
0.0036062906
0.0034405409
0.0014375597
0.00087544119
-0.00094924608
-0.0072584692
-0.0051657345
-1.0686711e-05
0.000894124
0.0041375055
0.0034520001
-0.00039446892
-0.0002960674
-0.0012277737
-0.0032992193
-0.006007584
-0.0049324765
-0.00080009665
-1.4454787e-05
0.0049495065
0.0056491179
-0.0003102033
-0.00094200344
-0.00027188955
-0.0014193569
-0.0056054683
-0.0053881596
-0.0018984826
-0.001415992
0.0043181333
0.0067923709
0.0018766848
-0.00019055306
-0.00012861328
-0.0014172208
-0.006230009
-0.0063319475
-0.0030673464
-0.0027688987
0.0030424011
0.005999155
0.0016316981
-0.00019817613
-0.00039930882
-0.0023998958
-0.0074932643
-0.0076554093
-0.0042283951