/*--------------------------------*- C++ -*----------------------------------*\
| =========                 |                                                 |
| \\      /  F ield         | OpenFOAM: The Open Source CFD Toolbox           |
|  \\    /   O peration     | Version:  v2106                                 |
|   \\  /    A nd           | Website:  www.openfoam.com                      |
|    \\/     M anipulation  |                                                 |
\*---------------------------------------------------------------------------*/
FoamFile
{
    version     2.0;
    format      ascii;
    arch        "LSB;label=32;scalar=64";
    class       volScalarField;
    location    "10";
    object      gradTz;
}
// * * * * * * * * * * * * * * * * * * * * * * * * * * * * * * * * * * * * * //

dimensions      [0 -1 0 1 0 0 0];

internalField   nonuniform List<scalar> 
4000
(
1243.0949
1243.1089
1243.0941
1243.0902
1243.0891
1243.0895
1243.0913
1243.0937
1243.0959
1243.096
1243.1089
1243.109
1243.0965
1243.093
1243.0919
1243.0925
1243.0944
1243.0975
1243.1007
1243.1004
1243.0941
1243.0965
1243.0845
1243.0812
1243.0803
1243.0809
1243.0831
1243.0866
1243.0914
1243.0937
1243.0902
1243.093
1243.0812
1243.078
1243.0772
1243.0779
1243.0802
1243.0839
1243.0889
1243.0915
1243.0891
1243.0919
1243.0803
1243.0772
1243.0764
1243.0773
1243.0796
1243.0834
1243.0885
1243.091
1243.0895
1243.0925
1243.0809
1243.0779
1243.0773
1243.0782
1243.0805
1243.0844
1243.0895
1243.092
1243.0913
1243.0944
1243.0831
1243.0802
1243.0796
1243.0805
1243.0829
1243.0868
1243.0919
1243.0945
1243.0937
1243.0975
1243.0866
1243.0839
1243.0834
1243.0844
1243.0868
1243.0907
1243.0957
1243.0982
1243.0959
1243.1007
1243.0914
1243.0889
1243.0885
1243.0895
1243.0919
1243.0957
1243.1007
1243.103
1243.096
1243.1004
1243.0937
1243.0915
1243.091
1243.092
1243.0945
1243.0982
1243.103
1243.1048
2439.6714
2439.6829
2439.6611
2439.6544
2439.6526
2439.6536
2439.6571
2439.6623
2439.6672
2439.665
2439.6829
2439.6792
2439.66
2439.6539
2439.6522
2439.6534
2439.6573
2439.6637
2439.6717
2439.6698
2439.6611
2439.66
2439.6416
2439.6359
2439.6344
2439.6358
2439.6399
2439.6473
2439.658
2439.6603
2439.6544
2439.6539
2439.6359
2439.6304
2439.6291
2439.6306
2439.6349
2439.6425
2439.6536
2439.6564
2439.6526
2439.6522
2439.6344
2439.6291
2439.6279
2439.6296
2439.634
2439.6416
2439.6528
2439.6557
2439.6536
2439.6534
2439.6358
2439.6306
2439.6296
2439.6313
2439.6358
2439.6435
2439.6548
2439.6576
2439.6571
2439.6573
2439.6399
2439.6349
2439.634
2439.6358
2439.6404
2439.6481
2439.6594
2439.6623
2439.6623
2439.6637
2439.6473
2439.6425
2439.6416
2439.6435
2439.6481
2439.6558
2439.6671
2439.6698
2439.6672
2439.6717
2439.658
2439.6536
2439.6528
2439.6548
2439.6594
2439.6671
2439.678
2439.6802
2439.665
2439.6698
2439.6603
2439.6564
2439.6557
2439.6576
2439.6623
2439.6698
2439.6802
2439.6792
2234.0119
2234.0102
2233.9957
2233.9915
2233.9908
2233.9922
2233.9957
2234.0014
2234.0081
2234.0062
2234.0102
2234.002
2233.9893
2233.9856
2233.9849
2233.9864
2233.9901
2233.9969
2234.0075
2234.0073
2233.9957
2233.9893
2233.9773
2233.9739
2233.9733
2233.9749
2233.9787
2233.9859
2233.9985
2234.0014
2233.9915
2233.9856
2233.9739
2233.9706
2233.9701
2233.9718
2233.9756
2233.9829
2233.9957
2233.9988
2233.9908
2233.9849
2233.9733
2233.9701
2233.9698
2233.9715
2233.9754
2233.9826
2233.9955
2233.9986
2233.9922
2233.9864
2233.9749
2233.9718
2233.9715
2233.9732
2233.9771
2233.9844
2233.9973
2234.0004
2233.9957
2233.9901
2233.9787
2233.9756
2233.9754
2233.9771
2233.9811
2233.9884
2234.0013
2234.0045
2234.0014
2233.9969
2233.9859
2233.9829
2233.9826
2233.9844
2233.9884
2233.9958
2234.0087
2234.0119
2234.0081
2234.0075
2233.9985
2233.9957
2233.9955
2233.9973
2234.0013
2234.0087
2234.0215
2234.0241
2234.0062
2234.0073
2234.0014
2233.9988
2233.9986
2234.0004
2234.0045
2234.0119
2234.0241
2234.02
2054.4595
2054.4558
2054.445
2054.4431
2054.4434
2054.4451
2054.4485
2054.4543
2054.4627
2054.4643
2054.4558
2054.4481
2054.4392
2054.4376
2054.438
2054.4397
2054.4431
2054.4495
2054.4611
2054.4643
2054.445
2054.4392
2054.431
2054.4296
2054.43
2054.4317
2054.435
2054.4415
2054.4546
2054.4601
2054.4431
2054.4376
2054.4296
2054.4283
2054.4287
2054.4304
2054.4337
2054.44
2054.4531
2054.4586
2054.4434
2054.438
2054.43
2054.4287
2054.4292
2054.4308
2054.434
2054.4403
2054.4533
2054.4588
2054.4451
2054.4397
2054.4317
2054.4304
2054.4308
2054.4325
2054.4357
2054.4419
2054.455
2054.4604
2054.4485
2054.4431
2054.435
2054.4337
2054.434
2054.4357
2054.4389
2054.4452
2054.4583
2054.4639
2054.4543
2054.4495
2054.4415
2054.44
2054.4403
2054.4419
2054.4452
2054.4517
2054.4649
2054.4707
2054.4627
2054.4611
2054.4546
2054.4531
2054.4533
2054.455
2054.4583
2054.4649
2054.4784
2054.4839
2054.4643
2054.4643
2054.4601
2054.4586
2054.4588
2054.4604
2054.4639
2054.4707
2054.4839
2054.4814
1894.3944
1894.3906
1894.383
1894.3828
1894.384
1894.3859
1894.3888
1894.3938
1894.4018
1894.4049
1894.3906
1894.3842
1894.3784
1894.3786
1894.3797
1894.3815
1894.3843
1894.3896
1894.4001
1894.4048
1894.383
1894.3784
1894.3732
1894.3735
1894.3747
1894.3763
1894.3789
1894.384
1894.3955
1894.4019
1894.3828
1894.3786
1894.3735
1894.3739
1894.375
1894.3766
1894.3789
1894.3837
1894.3951
1894.4013
1894.384
1894.3797
1894.3747
1894.375
1894.3761
1894.3776
1894.3798
1894.3845
1894.3956
1894.4018
1894.3859
1894.3815
1894.3763
1894.3766
1894.3776
1894.379
1894.3812
1894.3858
1894.3969
1894.403
1894.3888
1894.3843
1894.3789
1894.3789
1894.3798
1894.3812
1894.3834
1894.388
1894.3993
1894.4056
1894.3938
1894.3896
1894.384
1894.3837
1894.3845
1894.3858
1894.388
1894.3928
1894.4044
1894.4111
1894.4018
1894.4001
1894.3955
1894.3951
1894.3956
1894.3969
1894.3993
1894.4044
1894.4165
1894.4235
1894.4049
1894.4048
1894.4019
1894.4013
1894.4018
1894.403
1894.4056
1894.4111
1894.4235
1894.4231
1749.5393
1749.5362
1749.5315
1749.5327
1749.5345
1749.5363
1749.5386
1749.5423
1749.5489
1749.5522
1749.5362
1749.5315
1749.5284
1749.5299
1749.5317
1749.5333
1749.5353
1749.539
1749.5475
1749.5522
1749.5315
1749.5284
1749.5258
1749.5275
1749.5291
1749.5306
1749.5322
1749.5355
1749.5446
1749.5505
1749.5327
1749.5299
1749.5275
1749.5291
1749.5307
1749.532
1749.5333
1749.5362
1749.5449
1749.5506
1749.5345
1749.5317
1749.5291
1749.5307
1749.5322
1749.5333
1749.5345
1749.5371
1749.5456
1749.5512
1749.5363
1749.5333
1749.5306
1749.532
1749.5333
1749.5344
1749.5354
1749.538
1749.5465
1749.5519
1749.5386
1749.5353
1749.5322
1749.5333
1749.5345
1749.5354
1749.5365
1749.5391
1749.5477
1749.5533
1749.5423
1749.539
1749.5355
1749.5362
1749.5371
1749.538
1749.5391
1749.542
1749.551
1749.5572
1749.5489
1749.5475
1749.5446
1749.5449
1749.5456
1749.5465
1749.5477
1749.551
1749.5607
1749.5677
1749.5522
1749.5522
1749.5505
1749.5506
1749.5512
1749.5519
1749.5533
1749.5572
1749.5677
1749.5684
1617.0049
1617.0027
1617.0006
1617.0029
1617.0051
1617.0066
1617.008
1617.0102
1617.015
1617.0178
1617.0027
1616.9998
1616.999
1617.0016
1617.0037
1617.005
1617.006
1617.008
1617.0142
1617.0181
1617.0006
1616.999
1616.9987
1617.0013
1617.0033
1617.0044
1617.0049
1617.0064
1617.0127
1617.0174
1617.0029
1617.0016
1617.0013
1617.0039
1617.0057
1617.0066
1617.0068
1617.0077
1617.0136
1617.018
1617.0051
1617.0037
1617.0033
1617.0057
1617.0074
1617.0081
1617.0081
1617.0087
1617.0143
1617.0185
1617.0066
1617.005
1617.0044
1617.0066
1617.0081
1617.0086
1617.0085
1617.009
1617.0146
1617.0187
1617.008
1617.006
1617.0049
1617.0068
1617.0081
1617.0085
1617.0083
1617.0089
1617.0146
1617.0189
1617.0102
1617.008
1617.0064
1617.0077
1617.0087
1617.009
1617.0089
1617.0098
1617.0159
1617.0209
1617.015
1617.0142
1617.0127
1617.0136
1617.0143
1617.0146
1617.0146
1617.0159
1617.0229
1617.029
1617.0178
1617.0181
1617.0174
1617.018
1617.0185
1617.0187
1617.0189
1617.0209
1617.029
1617.03
1494.7661
1494.7649
1494.7649
1494.768
1494.7703
1494.7715
1494.7719
1494.7727
1494.7755
1494.7774
1494.7649
1494.7636
1494.7648
1494.768
1494.7702
1494.7711
1494.7712
1494.7715
1494.7752
1494.778
1494.7649
1494.7648
1494.7662
1494.7695
1494.7716
1494.7722
1494.7717
1494.7714
1494.775
1494.7782
1494.768
1494.768
1494.7695
1494.7727
1494.7746
1494.775
1494.7741
1494.7732
1494.7762
1494.779
1494.7703
1494.7702
1494.7716
1494.7746
1494.7763
1494.7765
1494.7753
1494.7741
1494.7768
1494.7794
1494.7715
1494.7711
1494.7722
1494.775
1494.7765
1494.7764
1494.7752
1494.7738
1494.7765
1494.779
1494.7719
1494.7712
1494.7717
1494.7741
1494.7753
1494.7752
1494.7738
1494.7726
1494.7754
1494.7781
1494.7727
1494.7715
1494.7714
1494.7732
1494.7741
1494.7738
1494.7726
1494.7715
1494.7748
1494.7782
1494.7755
1494.7752
1494.775
1494.7762
1494.7768
1494.7765
1494.7754
1494.7748
1494.779
1494.7837
1494.7774
1494.778
1494.7782
1494.779
1494.7794
1494.779
1494.7781
1494.7782
1494.7837
1494.7845
1381.3602
1381.36
1381.3617
1381.3653
1381.3676
1381.3682
1381.3678
1381.3671
1381.3682
1381.3691
1381.36
1381.3601
1381.3627
1381.3664
1381.3686
1381.369
1381.3681
1381.3669
1381.3684
1381.3699
1381.3617
1381.3627
1381.3656
1381.3692
1381.3712
1381.3713
1381.3699
1381.368
1381.3691
1381.3707
1381.3653
1381.3664
1381.3692
1381.3727
1381.3745
1381.3744
1381.3726
1381.3701
1381.3706
1381.3718
1381.3676
1381.3686
1381.3712
1381.3745
1381.3761
1381.3757
1381.3736
1381.3708
1381.371
1381.3719
1381.3682
1381.369
1381.3713
1381.3744
1381.3757
1381.3752
1381.3729
1381.3699
1381.37
1381.3709
1381.3678
1381.3681
1381.3699
1381.3726
1381.3736
1381.3729
1381.3706
1381.3676
1381.3679
1381.3689
1381.3671
1381.3669
1381.368
1381.3701
1381.3708
1381.3699
1381.3676
1381.3649
1381.3657
1381.3674
1381.3682
1381.3684
1381.3691
1381.3706
1381.371
1381.37
1381.3679
1381.3657
1381.3673
1381.3705
1381.3691
1381.3699
1381.3707
1381.3718
1381.3719
1381.3709
1381.3689
1381.3674
1381.3705
1381.3707
1275.704
1275.7046
1275.7076
1275.7114
1275.7135
1275.7137
1275.7125
1275.7106
1275.71
1275.71
1275.7046
1275.7059
1275.7096
1275.7134
1275.7154
1275.7154
1275.7136
1275.7111
1275.7107
1275.711
1275.7076
1275.7096
1275.7134
1275.7172
1275.7189
1275.7186
1275.7164
1275.7131
1275.7121
1275.7123
1275.7114
1275.7134
1275.7172
1275.7208
1275.7224
1275.7217
1275.7191
1275.7153
1275.7136
1275.7134
1275.7135
1275.7154
1275.7189
1275.7224
1275.7237
1275.7228
1275.7199
1275.7158
1275.7138
1275.7133
1275.7137
1275.7154
1275.7186
1275.7217
1275.7228
1275.7218
1275.7187
1275.7144
1275.7124
1275.7118
1275.7125
1275.7136
1275.7164
1275.7191
1275.7199
1275.7187
1275.7155
1275.7113
1275.7093
1275.7089
1275.7106
1275.7111
1275.7131
1275.7153
1275.7158
1275.7144
1275.7113
1275.7072
1275.7057
1275.706
1275.71
1275.7107
1275.7121
1275.7136
1275.7138
1275.7124
1275.7093
1275.7057
1275.7052
1275.7068
1275.71
1275.711
1275.7123
1275.7134
1275.7133
1275.7118
1275.7089
1275.706
1275.7068
1275.7064
1176.9774
1176.9785
1176.9825
1176.9863
1176.9881
1176.9879
1176.9859
1176.9831
1176.9812
1176.9803
1176.9785
1176.9807
1176.9852
1176.9889
1176.9906
1176.9901
1176.9877
1176.9842
1176.9821
1176.9814
1176.9825
1176.9852
1176.9896
1176.9933
1176.9948
1176.994
1176.9911
1176.9869
1176.9841
1176.983
1176.9863
1176.9889
1176.9933
1176.9968
1176.9981
1176.997
1176.9938
1176.989
1176.9856
1176.9841
1176.9881
1176.9906
1176.9948
1176.9981
1176.9991
1176.9978
1176.9943
1176.9892
1176.9855
1176.9838
1176.9879
1176.9901
1176.994
1176.997
1176.9978
1176.9964
1176.9927
1176.9874
1176.9836
1176.9818
1176.9859
1176.9877
1176.9911
1176.9938
1176.9943
1176.9927
1176.9889
1176.9837
1176.98
1176.9783
1176.9831
1176.9842
1176.9869
1176.989
1176.9892
1176.9874
1176.9837
1176.9786
1176.9753
1176.9742
1176.9812
1176.9821
1176.9841
1176.9856
1176.9855
1176.9836
1176.98
1176.9753
1176.9729
1176.9732
1176.9803
1176.9814
1176.983
1176.9841
1176.9838
1176.9818
1176.9783
1176.9742
1176.9732
1176.9722
1084.5468
1084.5483
1084.5529
1084.5566
1084.558
1084.5574
1084.5549
1084.5514
1084.5484
1084.5469
1084.5483
1084.5511
1084.556
1084.5595
1084.5609
1084.56
1084.5571
1084.5529
1084.5495
1084.5479
1084.5529
1084.556
1084.5608
1084.5642
1084.5654
1084.5642
1084.5609
1084.556
1084.5518
1084.5497
1084.5566
1084.5595
1084.5642
1084.5675
1084.5684
1084.567
1084.5633
1084.5579
1084.5532
1084.5507
1084.558
1084.5609
1084.5654
1084.5684
1084.5691
1084.5675
1084.5636
1084.5579
1084.5529
1084.5502
1084.5574
1084.56
1084.5642
1084.567
1084.5675
1084.5657
1084.5616
1084.5558
1084.5507
1084.5479
1084.5549
1084.5571
1084.5609
1084.5633
1084.5636
1084.5616
1084.5574
1084.5516
1084.5466
1084.5439
1084.5514
1084.5529
1084.556
1084.5579
1084.5579
1084.5558
1084.5516
1084.5459
1084.5412
1084.5391
1084.5484
1084.5495
1084.5518
1084.5532
1084.5529
1084.5507
1084.5466
1084.5412
1084.5374
1084.5364
1084.5469
1084.5479
1084.5497
1084.5507
1084.5502
1084.5479
1084.5439
1084.5391
1084.5364
1084.535
997.91344
997.91511
997.92013
997.92342
997.92452
997.92354
997.92071
997.91666
997.9129
997.91091
997.91511
997.91832
997.92336
997.92655
997.92754
997.92635
997.92315
997.91844
997.91408
997.91188
997.92013
997.92336
997.92829
997.93134
997.93215
997.93072
997.92712
997.92178
997.91665
997.91379
997.92342
997.92655
997.93134
997.93422
997.93483
997.93317
997.92925
997.92347
997.91785
997.91461
997.92452
997.92754
997.93215
997.93483
997.93526
997.93339
997.92924
997.9232
997.91733
997.9139
997.92354
997.92635
997.93072
997.93317
997.93339
997.93134
997.92704
997.92088
997.91491
997.91143
997.92071
997.92315
997.92712
997.92925
997.92924
997.92704
997.92266
997.91649
997.91058
997.90719
997.91666
997.91844
997.92178
997.92347
997.9232
997.92088
997.91649
997.91044
997.90482
997.90186
997.9129
997.91408
997.91665
997.91785
997.91733
997.91491
997.91058
997.90482
997.8999
997.89806
997.91091
997.91188
997.91379
997.91461
997.9139
997.91143
997.90719
997.90186
997.89806
997.89622
916.67696
916.67867
916.68384
916.68673
916.68747
916.68622
916.68318
916.67885
916.67459
916.67229
916.67867
916.68207
916.6871
916.68985
916.69048
916.68906
916.68569
916.68076
916.67576
916.67312
916.68384
916.6871
916.69196
916.69457
916.69504
916.6934
916.68969
916.6842
916.67843
916.67505
916.68673
916.68985
916.69457
916.69701
916.69731
916.69547
916.69149
916.68562
916.67943
916.67572
916.68747
916.69048
916.69504
916.69731
916.69743
916.69541
916.69123
916.68514
916.67873
916.67487
916.68622
916.68906
916.6934
916.69547
916.69541
916.69323
916.68891
916.68271
916.67622
916.67231
916.68318
916.68569
916.68969
916.69149
916.69123
916.68891
916.68452
916.6783
916.67185
916.668
916.67885
916.68076
916.6842
916.68562
916.68514
916.68271
916.6783
916.67218
916.66596
916.66246
916.67459
916.67576
916.67843
916.67943
916.67873
916.67622
916.67185
916.66596
916.66031
916.65778
916.67229
916.67312
916.67505
916.67572
916.67487
916.67231
916.668
916.66246
916.65778
916.65571
840.50971
840.51132
840.51649
840.51891
840.51931
840.51787
840.51475
840.51034
840.50581
840.50335
840.51132
840.51476
840.51961
840.5219
840.52219
840.52061
840.51721
840.51226
840.50689
840.50401
840.51649
840.51961
840.52427
840.5264
840.52656
840.52479
840.52112
840.51569
840.50958
840.5059
840.51891
840.5219
840.5264
840.52839
840.52839
840.52646
840.52256
840.51683
840.51037
840.50642
840.51931
840.52219
840.52656
840.52839
840.52824
840.52615
840.52209
840.51618
840.50955
840.50547
840.51787
840.52061
840.52479
840.52646
840.52615
840.52393
840.51975
840.51375
840.50704
840.50292
840.51475
840.51721
840.52112
840.52256
840.52209
840.51975
840.51551
840.50947
840.50279
840.49871
840.51034
840.51226
840.51569
840.51683
840.51618
840.51375
840.50947
840.5035
840.49699
840.49318
840.50581
840.50689
840.50958
840.51037
840.50955
840.50704
840.50279
840.49699
840.49093
840.48793
840.50335
840.50401
840.5059
840.50642
840.50547
840.50292
840.49871
840.49318
840.48793
840.48577
769.13776
769.13918
769.14422
769.14616
769.14624
769.14468
769.1416
769.13728
769.13268
769.1302
769.13918
769.14253
769.14711
769.1489
769.14889
769.14722
769.14392
769.13912
769.13362
769.13066
769.14422
769.14711
769.15146
769.15311
769.15298
769.15117
769.14765
769.14246
769.13626
769.13247
769.14616
769.1489
769.15311
769.15463
769.15437
769.15242
769.14874
769.14332
769.13685
769.13283
769.14624
769.14889
769.15298
769.15437
769.15399
769.15191
769.1481
769.14255
769.13594
769.13183
769.14468
769.14722
769.15117
769.15242
769.15191
769.14973
769.14582
769.14019
769.13352
769.12938
769.1416
769.14392
769.14765
769.14874
769.1481
769.14582
769.14185
769.13619
769.12952
769.12541
769.13728
769.13912
769.14246
769.14332
769.14255
769.14019
769.13619
769.13057
769.12401
769.12009
769.13268
769.13362
769.13626
769.13685
769.13594
769.13352
769.12952
769.12401
769.11779
769.11451
769.1302
769.13066
769.13247
769.13283
769.13183
769.12938
769.12541
769.12009
769.11451
769.11238
702.32702
702.3282
702.333
702.33447
702.33427
702.33266
702.32971
702.32561
702.3211
702.31871
702.3282
702.33135
702.33559
702.3369
702.33662
702.33493
702.33182
702.32731
702.32186
702.31896
702.333
702.33559
702.33958
702.34076
702.34038
702.33859
702.33532
702.33051
702.32441
702.32066
702.33447
702.3369
702.34076
702.34182
702.34134
702.33944
702.33606
702.3311
702.32481
702.32089
702.33427
702.33662
702.34038
702.34134
702.34076
702.33878
702.3353
702.33025
702.32386
702.31988
702.33266
702.33493
702.33859
702.33944
702.33878
702.3367
702.33316
702.32804
702.32161
702.31761
702.32971
702.33182
702.33532
702.33606
702.3353
702.33316
702.32956
702.32442
702.31797
702.31398
702.32561
702.32731
702.33051
702.3311
702.33025
702.32804
702.32442
702.31928
702.31289
702.30901
702.3211
702.32186
702.32441
702.32481
702.32386
702.32161
702.31797
702.31289
702.30673
702.30332
702.31871
702.31896
702.32066
702.32089
702.31988
702.31761
702.31398
702.30901
702.30332
702.30133
639.87277
639.87365
639.87816
639.87918
639.87873
639.87713
639.8744
639.87062
639.86632
639.86411
639.87365
639.87654
639.88039
639.88125
639.88075
639.8791
639.87625
639.87213
639.86689
639.86414
639.87816
639.88039
639.88398
639.88472
639.88414
639.88242
639.87949
639.87516
639.86931
639.86572
639.87918
639.88125
639.88472
639.88535
639.8847
639.88291
639.87991
639.8755
639.86954
639.86584
639.87873
639.88075
639.88414
639.8847
639.88398
639.88213
639.87907
639.87461
639.86859
639.86486
639.87713
639.8791
639.88242
639.88291
639.88213
639.88022
639.87712
639.87261
639.86656
639.86282
639.8744
639.87625
639.87949
639.87991
639.87907
639.87712
639.87397
639.86943
639.86336
639.85961
639.87062
639.87213
639.87516
639.8755
639.87461
639.87261
639.86943
639.86488
639.85882
639.8551
639.86632
639.86689
639.86931
639.86954
639.86859
639.86656
639.86336
639.85882
639.85287
639.84948
639.86411
639.86414
639.86572
639.86584
639.86486
639.86282
639.85961
639.8551
639.84948
639.8477
581.59171
581.59227
581.59645
581.59704
581.59641
581.59486
581.5924
581.58901
581.58502
581.58305
581.59227
581.59486
581.59831
581.59874
581.59806
581.59649
581.59397
581.59032
581.58538
581.58287
581.59645
581.59831
581.60149
581.60181
581.60108
581.59948
581.59692
581.59314
581.58767
581.58433
581.59704
581.59874
581.60181
581.60206
581.60127
581.59964
581.59706
581.59327
581.58775
581.58435
581.59641
581.59806
581.60108
581.60127
581.60045
581.59878
581.59618
581.59237
581.58684
581.58344
581.59486
581.59649
581.59948
581.59964
581.59878
581.59708
581.59446
581.59062
581.58507
581.58167
581.5924
581.59397
581.59692
581.59706
581.59618
581.59446
581.59181
581.58794
581.58236
581.57893
581.58901
581.59032
581.59314
581.59327
581.59237
581.59062
581.58794
581.58404
581.57843
581.57497
581.58502
581.58538
581.58767
581.58775
581.58684
581.58507
581.58236
581.57843
581.57282
581.56953
581.58305
581.58287
581.58433
581.58435
581.58344
581.58167
581.57893
581.57497
581.56953
581.56803
527.316
527.31623
527.32007
527.32028
527.31949
527.31804
527.31588
527.31293
527.30932
527.30763
527.31623
527.31851
527.32155
527.3216
527.32079
527.31934
527.31717
527.31402
527.30948
527.30726
527.32007
527.32155
527.32432
527.32428
527.32343
527.32198
527.31984
527.31664
527.31162
527.30859
527.32028
527.3216
527.32428
527.32418
527.3233
527.32185
527.31973
527.31658
527.31158
527.30854
527.31949
527.32079
527.32343
527.3233
527.32241
527.32096
527.31885
527.31572
527.31073
527.30773
527.31804
527.31934
527.32198
527.32185
527.32096
527.3195
527.31738
527.31425
527.30926
527.30625
527.31588
527.31717
527.31984
527.31973
527.31885
527.31738
527.31525
527.31208
527.30706
527.30401
527.31293
527.31402
527.31664
527.31658
527.31572
527.31425
527.31208
527.30887
527.30377
527.30064
527.30932
527.30948
527.31162
527.31158
527.31073
527.30926
527.30706
527.30377
527.29859
527.29549
527.30763
527.30726
527.30859
527.30854
527.30773
527.30625
527.30401
527.30064
527.29549
527.29429
476.88872
476.88864
476.89213
476.892
476.8911
476.88977
476.88795
476.88546
476.88226
476.88088
476.88864
476.89059
476.89324
476.89296
476.89205
476.89075
476.88896
476.88633
476.88223
476.88034
476.89213
476.89324
476.89562
476.89526
476.89433
476.89306
476.89134
476.88874
476.88422
476.88154
476.892
476.89296
476.89526
476.89486
476.89393
476.89269
476.89103
476.88853
476.88409
476.88145
476.8911
476.89205
476.89433
476.89393
476.89301
476.89179
476.89017
476.88772
476.88333
476.88074
476.88977
476.89075
476.89306
476.89269
476.89179
476.89059
476.88898
476.88654
476.88216
476.87957
476.88795
476.88896
476.89134
476.89103
476.89017
476.88898
476.88737
476.88491
476.88048
476.87784
476.88546
476.88633
476.88874
476.88853
476.88772
476.88654
476.88491
476.88238
476.87784
476.87507
476.88226
476.88223
476.88422
476.88409
476.88333
476.88216
476.88048
476.87784
476.87315
476.87028
476.88088
476.88034
476.88154
476.88145
476.88074
476.87957
476.87784
476.87507
476.87028
476.86941
430.16052
430.16015
430.16329
430.16288
430.1619
430.16072
430.15923
430.15721
430.15444
430.15337
430.16015
430.16177
430.16405
430.16349
430.16252
430.16138
430.15998
430.15787
430.15423
430.15268
430.16329
430.16405
430.16606
430.16544
430.16447
430.16339
430.16209
430.16008
430.15608
430.15377
430.16288
430.16349
430.16544
430.16479
430.16384
430.16282
430.16161
430.15975
430.15588
430.15365
430.1619
430.16252
430.16447
430.16384
430.16292
430.16194
430.1608
430.15902
430.15523
430.15307
430.16072
430.16138
430.16339
430.16282
430.16194
430.16099
430.15989
430.15813
430.15436
430.15221
430.15923
430.15998
430.16209
430.16161
430.1608
430.15989
430.15878
430.15701
430.15319
430.15098
430.15721
430.15787
430.16008
430.15975
430.15902
430.15813
430.15701
430.15515
430.1512
430.14881
430.15444
430.15423
430.15608
430.15588
430.15523
430.15436
430.15319
430.1512
430.14701
430.14441
430.15337
430.15268
430.15377
430.15365
430.15307
430.15221
430.15098
430.14881
430.14441
430.14388
386.98713
386.9865
386.98931
386.98866
386.98764
386.98661
386.98547
386.9839
386.98156
386.9808
386.9865
386.98782
386.98975
386.98896
386.98795
386.987
386.98596
386.98437
386.98119
386.97998
386.98931
386.98975
386.99143
386.99059
386.9896
386.98872
386.98783
386.98638
386.9829
386.98097
386.98866
386.98896
386.99059
386.98974
386.98879
386.98798
386.98722
386.98596
386.98266
386.98083
386.98764
386.98795
386.9896
386.98879
386.98789
386.98715
386.98647
386.98532
386.98212
386.98039
386.98661
386.987
386.98872
386.98798
386.98715
386.98647
386.98584
386.98473
386.98155
386.97984
386.98547
386.98596
386.98783
386.98722
386.98647
386.98584
386.98522
386.98409
386.98087
386.97908
386.9839
386.98437
386.98638
386.98596
386.98532
386.98473
386.98409
386.98287
386.97949
386.97749
386.98156
386.98119
386.9829
386.98266
386.98212
386.98155
386.98087
386.97949
386.97582
386.97351
386.9808
386.97998
386.98097
386.98083
386.98039
386.97984
386.97908
386.97749
386.97351
386.9733
347.22773
347.22686
347.22937
347.22852
347.22748
347.22662
347.2258
347.22466
347.22275
347.22229
347.22686
347.2279
347.22952
347.22854
347.22753
347.22675
347.22607
347.22496
347.22224
347.22136
347.22937
347.22952
347.2309
347.22988
347.2289
347.22822
347.22772
347.2268
347.22383
347.22226
347.22852
347.22854
347.22988
347.22887
347.22795
347.22736
347.22701
347.22631
347.22355
347.22212
347.22748
347.22753
347.2289
347.22795
347.22709
347.22659
347.22634
347.22577
347.22314
347.22181
347.22662
347.22675
347.22822
347.22736
347.22659
347.22616
347.22597
347.22545
347.22286
347.22155
347.2258
347.22607
347.22772
347.22701
347.22634
347.22597
347.2258
347.22527
347.22262
347.22124
347.22466
347.22496
347.2268
347.22631
347.22577
347.22545
347.22527
347.22465
347.22182
347.22019
347.22275
347.22224
347.22383
347.22355
347.22314
347.22286
347.22262
347.22182
347.21865
347.21663
347.22229
347.22136
347.22226
347.22212
347.22181
347.22155
347.22124
347.22019
347.21663
347.21673
310.74383
310.74276
310.74499
310.74399
310.74296
310.74226
310.74175
310.74102
310.7395
310.73931
310.74276
310.74355
310.74489
310.74377
310.74278
310.74218
310.74182
310.74116
310.73888
310.73829
310.74499
310.74489
310.74601
310.74485
310.74391
310.74342
310.74326
310.74283
310.74034
310.73912
310.74399
310.74377
310.74485
310.74372
310.74284
310.74247
310.74249
310.74231
310.74006
310.73899
310.74296
310.74278
310.74391
310.74284
310.74204
310.74176
310.7419
310.74187
310.73976
310.73882
310.74226
310.74218
310.74342
310.74247
310.74176
310.74157
310.74178
310.7418
310.73975
310.73882
310.74175
310.74182
310.74326
310.74249
310.7419
310.74178
310.74202
310.74203
310.73992
310.73892
310.74102
310.74116
310.74283
310.74231
310.74187
310.7418
310.74203
310.74195
310.73964
310.73837
310.7395
310.73888
310.74034
310.74006
310.73976
310.73975
310.73992
310.73964
310.73695
310.73521
310.73931
310.73829
310.73912
310.73899
310.73882
310.73882
310.73892
310.73837
310.73521
310.73559
277.39881
277.39757
277.39954
277.39843
277.39743
277.39689
277.39665
277.39629
277.39514
277.3952
277.39757
277.39813
277.39923
277.39801
277.39704
277.39661
277.39656
277.39629
277.39443
277.39412
277.39954
277.39923
277.40011
277.39886
277.39796
277.39766
277.39782
277.39782
277.39579
277.39488
277.39843
277.39801
277.39886
277.39765
277.39682
277.39664
277.397
277.39727
277.3955
277.39477
277.39743
277.39704
277.39796
277.39682
277.39609
277.39602
277.3965
277.39694
277.39533
277.39472
277.39689
277.39661
277.39766
277.39664
277.39602
277.39604
277.39661
277.39711
277.39555
277.39497
277.39665
277.39656
277.39782
277.397
277.3965
277.39661
277.39721
277.39771
277.39609
277.39543
277.39629
277.39629
277.39782
277.39727
277.39694
277.39711
277.39771
277.3981
277.39627
277.39533
277.39514
277.39443
277.39579
277.3955
277.39533
277.39555
277.39609
277.39627
277.39404
277.39257
277.3952
277.39412
277.39488
277.39477
277.39472
277.39497
277.39543
277.39533
277.39257
277.3932
247.05776
247.05639
247.05814
247.05694
247.05598
247.0556
247.05561
247.05558
247.05476
247.05504
247.05639
247.05676
247.05765
247.05635
247.05543
247.05516
247.05537
247.05547
247.05398
247.05393
247.05814
247.05765
247.05833
247.05702
247.05617
247.05604
247.05648
247.05686
247.05524
247.05462
247.05694
247.05635
247.05702
247.05575
247.05499
247.05499
247.05564
247.05631
247.05497
247.05454
247.05598
247.05543
247.05617
247.05499
247.05432
247.05444
247.05523
247.05608
247.05491
247.05461
247.0556
247.05516
247.05604
247.05499
247.05444
247.05466
247.05554
247.05646
247.05534
247.05508
247.05561
247.05537
247.05648
247.05564
247.05523
247.05554
247.05646
247.05738
247.0562
247.05586
247.05558
247.05547
247.05686
247.05631
247.05608
247.05646
247.05738
247.05819
247.0568
247.05615
247.05476
247.05398
247.05524
247.05497
247.05491
247.05534
247.0562
247.0568
247.05498
247.05376
247.05504
247.05393
247.05462
247.05454
247.05461
247.05508
247.05586
247.05615
247.05376
247.05461
219.58785
219.58638
219.58793
219.58669
219.58578
219.58553
219.58577
219.58603
219.58551
219.58598
219.58638
219.58658
219.5873
219.58595
219.58509
219.58497
219.58542
219.58582
219.58467
219.58484
219.58793
219.5873
219.58781
219.58647
219.58568
219.5857
219.58639
219.5871
219.58585
219.58549
219.58669
219.58595
219.58647
219.58517
219.58447
219.58463
219.58554
219.58656
219.5856
219.58544
219.58578
219.58509
219.58568
219.58447
219.58388
219.58417
219.58522
219.58642
219.58564
219.58562
219.58553
219.58497
219.5857
219.58463
219.58417
219.58456
219.58571
219.58699
219.58627
219.58628
219.58577
219.58542
219.58639
219.58554
219.58522
219.58571
219.58691
219.58818
219.5874
219.58733
219.58603
219.58582
219.5871
219.58656
219.58642
219.58699
219.58818
219.58934
219.58835
219.58796
219.58551
219.58467
219.58585
219.5856
219.58564
219.58627
219.5874
219.58835
219.5869
219.58592
219.58598
219.58484
219.58549
219.58544
219.58562
219.58628
219.58733
219.58796
219.58592
219.58695
194.85888
194.85733
194.85871
194.85744
194.85659
194.85648
194.85692
194.85742
194.85717
194.85781
194.85733
194.8574
194.85796
194.8566
194.8558
194.85581
194.85647
194.85714
194.8563
194.85666
194.85871
194.85796
194.85834
194.85698
194.85626
194.85642
194.85733
194.85832
194.8574
194.85727
194.85744
194.8566
194.85698
194.85568
194.85506
194.85536
194.85649
194.85779
194.85718
194.85725
194.85659
194.8558
194.85626
194.85506
194.85454
194.85498
194.85626
194.85775
194.85731
194.85752
194.85648
194.85581
194.85642
194.85536
194.85498
194.85553
194.8569
194.85848
194.8581
194.85835
194.85692
194.85647
194.85733
194.85649
194.85626
194.8569
194.85833
194.8599
194.85947
194.85963
194.85742
194.85714
194.85832
194.85779
194.85775
194.85848
194.8599
194.86136
194.86071
194.86056
194.85717
194.8563
194.8574
194.85718
194.85731
194.8581
194.85947
194.86071
194.8596
194.85883
194.85781
194.85666
194.85727
194.85725
194.85752
194.85835
194.85963
194.86056
194.85883
194.86002
172.74413
172.74253
172.74377
172.74249
172.7417
172.74171
172.74232
172.74304
172.74303
172.7438
172.74253
172.74248
172.74293
172.74157
172.74084
172.74097
172.7418
172.74271
172.74213
172.74265
172.74377
172.74293
172.7432
172.74185
172.7412
172.74148
172.74257
172.7438
172.74317
172.74323
172.74249
172.74157
172.74185
172.74055
172.74
172.74044
172.74175
172.74329
172.74297
172.74324
172.7417