/*--------------------------------*- C++ -*----------------------------------*\
| =========                 |                                                 |
| \\      /  F ield         | OpenFOAM: The Open Source CFD Toolbox           |
|  \\    /   O peration     | Version:  v2106                                 |
|   \\  /    A nd           | Website:  www.openfoam.com                      |
|    \\/     M anipulation  |                                                 |
\*---------------------------------------------------------------------------*/
FoamFile
{
    version     2.0;
    format      ascii;
    arch        "LSB;label=32;scalar=64";
    class       volVectorField;
    location    "10";
    object      gradT;
}
// * * * * * * * * * * * * * * * * * * * * * * * * * * * * * * * * * * * * * //

dimensions      [0 -1 0 1 0 0 0];

internalField   nonuniform List<vector> 
4000
(
(0.0015961856 0.0015961856 1243.0949)
(0.00023876479 -3.2130653e-05 1243.1089)
(-0.0026118893 0.0002456799 1243.0941)
(-0.00059248162 0.00028268228 1243.0902)
(-8.1453638e-05 0.00029091041 1243.0891)
(0.0002630447 0.00029879065 1243.0895)
(0.00051074714 0.00031633899 1243.0913)
(0.00056896015 0.00036096604 1243.0937)
(0.00030570101 0.00044476387 1243.0959)
(2.6063736e-05 0.00045568405 1243.096)
(-3.213065e-05 0.00023876479 1243.1089)
(-0.0017869937 -0.0017869937 1243.109)
(-0.0021396699 -0.0013012753 1243.0965)
(-0.00052463586 -0.0012234973 1243.093)
(-5.7291077e-05 -0.0011972463 1243.0919)
(0.00030118757 -0.0011711487 1243.0925)
(0.00060401022 -0.0011189036 1243.0944)
(0.00076159747 -0.00098537659 1243.0975)
(0.00044777802 -0.00067905086 1243.1007)
(3.698391e-05 -0.00030433813 1243.1004)
(0.00024567991 -0.0026118893 1243.0941)
(-0.0013012753 -0.0021396699 1243.0965)
(-0.0020483929 -0.0020483929 1243.0845)
(-0.00048845264 -0.0020098265 1243.0812)
(-2.9105062e-05 -0.0019832842 1243.0803)
(0.00034138746 -0.0019575524 1243.0809)
(0.0006965193 -0.0019182571 1243.0831)
(0.0010088128 -0.0018336879 1243.0866)
(0.00098673947 -0.0016294085 1243.0914)
(0.00027587222 -0.0012512757 1243.0937)
(0.00028268228 -0.00059248162 1243.0902)
(-0.0012234973 -0.00052463587 1243.093)
(-0.0020098265 -0.00048845264 1243.0812)
(-0.0004595272 -0.0004595272 1243.078)
(-5.0169433e-06 -0.00043648293 1243.0772)
(0.00036621464 -0.00041604433 1243.0779)
(0.00072787465 -0.00039381984 1243.0802)
(0.0010504461 -0.00036656427 1243.0839)
(0.0010301903 -0.00033452682 1243.0889)
(0.00028907244 -0.00031178382 1243.0915)
(0.00029091041 -8.1453642e-05 1243.0891)
(-0.0011972463 -5.7291069e-05 1243.0919)
(-0.0019832842 -2.9105056e-05 1243.0803)
(-0.00043648294 -5.0169415e-06 1243.0772)
(1.4377808e-05 1.4377805e-05 1243.0764)
(0.00038405056 3.0463571e-05 1243.0773)
(0.00074599936 4.5311791e-05 1243.0796)
(0.0010681059 5.9812841e-05 1243.0834)
(0.0010415199 7.2194692e-05 1243.0885)
(0.00029103422 7.676221e-05 1243.091)
(0.00029879066 0.0002630447 1243.0895)
(-0.0011711487 0.00030118757 1243.0925)
(-0.0019575524 0.00034138746 1243.0809)
(-0.00041604434 0.00036621464 1243.0779)
(3.0463569e-05 0.00038405056 1243.0773)
(0.00039714862 0.00039714863 1243.0782)
(0.00075722392 0.00040712279 1243.0805)
(0.001077329 0.000414576 1243.0844)
(0.0010471396 0.0004190231 1243.0895)
(0.00029211746 0.00042009659 1243.092)
(0.00031633899 0.00051074715 1243.0913)
(-0.0011189036 0.00060401022 1243.0944)
(-0.0019182571 0.0006965193 1243.0831)
(-0.00039381984 0.00072787466 1243.0802)
(4.5311796e-05 0.00074599936 1243.0796)
(0.00040712279 0.00075722392 1243.0805)
(0.00076342673 0.00076342674 1243.0829)
(0.0010800062 0.00076463394 1243.0868)
(0.0010470405 0.00076022155 1243.0919)
(0.00029174988 0.00075354506 1243.0945)
(0.00036096604 0.00056896014 1243.0937)
(-0.00098537659 0.00076159747 1243.0975)
(-0.0018336879 0.0010088128 1243.0866)
(-0.00036656428 0.0010504461 1243.0839)
(5.9812836e-05 0.0010681059 1243.0834)
(0.000414576 0.001077329 1243.0844)
(0.00076463395 0.0010800062 1243.0868)
(0.0010741238 0.0010741239 1243.0907)
(0.0010360508 0.001055086 1243.0957)
(0.00028766646 0.0010272742 1243.0982)
(0.00044476388 0.00030570101 1243.0959)
(-0.00067905086 0.00044777802 1243.1007)
(-0.0016294085 0.00098673947 1243.0914)
(-0.00033452682 0.0010301903 1243.0889)
(7.219469e-05 0.0010415199 1243.0885)
(0.0004190231 0.0010471396 1243.0895)
(0.00076022156 0.0010470405 1243.0919)
(0.001055086 0.0010360508 1243.0957)
(0.0010001909 0.0010001909 1243.1007)
(0.00027320865 0.00092889722 1243.103)
(0.00045568405 2.6063738e-05 1243.096)
(-0.00030433813 3.6983908e-05 1243.1004)
(-0.0012512757 0.00027587223 1243.0937)
(-0.00031178382 0.00028907245 1243.0915)
(7.6762208e-05 0.00029103422 1243.091)
(0.00042009659 0.00029211746 1243.092)
(0.00075354506 0.00029174989 1243.0945)
(0.0010272742 0.00028766646 1243.0982)
(0.00092889723 0.00027320865 1243.103)
(0.00024013737 0.00024013737 1243.1048)
(0.0092398745 0.0092398745 2439.6714)
(-0.001813134 0.00023053063 2439.6829)
(-0.020132589 0.0016197221 2439.6611)
(-0.0057739389 0.001892871 2439.6544)
(-0.00079794335 0.0019703343 2439.6526)
(0.0024626049 0.0020426313 2439.6536)
(0.0047813326 0.0022046775 2439.6571)
(0.005328063 0.0026318291 2439.6623)
(0.0025168461 0.0034464365 2439.6672)
(1.5908811e-05 0.0029529331 2439.665)
(0.00023053063 -0.001813134 2439.6829)
(-0.013243363 -0.013243363 2439.6792)
(-0.017639078 -0.010554028 2439.66)
(-0.0052480206 -0.0099109006 2439.6539)
(-0.00057330295 -0.0096619924 2439.6522)
(0.0028141196 -0.0094248953 2439.6534)
(0.0056651293 -0.0089488195 2439.6573)
(0.0071907016 -0.0076934753 2439.6637)
(0.0029985022 -0.0047529573 2439.6717)
(-0.00047759456 -0.0025654025 2439.6698)
(0.0016197221 -0.020132589 2439.6611)
(-0.010554028 -0.017639078 2439.66)
(-0.016800127 -0.016800127 2439.6416)
(-0.0048819035 -0.016408066 2439.6359)
(-0.00031193796 -0.016159194 2439.6344)
(0.0031757778 -0.01592789 2439.6358)
(0.0065127525 -0.015576295 2439.6399)
(0.0095239252 -0.014797047 2439.6473)
(0.0076449189 -0.012814775 2439.658)
(0.0014742787 -0.0095989832 2439.6603)
(0.001892871 -0.0057739389 2439.6544)
(-0.0099109007 -0.0052480206 2439.6539)
(-0.016408066 -0.0048819035 2439.6359)
(-0.0046070875 -0.0046070875 2439.6304)
(-9.3127145e-05 -0.0043967368 2439.6291)
(0.0033970182 -0.0042135593 2439.6306)
(0.0067959725 -0.0040164118 2439.6349)
(0.0099522221 -0.0037699125 2439.6425)
(0.0081965658 -0.0034268472 2439.6536)
(0.0016662665 -0.0031028392 2439.6564)
(0.0019703343 -0.00079794335 2439.6526)
(-0.0096619924 -0.00057330294 2439.6522)
(-0.016159194 -0.00031193796 2439.6344)
(-0.0043967368 -9.3127147e-05 2439.6291)
(8.1590238e-05 8.1590236e-05 2439.6279)
(0.0035561029 0.00022577826 2439.6296)
(0.0069563993 0.00035798299 2439.634)
(0.01011349 0.00048632117 2439.6416)
(0.0083119922 0.0006013201 2439.6528)
(0.001690284 0.00065109586 2439.6557)
(0.0020426313 0.0024626049 2439.6536)
(-0.0094248953 0.0028141196 2439.6534)
(-0.01592789 0.0031757778 2439.6358)
(-0.0042135593 0.0033970182 2439.6306)
(0.00022577827 0.0035561028 2439.6296)
(0.0036734109 0.0036734109 2439.6313)
(0.0070565154 0.0037630829 2439.6358)
(0.010195559 0.0038300835 2439.6435)
(0.0083613405 0.0038703289 2439.6548)
(0.0016994503 0.0038796964 2439.6576)
(0.0022046775 0.0047813326 2439.6571)
(-0.0089488194 0.0056651293 2439.6573)
(-0.015576295 0.0065127525 2439.6399)
(-0.0040164118 0.0067959725 2439.6349)
(0.00035798298 0.0069563993 2439.634)
(0.0037630829 0.0070565154 2439.6358)
(0.0071130718 0.0071130718 2439.6404)
(0.010220736 0.0071252922 2439.6481)
(0.0083616051 0.0070859409 2439.6594)
(0.001696529 0.0070250235 2439.6623)
(0.0026318291 0.005328063 2439.6623)
(-0.0076934753 0.0071907016 2439.6637)
(-0.014797047 0.0095239252 2439.6473)
(-0.0037699125 0.0099522221 2439.6425)
(0.00048632118 0.01011349 2439.6416)
(0.0038300835 0.010195559 2439.6435)
(0.0071252922 0.010220736 2439.6481)
(0.010168428 0.010168428 2439.6558)
(0.0082610717 0.0099877059 2439.6671)
(0.0016588387 0.0097030386 2439.6698)
(0.0034464365 0.0025168461 2439.6672)
(-0.0047529573 0.0029985022 2439.6717)
(-0.012814775 0.0076449189 2439.658)
(-0.0034268472 0.0081965658 2439.6536)
(0.0006013201 0.0083119922 2439.6528)
(0.0038703289 0.0083613405 2439.6548)
(0.0070859409 0.0083616051 2439.6594)
(0.0099877059 0.0082610717 2439.6671)
(0.0078962155 0.0078962155 2439.678)
(0.0015067508 0.0070179877 2439.6802)
(0.0029529332 1.5908807e-05 2439.665)
(-0.0025654025 -0.00047759455 2439.6698)
(-0.0095989832 0.0014742787 2439.6603)
(-0.0031028392 0.0016662665 2439.6564)
(0.00065109585 0.001690284 2439.6557)
(0.0038796964 0.0016994503 2439.6576)
(0.0070250235 0.001696529 2439.6623)
(0.0097030386 0.0016588387 2439.6698)
(0.0070179877 0.0015067508 2439.6802)
(0.0010733535 0.0010733535 2439.6792)
(0.0092900008 0.0092900008 2234.0119)
(-0.010094646 -0.0025044822 2234.0102)
(-0.031150287 -0.00049450818 2233.9957)
(-0.0091113601 -7.6836905e-05 2233.9915)
(-0.00086334984 4.4889572e-05 2233.9908)
(0.0048156569 0.00015449269 2233.9922)
(0.0092071951 0.0004253467 2233.9957)
(0.01063061 0.0012910184 2234.0014)
(0.0030143791 0.003495423 2234.0081)
(-0.001398215 0.0036323129 2234.0062)
(-0.0025044822 -0.010094646 2234.0102)
(-0.024771409 -0.024771409 2234.002)
(-0.027508819 -0.020790734 2233.9893)
(-0.0083022634 -0.019774127 2233.9856)
(-0.00051635544 -0.019376943 2233.9849)
(0.0053863426 -0.01902198 2233.9864)
(0.010911984 -0.018283522 2233.9901)
(0.015235724 -0.016055829 2233.9969)
(0.0065263208 -0.0098848915 2234.0075)
(-0.0012613251 -0.0050435185 2234.0073)
(-0.00049450818 -0.031150287 2233.9957)
(-0.020790734 -0.027508819 2233.9893)
(-0.026153005 -0.026153005 2233.9773)
(-0.0076975684 -0.025497372 2233.9739)
(-0.00011120205 -0.025095494 2233.9733)
(0.0059090778 -0.024749834 2233.9749)
(0.012173346 -0.024250876 2233.9787)
(0.01902924 -0.023094687 2233.9859)
(0.014026689 -0.019804705 2233.9985)
(0.001829367 -0.01468306 2234.0014)
(-7.6836909e-05 -0.00911136 2233.9915)
(-0.019774127 -0.0083022634 2233.9856)
(-0.025497372 -0.0076975683 2233.9739)
(-0.0072447518 -0.0072447518 2233.9706)
(0.00023118282 -0.0069087079 2233.9701)
(0.0062309604 -0.0066307665 2233.9718)
(0.01256713 -0.006349174 2233.9756)
(0.019681895 -0.0060069462 2233.9829)
(0.014937948 -0.0054639516 2233.9957)
(0.0021531051 -0.0049256608 2233.9988)
(4.4889567e-05 -0.00086334984 2233.9908)
(-0.019376943 -0.00051635544 2233.9849)
(-0.025095494 -0.00011120205 2233.9733)
(-0.0069087079 0.00023118282 2233.9701)
(0.00050278333 0.00050278333 2233.9698)
(0.0064686117 0.00072275166 2233.9715)
(0.012797166 0.00091931682 2233.9754)
(0.019914463 0.0011053691 2233.9826)
(0.015107975 0.0012783381 2233.9955)
(0.0021882275 0.0013526851 2233.9986)
(0.0001544927 0.0048156569 2233.9922)
(-0.01902198 0.0053863426 2233.9864)
(-0.024749834 0.0059090778 2233.9749)
(-0.0066307665 0.0062309604 2233.9718)
(0.00072275165 0.0064686117 2233.9715)
(0.0066474939 0.0066474939 2233.9732)
(0.012949747 0.0067878886 2233.9771)
(0.020040916 0.0068968349 2233.9844)
(0.015185264 0.0069681758 2233.9973)
(0.0022026698 0.0069930977 2234.0004)
(0.00042534671 0.009207195 2233.9957)
(-0.018283522 0.010911984 2233.9901)
(-0.024250876 0.012173346 2233.9787)
(-0.006349174 0.01256713 2233.9756)
(0.00091931682 0.012797166 2233.9754)
(0.0067878886 0.012949747 2233.9771)
(0.013046507 0.013046507 2233.9811)
(0.02009475 0.013082321 2233.9884)
(0.015204237 0.013035144 2234.0013)
(0.0022048421 0.012946944 2234.0045)
(0.0012910184 0.01063061 2234.0014)
(-0.016055829 0.015235724 2233.9969)
(-0.023094687 0.01902924 2233.9859)
(-0.0060069462 0.019681895 2233.9829)
(0.0011053691 0.019914463 2233.9826)
(0.0068968349 0.020040916 2233.9844)
(0.013082321 0.02009475 2233.9884)
(0.020029552 0.020029552 2233.9958)
(0.015049887 0.019694264 2234.0087)
(0.00214387 0.018978025 2234.0119)
(0.003495423 0.0030143791 2234.0081)
(-0.0098848915 0.0065263208 2234.0075)
(-0.019804705 0.014026689 2233.9985)
(-0.0054639516 0.014937948 2233.9957)
(0.001278338 0.015107975 2233.9955)
(0.0069681758 0.015185264 2233.9973)
(0.013035144 0.015204237 2234.0013)
(0.019694264 0.015049887 2234.0087)
(0.01415271 0.01415271 2234.0215)
(0.0017273494 0.010309782 2234.0241)
(0.0036323129 -0.001398215 2234.0062)
(-0.0050435185 -0.0012613251 2234.0073)
(-0.01468306 0.001829367 2234.0014)
(-0.0049256608 0.0021531051 2233.9988)
(0.0013526851 0.0021882275 2233.9986)
(0.0069930977 0.0022026698 2234.0004)
(0.012946944 0.0022048421 2234.0045)
(0.018978025 0.00214387 2234.0119)
(0.010309782 0.0017273494 2234.0241)
(-0.00041808212 -0.00041808212 2234.02)
(0.0081573486 0.0081573486 2054.4595)
(-0.018014516 -0.0052485689 2054.4558)
(-0.038851423 -0.0026068179 2054.445)
(-0.01068942 -0.0020647208 2054.4431)
(-0.00014408725 -0.0019188822 2054.4434)
(0.0074275164 -0.0018067565 2054.4451)
(0.014010397 -0.0015067576 2054.4485)
(0.017744045 -0.00037074333 2054.4543)
(0.0073196665 0.0030249668 2054.4627)
(-0.0012646999 0.0037040309 2054.4643)
(-0.0052485689 -0.018014516 2054.4558)
(-0.034160766 -0.034160766 2054.4481)
(-0.034075651 -0.028904653 2054.4392)
(-0.0096575166 -0.027578991 2054.4376)
(0.00024285926 -0.027099982 2054.438)
(0.0080457034 -0.026732399 2054.4397)
(0.016164416 -0.02594813 2054.4431)
(0.024541632 -0.023180556 2054.4495)
(0.013431828 -0.01435142 2054.4611)
(-0.00058563578 -0.0074040727 2054.4643)
(-0.0026068179 -0.038851423 2054.445)
(-0.028904653 -0.034075651 2054.4392)
(-0.032269648 -0.032269648 2054.431)
(-0.0088847491 -0.031418452 2054.4296)
(0.00070250462 -0.030934978 2054.43)
(0.0085793683 -0.030571973 2054.4317)
(0.017562239 -0.030086901 2054.435)
(0.029340755 -0.028828107 2054.4415)
(0.02309615 -0.024612032 2054.4546)
(0.0033668651 -0.018102387 2054.4601)
(-0.0020647208 -0.01068942 2054.4431)
(-0.027578991 -0.0096575166 2054.4376)
(-0.031418452 -0.0088847491 2054.4296)
(-0.0083228472 -0.0083228472 2054.4283)
(0.0010893386 -0.007929603 2054.4287)
(0.0088937808 -0.0076351846 2054.4304)
(0.017908282 -0.0073731241 2054.4337)
(0.030016501 -0.0070766345 2054.44)
(0.024157548 -0.0064868643 2054.4531)
(0.0037541272 -0.0058686829 2054.4586)
(-0.0019188822 -0.00014408725 2054.4434)
(-0.027099982 0.00024285927 2054.438)
(-0.030934978 0.00070250462 2054.43)
(-0.007929603 0.0010893386 2054.4287)
(0.0013901673 0.0013901673 2054.4292)
(0.0091358472 0.0016242502 2054.4308)
(0.018120789 0.001822591 2054.434)
(0.030227015 0.0020000983 2054.4403)
(0.024304102 0.0021724753 2054.4533)
(0.003778986 0.0022348396 2054.4588)
(-0.0018067565 0.0074275164 2054.4451)
(-0.026732399 0.0080457034 2054.4397)
(-0.030571973 0.0085793683 2054.4317)
(-0.0076351846 0.0088937808 2054.4304)
(0.0016242502 0.0091358471 2054.4308)
(0.0093262046 0.0093262045 2054.4325)
(0.01828413 0.0094853852 2054.4357)
(0.030366385 0.0096218349 2054.4419)
(0.024392289 0.0097305774 2054.455)
(0.0037957034 0.0097936159 2054.4604)
(-0.0015067576 0.014010397 2054.4485)
(-0.02594813 0.016164416 2054.4431)
(-0.030086901 0.017562239 2054.435)
(-0.0073731241 0.017908282 2054.4337)
(0.001822591 0.018120789 2054.434)
(0.0094853852 0.01828413 2054.4357)
(0.018416419 0.018416419 2054.4389)
(0.030472207 0.018512457 2054.4452)
(0.024475883 0.018543146 2054.4583)
(0.0038210117 0.018547697 2054.4639)
(-0.00037074333 0.017744045 2054.4543)
(-0.023180556 0.024541632 2054.4495)
(-0.028828107 0.029340755 2054.4415)
(-0.0070766345 0.030016501 2054.44)
(0.0020000983 0.030227015 2054.4403)
(0.0096218349 0.030366385 2054.4419)
(0.018512457 0.030472207 2054.4452)
(0.030493112 0.030493112 2054.4517)
(0.024427529 0.030203606 2054.4649)
(0.0037987374 0.029271881 2054.4707)
(0.0030249668 0.0073196665 2054.4627)
(-0.01435142 0.013431828 2054.4611)
(-0.024612032 0.02309615 2054.4546)
(-0.0064868643 0.024157548 2054.4531)
(0.0021724753 0.024304102 2054.4533)
(0.0097305774 0.024392289 2054.455)
(0.018543146 0.024475883 2054.4583)
(0.030203606 0.024427529 2054.4649)
(0.023254651 0.023254651 2054.4784)
(0.0031998617 0.015050839 2054.4839)
(0.0037040309 -0.0012646999 2054.4643)
(-0.0074040727 -0.00058563577 2054.4643)
(-0.018102387 0.0033668651 2054.4601)
(-0.0058686829 0.0037541272 2054.4586)
(0.0022348396 0.003778986 2054.4588)
(0.0097936159 0.0037957034 2054.4604)
(0.018547697 0.0038210117 2054.4639)
(0.029271881 0.0037987374 2054.4707)
(0.015050839 0.0031998617 2054.4839)
(-0.0016704708 -0.0016704708 2054.4814)
(0.0068321486 0.0068321486 1894.3944)
(-0.024570884 -0.0076341483 1894.3906)
(-0.043917516 -0.0043644068 1894.383)
(-0.010788849 -0.0037102177 1894.3828)
(0.0011903165 -0.0035561071 1894.384)
(0.010007717 -0.0034690951 1894.3859)
(0.018422687 -0.003199822 1894.3888)
(0.02474187 -0.0019228205 1894.3938)
(0.012948947 0.0024494731 1894.4018)
(-0.00033146448 0.0036422876 1894.4049)
(-0.0076341483 -0.024570884 1894.3906)
(-0.041365718 -0.041365718 1894.3842)
(-0.03803162 -0.034858605 1894.3784)
(-0.0095763989 -0.033268387 1894.3786)
(0.0015520004 -0.03276334 1894.3797)
(0.010542145 -0.032472007 1894.3815)
(0.020742099 -0.031815299 1894.3843)
(0.033215812 -0.028855657 1894.3896)
(0.021296609 -0.017950119 1894.4001)
(0.00086134993 -0.009249013 1894.4048)
(-0.0043644068 -0.043917516 1894.383)
(-0.034858605 -0.03803162 1894.3784)
(-0.035820186 -0.035820186 1894.3732)
(-0.0086935835 -0.034829301 1894.3735)
(0.0019866965 -0.034329634 1894.3747)
(0.010955758 -0.034038608 1894.3763)
(0.022039038 -0.033710707 1894.3789)
(0.038607049 -0.032589597 1894.384)
(0.03255559 -0.027813998 1894.3955)
(0.0054692731 -0.020322766 1894.4019)
(-0.0037102177 -0.010788849 1894.3828)
(-0.033268387 -0.0095763989 1894.3786)
(-0.034829301 -0.0086935835 1894.3735)
(-0.0080858467 -0.0080858466 1894.3739)
(0.0023426935 -0.0077015436 1894.375)
(0.011161072 -0.0074666066 1894.3766)
(0.02219111 -0.0073227441 1894.3789)
(0.03911252 -0.0072043555 1894.3837)
(0.033563439 -0.0067213792 1894.3951)
(0.0058555048 -0.0061542383 1894.4013)
(-0.0035561071 0.0011903165 1894.384)
(-0.03276334 0.0015520005 1894.3797)
(-0.034329634 0.0019866965 1894.3747)
(-0.0077015436 0.0023426935 1894.375)
(0.0026059365 0.0026059365 1894.3761)
(0.011334558 0.0027925713 1894.3776)
(0.022301289 0.0029309161 1894.3798)
(0.039208414 0.0030353275 1894.3845)
(0.033605707 0.0031476295 1894.3956)
(0.005847367 0.0031584087 1894.4018)
(-0.0034690951 0.010007717 1894.3859)
(-0.032472007 0.010542145 1894.3815)
(-0.034038608 0.010955758 1894.3763)
(-0.0074666066 0.011161072 1894.3766)
(0.0027925712 0.011334558 1894.3776)
(0.011486052 0.011486052 1894.379)
(0.022433867 0.011632175 1894.3812)
(0.039329234 0.011782594 1894.3858)
(0.03368652 0.011935848 1894.3969)
(0.0058626909 0.012058678 1894.403)
(-0.003199822 0.018422687 1894.3888)
(-0.031815299 0.020742099 1894.3843)
(-0.033710707 0.022039038 1894.3789)
(-0.0073227441 0.02219111 1894.3789)
(0.0029309161 0.022301289 1894.3798)
(0.011632175 0.022433867 1894.3812)
(0.022597831 0.022597831 1894.3834)
(0.039512087 0.022793947 1894.388)
(0.033881791 0.022997007 1894.3993)
(0.0059292532 0.023230787 1894.4056)
(-0.0019228205 0.02474187 1894.3938)
(-0.028855657 0.033215812 1894.3896)
(-0.032589597 0.038607049 1894.384)
(-0.0072043555 0.03911252 1894.3837)
(0.0030353275 0.039208414 1894.3845)
(0.011782594 0.039329234 1894.3858)
(0.022793947 0.039512087 1894.388)
(0.03972841 0.03972841 1894.3928)
(0.034123361 0.039738957 1894.4044)
(0.0060185442 0.03901407 1894.4111)
(0.0024494732 0.012948947 1894.4018)
(-0.017950119 0.021296609 1894.4001)
(-0.027813998 0.03255559 1894.3955)
(-0.0067213792 0.033563439 1894.3951)
(0.0031476295 0.033605707 1894.3956)
(0.011935848 0.03368652 1894.3969)
(0.022997007 0.033881791 1894.3993)
(0.039738957 0.034123361 1894.4044)
(0.033167451 0.033167451 1894.4165)
(0.0054459948 0.020997306 1894.4235)
(0.0036422875 -0.00033146447 1894.4049)
(-0.009249013 0.00086134993 1894.4048)
(-0.020322766 0.0054692731 1894.4019)
(-0.0061542383 0.0058555048 1894.4013)
(0.0031584087 0.005847367 1894.4018)
(0.012058678 0.0058626909 1894.403)
(0.023230787 0.0059292532 1894.4056)
(0.03901407 0.0060185442 1894.4111)
(0.020997306 0.0054459948 1894.4235)
(-0.0020948861 -0.0020948861 1894.4231)
(0.0056391168 0.0056391168 1749.5393)
(-0.029413045 -0.0095000904 1749.5362)
(-0.046655512 -0.0056457247 1749.5315)
(-0.0097042695 -0.00489664 1749.5327)
(0.0029037734 -0.0047483323 1749.5345)
(0.012285585 -0.0047082823 1749.5363)
(0.021978137 -0.0045161229 1749.5386)
(0.030661385 -0.0032044347 1749.5423)
(0.018391271 0.0019323677 1749.5489)
(0.00083112564 0.0036082041 1749.5522)
(-0.0095000904 -0.029413045 1749.5362)
(-0.046340307 -0.046340307 1749.5315)
(-0.039750337 -0.038682416 1749.5284)
(-0.0083581809 -0.036880923 1749.5299)
(0.00318631 -0.036399652 1749.5317)
(0.012633899 -0.03625689 1749.5333)
(0.024233908 -0.035864796 1749.5353)
(0.040334121 -0.032999773 1749.539)
(0.028610229 -0.020575633 1749.5475)
(0.002506962 -0.010430687 1749.5522)
(-0.0056457247 -0.046655512 1749.5315)
(-0.038682416 -0.039750337 1749.5284)
(-0.037196128 -0.037196128 1749.5258)
(-0.0074215054 -0.036121358 1749.5275)
(0.0035278065 -0.035664342 1749.5291)
(0.012820441 -0.035521164 1749.5306)
(0.025235254 -0.035467708 1749.5322)
(0.045950548 -0.034682539 1749.5355)
(0.040960356 -0.029679563 1749.5446)
(0.0075944226 -0.021550673 1749.5505)
(-0.00489664 -0.0097042695 1749.5327)
(-0.036880923 -0.0083581809 1749.5299)
(-0.036121358 -0.0074215054 1749.5275)
(-0.0068263955 -0.0068263955 1749.5291)
(0.0037865043 -0.006510831 1749.5307)
(0.012830534 -0.0064021388 1749.532)
(0.025072534 -0.0064602643 1749.5333)
(0.046122266 -0.0066302428 1749.5362)
(0.041742094 -0.0063872102 1749.5449)
(0.0079262216 -0.0059804717 1749.5506)
(-0.0047483323 0.0029037734 1749.5345)
(-0.036399652 0.00318631 1749.5317)
(-0.035664342 0.0035278065 1749.5291)
(-0.006510831 0.0037865043 1749.5307)
(0.0039520632 0.0039520632 1749.5322)
(0.012871008 0.0040358036 1749.5333)
(0.02500715 0.0040593854 1749.5345)
(0.046023602 0.0040344232 1749.5371)
(0.041610127 0.0040337893 1749.5456)
(0.0078655816 0.003957689 1749.5512)
(-0.0047082823 0.012285585 1749.5363)
(-0.03625689 0.012633899 1749.5333)
(-0.035521164 0.012820441 1749.5306)
(-0.0064021388 0.012830534 1749.532)
(0.0040358036 0.012871008 1749.5333)
(0.012937856 0.012937856 1749.5344)
(0.025071153 0.013041163 1749.5354)
(0.04609667 0.013191575 1749.538)
(0.04166536 0.013391995 1749.5465)
(0.0078754881 0.013587869 1749.5519)
(-0.0045161228 0.021978137 1749.5386)
(-0.035864796 0.024233908 1749.5353)
(-0.035467708 0.025235254 1749.5322)
(-0.0064602643 0.025072534 1749.5333)
(0.0040593854 0.02500715 1749.5345)
(0.013041163 0.025071153 1749.5354)
(0.02526087 0.02526087 1749.5365)
(0.046374434 0.025587571 1749.5391)
(0.04200642 0.026036597 1749.5477)
(0.0079961638 0.026600327 1749.5533)
(-0.0032044347 0.030661385 1749.5423)
(-0.032999773 0.040334121 1749.539)
(-0.034682539 0.045950548 1749.5355)
(-0.0066302428 0.046122266 1749.5362)
(0.0040344232 0.046023602 1749.5371)
(0.013191575 0.04609667 1749.538)
(0.025587571 0.046374434 1749.5391)
(0.046872397 0.046872397 1749.542)
(0.042678116 0.047384846 1749.551)
(0.0082513081 0.047208012 1749.5572)
(0.0019323677 0.018391271 1749.5489)
(-0.020575633 0.028610229 1749.5475)
(-0.029679563 0.040960356 1749.5446)
(-0.0063872102 0.041742094 1749.5449)
(0.0040337893 0.041610127 1749.5456)
(0.013391995 0.04166536 1749.5465)
(0.026036597 0.04200642 1749.5477)
(0.047384846 0.042678116 1749.551)
(0.042342035 0.042342035 1749.5607)
(0.0078782746 0.027031015 1749.5677)
(0.0036082041 0.00083112565 1749.5522)
(-0.010430687 0.002506962 1749.5522)
(-0.021550673 0.0075944226 1749.5505)
(-0.0059804717 0.0079262216 1749.5506)
(0.003957689 0.0078655816 1749.5512)
(0.013587869 0.0078754881 1749.5519)
(0.026600327 0.0079961638 1749.5533)
(0.047208012 0.0082513081 1749.5572)
(0.027031015 0.0078782746 1749.5677)
(-0.0019560387 -0.0019560387 1749.5684)
(0.0047377452 0.0047377452 1617.0049)
(-0.03244885 -0.010774869 1617.0027)
(-0.047382682 -0.0064029547 1617.0006)
(-0.0077353406 -0.0055797246 1617.0029)
(0.004764846 -0.0054496437 1617.0051)
(0.014052994 -0.0054730914 1617.0066)
(0.024409563 -0.0053928726 1617.008)
(0.035032317 -0.0041334686 1617.0102)
(0.022855255 0.0015660009 1617.015)
(0.001901653 0.0036617929 1617.0178)
(-0.010774869 -0.03244885 1617.0027)
(-0.0491599 -0.0491599 1616.9998)
(-0.039589966 -0.040499227 1616.999)
(-0.0063053742 -0.038546572 1617.0016)
(0.0049247959 -0.038132748 1617.0037)
(0.014138151 -0.038194109 1617.005)
(0.026418998 -0.038169071 1617.006)
(0.045470627 -0.035627239 1617.008)
(0.034548147 -0.02219478 1617.0142)
(0.003997445 -0.010933471 1617.0181)
(-0.0064029547 -0.047382682 1617.0006)
(-0.040499227 -0.039589966 1616.999)
(-0.036769354 -0.036769354 1616.9987)
(-0.0053688611 -0.035666244 1617.0013)
(0.0051173085 -0.035302817 1617.0033)
(0.014016671 -0.035367315 1617.0044)
(0.026976434 -0.035676233 1617.0049)
(0.051006608 -0.035377623 1617.0064)
(0.047549023 -0.030426607 1617.0127)
(0.0094091922 -0.021954629 1617.0174)
(-0.0055797246 -0.0077353406 1617.0029)
(-0.038546572 -0.0063053742 1617.0016)
(-0.035666244 -0.0053688611 1617.0013)
(-0.0048388369 -0.0048388369 1617.0039)
(0.0052237253 -0.0046429602 1617.0057)
(0.013764734 -0.0047146382 1617.0066)
(0.02640869 -0.0050395098 1617.0068)
(0.050720254 -0.0055806871 1617.0077)
(0.047971141 -0.0056810011 1617.0136)
(0.00964543 -0.0055184157 1617.018)
(-0.0054496437 0.004764846 1617.0051)
(-0.038132748 0.0049247959 1617.0037)
(-0.035302817 0.0051173085 1617.0033)
(-0.0046429602 0.0052237253 1617.0057)
(0.0052415072 0.0052415072 1617.0074)
(0.013620122 0.0051763866 1617.0081)
(0.026110385 0.0050406496 1617.0081)
(0.050365117 0.004841476 1617.0087)
(0.047611294 0.0046854755 1617.0143)
(0.0095175825 0.0044946157 1617.0185)
(-0.0054730914 0.014052994 1617.0066)
(-0.038194109 0.014138151 1617.005)
(-0.035367315 0.014016671 1617.0044)
(-0.0047146382 0.013764734 1617.0066)
(0.0051763866 0.013620122 1617.0081)
(0.013563877 0.013563877 1617.0086)
(0.026073779 0.013598054 1617.0085)
(0.05036508 0.013733945 1617.009)
(0.047624281 0.013978914 1617.0146)
(0.0095181902 0.014252976 1617.0187)
(-0.0053928726 0.024409563 1617.008)
(-0.038169071 0.026418998 1617.006)
(-0.035676233 0.026976434 1617.0049)
(-0.0050395098 0.02640869 1617.0068)
(0.0050406496 0.026110385 1617.0081)
(0.013598054 0.026073779 1617.0085)
(0.026280453 0.026280453 1617.0083)
(0.050745976 0.026754974 1617.0089)
(0.048130326 0.027496863 1617.0146)
(0.009700291 0.028453932 1617.0189)
(-0.0041334686 0.035032317 1617.0102)
(-0.035627239 0.045470627 1617.008)
(-0.035377623 0.051006608 1617.0064)
(-0.0055806871 0.050720254 1617.0077)
(0.004841476 0.050365117 1617.0087)
(0.013733945 0.05036508 1617.009)
(0.026754974 0.050745976 1617.0089)
(0.05158149 0.05158149 1617.0098)
(0.049323239 0.052732908 1617.0159)
(0.010156236 0.05334417 1617.0209)
(0.0015660009 0.022855255 1617.015)
(-0.02219478 0.034548147 1617.0142)
(-0.030426607 0.047549023 1617.0127)
(-0.0056810011 0.047971141 1617.0136)
(0.0046854755 0.047611294 1617.0143)
(0.013978914 0.047624281 1617.0146)
(0.027496863 0.048130326 1617.0146)
(0.052732908 0.049323239 1617.0159)
(0.049893006 0.049893006 1617.0229)
(0.010107799 0.032269738 1617.029)
(0.0036617929 0.001901653 1617.0178)
(-0.010933471 0.003997445 1617.0181)
(-0.021954629 0.0094091922 1617.0174)
(-0.0055184157 0.00964543 1617.018)
(0.0044946157 0.0095175825 1617.0185)
(0.014252976 0.0095181902 1617.0187)
(0.028453932 0.009700291 1617.0189)
(0.05334417 0.010156236 1617.0209)
(0.032269738 0.010107799 1617.029)
(-0.0015926091 -0.0015926091 1617.03)
(0.0041811226 0.0041811226 1494.7661)
(-0.033786573 -0.011468287 1494.7649)
(-0.046458139 -0.0066581387 1494.7649)
(-0.0051728418 -0.0057824907 1494.768)
(0.0065776767 -0.0056809028 1494.7703)
(0.015182719 -0.0057792031 1494.7715)
(0.025611321 -0.0058348187 1494.7719)
(0.03768222 -0.0046951711 1494.7727)
(0.025971737 0.0013847591 1494.7755)
(0.0027125042 0.0038166286 1494.7774)
(-0.011468287 -0.033786573 1494.7649)
(-0.050045465 -0.050045465 1494.7636)
(-0.037929445 -0.040553372 1494.7648)
(-0.003706988 -0.038510238 1494.768)
(0.0065826082 -0.03819979 1494.7702)
(0.014951845 -0.03850407 1494.7711)
(0.027237369 -0.038915278 1494.7712)
(0.048511587 -0.036867106 1494.7715)
(0.038739437 -0.022870039 1494.7752)
(0.0051443736 -0.010821081 1494.778)
(-0.0066581387 -0.046458139 1494.7649)
(-0.040553372 -0.037929445 1494.7648)
(-0.034922912 -0.034922912 1494.7662)
(-0.0028192595 -0.03384305 1494.7695)
(0.0065838442 -0.033614557 1494.7716)
(0.014467231 -0.033929718 1494.7722)
(0.027248285 -0.034659708 1494.7717)
(0.053727458 -0.034950789 1494.7714)
(0.052017763 -0.030271984 1494.775)
(0.010745143 -0.021703595 1494.7782)
(-0.0057824907 -0.0051728418 1494.768)
(-0.038510238 -0.003706988 1494.768)
(-0.03384305 -0.0028192595 1494.7695)
(-0.0023986329 -0.0023986329 1494.7727)
(0.0064959407 -0.0023628323 1494.7746)
(0.013906694 -0.0026549385 1494.775)
(0.026216298 -0.0032912809 1494.7741)
(0.052899311 -0.0042583439 1494.7732)
(0.05198663 -0.0047734947 1494.7762)
(0.010856632 -0.0049133201 1494.779)
(-0.0056809028 0.0065776767 1494.7703)
(-0.03819979 0.0065826082 1494.7702)
(-0.033614557 0.0065838442 1494.7716)
(-0.0023628323 0.0064959407 1494.7746)
(0.0063275387 0.0063275387 1494.7763)
(0.013538782 0.0060786693 1494.7765)
(0.02564488 0.0057505862 1494.7753)
(0.052245245 0.0053448778 1494.7741)
(0.051362786 0.0050028489 1494.7768)
(0.010651926 0.0046776231 1494.7794)
(-0.0057792031 0.015182719 1494.7715)
(-0.03850407 0.014951845 1494.7711)
(-0.033929718 0.014467231 1494.7722)
(-0.0026549385 0.013906694 1494.775)
(0.0060786693 0.013538783 1494.7765)
(0.013329741 0.013329741 1494.7764)
(0.025482507 0.013272891 1494.7752)
(0.052151574 0.013379825 1494.7738)
(0.051319375 0.01366224 1494.7765)
(0.010639815 0.014012954 1494.779)
(-0.0058348187 0.025611321 1494.7719)
(-0.038915278 0.027237369 1494.7712)
(-0.034659708 0.027248285 1494.7717)
(-0.0032912809 0.026216298 1494.7741)
(0.0057505862 0.02564488 1494.7753)
(0.013272891 0.025482507 1494.7752)
(0.025694964 0.025694964 1494.7738)
(0.052634594 0.026321433 1494.7726)
(0.051995915 0.027377499 1494.7754)