/*--------------------------------*- C++ -*----------------------------------*\
| =========                 |                                                 |
| \\      /  F ield         | OpenFOAM: The Open Source CFD Toolbox           |
|  \\    /   O peration     | Version:  v2106                                 |
|   \\  /    A nd           | Website:  www.openfoam.com                      |
|    \\/     M anipulation  |                                                 |
\*---------------------------------------------------------------------------*/
FoamFile
{
    version     2.0;
    format      ascii;
    arch        "LSB;label=32;scalar=64";
    class       volVectorField;
    location    "10";
    object      gradT;
}
// * * * * * * * * * * * * * * * * * * * * * * * * * * * * * * * * * * * * * //

dimensions      [0 -1 0 1 0 0 0];

internalField   nonuniform List<vector> 
4000
(
(5.5496498e-05 5.5496493e-05 1047.2091)
(0.00056937357 0.00047376637 1047.2095)
(-0.00033643053 -6.2646419e-05 1047.2111)
(-0.00093270426 4.603595e-05 1047.2075)
(-3.0023816e-05 8.6299745e-05 1047.2069)
(0.00020482782 9.6292593e-05 1047.2073)
(0.00026078217 0.00010358974 1047.2079)
(0.00025326209 0.00011401474 1047.2087)
(0.00018344849 0.00011011816 1047.2093)
(4.4174561e-05 6.4388145e-05 1047.2097)
(0.00047376638 0.00056937357 1047.2095)
(0.0003921592 0.00039215919 1047.2118)
(-0.00097802616 -0.00027598136 1047.2104)
(-0.00070928501 -4.1409271e-05 1047.2074)
(4.5361149e-05 3.9256454e-05 1047.2071)
(0.00023076282 6.1706814e-05 1047.2076)
(0.0002873654 8.9428021e-05 1047.2083)
(0.00026305473 0.0001488056 1047.2091)
(0.0001090086 0.00019764163 1047.2096)
(-1.5554576e-06 0.00010565263 1047.2097)
(-6.2646421e-05 -0.00033643052 1047.2111)
(-0.00027598136 -0.00097802617 1047.2104)
(-0.00076999899 -0.00076999899 1047.2095)
(-0.00061746644 -0.00067358536 1047.2068)
(7.3092269e-05 -0.000647958 1047.2066)
(0.00025499939 -0.00064161238 1047.2071)
(0.00034788096 -0.00062183558 1047.2079)
(0.0003614757 -0.00054996979 1047.2089)
(0.00014029552 -0.00041277015 1047.2098)
(-1.7151439e-05 -0.00031510352 1047.2097)
(4.6035947e-05 -0.00093270425 1047.2075)
(-4.1409272e-05 -0.00070928501 1047.2074)
(-0.00067358535 -0.00061746644 1047.2068)
(-0.00058724401 -0.00058724402 1047.2042)
(7.733413e-05 -0.00058372589 1047.204)
(0.00025688523 -0.00059077896 1047.2045)
(0.00037900798 -0.00059720313 1047.2054)
(0.00047212016 -0.00058009303 1047.2065)
(0.00034387487 -0.00050484566 1047.2078)
(6.3555628e-05 -0.00038590859 1047.2082)
(8.6299741e-05 -3.0023817e-05 1047.2069)
(3.925645e-05 4.5361159e-05 1047.2071)
(-0.000647958 7.3092268e-05 1047.2066)
(-0.00058372589 7.7334129e-05 1047.204)
(6.9557329e-05 6.9557329e-05 1047.2039)
(0.00024152214 5.6976549e-05 1047.2043)
(0.00035856688 3.9909401e-05 1047.2051)
(0.00045383318 1.9754056e-05 1047.2062)
(0.00033447997 2.1654728e-06 1047.2074)
(6.2139937e-05 -1.0336295e-05 1047.2079)
(9.6292598e-05 0.00020482782 1047.2073)
(6.1706812e-05 0.00023076282 1047.2076)
(-0.00064161238 0.00025499939 1047.2071)
(-0.00059077895 0.00025688524 1047.2045)
(5.697655e-05 0.00024152215 1047.2043)
(0.0002272373 0.00022723731 1047.2047)
(0.00034178549 0.00021401685 1047.2055)
(0.00043437623 0.0002004591 1047.2066)
(0.00031378452 0.00018642555 1047.2077)
(5.5221116e-05 0.00017335553 1047.2082)
(0.00010358974 0.00026078218 1047.2079)
(8.9428018e-05 0.00028736539 1047.2083)
(-0.00062183558 0.00034788096 1047.2079)
(-0.00059720312 0.00037900798 1047.2054)
(3.9909403e-05 0.00035856688 1047.2051)
(0.00021401685 0.00034178548 1047.2055)
(0.00033178867 0.00033178867 1047.2062)
(0.00042624187 0.00032570949 1047.2072)
(0.0003073764 0.00032133498 1047.2084)
(5.3426593e-05 0.00031872872 1047.2088)
(0.00011401474 0.00025326209 1047.2087)
(0.00014880559 0.00026305473 1047.2091)
(-0.00054996979 0.0003614757 1047.2089)
(-0.00058009303 0.00047212016 1047.2065)
(1.9754054e-05 0.00045383317 1047.2062)
(0.0002004591 0.00043437623 1047.2066)
(0.00032570949 0.00042624187 1047.2072)
(0.00042392254 0.00042392254 1047.2083)
(0.00030680376 0.00042097063 1047.2094)
(5.3483611e-05 0.00041530796 1047.2099)
(0.00011011816 0.00018344849 1047.2093)
(0.00019764163 0.0001090086 1047.2096)
(-0.00041277014 0.00014029552 1047.2098)
(-0.00050484566 0.00034387487 1047.2078)
(2.165477e-06 0.00033447997 1047.2074)
(0.00018642556 0.00031378453 1047.2077)
(0.00032133498 0.0003073764 1047.2084)
(0.00042097062 0.00030680375 1047.2094)
(0.00029876182 0.00029876182 1047.2106)
(4.9651482e-05 0.00027556366 1047.2109)
(6.4388146e-05 4.4174564e-05 1047.2097)
(0.00010565263 -1.555454e-06 1047.2097)
(-0.00031510352 -1.715144e-05 1047.2097)
(-0.00038590859 6.3555628e-05 1047.2082)
(-1.0336291e-05 6.2139942e-05 1047.2079)
(0.00017335553 5.5221116e-05 1047.2082)
(0.00031872872 5.3426589e-05 1047.2088)
(0.00041530797 5.3483609e-05 1047.2099)
(0.00027556366 4.9651483e-05 1047.2109)
(3.8018169e-05 3.801817e-05 1047.2112)
(0.00021607499 0.00021607499 1535.5959)
(0.0013666613 0.00087729061 1535.5954)
(-0.0019806258 -0.00052757 1535.5955)
(-0.0035442029 -0.00019707428 1535.5919)
(-0.00018252919 -6.0321393e-05 1535.5913)
(0.00093280425 -2.0532191e-05 1535.5918)
(0.0012645009 1.766691e-05 1535.5927)
(0.0012521179 7.0101148e-05 1535.5938)
(0.00095234924 2.0190558e-05 1535.5948)
(0.00024695138 -0.00018222679 1535.5956)
(0.00087729061 0.0013666613 1535.5954)
(0.00025119381 0.00025119381 1535.5959)
(-0.0035921731 -0.0015852865 1535.5942)
(-0.0028433299 -0.00085232042 1535.5911)
(8.2283941e-05 -0.00056189989 1535.5907)
(0.0010497867 -0.00046537212 1535.5913)
(0.0014004509 -0.00032232292 1535.5924)
(0.0012559034 -2.3414007e-05 1535.5937)
(0.00057385733 0.0001294135 1535.5943)
(4.4534028e-05 -0.00030847312 1535.5945)
(-0.00052757001 -0.0019806258 1535.5955)
(-0.0015852865 -0.0035921731 1535.5942)
(-0.00308414 -0.00308414 1535.5927)
(-0.0025208163 -0.0027432881 1535.5899)
(0.00020441911 -0.0026307388 1535.5896)
(0.0011723812 -0.0025978801 1535.5902)
(0.001706459 -0.0024951211 1535.5914)
(0.0017038543 -0.0021329376 1535.5931)
(0.00066729013 -0.0015355478 1535.5942)
(-4.4973032e-05 -0.0011939658 1535.5942)
(-0.00019707428 -0.0035442029 1535.5919)
(-0.00085232043 -0.0028433299 1535.5911)
(-0.0027432881 -0.0025208163 1535.5899)
(-0.0023899288 -0.0023899287 1535.5873)
(0.00022769194 -0.002369758 1535.587)
(0.0011854045 -0.0024018162 1535.5876)
(0.0018653934 -0.0024278591 1535.5888)
(0.0022154766 -0.0023267856 1535.5907)
(0.0015128292 -0.0019653623 1535.5923)
(0.00027225537 -0.0014669918 1535.5929)
(-6.0321397e-05 -0.0001825292 1535.5913)
(-0.0005618999 8.228394e-05 1535.5907)
(-0.0026307388 0.00020441911 1535.5896)
(-0.002369758 0.00022769194 1535.587)
(0.00019253167 0.00019253167 1535.5867)
(0.0011142801 0.00013205798 1535.5872)
(0.0017814896 5.2154605e-05 1535.5884)
(0.0021663511 -3.0176857e-05 1535.5902)
(0.0015270839 -8.0296493e-05 1535.5918)
(0.00028727398 -9.4590312e-05 1535.5924)
(-2.0532192e-05 0.00093280424 1535.5918)
(-0.00046537212 0.0010497867 1535.5913)
(-0.0025978801 0.0011723812 1535.5902)
(-0.0024018162 0.0011854045 1535.5876)
(0.00013205799 0.0011142801 1535.5872)
(0.0010450274 0.0010450274 1535.5878)
(0.0017031586 0.00098138907 1535.5888)
(0.0020830255 0.00091949491 1535.5906)
(0.0014484157 0.0008618281 1535.5921)
(0.00026272616 0.0008161555 1535.5928)
(1.7666909e-05 0.0012645009 1535.5927)
(-0.00032232292 0.0014004509 1535.5924)
(-0.0024951211 0.001706459 1535.5914)
(-0.0024278591 0.0018653934 1535.5888)
(5.2154601e-05 0.0017814896 1535.5884)
(0.00098138907 0.0017031586 1535.5888)
(0.0016559571 0.0016559571 1535.5899)
(0.0020467901 0.0016282672 1535.5916)
(0.0014237445 0.0016089484 1535.5931)
(0.00025682559 0.0015991798 1535.5938)
(7.0101146e-05 0.0012521179 1535.5938)
(-2.341401e-05 0.0012559034 1535.5937)
(-0.0021329376 0.0017038543 1535.5931)
(-0.0023267856 0.0022154766 1535.5907)
(-3.0176857e-05 0.0021663511 1535.5902)
(0.0009194949 0.0020830255 1535.5906)
(0.0016282672 0.0020467901 1535.5916)
(0.0020360169 0.0020360169 1535.5933)
(0.0014193284 0.0020138003 1535.5949)
(0.00025621377 0.0019629598 1535.5955)
(2.0190555e-05 0.00095234923 1535.5948)
(0.00012941349 0.00057385732 1535.5943)
(-0.0015355478 0.00066729013 1535.5942)
(-0.0019653623 0.0015128291 1535.5923)
(-8.0296477e-05 0.0015270839 1535.5918)
(0.0008618281 0.0014484157 1535.5921)
(0.0016089484 0.0014237445 1535.5931)
(0.0020138003 0.0014193284 1535.5949)
(0.0013506875 0.0013506875 1535.5963)
(0.00022293189 0.0011630761 1535.5968)
(-0.00018222679 0.00024695138 1535.5956)
(-0.00030847312 4.4534026e-05 1535.5945)
(-0.0011939658 -4.4973031e-05 1535.5942)
(-0.0014669918 0.00027225538 1535.5929)
(-9.45903e-05 0.00028727398 1535.5924)
(0.0008161555 0.00026272616 1535.5928)
(0.0015991798 0.00025682559 1535.5938)
(0.0019629598 0.00025621376 1535.5955)
(0.0011630761 0.00022293189 1535.5968)
(0.00013113952 0.00013113952 1535.597)
(-0.00024754421 -0.00024754421 1507.4623)
(0.00016355295 0.0007812242 1507.4609)
(-0.0038580064 -0.00092267598 1507.46)
(-0.0051479798 -0.00046664619 1507.4576)
(-0.00015426713 -0.00027774411 1507.4572)
(0.0016763733 -0.00021887101 1507.4578)
(0.0023181478 -0.0001380476 1507.4588)
(0.0022820141 -1.151273e-05 1507.46)
(0.001912449 -0.00018830375 1507.4608)
(0.00058203093 -0.00065802295 1507.4617)
(0.0007812242 0.00016355296 1507.4609)
(-0.0008491447 -0.0008491447 1507.4605)
(-0.005729812 -0.003048909 1507.4588)
(-0.004180582 -0.0020324466 1507.4567)
(0.00021739565 -0.0016284018 1507.4565)
(0.0018859181 -0.001491029 1507.4571)
(0.0026291852 -0.0012200342 1507.4582)
(0.0022066299 -0.00058395153 1507.4597)
(0.00094268363 -0.00037012002 1507.4603)
(0.00011231172 -0.0012251047 1507.4605)
(-0.00092267598 -0.0038580064 1507.46)
(-0.003048909 -0.005729812 1507.4588)
(-0.0050413083 -0.0050413083 1507.4573)
(-0.0037274726 -0.0045574839 1507.4554)
(0.00038715047 -0.0044006446 1507.4552)
(0.0020847409 -0.0043703434 1507.4558)
(0.0032252253 -0.0042099402 1507.457)
(0.0031319283 -0.0035399888 1507.459)
(0.0012712958 -0.0024809663 1507.46)
(1.2041158e-05 -0.0019357762 1507.4601)
(-0.00046664619 -0.0051479798 1507.4576)
(-0.0020324466 -0.004180582 1507.4567)
(-0.0045574839 -0.0037274726 1507.4554)
(-0.0035399183 -0.0035399183 1507.4536)
(0.00040453615 -0.0035209762 1507.4534)
(0.0020766224 -0.0035927064 1507.4539)
(0.0034595398 -0.0036602569 1507.4552)
(0.0039356038 -0.0035039269 1507.4573)
(0.0025468963 -0.0029292332 1507.4586)
(0.00047577182 -0.0021915507 1507.4592)
(-0.00027774412 -0.00015426713 1507.4572)
(-0.0016284018 0.00021739564 1507.4565)
(-0.0044006446 0.00038715047 1507.4552)
(-0.0035209762 0.00040453614 1507.4534)
(0.00033436233 0.00033436233 1507.4532)
(0.0019454603 0.00022274475 1507.4537)
(0.0033140048 8.0000002e-05 1507.4548)
(0.0038629519 -5.554589e-05 1507.4569)
(0.002583672 -0.00012347991 1507.4583)
(0.0005038295 -0.00013006459 1507.4588)
(-0.00021887102 0.0016763733 1507.4578)
(-0.001491029 0.0018859181 1507.4571)
(-0.0043703434 0.0020847409 1507.4558)
(-0.0035927064 0.0020766224 1507.4539)
(0.00022274476 0.0019454603 1507.4537)
(0.0018222601 0.0018222601 1507.4541)
(0.0031812491 0.0017131933 1507.4552)
(0.0037321239 0.0016147671 1507.4572)
(0.0024723776 0.0015337181 1507.4586)
(0.00047138204 0.0014852348 1507.4591)
(-0.0001380476 0.0023181478 1507.4588)
(-0.0012200342 0.0026291852 1507.4582)
(-0.0042099402 0.0032252253 1507.457)
(-0.0036602569 0.0034595398 1507.4552)
(7.9999995e-05 0.0033140048 1507.4548)
(0.0017131933 0.0031812491 1507.4552)
(0.0031065118 0.0031065118 1507.4563)
(0.0036834767 0.00306958 1507.4583)
(0.0024541397 0.0030465342 1507.4596)
(0.00047150729 0.003040838 1507.4602)
(-1.1512726e-05 0.0022820141 1507.46)
(-0.00058395153 0.0022066299 1507.4597)
(-0.0035399888 0.0031319283 1507.459)
(-0.0035039269 0.0039356038 1507.4573)
(-5.5545888e-05 0.0038629519 1507.4569)
(0.0016147671 0.0037321239 1507.4572)
(0.00306958 0.0036834767 1507.4583)
(0.0036721462 0.0036721462 1507.4603)
(0.0024436356 0.0036026105 1507.4616)
(0.00046758456 0.0034175431 1507.4622)
(-0.00018830374 0.001912449 1507.4608)
(-0.00037012002 0.00094268362 1507.4603)
(-0.0024809663 0.0012712958 1507.46)
(-0.0029292332 0.0025468963 1507.4586)
(-0.00012347991 0.002583672 1507.4583)
(0.0015337181 0.0024723776 1507.4586)
(0.0030465342 0.0024541397 1507.4596)
(0.0036026105 0.0024436356 1507.4616)
(0.0021995366 0.0021995366 1507.4628)
(0.00034812903 0.0018126147 1507.463)
(-0.00065802296 0.00058203093 1507.4617)
(-0.0012251047 0.00011231172 1507.4605)
(-0.0019357762 1.2041155e-05 1507.4601)
(-0.0021915507 0.00047577182 1507.4592)
(-0.00013006459 0.0005038295 1507.4588)
(0.0014852348 0.00047138203 1507.4591)
(0.003040838 0.00047150729 1507.4602)
(0.0034175431 0.00046758456 1507.4622)
(0.0018126147 0.00034812902 1507.463)
(0.00020963663 0.00020963663 1507.4633)
(-0.0006973086 -0.00069730859 1474.8598)
(-0.00090248201 0.00058091326 1474.8587)
(-0.0052946098 -0.0013423843 1474.8581)
(-0.0063158875 -0.00078137985 1474.8562)
(8.6789377e-06 -0.00055683754 1474.856)
(0.0024745946 -0.0004889179 1474.8566)
(0.0034650495 -0.00035975757 1474.8577)
(0.0032867936 -0.00010076836 1474.859)
(0.0027192467 -0.00033484102 1474.8599)
(0.00087292244 -0.0010167999 1474.8608)
(0.00058091325 -0.000902482 1474.8587)
(-0.0018700955 -0.0018700955 1474.8583)
(-0.0073380495 -0.0043088502 1474.857)
(-0.0051375674 -0.0030618133 1474.8554)
(0.00044737187 -0.0025872688 1474.8553)
(0.0027702145 -0.0024429039 1474.8559)
(0.0040472738 -0.0020608729 1474.8571)
(0.0033241684 -0.001024894 1474.8588)
(0.0013451993 -0.00070122235 1474.8595)
(0.00019096352 -0.0019447347 1474.8598)
(-0.0013423843 -0.0052946099 1474.8581)
(-0.0043088503 -0.0073380495 1474.857)
(-0.0064863277 -0.0064863277 1474.8559)
(-0.004594306 -0.0058985531 1474.8545)
(0.00062758841 -0.0057272456 1474.8544)
(0.0030009905 -0.0057281072 1474.855)
(0.0048830593 -0.005547045 1474.8562)
(0.0046464442 -0.0046066419 1474.8583)
(0.0017994061 -0.0031752645 1474.8593)
(4.3914243e-05 -0.0025340086 1474.8595)
(-0.00078137986 -0.0063158875 1474.8562)
(-0.0030618134 -0.0051375674 1474.8554)
(-0.0058985531 -0.004594306 1474.8545)
(-0.0043784853 -0.0043784853 1474.853)
(0.00061781775 -0.0043792458 1474.853)
(0.0029504151 -0.0045050722 1474.8535)
(0.0051687391 -0.0046284457 1474.8547)
(0.005695949 -0.0044281265 1474.8569)
(0.0034178327 -0.0036724844 1474.8583)
(0.00061846746 -0.0027503696 1474.8587)
(-0.00055683753 8.6789299e-06 1474.856)
(-0.0025872688 0.00044737187 1474.8553)
(-0.0057272456 0.00062758841 1474.8544)
(-0.0043792458 0.00061781776 1474.853)
(0.00050100149 0.0005010015 1474.8529)
(0.0027517907 0.00033190951 1474.8533)
(0.004960005 0.00012442536 1474.8544)
(0.0056024055 -5.82243e-05 1474.8566)
(0.003477163 -0.00013359992 1474.858)
(0.00065865744 -0.00012165879 1474.8585)
(-0.0004889179 0.0024745946 1474.8566)
(-0.0024429039 0.0027702145 1474.8559)
(-0.0057281072 0.0030009905 1474.855)
(-0.0045050722 0.0029504151 1474.8535)
(0.00033190951 0.0027517907 1474.8533)
(0.002573839 0.002573839 1474.8537)
(0.0047786053 0.0024243813 1474.8547)
(0.0054379237 0.0023020934 1474.8569)
(0.0033543982 0.0022177991 1474.8582)
(0.00062642821 0.0021936817 1474.8587)
(-0.00035975757 0.0034650495 1474.8577)
(-0.0020608729 0.0040472738 1474.8571)
(-0.005547045 0.0048830593 1474.8562)
(-0.0046284457 0.0051687391 1474.8547)
(0.00012442536 0.004960005 1474.8544)
(0.0024243813 0.0047786053 1474.8547)
(0.0046882594 0.0046882594 1474.8558)
(0.0053958233 0.0046585048 1474.8579)
(0.0033687513 0.0046429801 1474.8593)
(0.00064257916 0.0046402841 1474.8599)
(-0.00010076836 0.0032867936 1474.859)
(-0.0010248941 0.0033241684 1474.8588)
(-0.004606642 0.0046464442 1474.8583)
(-0.0044281265 0.0056959489 1474.8569)
(-5.8224283e-05 0.0056024055 1474.8566)
(0.0023020934 0.0054379237 1474.8569)
(0.0046585048 0.0053958233 1474.8579)
(0.0053926444 0.0053926444 1474.8601)
(0.0033361774 0.0052168336 1474.8615)
(0.00062463084 0.004716614 1474.862)
(-0.00033484102 0.0027192467 1474.8599)
(-0.00070122236 0.0013451993 1474.8595)
(-0.0031752645 0.0017994061 1474.8593)
(-0.0036724844 0.0034178327 1474.8583)
(-0.0001335999 0.003477163 1474.858)
(0.0022177991 0.0033543982 1474.8582)
(0.0046429801 0.0033687513 1474.8593)
(0.0052168336 0.0033361774 1474.8615)
(0.002692721 0.002692721 1474.8627)
(0.00030909942 0.0022662594 1474.8625)
(-0.0010167999 0.00087292244 1474.8608)
(-0.0019447347 0.00019096352 1474.8598)
(-0.0025340086 4.3914238e-05 1474.8595)
(-0.0027503696 0.00061846746 1474.8587)
(-0.00012165879 0.00065865744 1474.8585)
(0.0021936817 0.0006264282 1474.8587)
(0.0046402841 0.00064257916 1474.8599)
(0.004716614 0.00062463084 1474.862)
(0.0022662594 0.00030909941 1474.8625)
(0.00034032315 0.00034032315 1474.8628)
(-0.00099225811 -0.0009922581 1438.2557)
(-0.001581204 0.00046168757 1438.2549)
(-0.0063759681 -0.0016602074 1438.2545)
(-0.0072079416 -0.0010053354 1438.253)
(0.00025726243 -0.00075511266 1438.2529)
(0.0032961619 -0.00069068626 1438.2535)
(0.0047161819 -0.00053187833 1438.2545)
(0.0044980298 -0.00015397334 1438.2559)
(0.00364813 -0.00044721073 1438.2569)
(0.0011681153 -0.0013041942 1438.2578)
(0.00046168757 -0.001581204 1438.2549)
(-0.0025831279 -0.0025831279 1438.2546)
(-0.0085765026 -0.0052364841 1438.2537)
(-0.0058502994 -0.0037882564 1438.2524)
(0.00072923614 -0.0032695996 1438.2524)
(0.0036310134 -0.0031495721 1438.253)
(0.0055212513 -0.0027026115 1438.2541)
(0.0046250312 -0.0013106336 1438.2558)
(0.0019227988 -0.00091907661 1438.2566)
(0.00031113181 -0.0025056515 1438.257)
(-0.0016602074 -0.0063759681 1438.2545)
(-0.0052364841 -0.0085765026 1438.2537)
(-0.0075810965 -0.0075810965 1438.2529)
(-0.0052410571 -0.0069130841 1438.2517)
(0.00089594671 -0.0067476044 1438.2518)
(0.00386315 -0.0068001475 1438.2523)
(0.0065551204 -0.0066254855 1438.2534)
(0.0062815647 -0.0054490662 1438.2555)
(0.0024531121 -0.0037079399 1438.2565)
(0.00011039868 -0.003007154 1438.2568)
(-0.0010053354 -0.0072079416 1438.253)
(-0.0037882564 -0.0058502994 1438.2524)
(-0.0069130841 -0.0052410571 1438.2517)
(-0.0050168073 -0.0050168073 1438.2506)
(0.0008421727 -0.0050525368 1438.2506)
(0.0037531323 -0.0052450577 1438.251)
(0.0068723326 -0.0054362927 1438.2521)
(0.0075425768 -0.0052034366 1438.2543)
(0.0043647109 -0.0042913802 1438.2557)
(0.00077832239 -0.0032129869 1438.2561)
(-0.00075511266 0.00025726243 1438.2529)
(-0.0032695996 0.00072923614 1438.2524)
(-0.0067476044 0.00089594671 1438.2518)
(-0.0050525368 0.0008421727 1438.2506)
(0.00066769631 0.00066769631 1438.2505)
(0.0034793941 0.00043448623 1438.2509)
(0.0065967415 0.00015974533 1438.2519)
(0.0074264772 -6.659082e-05 1438.254)
(0.0044435618 -0.0001431194 1438.2554)
(0.00082932756 -0.00010537432 1438.2559)
(-0.00069068626 0.0032961619 1438.2535)
(-0.0031495721 0.0036310134 1438.253)
(-0.0068001475 0.00386315 1438.2523)
(-0.0052450577 0.0037531323 1438.251)
(0.00043448623 0.0034793941 1438.2509)
(0.0032451813 0.0032451813 1438.2512)
(0.0063712555 0.0030602015 1438.2521)
(0.0072397121 0.0029273977 1438.2542)
(0.0043259274 0.0028618536 1438.2556)
(0.00080348578 0.0028899851 1438.2561)
(-0.00053187833 0.0047161819 1438.2545)
(-0.0027026115 0.0055212513 1438.2541)
(-0.0066254855 0.0065551204 1438.2534)
(-0.0054362927 0.0068723326 1438.2521)
(0.00015974533 0.0065967415 1438.2519)
(0.0030602015 0.0063712555 1438.2521)
(0.0062789579 0.0062789579 1438.253)
(0.0072281293 0.0062814594 1438.2551)
(0.0044061492 0.006304963 1438.2566)
(0.00084808191 0.0063296808 1438.2572)
(-0.00015397333 0.0044980298 1438.2559)
(-0.0013106336 0.0046250312 1438.2558)
(-0.0054490662 0.0062815647 1438.2555)
(-0.0052034366 0.0075425768 1438.2543)
(-6.6590813e-05 0.0074264772 1438.254)
(0.0029273977 0.0072397121 1438.2542)
(0.0062814594 0.0072281293 1438.2551)
(0.0072657172 0.0072657172 1438.2573)
(0.0043741489 0.0069760873 1438.2588)
(0.00081996434 0.0060119931 1438.2594)
(-0.00044721073 0.00364813 1438.2569)
(-0.00091907661 0.0019227987 1438.2566)
(-0.0037079399 0.0024531121 1438.2565)
(-0.0042913802 0.0043647109 1438.2557)
(-0.00014311939 0.0044435618 1438.2554)
(0.0028618536 0.0043259274 1438.2556)
(0.006304963 0.0044061492 1438.2566)
(0.0069760873 0.0043741489 1438.2588)
(0.0031524251 0.0031524251 1438.2601)
(0.00020535243 0.0026225905 1438.2598)
(-0.0013041942 0.0011681153 1438.2578)
(-0.0025056515 0.00031113181 1438.257)
(-0.003007154 0.00011039869 1438.2568)
(-0.0032129869 0.00077832239 1438.2561)
(-0.00010537432 0.00082932756 1438.2559)
(0.0028899851 0.00080348578 1438.2561)
(0.0063296808 0.00084808191 1438.2572)
(0.006011993 0.00081996434 1438.2594)
(0.0026225905 0.00020535242 1438.2598)
(0.00046674127 0.00046674127 1438.2601)
(-0.0012143179 -0.0012143179 1398.1191)
(-0.0020612558 0.00038525802 1398.1185)
(-0.0072145735 -0.0019111532 1398.1182)
(-0.0078954978 -0.0011706904 1398.117)
(0.00054043809 -0.00090110293 1398.117)
(0.004053006 -0.00084726912 1398.1175)
(0.0058888611 -0.00067081431 1398.1184)
(0.0056957229 -0.00018853943 1398.1197)
(0.0045786995 -0.0005435244 1398.1207)
(0.0014533153 -0.0015550466 1398.1215)
(0.00038525802 -0.0020612558 1398.1185)
(-0.0031065087 -0.0031065087 1398.1183)
(-0.0095484961 -0.0059455943 1398.1175)
(-0.0063804223 -0.0043184379 1398.1165)
(0.00102557 -0.0037733531 1398.1166)
(0.004398439 -0.0036971804 1398.1171)
(0.0068769557 -0.0032167774 1398.118)
(0.0058866577 -0.001511351 1398.1196)
(0.0025289387 -0.0010794756 1398.1204)
(0.00044179311 -0.0029753497 1398.1208)
(-0.0019111532 -0.0072145735 1398.1182)
(-0.0059455943 -0.0095484961 1398.1175)
(-0.0084265027 -0.0084265027 1398.117)
(-0.0057232566 -0.0076963811 1398.1161)
(0.0011616956 -0.0075517855 1398.1161)
(0.0046095818 -0.007671288 1398.1166)
(0.0080746905 -0.0075243008 1398.1175)
(0.0078330246 -0.0061443853 1398.1194)
(0.0031147008 -0.0041375977 1398.1204)
(0.00018939927 -0.0033925106 1398.1206)
(-0.0011706904 -0.0078954978 1398.117)
(-0.0043184378 -0.0063804224 1398.1165)
(-0.0076963811 -0.0057232566 1398.1161)
(-0.0055057051 -0.0055057051 1398.1152)
(0.0010506632 -0.0055885483 1398.1152)
(0.0044259237 -0.0058581859 1398.1155)
(0.0084038584 -0.0061280824 1398.1164)
(0.0092733608 -0.0058766002 1398.1184)
(0.0052808134 -0.0048314736 1398.1196)
(0.00093851778 -0.0036177794 1398.1201)
(-0.00090110293 0.00054043809 1398.117)
(-0.0037733531 0.00102557 1398.1166)
(-0.0075517855 0.0011616956 1398.1161)
(-0.0055885483 0.0010506632 1398.1152)
(0.00080921477 0.00080921476 1398.1152)
(0.0040700476 0.00050580717 1398.1154)
(0.0080562763 0.00016069646 1398.1162)
(0.0091296334 -0.00010918555 1398.1181)
(0.0053735216 -0.00018541409 1398.1194)
(0.00099852877 -0.00011899573 1398.1199)
(-0.00084726912 0.004053006 1398.1175)
(-0.0036971804 0.004398439 1398.1171)
(-0.007671288 0.0046095818 1398.1166)
(-0.005858186 0.0044259237 1398.1155)
(0.00050580716 0.0040700476 1398.1154)
(0.0037774054 0.0037774054 1398.1156)
(0.0077888657 0.0035597475 1398.1163)
(0.0089272503 0.0034256986 1398.1182)
(0.0052710032 0.0033951879 1398.1195)
(0.00098279669 0.0034969649 1398.12)
(-0.00067081431 0.0058888611 1398.1184)
(-0.0032167774 0.0068769557 1398.118)
(-0.0075243007 0.0080746905 1398.1175)
(-0.0061280824 0.0084038584 1398.1164)
(0.00016069646 0.0080562763 1398.1162)
(0.0035597475 0.0077888657 1398.1163)
(0.0077045696 0.0077045696 1398.117)
(0.0089650738 0.0077605814 1398.119)
(0.0054447878 0.0078574019 1398.1203)
(0.0010663801 0.007951229 1398.1209)
(-0.00018853943 0.0056957229 1398.1197)
(-0.001511351 0.0058866577 1398.1196)
(-0.0061443853 0.0078330246 1398.1194)
(-0.0058766002 0.0092733608 1398.1184)
(-0.00010918555 0.0091296334 1398.1181)
(0.0034256986 0.0089272503 1398.1182)
(0.0077605814 0.0089650737 1398.119)
(0.0090800826 0.0090800826 1398.121)
(0.0054616508 0.008718371 1398.1224)
(0.0010453481 0.0072760144 1398.1231)
(-0.0005435244 0.0045786995 1398.1207)
(-0.0010794756 0.0025289387 1398.1204)
(-0.0041375977 0.0031147008 1398.1204)
(-0.0048314736 0.0052808134 1398.1196)
(-0.00018541408 0.0053735216 1398.1194)
(0.0033951879 0.0052710032 1398.1195)
(0.0078574019 0.0054447878 1398.1203)
(0.008718371 0.0054616508 1398.1224)
(0.0036407197 0.0036407197 1398.1236)
(0.00010480906 0.0029619333 1398.1234)
(-0.0015550466 0.0014533153 1398.1215)
(-0.0029753497 0.00044179311 1398.1208)
(-0.0033925107 0.00018939926 1398.1206)
(-0.0036177794 0.00093851779 1398.1201)
(-0.00011899573 0.00099852877 1398.1199)
(0.0034969649 0.00098279669 1398.12)
(0.007951229 0.0010663801 1398.1209)
(0.0072760144 0.0010453481 1398.1231)
(0.0029619333 0.00010480905 1398.1234)
(0.00059282387 0.00059282386 1398.1237)
(-0.0013976773 -0.0013976773 1354.9159)
(-0.0024248017 0.00033023233 1354.9154)
(-0.0078615818 -0.0021134365 1354.9152)
(-0.0084136562 -0.0012950359 1354.9142)
(0.0008302252 -0.0010111323 1354.9143)
(0.0047078614 -0.0009726714 1354.9148)
(0.006905772 -0.00078718194 1354.9155)
(0.0067644962 -0.00021328437 1354.9167)
(0.0054302701 -0.00062822033 1354.9175)
(0.0017161798 -0.0017790603 1354.9182)
(0.00033023233 -0.0024248017 1354.9154)
(-0.0034984404 -0.0034984404 1354.9152)
(-0.010299484 -0.0064886784 1354.9147)
(-0.0067602 -0.0047025638 1354.9139)
(0.0013137719 -0.0041450642 1354.9141)
(0.005043787 -0.0041267604 1354.9145)
(0.0080448525 -0.0036375257 1354.9152)
(0.0070029386 -0.0016589836 1354.9166)
(0.0030816062 -0.0012027692 1354.9173)
(0.00056533983 -0.0033808564 1354.9176)
(-0.0021134365 -0.0078615818 1354.9152)
(-0.0064886784 -0.010299484 1354.9147)
(-0.0090657053 -0.0090657053 1354.9143)
(-0.006070042 -0.0082886978 1354.9136)
(0.0014060286 -0.0081767759 1354.9137)
(0.0052153999 -0.0083751079 1354.9141)
(0.0093735488 -0.00827433 1354.9148)
(0.0091992527 -0.0067248225 1354.9164)
(0.0037083973 -0.0044909551 1354.9173)
(0.00026412166 -0.0037146312 1354.9175)
(-0.0012950359 -0.0084136562 1354.9142)
(-0.0047025638 -0.0067602 1354.9139)
(-0.0082886978 -0.006070042 1354.9136)
(-0.0058712706 -0.0058712706 1354.9129)
(0.0012273618 -0.0060107509 1354.913)
(0.0049462329 -0.0063657478 1354.9132)
(0.0096951379 -0.0067237964 1354.9139)
(0.010786313 -0.0064692535 1354.9155)
(0.0060917975 -0.0053149936 1354.9166)
(0.0010828891 -0.0039868968 1354.917)
(-0.0010111323 0.0008302252 1354.9143)
(-0.0041450642 0.0013137719 1354.9141)
(-0.0081767759 0.0014060286 1354.9137)
(-0.0060107509 0.0012273618 1354.913)
(0.00091155147 0.00091155147 1354.913)
(0.0045023545 0.00053292205 1354.9131)
(0.0092700431 0.00011434832 1354.9137)
(0.010608055 -0.00020103199 1354.9153)
(0.0061907539 -0.00027900974 1354.9164)
(0.0011495195 -0.00018507137 1354.9168)
(-0.0009726714 0.0047078614 1354.9148)
(-0.0041267604 0.005043787 1354.9145)
(-0.0083751079 0.0052153999 1354.9141)
(-0.0063657478 0.004946233 1354.9132)
(0.00053292204 0.0045023545 1354.9131)
(0.0041490298 0.0041490298 1354.9132)
(0.0089611839 0.003899913 1354.9137)
(0.010392955 0.0037697895 1354.9153)
(0.0061077581 0.0037834392 1354.9164)
(0.0011455147 0.0039702432 1354.9168)
(-0.00078718194 0.006905772 1354.9155)
(-0.0036375257 0.0080448525 1354.9152)
(-0.00827433 0.0093735488 1354.9148)
(-0.0067237964 0.0096951379 1354.9139)
(0.00011434831 0.0092700431 1354.9137)
(0.003899913 0.0089611839 1354.9137)
(0.0088908029 0.0088908029 1354.9142)
(0.010491582 0.0090138936 1354.9158)
(0.0063912076 0.0092075228 1354.917)
(0.0012740555 0.0094016827 1354.9176)
(-0.00021328436 0.0067644962 1354.9167)
(-0.0016589836 0.0070029386 1354.9166)
(-0.0067248225 0.0091992527 1354.9164)
(-0.0064692535 0.010786313 1354.9155)
(-0.00020103199 0.010608055 1354.9153)
(0.0037697895 0.010392955 1354.9153)
(0.0090138936 0.010491582 1354.9158)
(0.010709675 0.010709675 1354.9175)
(0.0064955473 0.010318923 1354.9188)
(0.0012749546 0.0084369315 1354.9195)
(-0.00062822033 0.0054302701 1354.9175)
(-0.0012027693 0.0030816062 1354.9173)
(-0.0044909551 0.0037083973 1354.9173)
(-0.0053149936 0.0060917975 1354.9166)
(-0.00027900974 0.0061907539 1354.9164)
(0.0037834392 0.0061077581 1354.9164)
(0.0092075229 0.0063912075 1354.917)
(0.010318923 0.0064955473 1354.9188)
(0.0041184637 0.0041184637 1354.92)
(1.9394541e-05 0.0032863917 1354.9197)
(-0.0017790603 0.0017161798 1354.9182)
(-0.0033808564 0.00056533983 1354.9176)
(-0.0037146312 0.00026412167 1354.9175)
(-0.0039868968 0.0010828891 1354.917)
(-0.00018507138 0.0011495195 1354.9168)
(0.0039702432 0.0011455147 1354.9168)
(0.0094016828 0.0012740555 1354.9176)
(0.0084369316 0.0012749546 1354.9195)
(0.0032863917 1.9394542e-05 1354.9197)
(0.00072023997 0.00072023997 1354.9201)
(-0.0015481033 -0.0015481033 1309.1047)
(-0.0026916256 0.00029299786 1309.1043)
(-0.008339473 -0.0022702464 1309.1042)
(-0.0087848734 -0.0013818408 1309.1035)
(0.0011069514 -0.0010881585 1309.1036)
(0.0052419879 -0.001068771 1309.104)
(0.0077361302 -0.00088160079 1309.1046)
(0.0076558981 -0.00022877768 1309.1055)
(0.0061614508 -0.00070074392 1309.1062)
(0.0019476784 -0.0019774117 1309.1068)
(0.00029299786 -0.0026916256 1309.1043)
(-0.0037748403 -0.0037748403 1309.1042)
(-0.010851731 -0.0068810674 1309.1038)
(-0.0070117415 -0.0049557825 1309.1033)
(0.0015765562 -0.0043979465 1309.1034)
(0.0055518244 -0.0044484103 1309.1038)
(0.0089961201 -0.0039718313 1309.1043)
(0.0079271835 -0.0017611258 1309.1054)
(0.0035384997 -0.0012941733 1309.106)
(0.00067101058 -0.003730524 1309.1062)
(-0.0022702464 -0.0083394729 1309.1042)
(-0.0068810674 -0.010851731 1309.1038)
(-0.0095204152 -0.0095204152 1309.1036)
(-0.0063017525 -0.0087101432 1309.1031)
(0.0016143237 -0.0086403316 1309.1032)
(0.0056681031 -0.0089265859 1309.1035)
(0.010423415 -0.0088882148 1309.104)
(0.010333556 -0.0072038238 1309.1053)
(0.0041920526 -0.0047808224 1309.106)
(0.00032344462 -0.0039871908 1309.1061)
(-0.0013818408 -0.0087848734 1309.1035)
(-0.0049557825 -0.0070117415 1309.1033)
(-0.0087101432 -0.0063017525 1309.1031)
(-0.0061316579 -0.0061316579 1309.1026)
(0.0013601136 -0.0063350685 1309.1027)
(0.0053039411 -0.0067815066 1309.1028)
(0.010718882 -0.0072354547 1309.1032)
(0.012034576 -0.0069935426 1309.1046)
(0.0067551328 -0.0057544739 1309.1054)
(0.0012000984 -0.0043336439 1309.1057)
(-0.0010881585 0.0011069514 1309.1036)
(-0.0043979465 0.0015765562 1309.1034)