/*--------------------------------*- C++ -*----------------------------------*\
| =========                 |                                                 |
| \\      /  F ield         | OpenFOAM: The Open Source CFD Toolbox           |
|  \\    /   O peration     | Version:  v2106                                 |
|   \\  /    A nd           | Website:  www.openfoam.com                      |
|    \\/     M anipulation  |                                                 |
\*---------------------------------------------------------------------------*/
FoamFile
{
    version     2.0;
    format      ascii;
    arch        "LSB;label=32;scalar=64";
    class       volScalarField;
    location    "10";
    object      laplacianT;
}
// * * * * * * * * * * * * * * * * * * * * * * * * * * * * * * * * * * * * * //

dimensions      [0 -2 0 1 0 0 0];

internalField   nonuniform List<scalar> 
4000
(
75191.799
75192.003
75191.417
75191.743
75191.612
75191.606
75191.645
75191.695
75191.733
75191.751
75192.003
75191.206
75191.51
75191.572
75191.438
75191.438
75191.483
75191.536
75191.568
75191.615
75191.417
75191.51
75191.384
75191.462
75191.345
75191.353
75191.404
75191.463
75191.484
75191.558
75191.743
75191.572
75191.462
75191.557
75191.447
75191.457
75191.515
75191.586
75191.604
75191.616
75191.612
75191.438
75191.345
75191.447
75191.337
75191.346
75191.404
75191.484
75191.522
75191.562
75191.606
75191.438
75191.353
75191.457
75191.346
75191.353
75191.408
75191.485
75191.524
75191.567
75191.645
75191.483
75191.404
75191.515
75191.404
75191.408
75191.461
75191.536
75191.573
75191.616
75191.695
75191.536
75191.463
75191.586
75191.484
75191.485
75191.536
75191.61
75191.646
75191.687
75191.733
75191.568
75191.484
75191.604
75191.522
75191.524
75191.573
75191.646
75191.678
75191.713
75191.751
75191.615
75191.558
75191.616
75191.562
75191.567
75191.616
75191.687
75191.713
75191.743
-2578.1956
-2578.1056
-2579.6967
-2578.1178
-2578.37
-2578.478
-2578.5002
-2578.5096
-2578.5507
-2578.6035
-2578.1056
-2579.6147
-2578.9974
-2578.177
-2578.4784
-2578.5775
-2578.5972
-2578.6194
-2578.6243
-2578.5092
-2579.6967
-2578.9974
-2579.3547
-2578.547
-2578.8213
-2578.908
-2578.931
-2579.0127
-2579.1079
-2578.7865
-2578.1178
-2578.177
-2578.547
-2577.7227
-2577.9858
-2578.0611
-2578.0656
-2578.1541
-2578.393
-2578.4277
-2578.37
-2578.4784
-2578.8213
-2577.9858
-2578.2445
-2578.3152
-2578.3034
-2578.3486
-2578.5182
-2578.4858
-2578.478
-2578.5775
-2578.908
-2578.0611
-2578.3152
-2578.386
-2578.3732
-2578.4121
-2578.5665
-2578.5074
-2578.5002
-2578.5972
-2578.931
-2578.0656
-2578.3034
-2578.3732
-2578.3611
-2578.4007
-2578.5555
-2578.497
-2578.5096
-2578.6194
-2579.0127
-2578.1541
-2578.3486
-2578.4121
-2578.4007
-2578.4429
-2578.6031
-2578.557
-2578.5507
-2578.6243
-2579.1079
-2578.393
-2578.5182
-2578.5665
-2578.5555
-2578.6031
-2578.7757
-2578.7381
-2578.6035
-2578.5092
-2578.7865
-2578.4277
-2578.4858
-2578.5074
-2578.497
-2578.557
-2578.7381
-2578.6004
-3048.5464
-3047.9781
-3049.6328
-3047.718
-3048.0955
-3048.2494
-3048.2804
-3048.3041
-3048.3672
-3048.6627
-3047.9781
-3049.7022
-3048.7716
-3047.7982
-3048.2287
-3048.3655
-3048.4062
-3048.5038
-3048.341
-3048.1395
-3049.6328
-3048.7716
-3049.0144
-3048.0489
-3048.4394
-3048.5512
-3048.5914
-3048.8425
-3048.9519
-3048.5468
-3047.718
-3047.7982
-3048.0489
-3047.0605
-3047.4349
-3047.5252
-3047.5209
-3047.7595
-3048.061
-3048.1288
-3048.0955
-3048.2287
-3048.4394
-3047.4349
-3047.8038
-3047.8871
-3047.8557
-3048.0258
-3048.2244
-3048.1977
-3048.2494
-3048.3655
-3048.5512
-3047.5252
-3047.8871
-3047.9709
-3047.9375
-3048.0971
-3048.2719
-3048.208
-3048.2804
-3048.4062
-3048.5914
-3047.5209
-3047.8557
-3047.9375
-3047.9056
-3048.067
-3048.2443
-3048.1921
-3048.3041
-3048.5038
-3048.8425
-3047.7595
-3048.0258
-3048.0971
-3048.067
-3048.2352
-3048.428
-3048.411
-3048.3672
-3048.341
-3048.9519
-3048.061
-3048.2244
-3048.2719
-3048.2443
-3048.428
-3048.6541
-3048.5825
-3048.6627
-3048.1395
-3048.5468
-3048.1288
-3048.1977
-3048.208
-3048.1921
-3048.411
-3048.5825
-3048.3515
-3472.5061
-3471.6291
-3473.5293
-3471.2926
-3471.7693
-3471.9594
-3472.0006
-3472.0559
-3472.0297
-3472.4747
-3471.6291
-3473.4621
-3472.407
-3471.2754
-3471.8083
-3471.9691
-3472.0351
-3472.3073
-3471.9927
-3471.7226
-3473.5293
-3472.407
-3472.7021
-3471.5759
-3472.0576
-3472.178
-3472.223
-3472.7089
-3472.7755
-3472.2282
-3471.2926
-3471.2754
-3471.5759
-3470.422
-3470.8839
-3470.974
-3470.9506
-3471.4122
-3471.723
-3471.7512
-3471.7693
-3471.8083
-3472.0576
-3470.8839
-3471.3392
-3471.4202
-3471.3593
-3471.7298
-3471.9101
-3471.8244
-3471.9594
-3471.9691
-3472.178
-3470.974
-3471.4202
-3471.502
-3471.438
-3471.7938
-3471.9429
-3471.8147
-3472.0006
-3472.0351
-3472.223
-3470.9506
-3471.3593
-3471.438
-3471.3761
-3471.7354
-3471.8913
-3471.7958
-3472.0559
-3472.3073
-3472.7089
-3471.4122
-3471.7298
-3471.7938
-3471.7354
-3472.1086
-3472.2975
-3472.2702
-3472.0297
-3471.9927
-3472.7755
-3471.723
-3471.9101
-3471.9429
-3471.8913
-3472.2975
-3472.5468
-3472.2018
-3472.4747
-3471.7226
-3472.2282
-3471.7512
-3471.8244
-3471.8147
-3471.7958
-3472.2702
-3472.2018
-3472.0655
-3849.3416
-3848.3067
-3850.4426
-3847.9057
-3848.4708
-3848.6897
-3848.7405
-3848.872
-3848.8442
-3849.4259
-3848.3067
-3850.2988
-3849.1426
-3847.8624
-3848.4851
-3848.6561
-3848.7267
-3849.1913
-3848.7898
-3848.4852
-3850.4426
-3849.1426
-3849.4983
-3848.2213
-3848.783
-3848.8999
-3848.9296
-3849.6668
-3849.7364
-3849.0808
-3847.9057
-3847.8624
-3848.2213
-3846.9124
-3847.4509
-3847.5294
-3847.468
-3848.1721
-3848.5362
-3848.5487
-3848.4708
-3848.4851
-3848.783
-3847.4509
-3847.9818
-3848.0494
-3847.9402
-3848.5323
-3848.7411
-3848.6222
-3848.6897
-3848.6561
-3848.8999
-3847.5294
-3848.0494
-3848.1177
-3848.0043
-3848.5776
-3848.7485
-3848.5847
-3848.7405
-3848.7267
-3848.9296
-3847.468
-3847.9402
-3848.0043
-3847.8934
-3848.4722
-3848.6568
-3848.5569
-3848.872
-3849.1913
-3849.6668
-3848.1721
-3848.5323
-3848.5776
-3848.4722
-3849.0761
-3849.3246
-3849.3547
-3848.8442
-3848.7898
-3849.7364
-3848.5362
-3848.7411
-3848.7485
-3848.6568
-3849.3246
-3849.6941
-3848.9846
-3849.4259
-3848.4852
-3849.0808
-3848.5487
-3848.6222
-3848.5847
-3848.5569
-3849.3547
-3848.9846
-3848.9587
-4179.3055
-4178.1334
-4180.474
-4177.6674
-4178.3137
-4178.5537
-4178.6004
-4178.7931
-4178.7728
-4179.4752
-4178.1334
-4180.2638
-4179.0174
-4177.6064
-4178.3113
-4178.4845
-4178.5415
-4179.1739
-4178.693
-4178.3592
-4180.474
-4179.0174
-4179.4279
-4178.0177
-4178.6524
-4178.7588
-4178.7561
-4179.7181
-4179.7897
-4179.038
-4177.6674
-4177.6064
-4178.0177
-4176.5716
-4177.18
-4177.2403
-4177.1244
-4178.0454
-4178.4572
-4178.4572
-4178.3137
-4178.3113
-4178.6524
-4177.18
-4177.7801
-4177.8276
-4177.6541
-4178.4433
-4178.6767
-4178.5288
-4178.5537
-4178.4845
-4178.7588
-4177.2403
-4177.8276
-4177.8759
-4177.6968
-4178.463
-4178.652
-4178.4575
-4178.6004
-4178.5415
-4178.7561
-4177.1244
-4177.6541
-4177.6968
-4177.5201
-4178.2934
-4178.5029
-4178.4082
-4178.7931
-4179.1739
-4179.7181
-4178.0454
-4178.4433
-4178.463
-4178.2934
-4179.1031
-4179.4133
-4179.5364
-4178.7728
-4178.693
-4179.7897
-4178.4572
-4178.6767
-4178.652
-4178.5029
-4179.4133
-4179.9351
-4178.8682
-4179.4752
-4178.3592
-4179.038
-4178.4572
-4178.5288
-4178.4575
-4178.4082
-4179.5364
-4178.8682
-4178.9553
-4462.9011
-4461.5999
-4464.1182
-4461.0767
-4461.7989
-4462.0559
-4462.0918
-4462.3332
-4462.3182
-4463.1314
-4461.5999
-4463.8429
-4462.5216
-4461.0008
-4461.7816
-4461.9529
-4461.9877
-4462.7669
-4462.2105
-4461.8534
-4464.1182
-4462.5216
-4462.9845
-4461.4615
-4462.1637
-4462.2562
-4462.2127
-4463.3739
-4463.4442
-4462.6089
-4461.0767
-4461.0008
-4461.4615
-4459.8989
-4460.5718
-4460.6111
-4460.4333
-4461.5455
-4461.9964
-4461.9865
-4461.7989
-4461.7816
-4462.1637
-4460.5718
-4461.2359
-4461.2606
-4461.0158
-4461.9778
-4462.2286
-4462.0552
-4462.0559
-4461.9529
-4462.2562
-4460.6111
-4461.2606
-4461.2862
-4461.0343
-4461.9691
-4462.1692
-4461.9476
-4462.0918
-4461.9877
-4462.2127
-4460.4333
-4461.0158
-4461.0343
-4460.7846
-4461.7275
-4461.9539
-4461.8686
-4462.3332
-4462.7669
-4463.3739
-4461.5455
-4461.9778
-4461.9691
-4461.7275
-4462.7169
-4463.0809
-4463.3109
-4462.3182
-4462.2105
-4463.4442
-4461.9964
-4462.2286
-4462.1692
-4461.9539
-4463.0809
-4463.757
-4462.3614
-4463.1314
-4461.8534
-4462.6089
-4461.9865
-4462.0552
-4461.9476
-4461.8686
-4463.3109
-4462.3614
-4462.5642
-4701.1016
-4699.6843
-4702.3555
-4699.1154
-4699.9078
-4700.1786
-4700.2004
-4700.4815
-4700.4689
-4701.3839
-4699.6843
-4702.0188
-4700.6395
-4699.0303
-4699.8806
-4700.0472
-4700.0548
-4700.9622
-4700.3344
-4699.9595
-4702.3555
-4700.6395
-4701.1534
-4699.5386
-4700.3024
-4700.379
-4700.2901
-4701.6265
-4701.6922
-4700.7845
-4699.1154
-4699.0303
-4699.5386
-4697.8808
-4698.6128
-4698.6294
-4698.3863
-4699.6652
-4700.1466
-4700.128
-4699.9078
-4699.8806
-4700.3024
-4698.6128
-4699.3354
-4699.3359
-4699.017
-4700.1287
-4700.39
-4700.1931
-4700.1786
-4700.0472
-4700.379
-4698.6294
-4699.3359
-4699.3374
-4699.0099
-4700.0905
-4700.2947
-4700.0486
-4700.2004
-4700.0548
-4700.2901
-4698.3863
-4699.017
-4699.0099
-4698.6843
-4699.7735
-4700.0093
-4699.9347
-4700.4815
-4700.9622
-4701.6265
-4699.6652
-4700.1287
-4700.0905
-4699.7735
-4700.9186
-4701.3271
-4701.6676
-4700.4689
-4700.3344
-4701.6922
-4700.1466
-4700.39
-4700.2947
-4700.0093
-4701.3271
-4702.1495
-4700.4562
-4701.3839
-4699.9595
-4700.7845
-4700.128
-4700.1931
-4700.0486
-4699.9347
-4701.6676
-4700.4562
-4700.7749
-4895.2841
-4893.767
-4896.5671
-4893.1643
-4894.0207
-4894.3023
-4894.3078
-4894.6208
-4894.6075
-4895.6142
-4893.767
-4896.1748
-4894.7545
-4893.0775
-4893.9902
-4894.1496
-4894.1264
-4895.1444
-4894.4496
-4894.0602
-4896.5671
-4894.7545
-4895.3177
-4893.6315
-4894.4506
-4894.5097
-4894.3724
-4895.8603
-4895.9179
-4894.9473
-4893.1643
-4893.0775
-4893.6315
-4891.8992
-4892.6841
-4892.6771
-4892.3671
-4893.7891
-4894.2919
-4894.2638
-4894.0207
-4893.9902
-4894.4506
-4892.6841
-4893.4593
-4893.4348
-4893.0411
-4894.2802
-4894.5448
-4894.3249
-4894.3023
-4894.1496
-4894.5097
-4892.6771
-4893.4348
-4893.4114
-4893.0078
-4894.212
-4894.4138
-4894.1436
-4894.3078
-4894.1264
-4894.3724
-4892.3671
-4893.0411
-4893.0078
-4892.6055
-4893.8187
-4894.0566
-4893.9917
-4894.6208
-4895.1444
-4895.8603
-4893.7891
-4894.2802
-4894.212
-4893.8187
-4895.0962
-4895.5399
-4895.9884
-4894.6075
-4894.4496
-4895.9179
-4894.2919
-4894.5448
-4894.4138
-4894.0566
-4895.5399
-4896.4967
-4894.5353
-4895.6142
-4894.0602
-4894.9473
-4894.2638
-4894.3249
-4894.1436
-4893.9917
-4895.9884
-4894.5353
-4894.9673
-5047.1409
-5045.542
-5048.4474
-5044.9172
-5045.8305
-5046.12
-5046.1074
-5046.4452
-5046.4283
-5047.5151
-5045.542
-5048.0071
-5046.5618
-5044.8365
-5045.8039
-5045.9539
-5045.8973
-5047.0085
-5046.2512
-5045.8492
-5048.4474
-5046.5618
-5047.1717
-5045.4333
-5046.3009
-5046.3413
-5046.1541
-5047.7702
-5047.8162
-5046.7906
-5044.9172
-5044.8365
-5045.4333
-5043.6461
-5044.4776
-5044.4465
-5044.0696
-5045.6113
-5046.1268
-5046.087
-5045.8305
-5045.8039
-5046.3009
-5044.4776
-5045.2989
-5045.2492
-5044.7815
-5046.1264
-5046.3875
-5046.1437
-5046.12
-5045.9539
-5046.3413
-5044.4465
-5045.2492
-5045.2006
-5044.7217
-5046.0283
-5046.2212
-5045.9264
-5046.1074
-5045.8973
-5046.1541
-5044.0696
-5044.7815
-5044.7217
-5044.2436
-5045.5593
-5045.7924
-5045.7346
-5046.4452
-5047.0085
-5047.7702
-5045.6113
-5046.1264
-5046.0283
-5045.5593
-5046.9469
-5047.4165
-5047.9671
-5046.4283
-5046.2512
-5047.8162
-5046.1268
-5046.3875
-5046.2212
-5045.7924
-5047.4165
-5048.4941
-5046.2932
-5047.5151
-5045.8492
-5046.7906
-5046.087
-5046.1437
-5045.9264
-5045.7346
-5047.9671
-5046.2932
-5046.8332
-5158.6073
-5156.9458
-5159.9328
-5156.3092
-5157.2719
-5157.5663
-5157.5345
-5157.8903
-5157.8675
-5159.0216
-5156.9458
-5159.4532
-5157.9978
-5156.2421
-5157.2561
-5157.395
-5157.3034
-5158.4908
-5157.6759
-5157.262
-5159.9328
-5157.9978
-5158.651
-5156.8785
-5157.7873
-5157.8083
-5157.5706
-5159.2922
-5159.3234
-5158.2495
-5156.3092
-5156.2421
-5156.8785
-5155.0549
-5155.9259
-5155.8706
-5155.4282
-5157.0671
-5157.5869
-5157.5324
-5157.2719
-5157.2561
-5157.7873
-5155.9259
-5156.7866
-5156.7117
-5156.1721
-5157.6021
-5157.8535
-5157.5844
-5157.5663
-5157.395
-5157.8083
-5155.8706
-5156.7117
-5156.6381
-5156.0862
-5157.4748
-5157.6532
-5157.3325
-5157.5345
-5157.3034
-5157.5706
-5155.4282
-5156.1721
-5156.0862
-5155.5344
-5156.9321
-5157.1541
-5157.1
-5157.8903
-5158.4908
-5159.2922
-5157.0671
-5157.6021
-5157.4748
-5156.9321
-5158.4083
-5158.8951
-5159.5394
-5157.8675
-5157.6759
-5159.3234
-5157.5869
-5157.8535
-5157.6532
-5157.1541
-5158.8951
-5160.0789
-5157.6664
-5159.0216
-5157.262
-5158.2495
-5157.5324
-5157.5844
-5157.3325
-5157.1
-5159.5394
-5157.6664
-5158.307
-5231.8012
-5230.0964
-5233.1421
-5229.4573
-5230.4614
-5230.7582
-5230.7063
-5231.0741
-5231.043
-5232.2516
-5230.0964
-5232.6322
-5231.1803
-5229.4109
-5230.463
-5230.5893
-5230.4618
-5231.7094
-5230.8422
-5230.4165
-5233.1421
-5231.1803
-5231.8728
-5230.0828
-5231.0252
-5231.0265
-5230.7389
-5232.544
-5232.5576
-5231.4416
-5229.4573
-5229.4109
-5230.0828
-5228.2397
-5229.1431
-5229.0641
-5228.5584
-5230.2732
-5230.7896
-5230.7173
-5230.4614
-5230.463
-5231.0252
-5229.1431
-5230.0361
-5229.9366
-5229.3285
-5230.8241
-5231.0603
-5230.7641
-5230.7582
-5230.5893
-5231.0265
-5229.0641
-5229.9366
-5229.8386
-5229.2171
-5230.6685
-5230.8275
-5230.4796
-5230.7063
-5230.4618
-5230.7389
-5228.5584
-5229.3285
-5229.2171
-5228.5952
-5230.0554
-5230.2609
-5230.2066
-5231.0741
-5231.7094
-5232.544
-5230.2732
-5230.8241
-5230.6685
-5230.0554
-5231.5999
-5232.0957
-5232.8238
-5231.043
-5230.8422
-5232.5576
-5230.7896
-5231.0603
-5230.8275
-5230.2609
-5232.0957
-5233.3708
-5230.7737
-5232.2516
-5230.4165
-5231.4416
-5230.7173
-5230.7641
-5230.4796
-5230.2066
-5232.8238
-5230.7737
-5231.506
-5268.9719
-5267.2427
-5270.3247
-5266.6094
-5267.6466
-5267.943
-5267.871
-5268.245
-5268.2039
-5269.4538
-5267.2427
-5269.7939
-5268.3577
-5266.5896
-5267.6711
-5267.7837
-5267.6204
-5268.9129
-5267.999
-5267.5612
-5270.3247
-5268.3577
-5269.0846
-5267.2923
-5268.2607
-5268.2422
-5267.9062
-5269.7742
-5269.7678
-5268.6155
-5266.6094
-5266.5896
-5267.2923
-5265.4455
-5266.3739
-5266.2717
-5265.7065
-5267.477
-5267.983
-5267.8897
-5267.6466
-5267.6711
-5268.2607
-5266.3739
-5267.2918
-5267.1688
-5266.4966
-5268.0394
-5268.2558
-5267.9311
-5267.943
-5267.7837
-5268.2422
-5266.2717
-5267.1688
-5267.0472
-5266.3608
-5267.857
-5267.9926
-5267.6163
-5267.871
-5267.6204
-5267.9062
-5265.7065
-5266.4966
-5266.3608
-5265.6732
-5267.1779
-5267.3623
-5267.3038
-5268.245
-5268.9129
-5269.7742
-5267.477
-5268.0394
-5267.857
-5267.1779
-5268.7717
-5269.2689
-5270.0701
-5268.2039
-5267.999
-5269.7678
-5267.983
-5268.2558
-5267.9926
-5267.3623
-5269.2689
-5270.6204
-5267.8653
-5269.4538
-5267.5612
-5268.6155
-5267.8897
-5267.9311
-5267.6163
-5267.3038
-5270.0701
-5267.8653
-5268.6792
-5272.4561
-5270.7207
-5273.8173
-5270.1
-5271.1619
-5271.4555
-5271.3635
-5271.7389
-5271.6865
-5272.9647
-5270.7207
-5273.2746
-5271.8649
-5270.1116
-5271.2139
-5271.3119
-5271.1137
-5272.4368
-5271.4822
-5271.0321
-5273.8173
-5271.8649
-5272.621
-5270.8401
-5271.8268
-5271.7888
-5271.4069
-5273.3182
-5273.2902
-5272.1071
-5270.1
-5270.1116
-5270.8401
-5269.0037
-5269.9497
-5269.8256
-5269.2052
-5271.0126
-5271.5022
-5271.3851
-5271.1619
-5271.2139
-5271.8268
-5269.9497
-5270.8854
-5270.74
-5270.0091
-5271.5823
-5271.7752
-5271.4209
-5271.4555
-5271.3119
-5271.7888
-5269.8256
-5270.74
-5270.5961
-5269.8503
-5271.3748
-5271.484
-5271.0785
-5271.3635
-5271.1137
-5271.4069
-5269.2052
-5270.0091
-5269.8503
-5269.1026
-5270.6351
-5270.7949
-5270.7284
-5271.7389
-5272.4368
-5273.3182
-5271.0126
-5271.5823
-5271.3748
-5270.6351
-5272.2608
-5272.7527
-5273.6155
-5271.6865
-5271.4822
-5273.2902
-5271.5022
-5271.7752
-5271.484
-5270.7949
-5272.7527
-5274.1657
-5271.2784
-5272.9647
-5271.0321
-5272.1071
-5271.3851
-5271.4209
-5271.0785
-5270.7284
-5273.6155
-5271.2784
-5272.1633
-5244.6405
-5242.916
-5246.0065
-5242.3136
-5243.3919
-5243.6805
-5243.5692
-5243.9416
-5243.877
-5245.1712
-5242.916
-5245.4604
-5244.0867
-5242.3602
-5243.4748
-5243.5576
-5243.326
-5244.6665
-5243.6778
-5243.2151
-5246.0065
-5244.0867
-5244.8661
-5243.1091
-5244.1063
-5244.0495
-5243.625
-5245.5615
-5245.5107
-5244.3027
-5242.3136
-5242.3602
-5243.1091
-5241.2958
-5242.2521
-5242.1075
-5241.4372
-5243.2642
-5243.7324
-5243.5892
-5243.3919
-5243.4748
-5244.1063
-5242.2521
-5243.1983
-5243.0321
-5242.2487
-5243.837
-5244.0036
-5243.6193
-5243.6805
-5243.5576
-5244.0495
-5242.1075
-5243.0321
-5242.8676
-5242.0686
-5243.6066
-5243.6871
-5243.2523
-5243.5692
-5243.326
-5243.625
-5241.4372
-5242.2487
-5242.0686
-5241.2671
-5242.8125
-5242.9449
-5242.8671
-5243.9416
-5244.6665
-5245.5615
-5243.2642
-5243.837
-5243.6066
-5242.8125
-5244.4539
-5244.9347
-5245.8476
-5243.877
-5243.6778
-5245.5107
-5243.7324
-5244.0036
-5243.6871
-5242.9449
-5244.9347
-5246.3949
-5243.4006
-5245.1712
-5243.2151
-5244.3027
-5243.5892
-5243.6193
-5243.2523
-5242.8671
-5245.8476
-5243.4006
-5244.3453
-5187.9308
-5186.2328
-5189.2976
-5185.6534
-5186.7397
-5187.0213
-5186.8916
-5187.2573
-5187.1802
-5188.4785
-5186.2328
-5188.7559
-5187.4263
-5185.7371
-5186.8556
-5186.923
-5186.6602
-5188.0061
-5186.9898
-5186.5149
-5189.2976
-5187.4263
-5188.2229
-5186.5006
-5187.501
-5187.4264
-5186.9631
-5188.9081
-5188.8341
-5187.6068
-5185.6534
-5185.7371
-5186.5006
-5184.7219
-5185.6814
-5185.5177
-5184.8035
-5186.6345
-5187.0771
-5186.9063
-5186.7397
-5186.8556
-5187.501
-5185.6814
-5186.631
-5186.4458
-5185.6168
-5187.2061
-5187.3446
-5186.9306
-5187.0213
-5186.923
-5187.4264
-5185.5177
-5186.4458
-5186.2624
-5185.4172
-5186.9551
-5187.0059
-5186.5423
-5186.8916
-5186.6602
-5186.9631
-5184.8035
-5185.6168
-5185.4172
-5184.5689
-5186.1135
-5186.2169
-5186.1253
-5187.2573
-5188.0061
-5188.9081
-5186.6345
-5187.2061
-5186.9551
-5186.1135
-5187.7562
-5188.2211
-5189.1727
-5187.1802
-5186.9898
-5188.8341
-5187.0771
-5187.3446
-5187.0059
-5186.2169
-5188.2211
-5189.7147
-5186.6378
-5188.4785
-5186.5149
-5187.6068
-5186.9063
-5186.9306
-5186.5423
-5186.1253
-5189.1727
-5186.6378
-5187.6311
-5104.7242
-5103.0667
-5106.0872
-5102.5138
-5103.6
-5103.8728
-5103.7262
-5104.0821
-5103.9926
-5105.2839
-5103.0667
-5105.5569
-5104.2783
-5102.6356
-5103.7498
-5103.8019
-5103.5105
-5104.8509
-5103.814
-5103.3276
-5106.0872
-5104.2783
-5105.0859
-5103.4079
-5104.4042
-5104.3128
-5103.8152
-5105.7535
-5105.6566
-5104.4161
-5102.5138
-5102.6356
-5103.4079
-5101.6738
-5102.6295
-5102.4487
-5101.6969
-5103.5177
-5103.9315
-5103.7324
-5103.6
-5103.7498
-5104.4042
-5102.6295
-5103.5756
-5103.3735
-5102.5061
-5104.0842
-5104.1936
-5103.751
-5103.8728
-5103.8019
-5104.3128
-5102.4487
-5103.3735
-5103.1732
-5102.2893
-5103.8151
-5103.8357
-5103.3447
-5103.7262
-5103.5105
-5103.8152
-5101.6969
-5102.5061
-5102.2893
-5101.4016
-5102.9334
-5103.0069
-5102.8996
-5104.0821
-5104.8509
-5105.7535
-5103.5177
-5104.0842
-5103.8151
-5102.9334
-5104.5645
-5105.0094
-5105.9888
-5103.9926
-5103.814
-5105.6566
-5103.9315
-5104.1936
-5103.8357
-5103.0069
-5105.0094
-5106.5235
-5103.3877
-5105.2839
-5103.3276
-5104.4161
-5103.7324
-5103.751
-5103.3447
-5102.8996
-5105.9888
-5103.3877
-5104.4185
-4997.3866
-4995.782
-4998.7409
-4995.2583
-4996.3366
-4996.599
-4996.437
-4996.7806
-4996.6791
-4997.9534
-4995.782
-4998.228
-4997.006
-4995.4178
-4996.52
-4996.557
-4996.2401
-4997.5654
-4996.515
-4996.0181
-4998.7409
-4997.006
-4997.8183
-4996.1929
-4997.1782
-4997.0716
-4996.5445
-4998.4624
-4998.3433
-4997.0958
-4995.2583
-4995.4178
-4996.1929
-4994.5121
-4995.4574
-4995.2616
-4994.479
-4996.2769
-4996.6597
-4996.4325
-4996.3366
-4996.52
-4997.1782
-4995.4574
-4996.3937
-4996.1767
-4995.2785
-4996.8345
-4996.9147
-4996.4453
-4996.599
-4996.557
-4997.0716
-4995.2616
-4996.1767
-4995.9617
-4995.0468
-4996.5499
-4996.541
-4996.0247
-4996.437
-4996.2401
-4996.5445
-4994.479
-4995.2785
-4995.0468
-4994.1275
-4995.6359
-4995.6795
-4995.5555
-4996.7806
-4997.5654
-4998.4624
-4996.2769
-4996.8345
-4996.5499
-4995.6359
-4997.244
-4997.666
-4998.6628
-4996.6791
-4996.515
-4998.3433
-4996.6597
-4996.9147
-4996.541
-4995.6795
-4997.666
-4999.1883
-4996.0165
-4997.9534
-4996.0181
-4997.0958
-4996.4325
-4996.4453
-4996.0247
-4995.5555
-4998.6628
-4996.0165
-4997.0741
-4868.2331
-4866.692
-4869.5732
-4866.1992
-4867.2622
-4867.5128
-4867.3372
-4867.6666
-4867.554
-4868.8022
-4866.692
-4869.0828
-4867.9221
-4866.3948
-4867.4778
-4867.5002
-4867.1612
-4868.4628
-4867.406
-4866.9004
-4869.5732
-4867.9221
-4868.7327
-4867.1671
-4868.135
-4868.0145
-4867.463
-4869.3483
-4869.2083
-4867.9603
-4866.1992
-4866.3948
-4867.1671
-4865.5471
-4866.4758
-4866.267
-4865.4606
-4867.2245
-4867.5748
-4867.3205
-4867.2622
-4867.4778
-4868.135
-4866.4758
-4867.3959
-4867.1664
-4866.2453
-4867.7695
-4867.8211
-4867.3275
-4867.5128
-4867.5002
-4868.0145
-4866.267
-4867.1664
-4866.939
-4866.0009
-4867.4723
-4867.4349
-4866.8962
-4867.3372
-4867.1612
-4867.463
-4865.4606
-4866.2453
-4866.0009
-4865.0581
-4866.5338
-4866.5485
-4866.4074
-4867.6666
-4868.4628
-4869.3483
-4867.2245
-4867.7695
-4867.4723
-4866.5338
-4868.1091
-4868.5058
-4869.5106
-4867.554
-4867.406
-4869.2083
-4867.5748
-4867.8211
-4867.4349
-4866.5485
-4868.5058
-4870.0251
-4866.8392
-4868.8022
-4866.9004
-4867.9603
-4867.3205
-4867.3275
-4866.8962
-4866.4074
-4869.5106
-4866.8392
-4867.9136
-4719.5106
-4718.0419
-4720.8308
-4717.581
-4718.6218
-4718.8595
-4718.6723
-4718.9859
-4718.8634
-4720.0774
-4718.0419
-4720.3667
-4719.271
-4717.8103
-4718.8672
-4718.8757
-4718.5183
-4719.7887
-4718.7326
-4718.2205
-4720.8308
-4719.271
-4720.0739
-4718.5741
-4719.5184
-4719.3858
-4718.8152
-4720.6572
-4720.498
-4719.2562
-4717.581
-4717.8103
-4718.5741
-4717.0212
-4717.9276
-4717.708
-4716.8849
-4718.605
-4718.9221
-4718.6423
-4718.6218
-4718.8672
-4719.5184
-4717.9276
-4718.8258
-4718.5861
-4717.6498
-4719.1342
-4719.1582
-4718.6439
-4718.8595
-4718.8757
-4719.3858
-4717.708
-4718.5861
-4718.3484
-4717.3952
-4718.827
-4718.7629
-4718.2054
-4718.6723
-4718.5183
-4718.8152
-4716.8849
-4717.6498
-4717.3952
-4716.4368
-4717.8721
-4717.8591
-4717.7015
-4718.9859
-4719.7887
-4720.6572
-4718.605
-4719.1342
-4718.827
-4717.8721
-4719.4059
-4719.776
-4720.78
-4718.8634
-4718.7326
-4720.498
-4718.9221
-4719.1582
-4718.7629
-4717.8591
-4719.776
-4721.2819
-4718.1029
-4720.0774
-4718.2205
-4719.2562
-4718.6423
-4718.6439
-4718.2054
-4717.7015
-4720.78
-4718.1029
-4719.1844
-4553.3832
-4551.9941
-4554.6774
-4551.5656
-4552.5778
-4552.8015
-4552.6047
-4552.9015
-4552.7705
-4553.9433
-4551.9941
-4554.2428
-4553.2148
-4551.8253
-4552.8498
-4552.845
-4552.473
-4553.7058
-4552.6574
-4552.1414
-4554.6774
-4553.2148
-4554.0041
-4552.575
-4553.4903
-4553.3471
-4552.7629
-4554.5521
-4554.3759
-4553.1469
-4551.5656
-4551.8253
-4552.575
-4551.0948
-4551.9734
-4551.7453
-4550.9125
-4552.5804
-4552.8643
-4552.5614
-4552.5778
-4552.8498
-4553.4903
-4551.9734
-4552.8443
-4552.5967
-4551.653
-4553.0905
-4553.0888
-4552.5576
-4552.8015
-4552.845
-4553.3471
-4551.7453
-4552.5967
-4552.3512
-4551.3907
-4552.7763
-4552.6878
-4552.1155
-4552.6047
-4552.473
-4552.7629
-4550.9125
-4551.653
-4551.3907
-4550.4245
-4551.8128
-4551.7741
-4551.6011
-4552.9015
-4553.7058
-4554.5521
-4552.5804
-4553.0905
-4552.7763
-4551.8128
-4553.2978
-4553.6405
-4554.6359
-4552.7705
-4552.6574
-4554.3759
-4552.8643
-4553.0888
-4552.6878
-4551.7741
-4553.6405
-4555.1238
-4551.9715
-4553.9433
-4552.1414
-4553.1469
-4552.5614
-4552.5576
-4552.1155
-4551.6011
-4554.6359
-4551.9715
-4553.0513
-4371.9192
-4370.6155
-4373.1812
-4370.2192
-4371.1968
-4371.4058
-4371.2015
-4371.4809
-4371.343
-4372.4686
-4370.6155
-4372.7782
-4371.82
-4370.5052
-4371.4916
-4371.4746
-4371.0918
-4372.2814
-4371.2476
-4370.7307
-4373.1812
-4371.82
-4372.5901
-4371.2359
-4372.117
-4371.9651
-4371.3725
-4373.1007
-4372.9099
-4371.7005
-4370.2192
-4370.5052
-4371.2359
-4369.8326
-4370.6786
-4370.4441
-4369.6085
-4371.2171
-4371.4683
-4371.1453
-4371.1968
-4371.4916
-4372.117
-4370.6786
-4371.5174
-4371.2642
-4370.3206
-4371.7054
-4371.6801
-4371.1363
-4371.4058
-4371.4746
-4371.9651
-4370.4441
-4371.2642
-4371.0131
-4370.0529
-4371.3867
-4371.2765
-4370.694
-4371.2015
-4371.0918
-4371.3725
-4369.6085
-4370.3206
-4370.0529
-4369.0867
-4370.4224
-4370.3604
-4370.1738
-4371.4809
-4372.2814
-4373.1007
-4371.2171
-4371.7054
-4371.3867
-4370.4224
-4371.8526
-4372.1676
-4373.1477
-4371.343
-4371.2476
-4372.9099
-4371.4683
-4371.6801
-4371.2765
-4370.3604
-4372.1676
-4373.6199
-4370.513
-4372.4686
-4370.7307
-4371.7005
-4371.1453
-4371.1363
-4370.694
-4370.1738
-4373.1477
-4370.513
-4371.5831
-4177.08
-4175.8659
-4178.3035
-4175.5015
-4176.439
-4176.6326
-4176.4231
-4176.6847
-4176.5416
-4177.6149
-4175.8659
-4177.9334
-4177.0464
-4175.8093
-4176.7524
-4176.724
-4176.3343
-4177.4762
-4176.4635
-4175.949
-4178.3035
-4177.0464
-4177.7921
-4176.5162
-4177.3585
-4177.1994
-4176.6038
-4178.2641
-4178.0612
-4176.8782
-4175.5015
-4175.8093
-4176.5162
-4175.1933
-4176.0022
-4175.7636
-4174.9319
-4176.475
-4176.6944
-4176.3548
-4176.439
-4176.7524
-4177.3585
-4176.0022
-4176.8045
-4176.548
-4175.6118
-4176.939
-4176.8925
-4176.3408
-4176.6326
-4176.724
-4177.1994
-4175.7636
-4176.548
-4176.2935
-4175.341
-4176.6185
-4176.4894
-4175.9016
-4176.4231
-4176.3343
-4176.6038
-4174.9319
-4175.6118
-4175.341
-4174.3822
-4175.6608
-4175.5782
-4175.3802
-4176.6847
-4177.4762
-4178.2641
-4176.475
-4176.939
-4176.6185
-4175.6608
-4177.0311
-4177.3188
-4178.2775
-4176.5416
-4176.4635
-4178.0612
-4176.6944
-4176.8925
-4176.4894
-4175.5782
-4177.3188
-4178.7325
-4175.6886
-4177.6149
-4175.949
-4176.8782
-4176.3548
-4176.3408
-4175.9016
-4175.3802
-4178.2775
-4175.6886
-4176.7417
-3970.7104
-3969.5891
-3971.8893
-3969.2556
-3970.1482
-3970.3261
-3970.1133
-3970.357
-3970.2106
-3971.2274
-3969.5891
-3971.5528
-3970.7378
-3969.5803
-3970.4756
-3970.4369
-3970.044
-3971.1343
-3970.1488
-3969.6402
-3971.8893
-3970.7378
-3971.4543
-3970.259
-3971.0584
-3970.894
-3970.3004
-3971.8868
-3971.6746
-3970.5245
-3969.2556
-3969.5803
-3970.259
-3969.0195
-3969.7873
-3969.5466
-3968.7251
-3970.1979
-3970.3868
-3970.0343
-3970.1482
-3970.4756
-3971.0584
-3969.7873
-3970.5491
-3970.2914
-3969.3694
-3970.6352
-3970.5701
-3970.0156
-3970.3261
-3970.4369
-3970.894
-3969.5466
-3970.2914
-3970.0356
-3969.0978
-3970.3153
-3970.1706
-3969.5825
-3970.1133
-3970.044
-3970.3004
-3968.7251
-3969.3694
-3969.0978
-3968.1534
-3969.3713
-3969.271
-3969.0644
-3970.357
-3971.1343
-3971.8868
-3970.1979
-3970.6352
-3970.3153
-3969.3713
-3970.6777
-3970.9388
-3971.8711
-3970.2106
-3970.1488
-3971.6746
-3970.3868
-3970.5701
-3970.1706
-3969.271
-3970.9388
-3972.3074
-3969.3427
-3971.2274
-3969.6402
-3970.5245
-3970.0343
-3970.0156
-3969.5825
-3969.0644
-3971.8711
-3969.3427
-3970.3723
-3754.5308
-3753.5041
-3755.6588
-3753.2005
-3754.0439
-3754.2056
-3753.9917
-3754.2176
-3754.0697
-3755.0267
-3753.5041
-3755.3559
-3754.6134
-3753.5371
-3754.3804
-3754.3323
-3753.9399
-3754.9756
-3754.0232
-3753.5241
-3755.6588
-3754.6134
-3755.2962
-3754.1835
-3754.9364
-3754.7682
-3754.1815
-3755.6892
-3755.4704
-3754.3596
-3753.2005
-3753.5371
-3754.1835
-3753.0294
-3753.7527
-3753.5118
-3752.7066
-3754.1049
-3754.265
-3753.9035
-3754.0439
-3754.3804
-3754.9364
-3753.7527
-3754.4705
-3754.2136
-3753.3124
-3754.5136
-3754.4328
-3753.8804
-3754.2056
-3754.3323
-3754.7682
-3753.5118
-3754.2136
-3753.9586
-3753.042
-3754.1967
-3754.0395
-3753.4563
-3753.9917
-3753.9399
-3754.1815
-3752.7066
-3753.3124
-3753.042
-3752.1186
-3753.273
-3753.1581
-3752.9457
-3754.2176
-3754.9756
-3755.6892
-3754.1049
-3754.5136
-3754.1967
-3753.273
-3754.5122
-3754.7477
-3755.6493
-3754.0697
-3754.0232
-3755.4704
-3754.265
-3754.4328
-3754.0395
-3753.1581
-3754.7477
-3756.0655
-3753.195
-3755.0267
-3753.5241
-3754.3596
-3753.9035
-3753.8804
-3753.4563
-3752.9457
-3755.6493
-3753.195
-3754.1953
-3530.1301
-3529.1992
-3531.2014
-3528.9242
-3529.7146
-3529.8599
-3529.6468
-3529.8553
-3529.7076
-3530.6023
-3529.1992
-3530.9317
-3530.2616
-3529.2676
-3530.0554
-3529.9989
-3529.6104
-3530.5889
-3529.675
-3529.1891
-3531.2014
-3530.2616
-3530.9068
-3529.8781
-3530.5813
-3530.4109
-3529.8355
-3531.2605
-3531.0379
-3529.9726
-3528.9242
-3529.2676
-3529.8781
-3528.8109
-3529.4866
-3529.2475
-3528.464
-3529.7846
-3529.9178
-3529.5514
-3529.7146
-3530.0554
-3530.5813
-3529.4866
-3530.1574
-3529.9033
-3529.0287
-3530.1629
-3530.0693
-3529.524
-3529.8599
-3529.9989
-3530.4109
-3529.2475
-3529.9033
-3529.6509
-3528.7615
-3529.8513
-3529.6848
-3529.1117
-3529.6468
-3529.6104
-3529.8355
-3528.464
-3529.0287
-3528.7615
-3527.8652
-3528.954
-3528.8275
-3528.6125
-3529.8553
-3530.5889
-3531.2605
-3529.7846
-3530.1629
-3529.8513
-3528.954
-3530.1236
-3530.3348
-3531.2021
-3529.7076
-3529.675
-3531.0379
-3529.9178
-3530.0693
-3529.6848
-3528.8275
-3530.3348
-3531.5968
-3528.834
-3530.6023
-3529.1891
-3529.9726
-3529.5514
-3529.524
-3529.1117
-3528.6125
-3531.2021
-3528.834
-3529.8002
-3298.9617
-3298.1267
-3299.9707
-3297.8791
-3298.6131
-3298.7419
-3298.5314
-3298.7229
-3298.5774
-3299.4077
-3298.1267
-3299.7333
-3299.1354
-3298.2241
-3298.9532
-3298.8894
-3298.508
-3299.4276
-3298.557
-3298.088
-3299.9707
-3299.1354
-3299.7394
-3298.7955
-3299.4463
-3299.2751
-3298.7153
-3300.0545
-3299.8308
-3298.8165
-3297.8791
-3298.2241
-3298.7955
-3297.8163
-3298.4417
-3298.206
-3297.4495
-3298.6899
-3298.7979
-3298.4309
-3298.6131
-3298.9532
-3299.4463
-3298.4417
-3299.0628
-3298.8132
-3297.9708
-3299.0363
-3298.9326
-3298.3995
-3298.7419
-3298.8894
-3299.2751
-3298.206
-3298.8132
-3298.5652
-3297.7086
-3298.7319
-3298.5593
-3298.0013
-3298.5314
-3298.508
-3298.7153
-3297.4495
-3297.9708
-3297.7086
-3296.845
-3297.8667
-3297.7316
-3297.5173
-3298.7229
-3299.4276
-3300.0545
-3298.6899
-3299.0363
-3298.7319
-3297.8667
-3298.9649
-3299.1532
-3299.9833