/*--------------------------------*- C++ -*----------------------------------*\
| =========                 |                                                 |
| \\      /  F ield         | OpenFOAM: The Open Source CFD Toolbox           |
|  \\    /   O peration     | Version:  v2106                                 |
|   \\  /    A nd           | Website:  www.openfoam.com                      |
|    \\/     M anipulation  |                                                 |
\*---------------------------------------------------------------------------*/
FoamFile
{
    version     2.0;
    format      ascii;
    arch        "LSB;label=32;scalar=64";
    class       volScalarField;
    location    "10";
    object      T;
}
// * * * * * * * * * * * * * * * * * * * * * * * * * * * * * * * * * * * * * //

dimensions      [0 0 0 1 0 0 0];

internalField   nonuniform List<scalar> 
4000
(
276.98285
276.98285
276.98286
276.98284
276.98284
276.98284
276.98285
276.98285
276.98285
276.98285
276.98285
276.98287
276.98286
276.98285
276.98284
276.98285
276.98285
276.98285
276.98285
276.98285
276.98286
276.98286
276.98286
276.98284
276.98284
276.98284
276.98285
276.98285
276.98286
276.98285
276.98284
276.98285
276.98284
276.98283
276.98283
276.98283
276.98284
276.98284
276.98285
276.98285
276.98284
276.98284
276.98284
276.98283
276.98283
276.98283
276.98284
276.98284
276.98285
276.98285
276.98284
276.98285
276.98284
276.98283
276.98283
276.98283
276.98284
276.98284
276.98285
276.98285
276.98285
276.98285
276.98285
276.98284
276.98284
276.98284
276.98284
276.98284
276.98285
276.98285
276.98285
276.98285
276.98285
276.98284
276.98284
276.98284
276.98284
276.98285
276.98285
276.98285
276.98285
276.98285
276.98286
276.98285
276.98285
276.98285
276.98285
276.98285
276.98286
276.98286
276.98285
276.98285
276.98285
276.98285
276.98285
276.98285
276.98285
276.98285
276.98286
276.98286
292.46772
292.46773
292.46775
292.46769
292.46768
292.46769
292.4677
292.46771
292.46772
292.46773
292.46773
292.46776
292.46774
292.46769
292.46768
292.46769
292.4677
292.46772
292.46773
292.46773
292.46775
292.46774
292.46772
292.46767
292.46767
292.46768
292.46769
292.46771
292.46773
292.46773
292.46769
292.46769
292.46767
292.46763
292.46763
292.46764
292.46765
292.46767
292.46769
292.4677
292.46768
292.46768
292.46767
292.46763
292.46762
292.46763
292.46764
292.46767
292.46769
292.4677
292.46769
292.46769
292.46768
292.46764
292.46763
292.46764
292.46765
292.46767
292.46769
292.4677
292.4677
292.4677
292.46769
292.46765
292.46764
292.46765
292.46766
292.46768
292.46771
292.46771
292.46771
292.46772
292.46771
292.46767
292.46767
292.46767
292.46768
292.4677
292.46773
292.46773
292.46772
292.46773
292.46773
292.46769
292.46769
292.46769
292.46771
292.46773
292.46775
292.46775
292.46773
292.46773
292.46773
292.4677
292.4677
292.4677
292.46771
292.46773
292.46775
292.46776
307.69477
307.69476
307.69477
307.69468
307.69467
307.69468
307.6947
307.69473
307.69475
307.69476
307.69476
307.69478
307.69474
307.69467
307.69466
307.69467
307.6947
307.69473
307.69474
307.69474
307.69477
307.69474
307.69471
307.69464
307.69463
307.69465
307.69468
307.69471
307.69474
307.69474
307.69468
307.69467
307.69464
307.69458
307.69457
307.69459
307.69461
307.69465
307.69469
307.69471
307.69467
307.69466
307.69463
307.69457
307.69456
307.69458
307.6946
307.69464
307.69468
307.6947
307.69468
307.69467
307.69465
307.69459
307.69458
307.69459
307.69461
307.69465
307.69469
307.6947
307.6947
307.6947
307.69468
307.69461
307.6946
307.69461
307.69464
307.69468
307.69471
307.69473
307.69473
307.69473
307.69471
307.69465
307.69464
307.69465
307.69468
307.69471
307.69475
307.69476
307.69475
307.69474
307.69474
307.69469
307.69468
307.69469
307.69471
307.69475
307.69478
307.69479
307.69476
307.69474
307.69474
307.69471
307.6947
307.6947
307.69473
307.69476
307.69479
307.6948
322.61697
322.61695
322.61695
322.61684
322.61683
322.61684
322.61688
322.61691
322.61694
322.61697
322.61695
322.61697
322.61691
322.61682
322.61681
322.61683
322.61686
322.61691
322.61693
322.61694
322.61695
322.61691
322.61687
322.61678
322.61677
322.61679
322.61683
322.61689
322.61693
322.61693
322.61684
322.61682
322.61678
322.6167
322.61669
322.61671
322.61675
322.61682
322.61687
322.61689
322.61683
322.61681
322.61677
322.61669
322.61669
322.6167
322.61674
322.6168
322.61685
322.61687
322.61684
322.61683
322.61679
322.61671
322.6167
322.61672
322.61676
322.61682
322.61686
322.61688
322.61688
322.61686
322.61683
322.61675
322.61674
322.61676
322.61679
322.61685
322.6169
322.61692
322.61691
322.61691
322.61689
322.61682
322.6168
322.61682
322.61685
322.61691
322.61696
322.61698
322.61694
322.61693
322.61693
322.61687
322.61685
322.61686
322.6169
322.61696
322.617
322.61701
322.61697
322.61694
322.61693
322.61689
322.61687
322.61688
322.61692
322.61698
322.61701
322.61702
337.19196
337.19193
337.19193
337.19181
337.19179
337.19181
337.19185
337.19191
337.19194
337.19198
337.19193
337.19195
337.19188
337.19178
337.19177
337.19179
337.19184
337.1919
337.19193
337.19194
337.19193
337.19188
337.19183
337.19173
337.19172
337.19175
337.1918
337.19188
337.19193
337.19193
337.19181
337.19178
337.19173
337.19164
337.19163
337.19166
337.19171
337.19179
337.19186
337.19188
337.19179
337.19177
337.19172
337.19163
337.19162
337.19164
337.19169
337.19178
337.19184
337.19186
337.19181
337.19179
337.19175
337.19166
337.19164
337.19166
337.19171
337.19179
337.19185
337.19188
337.19185
337.19184
337.1918
337.19171
337.19169
337.19171
337.19175
337.19183
337.1919
337.19192
337.19191
337.1919
337.19188
337.19179
337.19178
337.19179
337.19183
337.19192
337.19198
337.192
337.19194
337.19193
337.19193
337.19186
337.19184
337.19185
337.1919
337.19198
337.19204
337.19204
337.19198
337.19194
337.19193
337.19188
337.19186
337.19188
337.19192
337.192
337.19204
337.19206
351.38208
351.38205
351.38204
351.3819
351.38188
351.38191
351.38197
351.38203
351.38208
351.38212
351.38205
351.38206
351.38198
351.38187
351.38186
351.38189
351.38195
351.38203
351.38206
351.38208
351.38204
351.38198
351.38192
351.38182
351.38181
351.38184
351.3819
351.382
351.38206
351.38206
351.3819
351.38187
351.38182
351.38171
351.38171
351.38173
351.38179
351.3819
351.38198
351.38201
351.38188
351.38186
351.38181
351.38171
351.3817
351.38172
351.38178
351.38188
351.38196
351.38199
351.38191
351.38189
351.38184
351.38173
351.38172
351.38174
351.3818
351.3819
351.38198
351.38201
351.38197
351.38195
351.3819
351.38179
351.38178
351.3818
351.38185
351.38195
351.38203
351.38206
351.38203
351.38203
351.382
351.3819
351.38188
351.3819
351.38195
351.38206
351.38213
351.38217
351.38208
351.38206
351.38206
351.38198
351.38196
351.38198
351.38203
351.38213
351.3822
351.38221
351.38212
351.38208
351.38206
351.38201
351.38199
351.38201
351.38206
351.38217
351.38221
351.38222
365.15435
365.1543
365.1543
365.15415
365.15413
365.15416
365.15422
365.1543
365.15436
365.15441
365.1543
365.15431
365.15423
365.15411
365.1541
365.15413
365.1542
365.15429
365.15434
365.15436
365.1543
365.15423
365.15417
365.15405
365.15405
365.15408
365.15415
365.15427
365.15433
365.15434
365.15415
365.15411
365.15405
365.15394
365.15393
365.15397
365.15403
365.15416
365.15425
365.15428
365.15413
365.1541
365.15405
365.15393
365.15393
365.15395
365.15402
365.15414
365.15423
365.15426
365.15416
365.15413
365.15408
365.15397
365.15395
365.15398
365.15404
365.15416
365.15424
365.15428
365.15422
365.1542
365.15415
365.15403
365.15402
365.15404
365.15409
365.15421
365.1543
365.15434
365.1543
365.15429
365.15427
365.15416
365.15414
365.15416
365.15421
365.15434
365.15443
365.15447
365.15436
365.15434
365.15433
365.15425
365.15423
365.15424
365.1543
365.15443
365.15451
365.15451
365.15441
365.15436
365.15434
365.15428
365.15426
365.15428
365.15434
365.15447
365.15451
365.15453
378.4804
378.48035
378.48035
378.48019
378.48017
378.48021
378.48028
378.48036
378.48043
378.48049
378.48035
378.48036
378.48028
378.48015
378.48014
378.48018
378.48025
378.48036
378.48041
378.48043
378.48035
378.48028
378.48021
378.48009
378.48008
378.48012
378.4802
378.48033
378.4804
378.48041
378.48019
378.48015
378.48009
378.47997
378.47997
378.48
378.48007
378.48021
378.48031
378.48035
378.48017
378.48014
378.48008
378.47997
378.47996
378.47999
378.48005
378.48019
378.48029
378.48033
378.48021
378.48018
378.48012
378.48
378.47999
378.48001
378.48007
378.48021
378.4803
378.48034
378.48028
378.48025
378.4802
378.48007
378.48005
378.48007
378.48013
378.48027
378.48037
378.48041
378.48036
378.48036
378.48033
378.48021
378.48019
378.48021
378.48027
378.48041
378.48051
378.48055
378.48043
378.48041
378.4804
378.48031
378.48029
378.4803
378.48037
378.48051
378.4806
378.4806
378.48049
378.48043
378.48041
378.48035
378.48033
378.48034
378.48041
378.48055
378.4806
378.48063
391.33644
391.33639
391.33638
391.33622
391.3362
391.33624
391.33631
391.33641
391.33648
391.33655
391.33639
391.3364
391.33631
391.33617
391.33617
391.33621
391.33629
391.3364
391.33646
391.33648
391.33638
391.33631
391.33624
391.33611
391.33611
391.33615
391.33623
391.33637
391.33645
391.33646
391.33622
391.33617
391.33611
391.33599
391.33599
391.33602
391.3361
391.33625
391.33636
391.3364
391.3362
391.33617
391.33611
391.33599
391.33598
391.33601
391.33608
391.33622
391.33633
391.33637
391.33624
391.33621
391.33615
391.33602
391.33601
391.33603
391.33609
391.33624
391.33634
391.33639
391.33631
391.33629
391.33623
391.3361
391.33608
391.33609
391.33616
391.3363
391.33641
391.33646
391.33641
391.3364
391.33637
391.33625
391.33622
391.33624
391.3363
391.33645
391.33657
391.33662
391.33648
391.33646
391.33645
391.33636
391.33633
391.33634
391.33641
391.33657
391.33667
391.33666
391.33655
391.33648
391.33646
391.3364
391.33637
391.33639
391.33646
391.33662
391.33666
391.33669
403.70305
403.703
403.70299
403.70282
403.70281
403.70285
403.70292
403.70303
403.7031
403.70317
403.703
403.703
403.70292
403.70278
403.70277
403.70282
403.70289
403.70302
403.70308
403.7031
403.70299
403.70292
403.70284
403.70272
403.70271
403.70275
403.70284
403.70299
403.70307
403.70308
403.70282
403.70278
403.70272
403.70259
403.70259
403.70262
403.7027
403.70286
403.70297
403.70301
403.70281
403.70277
403.70271
403.70259
403.70258
403.70261
403.70268
403.70283
403.70294
403.70298
403.70285
403.70282
403.70275
403.70262
403.70261
403.70263
403.70269
403.70284
403.70295
403.703
403.70292
403.70289
403.70284
403.7027
403.70268
403.70269
403.70275
403.70291
403.70302
403.70307
403.70303
403.70302
403.70299
403.70286
403.70283
403.70284
403.70291
403.70307
403.70319
403.70324
403.7031
403.70308
403.70307
403.70297
403.70294
403.70295
403.70302
403.70319
403.7033
403.70329
403.70317
403.7031
403.70308
403.70301
403.70298
403.703
403.70307
403.70324
403.70329
403.70332
415.56505
415.565
415.56499
415.56482
415.56481
415.56485
415.56493
415.56503
415.56511
415.56518
415.565
415.565
415.56492
415.56477
415.56477
415.56482
415.5649
415.56503
415.56508
415.56511
415.56499
415.56492
415.56485
415.56472
415.56472
415.56476
415.56484
415.565
415.56508
415.56509
415.56482
415.56477
415.56472
415.56459
415.56459
415.56462
415.5647
415.56486
415.56498
415.56502
415.56481
415.56477
415.56472
415.56459
415.56458
415.5646
415.56467
415.56483
415.56494
415.56499
415.56485
415.56482
415.56476
415.56462
415.5646
415.56462
415.56468
415.56484
415.56495
415.56499
415.56493
415.5649
415.56484
415.5647
415.56467
415.56468
415.56474
415.5649
415.56502
415.56507
415.56503
415.56503
415.565
415.56486
415.56483
415.56484
415.5649
415.56507
415.56519
415.56525
415.56511
415.56508
415.56508
415.56498
415.56494
415.56495
415.56502
415.56519
415.5653
415.56529
415.56518
415.56511
415.56509
415.56502
415.56499
415.56499
415.56507
415.56525
415.56529
415.56533
426.9113
426.91124
426.91124
426.91107
426.91106
426.9111
426.91118
426.91128
426.91136
426.91143
426.91124
426.91125
426.91117
426.91102
426.91102
426.91107
426.91115
426.91128
426.91133
426.91136
426.91124
426.91117
426.9111
426.91097
426.91097
426.91101
426.91109
426.91125
426.91133
426.91134
426.91107
426.91102
426.91097
426.91084
426.91084
426.91087
426.91094
426.91111
426.91123
426.91126
426.91106
426.91102
426.91097
426.91084
426.91083
426.91085
426.91091
426.91108
426.91119
426.91123
426.9111
426.91107
426.91101
426.91087
426.91085
426.91087
426.91092
426.91108
426.91119
426.91123
426.91118
426.91115
426.91109
426.91094
426.91091
426.91092
426.91098
426.91114
426.91125
426.91131
426.91128
426.91128
426.91125
426.91111
426.91108
426.91108
426.91114
426.91131
426.91143
426.91149
426.91136
426.91133
426.91133
426.91123
426.91119
426.91119
426.91125
426.91143
426.91155
426.91154
426.91143
426.91136
426.91134
426.91126
426.91123
426.91123
426.91131
426.91149
426.91154
426.91157
437.73447
437.73442
437.73442
437.73425
437.73424
437.73428
437.73435
437.73446
437.73454
437.73461
437.73442
437.73443
437.73435
437.73421
437.73421
437.73425
437.73432
437.73446
437.73451
437.73453
437.73442
437.73435
437.73428
437.73415
437.73415
437.73419
437.73427
437.73443
437.73451
437.73452
437.73425
437.73421
437.73415
437.73403
437.73403
437.73405
437.73412
437.73429
437.7344
437.73444
437.73424
437.73421
437.73415
437.73403
437.73401
437.73403
437.73409
437.73425
437.73436
437.7344
437.73428
437.73425
437.73419
437.73405
437.73403
437.73404
437.73409
437.73425
437.73436
437.7344
437.73435
437.73432
437.73427
437.73412
437.73409
437.73409
437.73414
437.7343
437.73442
437.73447
437.73446
437.73446
437.73443
437.73429
437.73425
437.73425
437.7343
437.73447
437.7346
437.73466
437.73454
437.73451
437.73451
437.7344
437.73436
437.73436
437.73442
437.7346
437.73471
437.73469
437.73461
437.73453
437.73452
437.73444
437.7344
437.7344
437.73447
437.73466
437.73469
437.73473
448.03086
448.03081
448.03081
448.03064
448.03063
448.03067
448.03074
448.03085
448.03092
448.03099
448.03081
448.03082
448.03074
448.0306
448.0306
448.03064
448.03071
448.03084
448.0309
448.03092
448.03081
448.03074
448.03068
448.03055
448.03055
448.03059
448.03066
448.03082
448.03089
448.0309
448.03064
448.0306
448.03055
448.03043
448.03043
448.03045
448.03051
448.03068
448.03078
448.03082
448.03063
448.0306
448.03055
448.03043
448.03041
448.03043
448.03048
448.03063
448.03074
448.03077
448.03067
448.03064
448.03059
448.03045
448.03043
448.03043
448.03047
448.03063
448.03073
448.03077
448.03074
448.03071
448.03066
448.03051
448.03048
448.03047
448.03051
448.03067
448.03078
448.03083
448.03085
448.03084
448.03082
448.03068
448.03063
448.03063
448.03067
448.03084
448.03096
448.03102
448.03092
448.0309
448.03089
448.03078
448.03074
448.03073
448.03078
448.03096
448.03108
448.03106
448.03099
448.03092
448.0309
448.03082
448.03077
448.03077
448.03083
448.03102
448.03106
448.03109
457.80011
457.80006
457.80006
457.79989
457.79989
457.79993
457.79999
457.80009
457.80016
457.80023
457.80006
457.80007
457.79999
457.79986
457.79986
457.7999
457.79996
457.80009
457.80014
457.80015
457.80006
457.79999
457.79994
457.79981
457.79981
457.79984
457.79991
457.80006
457.80014
457.80014
457.79989
457.79986
457.79981
457.79969
457.79969
457.79971
457.79976
457.79992
457.80003
457.80005
457.79989
457.79986
457.79981
457.79969
457.79968
457.79968
457.79973
457.79988
457.79998
457.80001
457.79993
457.7999
457.79984
457.79971
457.79968
457.79968
457.79972
457.79986
457.79996
457.79999
457.79999
457.79996
457.79991
457.79976
457.79973
457.79972
457.79975
457.7999
457.80001
457.80005
457.80009
457.80009
457.80006
457.79992
457.79988
457.79986
457.7999
457.80006
457.80018
457.80024
457.80016
457.80014
457.80014
457.80003
457.79998
457.79996
457.80001
457.80018
457.80029
457.80027
457.80023
457.80015
457.80014
457.80005
457.80001
457.79999
457.80005
457.80024
457.80027
457.8003
467.04499
467.04495
467.04495
467.04479
467.04478
467.04482
467.04488
467.04497
467.04504
467.04511
467.04495
467.04496
467.04489
467.04476
467.04476
467.04479
467.04485
467.04497
467.04501
467.04503
467.04495
467.04489
467.04483
467.04472
467.04472
467.04474
467.0448
467.04495
467.04501
467.04501
467.04479
467.04476
467.04472
467.0446
467.04459
467.04461
467.04465
467.04481
467.0449
467.04493
467.04478
467.04476
467.04472
467.04459
467.04458
467.04458
467.04461
467.04476
467.04485
467.04488
467.04482
467.04479
467.04474
467.04461
467.04458
467.04457
467.0446
467.04474
467.04483
467.04486
467.04488
467.04485
467.0448
467.04465
467.04461
467.0446
467.04462
467.04476
467.04486
467.04491
467.04497
467.04497
467.04495
467.04481
467.04476
467.04474
467.04476
467.04492
467.04503
467.04509
467.04504
467.04501
467.04501
467.0449
467.04485
467.04483
467.04486
467.04503
467.04514
467.04511
467.04511
467.04503
467.04501
467.04493
467.04488
467.04486
467.04491
467.04509
467.04511
467.04514
475.77118
475.77114
475.77115
475.77099
475.77098
475.77102
475.77107
475.77116
475.77122
475.77128
475.77114
475.77116
475.77109
475.77096
475.77096
475.77099
475.77105
475.77116
475.77119
475.7712
475.77115
475.77109
475.77104
475.77092
475.77092
475.77094
475.77099
475.77113
475.77119
475.77119
475.77099
475.77096
475.77092
475.77081
475.7708
475.77081
475.77085
475.77099
475.77108
475.7711
475.77098
475.77096
475.77092
475.7708
475.77079
475.77078
475.77081
475.77094
475.77103
475.77105
475.77102
475.77099
475.77094
475.77081
475.77078
475.77077
475.77078
475.77091
475.771
475.77102
475.77107
475.77105
475.77099
475.77085
475.77081
475.77078
475.7708
475.77093
475.77102
475.77106
475.77116
475.77116
475.77113
475.77099
475.77094
475.77091
475.77093
475.77108
475.77119
475.77124
475.77122
475.77119
475.77119
475.77108
475.77103
475.771
475.77102
475.77119
475.77129
475.77126
475.77128
475.7712
475.77119
475.7711
475.77105
475.77102
475.77106
475.77124
475.77126
475.77129
483.98699
483.98695
483.98696
483.98681
483.9868
483.98683
483.98688
483.98696
483.98701
483.98707
483.98695
483.98697
483.98691
483.98679
483.98679
483.98681
483.98686
483.98696
483.98699
483.987
483.98696
483.98691
483.98686
483.98675
483.98675
483.98676
483.98681
483.98694
483.98699
483.98698
483.98681
483.98679
483.98675
483.98664
483.98663
483.98663
483.98666
483.9868
483.98688
483.98689
483.9868
483.98679
483.98675
483.98663
483.98662
483.9866
483.98662
483.98674
483.98682
483.98684
483.98683
483.98681
483.98676
483.98663
483.9866
483.98658
483.98659
483.98671
483.98678
483.9868
483.98688
483.98686
483.98681
483.98666
483.98662
483.98659
483.98659
483.98672
483.9868
483.98684
483.98696
483.98696
483.98694
483.9868
483.98674
483.98671
483.98672
483.98686
483.98696
483.98701
483.98701
483.98699
483.98699
483.98688
483.98682
483.98678
483.9868
483.98696
483.98705
483.98702
483.98707
483.987
483.98698
483.98689
483.98684
483.9868
483.98684
483.98701
483.98702
483.98704
491.70315
491.70311
491.70312
491.70298
491.70297
491.703
491.70304
491.70311
491.70315
491.70321
491.70311
491.70313
491.70307
491.70296
491.70296
491.70298
491.70301
491.70311
491.70313
491.70313
491.70312
491.70307
491.70303
491.70293
491.70292
491.70293
491.70297
491.70309
491.70313
491.70312
491.70298
491.70296
491.70293
491.70282
491.70281
491.70281
491.70283
491.70295
491.70302
491.70303
491.70297
491.70296
491.70292
491.70281
491.70279
491.70277
491.70278
491.70289
491.70296
491.70297
491.703
491.70298
491.70293
491.70281
491.70277
491.70275
491.70274
491.70285
491.70292
491.70293
491.70304
491.70301
491.70297
491.70283
491.70278
491.70274
491.70274
491.70285
491.70293
491.70296
491.70311
491.70311
491.70309
491.70295
491.70289
491.70285
491.70285
491.70298
491.70307
491.70312
491.70315
491.70313
491.70313
491.70302
491.70296
491.70292
491.70293
491.70307
491.70316
491.70312
491.70321
491.70313
491.70312
491.70303
491.70297
491.70293
491.70296
491.70312
491.70312
491.70314
498.93256
498.93253
498.93254
498.9324
498.93239
498.93241
498.93245
498.93251
498.93255
498.9326
498.93253
498.93255
498.93249
498.93238
498.93238
498.9324
498.93243
498.93251
498.93253
498.93253
498.93254
498.93249
498.93246
498.93236
498.93235
498.93236
498.93238
498.93249
498.93253
498.93251
498.9324
498.93238
498.93236
498.93226
498.93224
498.93223
498.93224
498.93236
498.93242
498.93242
498.93239
498.93238
498.93235
498.93224
498.93222
498.9322
498.93219
498.9323
498.93236
498.93236
498.93241
498.9324
498.93236
498.93223
498.9322
498.93216
498.93215
498.93225
498.93231
498.93231
498.93245
498.93243
498.93238
498.93224
498.93219
498.93215
498.93214
498.93224
498.93231
498.93233
498.93251
498.93251
498.93249
498.93236
498.9323
498.93225
498.93224
498.93236
498.93244
498.93249
498.93255
498.93253
498.93253
498.93242
498.93236
498.93231
498.93231
498.93244
498.93252
498.93248
498.9326
498.93253
498.93251
498.93242
498.93236
498.93231
498.93233
498.93249
498.93248
498.9325
505.69009
505.69006
505.69008
505.68994
505.68994
505.68995
505.68998
505.69003
505.69006
505.69011
505.69006
505.69009
505.69004
505.68993
505.68993
505.68994
505.68996
505.69004
505.69004
505.69004
505.69008
505.69004
505.69
505.68991
505.6899
505.6899
505.68991
505.69002
505.69005
505.69002
505.68994
505.68993
505.68991
505.68981
505.6898
505.68978
505.68978
505.68989
505.68994
505.68994
505.68994
505.68993
505.6899
505.6898
505.68977
505.68974
505.68973
505.68982
505.68987
505.68987
505.68995
505.68994
505.6899
505.68978
505.68974
505.6897
505.68968
505.68977
505.68982
505.68982
505.68998
505.68996
505.68991
505.68978
505.68973
505.68968
505.68966
505.68975
505.68981
505.68983
505.69003
505.69004
505.69002
505.68989
505.68982
505.68977
505.68975
505.68986
505.68994
505.68997
505.69006
505.69004
505.69005
505.68994
505.68987
505.68982
505.68981
505.68994
505.69001
505.68996
505.69011
505.69004
505.69002
505.68994
505.68987
505.68982
505.68983
505.68997
505.68996
505.68998
511.99235
511.99232
511.99234
511.99221
511.9922
511.99222
511.99223
511.99228
511.99231
511.99235
511.99232
511.99235
511.9923
511.9922
511.9922
511.9922
511.99222
511.99229
511.99229
511.99228
511.99234
511.9923
511.99227
511.99218
511.99218
511.99217
511.99218
511.99227
511.99229
511.99226
511.99221
511.9922
511.99218
511.99209
511.99208
511.99205
511.99205
511.99214
511.99218
511.99218
511.9922
511.9922
511.99218
511.99208
511.99205
511.99201
511.99199
511.99208
511.99211
511.99211
511.99222
511.9922
511.99217
511.99205
511.99201
511.99197
511.99194
511.99202
511.99205
511.99205
511.99223
511.99222
511.99218
511.99205
511.99199
511.99194
511.99191
511.99199
511.99204
511.99205
511.99228
511.99229
511.99227
511.99214
511.99208
511.99202
511.99199
511.99209
511.99215
511.99219
511.99231
511.99229
511.99229
511.99218
511.99211
511.99205
511.99204
511.99215
511.99222
511.99217
511.99235
511.99228
511.99226
511.99218
511.99211
511.99205
511.99205
511.99219
511.99217
511.99218
517.85748
517.85745
517.85747
517.85735
517.85734
517.85734
517.85736
517.85739
517.85741
517.85745
517.85745
517.85748
517.85744
517.85734
517.85734
517.85733
517.85734
517.8574
517.8574
517.85738
517.85747
517.85744
517.85741
517.85732
517.85731
517.8573
517.8573
517.85738
517.8574
517.85737
517.85735
517.85734
517.85732
517.85724
517.85722
517.85719
517.85718
517.85726
517.85729
517.85728
517.85734
517.85734
517.85731
517.85722
517.85719
517.85715
517.85712
517.85719
517.85722
517.85721
517.85734
517.85733
517.8573
517.85719
517.85715
517.8571
517.85706
517.85713
517.85716
517.85715
517.85736
517.85734
517.8573
517.85718
517.85712
517.85706
517.85703
517.8571
517.85714
517.85715
517.85739
517.8574
517.85738
517.85726
517.85719
517.85713
517.8571
517.85718
517.85724
517.85727
517.85741
517.8574
517.8574
517.85729
517.85722
517.85716
517.85714
517.85724
517.8573
517.85725
517.85745
517.85738
517.85737
517.85728
517.85721
517.85715
517.85715
517.85727
517.85725
517.85726
523.30494
523.30492
523.30494
523.30482
523.30481
523.30482
523.30482
523.30485
523.30486
523.3049
523.30492
523.30495
523.30491
523.30482
523.30481
523.30481
523.30481
523.30486
523.30485
523.30483
523.30494
523.30491
523.30489
523.30481
523.3048
523.30478
523.30477
523.30484
523.30485
523.30481
523.30482
523.30482
523.30481
523.30472
523.3047
523.30467
523.30465
523.30472
523.30475
523.30474
523.30481
523.30481
523.3048
523.3047
523.30467
523.30463
523.3046
523.30466
523.30468
523.30466
523.30482
523.30481
523.30478
523.30467
523.30463
523.30458
523.30453
523.30459
523.30461
523.3046
523.30482
523.30481
523.30477
523.30465
523.3046
523.30453
523.30449
523.30455
523.30458
523.30459
523.30485
523.30486
523.30484
523.30472
523.30466
523.30459
523.30455
523.30462
523.30468
523.3047
523.30486
523.30485
523.30485
523.30475
523.30468
523.30461
523.30458
523.30468
523.30473
523.30467
523.3049
523.30483
523.30481
523.30474
523.30466
523.3046
523.30459
523.3047
523.30467
523.30468
528.35538
528.35536
528.35538
528.35527
528.35526
528.35526
528.35526
528.35528
528.35529
528.35532
528.35536
528.35539
528.35536
528.35527
528.35527
528.35525
528.35525
528.35529
528.35528
528.35526
528.35538
528.35536
528.35534
528.35526
528.35525
528.35523
528.35521
528.35527
528.35527
528.35524
528.35527
528.35527
528.35526
528.35518
528.35516
528.35513
528.3551
528.35516
528.35518
528.35516
528.35526
528.35527
528.35525
528.35516
528.35513
528.35508
528.35504
528.35509
528.35511
528.35509
528.35526
528.35525
528.35523
528.35513
528.35508
528.35502
528.35498
528.35502
528.35504
528.35502
528.35526
528.35525
528.35521
528.3551
528.35504
528.35498
528.35493
528.35498
528.355
528.35501
528.35528
528.35529
528.35527
528.35516
528.35509
528.35502
528.35498
528.35504
528.35509
528.35511
528.35529
528.35528
528.35527
528.35518
528.35511
528.35504
528.355
528.35509
528.35513
528.35508
528.35532
528.35526
528.35524
528.35516
528.35509
528.35502
528.35501
528.35511
528.35508
528.35508
533.03041
533.03039
533.03041
533.03031
533.0303
533.03029
533.03028
533.0303
533.0303
533.03033
533.03039
533.03042
533.03039
533.03031
533.0303
533.03029
533.03027
533.03031
533.03029
533.03027
533.03041
533.03039
533.03037
533.0303
533.03028
533.03026
533.03024
533.03029
533.03029
533.03025
533.03031
533.03031
533.0303
533.03023
533.0302
533.03016
533.03013
533.03018
533.0302
533.03017
533.0303
533.0303
533.03028
533.0302
533.03017
533.03012
533.03007
533.03012
533.03012
533.0301
533.03029
533.03029
533.03026
533.03016
533.03012
533.03006
533.03001
533.03004
533.03005
533.03003
533.03028
533.03027
533.03024
533.03013
533.03007
533.03001
533.02995
533.02999
533.03001
533.03001
533.0303
533.03031
533.03029
533.03018
533.03012
533.03004
533.02999
533.03005
533.03009
533.03011
533.0303
533.03029
533.03029
533.0302
533.03012
533.03005
533.03001
533.03009
533.03013
533.03007
533.03033
533.03027
533.03025
533.03017
533.0301
533.03003
533.03001
533.03011
533.03007
533.03007
537.35245
537.35244
537.35246
537.35236
537.35235
537.35234
537.35233
537.35234
537.35233
537.35235
537.35244
537.35246
537.35244
537.35237
537.35235
537.35233
537.35232
537.35235
537.35232
537.3523
537.35246
537.35244
537.35242
537.35236
537.35234
537.35231
537.35229
537.35233
537.35232
537.35228
537.35236
537.35237
537.35236
537.35229
537.35226
537.35222
537.35218
537.35223
537.35223
537.35221
537.35235
537.35235
537.35234
537.35226
537.35223
537.35217
537.35213
537.35216
537.35216
537.35214
537.35234
537.35233
537.35231
537.35222
537.35217
537.35211
537.35206
537.35209
537.35209
537.35207
537.35233
537.35232
537.35229
537.35218
537.35213
537.35206
537.352
537.35203
537.35205
537.35204
537.35234
537.35235
537.35233
537.35223
537.35216
537.35209
537.35203
537.35208
537.35211
537.35213
537.35233
537.35232
537.35232
537.35223
537.35216
537.35209
537.35205
537.35211
537.35214
537.35209
537.35235
537.3523
537.35228
537.35221
537.35214
537.35207
537.35204
537.35213
537.35209
537.35209
541.34463
541.34462
541.34463
541.34455
541.34453
541.34452
541.3445
541.34451
541.3445
541.34452
541.34462
541.34464
541.34462
541.34455
541.34454
541.34452
541.34449
541.34451
541.34449
541.34447
541.34463
541.34462
541.3446
541.34454
541.34452
541.34449
541.34446
541.3445
541.34449
541.34445
541.34455
541.34455
541.34454
541.34448
541.34445
541.34441
541.34437
541.3444
541.3444
541.34438
541.34453
541.34454
541.34452
541.34445
541.34442
541.34436
541.34431
541.34434
541.34433
541.34431
541.34452
541.34452
541.34449
541.34441
541.34436
541.3443
541.34424
541.34426
541.34426
541.34424
541.3445
541.34449
541.34446
541.34437
541.34431
541.34424
541.34418
541.34421
541.34422
541.34421
541.34451
541.34451
541.3445
541.3444
541.34434
541.34426
541.34421
541.34425
541.34427
541.34429
541.3445
541.34449
541.34449
541.3444
541.34433
541.34426
541.34422
541.34427
541.3443
541.34425
541.34452
541.34447
541.34445
541.34438
541.34431
541.34424
541.34421
541.34429
541.34425
541.34425
545.03059
545.03058
545.0306
545.03052
545.0305
545.03049
545.03047
545.03047
545.03046
545.03047
545.03058
545.03061
545.03058
545.03052
545.03051
545.03048
545.03046
545.03047
545.03045
545.03042
545.0306
545.03058
545.03057
545.03052
545.0305
545.03046
545.03043
545.03046
545.03044
545.0304
545.03052
545.03052
545.03052
545.03046
545.03043
545.03038
545.03034
545.03037
545.03036
545.03034
545.0305
545.03051
545.0305
545.03043
545.03039
545.03034
545.03028
545.0303
545.0303
545.03027
545.03049
545.03048
545.03046
545.03038
545.03034
545.03027
545.03022
545.03023
545.03022
545.0302
545.03047
545.03046
545.03043
545.03034
545.03028
545.03022
545.03015
545.03018
545.03018
545.03017
545.03047
545.03047
545.03046
545.03037
545.0303
545.03023
545.03018
545.03021
545.03023
545.03024
545.03046
545.03045
545.03044
545.03036
545.0303
545.03022
545.03018
545.03023
545.03025
545.0302
545.03047
545.03042
545.0304
545.03034
545.03027
545.0302
545.03017
545.03024
545.0302
545.0302
548.43443
548.43442
548.43443
548.43436
548.43435
548.43433
548.4343
548.4343
548.43429
548.4343
548.43442
548.43444
548.43443
548.43437
548.43435
548.43433
548.4343
548.43431
548.43428
548.43426
548.43443
548.43443
548.43442
548.43436
548.43434
548.43431
548.43427
548.43429
548.43428
548.43424
548.43436
548.43437
548.43436
548.43431
548.43428
548.43423
548.43419
548.43421
548.4342
548.43418
548.43435