/*--------------------------------*- C++ -*----------------------------------*\
| =========                 |                                                 |
| \\      /  F ield         | OpenFOAM: The Open Source CFD Toolbox           |
|  \\    /   O peration     | Version:  v2106                                 |
|   \\  /    A nd           | Website:  www.openfoam.com                      |
|    \\/     M anipulation  |                                                 |
\*---------------------------------------------------------------------------*/
FoamFile
{
    version     2.0;
    format      ascii;
    arch        "LSB;label=32;scalar=64";
    class       volScalarField;
    location    "10";
    object      T;
}
// * * * * * * * * * * * * * * * * * * * * * * * * * * * * * * * * * * * * * //

dimensions      [0 0 0 1 0 0 0];

internalField   nonuniform List<scalar> 
4000
(
275.94811
275.94816
275.94811
275.94811
275.9481
275.9481
275.94811
275.94811
275.94812
275.94812
275.94816
275.94816
275.94812
275.94811
275.94811
275.94811
275.94812
275.94812
275.94813
275.94813
275.94811
275.94812
275.94809
275.94808
275.94808
275.94808
275.94809
275.94809
275.94811
275.94811
275.94811
275.94811
275.94808
275.94807
275.94807
275.94807
275.94808
275.94809
275.9481
275.94811
275.9481
275.94811
275.94808
275.94807
275.94807
275.94807
275.94808
275.94809
275.9481
275.94811
275.9481
275.94811
275.94808
275.94807
275.94807
275.94807
275.94808
275.94809
275.9481
275.94811
275.94811
275.94812
275.94809
275.94808
275.94808
275.94808
275.94809
275.9481
275.94811
275.94812
275.94811
275.94812
275.94809
275.94809
275.94809
275.94809
275.9481
275.9481
275.94812
275.94813
275.94812
275.94813
275.94811
275.9481
275.9481
275.9481
275.94811
275.94812
275.94813
275.94814
275.94812
275.94813
275.94811
275.94811
275.94811
275.94811
275.94812
275.94813
275.94814
275.94814
301.44852
301.44879
301.44848
301.44839
301.44836
301.44838
301.44841
301.44847
301.44852
301.44852
301.44879
301.4488
301.44853
301.44845
301.44842
301.44844
301.44848
301.44855
301.44862
301.44861
301.44848
301.44853
301.44827
301.44819
301.44817
301.44819
301.44824
301.44832
301.44843
301.44847
301.44839
301.44845
301.44819
301.44812
301.4481
301.44812
301.44817
301.44825
301.44837
301.44842
301.44836
301.44842
301.44817
301.4481
301.44808
301.4481
301.44815
301.44824
301.44836
301.44841
301.44838
301.44844
301.44819
301.44812
301.4481
301.44812
301.44818
301.44826
301.44838
301.44843
301.44841
301.44848
301.44824
301.44817
301.44815
301.44818
301.44823
301.44832
301.44843
301.44849
301.44847
301.44855
301.44832
301.44825
301.44824
301.44826
301.44832
301.44841
301.44852
301.44857
301.44852
301.44862
301.44843
301.44837
301.44836
301.44838
301.44843
301.44852
301.44863
301.44868
301.44852
301.44861
301.44847
301.44842
301.44841
301.44843
301.44849
301.44857
301.44868
301.44871
324.74154
324.74182
324.74134
324.74119
324.74115
324.74118
324.74125
324.74136
324.74146
324.74142
324.74182
324.74174
324.74132
324.74119
324.74116
324.74118
324.74126
324.7414
324.74157
324.74153
324.74134
324.74132
324.74092
324.7408
324.74077
324.7408
324.74088
324.74104
324.74126
324.74132
324.74119
324.74119
324.7408
324.74068
324.74065
324.74069
324.74078
324.74094
324.74117
324.74124
324.74115
324.74116
324.74077
324.74065
324.74063
324.74066
324.74076
324.74092
324.74116
324.74122
324.74118
324.74118
324.7408
324.74069
324.74066
324.7407
324.7408
324.74096
324.7412
324.74126
324.74125
324.74126
324.74088
324.74078
324.74076
324.7408
324.74089
324.74106
324.7413
324.74136
324.74136
324.7414
324.74104
324.74094
324.74092
324.74096
324.74106
324.74122
324.74146
324.74152
324.74146
324.74157
324.74126
324.74117
324.74116
324.7412
324.7413
324.74146
324.74169
324.74174
324.74142
324.74153
324.74132
324.74124
324.74122
324.74126
324.74136
324.74152
324.74174
324.74173
346.12875
346.129
346.12839
346.12822
346.12818
346.12822
346.12833
346.1285
346.12868
346.12865
346.129
346.12884
346.12832
346.12816
346.12812
346.12816
346.12828
346.12849
346.12877
346.12876
346.12839
346.12832
346.12782
346.12767
346.12764
346.12768
346.12781
346.12804
346.1284
346.1285
346.12822
346.12816
346.12767
346.12753
346.1275
346.12755
346.12768
346.12791
346.12828
346.12839
346.12818
346.12812
346.12764
346.1275
346.12748
346.12753
346.12766
346.12789
346.12827
346.12838
346.12822
346.12816
346.12768
346.12755
346.12753
346.12759
346.12772
346.12795
346.12833
346.12844
346.12833
346.12828
346.12781
346.12768
346.12766
346.12772
346.12785
346.12809
346.12846
346.12858
346.1285
346.12849
346.12804
346.12791
346.12789
346.12795
346.12809
346.12832
346.1287
346.12881
346.12868
346.12877
346.1284
346.12828
346.12827
346.12833
346.12846
346.1287
346.12907
346.12916
346.12865
346.12876
346.1285
346.12839
346.12838
346.12844
346.12858
346.12881
346.12916
346.12911
365.83073
365.83093
365.83024
365.83005
365.83002
365.83008
365.83022
365.83045
365.83072
365.83071
365.83093
365.8307
365.83011
365.82994
365.82991
365.82997
365.83013
365.83039
365.83079
365.83082
365.83024
365.83011
365.82954
365.82939
365.82937
365.82943
365.82958
365.82987
365.83036
365.83052
365.83005
365.82994
365.82939
365.82925
365.82923
365.82929
365.82945
365.82974
365.83023
365.83041
365.83002
365.82991
365.82937
365.82923
365.82921
365.82928
365.82944
365.82973
365.83022
365.8304
365.83008
365.82997
365.82943
365.82929
365.82928
365.82935
365.82951
365.8298
365.8303
365.83047
365.83022
365.83013
365.82958
365.82945
365.82944
365.82951
365.82967
365.82996
365.83046
365.83064
365.83045
365.83039
365.82987
365.82974
365.82973
365.8298
365.82996
365.83025
365.83076
365.83094
365.83072
365.83079
365.83036
365.83023
365.83022
365.8303
365.83046
365.83076
365.83126
365.83142
365.83071
365.83082
365.83052
365.83041
365.8304
365.83047
365.83064
365.83094
365.83142
365.83136
384.01664
384.01681
384.01605
384.01588
384.01586
384.01594
384.01611
384.01638
384.01672
384.01674
384.01681
384.01653
384.01588
384.01573
384.01572
384.01579
384.01597
384.01628
384.01678
384.01685
384.01605
384.01588
384.01528
384.01514
384.01513
384.01521
384.01539
384.01572
384.01631
384.01653
384.01588
384.01573
384.01514
384.01501
384.015
384.01508
384.01526
384.01559
384.01618
384.01642
384.01586
384.01572
384.01513
384.015
384.015
384.01508
384.01526
384.01558
384.01618
384.01642
384.01594
384.01579
384.01521
384.01508
384.01508
384.01516
384.01534
384.01567
384.01626
384.0165
384.01611
384.01597
384.01539
384.01526
384.01526
384.01534
384.01552
384.01585
384.01645
384.01669
384.01638
384.01628
384.01572
384.01559
384.01558
384.01567
384.01585
384.01618
384.01678
384.01703
384.01672
384.01678
384.01631
384.01618
384.01618
384.01626
384.01645
384.01678
384.01739
384.01763
384.01674
384.01685
384.01653
384.01642
384.01642
384.0165
384.01669
384.01703
384.01763
384.01757
400.82151
400.82166
400.82087
400.82071
400.82071
400.8208
400.82099
400.82129
400.82169
400.82175
400.82166
400.82133
400.82067
400.82054
400.82055
400.82064
400.82083
400.82117
400.82174
400.82186
400.82087
400.82067
400.82006
400.81994
400.81995
400.82004
400.82023
400.82058
400.82125
400.82153
400.82071
400.82054
400.81994
400.81983
400.81984
400.81993
400.82012
400.82046
400.82113
400.82142
400.82071
400.82055
400.81995
400.81984
400.81986
400.81995
400.82013
400.82047
400.82114
400.82142
400.8208
400.82064
400.82004
400.81993
400.81995
400.82004
400.82022
400.82056
400.82123
400.82151
400.82099
400.82083
400.82023
400.82012
400.82013
400.82022
400.8204
400.82074
400.82141
400.82171
400.82129
400.82117
400.82058
400.82046
400.82047
400.82056
400.82074
400.82109
400.82178
400.82208
400.82169
400.82174
400.82125
400.82113
400.82114
400.82123
400.82141
400.82178
400.82247
400.82277
400.82175
400.82186
400.82153
400.82142
400.82142
400.82151
400.82171
400.82208
400.82277
400.82273
416.35674
416.35687
416.35606
416.35594
416.35596
416.35607
416.35626
416.35658
416.35702
416.3571
416.35687
416.35652
416.35586
416.35576
416.35579
416.35589
416.35609
416.35644
416.35706
416.35721
416.35606
416.35586
416.35525
416.35517
416.3552
416.3553
416.35549
416.35584
416.35656
416.35688
416.35594
416.35576
416.35517
416.35509
416.35512
416.35522
416.3554
416.35574
416.35645
416.35678
416.35596
416.35579
416.3552
416.35512
416.35515
416.35524
416.35542
416.35576
416.35647
416.35679
416.35607
416.35589
416.3553
416.35522
416.35524
416.35534
416.35551
416.35585
416.35655
416.35687
416.35626
416.35609
416.35549
416.3554
416.35542
416.35551
416.35569
416.35603
416.35674
416.35707
416.35658
416.35644
416.35584
416.35574
416.35576
416.35585
416.35603
416.35637
416.3571
416.35745
416.35702
416.35706
416.35656
416.35645
416.35647
416.35655
416.35674
416.3571
416.35785
416.35821
416.3571
416.35721
416.35688
416.35678
416.35679
416.35687
416.35707
416.35745
416.35821
416.35817
430.71684
430.71696
430.71616
430.71607
430.71612
430.71623
430.71643
430.71675
430.7172
430.7173
430.71696
430.71661
430.71597
430.7159
430.71595
430.71606
430.71625
430.7166
430.71724
430.71742
430.71616
430.71597
430.71538
430.71533
430.71538
430.71548
430.71566
430.71601
430.71675
430.71709
430.71607
430.7159
430.71533
430.71528
430.71533
430.71543
430.7156
430.71593
430.71666
430.717
430.71612
430.71595
430.71538
430.71533
430.71538
430.71548
430.71563
430.71595
430.71667
430.71701
430.71623
430.71606
430.71548
430.71543
430.71548
430.71557
430.71572
430.71603
430.71675
430.71709
430.71643
430.71625
430.71566
430.7156
430.71563
430.71572
430.71588
430.71619
430.71692
430.71727
430.71675
430.7166
430.71601
430.71593
430.71595
430.71603
430.71619
430.71652
430.71727
430.71764
430.7172
430.71724
430.71675
430.71666
430.71667
430.71675
430.71692
430.71727
430.71805
430.71845
430.7173
430.71742
430.71709
430.717
430.71701
430.71709
430.71727
430.71764
430.71845
430.71842
443.98394
443.98407
443.9833
443.98324
443.98331
443.98343
443.98362
443.98392
443.98438
443.98448
443.98407
443.98372
443.98312
443.98309
443.98316
443.98327
443.98345
443.98378
443.98443
443.98461
443.9833
443.98312
443.98256
443.98255
443.98262
443.98272
443.98288
443.9832
443.98394
443.9843
443.98324
443.98309
443.98255
443.98254
443.98261
443.9827
443.98285
443.98314
443.98387
443.98422
443.98331
443.98316
443.98262
443.98261
443.98267
443.98276
443.98289
443.98317
443.98389
443.98422
443.98343
443.98327
443.98272
443.9827
443.98276
443.98284
443.98297
443.98325
443.98396
443.98429
443.98362
443.98345
443.98288
443.98285
443.98289
443.98297
443.9831
443.98338
443.9841
443.98444
443.98392
443.98378
443.9832
443.98314
443.98317
443.98325
443.98338
443.98367
443.98442
443.9848
443.98438
443.98443
443.98394
443.98387
443.98389
443.98396
443.9841
443.98442
443.9852
443.98562
443.98448
443.98461
443.9843
443.98422
443.98422
443.98429
443.98444
443.9848
443.98562
443.98559
456.23092
456.23105
456.23032
456.2303
456.23039
456.23051
456.23068
456.23096
456.2314
456.2315
456.23105
456.23072
456.23016
456.23017
456.23026
456.23037
456.23053
456.23082
456.23146
456.23164
456.23032
456.23016
456.22965
456.22967
456.22976
456.22986
456.22999
456.23027
456.23099
456.23134
456.2303
456.23017
456.22967
456.2297
456.22978
456.22987
456.22998
456.23023
456.23093
456.23127
456.23039
456.23026
456.22976
456.22978
456.22986
456.22993
456.23003
456.23027
456.23095
456.23128
456.23051
456.23037
456.22986
456.22987
456.22993
456.23
456.2301
456.23032
456.231
456.23133
456.23068
456.23053
456.22999
456.22998
456.23003
456.2301
456.23019
456.23042
456.23111
456.23145
456.23096
456.23082
456.23027
456.23023
456.23027
456.23032
456.23042
456.23067
456.23139
456.23176
456.2314
456.23146
456.23099
456.23093
456.23095
456.231
456.23111
456.23139
456.23215
456.23258
456.2315
456.23164
456.23134
456.23127
456.23128
456.23133
456.23145
456.23176
456.23258
456.23254
467.52349
467.52364
467.52295
467.52297
467.52307
467.52319
467.52334
467.52359
467.52401
467.52409
467.52364
467.52334
467.52282
467.52287
467.52297
467.52308
467.52321
467.52346
467.52407
467.52424
467.52295
467.52282
467.52236
467.52242
467.52252
467.5226
467.52271
467.52294
467.52363
467.52396
467.52297
467.52287
467.52242
467.52248
467.52257
467.52264
467.52272
467.52292
467.52358
467.5239
467.52307
467.52297
467.52252
467.52257
467.52265
467.52272
467.52278
467.52296
467.5236
467.5239
467.52319
467.52308
467.5226
467.52264
467.52272
467.52277
467.52282
467.52299
467.52363
467.52393
467.52334
467.52321
467.52271
467.52272
467.52278
467.52282
467.52288
467.52305
467.5237
467.52401
467.52359
467.52346
467.52294
467.52292
467.52296
467.52299
467.52305
467.52325
467.52392
467.52428
467.52401
467.52407
467.52363
467.52358
467.5236
467.52363
467.5237
467.52392
467.52466
467.52508
467.52409
467.52424
467.52396
467.5239
467.5239
467.52393
467.52401
467.52428
467.52508
467.52503
477.92185
477.92201
477.92137
477.92143
477.92155
477.92166
477.92178
477.92199
477.92237
477.92244
477.92201
477.92175
477.92128
477.92136
477.92148
477.92157
477.92167
477.92188
477.92245
477.9226
477.92137
477.92128
477.92086
477.92096
477.92107
477.92114
477.92121
477.92139
477.92203
477.92233
477.92143
477.92136
477.92096
477.92105
477.92115
477.92121
477.92125
477.92139
477.92199
477.92228
477.92155
477.92148
477.92107
477.92115
477.92124
477.92128
477.92131
477.92142
477.92201
477.92228
477.92166
477.92157
477.92114
477.92121
477.92128
477.92132
477.92133
477.92144
477.92202
477.92228
477.92178
477.92167
477.92121
477.92125
477.92131
477.92133
477.92134
477.92145
477.92204
477.92232
477.92199
477.92188
477.92139
477.92139
477.92142
477.92144
477.92145
477.92159
477.92221
477.92254
477.92237
477.92245
477.92203
477.92199
477.92201
477.92202
477.92204
477.92221
477.9229
477.92331
477.92244
477.9226
477.92233
477.92228
477.92228
477.92228
477.92232
477.92254
477.92331
477.92324
487.48176
487.48194
487.48135
487.48144
487.48157
487.48166
487.48175
487.48192
487.48226
487.48231
487.48194
487.4817
487.48129
487.4814
487.48153
487.4816
487.48167
487.48183
487.48235
487.48248
487.48135
487.48129
487.48092
487.48104
487.48116
487.48122
487.48125
487.48138
487.48196
487.48223
487.48144
487.4814
487.48104
487.48116
487.48127
487.48131
487.48131
487.48139
487.48193
487.48219
487.48157
487.48153
487.48116
487.48127
487.48136
487.48138
487.48136
487.48142
487.48194
487.48218
487.48166
487.4816
487.48122
487.48131
487.48138
487.4814
487.48136
487.48141
487.48193
487.48216
487.48175
487.48167
487.48125
487.48131
487.48136
487.48136
487.48133
487.48138
487.48191
487.48215
487.48192
487.48183
487.48138
487.48139
487.48142
487.48141
487.48138
487.48145
487.48202
487.48232
487.48226
487.48235
487.48196
487.48193
487.48194
487.48193
487.48191
487.48202
487.48266
487.48304
487.48231
487.48248
487.48223
487.48219
487.48218
487.48216
487.48215
487.48232
487.48304
487.48296
496.25539
496.25559
496.25505
496.25516
496.2553
496.25538
496.25544
496.25556
496.25586
496.25588
496.25559
496.25539
496.25502
496.25516
496.25529
496.25535
496.25538
496.25549
496.25596
496.25606
496.25505
496.25502
496.2547
496.25485
496.25497
496.25501
496.255
496.25507
496.2556
496.25584
496.25516
496.25516
496.25485
496.25499
496.25509
496.25512
496.25508
496.2551
496.25558
496.2558
496.2553
496.25529
496.25497
496.25509
496.25519
496.25519
496.25513
496.25513
496.25558
496.25578
496.25538
496.25535
496.25501
496.25512
496.25519
496.25518
496.25511
496.25509
496.25554
496.25573
496.25544
496.25538
496.255
496.25508
496.25513
496.25511
496.25503
496.25502
496.25548
496.25568
496.25556
496.25549
496.25507
496.2551
496.25513
496.25509
496.25502
496.25503
496.25553
496.25579
496.25586
496.25596
496.2556
496.25558
496.25558
496.25554
496.25548
496.25553
496.25611
496.25647
496.25588
496.25606
496.25584
496.2558
496.25578
496.25573
496.25568
496.25579
496.25647
496.25636
504.29196
504.29216
504.29168
504.29182
504.29195
504.29202
504.29205
504.29213
504.29238
504.29237
504.29216
504.292
504.29168
504.29184
504.29197
504.29202
504.29201
504.29208
504.29249
504.29256
504.29168
504.29168
504.29141
504.29157
504.29169
504.29172
504.29167
504.29169
504.29215
504.29235
504.29182
504.29184
504.29157
504.29173
504.29183
504.29184
504.29176
504.29173
504.29214
504.29232
504.29195
504.29197
504.29169
504.29183
504.29192
504.29191
504.29181
504.29175
504.29213
504.29229
504.29202
504.29202
504.29172
504.29184
504.29191
504.29187
504.29176
504.29169
504.29207
504.29222
504.29205
504.29201
504.29167
504.29176
504.29181
504.29176
504.29164
504.29157
504.29196
504.29213
504.29213
504.29208
504.29169
504.29173
504.29175
504.29169
504.29157
504.29152
504.29196
504.29218
504.29238
504.29249
504.29215
504.29214
504.29213
504.29207
504.29196
504.29196
504.29248
504.2928
504.29237
504.29256
504.29235
504.29232
504.29229
504.29222
504.29213
504.29218
504.2928
504.29267
511.63815
511.63837
511.63794
511.63809
511.63822
511.63827
511.63827
511.63831
511.63852
511.63849
511.63837
511.63824
511.63796
511.63814
511.63827
511.6383
511.63826
511.63828
511.63863
511.63867
511.63794
511.63796
511.63773
511.63791
511.63803
511.63803
511.63796
511.63792
511.63832
511.63849
511.63809
511.63814
511.63791
511.63808
511.63818
511.63817
511.63805
511.63797
511.63832
511.63845
511.63822
511.63827
511.63803
511.63818
511.63827
511.63823
511.63809
511.63798
511.6383
511.63841
511.63827
511.6383
511.63803
511.63817
511.63823
511.63818
511.63802
511.6379
511.63821
511.63832
511.63827
511.63826
511.63796
511.63805
511.63809
511.63802
511.63786
511.63774
511.63807
511.63819
511.63831
511.63828
511.63792
511.63797
511.63798
511.6379
511.63774
511.63764
511.63801
511.63819
511.63852
511.63863
511.63832
511.63832
511.6383
511.63821
511.63807
511.63801
511.63846
511.63876
511.63849
511.63867
511.63849
511.63845
511.63841
511.63832
511.63819
511.63819
511.63876
511.63861
518.3385
518.33873
518.33834
518.33851
518.33864
518.33867
518.33864
518.33864
518.3388
518.33875
518.33873
518.33863
518.33839
518.33858
518.3387
518.33872
518.33865
518.33862
518.33893
518.33894
518.33834
518.33839
518.3382
518.33839
518.3385
518.33849
518.33838
518.3383
518.33864
518.33877
518.33851
518.33858
518.33839
518.33857
518.33866
518.33863
518.33848
518.33835
518.33864
518.33874
518.33864
518.3387
518.3385
518.33866
518.33874
518.33868
518.33851
518.33835
518.33861
518.33868
518.33867
518.33872
518.33849
518.33863
518.33868
518.33861
518.33842
518.33825
518.3385
518.33857
518.33864
518.33865
518.33838
518.33848
518.33851
518.33842
518.33823
518.33806
518.33832
518.33841
518.33864
518.33862
518.3383
518.33835
518.33835
518.33825
518.33806
518.33791
518.33822
518.33836
518.3388
518.33893
518.33864
518.33864
518.33861
518.3385
518.33832
518.33822
518.33861
518.33887
518.33875
518.33894
518.33877
518.33874
518.33868
518.33857
518.33841
518.33836
518.33887
518.3387
524.4356
524.43584
524.4355
524.43567
524.4358
524.43582
524.43576
524.43572
524.43584
524.43577
524.43584
524.43577
524.43557
524.43576
524.43588
524.43588
524.43579
524.43572
524.43597
524.43596
524.4355
524.43557
524.43541
524.4356
524.43571
524.43568
524.43555
524.43543
524.43571
524.4358
524.43567
524.43576
524.4356
524.43579
524.43588
524.43582
524.43565
524.43548
524.43571
524.43577
524.4358
524.43588
524.43571
524.43588
524.43595
524.43587
524.43567
524.43547
524.43567
524.43571
524.43582
524.43588
524.43568
524.43582
524.43587
524.43578
524.43556
524.43535
524.43554
524.43557
524.43576
524.43579
524.43555
524.43565
524.43567
524.43556
524.43534
524.43513
524.43533
524.43538
524.43572
524.43572
524.43543
524.43548
524.43547
524.43535
524.43513
524.43494
524.43519
524.4353
524.43584
524.43597
524.43571
524.43571
524.43567
524.43554
524.43533
524.43519
524.43552
524.43575
524.43577
524.43596
524.4358
524.43577
524.43571
524.43557
524.43538
524.4353
524.43575
524.43556
529.97033
529.97057
529.97027
529.97045
529.97057
529.97057
529.97049
529.97042
529.9705
529.97041
529.97057
529.97052
529.97036
529.97055
529.97066
529.97065
529.97053
529.97043
529.97063
529.9706
529.97027
529.97036
529.97023
529.97042
529.97052
529.97048
529.97032
529.97016
529.97039
529.97045
529.97045
529.97055
529.97042
529.97061
529.97069
529.97062
529.97042
529.97021
529.97039
529.97042
529.97057
529.97066
529.97052
529.97069
529.97075
529.97066
529.97044
529.9702
529.97035
529.97035
529.97057
529.97065
529.97048
529.97062
529.97066
529.97055
529.97031
529.97006
529.9702
529.9702
529.97049
529.97053
529.97032
529.97042
529.97044
529.97031
529.97007
529.96982
529.96997
529.96999
529.97042
529.97043
529.97016
529.97021
529.9702
529.97006
529.96982
529.96959
529.96978
529.96986
529.9705
529.97063
529.97039
529.97039
529.97035
529.9702
529.96997
529.96978
529.97007
529.97026
529.97041
529.9706
529.97045
529.97042
529.97035
529.9702
529.96999
529.96986
529.97026
529.97006
534.98192
534.98217
534.9819
534.98208
534.98219
534.98218
534.98208
534.98198
534.98203
534.98192
534.98217
534.98214
534.982
534.98219
534.9823
534.98226
534.98213
534.982
534.98216
534.9821
534.9819
534.982
534.9819
534.98209
534.98218
534.98212
534.98194
534.98176
534.98194
534.98197
534.98208
534.98219
534.98209
534.98227
534.98234
534.98226
534.98204
534.98181
534.98194
534.98194
534.98219
534.9823
534.98218
534.98234
534.98239
534.98229
534.98205
534.98178
534.98189
534.98186
534.98218
534.98226
534.98212
534.98226
534.98229
534.98217
534.98191
534.98163
534.98173
534.9817
534.98208
534.98213
534.98194
534.98204
534.98205
534.98191
534.98165
534.98137
534.98148
534.98146
534.98198
534.982
534.98176
534.98181
534.98178
534.98163
534.98137
534.98112
534.98126
534.98131
534.98203
534.98216
534.98194
534.98194
534.98189
534.98173
534.98148
534.98126
534.98149
534.98166
534.98192
534.9821
534.98197
534.98194
534.98186
534.9817
534.98146
534.98131
534.98166
534.98145
539.50811
539.50835
539.50811
539.50829
539.50839
539.50836
539.50825
539.50813
539.50815
539.50803
539.50835
539.50834
539.50823
539.50841
539.5085
539.50846
539.50831
539.50816
539.50828
539.5082
539.50811
539.50823
539.50814
539.50833
539.50841
539.50834
539.50814
539.50794
539.50808
539.50808
539.50829
539.50841
539.50833
539.5085
539.50857
539.50847
539.50824
539.50799
539.50808
539.50805
539.50839
539.5085
539.50841
539.50857
539.50861
539.50849
539.50824
539.50795
539.50801
539.50797
539.50836
539.50846
539.50834
539.50847
539.50849
539.50836
539.50809
539.50779
539.50784
539.50779
539.50825
539.50831
539.50814
539.50824
539.50824
539.50809
539.50781
539.50752
539.50758
539.50754
539.50813
539.50816
539.50794
539.50799
539.50795
539.50779
539.50752
539.50724
539.50734
539.50736
539.50815
539.50828
539.50808
539.50808
539.50801
539.50784
539.50758
539.50734
539.50753
539.50767
539.50803
539.5082
539.50808
539.50805
539.50797
539.50779
539.50754
539.50736
539.50767
539.50745
543.58513
543.58537
543.58517
543.58533
543.58543
543.58539
543.58526
543.58512
543.58512
543.58499
543.58537
543.58537
543.58528
543.58546
543.58555
543.58549
543.58533
543.58516
543.58525
543.58516
543.58517
543.58528
543.58522
543.5854
543.58547
543.58539
543.58518
543.58496
543.58506
543.58505
543.58533
543.58546
543.5854
543.58557
543.58562
543.58552
543.58528
543.585
543.58506
543.58501
543.58543
543.58555
543.58547
543.58562
543.58565
543.58553
543.58527
543.58496
543.58499
543.58493
543.58539
543.58549
543.58539
543.58552
543.58553
543.58539
543.58511
543.5848
543.58481
543.58474
543.58526
543.58533
543.58518
543.58528
543.58527
543.58511
543.58482
543.58451
543.58454
543.58448
543.58512
543.58516
543.58496
543.585
543.58496
543.5848
543.58451
543.58422
543.58429
543.58429
543.58512
543.58525
543.58506
543.58506
543.58499
543.58481
543.58454
543.58429
543.58443
543.58455
543.58499
543.58516
543.58505
543.58501
543.58493
543.58474
543.58448
543.58429
543.58455
543.58432
547.24785
547.24808
547.2479
547.24806
547.24814
547.2481
547.24796
547.2478
547.24778
547.24764
547.24808
547.24809
547.24802
547.24819
547.24826
547.2482
547.24803
547.24784
547.2479
547.2478
547.2479
547.24802
547.24797
547.24814
547.2482
547.24811
547.2479
547.24767
547.24773
547.2477
547.24806
547.24819
547.24814
547.2483
547.24834
547.24823
547.24799
547.2477
547.24773
547.24767
547.24814
547.24826
547.2482
547.24834
547.24837
547.24824
547.24797
547.24766
547.24766
547.24758
547.2481
547.2482
547.24811
547.24823
547.24824
547.24809
547.24781
547.24749
547.24747
547.24739
547.24796
547.24803
547.2479
547.24799
547.24797
547.24781
547.24752
547.2472
547.2472
547.24712
547.2478
547.24784
547.24767
547.2477
547.24766
547.24749
547.2472
547.2469
547.24693
547.24691
547.24778
547.2479
547.24773
547.24773
547.24766
547.24747
547.2472
547.24693
547.24705
547.24714
547.24764
547.2478
547.2477
547.24767
547.24758
547.24739
547.24712
547.24691
547.24714
547.24691
550.52969
550.52991
550.52975
550.5299
550.52997
550.52992
550.52978
550.52962
550.52957
550.52943
550.52991
550.52993
550.52987
550.53004
550.5301
550.53003
550.52985
550.52966
550.52969
550.52958
550.52975
550.52987
550.52984
550.53
550.53005
550.52995
550.52974
550.5295
550.52954
550.52949
550.5299
550.53004
550.53
550.53014
550.53018
550.53006
550.52982
550.52953
550.52953
550.52946
550.52997
550.5301
550.53005
550.53018
550.53019
550.53006
550.52979
550.52948
550.52945
550.52936
550.52992
550.53003
550.52995
550.53006
550.53006
550.52991
550.52963
550.52931
550.52927
550.52917
550.52978
550.52985
550.52974
550.52982
550.52979
550.52963
550.52934
550.52902
550.52899
550.52891
550.52962
550.52966
550.5295
550.52953
550.52948
550.52931
550.52902
550.52871
550.52872
550.52869
550.52957
550.52969
550.52954
550.52953
550.52945
550.52927
550.52899
550.52872
550.52881
550.52888
550.52943
550.52958
550.52949
550.52946
550.52936
550.52917
550.52891
550.52869
550.52888
550.52866
553.46272
553.46293
553.4628
553.46294
553.463
553.46294
553.46279
553.46263
553.46257
553.46243
553.46293
553.46296
553.46292
553.46307
553.46312
553.46304
553.46286
553.46267
553.46268
553.46257
553.4628
553.46292
553.46289
553.46304
553.46308
553.46298
553.46277
553.46252
553.46254
553.46248
553.46294
553.46307
553.46304
553.46317
553.4632
553.46308
553.46284
553.46255
553.46253
553.46245
553.463
553.46312
553.46308
553.4632
553.46321
553.46307
553.46281
553.4625
553.46245
553.46235
553.46294
553.46304
553.46298
553.46308
553.46307
553.46292
553.46264
553.46232
553.46227
553.46217
553.46279
553.46286
553.46277
553.46284
553.46281
553.46264
553.46236
553.46204
553.46199
553.4619
553.46263
553.46267
553.46252
553.46255
553.4625
553.46232
553.46204
553.46173
553.46172
553.46168
553.46257
553.46268
553.46254
553.46253
553.46245
553.46227
553.46199
553.46172
553.46178
553.46184
553.46243
553.46257
553.46248
553.46245
553.46235
553.46217
553.4619
553.46168
553.46184
553.46162
556.07766
556.07786
556.07774
556.07787
556.07792
556.07786
556.07771
556.07754
556.07748
556.07734
556.07786
556.0779
556.07786
556.078
556.07804
556.07796
556.07778
556.07758
556.07758
556.07747
556.07774
556.07786
556.07784
556.07797
556.078
556.07791
556.07769
556.07745
556.07745
556.07739
556.07787
556.078
556.07797
556.0781
556.07811
556.078
556.07776
556.07748
556.07744
556.07735
556.07792
556.07804
556.078
556.07811
556.07812
556.07798
556.07772
556.07742
556.07736
556.07726
556.07786
556.07796
556.07791
556.078
556.07798
556.07783
556.07756
556.07725
556.07718
556.07707
556.07771
556.07778
556.07769
556.07776
556.07772
556.07756
556.07728
556.07697
556.07691
556.07682
556.07754
556.07758
556.07745
556.07748
556.07742
556.07725
556.07697
556.07667
556.07665
556.0766
556.07748
556.07758
556.07745
556.07744
556.07736
556.07718
556.07691
556.07665
556.07669
556.07673
556.07734
556.07747
556.07739
556.07735
556.07726
556.07707
556.07682
556.0766
556.07673
556.07652
558.40388
558.40406
558.40396
558.40408
558.40412
558.40405
558.40391
558.40374
558.40366
558.40353
558.40406
558.4041
558.40407
558.40419
558.40423
558.40415
558.40397
558.40378
558.40376
558.40365
558.40396
558.40407
558.40406
558.40418
558.4042
558.4041
558.4039
558.40366
558.40365
558.40358
558.40408
558.40419
558.40418
558.40429
558.4043
558.40418
558.40395
558.40368
558.40363
558.40354
558.40412
558.40423
558.4042
558.4043
558.40429
558.40416
558.40391
558.40362
558.40355
558.40344
558.40405
558.40415
558.4041
558.40418
558.40416
558.40402
558.40375
558.40345
558.40338
558.40327
558.40391
558.40397
558.4039
558.40395
558.40391
558.40375
558.40349
558.40319
558.40312
558.40302
558.40374
558.40378
558.40366
558.40368
558.40362
558.40345
558.40319
558.4029
558.40286
558.4028
558.40366
558.40376
558.40365
558.40363
558.40355
558.40338
558.40312
558.40286
558.40288
558.40291
558.40353
558.40365
558.40358
558.40354
558.40344
558.40327
558.40302
558.4028
558.40291
558.40272
560.46942
560.46959
560.4695
560.46961
560.46964
560.46957
560.46943
560.46926
560.46919
560.46906
560.46959
560.46963
560.46961
560.46971
560.46974
560.46966
560.46949
560.4693
560.46927
560.46916
560.4695
560.46961
560.4696
560.4697
560.46972
560.46962
560.46942
560.46919
560.46917
560.4691
560.46961
560.46971
560.4697
560.4698
560.4698
560.46969
560.46947
560.46921
560.46915
560.46906
560.46964
560.46974
560.46972
560.4698
560.46979
560.46967
560.46943
560.46915
560.46907
560.46897
560.46957
560.46966
560.46962
560.46969
560.46967
560.46952
560.46928
560.46899
560.46891
560.4688
560.46943
560.46949
560.46942
560.46947
560.46943
560.46928
560.46902
560.46873
560.46866
560.46856
560.46926
560.4693
560.46919
560.46921
560.46915
560.46899
560.46873
560.46846
560.46841
560.46835
560.46919
560.46927
560.46917
560.46915
560.46907
560.46891
560.46866
560.46841
560.46843
560.46845
560.46906
560.46916
560.4691
560.46906
560.46897
560.4688
560.46856
560.46835
560.46845
560.46826
562.30106
562.30121
562.30114
562.30123
562.30125
562.30118
562.30104
562.30089
562.30081
562.30069
562.30121
562.30125
562.30123
562.30133
562.30134
562.30126
562.3011
562.30092
562.30089
562.30078
562.30114
562.30123
562.30122
562.30132
562.30133
562.30123
562.30104
562.30083
562.30079
562.30072
562.30123
562.30133
562.30132
562.3014
562.3014
562.30129
562.30108
562.30083
562.30077
562.30068
562.30125
562.30134